Protein in INSANE! Membrane UpperLeaflet>POPC=1.0 LowerLeaflet>POPC=1.0
243857
   22AUC    AUC    1  38.297   2.644   7.500
   23AUC    AUC    2  38.543   2.644   7.348
   24AUC    AUC    3  38.543   2.644   7.651
   25AUC    AUC    4  38.052   2.644   7.348
   26AUC    AUC    5  38.052   2.644   7.651
   27AUC    AUC    6  38.146   2.889   7.500
   28AUC    AUC    7  38.449   2.889   7.500
   29AUC    AUC    8  38.146   2.398   7.500
   30AUC    AUC    9  38.449   2.398   7.500
   31AUC    AUC   10  38.297   2.492   7.745
   32AUC    AUC   11  38.297   2.795   7.745
   33AUC    AUC   12  38.297   2.492   7.254
   34AUC    AUC   13  38.297   2.795   7.254
   35AUC    AUC   14  38.788   2.644   7.196
   36AUC    AUC   15  38.788   2.644   7.500
   37AUC    AUC   16  38.788   2.644   7.803
   38AUC    AUC   17  37.806   2.644   7.196
   39AUC    AUC   18  37.806   2.644   7.500
   40AUC    AUC   19  37.806   2.644   7.803
   41AUC    AUC   20  37.994   3.134   7.500
   42AUC    AUC   21  38.297   3.134   7.500
   43AUC    AUC   22  38.601   3.134   7.500
   44AUC    AUC   23  37.994   2.153   7.500
   45AUC    AUC   24  38.297   2.153   7.500
   46AUC    AUC   25  38.601   2.153   7.500
   47AUC    AUC   26  38.297   2.340   7.991
   48AUC    AUC   27  38.297   2.644   7.991
   49AUC    AUC   28  38.297   2.947   7.991
   50AUC    AUC   29  38.297   2.340   7.009
   51AUC    AUC   30  38.297   2.644   7.009
   52AUC    AUC   31  38.297   2.947   7.009
   53AUC    AUC   32  38.543   2.492   7.897
   54AUC    AUC   33  38.543   2.795   7.897
   55AUC    AUC   34  38.543   2.492   7.103
   56AUC    AUC   35  38.543   2.795   7.103
   57AUC    AUC   36  38.052   2.492   7.897
   58AUC    AUC   37  38.052   2.795   7.897
   59AUC    AUC   38  38.052   2.492   7.103
   60AUC    AUC   39  38.052   2.795   7.103
   61AUC    AUC   40  38.694   2.889   7.348
   62AUC    AUC   41  38.694   2.889   7.651
   63AUC    AUC   42  37.900   2.889   7.348
   64AUC    AUC   43  37.900   2.889   7.651
   65AUC    AUC   44  38.694   2.398   7.348
   66AUC    AUC   45  38.694   2.398   7.651
   67AUC    AUC   46  37.900   2.398   7.348
   68AUC    AUC   47  37.900   2.398   7.651
   69AUC    AUC   48  38.146   3.041   7.745
   70AUC    AUC   49  38.449   3.041   7.745
   71AUC    AUC   50  38.146   2.246   7.745
   72AUC    AUC   51  38.449   2.246   7.745
   73AUC    AUC   52  38.146   3.041   7.254
   74AUC    AUC   53  38.449   3.041   7.254
   75AUC    AUC   54  38.146   2.246   7.254
   76AUC    AUC   55  38.449   2.246   7.254
   77AUSL   AUS   56  38.706   2.644   8.080
   78AUSL   AUS   57  38.562   2.227   8.011
   79AUL    AUL   58  38.788   2.340   8.294
   80THSLK    S   59  38.680   2.039   8.156
   81ETHY    C1   60  38.776   1.671   8.412
   82ETHY    C1   61  38.954   1.288   8.753
   83ETHY    C1   62  39.196   0.988   9.130
   84ETHY    C1   63  39.492   0.769   9.534
   85THSLK    S   64  38.805   2.597   8.327
   86ETHY    C1   65  39.032   2.447   8.694
   87ETHY    C1   66  39.316   2.359   9.148
   88ETHY    C1   67  39.600   2.381   9.607
   89ETHY    C1   68  39.877   2.503  10.061
   90AUSL   AUS   69  38.461   2.492   8.173
   91AUSL   AUS   70  38.134   2.795   8.173
   92AUL    AUL   71  38.297   2.644   8.482
   93THSLK    S   72  38.542   2.441   8.418
   94ETHY    C1   73  38.632   2.223   8.810
   95ETHY    C1   74  38.760   2.049   9.308
   96ETHY    C1   75  38.906   1.984   9.823
   97ETHY    C1   76  39.063   2.018  10.346
   98THSLK    S   77  38.047   2.755   8.432
   99ETHY    C1   78  37.958   2.681   8.874
  100ETHY    C1   79  37.834   2.683   9.403
  101ETHY    C1   80  37.689   2.792   9.912
  102ETHY    C1   81  37.526   2.996  10.392
  103AUSL   AUS   82  38.461   2.795   8.173
  104AUSL   AUS   83  38.807   2.908   7.916
  105AUL    AUL   84  38.788   2.947   8.294
  106THSLK    S   85  38.548   2.847   8.416
  107ETHY    C1   86  38.636   3.064   8.809
  108ETHY    C1   87  38.761   3.237   9.308
  109ETHY    C1   88  38.906   3.303   9.823
  110ETHY    C1   89  39.069   3.270  10.345
  111THSLK    S   90  38.983   3.014   8.079
  112ETHY    C1   91  39.345   3.064   8.355
  113ETHY    C1   92  39.752   3.213   8.681
  114ETHY    C1   93  40.114   3.462   8.995
  115ETHY    C1   94  40.426   3.798   9.293
  116AUSL   AUS   95  38.706   2.644   6.920
  117AUSL   AUS   96  38.562   3.060   6.990
  118AUL    AUL   97  38.788   2.947   6.706
  119THSLK    S   98  38.810   2.597   6.676
  120ETHY    C1   99  39.037   2.447   6.308
  121ETHY    C1  100  39.316   2.359   5.851
  122ETHY    C1  101  39.600   2.381   5.393
  123ETHY    C1  102  39.882   2.503   4.941
  124THSLK    S  103  38.739   3.179   6.820
  125ETHY    C1  104  39.011   3.320   6.480
  126ETHY    C1  105  39.289   3.567   6.085
  127ETHY    C1  106  39.505   3.900   5.720
  128ETHY    C1  107  39.662   4.307   5.391
  129AUSL   AUS  108  38.461   2.492   6.826
  130AUSL   AUS  109  38.807   2.379   7.083
  131AUL    AUL  110  38.788   2.340   6.706
  132THSLK    S  111  38.947   2.188   6.939
  133ETHY    C1  112  39.180   1.871   6.707
  134ETHY    C1  113  39.510   1.564   6.403
  135ETHY    C1  114  39.890   1.355   6.083
  136ETHY    C1  115  40.311   1.238   5.754
  137THSLK    S  116  38.548   2.440   6.583
  138ETHY    C1  117  38.636   2.223   6.191
  139ETHY    C1  118  38.761   2.050   5.692
  140ETHY    C1  119  38.906   1.984   5.176
  141ETHY    C1  120  39.069   2.017   4.656
  142AUSL   AUS  121  38.461   2.795   6.826
  143AUSL   AUS  122  38.134   2.492   6.826
  144AUL    AUL  123  38.297   2.644   6.518
  145THSLK    S  124  38.038   2.440   6.586
  146ETHY    C1  125  37.899   2.225   6.206
  147ETHY    C1  126  37.742   2.054   5.717
  148ETHY    C1  127  37.603   1.988   5.199
  149ETHY    C1  128  37.487   2.019   4.666
  150THSLK    S  129  38.563   2.756   6.572
  151ETHY    C1  130  38.700   2.679   6.142
  152ETHY    C1  131  38.853   2.679   5.622
  153ETHY    C1  132  38.991   2.788   5.112
  154ETHY    C1  133  39.114   2.995   4.621
  155AUSL   AUS  134  37.888   2.644   8.080
  156AUSL   AUS  135  38.033   3.060   8.011
  157AUL    AUL  136  37.806   2.947   8.294
  158THSLK    S  137  37.784   2.597   8.325
  159ETHY    C1  138  37.558   2.447   8.691
  160ETHY    C1  139  37.278   2.359   9.148
  161ETHY    C1  140  36.995   2.381   9.607
  162ETHY    C1  141  36.712   2.503  10.058
  163THSLK    S  142  37.910   3.193   8.201
  164ETHY    C1  143  37.814   3.388   8.604
  165ETHY    C1  144  37.641   3.669   9.034
  166ETHY    C1  145  37.398   3.995   9.390
  167ETHY    C1  146  37.097   4.354   9.671
  168AUSL   AUS  147  38.134   2.492   8.173
  169AUSL   AUS  148  37.787   2.379   7.916
  170AUL    AUL  149  37.806   2.340   8.294
  171THSLK    S  150  37.608   2.213   8.032
  172ETHY    C1  151  37.247   1.966   8.166
  173ETHY    C1  152  36.842   1.700   8.410
  174ETHY    C1  153  36.481   1.480   8.745
  175ETHY    C1  154  36.165   1.307   9.156
  176THSLK    S  155  38.032   2.442   8.413
  177ETHY    C1  156  37.894   2.227   8.793
  178ETHY    C1  157  37.741   2.054   9.284
  179ETHY    C1  158  37.604   1.988   9.800
  180ETHY    C1  159  37.480   2.020  10.332
  181AUSL   AUS  160  37.888   2.644   6.920
  182AUSL   AUS  161  38.033   2.227   6.990
  183AUL    AUL  162  37.806   2.340   6.706
  184THSLK    S  163  37.789   2.597   6.673
  185ETHY    C1  164  37.562   2.447   6.305
  186ETHY    C1  165  37.279   2.359   5.851
  187ETHY    C1  166  36.995   2.381   5.393
  188ETHY    C1  167  36.718   2.503   4.938
  189THSLK    S  168  37.859   2.052   6.865
  190ETHY    C1  169  37.587   1.739   6.673
  191ETHY    C1  170  37.306   1.391   6.367
  192ETHY    C1  171  37.089   1.083   5.980
  193ETHY    C1  172  36.937   0.816   5.528
  194AUSL   AUS  173  38.134   2.795   6.826
  195AUSL   AUS  174  37.787   2.908   7.083
  196AUL    AUL  175  37.806   2.947   6.706
  197THSLK    S  176  37.651   3.039   6.893
  198ETHY    C1  177  37.417   3.160   6.518
  199ETHY    C1  178  37.085   3.348   6.132
  200ETHY    C1  179  36.705   3.587   5.833
  201ETHY    C1  180  36.288   3.867   5.618
  202THSLK    S  181  38.053   2.757   6.566
  203ETHY    C1  182  37.963   2.682   6.124
  204ETHY    C1  183  37.835   2.683   5.597
  205ETHY    C1  184  37.689   2.792   5.089
  206ETHY    C1  185  37.532   2.998   4.608
  207AUSL   AUS  186  38.877   3.053   7.500
  208AUSL   AUS  187  38.807   2.908   7.083
  209AUL    AUL  188  39.091   3.134   7.196
  210THSLK    S  189  38.987   3.015   6.925
  211ETHY    C1  190  39.348   3.065   6.648
  212ETHY    C1  191  39.752   3.213   6.319
  213ETHY    C1  192  40.114   3.462   6.005
  214ETHY    C1  193  40.430   3.799   5.713
  215THSLK    S  194  39.147   3.114   7.503
  216ETHY    C1  195  39.594   3.214   7.502
  217ETHY    C1  196  40.096   3.420   7.500
  218ETHY    C1  197  40.543   3.722   7.500
  219ETHY    C1  198  40.931   4.106   7.503
  220AUSL   AUS  199  38.971   2.807   7.348
  221AUSL   AUS  200  38.971   2.480   7.651
  222AUL    AUL  201  39.279   2.644   7.500
  223THSLK    S  202  39.233   2.854   7.345
  224ETHY    C1  203  39.683   2.823   7.270
  225ETHY    C1  204  40.215   2.878   7.179
  226ETHY    C1  205  40.722   3.041   7.091
  227ETHY    C1  206  41.197   3.299   7.011
  228THSLK    S  207  39.208   2.343   7.659
  229ETHY    C1  208  39.579   2.085   7.726
  230ETHY    C1  209  40.065   1.859   7.808
  231ETHY    C1  210  40.584   1.739   7.896
  232ETHY    C1  211  41.122   1.717   7.989
  233AUSL   AUS  212  38.971   2.807   7.651
  234AUSL   AUS  213  38.714   3.154   7.764
  235AUL    AUL  214  39.091   3.134   7.803
  236THSLK    S  215  38.899   3.278   7.924
  237ETHY    C1  216  39.256   3.470   8.136
  238ETHY    C1  217  39.633   3.777   8.377
  239ETHY    C1  218  39.934   4.164   8.602
  240ETHY    C1  219  40.161   4.615   8.809
  241THSLK    S  220  39.232   2.853   7.661
  242ETHY    C1  221  39.683   2.823   7.734
  243ETHY    C1  222  40.216   2.878   7.821
  244ETHY    C1  223  40.722   3.041   7.908
  245ETHY    C1  224  41.196   3.299   7.995
  246AUSL   AUS  225  37.717   3.053   7.500
  247AUSL   AUS  226  37.787   2.908   7.916
  248AUL    AUL  227  37.503   3.134   7.803
  249THSLK    S  228  37.647   3.034   8.107
  250ETHY    C1  229  37.414   3.155   8.482
  251ETHY    C1  230  37.085   3.348   8.868
  252ETHY    C1  231  36.705   3.587   9.166
  253ETHY    C1  232  36.284   3.862   9.381
  254THSLK    S  233  37.496   3.193   7.503
  255ETHY    C1  234  37.207   3.548   7.502
  256ETHY    C1  235  36.799   3.905   7.500
  257ETHY    C1  236  36.329   4.169   7.500
  258ETHY    C1  237  35.811   4.345   7.503
  259AUSL   AUS  238  37.624   2.807   7.348
  260AUSL   AUS  239  37.881   3.154   7.236
  261AUL    AUL  240  37.503   3.134   7.196
  262THSLK    S  241  37.387   2.921   7.303
  263ETHY    C1  242  37.015   3.095   7.101
  264ETHY    C1  243  36.529   3.271   6.936
  265ETHY    C1  244  36.011   3.403   6.868
  266ETHY    C1  245  35.473   3.495   6.890
  267THSLK    S  246  37.761   3.321   7.056
  268ETHY    C1  247  37.609   3.640   6.765
  269ETHY    C1  248  37.355   4.020   6.473
  270ETHY    C1  249  37.022   4.388   6.260
  271ETHY    C1  250  36.626   4.738   6.122
  272AUSL   AUS  251  37.624   2.807   7.651
  273AUSL   AUS  252  37.624   2.480   7.348
  274AUL    AUL  253  37.316   2.644   7.500
  275THSLK    S  254  37.362   2.405   7.384
  276ETHY    C1  255  36.912   2.354   7.446
  277ETHY    C1  256  36.379   2.251   7.434
  278ETHY    C1  257  35.872   2.101   7.327
  279ETHY    C1  258  35.399   1.908   7.135
  280THSLK    S  259  37.386   2.915   7.699
  281ETHY    C1  260  37.015   3.091   7.901
  282ETHY    C1  261  36.529   3.270   8.063
  283ETHY    C1  262  36.011   3.403   8.133
  284ETHY    C1  263  35.472   3.489   8.114
  285AUSL   AUS  264  38.877   2.234   7.500
  286AUSL   AUS  265  38.807   2.379   7.916
  287AUL    AUL  266  39.091   2.153   7.803
  288THSLK    S  267  39.098   2.094   7.503
  289ETHY    C1  268  39.387   1.739   7.502
  290ETHY    C1  269  39.796   1.382   7.500
  291ETHY    C1  270  40.266   1.118   7.500
  292ETHY    C1  271  40.783   0.942   7.503
  293THSLK    S  272  38.944   2.189   8.066
  294ETHY    C1  273  39.177   1.872   8.297
  295ETHY    C1  274  39.510   1.565   8.598
  296ETHY    C1  275  39.890   1.355   8.918
  297ETHY    C1  276  40.307   1.239   9.250
  298AUSL   AUS  277  38.971   2.480   7.348
  299AUSL   AUS  278  38.714   2.133   7.236
  300AUL    AUL  279  39.091   2.153   7.196
  301THSLK    S  280  39.209   2.343   7.346
  302ETHY    C1  281  39.580   2.085   7.279
  303ETHY    C1  282  40.065   1.859   7.192
  304ETHY    C1  283  40.584   1.739   7.103
  305ETHY    C1  284  41.123   1.717   7.018
  306THSLK    S  285  38.837   1.942   7.099
  307ETHY    C1  286  38.987   1.540   6.942
  308ETHY    C1  287  39.240   1.110   6.728
  309ETHY    C1  288  39.572   0.754   6.495
  310ETHY    C1  289  39.971   0.473   6.249
  311AUSL   AUS  290  37.717   2.234   7.500
  312AUSL   AUS  291  37.787   2.379   7.083
  313AUL    AUL  292  37.503   2.153   7.196
  314THSLK    S  293  37.612   2.208   6.966
  315ETHY    C1  294  37.250   1.962   6.833
  316ETHY    C1  295  36.842   1.699   6.589
  317ETHY    C1  296  36.481   1.480   6.255
  318ETHY    C1  297  36.169   1.302   5.843
  319THSLK    S  298  37.447   2.173   7.503
  320ETHY    C1  299  37.001   2.073   7.502
  321ETHY    C1  300  36.499   1.867   7.500
  322ETHY    C1  301  36.052   1.565   7.500
  323ETHY    C1  302  35.664   1.181   7.503
  324AUSL   AUS  303  37.624   2.480   7.651
  325AUSL   AUS  304  37.881   2.133   7.764
  326AUL    AUL  305  37.503   2.153   7.803
  327THSLK    S  306  37.693   1.985   7.881
  328ETHY    C1  307  37.337   1.709   7.958
  329ETHY    C1  308  36.962   1.352   8.122
  330ETHY    C1  309  36.661   0.978   8.367
  331ETHY    C1  310  36.430   0.596   8.682
  332THSLK    S  311  37.361   2.410   7.618
  333ETHY    C1  312  36.911   2.358   7.557
  334ETHY    C1  313  36.379   2.252   7.566
  335ETHY    C1  314  35.872   2.101   7.673
  336ETHY    C1  315  35.398   1.913   7.867
  337AUSL   AUS  316  38.297   3.224   7.909
  338AUSL   AUS  317  37.881   3.154   7.764
  339AUL    AUL  318  37.994   3.438   7.991
  340THSLK    S  319  37.758   3.316   7.948
  341ETHY    C1  320  37.607   3.636   8.237
  342ETHY    C1  321  37.354   4.019   8.527
  343ETHY    C1  322  37.022   4.387   8.740
  344ETHY    C1  323  36.623   4.733   8.881
  345THSLK    S  324  38.335   3.455   8.034
  346ETHY    C1  325  38.463   3.781   8.327
  347ETHY    C1  326  38.540   4.213   8.646
  348ETHY    C1  327  38.521   4.678   8.920
  349ETHY    C1  328  38.415   5.163   9.147
  350AUSL   AUS  329  38.146   3.317   7.663
  351AUSL   AUS  330  38.449   3.317   7.336
  352AUL    AUL  331  38.297   3.625   7.500
  353THSLK    S  332  38.183   3.569   7.772
  354ETHY    C1  333  38.256   3.993   7.929
  355ETHY    C1  334  38.253   4.509   8.095
  356ETHY    C1  335  38.145   5.020   8.229
  357ETHY    C1  336  37.941   5.516   8.336
  358THSLK    S  337  38.500   3.557   7.237
  359ETHY    C1  338  38.713   3.934   7.091
  360ETHY    C1  339  38.883   4.423   6.929
  361ETHY    C1  340  38.950   4.941   6.792
  362ETHY    C1  341  38.921   5.475   6.682
  363AUSL   AUS  342  38.449   3.317   7.663
  364AUSL   AUS  343  38.562   3.060   8.011
  365AUL    AUL  344  38.601   3.438   7.991
  366THSLK    S  345  38.735   3.177   8.184
  367ETHY    C1  346  39.008   3.318   8.522
  368ETHY    C1  347  39.289   3.567   8.915
  369ETHY    C1  348  39.505   3.900   9.279
  370ETHY    C1  349  39.657   4.305   9.614
  371THSLK    S  350  38.499   3.555   7.768
  372ETHY    C1  351  38.712   3.934   7.913
  373ETHY    C1  352  38.883   4.423   8.072
  374ETHY    C1  353  38.950   4.941   8.207
  375ETHY    C1  354  38.919   5.474   8.325
  376AUSL   AUS  355  38.297   2.063   7.909
  377AUSL   AUS  356  38.714   2.133   7.764
  378AUL    AUL  357  38.601   1.849   7.991
  379THSLK    S  358  38.256   1.806   7.992
  380ETHY    C1  359  38.129   1.397   8.152
  381ETHY    C1  360  38.055   0.916   8.391
  382ETHY    C1  361  38.074   0.464   8.684
  383ETHY    C1  362  38.176   0.046   9.021
  384THSLK    S  363  38.834   1.943   7.907
  385ETHY    C1  364  38.985   1.541   8.062
  386ETHY    C1  365  39.240   1.110   8.272
  387ETHY    C1  366  39.572   0.754   8.505
  388ETHY    C1  367  39.968   0.475   8.758
  389AUSL   AUS  368  38.146   1.970   7.663
  390AUSL   AUS  369  38.033   2.227   8.011
  391AUL    AUL  370  37.994   1.849   7.991
  392THSLK    S  371  38.095   1.725   7.744
  393ETHY    C1  372  37.882   1.326   7.812
  394ETHY    C1  373  37.711   0.823   7.925
  395ETHY    C1  374  37.645   0.309   8.072
  396ETHY    C1  375  37.674  -0.206   8.252
  397THSLK    S  376  37.855   2.057   8.136
  398ETHY    C1  377  37.583   1.742   8.327
  399ETHY    C1  378  37.305   1.391   8.633
  400ETHY    C1  379  37.089   1.083   9.019
  401ETHY    C1  380  36.933   0.821   9.473
  402AUSL   AUS  381  38.449   1.970   7.663
  403AUSL   AUS  382  38.146   1.970   7.336
  404AUL    AUL  383  38.297   1.662   7.500
  405THSLK    S  384  38.096   1.723   7.261
  406ETHY    C1  385  37.883   1.325   7.192
  407ETHY    C1  386  37.711   0.823   7.076
  408ETHY    C1  387  37.645   0.309   6.927
  409ETHY    C1  388  37.676  -0.208   6.754
  410THSLK    S  389  38.410   1.711   7.748
  411ETHY    C1  390  38.338   1.266   7.829
  412ETHY    C1  391  38.341   0.737   7.948
  413ETHY    C1  392  38.450   0.229   8.095
  414ETHY    C1  393  38.652  -0.249   8.264
  415AUSL   AUS  394  38.297   3.224   7.091
  416AUSL   AUS  395  38.714   3.154   7.236
  417AUL    AUL  396  38.601   3.438   7.009
  418THSLK    S  397  38.339   3.458   6.971
  419ETHY    C1  398  38.466   3.783   6.676
  420ETHY    C1  399  38.540   4.213   6.353
  421ETHY    C1  400  38.521   4.678   6.080
  422ETHY    C1  401  38.418   5.166   5.857
  423THSLK    S  402  38.901   3.279   7.081
  424ETHY    C1  403  39.258   3.471   6.869
  425ETHY    C1  404  39.633   3.777   6.623
  426ETHY    C1  405  39.934   4.164   6.398
  427ETHY    C1  406  40.164   4.616   6.197
  428AUSL   AUS  407  38.146   3.317   7.336
  429AUSL   AUS  408  38.033   3.060   6.990
  430AUL    AUL  409  37.994   3.438   7.009
  431THSLK    S  410  38.185   3.571   7.233
  432ETHY    C1  411  38.257   3.994   7.074
  433ETHY    C1  412  38.254   4.510   6.906
  434ETHY    C1  413  38.145   5.020   6.770
  435ETHY    C1  414  37.943   5.518   6.670
  436THSLK    S  415  37.914   3.197   6.800
  437ETHY    C1  416  37.818   3.391   6.396
  438ETHY    C1  417  37.641   3.669   5.966
  439ETHY    C1  418  37.398   3.994   5.611
  440ETHY    C1  419  37.102   4.359   5.330
  441AUSL   AUS  420  38.297   2.063   7.091
  442AUSL   AUS  421  37.881   2.133   7.236
  443AUL    AUL  422  37.994   1.849   7.009
  444THSLK    S  423  37.696   1.980   7.122
  445ETHY    C1  424  37.339   1.706   7.044
  446ETHY    C1  425  36.962   1.352   6.878
  447ETHY    C1  426  36.660   0.978   6.633
  448ETHY    C1  427  36.433   0.591   6.321
  449THSLK    S  428  38.259   1.803   7.013
  450ETHY    C1  429  38.131   1.395   6.852
  451ETHY    C1  430  38.055   0.916   6.609
  452ETHY    C1  431  38.074   0.464   6.315
  453ETHY    C1  432  38.180   0.043   5.983
  454AUSL   AUS  433  38.449   1.970   7.336
  455AUSL   AUS  434  38.562   2.227   6.990
  456AUL    AUL  435  38.601   1.849   7.009
  457THSLK    S  436  38.412   1.710   7.258
  458ETHY    C1  437  38.339   1.265   7.175
  459ETHY    C1  438  38.341   0.737   7.052
  460ETHY    C1  439  38.449   0.229   6.905
  461ETHY    C1  440  38.654  -0.250   6.742
  462THSLK    S  441  38.685   2.037   6.847
  463ETHY    C1  442  38.780   1.669   6.592
  464ETHY    C1  443  38.954   1.288   6.247
  465ETHY    C1  444  39.196   0.988   5.870
  466ETHY    C1  445  39.497   0.767   5.471
  467AUC    AUC  446   6.312  41.796   7.500
  468AUC    AUC  447   6.558  41.796   7.348
  469AUC    AUC  448   6.558  41.796   7.651
  470AUC    AUC  449   6.067  41.796   7.348
  471AUC    AUC  450   6.067  41.796   7.651
  472AUC    AUC  451   6.161  42.041   7.500
  473AUC    AUC  452   6.464  42.041   7.500
  474AUC    AUC  453   6.161  41.550   7.500
  475AUC    AUC  454   6.464  41.550   7.500
  476AUC    AUC  455   6.312  41.644   7.745
  477AUC    AUC  456   6.312  41.947   7.745
  478AUC    AUC  457   6.312  41.644   7.254
  479AUC    AUC  458   6.312  41.947   7.254
  480AUC    AUC  459   6.803  41.796   7.196
  481AUC    AUC  460   6.803  41.796   7.500
  482AUC    AUC  461   6.803  41.796   7.803
  483AUC    AUC  462   5.821  41.796   7.196
  484AUC    AUC  463   5.821  41.796   7.500
  485AUC    AUC  464   5.821  41.796   7.803
  486AUC    AUC  465   6.009  42.286   7.500
  487AUC    AUC  466   6.312  42.286   7.500
  488AUC    AUC  467   6.616  42.286   7.500
  489AUC    AUC  468   6.009  41.305   7.500
  490AUC    AUC  469   6.312  41.305   7.500
  491AUC    AUC  470   6.616  41.305   7.500
  492AUC    AUC  471   6.312  41.492   7.991
  493AUC    AUC  472   6.312  41.796   7.991
  494AUC    AUC  473   6.312  42.099   7.991
  495AUC    AUC  474   6.312  41.492   7.009
  496AUC    AUC  475   6.312  41.796   7.009
  497AUC    AUC  476   6.312  42.099   7.009
  498AUC    AUC  477   6.558  41.644   7.897
  499AUC    AUC  478   6.558  41.947   7.897
  500AUC    AUC  479   6.558  41.644   7.103
  501AUC    AUC  480   6.558  41.947   7.103
  502AUC    AUC  481   6.067  41.644   7.897
  503AUC    AUC  482   6.067  41.947   7.897
  504AUC    AUC  483   6.067  41.644   7.103
  505AUC    AUC  484   6.067  41.947   7.103
  506AUC    AUC  485   6.709  42.041   7.348
  507AUC    AUC  486   6.709  42.041   7.651
  508AUC    AUC  487   5.915  42.041   7.348
  509AUC    AUC  488   5.915  42.041   7.651
  510AUC    AUC  489   6.709  41.550   7.348
  511AUC    AUC  490   6.709  41.550   7.651
  512AUC    AUC  491   5.915  41.550   7.348
  513AUC    AUC  492   5.915  41.550   7.651
  514AUC    AUC  493   6.161  42.193   7.745
  515AUC    AUC  494   6.464  42.193   7.745
  516AUC    AUC  495   6.161  41.398   7.745
  517AUC    AUC  496   6.464  41.398   7.745
  518AUC    AUC  497   6.161  42.193   7.254
  519AUC    AUC  498   6.464  42.193   7.254
  520AUC    AUC  499   6.161  41.398   7.254
  521AUC    AUC  500   6.464  41.398   7.254
  522AUSL   AUS  501   6.721  41.796   8.080
  523AUSL   AUS  502   6.577  41.379   8.011
  524AUL    AUL  503   6.803  41.492   8.294
  525THSLK    S  504   6.695  41.191   8.156
  526ETHY    C1  505   6.791  40.823   8.412
  527ETHY    C1  506   6.969  40.440   8.753
  528ETHY    C1  507   7.211  40.140   9.130
  529ETHY    C1  508   7.507  39.921   9.534
  530THSLK    S  509   6.820  41.749   8.327
  531ETHY    C1  510   7.047  41.599   8.694
  532ETHY    C1  511   7.331  41.511   9.148
  533ETHY    C1  512   7.615  41.533   9.607
  534ETHY    C1  513   7.892  41.655  10.061
  535AUSL   AUS  514   6.476  41.644   8.173
  536AUSL   AUS  515   6.149  41.947   8.173
  537AUL    AUL  516   6.312  41.796   8.482
  538THSLK    S  517   6.557  41.593   8.418
  539ETHY    C1  518   6.647  41.375   8.810
  540ETHY    C1  519   6.775  41.201   9.308
  541ETHY    C1  520   6.921  41.136   9.823
  542ETHY    C1  521   7.078  41.170  10.346
  543THSLK    S  522   6.062  41.907   8.432
  544ETHY    C1  523   5.973  41.833   8.874
  545ETHY    C1  524   5.849  41.835   9.403
  546ETHY    C1  525   5.704  41.944   9.912
  547ETHY    C1  526   5.541  42.148  10.392
  548AUSL   AUS  527   6.476  41.947   8.173
  549AUSL   AUS  528   6.822  42.060   7.916
  550AUL    AUL  529   6.803  42.099   8.294
  551THSLK    S  530   6.563  41.999   8.416
  552ETHY    C1  531   6.651  42.216   8.809
  553ETHY    C1  532   6.776  42.389   9.308
  554ETHY    C1  533   6.921  42.455   9.823
  555ETHY    C1  534   7.084  42.422  10.345
  556THSLK    S  535   6.998  42.166   8.079
  557ETHY    C1  536   7.360  42.216   8.355
  558ETHY    C1  537   7.767  42.365   8.681
  559ETHY    C1  538   8.129  42.614   8.995
  560ETHY    C1  539   8.441  42.950   9.293
  561AUSL   AUS  540   6.721  41.796   6.920
  562AUSL   AUS  541   6.577  42.212   6.990
  563AUL    AUL  542   6.803  42.099   6.706
  564THSLK    S  543   6.825  41.749   6.676
  565ETHY    C1  544   7.052  41.599   6.308
  566ETHY    C1  545   7.331  41.511   5.851
  567ETHY    C1  546   7.615  41.533   5.393
  568ETHY    C1  547   7.897  41.655   4.941
  569THSLK    S  548   6.754  42.331   6.820
  570ETHY    C1  549   7.026  42.472   6.480
  571ETHY    C1  550   7.304  42.719   6.085
  572ETHY    C1  551   7.520  43.052   5.720
  573ETHY    C1  552   7.677  43.459   5.391
  574AUSL   AUS  553   6.476  41.644   6.826
  575AUSL   AUS  554   6.822  41.531   7.083
  576AUL    AUL  555   6.803  41.492   6.706
  577THSLK    S  556   6.962  41.340   6.939
  578ETHY    C1  557   7.195  41.023   6.707
  579ETHY    C1  558   7.525  40.716   6.403
  580ETHY    C1  559   7.905  40.507   6.083
  581ETHY    C1  560   8.326  40.390   5.754
  582THSLK    S  561   6.563  41.592   6.583
  583ETHY    C1  562   6.651  41.375   6.191
  584ETHY    C1  563   6.776  41.202   5.692
  585ETHY    C1  564   6.921  41.136   5.176
  586ETHY    C1  565   7.084  41.169   4.656
  587AUSL   AUS  566   6.476  41.947   6.826
  588AUSL   AUS  567   6.149  41.644   6.826
  589AUL    AUL  568   6.312  41.796   6.518
  590THSLK    S  569   6.053  41.592   6.586
  591ETHY    C1  570   5.914  41.377   6.206
  592ETHY    C1  571   5.757  41.206   5.717
  593ETHY    C1  572   5.618  41.140   5.199
  594ETHY    C1  573   5.502  41.171   4.666
  595THSLK    S  574   6.578  41.908   6.572
  596ETHY    C1  575   6.715  41.831   6.142
  597ETHY    C1  576   6.868  41.831   5.622
  598ETHY    C1  577   7.006  41.940   5.112
  599ETHY    C1  578   7.129  42.147   4.621
  600AUSL   AUS  579   5.903  41.796   8.080
  601AUSL   AUS  580   6.048  42.212   8.011
  602AUL    AUL  581   5.821  42.099   8.294
  603THSLK    S  582   5.799  41.749   8.325
  604ETHY    C1  583   5.573  41.599   8.691
  605ETHY    C1  584   5.293  41.511   9.148
  606ETHY    C1  585   5.010  41.533   9.607
  607ETHY    C1  586   4.727  41.655  10.058
  608THSLK    S  587   5.925  42.345   8.201
  609ETHY    C1  588   5.829  42.540   8.604
  610ETHY    C1  589   5.656  42.821   9.034
  611ETHY    C1  590   5.413  43.147   9.390
  612ETHY    C1  591   5.112  43.506   9.671
  613AUSL   AUS  592   6.149  41.644   8.173
  614AUSL   AUS  593   5.802  41.531   7.916
  615AUL    AUL  594   5.821  41.492   8.294
  616THSLK    S  595   5.623  41.365   8.032
  617ETHY    C1  596   5.262  41.118   8.166
  618ETHY    C1  597   4.857  40.852   8.410
  619ETHY    C1  598   4.496  40.632   8.745
  620ETHY    C1  599   4.180  40.459   9.156
  621THSLK    S  600   6.047  41.594   8.413
  622ETHY    C1  601   5.909  41.379   8.793
  623ETHY    C1  602   5.756  41.206   9.284
  624ETHY    C1  603   5.619  41.140   9.800
  625ETHY    C1  604   5.495  41.172  10.332
  626AUSL   AUS  605   5.903  41.796   6.920
  627AUSL   AUS  606   6.048  41.379   6.990
  628AUL    AUL  607   5.821  41.492   6.706
  629THSLK    S  608   5.804  41.749   6.673
  630ETHY    C1  609   5.577  41.599   6.305
  631ETHY    C1  610   5.294  41.511   5.851
  632ETHY    C1  611   5.010  41.533   5.393
  633ETHY    C1  612   4.733  41.655   4.938
  634THSLK    S  613   5.874  41.204   6.865
  635ETHY    C1  614   5.602  40.891   6.673
  636ETHY    C1  615   5.321  40.543   6.367
  637ETHY    C1  616   5.104  40.235   5.980
  638ETHY    C1  617   4.952  39.968   5.528
  639AUSL   AUS  618   6.149  41.947   6.826
  640AUSL   AUS  619   5.802  42.060   7.083
  641AUL    AUL  620   5.821  42.099   6.706
  642THSLK    S  621   5.666  42.191   6.893
  643ETHY    C1  622   5.432  42.312   6.518
  644ETHY    C1  623   5.100  42.500   6.132
  645ETHY    C1  624   4.720  42.739   5.833
  646ETHY    C1  625   4.303  43.019   5.618
  647THSLK    S  626   6.068  41.909   6.566
  648ETHY    C1  627   5.978  41.834   6.124
  649ETHY    C1  628   5.850  41.835   5.597
  650ETHY    C1  629   5.704  41.944   5.089
  651ETHY    C1  630   5.547  42.150   4.608
  652AUSL   AUS  631   6.892  42.205   7.500
  653AUSL   AUS  632   6.822  42.060   7.083
  654AUL    AUL  633   7.106  42.286   7.196
  655THSLK    S  634   7.002  42.167   6.925
  656ETHY    C1  635   7.363  42.217   6.648
  657ETHY    C1  636   7.767  42.365   6.319
  658ETHY    C1  637   8.129  42.614   6.005
  659ETHY    C1  638   8.445  42.951   5.713
  660THSLK    S  639   7.162  42.266   7.503
  661ETHY    C1  640   7.609  42.366   7.502
  662ETHY    C1  641   8.111  42.572   7.500
  663ETHY    C1  642   8.558  42.874   7.500
  664ETHY    C1  643   8.946  43.258   7.503
  665AUSL   AUS  644   6.986  41.959   7.348
  666AUSL   AUS  645   6.986  41.632   7.651
  667AUL    AUL  646   7.294  41.796   7.500
  668THSLK    S  647   7.248  42.006   7.345
  669ETHY    C1  648   7.698  41.975   7.270
  670ETHY    C1  649   8.230  42.030   7.179
  671ETHY    C1  650   8.737  42.193   7.091
  672ETHY    C1  651   9.212  42.451   7.011
  673THSLK    S  652   7.223  41.495   7.659
  674ETHY    C1  653   7.594  41.237   7.726
  675ETHY    C1  654   8.080  41.011   7.808
  676ETHY    C1  655   8.599  40.891   7.896
  677ETHY    C1  656   9.137  40.869   7.989
  678AUSL   AUS  657   6.986  41.959   7.651
  679AUSL   AUS  658   6.729  42.306   7.764
  680AUL    AUL  659   7.106  42.286   7.803
  681THSLK    S  660   6.914  42.430   7.924
  682ETHY    C1  661   7.271  42.622   8.136
  683ETHY    C1  662   7.648  42.929   8.377
  684ETHY    C1  663   7.949  43.316   8.602
  685ETHY    C1  664   8.176  43.767   8.809
  686THSLK    S  665   7.247  42.005   7.661
  687ETHY    C1  666   7.698  41.975   7.734
  688ETHY    C1  667   8.231  42.030   7.821
  689ETHY    C1  668   8.737  42.193   7.908
  690ETHY    C1  669   9.211  42.451   7.995
  691AUSL   AUS  670   5.732  42.205   7.500
  692AUSL   AUS  671   5.802  42.060   7.916
  693AUL    AUL  672   5.518  42.286   7.803
  694THSLK    S  673   5.662  42.186   8.107
  695ETHY    C1  674   5.429  42.307   8.482
  696ETHY    C1  675   5.100  42.500   8.868
  697ETHY    C1  676   4.720  42.739   9.166
  698ETHY    C1  677   4.299  43.014   9.381
  699THSLK    S  678   5.511  42.345   7.503
  700ETHY    C1  679   5.222  42.700   7.502
  701ETHY    C1  680   4.814  43.057   7.500
  702ETHY    C1  681   4.344  43.321   7.500
  703ETHY    C1  682   3.826  43.497   7.503
  704AUSL   AUS  683   5.639  41.959   7.348
  705AUSL   AUS  684   5.896  42.306   7.236
  706AUL    AUL  685   5.518  42.286   7.196
  707THSLK    S  686   5.402  42.073   7.303
  708ETHY    C1  687   5.030  42.247   7.101
  709ETHY    C1  688   4.544  42.423   6.936
  710ETHY    C1  689   4.026  42.555   6.868
  711ETHY    C1  690   3.488  42.647   6.890
  712THSLK    S  691   5.776  42.473   7.056
  713ETHY    C1  692   5.624  42.792   6.765
  714ETHY    C1  693   5.370  43.172   6.473
  715ETHY    C1  694   5.037  43.540   6.260
  716ETHY    C1  695   4.641  43.890   6.122
  717AUSL   AUS  696   5.639  41.959   7.651
  718AUSL   AUS  697   5.639  41.632   7.348
  719AUL    AUL  698   5.331  41.796   7.500
  720THSLK    S  699   5.377  41.557   7.384
  721ETHY    C1  700   4.927  41.506   7.446
  722ETHY    C1  701   4.394  41.403   7.434
  723ETHY    C1  702   3.887  41.253   7.327
  724ETHY    C1  703   3.414  41.060   7.135
  725THSLK    S  704   5.401  42.067   7.699
  726ETHY    C1  705   5.030  42.243   7.901
  727ETHY    C1  706   4.544  42.422   8.063
  728ETHY    C1  707   4.026  42.555   8.133
  729ETHY    C1  708   3.487  42.641   8.114
  730AUSL   AUS  709   6.892  41.386   7.500
  731AUSL   AUS  710   6.822  41.531   7.916
  732AUL    AUL  711   7.106  41.305   7.803
  733THSLK    S  712   7.113  41.246   7.503
  734ETHY    C1  713   7.402  40.891   7.502
  735ETHY    C1  714   7.811  40.534   7.500
  736ETHY    C1  715   8.281  40.270   7.500
  737ETHY    C1  716   8.798  40.094   7.503
  738THSLK    S  717   6.959  41.341   8.066
  739ETHY    C1  718   7.192  41.024   8.297
  740ETHY    C1  719   7.525  40.717   8.598
  741ETHY    C1  720   7.905  40.507   8.918
  742ETHY    C1  721   8.322  40.391   9.250
  743AUSL   AUS  722   6.986  41.632   7.348
  744AUSL   AUS  723   6.729  41.285   7.236
  745AUL    AUL  724   7.106  41.305   7.196
  746THSLK    S  725   7.224  41.495   7.346
  747ETHY    C1  726   7.595  41.237   7.279
  748ETHY    C1  727   8.080  41.011   7.192
  749ETHY    C1  728   8.599  40.891   7.103
  750ETHY    C1  729   9.138  40.869   7.018
  751THSLK    S  730   6.852  41.094   7.099
  752ETHY    C1  731   7.002  40.692   6.942
  753ETHY    C1  732   7.255  40.262   6.728
  754ETHY    C1  733   7.587  39.906   6.495
  755ETHY    C1  734   7.986  39.625   6.249
  756AUSL   AUS  735   5.732  41.386   7.500
  757AUSL   AUS  736   5.802  41.531   7.083
  758AUL    AUL  737   5.518  41.305   7.196
  759THSLK    S  738   5.627  41.360   6.966
  760ETHY    C1  739   5.265  41.114   6.833
  761ETHY    C1  740   4.857  40.851   6.589
  762ETHY    C1  741   4.496  40.632   6.255
  763ETHY    C1  742   4.184  40.454   5.843
  764THSLK    S  743   5.462  41.325   7.503
  765ETHY    C1  744   5.016  41.225   7.502
  766ETHY    C1  745   4.514  41.019   7.500
  767ETHY    C1  746   4.067  40.717   7.500
  768ETHY    C1  747   3.679  40.333   7.503
  769AUSL   AUS  748   5.639  41.632   7.651
  770AUSL   AUS  749   5.896  41.285   7.764
  771AUL    AUL  750   5.518  41.305   7.803
  772THSLK    S  751   5.708  41.137   7.881
  773ETHY    C1  752   5.352  40.861   7.958
  774ETHY    C1  753   4.977  40.504   8.122
  775ETHY    C1  754   4.676  40.130   8.367
  776ETHY    C1  755   4.445  39.748   8.682
  777THSLK    S  756   5.376  41.562   7.618
  778ETHY    C1  757   4.926  41.510   7.557
  779ETHY    C1  758   4.394  41.404   7.566
  780ETHY    C1  759   3.887  41.253   7.673
  781ETHY    C1  760   3.413  41.065   7.867
  782AUSL   AUS  761   6.312  42.376   7.909
  783AUSL   AUS  762   5.896  42.306   7.764
  784AUL    AUL  763   6.009  42.590   7.991
  785THSLK    S  764   5.773  42.468   7.948
  786ETHY    C1  765   5.622  42.788   8.237
  787ETHY    C1  766   5.369  43.171   8.527
  788ETHY    C1  767   5.037  43.539   8.740
  789ETHY    C1  768   4.638  43.885   8.881
  790THSLK    S  769   6.350  42.607   8.034
  791ETHY    C1  770   6.478  42.933   8.327
  792ETHY    C1  771   6.555  43.365   8.646
  793ETHY    C1  772   6.536  43.830   8.920
  794ETHY    C1  773   6.430  44.315   9.147
  795AUSL   AUS  774   6.161  42.469   7.663
  796AUSL   AUS  775   6.464  42.469   7.336
  797AUL    AUL  776   6.312  42.777   7.500
  798THSLK    S  777   6.198  42.721   7.772
  799ETHY    C1  778   6.271  43.145   7.929
  800ETHY    C1  779   6.268  43.661   8.095
  801ETHY    C1  780   6.160  44.172   8.229
  802ETHY    C1  781   5.956  44.668   8.336
  803THSLK    S  782   6.515  42.709   7.237
  804ETHY    C1  783   6.728  43.086   7.091
  805ETHY    C1  784   6.898  43.575   6.929
  806ETHY    C1  785   6.965  44.093   6.792
  807ETHY    C1  786   6.936  44.627   6.682
  808AUSL   AUS  787   6.464  42.469   7.663
  809AUSL   AUS  788   6.577  42.212   8.011
  810AUL    AUL  789   6.616  42.590   7.991
  811THSLK    S  790   6.750  42.329   8.184
  812ETHY    C1  791   7.023  42.470   8.522
  813ETHY    C1  792   7.304  42.719   8.915
  814ETHY    C1  793   7.520  43.052   9.279
  815ETHY    C1  794   7.672  43.457   9.614
  816THSLK    S  795   6.514  42.707   7.768
  817ETHY    C1  796   6.727  43.086   7.913
  818ETHY    C1  797   6.898  43.575   8.072
  819ETHY    C1  798   6.965  44.093   8.207
  820ETHY    C1  799   6.934  44.626   8.325
  821AUSL   AUS  800   6.312  41.215   7.909
  822AUSL   AUS  801   6.729  41.285   7.764
  823AUL    AUL  802   6.616  41.001   7.991
  824THSLK    S  803   6.271  40.958   7.992
  825ETHY    C1  804   6.144  40.549   8.152
  826ETHY    C1  805   6.070  40.068   8.391
  827ETHY    C1  806   6.089  39.616   8.684
  828ETHY    C1  807   6.191  39.198   9.021
  829THSLK    S  808   6.849  41.095   7.907
  830ETHY    C1  809   7.000  40.693   8.062
  831ETHY    C1  810   7.255  40.262   8.272
  832ETHY    C1  811   7.587  39.906   8.505
  833ETHY    C1  812   7.983  39.627   8.758
  834AUSL   AUS  813   6.161  41.122   7.663
  835AUSL   AUS  814   6.048  41.379   8.011
  836AUL    AUL  815   6.009  41.001   7.991
  837THSLK    S  816   6.110  40.877   7.744
  838ETHY    C1  817   5.897  40.478   7.812
  839ETHY    C1  818   5.726  39.975   7.925
  840ETHY    C1  819   5.660  39.461   8.072
  841ETHY    C1  820   5.689  38.946   8.252
  842THSLK    S  821   5.870  41.209   8.136
  843ETHY    C1  822   5.598  40.894   8.327
  844ETHY    C1  823   5.320  40.543   8.633
  845ETHY    C1  824   5.104  40.235   9.019
  846ETHY    C1  825   4.948  39.973   9.473
  847AUSL   AUS  826   6.464  41.122   7.663
  848AUSL   AUS  827   6.161  41.122   7.336
  849AUL    AUL  828   6.312  40.814   7.500
  850THSLK    S  829   6.111  40.875   7.261
  851ETHY    C1  830   5.898  40.477   7.192
  852ETHY    C1  831   5.726  39.975   7.076
  853ETHY    C1  832   5.660  39.461   6.927
  854ETHY    C1  833   5.691  38.944   6.754
  855THSLK    S  834   6.425  40.863   7.748
  856ETHY    C1  835   6.353  40.418   7.829
  857ETHY    C1  836   6.356  39.889   7.948
  858ETHY    C1  837   6.465  39.381   8.095
  859ETHY    C1  838   6.667  38.903   8.264
  860AUSL   AUS  839   6.312  42.376   7.091
  861AUSL   AUS  840   6.729  42.306   7.236
  862AUL    AUL  841   6.616  42.590   7.009
  863THSLK    S  842   6.354  42.610   6.971
  864ETHY    C1  843   6.481  42.935   6.676
  865ETHY    C1  844   6.555  43.365   6.353
  866ETHY    C1  845   6.536  43.830   6.080
  867ETHY    C1  846   6.433  44.318   5.857
  868THSLK    S  847   6.916  42.431   7.081
  869ETHY    C1  848   7.273  42.623   6.869
  870ETHY    C1  849   7.648  42.929   6.623
  871ETHY    C1  850   7.949  43.316   6.398
  872ETHY    C1  851   8.179  43.768   6.197
  873AUSL   AUS  852   6.161  42.469   7.336
  874AUSL   AUS  853   6.048  42.212   6.990
  875AUL    AUL  854   6.009  42.590   7.009
  876THSLK    S  855   6.200  42.723   7.233
  877ETHY    C1  856   6.272  43.146   7.074
  878ETHY    C1  857   6.269  43.662   6.906
  879ETHY    C1  858   6.160  44.172   6.770
  880ETHY    C1  859   5.958  44.670   6.670
  881THSLK    S  860   5.929  42.349   6.800
  882ETHY    C1  861   5.833  42.543   6.396
  883ETHY    C1  862   5.656  42.821   5.966
  884ETHY    C1  863   5.413  43.146   5.611
  885ETHY    C1  864   5.117  43.511   5.330
  886AUSL   AUS  865   6.312  41.215   7.091
  887AUSL   AUS  866   5.896  41.285   7.236
  888AUL    AUL  867   6.009  41.001   7.009
  889THSLK    S  868   5.711  41.132   7.122
  890ETHY    C1  869   5.354  40.858   7.044
  891ETHY    C1  870   4.977  40.504   6.878
  892ETHY    C1  871   4.675  40.130   6.633
  893ETHY    C1  872   4.448  39.743   6.321
  894THSLK    S  873   6.274  40.955   7.013
  895ETHY    C1  874   6.146  40.547   6.852
  896ETHY    C1  875   6.070  40.068   6.609
  897ETHY    C1  876   6.089  39.616   6.315
  898ETHY    C1  877   6.195  39.195   5.983
  899AUSL   AUS  878   6.464  41.122   7.336
  900AUSL   AUS  879   6.577  41.379   6.990
  901AUL    AUL  880   6.616  41.001   7.009
  902THSLK    S  881   6.427  40.862   7.258
  903ETHY    C1  882   6.354  40.417   7.175
  904ETHY    C1  883   6.356  39.889   7.052
  905ETHY    C1  884   6.464  39.381   6.905
  906ETHY    C1  885   6.669  38.902   6.742
  907THSLK    S  886   6.700  41.189   6.847
  908ETHY    C1  887   6.795  40.821   6.592
  909ETHY    C1  888   6.969  40.440   6.247
  910ETHY    C1  889   7.211  40.140   5.870
  911ETHY    C1  890   7.512  39.919   5.471
  912AUC    AUC  891  26.307  23.477   7.500
  913AUC    AUC  892  26.553  23.477   7.348
  914AUC    AUC  893  26.553  23.477   7.651
  915AUC    AUC  894  26.062  23.477   7.348
  916AUC    AUC  895  26.062  23.477   7.651
  917AUC    AUC  896  26.156  23.722   7.500
  918AUC    AUC  897  26.459  23.722   7.500
  919AUC    AUC  898  26.156  23.231   7.500
  920AUC    AUC  899  26.459  23.231   7.500
  921AUC    AUC  900  26.307  23.325   7.745
  922AUC    AUC  901  26.307  23.628   7.745
  923AUC    AUC  902  26.307  23.325   7.254
  924AUC    AUC  903  26.307  23.628   7.254
  925AUC    AUC  904  26.798  23.477   7.196
  926AUC    AUC  905  26.798  23.477   7.500
  927AUC    AUC  906  26.798  23.477   7.803
  928AUC    AUC  907  25.816  23.477   7.196
  929AUC    AUC  908  25.816  23.477   7.500
  930AUC    AUC  909  25.816  23.477   7.803
  931AUC    AUC  910  26.004  23.967   7.500
  932AUC    AUC  911  26.307  23.967   7.500
  933AUC    AUC  912  26.611  23.967   7.500
  934AUC    AUC  913  26.004  22.986   7.500
  935AUC    AUC  914  26.307  22.986   7.500
  936AUC    AUC  915  26.611  22.986   7.500
  937AUC    AUC  916  26.307  23.173   7.991
  938AUC    AUC  917  26.307  23.477   7.991
  939AUC    AUC  918  26.307  23.780   7.991
  940AUC    AUC  919  26.307  23.173   7.009
  941AUC    AUC  920  26.307  23.477   7.009
  942AUC    AUC  921  26.307  23.780   7.009
  943AUC    AUC  922  26.553  23.325   7.897
  944AUC    AUC  923  26.553  23.628   7.897
  945AUC    AUC  924  26.553  23.325   7.103
  946AUC    AUC  925  26.553  23.628   7.103
  947AUC    AUC  926  26.062  23.325   7.897
  948AUC    AUC  927  26.062  23.628   7.897
  949AUC    AUC  928  26.062  23.325   7.103
  950AUC    AUC  929  26.062  23.628   7.103
  951AUC    AUC  930  26.704  23.722   7.348
  952AUC    AUC  931  26.704  23.722   7.651
  953AUC    AUC  932  25.910  23.722   7.348
  954AUC    AUC  933  25.910  23.722   7.651
  955AUC    AUC  934  26.704  23.231   7.348
  956AUC    AUC  935  26.704  23.231   7.651
  957AUC    AUC  936  25.910  23.231   7.348
  958AUC    AUC  937  25.910  23.231   7.651
  959AUC    AUC  938  26.156  23.874   7.745
  960AUC    AUC  939  26.459  23.874   7.745
  961AUC    AUC  940  26.156  23.079   7.745
  962AUC    AUC  941  26.459  23.079   7.745
  963AUC    AUC  942  26.156  23.874   7.254
  964AUC    AUC  943  26.459  23.874   7.254
  965AUC    AUC  944  26.156  23.079   7.254
  966AUC    AUC  945  26.459  23.079   7.254
  967AUSL   AUS  946  26.716  23.477   8.080
  968AUSL   AUS  947  26.572  23.060   8.011
  969AUL    AUL  948  26.798  23.173   8.294
  970THSLK    S  949  26.690  22.872   8.156
  971ETHY    C1  950  26.786  22.504   8.412
  972ETHY    C1  951  26.964  22.121   8.753
  973ETHY    C1  952  27.206  21.821   9.130
  974ETHY    C1  953  27.502  21.602   9.534
  975THSLK    S  954  26.815  23.430   8.327
  976ETHY    C1  955  27.042  23.280   8.694
  977ETHY    C1  956  27.326  23.192   9.148
  978ETHY    C1  957  27.610  23.214   9.607
  979ETHY    C1  958  27.887  23.336  10.061
  980AUSL   AUS  959  26.471  23.325   8.173
  981AUSL   AUS  960  26.144  23.628   8.173
  982AUL    AUL  961  26.307  23.477   8.482
  983THSLK    S  962  26.552  23.274   8.418
  984ETHY    C1  963  26.642  23.056   8.810
  985ETHY    C1  964  26.770  22.882   9.308
  986ETHY    C1  965  26.916  22.817   9.823
  987ETHY    C1  966  27.073  22.851  10.346
  988THSLK    S  967  26.057  23.588   8.432
  989ETHY    C1  968  25.968  23.514   8.874
  990ETHY    C1  969  25.844  23.516   9.403
  991ETHY    C1  970  25.699  23.625   9.912
  992ETHY    C1  971  25.536  23.829  10.392
  993AUSL   AUS  972  26.471  23.628   8.173
  994AUSL   AUS  973  26.817  23.741   7.916
  995AUL    AUL  974  26.798  23.780   8.294
  996THSLK    S  975  26.558  23.680   8.416
  997ETHY    C1  976  26.646  23.897   8.809
  998ETHY    C1  977  26.771  24.070   9.308
  999ETHY    C1  978  26.916  24.136   9.823
 1000ETHY    C1  979  27.079  24.103  10.345
 1001THSLK    S  980  26.993  23.847   8.079
 1002ETHY    C1  981  27.355  23.897   8.355
 1003ETHY    C1  982  27.762  24.046   8.681
 1004ETHY    C1  983  28.124  24.295   8.995
 1005ETHY    C1  984  28.436  24.631   9.293
 1006AUSL   AUS  985  26.716  23.477   6.920
 1007AUSL   AUS  986  26.572  23.893   6.990
 1008AUL    AUL  987  26.798  23.780   6.706
 1009THSLK    S  988  26.820  23.430   6.676
 1010ETHY    C1  989  27.047  23.280   6.308
 1011ETHY    C1  990  27.326  23.192   5.851
 1012ETHY    C1  991  27.610  23.214   5.393
 1013ETHY    C1  992  27.892  23.336   4.941
 1014THSLK    S  993  26.749  24.012   6.820
 1015ETHY    C1  994  27.021  24.153   6.480
 1016ETHY    C1  995  27.299  24.400   6.085
 1017ETHY    C1  996  27.515  24.733   5.720
 1018ETHY    C1  997  27.672  25.140   5.391
 1019AUSL   AUS  998  26.471  23.325   6.826
 1020AUSL   AUS  999  26.817  23.212   7.083
 1021AUL    AUL 1000  26.798  23.173   6.706
 1022THSLK    S 1001  26.957  23.021   6.939
 1023ETHY    C1 1002  27.190  22.704   6.707
 1024ETHY    C1 1003  27.520  22.397   6.403
 1025ETHY    C1 1004  27.900  22.188   6.083
 1026ETHY    C1 1005  28.321  22.071   5.754
 1027THSLK    S 1006  26.558  23.273   6.583
 1028ETHY    C1 1007  26.646  23.056   6.191
 1029ETHY    C1 1008  26.771  22.883   5.692
 1030ETHY    C1 1009  26.916  22.817   5.176
 1031ETHY    C1 1010  27.079  22.850   4.656
 1032AUSL   AUS 1011  26.471  23.628   6.826
 1033AUSL   AUS 1012  26.144  23.325   6.826
 1034AUL    AUL 1013  26.307  23.477   6.518
 1035THSLK    S 1014  26.048  23.273   6.586
 1036ETHY    C1 1015  25.909  23.058   6.206
 1037ETHY    C1 1016  25.752  22.887   5.717
 1038ETHY    C1 1017  25.613  22.821   5.199
 1039ETHY    C1 1018  25.497  22.852   4.666
 1040THSLK    S 1019  26.573  23.589   6.572
 1041ETHY    C1 1020  26.710  23.512   6.142
 1042ETHY    C1 1021  26.863  23.512   5.622
 1043ETHY    C1 1022  27.001  23.621   5.112
 1044ETHY    C1 1023  27.124  23.828   4.621
 1045AUSL   AUS 1024  25.898  23.477   8.080
 1046AUSL   AUS 1025  26.043  23.893   8.011
 1047AUL    AUL 1026  25.816  23.780   8.294
 1048THSLK    S 1027  25.794  23.430   8.325
 1049ETHY    C1 1028  25.568  23.280   8.691
 1050ETHY    C1 1029  25.288  23.192   9.148
 1051ETHY    C1 1030  25.005  23.214   9.607
 1052ETHY    C1 1031  24.722  23.336  10.058
 1053THSLK    S 1032  25.920  24.026   8.201
 1054ETHY    C1 1033  25.824  24.221   8.604
 1055ETHY    C1 1034  25.651  24.502   9.034
 1056ETHY    C1 1035  25.408  24.828   9.390
 1057ETHY    C1 1036  25.107  25.187   9.671
 1058AUSL   AUS 1037  26.144  23.325   8.173
 1059AUSL   AUS 1038  25.797  23.212   7.916
 1060AUL    AUL 1039  25.816  23.173   8.294
 1061THSLK    S 1040  25.618  23.046   8.032
 1062ETHY    C1 1041  25.257  22.799   8.166
 1063ETHY    C1 1042  24.852  22.533   8.410
 1064ETHY    C1 1043  24.491  22.313   8.745
 1065ETHY    C1 1044  24.175  22.140   9.156
 1066THSLK    S 1045  26.042  23.275   8.413
 1067ETHY    C1 1046  25.904  23.060   8.793
 1068ETHY    C1 1047  25.751  22.887   9.284
 1069ETHY    C1 1048  25.614  22.821   9.800
 1070ETHY    C1 1049  25.490  22.853  10.332
 1071AUSL   AUS 1050  25.898  23.477   6.920
 1072AUSL   AUS 1051  26.043  23.060   6.990
 1073AUL    AUL 1052  25.816  23.173   6.706
 1074THSLK    S 1053  25.799  23.430   6.673
 1075ETHY    C1 1054  25.572  23.280   6.305
 1076ETHY    C1 1055  25.289  23.192   5.851
 1077ETHY    C1 1056  25.005  23.214   5.393
 1078ETHY    C1 1057  24.728  23.336   4.938
 1079THSLK    S 1058  25.869  22.885   6.865
 1080ETHY    C1 1059  25.597  22.572   6.673
 1081ETHY    C1 1060  25.316  22.224   6.367
 1082ETHY    C1 1061  25.099  21.916   5.980
 1083ETHY    C1 1062  24.947  21.649   5.528
 1084AUSL   AUS 1063  26.144  23.628   6.826
 1085AUSL   AUS 1064  25.797  23.741   7.083
 1086AUL    AUL 1065  25.816  23.780   6.706
 1087THSLK    S 1066  25.661  23.872   6.893
 1088ETHY    C1 1067  25.427  23.993   6.518
 1089ETHY    C1 1068  25.095  24.181   6.132
 1090ETHY    C1 1069  24.715  24.420   5.833
 1091ETHY    C1 1070  24.298  24.700   5.618
 1092THSLK    S 1071  26.063  23.590   6.566
 1093ETHY    C1 1072  25.973  23.515   6.124
 1094ETHY    C1 1073  25.845  23.516   5.597
 1095ETHY    C1 1074  25.699  23.625   5.089
 1096ETHY    C1 1075  25.542  23.831   4.608
 1097AUSL   AUS 1076  26.887  23.886   7.500
 1098AUSL   AUS 1077  26.817  23.741   7.083
 1099AUL    AUL 1078  27.101  23.967   7.196
 1100THSLK    S 1079  26.997  23.848   6.925
 1101ETHY    C1 1080  27.358  23.898   6.648
 1102ETHY    C1 1081  27.762  24.046   6.319
 1103ETHY    C1 1082  28.124  24.295   6.005
 1104ETHY    C1 1083  28.440  24.632   5.713
 1105THSLK    S 1084  27.157  23.947   7.503
 1106ETHY    C1 1085  27.604  24.047   7.502
 1107ETHY    C1 1086  28.106  24.253   7.500
 1108ETHY    C1 1087  28.553  24.555   7.500
 1109ETHY    C1 1088  28.941  24.939   7.503
 1110AUSL   AUS 1089  26.981  23.640   7.348
 1111AUSL   AUS 1090  26.981  23.313   7.651
 1112AUL    AUL 1091  27.289  23.477   7.500
 1113THSLK    S 1092  27.243  23.687   7.345
 1114ETHY    C1 1093  27.693  23.656   7.270
 1115ETHY    C1 1094  28.225  23.711   7.179
 1116ETHY    C1 1095  28.732  23.874   7.091
 1117ETHY    C1 1096  29.207  24.132   7.011
 1118THSLK    S 1097  27.218  23.176   7.659
 1119ETHY    C1 1098  27.589  22.918   7.726
 1120ETHY    C1 1099  28.075  22.692   7.808
 1121ETHY    C1 1100  28.594  22.572   7.896
 1122ETHY    C1 1101  29.132  22.550   7.989
 1123AUSL   AUS 1102  26.981  23.640   7.651
 1124AUSL   AUS 1103  26.724  23.987   7.764
 1125AUL    AUL 1104  27.101  23.967   7.803
 1126THSLK    S 1105  26.909  24.111   7.924
 1127ETHY    C1 1106  27.266  24.303   8.136
 1128ETHY    C1 1107  27.643  24.610   8.377
 1129ETHY    C1 1108  27.944  24.997   8.602
 1130ETHY    C1 1109  28.171  25.448   8.809
 1131THSLK    S 1110  27.242  23.686   7.661
 1132ETHY    C1 1111  27.693  23.656   7.734
 1133ETHY    C1 1112  28.226  23.711   7.821
 1134ETHY    C1 1113  28.732  23.874   7.908
 1135ETHY    C1 1114  29.206  24.132   7.995
 1136AUSL   AUS 1115  25.727  23.886   7.500
 1137AUSL   AUS 1116  25.797  23.741   7.916
 1138AUL    AUL 1117  25.513  23.967   7.803
 1139THSLK    S 1118  25.657  23.867   8.107
 1140ETHY    C1 1119  25.424  23.988   8.482
 1141ETHY    C1 1120  25.095  24.181   8.868
 1142ETHY    C1 1121  24.715  24.420   9.166
 1143ETHY    C1 1122  24.294  24.695   9.381
 1144THSLK    S 1123  25.506  24.026   7.503
 1145ETHY    C1 1124  25.217  24.381   7.502
 1146ETHY    C1 1125  24.809  24.738   7.500
 1147ETHY    C1 1126  24.339  25.002   7.500
 1148ETHY    C1 1127  23.821  25.178   7.503
 1149AUSL   AUS 1128  25.634  23.640   7.348
 1150AUSL   AUS 1129  25.891  23.987   7.236
 1151AUL    AUL 1130  25.513  23.967   7.196
 1152THSLK    S 1131  25.397  23.754   7.303
 1153ETHY    C1 1132  25.025  23.928   7.101
 1154ETHY    C1 1133  24.539  24.104   6.936
 1155ETHY    C1 1134  24.021  24.236   6.868
 1156ETHY    C1 1135  23.483  24.328   6.890
 1157THSLK    S 1136  25.771  24.154   7.056
 1158ETHY    C1 1137  25.619  24.473   6.765
 1159ETHY    C1 1138  25.365  24.853   6.473
 1160ETHY    C1 1139  25.032  25.221   6.260
 1161ETHY    C1 1140  24.636  25.571   6.122
 1162AUSL   AUS 1141  25.634  23.640   7.651
 1163AUSL   AUS 1142  25.634  23.313   7.348
 1164AUL    AUL 1143  25.326  23.477   7.500
 1165THSLK    S 1144  25.372  23.238   7.384
 1166ETHY    C1 1145  24.922  23.187   7.446
 1167ETHY    C1 1146  24.389  23.084   7.434
 1168ETHY    C1 1147  23.882  22.934   7.327
 1169ETHY    C1 1148  23.409  22.741   7.135
 1170THSLK    S 1149  25.396  23.748   7.699
 1171ETHY    C1 1150  25.025  23.924   7.901
 1172ETHY    C1 1151  24.539  24.103   8.063
 1173ETHY    C1 1152  24.021  24.236   8.133
 1174ETHY    C1 1153  23.482  24.322   8.114
 1175AUSL   AUS 1154  26.887  23.067   7.500
 1176AUSL   AUS 1155  26.817  23.212   7.916
 1177AUL    AUL 1156  27.101  22.986   7.803
 1178THSLK    S 1157  27.108  22.927   7.503
 1179ETHY    C1 1158  27.397  22.572   7.502
 1180ETHY    C1 1159  27.806  22.215   7.500
 1181ETHY    C1 1160  28.276  21.951   7.500
 1182ETHY    C1 1161  28.793  21.775   7.503
 1183THSLK    S 1162  26.954  23.022   8.066
 1184ETHY    C1 1163  27.187  22.705   8.297
 1185ETHY    C1 1164  27.520  22.398   8.598
 1186ETHY    C1 1165  27.900  22.188   8.918
 1187ETHY    C1 1166  28.317  22.072   9.250
 1188AUSL   AUS 1167  26.981  23.313   7.348
 1189AUSL   AUS 1168  26.724  22.966   7.236
 1190AUL    AUL 1169  27.101  22.986   7.196
 1191THSLK    S 1170  27.219  23.176   7.346
 1192ETHY    C1 1171  27.590  22.918   7.279
 1193ETHY    C1 1172  28.075  22.692   7.192
 1194ETHY    C1 1173  28.594  22.572   7.103
 1195ETHY    C1 1174  29.133  22.550   7.018
 1196THSLK    S 1175  26.847  22.775   7.099
 1197ETHY    C1 1176  26.997  22.373   6.942
 1198ETHY    C1 1177  27.250  21.943   6.728
 1199ETHY    C1 1178  27.582  21.587   6.495
 1200ETHY    C1 1179  27.981  21.306   6.249
 1201AUSL   AUS 1180  25.727  23.067   7.500
 1202AUSL   AUS 1181  25.797  23.212   7.083
 1203AUL    AUL 1182  25.513  22.986   7.196
 1204THSLK    S 1183  25.622  23.041   6.966
 1205ETHY    C1 1184  25.260  22.795   6.833
 1206ETHY    C1 1185  24.852  22.532   6.589
 1207ETHY    C1 1186  24.491  22.313   6.255
 1208ETHY    C1 1187  24.179  22.135   5.843
 1209THSLK    S 1188  25.457  23.006   7.503
 1210ETHY    C1 1189  25.011  22.906   7.502
 1211ETHY    C1 1190  24.509  22.700   7.500
 1212ETHY    C1 1191  24.062  22.398   7.500
 1213ETHY    C1 1192  23.674  22.014   7.503
 1214AUSL   AUS 1193  25.634  23.313   7.651
 1215AUSL   AUS 1194  25.891  22.966   7.764
 1216AUL    AUL 1195  25.513  22.986   7.803
 1217THSLK    S 1196  25.703  22.818   7.881
 1218ETHY    C1 1197  25.347  22.542   7.958
 1219ETHY    C1 1198  24.972  22.185   8.122
 1220ETHY    C1 1199  24.671  21.811   8.367
 1221ETHY    C1 1200  24.440  21.429   8.682
 1222THSLK    S 1201  25.371  23.243   7.618
 1223ETHY    C1 1202  24.921  23.191   7.557
 1224ETHY    C1 1203  24.389  23.085   7.566
 1225ETHY    C1 1204  23.882  22.934   7.673
 1226ETHY    C1 1205  23.408  22.746   7.867
 1227AUSL   AUS 1206  26.307  24.057   7.909
 1228AUSL   AUS 1207  25.891  23.987   7.764
 1229AUL    AUL 1208  26.004  24.271   7.991
 1230THSLK    S 1209  25.768  24.149   7.948
 1231ETHY    C1 1210  25.617  24.469   8.237
 1232ETHY    C1 1211  25.364  24.852   8.527
 1233ETHY    C1 1212  25.032  25.220   8.740
 1234ETHY    C1 1213  24.633  25.566   8.881
 1235THSLK    S 1214  26.345  24.288   8.034
 1236ETHY    C1 1215  26.473  24.614   8.327
 1237ETHY    C1 1216  26.550  25.046   8.646
 1238ETHY    C1 1217  26.531  25.511   8.920
 1239ETHY    C1 1218  26.425  25.996   9.147
 1240AUSL   AUS 1219  26.156  24.150   7.663
 1241AUSL   AUS 1220  26.459  24.150   7.336
 1242AUL    AUL 1221  26.307  24.458   7.500
 1243THSLK    S 1222  26.193  24.402   7.772
 1244ETHY    C1 1223  26.266  24.826   7.929
 1245ETHY    C1 1224  26.263  25.342   8.095
 1246ETHY    C1 1225  26.155  25.853   8.229
 1247ETHY    C1 1226  25.951  26.349   8.336
 1248THSLK    S 1227  26.510  24.390   7.237
 1249ETHY    C1 1228  26.723  24.767   7.091
 1250ETHY    C1 1229  26.893  25.256   6.929
 1251ETHY    C1 1230  26.960  25.774   6.792
 1252ETHY    C1 1231  26.931  26.308   6.682
 1253AUSL   AUS 1232  26.459  24.150   7.663
 1254AUSL   AUS 1233  26.572  23.893   8.011
 1255AUL    AUL 1234  26.611  24.271   7.991
 1256THSLK    S 1235  26.745  24.010   8.184
 1257ETHY    C1 1236  27.018  24.151   8.522
 1258ETHY    C1 1237  27.299  24.400   8.915
 1259ETHY    C1 1238  27.515  24.733   9.279
 1260ETHY    C1 1239  27.667  25.138   9.614
 1261THSLK    S 1240  26.509  24.388   7.768
 1262ETHY    C1 1241  26.722  24.767   7.913
 1263ETHY    C1 1242  26.893  25.256   8.072
 1264ETHY    C1 1243  26.960  25.774   8.207
 1265ETHY    C1 1244  26.929  26.307   8.325
 1266AUSL   AUS 1245  26.307  22.896   7.909
 1267AUSL   AUS 1246  26.724  22.966   7.764
 1268AUL    AUL 1247  26.611  22.682   7.991
 1269THSLK    S 1248  26.266  22.639   7.992
 1270ETHY    C1 1249  26.139  22.230   8.152
 1271ETHY    C1 1250  26.065  21.749   8.391
 1272ETHY    C1 1251  26.084  21.297   8.684
 1273ETHY    C1 1252  26.186  20.879   9.021
 1274THSLK    S 1253  26.844  22.776   7.907
 1275ETHY    C1 1254  26.995  22.374   8.062
 1276ETHY    C1 1255  27.250  21.943   8.272
 1277ETHY    C1 1256  27.582  21.587   8.505
 1278ETHY    C1 1257  27.978  21.308   8.758
 1279AUSL   AUS 1258  26.156  22.803   7.663
 1280AUSL   AUS 1259  26.043  23.060   8.011
 1281AUL    AUL 1260  26.004  22.682   7.991
 1282THSLK    S 1261  26.105  22.558   7.744
 1283ETHY    C1 1262  25.892  22.159   7.812
 1284ETHY    C1 1263  25.721  21.656   7.925
 1285ETHY    C1 1264  25.655  21.142   8.072
 1286ETHY    C1 1265  25.684  20.627   8.252
 1287THSLK    S 1266  25.865  22.890   8.136
 1288ETHY    C1 1267  25.593  22.575   8.327
 1289ETHY    C1 1268  25.315  22.224   8.633
 1290ETHY    C1 1269  25.099  21.916   9.019
 1291ETHY    C1 1270  24.943  21.654   9.473
 1292AUSL   AUS 1271  26.459  22.803   7.663
 1293AUSL   AUS 1272  26.156  22.803   7.336
 1294AUL    AUL 1273  26.307  22.495   7.500
 1295THSLK    S 1274  26.106  22.556   7.261
 1296ETHY    C1 1275  25.893  22.158   7.192
 1297ETHY    C1 1276  25.721  21.656   7.076
 1298ETHY    C1 1277  25.655  21.142   6.927
 1299ETHY    C1 1278  25.686  20.625   6.754
 1300THSLK    S 1279  26.420  22.544   7.748
 1301ETHY    C1 1280  26.348  22.099   7.829
 1302ETHY    C1 1281  26.351  21.570   7.948
 1303ETHY    C1 1282  26.460  21.062   8.095
 1304ETHY    C1 1283  26.662  20.584   8.264
 1305AUSL   AUS 1284  26.307  24.057   7.091
 1306AUSL   AUS 1285  26.724  23.987   7.236
 1307AUL    AUL 1286  26.611  24.271   7.009
 1308THSLK    S 1287  26.349  24.291   6.971
 1309ETHY    C1 1288  26.476  24.616   6.676
 1310ETHY    C1 1289  26.550  25.046   6.353
 1311ETHY    C1 1290  26.531  25.511   6.080
 1312ETHY    C1 1291  26.428  25.999   5.857
 1313THSLK    S 1292  26.911  24.112   7.081
 1314ETHY    C1 1293  27.268  24.304   6.869
 1315ETHY    C1 1294  27.643  24.610   6.623
 1316ETHY    C1 1295  27.944  24.997   6.398
 1317ETHY    C1 1296  28.174  25.449   6.197
 1318AUSL   AUS 1297  26.156  24.150   7.336
 1319AUSL   AUS 1298  26.043  23.893   6.990
 1320AUL    AUL 1299  26.004  24.271   7.009
 1321THSLK    S 1300  26.195  24.404   7.233
 1322ETHY    C1 1301  26.267  24.827   7.074
 1323ETHY    C1 1302  26.264  25.343   6.906
 1324ETHY    C1 1303  26.155  25.853   6.770
 1325ETHY    C1 1304  25.953  26.351   6.670
 1326THSLK    S 1305  25.924  24.030   6.800
 1327ETHY    C1 1306  25.828  24.224   6.396
 1328ETHY    C1 1307  25.651  24.502   5.966
 1329ETHY    C1 1308  25.408  24.827   5.611
 1330ETHY    C1 1309  25.112  25.192   5.330
 1331AUSL   AUS 1310  26.307  22.896   7.091
 1332AUSL   AUS 1311  25.891  22.966   7.236
 1333AUL    AUL 1312  26.004  22.682   7.009
 1334THSLK    S 1313  25.706  22.813   7.122
 1335ETHY    C1 1314  25.349  22.539   7.044
 1336ETHY    C1 1315  24.972  22.185   6.878
 1337ETHY    C1 1316  24.670  21.811   6.633
 1338ETHY    C1 1317  24.443  21.424   6.321
 1339THSLK    S 1318  26.269  22.636   7.013
 1340ETHY    C1 1319  26.141  22.228   6.852
 1341ETHY    C1 1320  26.065  21.749   6.609
 1342ETHY    C1 1321  26.084  21.297   6.315
 1343ETHY    C1 1322  26.190  20.876   5.983
 1344AUSL   AUS 1323  26.459  22.803   7.336
 1345AUSL   AUS 1324  26.572  23.060   6.990
 1346AUL    AUL 1325  26.611  22.682   7.009
 1347THSLK    S 1326  26.422  22.543   7.258
 1348ETHY    C1 1327  26.349  22.098   7.175
 1349ETHY    C1 1328  26.351  21.570   7.052
 1350ETHY    C1 1329  26.459  21.062   6.905
 1351ETHY    C1 1330  26.664  20.583   6.742
 1352THSLK    S 1331  26.695  22.870   6.847
 1353ETHY    C1 1332  26.790  22.502   6.592
 1354ETHY    C1 1333  26.964  22.121   6.247
 1355ETHY    C1 1334  27.206  21.821   5.870
 1356ETHY    C1 1335  27.507  21.600   5.471
 1357AUC    AUC 1336  14.460  44.624   7.500
 1358AUC    AUC 1337  14.706  44.624   7.348
 1359AUC    AUC 1338  14.706  44.624   7.651
 1360AUC    AUC 1339  14.215  44.624   7.348
 1361AUC    AUC 1340  14.215  44.624   7.651
 1362AUC    AUC 1341  14.309  44.869   7.500
 1363AUC    AUC 1342  14.612  44.869   7.500
 1364AUC    AUC 1343  14.309  44.378   7.500
 1365AUC    AUC 1344  14.612  44.378   7.500
 1366AUC    AUC 1345  14.460  44.472   7.745
 1367AUC    AUC 1346  14.460  44.775   7.745
 1368AUC    AUC 1347  14.460  44.472   7.254
 1369AUC    AUC 1348  14.460  44.775   7.254
 1370AUC    AUC 1349  14.951  44.624   7.196
 1371AUC    AUC 1350  14.951  44.624   7.500
 1372AUC    AUC 1351  14.951  44.624   7.803
 1373AUC    AUC 1352  13.969  44.624   7.196
 1374AUC    AUC 1353  13.969  44.624   7.500
 1375AUC    AUC 1354  13.969  44.624   7.803
 1376AUC    AUC 1355  14.157  45.114   7.500
 1377AUC    AUC 1356  14.460  45.114   7.500
 1378AUC    AUC 1357  14.764  45.114   7.500
 1379AUC    AUC 1358  14.157  44.133   7.500
 1380AUC    AUC 1359  14.460  44.133   7.500
 1381AUC    AUC 1360  14.764  44.133   7.500
 1382AUC    AUC 1361  14.460  44.320   7.991
 1383AUC    AUC 1362  14.460  44.624   7.991
 1384AUC    AUC 1363  14.460  44.927   7.991
 1385AUC    AUC 1364  14.460  44.320   7.009
 1386AUC    AUC 1365  14.460  44.624   7.009
 1387AUC    AUC 1366  14.460  44.927   7.009
 1388AUC    AUC 1367  14.706  44.472   7.897
 1389AUC    AUC 1368  14.706  44.775   7.897
 1390AUC    AUC 1369  14.706  44.472   7.103
 1391AUC    AUC 1370  14.706  44.775   7.103
 1392AUC    AUC 1371  14.215  44.472   7.897
 1393AUC    AUC 1372  14.215  44.775   7.897
 1394AUC    AUC 1373  14.215  44.472   7.103
 1395AUC    AUC 1374  14.215  44.775   7.103
 1396AUC    AUC 1375  14.857  44.869   7.348
 1397AUC    AUC 1376  14.857  44.869   7.651
 1398AUC    AUC 1377  14.063  44.869   7.348
 1399AUC    AUC 1378  14.063  44.869   7.651
 1400AUC    AUC 1379  14.857  44.378   7.348
 1401AUC    AUC 1380  14.857  44.378   7.651
 1402AUC    AUC 1381  14.063  44.378   7.348
 1403AUC    AUC 1382  14.063  44.378   7.651
 1404AUC    AUC 1383  14.309  45.021   7.745
 1405AUC    AUC 1384  14.612  45.021   7.745
 1406AUC    AUC 1385  14.309  44.226   7.745
 1407AUC    AUC 1386  14.612  44.226   7.745
 1408AUC    AUC 1387  14.309  45.021   7.254
 1409AUC    AUC 1388  14.612  45.021   7.254
 1410AUC    AUC 1389  14.309  44.226   7.254
 1411AUC    AUC 1390  14.612  44.226   7.254
 1412AUSL   AUS 1391  14.869  44.624   8.080
 1413AUSL   AUS 1392  14.725  44.207   8.011
 1414AUL    AUL 1393  14.951  44.320   8.294
 1415THSLK    S 1394  14.843  44.019   8.156
 1416ETHY    C1 1395  14.939  43.651   8.412
 1417ETHY    C1 1396  15.117  43.268   8.753
 1418ETHY    C1 1397  15.359  42.968   9.130
 1419ETHY    C1 1398  15.655  42.749   9.534
 1420THSLK    S 1399  14.968  44.577   8.327
 1421ETHY    C1 1400  15.195  44.427   8.694
 1422ETHY    C1 1401  15.479  44.339   9.148
 1423ETHY    C1 1402  15.763  44.361   9.607
 1424ETHY    C1 1403  16.040  44.483  10.061
 1425AUSL   AUS 1404  14.624  44.472   8.173
 1426AUSL   AUS 1405  14.297  44.775   8.173
 1427AUL    AUL 1406  14.460  44.624   8.482
 1428THSLK    S 1407  14.705  44.421   8.418
 1429ETHY    C1 1408  14.795  44.203   8.810
 1430ETHY    C1 1409  14.923  44.029   9.308
 1431ETHY    C1 1410  15.069  43.964   9.823
 1432ETHY    C1 1411  15.226  43.998  10.346
 1433THSLK    S 1412  14.210  44.735   8.432
 1434ETHY    C1 1413  14.121  44.661   8.874
 1435ETHY    C1 1414  13.997  44.663   9.403
 1436ETHY    C1 1415  13.852  44.772   9.912
 1437ETHY    C1 1416  13.689  44.976  10.392
 1438AUSL   AUS 1417  14.624  44.775   8.173
 1439AUSL   AUS 1418  14.970  44.888   7.916
 1440AUL    AUL 1419  14.951  44.927   8.294
 1441THSLK    S 1420  14.711  44.827   8.416
 1442ETHY    C1 1421  14.799  45.044   8.809
 1443ETHY    C1 1422  14.924  45.217   9.308
 1444ETHY    C1 1423  15.069  45.283   9.823
 1445ETHY    C1 1424  15.232  45.250  10.345
 1446THSLK    S 1425  15.146  44.994   8.079
 1447ETHY    C1 1426  15.508  45.044   8.355
 1448ETHY    C1 1427  15.915  45.193   8.681
 1449ETHY    C1 1428  16.277  45.442   8.995
 1450ETHY    C1 1429  16.589  45.778   9.293
 1451AUSL   AUS 1430  14.869  44.624   6.920
 1452AUSL   AUS 1431  14.725  45.040   6.990
 1453AUL    AUL 1432  14.951  44.927   6.706
 1454THSLK    S 1433  14.973  44.577   6.676
 1455ETHY    C1 1434  15.200  44.427   6.308
 1456ETHY    C1 1435  15.479  44.339   5.851
 1457ETHY    C1 1436  15.763  44.361   5.393
 1458ETHY    C1 1437  16.045  44.483   4.941
 1459THSLK    S 1438  14.902  45.159   6.820
 1460ETHY    C1 1439  15.174  45.300   6.480
 1461ETHY    C1 1440  15.452  45.547   6.085
 1462ETHY    C1 1441  15.668  45.880   5.720
 1463ETHY    C1 1442  15.825  46.287   5.391
 1464AUSL   AUS 1443  14.624  44.472   6.826
 1465AUSL   AUS 1444  14.970  44.359   7.083
 1466AUL    AUL 1445  14.951  44.320   6.706
 1467THSLK    S 1446  15.110  44.168   6.939
 1468ETHY    C1 1447  15.343  43.851   6.707
 1469ETHY    C1 1448  15.673  43.544   6.403
 1470ETHY    C1 1449  16.053  43.335   6.083
 1471ETHY    C1 1450  16.474  43.218   5.754
 1472THSLK    S 1451  14.711  44.420   6.583
 1473ETHY    C1 1452  14.799  44.203   6.191
 1474ETHY    C1 1453  14.924  44.030   5.692
 1475ETHY    C1 1454  15.069  43.964   5.176
 1476ETHY    C1 1455  15.232  43.997   4.656
 1477AUSL   AUS 1456  14.624  44.775   6.826
 1478AUSL   AUS 1457  14.297  44.472   6.826
 1479AUL    AUL 1458  14.460  44.624   6.518
 1480THSLK    S 1459  14.201  44.420   6.586
 1481ETHY    C1 1460  14.062  44.205   6.206
 1482ETHY    C1 1461  13.905  44.034   5.717
 1483ETHY    C1 1462  13.766  43.968   5.199
 1484ETHY    C1 1463  13.650  43.999   4.666
 1485THSLK    S 1464  14.726  44.736   6.572
 1486ETHY    C1 1465  14.863  44.659   6.142
 1487ETHY    C1 1466  15.016  44.659   5.622
 1488ETHY    C1 1467  15.154  44.768   5.112
 1489ETHY    C1 1468  15.277  44.975   4.621
 1490AUSL   AUS 1469  14.051  44.624   8.080
 1491AUSL   AUS 1470  14.196  45.040   8.011
 1492AUL    AUL 1471  13.969  44.927   8.294
 1493THSLK    S 1472  13.947  44.577   8.325
 1494ETHY    C1 1473  13.721  44.427   8.691
 1495ETHY    C1 1474  13.441  44.339   9.148
 1496ETHY    C1 1475  13.158  44.361   9.607
 1497ETHY    C1 1476  12.875  44.483  10.058
 1498THSLK    S 1477  14.073  45.173   8.201
 1499ETHY    C1 1478  13.977  45.368   8.604
 1500ETHY    C1 1479  13.804  45.649   9.034
 1501ETHY    C1 1480  13.561  45.975   9.390
 1502ETHY    C1 1481  13.260  46.334   9.671
 1503AUSL   AUS 1482  14.297  44.472   8.173
 1504AUSL   AUS 1483  13.950  44.359   7.916
 1505AUL    AUL 1484  13.969  44.320   8.294
 1506THSLK    S 1485  13.771  44.193   8.032
 1507ETHY    C1 1486  13.410  43.946   8.166
 1508ETHY    C1 1487  13.005  43.680   8.410
 1509ETHY    C1 1488  12.644  43.460   8.745
 1510ETHY    C1 1489  12.328  43.287   9.156
 1511THSLK    S 1490  14.195  44.422   8.413
 1512ETHY    C1 1491  14.057  44.207   8.793
 1513ETHY    C1 1492  13.904  44.034   9.284
 1514ETHY    C1 1493  13.767  43.968   9.800
 1515ETHY    C1 1494  13.643  44.000  10.332
 1516AUSL   AUS 1495  14.051  44.624   6.920
 1517AUSL   AUS 1496  14.196  44.207   6.990
 1518AUL    AUL 1497  13.969  44.320   6.706
 1519THSLK    S 1498  13.952  44.577   6.673
 1520ETHY    C1 1499  13.725  44.427   6.305
 1521ETHY    C1 1500  13.442  44.339   5.851
 1522ETHY    C1 1501  13.158  44.361   5.393
 1523ETHY    C1 1502  12.881  44.483   4.938
 1524THSLK    S 1503  14.022  44.032   6.865
 1525ETHY    C1 1504  13.750  43.719   6.673
 1526ETHY    C1 1505  13.469  43.371   6.367
 1527ETHY    C1 1506  13.252  43.063   5.980
 1528ETHY    C1 1507  13.100  42.796   5.528
 1529AUSL   AUS 1508  14.297  44.775   6.826
 1530AUSL   AUS 1509  13.950  44.888   7.083
 1531AUL    AUL 1510  13.969  44.927   6.706
 1532THSLK    S 1511  13.814  45.019   6.893
 1533ETHY    C1 1512  13.580  45.140   6.518
 1534ETHY    C1 1513  13.248  45.328   6.132
 1535ETHY    C1 1514  12.868  45.567   5.833
 1536ETHY    C1 1515  12.451  45.847   5.618
 1537THSLK    S 1516  14.216  44.737   6.566
 1538ETHY    C1 1517  14.126  44.662   6.124
 1539ETHY    C1 1518  13.998  44.663   5.597
 1540ETHY    C1 1519  13.852  44.772   5.089
 1541ETHY    C1 1520  13.695  44.978   4.608
 1542AUSL   AUS 1521  15.040  45.033   7.500
 1543AUSL   AUS 1522  14.970  44.888   7.083
 1544AUL    AUL 1523  15.254  45.114   7.196
 1545THSLK    S 1524  15.150  44.995   6.925
 1546ETHY    C1 1525  15.511  45.045   6.648
 1547ETHY    C1 1526  15.915  45.193   6.319
 1548ETHY    C1 1527  16.277  45.442   6.005
 1549ETHY    C1 1528  16.593  45.779   5.713
 1550THSLK    S 1529  15.310  45.094   7.503
 1551ETHY    C1 1530  15.757  45.194   7.502
 1552ETHY    C1 1531  16.259  45.400   7.500
 1553ETHY    C1 1532  16.706  45.702   7.500
 1554ETHY    C1 1533  17.094  46.086   7.503
 1555AUSL   AUS 1534  15.134  44.787   7.348
 1556AUSL   AUS 1535  15.134  44.460   7.651
 1557AUL    AUL 1536  15.442  44.624   7.500
 1558THSLK    S 1537  15.396  44.834   7.345
 1559ETHY    C1 1538  15.846  44.803   7.270
 1560ETHY    C1 1539  16.378  44.858   7.179
 1561ETHY    C1 1540  16.885  45.021   7.091
 1562ETHY    C1 1541  17.360  45.279   7.011
 1563THSLK    S 1542  15.371  44.323   7.659
 1564ETHY    C1 1543  15.742  44.065   7.726
 1565ETHY    C1 1544  16.228  43.839   7.808
 1566ETHY    C1 1545  16.747  43.719   7.896
 1567ETHY    C1 1546  17.285  43.697   7.989
 1568AUSL   AUS 1547  15.134  44.787   7.651
 1569AUSL   AUS 1548  14.877  45.134   7.764
 1570AUL    AUL 1549  15.254  45.114   7.803
 1571THSLK    S 1550  15.062  45.258   7.924
 1572ETHY    C1 1551  15.419  45.450   8.136
 1573ETHY    C1 1552  15.796  45.757   8.377
 1574ETHY    C1 1553  16.097  46.144   8.602
 1575ETHY    C1 1554  16.324  46.595   8.809
 1576THSLK    S 1555  15.395  44.833   7.661
 1577ETHY    C1 1556  15.846  44.803   7.734
 1578ETHY    C1 1557  16.379  44.858   7.821
 1579ETHY    C1 1558  16.885  45.021   7.908
 1580ETHY    C1 1559  17.359  45.279   7.995
 1581AUSL   AUS 1560  13.880  45.033   7.500
 1582AUSL   AUS 1561  13.950  44.888   7.916
 1583AUL    AUL 1562  13.666  45.114   7.803
 1584THSLK    S 1563  13.810  45.014   8.107
 1585ETHY    C1 1564  13.577  45.135   8.482
 1586ETHY    C1 1565  13.248  45.328   8.868
 1587ETHY    C1 1566  12.868  45.567   9.166
 1588ETHY    C1 1567  12.447  45.842   9.381
 1589THSLK    S 1568  13.659  45.173   7.503
 1590ETHY    C1 1569  13.370  45.528   7.502
 1591ETHY    C1 1570  12.962  45.885   7.500
 1592ETHY    C1 1571  12.492  46.149   7.500
 1593ETHY    C1 1572  11.974  46.325   7.503
 1594AUSL   AUS 1573  13.787  44.787   7.348
 1595AUSL   AUS 1574  14.044  45.134   7.236
 1596AUL    AUL 1575  13.666  45.114   7.196
 1597THSLK    S 1576  13.550  44.901   7.303
 1598ETHY    C1 1577  13.178  45.075   7.101
 1599ETHY    C1 1578  12.692  45.251   6.936
 1600ETHY    C1 1579  12.174  45.383   6.868
 1601ETHY    C1 1580  11.636  45.475   6.890
 1602THSLK    S 1581  13.924  45.301   7.056
 1603ETHY    C1 1582  13.772  45.620   6.765
 1604ETHY    C1 1583  13.518  46.000   6.473
 1605ETHY    C1 1584  13.185  46.368   6.260
 1606ETHY    C1 1585  12.789  46.718   6.122
 1607AUSL   AUS 1586  13.787  44.787   7.651
 1608AUSL   AUS 1587  13.787  44.460   7.348
 1609AUL    AUL 1588  13.479  44.624   7.500
 1610THSLK    S 1589  13.525  44.385   7.384
 1611ETHY    C1 1590  13.075  44.334   7.446
 1612ETHY    C1 1591  12.542  44.231   7.434
 1613ETHY    C1 1592  12.035  44.081   7.327
 1614ETHY    C1 1593  11.562  43.888   7.135
 1615THSLK    S 1594  13.549  44.895   7.699
 1616ETHY    C1 1595  13.178  45.071   7.901
 1617ETHY    C1 1596  12.692  45.250   8.063
 1618ETHY    C1 1597  12.174  45.383   8.133
 1619ETHY    C1 1598  11.635  45.469   8.114
 1620AUSL   AUS 1599  15.040  44.214   7.500
 1621AUSL   AUS 1600  14.970  44.359   7.916
 1622AUL    AUL 1601  15.254  44.133   7.803
 1623THSLK    S 1602  15.261  44.074   7.503
 1624ETHY    C1 1603  15.550  43.719   7.502
 1625ETHY    C1 1604  15.959  43.362   7.500
 1626ETHY    C1 1605  16.429  43.098   7.500
 1627ETHY    C1 1606  16.946  42.922   7.503
 1628THSLK    S 1607  15.107  44.169   8.066
 1629ETHY    C1 1608  15.340  43.852   8.297
 1630ETHY    C1 1609  15.673  43.545   8.598
 1631ETHY    C1 1610  16.053  43.335   8.918
 1632ETHY    C1 1611  16.470  43.219   9.250
 1633AUSL   AUS 1612  15.134  44.460   7.348
 1634AUSL   AUS 1613  14.877  44.113   7.236
 1635AUL    AUL 1614  15.254  44.133   7.196
 1636THSLK    S 1615  15.372  44.323   7.346
 1637ETHY    C1 1616  15.743  44.065   7.279
 1638ETHY    C1 1617  16.228  43.839   7.192
 1639ETHY    C1 1618  16.747  43.719   7.103
 1640ETHY    C1 1619  17.286  43.697   7.018
 1641THSLK    S 1620  15.000  43.922   7.099
 1642ETHY    C1 1621  15.150  43.520   6.942
 1643ETHY    C1 1622  15.403  43.090   6.728
 1644ETHY    C1 1623  15.735  42.734   6.495
 1645ETHY    C1 1624  16.134  42.453   6.249
 1646AUSL   AUS 1625  13.880  44.214   7.500
 1647AUSL   AUS 1626  13.950  44.359   7.083
 1648AUL    AUL 1627  13.666  44.133   7.196
 1649THSLK    S 1628  13.775  44.188   6.966
 1650ETHY    C1 1629  13.413  43.942   6.833
 1651ETHY    C1 1630  13.005  43.679   6.589
 1652ETHY    C1 1631  12.644  43.460   6.255
 1653ETHY    C1 1632  12.332  43.282   5.843
 1654THSLK    S 1633  13.610  44.153   7.503
 1655ETHY    C1 1634  13.164  44.053   7.502
 1656ETHY    C1 1635  12.662  43.847   7.500
 1657ETHY    C1 1636  12.215  43.545   7.500
 1658ETHY    C1 1637  11.827  43.161   7.503
 1659AUSL   AUS 1638  13.787  44.460   7.651
 1660AUSL   AUS 1639  14.044  44.113   7.764
 1661AUL    AUL 1640  13.666  44.133   7.803
 1662THSLK    S 1641  13.856  43.965   7.881
 1663ETHY    C1 1642  13.500  43.689   7.958
 1664ETHY    C1 1643  13.125  43.332   8.122
 1665ETHY    C1 1644  12.824  42.958   8.367
 1666ETHY    C1 1645  12.593  42.576   8.682
 1667THSLK    S 1646  13.524  44.390   7.618
 1668ETHY    C1 1647  13.074  44.338   7.557
 1669ETHY    C1 1648  12.542  44.232   7.566
 1670ETHY    C1 1649  12.035  44.081   7.673
 1671ETHY    C1 1650  11.561  43.893   7.867
 1672AUSL   AUS 1651  14.460  45.204   7.909
 1673AUSL   AUS 1652  14.044  45.134   7.764
 1674AUL    AUL 1653  14.157  45.418   7.991
 1675THSLK    S 1654  13.921  45.296   7.948
 1676ETHY    C1 1655  13.770  45.616   8.237
 1677ETHY    C1 1656  13.517  45.999   8.527
 1678ETHY    C1 1657  13.185  46.367   8.740
 1679ETHY    C1 1658  12.786  46.713   8.881
 1680THSLK    S 1659  14.498  45.435   8.034
 1681ETHY    C1 1660  14.626  45.761   8.327
 1682ETHY    C1 1661  14.703  46.193   8.646
 1683ETHY    C1 1662  14.684  46.658   8.920
 1684ETHY    C1 1663  14.578  47.143   9.147
 1685AUSL   AUS 1664  14.309  45.297   7.663
 1686AUSL   AUS 1665  14.612  45.297   7.336
 1687AUL    AUL 1666  14.460  45.605   7.500
 1688THSLK    S 1667  14.346  45.549   7.772
 1689ETHY    C1 1668  14.419  45.973   7.929
 1690ETHY    C1 1669  14.416  46.489   8.095
 1691ETHY    C1 1670  14.308  47.000   8.229
 1692ETHY    C1 1671  14.104  47.496   8.336
 1693THSLK    S 1672  14.663  45.537   7.237
 1694ETHY    C1 1673  14.876  45.914   7.091
 1695ETHY    C1 1674  15.046  46.403   6.929
 1696ETHY    C1 1675  15.113  46.921   6.792
 1697ETHY    C1 1676  15.084  47.455   6.682
 1698AUSL   AUS 1677  14.612  45.297   7.663
 1699AUSL   AUS 1678  14.725  45.040   8.011
 1700AUL    AUL 1679  14.764  45.418   7.991
 1701THSLK    S 1680  14.898  45.157   8.184
 1702ETHY    C1 1681  15.171  45.298   8.522
 1703ETHY    C1 1682  15.452  45.547   8.915
 1704ETHY    C1 1683  15.668  45.880   9.279
 1705ETHY    C1 1684  15.820  46.285   9.614
 1706THSLK    S 1685  14.662  45.535   7.768
 1707ETHY    C1 1686  14.875  45.914   7.913
 1708ETHY    C1 1687  15.046  46.403   8.072
 1709ETHY    C1 1688  15.113  46.921   8.207
 1710ETHY    C1 1689  15.082  47.454   8.325
 1711AUSL   AUS 1690  14.460  44.043   7.909
 1712AUSL   AUS 1691  14.877  44.113   7.764
 1713AUL    AUL 1692  14.764  43.829   7.991
 1714THSLK    S 1693  14.419  43.786   7.992
 1715ETHY    C1 1694  14.292  43.377   8.152
 1716ETHY    C1 1695  14.218  42.896   8.391
 1717ETHY    C1 1696  14.237  42.444   8.684
 1718ETHY    C1 1697  14.339  42.026   9.021
 1719THSLK    S 1698  14.997  43.923   7.907
 1720ETHY    C1 1699  15.148  43.521   8.062
 1721ETHY    C1 1700  15.403  43.090   8.272
 1722ETHY    C1 1701  15.735  42.734   8.505
 1723ETHY    C1 1702  16.131  42.455   8.758
 1724AUSL   AUS 1703  14.309  43.950   7.663
 1725AUSL   AUS 1704  14.196  44.207   8.011
 1726AUL    AUL 1705  14.157  43.829   7.991
 1727THSLK    S 1706  14.258  43.705   7.744
 1728ETHY    C1 1707  14.045  43.306   7.812
 1729ETHY    C1 1708  13.874  42.803   7.925
 1730ETHY    C1 1709  13.808  42.289   8.072
 1731ETHY    C1 1710  13.837  41.774   8.252
 1732THSLK    S 1711  14.018  44.037   8.136
 1733ETHY    C1 1712  13.746  43.722   8.327
 1734ETHY    C1 1713  13.468  43.371   8.633
 1735ETHY    C1 1714  13.252  43.063   9.019
 1736ETHY    C1 1715  13.096  42.801   9.473
 1737AUSL   AUS 1716  14.612  43.950   7.663
 1738AUSL   AUS 1717  14.309  43.950   7.336
 1739AUL    AUL 1718  14.460  43.642   7.500
 1740THSLK    S 1719  14.259  43.703   7.261
 1741ETHY    C1 1720  14.046  43.305   7.192
 1742ETHY    C1 1721  13.874  42.803   7.076
 1743ETHY    C1 1722  13.808  42.289   6.927
 1744ETHY    C1 1723  13.839  41.772   6.754
 1745THSLK    S 1724  14.573  43.691   7.748
 1746ETHY    C1 1725  14.501  43.246   7.829
 1747ETHY    C1 1726  14.504  42.717   7.948
 1748ETHY    C1 1727  14.613  42.209   8.095
 1749ETHY    C1 1728  14.815  41.731   8.264
 1750AUSL   AUS 1729  14.460  45.204   7.091
 1751AUSL   AUS 1730  14.877  45.134   7.236
 1752AUL    AUL 1731  14.764  45.418   7.009
 1753THSLK    S 1732  14.502  45.438   6.971
 1754ETHY    C1 1733  14.629  45.763   6.676
 1755ETHY    C1 1734  14.703  46.193   6.353
 1756ETHY    C1 1735  14.684  46.658   6.080
 1757ETHY    C1 1736  14.581  47.146   5.857
 1758THSLK    S 1737  15.064  45.259   7.081
 1759ETHY    C1 1738  15.421  45.451   6.869
 1760ETHY    C1 1739  15.796  45.757   6.623
 1761ETHY    C1 1740  16.097  46.144   6.398
 1762ETHY    C1 1741  16.327  46.596   6.197
 1763AUSL   AUS 1742  14.309  45.297   7.336
 1764AUSL   AUS 1743  14.196  45.040   6.990
 1765AUL    AUL 1744  14.157  45.418   7.009
 1766THSLK    S 1745  14.348  45.551   7.233
 1767ETHY    C1 1746  14.420  45.974   7.074
 1768ETHY    C1 1747  14.417  46.490   6.906
 1769ETHY    C1 1748  14.308  47.000   6.770
 1770ETHY    C1 1749  14.106  47.498   6.670
 1771THSLK    S 1750  14.077  45.177   6.800
 1772ETHY    C1 1751  13.981  45.371   6.396
 1773ETHY    C1 1752  13.804  45.649   5.966
 1774ETHY    C1 1753  13.561  45.974   5.611
 1775ETHY    C1 1754  13.265  46.339   5.330
 1776AUSL   AUS 1755  14.460  44.043   7.091
 1777AUSL   AUS 1756  14.044  44.113   7.236
 1778AUL    AUL 1757  14.157  43.829   7.009
 1779THSLK    S 1758  13.859  43.960   7.122
 1780ETHY    C1 1759  13.502  43.686   7.044
 1781ETHY    C1 1760  13.125  43.332   6.878
 1782ETHY    C1 1761  12.823  42.958   6.633
 1783ETHY    C1 1762  12.596  42.571   6.321
 1784THSLK    S 1763  14.422  43.783   7.013
 1785ETHY    C1 1764  14.294  43.375   6.852
 1786ETHY    C1 1765  14.218  42.896   6.609
 1787ETHY    C1 1766  14.237  42.444   6.315
 1788ETHY    C1 1767  14.343  42.023   5.983
 1789AUSL   AUS 1768  14.612  43.950   7.336
 1790AUSL   AUS 1769  14.725  44.207   6.990
 1791AUL    AUL 1770  14.764  43.829   7.009
 1792THSLK    S 1771  14.575  43.690   7.258
 1793ETHY    C1 1772  14.502  43.245   7.175
 1794ETHY    C1 1773  14.504  42.717   7.052
 1795ETHY    C1 1774  14.612  42.209   6.905
 1796ETHY    C1 1775  14.817  41.730   6.742
 1797THSLK    S 1776  14.848  44.017   6.847
 1798ETHY    C1 1777  14.943  43.649   6.592
 1799ETHY    C1 1778  15.117  43.268   6.247
 1800ETHY    C1 1779  15.359  42.968   5.870
 1801ETHY    C1 1780  15.660  42.747   5.471
 1802AUC    AUC 1781   8.190  17.045   7.500
 1803AUC    AUC 1782   8.436  17.045   7.348
 1804AUC    AUC 1783   8.436  17.045   7.651
 1805AUC    AUC 1784   7.945  17.045   7.348
 1806AUC    AUC 1785   7.945  17.045   7.651
 1807AUC    AUC 1786   8.039  17.290   7.500
 1808AUC    AUC 1787   8.342  17.290   7.500
 1809AUC    AUC 1788   8.039  16.799   7.500
 1810AUC    AUC 1789   8.342  16.799   7.500
 1811AUC    AUC 1790   8.190  16.893   7.745
 1812AUC    AUC 1791   8.190  17.196   7.745
 1813AUC    AUC 1792   8.190  16.893   7.254
 1814AUC    AUC 1793   8.190  17.196   7.254
 1815AUC    AUC 1794   8.681  17.045   7.196
 1816AUC    AUC 1795   8.681  17.045   7.500
 1817AUC    AUC 1796   8.681  17.045   7.803
 1818AUC    AUC 1797   7.699  17.045   7.196
 1819AUC    AUC 1798   7.699  17.045   7.500
 1820AUC    AUC 1799   7.699  17.045   7.803
 1821AUC    AUC 1800   7.887  17.535   7.500
 1822AUC    AUC 1801   8.190  17.535   7.500
 1823AUC    AUC 1802   8.494  17.535   7.500
 1824AUC    AUC 1803   7.887  16.554   7.500
 1825AUC    AUC 1804   8.190  16.554   7.500
 1826AUC    AUC 1805   8.494  16.554   7.500
 1827AUC    AUC 1806   8.190  16.741   7.991
 1828AUC    AUC 1807   8.190  17.045   7.991
 1829AUC    AUC 1808   8.190  17.348   7.991
 1830AUC    AUC 1809   8.190  16.741   7.009
 1831AUC    AUC 1810   8.190  17.045   7.009
 1832AUC    AUC 1811   8.190  17.348   7.009
 1833AUC    AUC 1812   8.436  16.893   7.897
 1834AUC    AUC 1813   8.436  17.196   7.897
 1835AUC    AUC 1814   8.436  16.893   7.103
 1836AUC    AUC 1815   8.436  17.196   7.103
 1837AUC    AUC 1816   7.945  16.893   7.897
 1838AUC    AUC 1817   7.945  17.196   7.897
 1839AUC    AUC 1818   7.945  16.893   7.103
 1840AUC    AUC 1819   7.945  17.196   7.103
 1841AUC    AUC 1820   8.587  17.290   7.348
 1842AUC    AUC 1821   8.587  17.290   7.651
 1843AUC    AUC 1822   7.793  17.290   7.348
 1844AUC    AUC 1823   7.793  17.290   7.651
 1845AUC    AUC 1824   8.587  16.799   7.348
 1846AUC    AUC 1825   8.587  16.799   7.651
 1847AUC    AUC 1826   7.793  16.799   7.348
 1848AUC    AUC 1827   7.793  16.799   7.651
 1849AUC    AUC 1828   8.039  17.442   7.745
 1850AUC    AUC 1829   8.342  17.442   7.745
 1851AUC    AUC 1830   8.039  16.647   7.745
 1852AUC    AUC 1831   8.342  16.647   7.745
 1853AUC    AUC 1832   8.039  17.442   7.254
 1854AUC    AUC 1833   8.342  17.442   7.254
 1855AUC    AUC 1834   8.039  16.647   7.254
 1856AUC    AUC 1835   8.342  16.647   7.254
 1857AUSL   AUS 1836   8.599  17.045   8.080
 1858AUSL   AUS 1837   8.455  16.628   8.011
 1859AUL    AUL 1838   8.681  16.741   8.294
 1860THSLK    S 1839   8.573  16.440   8.156
 1861ETHY    C1 1840   8.669  16.072   8.412
 1862ETHY    C1 1841   8.847  15.689   8.753
 1863ETHY    C1 1842   9.089  15.389   9.130
 1864ETHY    C1 1843   9.385  15.170   9.534
 1865THSLK    S 1844   8.698  16.998   8.327
 1866ETHY    C1 1845   8.925  16.848   8.694
 1867ETHY    C1 1846   9.209  16.760   9.148
 1868ETHY    C1 1847   9.493  16.782   9.607
 1869ETHY    C1 1848   9.770  16.904  10.061
 1870AUSL   AUS 1849   8.354  16.893   8.173
 1871AUSL   AUS 1850   8.027  17.196   8.173
 1872AUL    AUL 1851   8.190  17.045   8.482
 1873THSLK    S 1852   8.435  16.842   8.418
 1874ETHY    C1 1853   8.525  16.624   8.810
 1875ETHY    C1 1854   8.653  16.450   9.308
 1876ETHY    C1 1855   8.799  16.385   9.823
 1877ETHY    C1 1856   8.956  16.419  10.346
 1878THSLK    S 1857   7.940  17.156   8.432
 1879ETHY    C1 1858   7.851  17.082   8.874
 1880ETHY    C1 1859   7.727  17.084   9.403
 1881ETHY    C1 1860   7.582  17.193   9.912
 1882ETHY    C1 1861   7.419  17.397  10.392
 1883AUSL   AUS 1862   8.354  17.196   8.173
 1884AUSL   AUS 1863   8.700  17.309   7.916
 1885AUL    AUL 1864   8.681  17.348   8.294
 1886THSLK    S 1865   8.441  17.248   8.416
 1887ETHY    C1 1866   8.529  17.465   8.809
 1888ETHY    C1 1867   8.654  17.638   9.308
 1889ETHY    C1 1868   8.799  17.704   9.823
 1890ETHY    C1 1869   8.962  17.671  10.345
 1891THSLK    S 1870   8.876  17.415   8.079
 1892ETHY    C1 1871   9.238  17.465   8.355
 1893ETHY    C1 1872   9.645  17.614   8.681
 1894ETHY    C1 1873  10.007  17.863   8.995
 1895ETHY    C1 1874  10.319  18.199   9.293
 1896AUSL   AUS 1875   8.599  17.045   6.920
 1897AUSL   AUS 1876   8.455  17.461   6.990
 1898AUL    AUL 1877   8.681  17.348   6.706
 1899THSLK    S 1878   8.703  16.998   6.676
 1900ETHY    C1 1879   8.930  16.848   6.308
 1901ETHY    C1 1880   9.209  16.760   5.851
 1902ETHY    C1 1881   9.493  16.782   5.393
 1903ETHY    C1 1882   9.775  16.904   4.941
 1904THSLK    S 1883   8.632  17.580   6.820
 1905ETHY    C1 1884   8.904  17.721   6.480
 1906ETHY    C1 1885   9.182  17.968   6.085
 1907ETHY    C1 1886   9.398  18.301   5.720
 1908ETHY    C1 1887   9.555  18.708   5.391
 1909AUSL   AUS 1888   8.354  16.893   6.826
 1910AUSL   AUS 1889   8.700  16.780   7.083
 1911AUL    AUL 1890   8.681  16.741   6.706
 1912THSLK    S 1891   8.840  16.589   6.939
 1913ETHY    C1 1892   9.073  16.272   6.707
 1914ETHY    C1 1893   9.403  15.965   6.403
 1915ETHY    C1 1894   9.783  15.756   6.083
 1916ETHY    C1 1895  10.204  15.639   5.754
 1917THSLK    S 1896   8.441  16.841   6.583
 1918ETHY    C1 1897   8.529  16.624   6.191
 1919ETHY    C1 1898   8.654  16.451   5.692
 1920ETHY    C1 1899   8.799  16.385   5.176
 1921ETHY    C1 1900   8.962  16.418   4.656
 1922AUSL   AUS 1901   8.354  17.196   6.826
 1923AUSL   AUS 1902   8.027  16.893   6.826
 1924AUL    AUL 1903   8.190  17.045   6.518
 1925THSLK    S 1904   7.931  16.841   6.586
 1926ETHY    C1 1905   7.792  16.626   6.206
 1927ETHY    C1 1906   7.635  16.455   5.717
 1928ETHY    C1 1907   7.496  16.389   5.199
 1929ETHY    C1 1908   7.380  16.420   4.666
 1930THSLK    S 1909   8.456  17.157   6.572
 1931ETHY    C1 1910   8.593  17.080   6.142
 1932ETHY    C1 1911   8.746  17.080   5.622
 1933ETHY    C1 1912   8.884  17.189   5.112
 1934ETHY    C1 1913   9.007  17.396   4.621
 1935AUSL   AUS 1914   7.781  17.045   8.080
 1936AUSL   AUS 1915   7.926  17.461   8.011
 1937AUL    AUL 1916   7.699  17.348   8.294
 1938THSLK    S 1917   7.677  16.998   8.325
 1939ETHY    C1 1918   7.451  16.848   8.691
 1940ETHY    C1 1919   7.171  16.760   9.148
 1941ETHY    C1 1920   6.888  16.782   9.607
 1942ETHY    C1 1921   6.605  16.904  10.058
 1943THSLK    S 1922   7.803  17.594   8.201
 1944ETHY    C1 1923   7.707  17.789   8.604
 1945ETHY    C1 1924   7.534  18.070   9.034
 1946ETHY    C1 1925   7.291  18.396   9.390
 1947ETHY    C1 1926   6.990  18.755   9.671
 1948AUSL   AUS 1927   8.027  16.893   8.173
 1949AUSL   AUS 1928   7.680  16.780   7.916
 1950AUL    AUL 1929   7.699  16.741   8.294
 1951THSLK    S 1930   7.501  16.614   8.032
 1952ETHY    C1 1931   7.140  16.367   8.166
 1953ETHY    C1 1932   6.735  16.101   8.410
 1954ETHY    C1 1933   6.374  15.881   8.745
 1955ETHY    C1 1934   6.058  15.708   9.156
 1956THSLK    S 1935   7.925  16.843   8.413
 1957ETHY    C1 1936   7.787  16.628   8.793
 1958ETHY    C1 1937   7.634  16.455   9.284
 1959ETHY    C1 1938   7.497  16.389   9.800
 1960ETHY    C1 1939   7.373  16.421  10.332
 1961AUSL   AUS 1940   7.781  17.045   6.920
 1962AUSL   AUS 1941   7.926  16.628   6.990
 1963AUL    AUL 1942   7.699  16.741   6.706
 1964THSLK    S 1943   7.682  16.998   6.673
 1965ETHY    C1 1944   7.455  16.848   6.305
 1966ETHY    C1 1945   7.172  16.760   5.851
 1967ETHY    C1 1946   6.888  16.782   5.393
 1968ETHY    C1 1947   6.611  16.904   4.938
 1969THSLK    S 1948   7.752  16.453   6.865
 1970ETHY    C1 1949   7.480  16.140   6.673
 1971ETHY    C1 1950   7.199  15.792   6.367
 1972ETHY    C1 1951   6.982  15.484   5.980
 1973ETHY    C1 1952   6.830  15.217   5.528
 1974AUSL   AUS 1953   8.027  17.196   6.826
 1975AUSL   AUS 1954   7.680  17.309   7.083
 1976AUL    AUL 1955   7.699  17.348   6.706
 1977THSLK    S 1956   7.544  17.440   6.893
 1978ETHY    C1 1957   7.310  17.561   6.518
 1979ETHY    C1 1958   6.978  17.749   6.132
 1980ETHY    C1 1959   6.598  17.988   5.833
 1981ETHY    C1 1960   6.181  18.268   5.618
 1982THSLK    S 1961   7.946  17.158   6.566
 1983ETHY    C1 1962   7.856  17.083   6.124
 1984ETHY    C1 1963   7.728  17.084   5.597
 1985ETHY    C1 1964   7.582  17.193   5.089
 1986ETHY    C1 1965   7.425  17.399   4.608
 1987AUSL   AUS 1966   8.770  17.454   7.500
 1988AUSL   AUS 1967   8.700  17.309   7.083
 1989AUL    AUL 1968   8.984  17.535   7.196
 1990THSLK    S 1969   8.880  17.416   6.925
 1991ETHY    C1 1970   9.241  17.466   6.648
 1992ETHY    C1 1971   9.645  17.614   6.319
 1993ETHY    C1 1972  10.007  17.863   6.005
 1994ETHY    C1 1973  10.323  18.200   5.713
 1995THSLK    S 1974   9.040  17.515   7.503
 1996ETHY    C1 1975   9.487  17.615   7.502
 1997ETHY    C1 1976   9.989  17.821   7.500
 1998ETHY    C1 1977  10.436  18.123   7.500
 1999ETHY    C1 1978  10.824  18.507   7.503
 2000AUSL   AUS 1979   8.864  17.208   7.348
 2001AUSL   AUS 1980   8.864  16.881   7.651
 2002AUL    AUL 1981   9.172  17.045   7.500
 2003THSLK    S 1982   9.126  17.255   7.345
 2004ETHY    C1 1983   9.576  17.224   7.270
 2005ETHY    C1 1984  10.108  17.279   7.179
 2006ETHY    C1 1985  10.615  17.442   7.091
 2007ETHY    C1 1986  11.090  17.700   7.011
 2008THSLK    S 1987   9.101  16.744   7.659
 2009ETHY    C1 1988   9.472  16.486   7.726
 2010ETHY    C1 1989   9.958  16.260   7.808
 2011ETHY    C1 1990  10.477  16.140   7.896
 2012ETHY    C1 1991  11.015  16.118   7.989
 2013AUSL   AUS 1992   8.864  17.208   7.651
 2014AUSL   AUS 1993   8.607  17.555   7.764
 2015AUL    AUL 1994   8.984  17.535   7.803
 2016THSLK    S 1995   8.792  17.679   7.924
 2017ETHY    C1 1996   9.149  17.871   8.136
 2018ETHY    C1 1997   9.526  18.178   8.377
 2019ETHY    C1 1998   9.827  18.565   8.602
 2020ETHY    C1 1999  10.054  19.016   8.809
 2021THSLK    S 2000   9.125  17.254   7.661
 2022ETHY    C1 2001   9.576  17.224   7.734
 2023ETHY    C1 2002  10.109  17.279   7.821
 2024ETHY    C1 2003  10.615  17.442   7.908
 2025ETHY    C1 2004  11.089  17.700   7.995
 2026AUSL   AUS 2005   7.610  17.454   7.500
 2027AUSL   AUS 2006   7.680  17.309   7.916
 2028AUL    AUL 2007   7.396  17.535   7.803
 2029THSLK    S 2008   7.540  17.435   8.107
 2030ETHY    C1 2009   7.307  17.556   8.482
 2031ETHY    C1 2010   6.978  17.749   8.868
 2032ETHY    C1 2011   6.598  17.988   9.166
 2033ETHY    C1 2012   6.177  18.263   9.381
 2034THSLK    S 2013   7.389  17.594   7.503
 2035ETHY    C1 2014   7.100  17.949   7.502
 2036ETHY    C1 2015   6.692  18.306   7.500
 2037ETHY    C1 2016   6.222  18.570   7.500
 2038ETHY    C1 2017   5.704  18.746   7.503
 2039AUSL   AUS 2018   7.517  17.208   7.348
 2040AUSL   AUS 2019   7.774  17.555   7.236
 2041AUL    AUL 2020   7.396  17.535   7.196
 2042THSLK    S 2021   7.280  17.322   7.303
 2043ETHY    C1 2022   6.908  17.496   7.101
 2044ETHY    C1 2023   6.422  17.672   6.936
 2045ETHY    C1 2024   5.904  17.804   6.868
 2046ETHY    C1 2025   5.366  17.896   6.890
 2047THSLK    S 2026   7.654  17.722   7.056
 2048ETHY    C1 2027   7.502  18.041   6.765
 2049ETHY    C1 2028   7.248  18.421   6.473
 2050ETHY    C1 2029   6.915  18.789   6.260
 2051ETHY    C1 2030   6.519  19.139   6.122
 2052AUSL   AUS 2031   7.517  17.208   7.651
 2053AUSL   AUS 2032   7.517  16.881   7.348
 2054AUL    AUL 2033   7.209  17.045   7.500
 2055THSLK    S 2034   7.255  16.806   7.384
 2056ETHY    C1 2035   6.805  16.755   7.446
 2057ETHY    C1 2036   6.272  16.652   7.434
 2058ETHY    C1 2037   5.765  16.502   7.327
 2059ETHY    C1 2038   5.292  16.309   7.135
 2060THSLK    S 2039   7.279  17.316   7.699
 2061ETHY    C1 2040   6.908  17.492   7.901
 2062ETHY    C1 2041   6.422  17.671   8.063
 2063ETHY    C1 2042   5.904  17.804   8.133
 2064ETHY    C1 2043   5.365  17.890   8.114
 2065AUSL   AUS 2044   8.770  16.635   7.500
 2066AUSL   AUS 2045   8.700  16.780   7.916
 2067AUL    AUL 2046   8.984  16.554   7.803
 2068THSLK    S 2047   8.991  16.495   7.503
 2069ETHY    C1 2048   9.280  16.140   7.502
 2070ETHY    C1 2049   9.689  15.783   7.500
 2071ETHY    C1 2050  10.159  15.519   7.500
 2072ETHY    C1 2051  10.676  15.343   7.503
 2073THSLK    S 2052   8.837  16.590   8.066
 2074ETHY    C1 2053   9.070  16.273   8.297
 2075ETHY    C1 2054   9.403  15.966   8.598
 2076ETHY    C1 2055   9.783  15.756   8.918
 2077ETHY    C1 2056  10.200  15.640   9.250
 2078AUSL   AUS 2057   8.864  16.881   7.348
 2079AUSL   AUS 2058   8.607  16.534   7.236
 2080AUL    AUL 2059   8.984  16.554   7.196
 2081THSLK    S 2060   9.102  16.744   7.346
 2082ETHY    C1 2061   9.473  16.486   7.279
 2083ETHY    C1 2062   9.958  16.260   7.192
 2084ETHY    C1 2063  10.477  16.140   7.103
 2085ETHY    C1 2064  11.016  16.118   7.018
 2086THSLK    S 2065   8.730  16.343   7.099
 2087ETHY    C1 2066   8.880  15.941   6.942
 2088ETHY    C1 2067   9.133  15.511   6.728
 2089ETHY    C1 2068   9.465  15.155   6.495
 2090ETHY    C1 2069   9.864  14.874   6.249
 2091AUSL   AUS 2070   7.610  16.635   7.500
 2092AUSL   AUS 2071   7.680  16.780   7.083
 2093AUL    AUL 2072   7.396  16.554   7.196
 2094THSLK    S 2073   7.505  16.609   6.966
 2095ETHY    C1 2074   7.143  16.363   6.833
 2096ETHY    C1 2075   6.735  16.100   6.589
 2097ETHY    C1 2076   6.374  15.881   6.255
 2098ETHY    C1 2077   6.062  15.703   5.843
 2099THSLK    S 2078   7.340  16.574   7.503
 2100ETHY    C1 2079   6.894  16.474   7.502
 2101ETHY    C1 2080   6.392  16.268   7.500
 2102ETHY    C1 2081   5.945  15.966   7.500
 2103ETHY    C1 2082   5.557  15.582   7.503
 2104AUSL   AUS 2083   7.517  16.881   7.651
 2105AUSL   AUS 2084   7.774  16.534   7.764
 2106AUL    AUL 2085   7.396  16.554   7.803
 2107THSLK    S 2086   7.586  16.386   7.881
 2108ETHY    C1 2087   7.230  16.110   7.958
 2109ETHY    C1 2088   6.855  15.753   8.122
 2110ETHY    C1 2089   6.554  15.379   8.367
 2111ETHY    C1 2090   6.323  14.997   8.682
 2112THSLK    S 2091   7.254  16.811   7.618
 2113ETHY    C1 2092   6.804  16.759   7.557
 2114ETHY    C1 2093   6.272  16.653   7.566
 2115ETHY    C1 2094   5.765  16.502   7.673
 2116ETHY    C1 2095   5.291  16.314   7.867
 2117AUSL   AUS 2096   8.190  17.625   7.909
 2118AUSL   AUS 2097   7.774  17.555   7.764
 2119AUL    AUL 2098   7.887  17.839   7.991
 2120THSLK    S 2099   7.651  17.717   7.948
 2121ETHY    C1 2100   7.500  18.037   8.237
 2122ETHY    C1 2101   7.247  18.420   8.527
 2123ETHY    C1 2102   6.915  18.788   8.740
 2124ETHY    C1 2103   6.516  19.134   8.881
 2125THSLK    S 2104   8.228  17.856   8.034
 2126ETHY    C1 2105   8.356  18.182   8.327
 2127ETHY    C1 2106   8.433  18.614   8.646
 2128ETHY    C1 2107   8.414  19.079   8.920
 2129ETHY    C1 2108   8.308  19.564   9.147
 2130AUSL   AUS 2109   8.039  17.718   7.663
 2131AUSL   AUS 2110   8.342  17.718   7.336
 2132AUL    AUL 2111   8.190  18.026   7.500
 2133THSLK    S 2112   8.076  17.970   7.772
 2134ETHY    C1 2113   8.149  18.394   7.929
 2135ETHY    C1 2114   8.146  18.910   8.095
 2136ETHY    C1 2115   8.038  19.421   8.229
 2137ETHY    C1 2116   7.834  19.917   8.336
 2138THSLK    S 2117   8.393  17.958   7.237
 2139ETHY    C1 2118   8.606  18.335   7.091
 2140ETHY    C1 2119   8.776  18.824   6.929
 2141ETHY    C1 2120   8.843  19.342   6.792
 2142ETHY    C1 2121   8.814  19.876   6.682
 2143AUSL   AUS 2122   8.342  17.718   7.663
 2144AUSL   AUS 2123   8.455  17.461   8.011
 2145AUL    AUL 2124   8.494  17.839   7.991
 2146THSLK    S 2125   8.628  17.578   8.184
 2147ETHY    C1 2126   8.901  17.719   8.522
 2148ETHY    C1 2127   9.182  17.968   8.915
 2149ETHY    C1 2128   9.398  18.301   9.279
 2150ETHY    C1 2129   9.550  18.706   9.614
 2151THSLK    S 2130   8.392  17.956   7.768
 2152ETHY    C1 2131   8.605  18.335   7.913
 2153ETHY    C1 2132   8.776  18.824   8.072
 2154ETHY    C1 2133   8.843  19.342   8.207
 2155ETHY    C1 2134   8.812  19.875   8.325
 2156AUSL   AUS 2135   8.190  16.464   7.909
 2157AUSL   AUS 2136   8.607  16.534   7.764
 2158AUL    AUL 2137   8.494  16.250   7.991
 2159THSLK    S 2138   8.149  16.207   7.992
 2160ETHY    C1 2139   8.022  15.798   8.152
 2161ETHY    C1 2140   7.948  15.317   8.391
 2162ETHY    C1 2141   7.967  14.865   8.684
 2163ETHY    C1 2142   8.069  14.447   9.021
 2164THSLK    S 2143   8.727  16.344   7.907
 2165ETHY    C1 2144   8.878  15.942   8.062
 2166ETHY    C1 2145   9.133  15.511   8.272
 2167ETHY    C1 2146   9.465  15.155   8.505
 2168ETHY    C1 2147   9.861  14.876   8.758
 2169AUSL   AUS 2148   8.039  16.371   7.663
 2170AUSL   AUS 2149   7.926  16.628   8.011
 2171AUL    AUL 2150   7.887  16.250   7.991
 2172THSLK    S 2151   7.988  16.126   7.744
 2173ETHY    C1 2152   7.775  15.727   7.812
 2174ETHY    C1 2153   7.604  15.224   7.925
 2175ETHY    C1 2154   7.538  14.710   8.072
 2176ETHY    C1 2155   7.567  14.195   8.252
 2177THSLK    S 2156   7.748  16.458   8.136
 2178ETHY    C1 2157   7.476  16.143   8.327
 2179ETHY    C1 2158   7.198  15.792   8.633
 2180ETHY    C1 2159   6.982  15.484   9.019
 2181ETHY    C1 2160   6.826  15.222   9.473
 2182AUSL   AUS 2161   8.342  16.371   7.663
 2183AUSL   AUS 2162   8.039  16.371   7.336
 2184AUL    AUL 2163   8.190  16.063   7.500
 2185THSLK    S 2164   7.989  16.124   7.261
 2186ETHY    C1 2165   7.776  15.726   7.192
 2187ETHY    C1 2166   7.604  15.224   7.076
 2188ETHY    C1 2167   7.538  14.710   6.927
 2189ETHY    C1 2168   7.569  14.193   6.754
 2190THSLK    S 2169   8.303  16.112   7.748
 2191ETHY    C1 2170   8.231  15.667   7.829
 2192ETHY    C1 2171   8.234  15.138   7.948
 2193ETHY    C1 2172   8.343  14.630   8.095
 2194ETHY    C1 2173   8.545  14.152   8.264
 2195AUSL   AUS 2174   8.190  17.625   7.091
 2196AUSL   AUS 2175   8.607  17.555   7.236
 2197AUL    AUL 2176   8.494  17.839   7.009
 2198THSLK    S 2177   8.232  17.859   6.971
 2199ETHY    C1 2178   8.359  18.184   6.676
 2200ETHY    C1 2179   8.433  18.614   6.353
 2201ETHY    C1 2180   8.414  19.079   6.080
 2202ETHY    C1 2181   8.311  19.567   5.857
 2203THSLK    S 2182   8.794  17.680   7.081
 2204ETHY    C1 2183   9.151  17.872   6.869
 2205ETHY    C1 2184   9.526  18.178   6.623
 2206ETHY    C1 2185   9.827  18.565   6.398
 2207ETHY    C1 2186  10.057  19.017   6.197
 2208AUSL   AUS 2187   8.039  17.718   7.336
 2209AUSL   AUS 2188   7.926  17.461   6.990
 2210AUL    AUL 2189   7.887  17.839   7.009
 2211THSLK    S 2190   8.078  17.972   7.233
 2212ETHY    C1 2191   8.150  18.395   7.074
 2213ETHY    C1 2192   8.147  18.911   6.906
 2214ETHY    C1 2193   8.038  19.421   6.770
 2215ETHY    C1 2194   7.836  19.919   6.670
 2216THSLK    S 2195   7.807  17.598   6.800
 2217ETHY    C1 2196   7.711  17.792   6.396
 2218ETHY    C1 2197   7.534  18.070   5.966
 2219ETHY    C1 2198   7.291  18.395   5.611
 2220ETHY    C1 2199   6.995  18.760   5.330
 2221AUSL   AUS 2200   8.190  16.464   7.091
 2222AUSL   AUS 2201   7.774  16.534   7.236
 2223AUL    AUL 2202   7.887  16.250   7.009
 2224THSLK    S 2203   7.589  16.381   7.122
 2225ETHY    C1 2204   7.232  16.107   7.044
 2226ETHY    C1 2205   6.855  15.753   6.878
 2227ETHY    C1 2206   6.553  15.379   6.633
 2228ETHY    C1 2207   6.326  14.992   6.321
 2229THSLK    S 2208   8.152  16.204   7.013
 2230ETHY    C1 2209   8.024  15.796   6.852
 2231ETHY    C1 2210   7.948  15.317   6.609
 2232ETHY    C1 2211   7.967  14.865   6.315
 2233ETHY    C1 2212   8.073  14.444   5.983
 2234AUSL   AUS 2213   8.342  16.371   7.336
 2235AUSL   AUS 2214   8.455  16.628   6.990
 2236AUL    AUL 2215   8.494  16.250   7.009
 2237THSLK    S 2216   8.305  16.111   7.258
 2238ETHY    C1 2217   8.232  15.666   7.175
 2239ETHY    C1 2218   8.234  15.138   7.052
 2240ETHY    C1 2219   8.342  14.630   6.905
 2241ETHY    C1 2220   8.547  14.151   6.742
 2242THSLK    S 2221   8.578  16.438   6.847
 2243ETHY    C1 2222   8.673  16.070   6.592
 2244ETHY    C1 2223   8.847  15.689   6.247
 2245ETHY    C1 2224   9.089  15.389   5.870
 2246ETHY    C1 2225   9.390  15.168   5.471
 2247AUC    AUC 2226  31.245   4.080   7.500
 2248AUC    AUC 2227  31.491   4.080   7.348
 2249AUC    AUC 2228  31.491   4.080   7.651
 2250AUC    AUC 2229  31.000   4.080   7.348
 2251AUC    AUC 2230  31.000   4.080   7.651
 2252AUC    AUC 2231  31.094   4.325   7.500
 2253AUC    AUC 2232  31.397   4.325   7.500
 2254AUC    AUC 2233  31.094   3.834   7.500
 2255AUC    AUC 2234  31.397   3.834   7.500
 2256AUC    AUC 2235  31.245   3.928   7.745
 2257AUC    AUC 2236  31.245   4.231   7.745
 2258AUC    AUC 2237  31.245   3.928   7.254
 2259AUC    AUC 2238  31.245   4.231   7.254
 2260AUC    AUC 2239  31.736   4.080   7.196
 2261AUC    AUC 2240  31.736   4.080   7.500
 2262AUC    AUC 2241  31.736   4.080   7.803
 2263AUC    AUC 2242  30.754   4.080   7.196
 2264AUC    AUC 2243  30.754   4.080   7.500
 2265AUC    AUC 2244  30.754   4.080   7.803
 2266AUC    AUC 2245  30.942   4.570   7.500
 2267AUC    AUC 2246  31.245   4.570   7.500
 2268AUC    AUC 2247  31.549   4.570   7.500
 2269AUC    AUC 2248  30.942   3.589   7.500
 2270AUC    AUC 2249  31.245   3.589   7.500
 2271AUC    AUC 2250  31.549   3.589   7.500
 2272AUC    AUC 2251  31.245   3.776   7.991
 2273AUC    AUC 2252  31.245   4.080   7.991
 2274AUC    AUC 2253  31.245   4.383   7.991
 2275AUC    AUC 2254  31.245   3.776   7.009
 2276AUC    AUC 2255  31.245   4.080   7.009
 2277AUC    AUC 2256  31.245   4.383   7.009
 2278AUC    AUC 2257  31.491   3.928   7.897
 2279AUC    AUC 2258  31.491   4.231   7.897
 2280AUC    AUC 2259  31.491   3.928   7.103
 2281AUC    AUC 2260  31.491   4.231   7.103
 2282AUC    AUC 2261  31.000   3.928   7.897
 2283AUC    AUC 2262  31.000   4.231   7.897
 2284AUC    AUC 2263  31.000   3.928   7.103
 2285AUC    AUC 2264  31.000   4.231   7.103
 2286AUC    AUC 2265  31.642   4.325   7.348
 2287AUC    AUC 2266  31.642   4.325   7.651
 2288AUC    AUC 2267  30.848   4.325   7.348
 2289AUC    AUC 2268  30.848   4.325   7.651
 2290AUC    AUC 2269  31.642   3.834   7.348
 2291AUC    AUC 2270  31.642   3.834   7.651
 2292AUC    AUC 2271  30.848   3.834   7.348
 2293AUC    AUC 2272  30.848   3.834   7.651
 2294AUC    AUC 2273  31.094   4.477   7.745
 2295AUC    AUC 2274  31.397   4.477   7.745
 2296AUC    AUC 2275  31.094   3.682   7.745
 2297AUC    AUC 2276  31.397   3.682   7.745
 2298AUC    AUC 2277  31.094   4.477   7.254
 2299AUC    AUC 2278  31.397   4.477   7.254
 2300AUC    AUC 2279  31.094   3.682   7.254
 2301AUC    AUC 2280  31.397   3.682   7.254
 2302AUSL   AUS 2281  31.654   4.080   8.080
 2303AUSL   AUS 2282  31.510   3.663   8.011
 2304AUL    AUL 2283  31.736   3.776   8.294
 2305THSLK    S 2284  31.628   3.475   8.156
 2306ETHY    C1 2285  31.724   3.107   8.412
 2307ETHY    C1 2286  31.902   2.724   8.753
 2308ETHY    C1 2287  32.144   2.424   9.130
 2309ETHY    C1 2288  32.440   2.205   9.534
 2310THSLK    S 2289  31.753   4.033   8.327
 2311ETHY    C1 2290  31.980   3.883   8.694
 2312ETHY    C1 2291  32.264   3.795   9.148
 2313ETHY    C1 2292  32.548   3.817   9.607
 2314ETHY    C1 2293  32.825   3.939  10.061
 2315AUSL   AUS 2294  31.409   3.928   8.173
 2316AUSL   AUS 2295  31.082   4.231   8.173
 2317AUL    AUL 2296  31.245   4.080   8.482
 2318THSLK    S 2297  31.490   3.877   8.418
 2319ETHY    C1 2298  31.580   3.659   8.810
 2320ETHY    C1 2299  31.708   3.485   9.308
 2321ETHY    C1 2300  31.854   3.420   9.823
 2322ETHY    C1 2301  32.011   3.454  10.346
 2323THSLK    S 2302  30.995   4.191   8.432
 2324ETHY    C1 2303  30.906   4.117   8.874
 2325ETHY    C1 2304  30.782   4.119   9.403
 2326ETHY    C1 2305  30.637   4.228   9.912
 2327ETHY    C1 2306  30.474   4.432  10.392
 2328AUSL   AUS 2307  31.409   4.231   8.173
 2329AUSL   AUS 2308  31.755   4.344   7.916
 2330AUL    AUL 2309  31.736   4.383   8.294
 2331THSLK    S 2310  31.496   4.283   8.416
 2332ETHY    C1 2311  31.584   4.500   8.809
 2333ETHY    C1 2312  31.709   4.673   9.308
 2334ETHY    C1 2313  31.854   4.739   9.823
 2335ETHY    C1 2314  32.017   4.706  10.345
 2336THSLK    S 2315  31.931   4.450   8.079
 2337ETHY    C1 2316  32.293   4.500   8.355
 2338ETHY    C1 2317  32.700   4.649   8.681
 2339ETHY    C1 2318  33.062   4.898   8.995
 2340ETHY    C1 2319  33.374   5.234   9.293
 2341AUSL   AUS 2320  31.654   4.080   6.920
 2342AUSL   AUS 2321  31.510   4.496   6.990
 2343AUL    AUL 2322  31.736   4.383   6.706
 2344THSLK    S 2323  31.758   4.033   6.676
 2345ETHY    C1 2324  31.985   3.883   6.308
 2346ETHY    C1 2325  32.264   3.795   5.851
 2347ETHY    C1 2326  32.548   3.817   5.393
 2348ETHY    C1 2327  32.830   3.939   4.941
 2349THSLK    S 2328  31.687   4.615   6.820
 2350ETHY    C1 2329  31.959   4.756   6.480
 2351ETHY    C1 2330  32.237   5.003   6.085
 2352ETHY    C1 2331  32.453   5.336   5.720
 2353ETHY    C1 2332  32.610   5.743   5.391
 2354AUSL   AUS 2333  31.409   3.928   6.826
 2355AUSL   AUS 2334  31.755   3.815   7.083
 2356AUL    AUL 2335  31.736   3.776   6.706
 2357THSLK    S 2336  31.895   3.624   6.939
 2358ETHY    C1 2337  32.128   3.307   6.707
 2359ETHY    C1 2338  32.458   3.000   6.403
 2360ETHY    C1 2339  32.838   2.791   6.083
 2361ETHY    C1 2340  33.259   2.674   5.754
 2362THSLK    S 2341  31.496   3.876   6.583
 2363ETHY    C1 2342  31.584   3.659   6.191
 2364ETHY    C1 2343  31.709   3.486   5.692
 2365ETHY    C1 2344  31.854   3.420   5.176
 2366ETHY    C1 2345  32.017   3.453   4.656
 2367AUSL   AUS 2346  31.409   4.231   6.826
 2368AUSL   AUS 2347  31.082   3.928   6.826
 2369AUL    AUL 2348  31.245   4.080   6.518
 2370THSLK    S 2349  30.986   3.876   6.586
 2371ETHY    C1 2350  30.847   3.661   6.206
 2372ETHY    C1 2351  30.690   3.490   5.717
 2373ETHY    C1 2352  30.551   3.424   5.199
 2374ETHY    C1 2353  30.435   3.455   4.666
 2375THSLK    S 2354  31.511   4.192   6.572
 2376ETHY    C1 2355  31.648   4.115   6.142
 2377ETHY    C1 2356  31.801   4.115   5.622
 2378ETHY    C1 2357  31.939   4.224   5.112
 2379ETHY    C1 2358  32.062   4.431   4.621
 2380AUSL   AUS 2359  30.836   4.080   8.080
 2381AUSL   AUS 2360  30.981   4.496   8.011
 2382AUL    AUL 2361  30.754   4.383   8.294
 2383THSLK    S 2362  30.732   4.033   8.325
 2384ETHY    C1 2363  30.506   3.883   8.691
 2385ETHY    C1 2364  30.226   3.795   9.148
 2386ETHY    C1 2365  29.943   3.817   9.607
 2387ETHY    C1 2366  29.660   3.939  10.058
 2388THSLK    S 2367  30.858   4.629   8.201
 2389ETHY    C1 2368  30.762   4.824   8.604
 2390ETHY    C1 2369  30.589   5.105   9.034
 2391ETHY    C1 2370  30.346   5.431   9.390
 2392ETHY    C1 2371  30.045   5.790   9.671
 2393AUSL   AUS 2372  31.082   3.928   8.173
 2394AUSL   AUS 2373  30.735   3.815   7.916
 2395AUL    AUL 2374  30.754   3.776   8.294
 2396THSLK    S 2375  30.556   3.649   8.032
 2397ETHY    C1 2376  30.195   3.402   8.166
 2398ETHY    C1 2377  29.790   3.136   8.410
 2399ETHY    C1 2378  29.429   2.916   8.745
 2400ETHY    C1 2379  29.113   2.743   9.156
 2401THSLK    S 2380  30.980   3.878   8.413
 2402ETHY    C1 2381  30.842   3.663   8.793
 2403ETHY    C1 2382  30.689   3.490   9.284
 2404ETHY    C1 2383  30.552   3.424   9.800
 2405ETHY    C1 2384  30.428   3.456  10.332
 2406AUSL   AUS 2385  30.836   4.080   6.920
 2407AUSL   AUS 2386  30.981   3.663   6.990
 2408AUL    AUL 2387  30.754   3.776   6.706
 2409THSLK    S 2388  30.737   4.033   6.673
 2410ETHY    C1 2389  30.510   3.883   6.305
 2411ETHY    C1 2390  30.227   3.795   5.851
 2412ETHY    C1 2391  29.943   3.817   5.393
 2413ETHY    C1 2392  29.666   3.939   4.938
 2414THSLK    S 2393  30.807   3.488   6.865
 2415ETHY    C1 2394  30.535   3.175   6.673
 2416ETHY    C1 2395  30.254   2.827   6.367
 2417ETHY    C1 2396  30.037   2.519   5.980
 2418ETHY    C1 2397  29.885   2.252   5.528
 2419AUSL   AUS 2398  31.082   4.231   6.826
 2420AUSL   AUS 2399  30.735   4.344   7.083
 2421AUL    AUL 2400  30.754   4.383   6.706
 2422THSLK    S 2401  30.599   4.475   6.893
 2423ETHY    C1 2402  30.365   4.596   6.518
 2424ETHY    C1 2403  30.033   4.784   6.132
 2425ETHY    C1 2404  29.653   5.023   5.833
 2426ETHY    C1 2405  29.236   5.303   5.618
 2427THSLK    S 2406  31.001   4.193   6.566
 2428ETHY    C1 2407  30.911   4.118   6.124
 2429ETHY    C1 2408  30.783   4.119   5.597
 2430ETHY    C1 2409  30.637   4.228   5.089
 2431ETHY    C1 2410  30.480   4.434   4.608
 2432AUSL   AUS 2411  31.825   4.489   7.500
 2433AUSL   AUS 2412  31.755   4.344   7.083
 2434AUL    AUL 2413  32.039   4.570   7.196
 2435THSLK    S 2414  31.935   4.451   6.925
 2436ETHY    C1 2415  32.296   4.501   6.648
 2437ETHY    C1 2416  32.700   4.649   6.319
 2438ETHY    C1 2417  33.062   4.898   6.005
 2439ETHY    C1 2418  33.378   5.235   5.713
 2440THSLK    S 2419  32.095   4.550   7.503
 2441ETHY    C1 2420  32.542   4.650   7.502
 2442ETHY    C1 2421  33.044   4.856   7.500
 2443ETHY    C1 2422  33.491   5.158   7.500
 2444ETHY    C1 2423  33.879   5.542   7.503
 2445AUSL   AUS 2424  31.919   4.243   7.348
 2446AUSL   AUS 2425  31.919   3.916   7.651
 2447AUL    AUL 2426  32.227   4.080   7.500
 2448THSLK    S 2427  32.181   4.290   7.345
 2449ETHY    C1 2428  32.631   4.259   7.270
 2450ETHY    C1 2429  33.163   4.314   7.179
 2451ETHY    C1 2430  33.670   4.477   7.091
 2452ETHY    C1 2431  34.145   4.735   7.011
 2453THSLK    S 2432  32.156   3.779   7.659
 2454ETHY    C1 2433  32.527   3.521   7.726
 2455ETHY    C1 2434  33.013   3.295   7.808
 2456ETHY    C1 2435  33.532   3.175   7.896
 2457ETHY    C1 2436  34.070   3.153   7.989
 2458AUSL   AUS 2437  31.919   4.243   7.651
 2459AUSL   AUS 2438  31.662   4.590   7.764
 2460AUL    AUL 2439  32.039   4.570   7.803
 2461THSLK    S 2440  31.847   4.714   7.924
 2462ETHY    C1 2441  32.204   4.906   8.136
 2463ETHY    C1 2442  32.581   5.213   8.377
 2464ETHY    C1 2443  32.882   5.600   8.602
 2465ETHY    C1 2444  33.109   6.051   8.809
 2466THSLK    S 2445  32.180   4.289   7.661
 2467ETHY    C1 2446  32.631   4.259   7.734
 2468ETHY    C1 2447  33.164   4.314   7.821
 2469ETHY    C1 2448  33.670   4.477   7.908
 2470ETHY    C1 2449  34.144   4.735   7.995
 2471AUSL   AUS 2450  30.665   4.489   7.500
 2472AUSL   AUS 2451  30.735   4.344   7.916
 2473AUL    AUL 2452  30.451   4.570   7.803
 2474THSLK    S 2453  30.595   4.470   8.107
 2475ETHY    C1 2454  30.362   4.591   8.482
 2476ETHY    C1 2455  30.033   4.784   8.868
 2477ETHY    C1 2456  29.653   5.023   9.166
 2478ETHY    C1 2457  29.232   5.298   9.381
 2479THSLK    S 2458  30.444   4.629   7.503
 2480ETHY    C1 2459  30.155   4.984   7.502
 2481ETHY    C1 2460  29.747   5.341   7.500
 2482ETHY    C1 2461  29.277   5.605   7.500
 2483ETHY    C1 2462  28.759   5.781   7.503
 2484AUSL   AUS 2463  30.572   4.243   7.348
 2485AUSL   AUS 2464  30.829   4.590   7.236
 2486AUL    AUL 2465  30.451   4.570   7.196
 2487THSLK    S 2466  30.335   4.357   7.303
 2488ETHY    C1 2467  29.963   4.531   7.101
 2489ETHY    C1 2468  29.477   4.707   6.936
 2490ETHY    C1 2469  28.959   4.839   6.868
 2491ETHY    C1 2470  28.421   4.931   6.890
 2492THSLK    S 2471  30.709   4.757   7.056
 2493ETHY    C1 2472  30.557   5.076   6.765
 2494ETHY    C1 2473  30.303   5.456   6.473
 2495ETHY    C1 2474  29.970   5.824   6.260
 2496ETHY    C1 2475  29.574   6.174   6.122
 2497AUSL   AUS 2476  30.572   4.243   7.651
 2498AUSL   AUS 2477  30.572   3.916   7.348
 2499AUL    AUL 2478  30.264   4.080   7.500
 2500THSLK    S 2479  30.310   3.841   7.384
 2501ETHY    C1 2480  29.860   3.790   7.446
 2502ETHY    C1 2481  29.327   3.687   7.434
 2503ETHY    C1 2482  28.820   3.537   7.327
 2504ETHY    C1 2483  28.347   3.344   7.135
 2505THSLK    S 2484  30.334   4.351   7.699
 2506ETHY    C1 2485  29.963   4.527   7.901
 2507ETHY    C1 2486  29.477   4.706   8.063
 2508ETHY    C1 2487  28.959   4.839   8.133
 2509ETHY    C1 2488  28.420   4.925   8.114
 2510AUSL   AUS 2489  31.825   3.670   7.500
 2511AUSL   AUS 2490  31.755   3.815   7.916
 2512AUL    AUL 2491  32.039   3.589   7.803
 2513THSLK    S 2492  32.046   3.530   7.503
 2514ETHY    C1 2493  32.335   3.175   7.502
 2515ETHY    C1 2494  32.744   2.818   7.500
 2516ETHY    C1 2495  33.214   2.554   7.500
 2517ETHY    C1 2496  33.731   2.378   7.503
 2518THSLK    S 2497  31.892   3.625   8.066
 2519ETHY    C1 2498  32.125   3.308   8.297
 2520ETHY    C1 2499  32.458   3.001   8.598
 2521ETHY    C1 2500  32.838   2.791   8.918
 2522ETHY    C1 2501  33.255   2.675   9.250
 2523AUSL   AUS 2502  31.919   3.916   7.348
 2524AUSL   AUS 2503  31.662   3.569   7.236
 2525AUL    AUL 2504  32.039   3.589   7.196
 2526THSLK    S 2505  32.157   3.779   7.346
 2527ETHY    C1 2506  32.528   3.521   7.279
 2528ETHY    C1 2507  33.013   3.295   7.192
 2529ETHY    C1 2508  33.532   3.175   7.103
 2530ETHY    C1 2509  34.071   3.153   7.018
 2531THSLK    S 2510  31.785   3.378   7.099
 2532ETHY    C1 2511  31.935   2.976   6.942
 2533ETHY    C1 2512  32.188   2.546   6.728
 2534ETHY    C1 2513  32.520   2.190   6.495
 2535ETHY    C1 2514  32.919   1.909   6.249
 2536AUSL   AUS 2515  30.665   3.670   7.500
 2537AUSL   AUS 2516  30.735   3.815   7.083
 2538AUL    AUL 2517  30.451   3.589   7.196
 2539THSLK    S 2518  30.560   3.644   6.966
 2540ETHY    C1 2519  30.198   3.398   6.833
 2541ETHY    C1 2520  29.790   3.135   6.589
 2542ETHY    C1 2521  29.429   2.916   6.255
 2543ETHY    C1 2522  29.117   2.738   5.843
 2544THSLK    S 2523  30.395   3.609   7.503
 2545ETHY    C1 2524  29.949   3.509   7.502
 2546ETHY    C1 2525  29.447   3.303   7.500
 2547ETHY    C1 2526  29.000   3.001   7.500
 2548ETHY    C1 2527  28.612   2.617   7.503
 2549AUSL   AUS 2528  30.572   3.916   7.651
 2550AUSL   AUS 2529  30.829   3.569   7.764
 2551AUL    AUL 2530  30.451   3.589   7.803
 2552THSLK    S 2531  30.641   3.421   7.881
 2553ETHY    C1 2532  30.285   3.145   7.958
 2554ETHY    C1 2533  29.910   2.788   8.122
 2555ETHY    C1 2534  29.609   2.414   8.367
 2556ETHY    C1 2535  29.378   2.032   8.682
 2557THSLK    S 2536  30.309   3.846   7.618
 2558ETHY    C1 2537  29.859   3.794   7.557
 2559ETHY    C1 2538  29.327   3.688   7.566
 2560ETHY    C1 2539  28.820   3.537   7.673
 2561ETHY    C1 2540  28.346   3.349   7.867
 2562AUSL   AUS 2541  31.245   4.660   7.909
 2563AUSL   AUS 2542  30.829   4.590   7.764
 2564AUL    AUL 2543  30.942   4.874   7.991
 2565THSLK    S 2544  30.706   4.752   7.948
 2566ETHY    C1 2545  30.555   5.072   8.237
 2567ETHY    C1 2546  30.302   5.455   8.527
 2568ETHY    C1 2547  29.970   5.823   8.740
 2569ETHY    C1 2548  29.571   6.169   8.881
 2570THSLK    S 2549  31.283   4.891   8.034
 2571ETHY    C1 2550  31.411   5.217   8.327
 2572ETHY    C1 2551  31.488   5.649   8.646
 2573ETHY    C1 2552  31.469   6.114   8.920
 2574ETHY    C1 2553  31.363   6.599   9.147
 2575AUSL   AUS 2554  31.094   4.753   7.663
 2576AUSL   AUS 2555  31.397   4.753   7.336
 2577AUL    AUL 2556  31.245   5.061   7.500
 2578THSLK    S 2557  31.131   5.005   7.772
 2579ETHY    C1 2558  31.204   5.429   7.929
 2580ETHY    C1 2559  31.201   5.945   8.095
 2581ETHY    C1 2560  31.093   6.456   8.229
 2582ETHY    C1 2561  30.889   6.952   8.336
 2583THSLK    S 2562  31.448   4.993   7.237
 2584ETHY    C1 2563  31.661   5.370   7.091
 2585ETHY    C1 2564  31.831   5.859   6.929
 2586ETHY    C1 2565  31.898   6.377   6.792
 2587ETHY    C1 2566  31.869   6.911   6.682
 2588AUSL   AUS 2567  31.397   4.753   7.663
 2589AUSL   AUS 2568  31.510   4.496   8.011
 2590AUL    AUL 2569  31.549   4.874   7.991
 2591THSLK    S 2570  31.683   4.613   8.184
 2592ETHY    C1 2571  31.956   4.754   8.522
 2593ETHY    C1 2572  32.237   5.003   8.915
 2594ETHY    C1 2573  32.453   5.336   9.279
 2595ETHY    C1 2574  32.605   5.741   9.614
 2596THSLK    S 2575  31.447   4.991   7.768
 2597ETHY    C1 2576  31.660   5.370   7.913
 2598ETHY    C1 2577  31.831   5.859   8.072
 2599ETHY    C1 2578  31.898   6.377   8.207
 2600ETHY    C1 2579  31.867   6.910   8.325
 2601AUSL   AUS 2580  31.245   3.499   7.909
 2602AUSL   AUS 2581  31.662   3.569   7.764
 2603AUL    AUL 2582  31.549   3.285   7.991
 2604THSLK    S 2583  31.204   3.242   7.992
 2605ETHY    C1 2584  31.077   2.833   8.152
 2606ETHY    C1 2585  31.003   2.352   8.391
 2607ETHY    C1 2586  31.022   1.900   8.684
 2608ETHY    C1 2587  31.124   1.482   9.021
 2609THSLK    S 2588  31.782   3.379   7.907
 2610ETHY    C1 2589  31.933   2.977   8.062
 2611ETHY    C1 2590  32.188   2.546   8.272
 2612ETHY    C1 2591  32.520   2.190   8.505
 2613ETHY    C1 2592  32.916   1.911   8.758
 2614AUSL   AUS 2593  31.094   3.406   7.663
 2615AUSL   AUS 2594  30.981   3.663   8.011
 2616AUL    AUL 2595  30.942   3.285   7.991
 2617THSLK    S 2596  31.043   3.161   7.744
 2618ETHY    C1 2597  30.830   2.762   7.812
 2619ETHY    C1 2598  30.659   2.259   7.925
 2620ETHY    C1 2599  30.593   1.745   8.072
 2621ETHY    C1 2600  30.622   1.230   8.252
 2622THSLK    S 2601  30.803   3.493   8.136
 2623ETHY    C1 2602  30.531   3.178   8.327
 2624ETHY    C1 2603  30.253   2.827   8.633
 2625ETHY    C1 2604  30.037   2.519   9.019
 2626ETHY    C1 2605  29.881   2.257   9.473
 2627AUSL   AUS 2606  31.397   3.406   7.663
 2628AUSL   AUS 2607  31.094   3.406   7.336
 2629AUL    AUL 2608  31.245   3.098   7.500
 2630THSLK    S 2609  31.044   3.159   7.261
 2631ETHY    C1 2610  30.831   2.761   7.192
 2632ETHY    C1 2611  30.659   2.259   7.076
 2633ETHY    C1 2612  30.593   1.745   6.927
 2634ETHY    C1 2613  30.624   1.228   6.754
 2635THSLK    S 2614  31.358   3.147   7.748
 2636ETHY    C1 2615  31.286   2.702   7.829
 2637ETHY    C1 2616  31.289   2.173   7.948
 2638ETHY    C1 2617  31.398   1.665   8.095
 2639ETHY    C1 2618  31.600   1.187   8.264
 2640AUSL   AUS 2619  31.245   4.660   7.091
 2641AUSL   AUS 2620  31.662   4.590   7.236
 2642AUL    AUL 2621  31.549   4.874   7.009
 2643THSLK    S 2622  31.287   4.894   6.971
 2644ETHY    C1 2623  31.414   5.219   6.676
 2645ETHY    C1 2624  31.488   5.649   6.353
 2646ETHY    C1 2625  31.469   6.114   6.080
 2647ETHY    C1 2626  31.366   6.602   5.857
 2648THSLK    S 2627  31.849   4.715   7.081
 2649ETHY    C1 2628  32.206   4.907   6.869
 2650ETHY    C1 2629  32.581   5.213   6.623
 2651ETHY    C1 2630  32.882   5.600   6.398
 2652ETHY    C1 2631  33.112   6.052   6.197
 2653AUSL   AUS 2632  31.094   4.753   7.336
 2654AUSL   AUS 2633  30.981   4.496   6.990
 2655AUL    AUL 2634  30.942   4.874   7.009
 2656THSLK    S 2635  31.133   5.007   7.233
 2657ETHY    C1 2636  31.205   5.430   7.074
 2658ETHY    C1 2637  31.202   5.946   6.906
 2659ETHY    C1 2638  31.093   6.456   6.770
 2660ETHY    C1 2639  30.891   6.954   6.670
 2661THSLK    S 2640  30.862   4.633   6.800
 2662ETHY    C1 2641  30.766   4.827   6.396
 2663ETHY    C1 2642  30.589   5.105   5.966
 2664ETHY    C1 2643  30.346   5.430   5.611
 2665ETHY    C1 2644  30.050   5.795   5.330
 2666AUSL   AUS 2645  31.245   3.499   7.091
 2667AUSL   AUS 2646  30.829   3.569   7.236
 2668AUL    AUL 2647  30.942   3.285   7.009
 2669THSLK    S 2648  30.644   3.416   7.122
 2670ETHY    C1 2649  30.287   3.142   7.044
 2671ETHY    C1 2650  29.910   2.788   6.878
 2672ETHY    C1 2651  29.608   2.414   6.633
 2673ETHY    C1 2652  29.381   2.027   6.321
 2674THSLK    S 2653  31.207   3.239   7.013
 2675ETHY    C1 2654  31.079   2.831   6.852
 2676ETHY    C1 2655  31.003   2.352   6.609
 2677ETHY    C1 2656  31.022   1.900   6.315
 2678ETHY    C1 2657  31.128   1.479   5.983
 2679AUSL   AUS 2658  31.397   3.406   7.336
 2680AUSL   AUS 2659  31.510   3.663   6.990
 2681AUL    AUL 2660  31.549   3.285   7.009
 2682THSLK    S 2661  31.360   3.146   7.258
 2683ETHY    C1 2662  31.287   2.701   7.175
 2684ETHY    C1 2663  31.289   2.173   7.052
 2685ETHY    C1 2664  31.397   1.665   6.905
 2686ETHY    C1 2665  31.602   1.186   6.742
 2687THSLK    S 2666  31.633   3.473   6.847
 2688ETHY    C1 2667  31.728   3.105   6.592
 2689ETHY    C1 2668  31.902   2.724   6.247
 2690ETHY    C1 2669  32.144   2.424   5.870
 2691ETHY    C1 2670  32.445   2.203   5.471
 2692AUC    AUC 2671  20.850  34.526   7.500
 2693AUC    AUC 2672  21.096  34.526   7.348
 2694AUC    AUC 2673  21.096  34.526   7.651
 2695AUC    AUC 2674  20.605  34.526   7.348
 2696AUC    AUC 2675  20.605  34.526   7.651
 2697AUC    AUC 2676  20.699  34.771   7.500
 2698AUC    AUC 2677  21.002  34.771   7.500
 2699AUC    AUC 2678  20.699  34.280   7.500
 2700AUC    AUC 2679  21.002  34.280   7.500
 2701AUC    AUC 2680  20.850  34.374   7.745
 2702AUC    AUC 2681  20.850  34.677   7.745
 2703AUC    AUC 2682  20.850  34.374   7.254
 2704AUC    AUC 2683  20.850  34.677   7.254
 2705AUC    AUC 2684  21.341  34.526   7.196
 2706AUC    AUC 2685  21.341  34.526   7.500
 2707AUC    AUC 2686  21.341  34.526   7.803
 2708AUC    AUC 2687  20.359  34.526   7.196
 2709AUC    AUC 2688  20.359  34.526   7.500
 2710AUC    AUC 2689  20.359  34.526   7.803
 2711AUC    AUC 2690  20.547  35.016   7.500
 2712AUC    AUC 2691  20.850  35.016   7.500
 2713AUC    AUC 2692  21.154  35.016   7.500
 2714AUC    AUC 2693  20.547  34.035   7.500
 2715AUC    AUC 2694  20.850  34.035   7.500
 2716AUC    AUC 2695  21.154  34.035   7.500
 2717AUC    AUC 2696  20.850  34.222   7.991
 2718AUC    AUC 2697  20.850  34.526   7.991
 2719AUC    AUC 2698  20.850  34.829   7.991
 2720AUC    AUC 2699  20.850  34.222   7.009
 2721AUC    AUC 2700  20.850  34.526   7.009
 2722AUC    AUC 2701  20.850  34.829   7.009
 2723AUC    AUC 2702  21.096  34.374   7.897
 2724AUC    AUC 2703  21.096  34.677   7.897
 2725AUC    AUC 2704  21.096  34.374   7.103
 2726AUC    AUC 2705  21.096  34.677   7.103
 2727AUC    AUC 2706  20.605  34.374   7.897
 2728AUC    AUC 2707  20.605  34.677   7.897
 2729AUC    AUC 2708  20.605  34.374   7.103
 2730AUC    AUC 2709  20.605  34.677   7.103
 2731AUC    AUC 2710  21.247  34.771   7.348
 2732AUC    AUC 2711  21.247  34.771   7.651
 2733AUC    AUC 2712  20.453  34.771   7.348
 2734AUC    AUC 2713  20.453  34.771   7.651
 2735AUC    AUC 2714  21.247  34.280   7.348
 2736AUC    AUC 2715  21.247  34.280   7.651
 2737AUC    AUC 2716  20.453  34.280   7.348
 2738AUC    AUC 2717  20.453  34.280   7.651
 2739AUC    AUC 2718  20.699  34.923   7.745
 2740AUC    AUC 2719  21.002  34.923   7.745
 2741AUC    AUC 2720  20.699  34.128   7.745
 2742AUC    AUC 2721  21.002  34.128   7.745
 2743AUC    AUC 2722  20.699  34.923   7.254
 2744AUC    AUC 2723  21.002  34.923   7.254
 2745AUC    AUC 2724  20.699  34.128   7.254
 2746AUC    AUC 2725  21.002  34.128   7.254
 2747AUSL   AUS 2726  21.259  34.526   8.080
 2748AUSL   AUS 2727  21.115  34.109   8.011
 2749AUL    AUL 2728  21.341  34.222   8.294
 2750THSLK    S 2729  21.233  33.921   8.156
 2751ETHY    C1 2730  21.329  33.553   8.412
 2752ETHY    C1 2731  21.507  33.170   8.753
 2753ETHY    C1 2732  21.749  32.870   9.130
 2754ETHY    C1 2733  22.045  32.651   9.534
 2755THSLK    S 2734  21.358  34.479   8.327
 2756ETHY    C1 2735  21.585  34.329   8.694
 2757ETHY    C1 2736  21.869  34.241   9.148
 2758ETHY    C1 2737  22.153  34.263   9.607
 2759ETHY    C1 2738  22.430  34.385  10.061
 2760AUSL   AUS 2739  21.014  34.374   8.173
 2761AUSL   AUS 2740  20.687  34.677   8.173
 2762AUL    AUL 2741  20.850  34.526   8.482
 2763THSLK    S 2742  21.095  34.323   8.418
 2764ETHY    C1 2743  21.185  34.105   8.810
 2765ETHY    C1 2744  21.313  33.931   9.308
 2766ETHY    C1 2745  21.459  33.866   9.823
 2767ETHY    C1 2746  21.616  33.900  10.346
 2768THSLK    S 2747  20.600  34.637   8.432
 2769ETHY    C1 2748  20.511  34.563   8.874
 2770ETHY    C1 2749  20.387  34.565   9.403
 2771ETHY    C1 2750  20.242  34.674   9.912
 2772ETHY    C1 2751  20.079  34.878  10.392
 2773AUSL   AUS 2752  21.014  34.677   8.173
 2774AUSL   AUS 2753  21.360  34.790   7.916
 2775AUL    AUL 2754  21.341  34.829   8.294
 2776THSLK    S 2755  21.101  34.729   8.416
 2777ETHY    C1 2756  21.189  34.946   8.809
 2778ETHY    C1 2757  21.314  35.119   9.308
 2779ETHY    C1 2758  21.459  35.185   9.823
 2780ETHY    C1 2759  21.622  35.152  10.345
 2781THSLK    S 2760  21.536  34.896   8.079
 2782ETHY    C1 2761  21.898  34.946   8.355
 2783ETHY    C1 2762  22.305  35.095   8.681
 2784ETHY    C1 2763  22.667  35.344   8.995
 2785ETHY    C1 2764  22.979  35.680   9.293
 2786AUSL   AUS 2765  21.259  34.526   6.920
 2787AUSL   AUS 2766  21.115  34.942   6.990
 2788AUL    AUL 2767  21.341  34.829   6.706
 2789THSLK    S 2768  21.363  34.479   6.676
 2790ETHY    C1 2769  21.590  34.329   6.308
 2791ETHY    C1 2770  21.869  34.241   5.851
 2792ETHY    C1 2771  22.153  34.263   5.393
 2793ETHY    C1 2772  22.435  34.385   4.941
 2794THSLK    S 2773  21.292  35.061   6.820
 2795ETHY    C1 2774  21.564  35.202   6.480
 2796ETHY    C1 2775  21.842  35.449   6.085
 2797ETHY    C1 2776  22.058  35.782   5.720
 2798ETHY    C1 2777  22.215  36.189   5.391
 2799AUSL   AUS 2778  21.014  34.374   6.826
 2800AUSL   AUS 2779  21.360  34.261   7.083
 2801AUL    AUL 2780  21.341  34.222   6.706
 2802THSLK    S 2781  21.500  34.070   6.939
 2803ETHY    C1 2782  21.733  33.753   6.707
 2804ETHY    C1 2783  22.063  33.446   6.403
 2805ETHY    C1 2784  22.443  33.237   6.083
 2806ETHY    C1 2785  22.864  33.120   5.754
 2807THSLK    S 2786  21.101  34.322   6.583
 2808ETHY    C1 2787  21.189  34.105   6.191
 2809ETHY    C1 2788  21.314  33.932   5.692
 2810ETHY    C1 2789  21.459  33.866   5.176
 2811ETHY    C1 2790  21.622  33.899   4.656
 2812AUSL   AUS 2791  21.014  34.677   6.826
 2813AUSL   AUS 2792  20.687  34.374   6.826
 2814AUL    AUL 2793  20.850  34.526   6.518
 2815THSLK    S 2794  20.591  34.322   6.586
 2816ETHY    C1 2795  20.452  34.107   6.206
 2817ETHY    C1 2796  20.295  33.936   5.717
 2818ETHY    C1 2797  20.156  33.870   5.199
 2819ETHY    C1 2798  20.040  33.901   4.666
 2820THSLK    S 2799  21.116  34.638   6.572
 2821ETHY    C1 2800  21.253  34.561   6.142
 2822ETHY    C1 2801  21.406  34.561   5.622
 2823ETHY    C1 2802  21.544  34.670   5.112
 2824ETHY    C1 2803  21.667  34.877   4.621
 2825AUSL   AUS 2804  20.441  34.526   8.080
 2826AUSL   AUS 2805  20.586  34.942   8.011
 2827AUL    AUL 2806  20.359  34.829   8.294
 2828THSLK    S 2807  20.337  34.479   8.325
 2829ETHY    C1 2808  20.111  34.329   8.691
 2830ETHY    C1 2809  19.831  34.241   9.148
 2831ETHY    C1 2810  19.548  34.263   9.607
 2832ETHY    C1 2811  19.265  34.385  10.058
 2833THSLK    S 2812  20.463  35.075   8.201
 2834ETHY    C1 2813  20.367  35.270   8.604
 2835ETHY    C1 2814  20.194  35.551   9.034
 2836ETHY    C1 2815  19.951  35.877   9.390
 2837ETHY    C1 2816  19.650  36.236   9.671
 2838AUSL   AUS 2817  20.687  34.374   8.173
 2839AUSL   AUS 2818  20.340  34.261   7.916
 2840AUL    AUL 2819  20.359  34.222   8.294
 2841THSLK    S 2820  20.161  34.095   8.032
 2842ETHY    C1 2821  19.800  33.848   8.166
 2843ETHY    C1 2822  19.395  33.582   8.410
 2844ETHY    C1 2823  19.034  33.362   8.745
 2845ETHY    C1 2824  18.718  33.189   9.156
 2846THSLK    S 2825  20.585  34.324   8.413
 2847ETHY    C1 2826  20.447  34.109   8.793
 2848ETHY    C1 2827  20.294  33.936   9.284
 2849ETHY    C1 2828  20.157  33.870   9.800
 2850ETHY    C1 2829  20.033  33.902  10.332
 2851AUSL   AUS 2830  20.441  34.526   6.920
 2852AUSL   AUS 2831  20.586  34.109   6.990
 2853AUL    AUL 2832  20.359  34.222   6.706
 2854THSLK    S 2833  20.342  34.479   6.673
 2855ETHY    C1 2834  20.115  34.329   6.305
 2856ETHY    C1 2835  19.832  34.241   5.851
 2857ETHY    C1 2836  19.548  34.263   5.393
 2858ETHY    C1 2837  19.271  34.385   4.938
 2859THSLK    S 2838  20.412  33.934   6.865
 2860ETHY    C1 2839  20.140  33.621   6.673
 2861ETHY    C1 2840  19.859  33.273   6.367
 2862ETHY    C1 2841  19.642  32.965   5.980
 2863ETHY    C1 2842  19.490  32.698   5.528
 2864AUSL   AUS 2843  20.687  34.677   6.826
 2865AUSL   AUS 2844  20.340  34.790   7.083
 2866AUL    AUL 2845  20.359  34.829   6.706
 2867THSLK    S 2846  20.204  34.921   6.893
 2868ETHY    C1 2847  19.970  35.042   6.518
 2869ETHY    C1 2848  19.638  35.230   6.132
 2870ETHY    C1 2849  19.258  35.469   5.833
 2871ETHY    C1 2850  18.841  35.749   5.618
 2872THSLK    S 2851  20.606  34.639   6.566
 2873ETHY    C1 2852  20.516  34.564   6.124
 2874ETHY    C1 2853  20.388  34.565   5.597
 2875ETHY    C1 2854  20.242  34.674   5.089
 2876ETHY    C1 2855  20.085  34.880   4.608
 2877AUSL   AUS 2856  21.430  34.935   7.500
 2878AUSL   AUS 2857  21.360  34.790   7.083
 2879AUL    AUL 2858  21.644  35.016   7.196
 2880THSLK    S 2859  21.540  34.897   6.925
 2881ETHY    C1 2860  21.901  34.947   6.648
 2882ETHY    C1 2861  22.305  35.095   6.319
 2883ETHY    C1 2862  22.667  35.344   6.005
 2884ETHY    C1 2863  22.983  35.681   5.713
 2885THSLK    S 2864  21.700  34.996   7.503
 2886ETHY    C1 2865  22.147  35.096   7.502
 2887ETHY    C1 2866  22.649  35.302   7.500
 2888ETHY    C1 2867  23.096  35.604   7.500
 2889ETHY    C1 2868  23.484  35.988   7.503
 2890AUSL   AUS 2869  21.524  34.689   7.348
 2891AUSL   AUS 2870  21.524  34.362   7.651
 2892AUL    AUL 2871  21.832  34.526   7.500
 2893THSLK    S 2872  21.786  34.736   7.345
 2894ETHY    C1 2873  22.236  34.705   7.270
 2895ETHY    C1 2874  22.768  34.760   7.179
 2896ETHY    C1 2875  23.275  34.923   7.091
 2897ETHY    C1 2876  23.750  35.181   7.011
 2898THSLK    S 2877  21.761  34.225   7.659
 2899ETHY    C1 2878  22.132  33.967   7.726
 2900ETHY    C1 2879  22.618  33.741   7.808
 2901ETHY    C1 2880  23.137  33.621   7.896
 2902ETHY    C1 2881  23.675  33.599   7.989
 2903AUSL   AUS 2882  21.524  34.689   7.651
 2904AUSL   AUS 2883  21.267  35.036   7.764
 2905AUL    AUL 2884  21.644  35.016   7.803
 2906THSLK    S 2885  21.452  35.160   7.924
 2907ETHY    C1 2886  21.809  35.352   8.136
 2908ETHY    C1 2887  22.186  35.659   8.377
 2909ETHY    C1 2888  22.487  36.046   8.602
 2910ETHY    C1 2889  22.714  36.497   8.809
 2911THSLK    S 2890  21.785  34.735   7.661
 2912ETHY    C1 2891  22.236  34.705   7.734
 2913ETHY    C1 2892  22.769  34.760   7.821
 2914ETHY    C1 2893  23.275  34.923   7.908
 2915ETHY    C1 2894  23.749  35.181   7.995
 2916AUSL   AUS 2895  20.270  34.935   7.500
 2917AUSL   AUS 2896  20.340  34.790   7.916
 2918AUL    AUL 2897  20.056  35.016   7.803
 2919THSLK    S 2898  20.200  34.916   8.107
 2920ETHY    C1 2899  19.967  35.037   8.482
 2921ETHY    C1 2900  19.638  35.230   8.868
 2922ETHY    C1 2901  19.258  35.469   9.166
 2923ETHY    C1 2902  18.837  35.744   9.381
 2924THSLK    S 2903  20.049  35.075   7.503
 2925ETHY    C1 2904  19.760  35.430   7.502
 2926ETHY    C1 2905  19.352  35.787   7.500
 2927ETHY    C1 2906  18.882  36.051   7.500
 2928ETHY    C1 2907  18.364  36.227   7.503
 2929AUSL   AUS 2908  20.177  34.689   7.348
 2930AUSL   AUS 2909  20.434  35.036   7.236
 2931AUL    AUL 2910  20.056  35.016   7.196
 2932THSLK    S 2911  19.940  34.803   7.303
 2933ETHY    C1 2912  19.568  34.977   7.101
 2934ETHY    C1 2913  19.082  35.153   6.936
 2935ETHY    C1 2914  18.564  35.285   6.868
 2936ETHY    C1 2915  18.026  35.377   6.890
 2937THSLK    S 2916  20.314  35.203   7.056
 2938ETHY    C1 2917  20.162  35.522   6.765
 2939ETHY    C1 2918  19.908  35.902   6.473
 2940ETHY    C1 2919  19.575  36.270   6.260
 2941ETHY    C1 2920  19.179  36.620   6.122
 2942AUSL   AUS 2921  20.177  34.689   7.651
 2943AUSL   AUS 2922  20.177  34.362   7.348
 2944AUL    AUL 2923  19.869  34.526   7.500
 2945THSLK    S 2924  19.915  34.287   7.384
 2946ETHY    C1 2925  19.465  34.236   7.446
 2947ETHY    C1 2926  18.932  34.133   7.434
 2948ETHY    C1 2927  18.425  33.983   7.327
 2949ETHY    C1 2928  17.952  33.790   7.135
 2950THSLK    S 2929  19.939  34.797   7.699
 2951ETHY    C1 2930  19.568  34.973   7.901
 2952ETHY    C1 2931  19.082  35.152   8.063
 2953ETHY    C1 2932  18.564  35.285   8.133
 2954ETHY    C1 2933  18.025  35.371   8.114
 2955AUSL   AUS 2934  21.430  34.116   7.500
 2956AUSL   AUS 2935  21.360  34.261   7.916
 2957AUL    AUL 2936  21.644  34.035   7.803
 2958THSLK    S 2937  21.651  33.976   7.503
 2959ETHY    C1 2938  21.940  33.621   7.502
 2960ETHY    C1 2939  22.349  33.264   7.500
 2961ETHY    C1 2940  22.819  33.000   7.500
 2962ETHY    C1 2941  23.336  32.824   7.503
 2963THSLK    S 2942  21.497  34.071   8.066
 2964ETHY    C1 2943  21.730  33.754   8.297
 2965ETHY    C1 2944  22.063  33.447   8.598
 2966ETHY    C1 2945  22.443  33.237   8.918
 2967ETHY    C1 2946  22.860  33.121   9.250
 2968AUSL   AUS 2947  21.524  34.362   7.348
 2969AUSL   AUS 2948  21.267  34.015   7.236
 2970AUL    AUL 2949  21.644  34.035   7.196
 2971THSLK    S 2950  21.762  34.225   7.346
 2972ETHY    C1 2951  22.133  33.967   7.279
 2973ETHY    C1 2952  22.618  33.741   7.192
 2974ETHY    C1 2953  23.137  33.621   7.103
 2975ETHY    C1 2954  23.676  33.599   7.018
 2976THSLK    S 2955  21.390  33.824   7.099
 2977ETHY    C1 2956  21.540  33.422   6.942
 2978ETHY    C1 2957  21.793  32.992   6.728
 2979ETHY    C1 2958  22.125  32.636   6.495
 2980ETHY    C1 2959  22.524  32.355   6.249
 2981AUSL   AUS 2960  20.270  34.116   7.500
 2982AUSL   AUS 2961  20.340  34.261   7.083
 2983AUL    AUL 2962  20.056  34.035   7.196
 2984THSLK    S 2963  20.165  34.090   6.966
 2985ETHY    C1 2964  19.803  33.844   6.833
 2986ETHY    C1 2965  19.395  33.581   6.589
 2987ETHY    C1 2966  19.034  33.362   6.255
 2988ETHY    C1 2967  18.722  33.184   5.843
 2989THSLK    S 2968  20.000  34.055   7.503
 2990ETHY    C1 2969  19.554  33.955   7.502
 2991ETHY    C1 2970  19.052  33.749   7.500
 2992ETHY    C1 2971  18.605  33.447   7.500
 2993ETHY    C1 2972  18.217  33.063   7.503
 2994AUSL   AUS 2973  20.177  34.362   7.651
 2995AUSL   AUS 2974  20.434  34.015   7.764
 2996AUL    AUL 2975  20.056  34.035   7.803
 2997THSLK    S 2976  20.246  33.867   7.881
 2998ETHY    C1 2977  19.890  33.591   7.958
 2999ETHY    C1 2978  19.515  33.234   8.122
 3000ETHY    C1 2979  19.214  32.860   8.367
 3001ETHY    C1 2980  18.983  32.478   8.682
 3002THSLK    S 2981  19.914  34.292   7.618
 3003ETHY    C1 2982  19.464  34.240   7.557
 3004ETHY    C1 2983  18.932  34.134   7.566
 3005ETHY    C1 2984  18.425  33.983   7.673
 3006ETHY    C1 2985  17.951  33.795   7.867
 3007AUSL   AUS 2986  20.850  35.106   7.909
 3008AUSL   AUS 2987  20.434  35.036   7.764
 3009AUL    AUL 2988  20.547  35.320   7.991
 3010THSLK    S 2989  20.311  35.198   7.948
 3011ETHY    C1 2990  20.160  35.518   8.237
 3012ETHY    C1 2991  19.907  35.901   8.527
 3013ETHY    C1 2992  19.575  36.269   8.740
 3014ETHY    C1 2993  19.176  36.615   8.881
 3015THSLK    S 2994  20.888  35.337   8.034
 3016ETHY    C1 2995  21.016  35.663   8.327
 3017ETHY    C1 2996  21.093  36.095   8.646
 3018ETHY    C1 2997  21.074  36.560   8.920
 3019ETHY    C1 2998  20.968  37.045   9.147
 3020AUSL   AUS 2999  20.699  35.199   7.663
 3021AUSL   AUS 3000  21.002  35.199   7.336
 3022AUL    AUL 3001  20.850  35.507   7.500
 3023THSLK    S 3002  20.736  35.451   7.772
 3024ETHY    C1 3003  20.809  35.875   7.929
 3025ETHY    C1 3004  20.806  36.391   8.095
 3026ETHY    C1 3005  20.698  36.902   8.229
 3027ETHY    C1 3006  20.494  37.398   8.336
 3028THSLK    S 3007  21.053  35.439   7.237
 3029ETHY    C1 3008  21.266  35.816   7.091
 3030ETHY    C1 3009  21.436  36.305   6.929
 3031ETHY    C1 3010  21.503  36.823   6.792
 3032ETHY    C1 3011  21.474  37.357   6.682
 3033AUSL   AUS 3012  21.002  35.199   7.663
 3034AUSL   AUS 3013  21.115  34.942   8.011
 3035AUL    AUL 3014  21.154  35.320   7.991
 3036THSLK    S 3015  21.288  35.059   8.184
 3037ETHY    C1 3016  21.561  35.200   8.522
 3038ETHY    C1 3017  21.842  35.449   8.915
 3039ETHY    C1 3018  22.058  35.782   9.279
 3040ETHY    C1 3019  22.210  36.187   9.614
 3041THSLK    S 3020  21.052  35.437   7.768
 3042ETHY    C1 3021  21.265  35.816   7.913
 3043ETHY    C1 3022  21.436  36.305   8.072
 3044ETHY    C1 3023  21.503  36.823   8.207
 3045ETHY    C1 3024  21.472  37.356   8.325
 3046AUSL   AUS 3025  20.850  33.945   7.909
 3047AUSL   AUS 3026  21.267  34.015   7.764
 3048AUL    AUL 3027  21.154  33.731   7.991
 3049THSLK    S 3028  20.809  33.688   7.992
 3050ETHY    C1 3029  20.682  33.279   8.152
 3051ETHY    C1 3030  20.608  32.798   8.391
 3052ETHY    C1 3031  20.627  32.346   8.684
 3053ETHY    C1 3032  20.729  31.928   9.021
 3054THSLK    S 3033  21.387  33.825   7.907
 3055ETHY    C1 3034  21.538  33.423   8.062
 3056ETHY    C1 3035  21.793  32.992   8.272
 3057ETHY    C1 3036  22.125  32.636   8.505
 3058ETHY    C1 3037  22.521  32.357   8.758
 3059AUSL   AUS 3038  20.699  33.852   7.663
 3060AUSL   AUS 3039  20.586  34.109   8.011
 3061AUL    AUL 3040  20.547  33.731   7.991
 3062THSLK    S 3041  20.648  33.607   7.744
 3063ETHY    C1 3042  20.435  33.208   7.812
 3064ETHY    C1 3043  20.264  32.705   7.925
 3065ETHY    C1 3044  20.198  32.191   8.072
 3066ETHY    C1 3045  20.227  31.676   8.252
 3067THSLK    S 3046  20.408  33.939   8.136
 3068ETHY    C1 3047  20.136  33.624   8.327
 3069ETHY    C1 3048  19.858  33.273   8.633
 3070ETHY    C1 3049  19.642  32.965   9.019
 3071ETHY    C1 3050  19.486  32.703   9.473
 3072AUSL   AUS 3051  21.002  33.852   7.663
 3073AUSL   AUS 3052  20.699  33.852   7.336
 3074AUL    AUL 3053  20.850  33.544   7.500
 3075THSLK    S 3054  20.649  33.605   7.261
 3076ETHY    C1 3055  20.436  33.207   7.192
 3077ETHY    C1 3056  20.264  32.705   7.076
 3078ETHY    C1 3057  20.198  32.191   6.927
 3079ETHY    C1 3058  20.229  31.674   6.754
 3080THSLK    S 3059  20.963  33.593   7.748
 3081ETHY    C1 3060  20.891  33.148   7.829
 3082ETHY    C1 3061  20.894  32.619   7.948
 3083ETHY    C1 3062  21.003  32.111   8.095
 3084ETHY    C1 3063  21.205  31.633   8.264
 3085AUSL   AUS 3064  20.850  35.106   7.091
 3086AUSL   AUS 3065  21.267  35.036   7.236
 3087AUL    AUL 3066  21.154  35.320   7.009
 3088THSLK    S 3067  20.892  35.340   6.971
 3089ETHY    C1 3068  21.019  35.665   6.676
 3090ETHY    C1 3069  21.093  36.095   6.353
 3091ETHY    C1 3070  21.074  36.560   6.080
 3092ETHY    C1 3071  20.971  37.048   5.857
 3093THSLK    S 3072  21.454  35.161   7.081
 3094ETHY    C1 3073  21.811  35.353   6.869
 3095ETHY    C1 3074  22.186  35.659   6.623
 3096ETHY    C1 3075  22.487  36.046   6.398
 3097ETHY    C1 3076  22.717  36.498   6.197
 3098AUSL   AUS 3077  20.699  35.199   7.336
 3099AUSL   AUS 3078  20.586  34.942   6.990
 3100AUL    AUL 3079  20.547  35.320   7.009
 3101THSLK    S 3080  20.738  35.453   7.233
 3102ETHY    C1 3081  20.810  35.876   7.074
 3103ETHY    C1 3082  20.807  36.392   6.906
 3104ETHY    C1 3083  20.698  36.902   6.770
 3105ETHY    C1 3084  20.496  37.400   6.670
 3106THSLK    S 3085  20.467  35.079   6.800
 3107ETHY    C1 3086  20.371  35.273   6.396
 3108ETHY    C1 3087  20.194  35.551   5.966
 3109ETHY    C1 3088  19.951  35.876   5.611
 3110ETHY    C1 3089  19.655  36.241   5.330
 3111AUSL   AUS 3090  20.850  33.945   7.091
 3112AUSL   AUS 3091  20.434  34.015   7.236
 3113AUL    AUL 3092  20.547  33.731   7.009
 3114THSLK    S 3093  20.249  33.862   7.122
 3115ETHY    C1 3094  19.892  33.588   7.044
 3116ETHY    C1 3095  19.515  33.234   6.878
 3117ETHY    C1 3096  19.213  32.860   6.633
 3118ETHY    C1 3097  18.986  32.473   6.321
 3119THSLK    S 3098  20.812  33.685   7.013
 3120ETHY    C1 3099  20.684  33.277   6.852
 3121ETHY    C1 3100  20.608  32.798   6.609
 3122ETHY    C1 3101  20.627  32.346   6.315
 3123ETHY    C1 3102  20.733  31.925   5.983
 3124AUSL   AUS 3103  21.002  33.852   7.336
 3125AUSL   AUS 3104  21.115  34.109   6.990
 3126AUL    AUL 3105  21.154  33.731   7.009
 3127THSLK    S 3106  20.965  33.592   7.258
 3128ETHY    C1 3107  20.892  33.147   7.175
 3129ETHY    C1 3108  20.894  32.619   7.052
 3130ETHY    C1 3109  21.002  32.111   6.905
 3131ETHY    C1 3110  21.207  31.632   6.742
 3132THSLK    S 3111  21.238  33.919   6.847
 3133ETHY    C1 3112  21.333  33.551   6.592
 3134ETHY    C1 3113  21.507  33.170   6.247
 3135ETHY    C1 3114  21.749  32.870   5.870
 3136ETHY    C1 3115  22.050  32.649   5.471
 3137AUC    AUC 3116  33.316  27.855   7.500
 3138AUC    AUC 3117  33.562  27.855   7.348
 3139AUC    AUC 3118  33.562  27.855   7.651
 3140AUC    AUC 3119  33.071  27.855   7.348
 3141AUC    AUC 3120  33.071  27.855   7.651
 3142AUC    AUC 3121  33.165  28.100   7.500
 3143AUC    AUC 3122  33.468  28.100   7.500
 3144AUC    AUC 3123  33.165  27.609   7.500
 3145AUC    AUC 3124  33.468  27.609   7.500
 3146AUC    AUC 3125  33.316  27.703   7.745
 3147AUC    AUC 3126  33.316  28.006   7.745
 3148AUC    AUC 3127  33.316  27.703   7.254
 3149AUC    AUC 3128  33.316  28.006   7.254
 3150AUC    AUC 3129  33.807  27.855   7.196
 3151AUC    AUC 3130  33.807  27.855   7.500
 3152AUC    AUC 3131  33.807  27.855   7.803
 3153AUC    AUC 3132  32.825  27.855   7.196
 3154AUC    AUC 3133  32.825  27.855   7.500
 3155AUC    AUC 3134  32.825  27.855   7.803
 3156AUC    AUC 3135  33.013  28.345   7.500
 3157AUC    AUC 3136  33.316  28.345   7.500
 3158AUC    AUC 3137  33.620  28.345   7.500
 3159AUC    AUC 3138  33.013  27.364   7.500
 3160AUC    AUC 3139  33.316  27.364   7.500
 3161AUC    AUC 3140  33.620  27.364   7.500
 3162AUC    AUC 3141  33.316  27.551   7.991
 3163AUC    AUC 3142  33.316  27.855   7.991
 3164AUC    AUC 3143  33.316  28.158   7.991
 3165AUC    AUC 3144  33.316  27.551   7.009
 3166AUC    AUC 3145  33.316  27.855   7.009
 3167AUC    AUC 3146  33.316  28.158   7.009
 3168AUC    AUC 3147  33.562  27.703   7.897
 3169AUC    AUC 3148  33.562  28.006   7.897
 3170AUC    AUC 3149  33.562  27.703   7.103
 3171AUC    AUC 3150  33.562  28.006   7.103
 3172AUC    AUC 3151  33.071  27.703   7.897
 3173AUC    AUC 3152  33.071  28.006   7.897
 3174AUC    AUC 3153  33.071  27.703   7.103
 3175AUC    AUC 3154  33.071  28.006   7.103
 3176AUC    AUC 3155  33.713  28.100   7.348
 3177AUC    AUC 3156  33.713  28.100   7.651
 3178AUC    AUC 3157  32.919  28.100   7.348
 3179AUC    AUC 3158  32.919  28.100   7.651
 3180AUC    AUC 3159  33.713  27.609   7.348
 3181AUC    AUC 3160  33.713  27.609   7.651
 3182AUC    AUC 3161  32.919  27.609   7.348
 3183AUC    AUC 3162  32.919  27.609   7.651
 3184AUC    AUC 3163  33.165  28.252   7.745
 3185AUC    AUC 3164  33.468  28.252   7.745
 3186AUC    AUC 3165  33.165  27.457   7.745
 3187AUC    AUC 3166  33.468  27.457   7.745
 3188AUC    AUC 3167  33.165  28.252   7.254
 3189AUC    AUC 3168  33.468  28.252   7.254
 3190AUC    AUC 3169  33.165  27.457   7.254
 3191AUC    AUC 3170  33.468  27.457   7.254
 3192AUSL   AUS 3171  33.725  27.855   8.080
 3193AUSL   AUS 3172  33.581  27.438   8.011
 3194AUL    AUL 3173  33.807  27.551   8.294
 3195THSLK    S 3174  33.699  27.250   8.156
 3196ETHY    C1 3175  33.795  26.882   8.412
 3197ETHY    C1 3176  33.973  26.499   8.753
 3198ETHY    C1 3177  34.215  26.199   9.130
 3199ETHY    C1 3178  34.511  25.980   9.534
 3200THSLK    S 3179  33.824  27.808   8.327
 3201ETHY    C1 3180  34.051  27.658   8.694
 3202ETHY    C1 3181  34.335  27.570   9.148
 3203ETHY    C1 3182  34.619  27.592   9.607
 3204ETHY    C1 3183  34.896  27.714  10.061
 3205AUSL   AUS 3184  33.480  27.703   8.173
 3206AUSL   AUS 3185  33.153  28.006   8.173
 3207AUL    AUL 3186  33.316  27.855   8.482
 3208THSLK    S 3187  33.561  27.652   8.418
 3209ETHY    C1 3188  33.651  27.434   8.810
 3210ETHY    C1 3189  33.779  27.260   9.308
 3211ETHY    C1 3190  33.925  27.195   9.823
 3212ETHY    C1 3191  34.082  27.229  10.346
 3213THSLK    S 3192  33.066  27.966   8.432
 3214ETHY    C1 3193  32.977  27.892   8.874
 3215ETHY    C1 3194  32.853  27.894   9.403
 3216ETHY    C1 3195  32.708  28.003   9.912
 3217ETHY    C1 3196  32.545  28.207  10.392
 3218AUSL   AUS 3197  33.480  28.006   8.173
 3219AUSL   AUS 3198  33.826  28.119   7.916
 3220AUL    AUL 3199  33.807  28.158   8.294
 3221THSLK    S 3200  33.567  28.058   8.416
 3222ETHY    C1 3201  33.655  28.275   8.809
 3223ETHY    C1 3202  33.780  28.448   9.308
 3224ETHY    C1 3203  33.925  28.514   9.823
 3225ETHY    C1 3204  34.088  28.481  10.345
 3226THSLK    S 3205  34.002  28.225   8.079
 3227ETHY    C1 3206  34.364  28.275   8.355
 3228ETHY    C1 3207  34.771  28.424   8.681
 3229ETHY    C1 3208  35.133  28.673   8.995
 3230ETHY    C1 3209  35.445  29.009   9.293
 3231AUSL   AUS 3210  33.725  27.855   6.920
 3232AUSL   AUS 3211  33.581  28.271   6.990
 3233AUL    AUL 3212  33.807  28.158   6.706
 3234THSLK    S 3213  33.829  27.808   6.676
 3235ETHY    C1 3214  34.056  27.658   6.308
 3236ETHY    C1 3215  34.335  27.570   5.851
 3237ETHY    C1 3216  34.619  27.592   5.393
 3238ETHY    C1 3217  34.901  27.714   4.941
 3239THSLK    S 3218  33.758  28.390   6.820
 3240ETHY    C1 3219  34.030  28.531   6.480
 3241ETHY    C1 3220  34.308  28.778   6.085
 3242ETHY    C1 3221  34.524  29.111   5.720
 3243ETHY    C1 3222  34.681  29.518   5.391
 3244AUSL   AUS 3223  33.480  27.703   6.826
 3245AUSL   AUS 3224  33.826  27.590   7.083
 3246AUL    AUL 3225  33.807  27.551   6.706
 3247THSLK    S 3226  33.966  27.399   6.939
 3248ETHY    C1 3227  34.199  27.082   6.707
 3249ETHY    C1 3228  34.529  26.775   6.403
 3250ETHY    C1 3229  34.909  26.566   6.083
 3251ETHY    C1 3230  35.330  26.449   5.754
 3252THSLK    S 3231  33.567  27.651   6.583
 3253ETHY    C1 3232  33.655  27.434   6.191
 3254ETHY    C1 3233  33.780  27.261   5.692
 3255ETHY    C1 3234  33.925  27.195   5.176
 3256ETHY    C1 3235  34.088  27.228   4.656
 3257AUSL   AUS 3236  33.480  28.006   6.826
 3258AUSL   AUS 3237  33.153  27.703   6.826
 3259AUL    AUL 3238  33.316  27.855   6.518
 3260THSLK    S 3239  33.057  27.651   6.586
 3261ETHY    C1 3240  32.918  27.436   6.206
 3262ETHY    C1 3241  32.761  27.265   5.717
 3263ETHY    C1 3242  32.622  27.199   5.199
 3264ETHY    C1 3243  32.506  27.230   4.666
 3265THSLK    S 3244  33.582  27.967   6.572
 3266ETHY    C1 3245  33.719  27.890   6.142
 3267ETHY    C1 3246  33.872  27.890   5.622
 3268ETHY    C1 3247  34.010  27.999   5.112
 3269ETHY    C1 3248  34.133  28.206   4.621
 3270AUSL   AUS 3249  32.907  27.855   8.080
 3271AUSL   AUS 3250  33.052  28.271   8.011
 3272AUL    AUL 3251  32.825  28.158   8.294
 3273THSLK    S 3252  32.803  27.808   8.325
 3274ETHY    C1 3253  32.577  27.658   8.691
 3275ETHY    C1 3254  32.297  27.570   9.148
 3276ETHY    C1 3255  32.014  27.592   9.607
 3277ETHY    C1 3256  31.731  27.714  10.058
 3278THSLK    S 3257  32.929  28.404   8.201
 3279ETHY    C1 3258  32.833  28.599   8.604
 3280ETHY    C1 3259  32.660  28.880   9.034
 3281ETHY    C1 3260  32.417  29.206   9.390
 3282ETHY    C1 3261  32.116  29.565   9.671
 3283AUSL   AUS 3262  33.153  27.703   8.173
 3284AUSL   AUS 3263  32.806  27.590   7.916
 3285AUL    AUL 3264  32.825  27.551   8.294
 3286THSLK    S 3265  32.627  27.424   8.032
 3287ETHY    C1 3266  32.266  27.177   8.166
 3288ETHY    C1 3267  31.861  26.911   8.410
 3289ETHY    C1 3268  31.500  26.691   8.745
 3290ETHY    C1 3269  31.184  26.518   9.156
 3291THSLK    S 3270  33.051  27.653   8.413
 3292ETHY    C1 3271  32.913  27.438   8.793
 3293ETHY    C1 3272  32.760  27.265   9.284
 3294ETHY    C1 3273  32.623  27.199   9.800
 3295ETHY    C1 3274  32.499  27.231  10.332
 3296AUSL   AUS 3275  32.907  27.855   6.920
 3297AUSL   AUS 3276  33.052  27.438   6.990
 3298AUL    AUL 3277  32.825  27.551   6.706
 3299THSLK    S 3278  32.808  27.808   6.673
 3300ETHY    C1 3279  32.581  27.658   6.305
 3301ETHY    C1 3280  32.298  27.570   5.851
 3302ETHY    C1 3281  32.014  27.592   5.393
 3303ETHY    C1 3282  31.737  27.714   4.938
 3304THSLK    S 3283  32.878  27.263   6.865
 3305ETHY    C1 3284  32.606  26.950   6.673
 3306ETHY    C1 3285  32.325  26.602   6.367
 3307ETHY    C1 3286  32.108  26.294   5.980
 3308ETHY    C1 3287  31.956  26.027   5.528
 3309AUSL   AUS 3288  33.153  28.006   6.826
 3310AUSL   AUS 3289  32.806  28.119   7.083
 3311AUL    AUL 3290  32.825  28.158   6.706
 3312THSLK    S 3291  32.670  28.250   6.893
 3313ETHY    C1 3292  32.436  28.371   6.518
 3314ETHY    C1 3293  32.104  28.559   6.132
 3315ETHY    C1 3294  31.724  28.798   5.833
 3316ETHY    C1 3295  31.307  29.078   5.618
 3317THSLK    S 3296  33.072  27.968   6.566
 3318ETHY    C1 3297  32.982  27.893   6.124
 3319ETHY    C1 3298  32.854  27.894   5.597
 3320ETHY    C1 3299  32.708  28.003   5.089
 3321ETHY    C1 3300  32.551  28.209   4.608
 3322AUSL   AUS 3301  33.896  28.264   7.500
 3323AUSL   AUS 3302  33.826  28.119   7.083
 3324AUL    AUL 3303  34.110  28.345   7.196
 3325THSLK    S 3304  34.006  28.226   6.925
 3326ETHY    C1 3305  34.367  28.276   6.648
 3327ETHY    C1 3306  34.771  28.424   6.319
 3328ETHY    C1 3307  35.133  28.673   6.005
 3329ETHY    C1 3308  35.449  29.010   5.713
 3330THSLK    S 3309  34.166  28.325   7.503
 3331ETHY    C1 3310  34.613  28.425   7.502
 3332ETHY    C1 3311  35.115  28.631   7.500
 3333ETHY    C1 3312  35.562  28.933   7.500
 3334ETHY    C1 3313  35.950  29.317   7.503
 3335AUSL   AUS 3314  33.990  28.018   7.348
 3336AUSL   AUS 3315  33.990  27.691   7.651
 3337AUL    AUL 3316  34.298  27.855   7.500
 3338THSLK    S 3317  34.252  28.065   7.345
 3339ETHY    C1 3318  34.702  28.034   7.270
 3340ETHY    C1 3319  35.234  28.089   7.179
 3341ETHY    C1 3320  35.741  28.252   7.091
 3342ETHY    C1 3321  36.216  28.510   7.011
 3343THSLK    S 3322  34.227  27.554   7.659
 3344ETHY    C1 3323  34.598  27.296   7.726
 3345ETHY    C1 3324  35.084  27.070   7.808
 3346ETHY    C1 3325  35.603  26.950   7.896
 3347ETHY    C1 3326  36.141  26.928   7.989
 3348AUSL   AUS 3327  33.990  28.018   7.651
 3349AUSL   AUS 3328  33.733  28.365   7.764
 3350AUL    AUL 3329  34.110  28.345   7.803
 3351THSLK    S 3330  33.918  28.489   7.924
 3352ETHY    C1 3331  34.275  28.681   8.136
 3353ETHY    C1 3332  34.652  28.988   8.377
 3354ETHY    C1 3333  34.953  29.375   8.602
 3355ETHY    C1 3334  35.180  29.826   8.809
 3356THSLK    S 3335  34.251  28.064   7.661
 3357ETHY    C1 3336  34.702  28.034   7.734
 3358ETHY    C1 3337  35.235  28.089   7.821
 3359ETHY    C1 3338  35.741  28.252   7.908
 3360ETHY    C1 3339  36.215  28.510   7.995
 3361AUSL   AUS 3340  32.736  28.264   7.500
 3362AUSL   AUS 3341  32.806  28.119   7.916
 3363AUL    AUL 3342  32.522  28.345   7.803
 3364THSLK    S 3343  32.666  28.245   8.107
 3365ETHY    C1 3344  32.433  28.366   8.482
 3366ETHY    C1 3345  32.104  28.559   8.868
 3367ETHY    C1 3346  31.724  28.798   9.166
 3368ETHY    C1 3347  31.303  29.073   9.381
 3369THSLK    S 3348  32.515  28.404   7.503
 3370ETHY    C1 3349  32.226  28.759   7.502
 3371ETHY    C1 3350  31.818  29.116   7.500
 3372ETHY    C1 3351  31.348  29.380   7.500
 3373ETHY    C1 3352  30.830  29.556   7.503
 3374AUSL   AUS 3353  32.643  28.018   7.348
 3375AUSL   AUS 3354  32.900  28.365   7.236
 3376AUL    AUL 3355  32.522  28.345   7.196
 3377THSLK    S 3356  32.406  28.132   7.303
 3378ETHY    C1 3357  32.034  28.306   7.101
 3379ETHY    C1 3358  31.548  28.482   6.936
 3380ETHY    C1 3359  31.030  28.614   6.868
 3381ETHY    C1 3360  30.492  28.706   6.890
 3382THSLK    S 3361  32.780  28.532   7.056
 3383ETHY    C1 3362  32.628  28.851   6.765
 3384ETHY    C1 3363  32.374  29.231   6.473
 3385ETHY    C1 3364  32.041  29.599   6.260
 3386ETHY    C1 3365  31.645  29.949   6.122
 3387AUSL   AUS 3366  32.643  28.018   7.651
 3388AUSL   AUS 3367  32.643  27.691   7.348
 3389AUL    AUL 3368  32.335  27.855   7.500
 3390THSLK    S 3369  32.381  27.616   7.384
 3391ETHY    C1 3370  31.931  27.565   7.446
 3392ETHY    C1 3371  31.398  27.462   7.434
 3393ETHY    C1 3372  30.891  27.312   7.327
 3394ETHY    C1 3373  30.418  27.119   7.135
 3395THSLK    S 3374  32.405  28.126   7.699
 3396ETHY    C1 3375  32.034  28.302   7.901
 3397ETHY    C1 3376  31.548  28.481   8.063
 3398ETHY    C1 3377  31.030  28.614   8.133
 3399ETHY    C1 3378  30.491  28.700   8.114
 3400AUSL   AUS 3379  33.896  27.445   7.500
 3401AUSL   AUS 3380  33.826  27.590   7.916
 3402AUL    AUL 3381  34.110  27.364   7.803
 3403THSLK    S 3382  34.117  27.305   7.503
 3404ETHY    C1 3383  34.406  26.950   7.502
 3405ETHY    C1 3384  34.815  26.593   7.500
 3406ETHY    C1 3385  35.285  26.329   7.500
 3407ETHY    C1 3386  35.802  26.153   7.503
 3408THSLK    S 3387  33.963  27.400   8.066
 3409ETHY    C1 3388  34.196  27.083   8.297
 3410ETHY    C1 3389  34.529  26.776   8.598
 3411ETHY    C1 3390  34.909  26.566   8.918
 3412ETHY    C1 3391  35.326  26.450   9.250
 3413AUSL   AUS 3392  33.990  27.691   7.348
 3414AUSL   AUS 3393  33.733  27.344   7.236
 3415AUL    AUL 3394  34.110  27.364   7.196
 3416THSLK    S 3395  34.228  27.554   7.346
 3417ETHY    C1 3396  34.599  27.296   7.279
 3418ETHY    C1 3397  35.084  27.070   7.192
 3419ETHY    C1 3398  35.603  26.950   7.103
 3420ETHY    C1 3399  36.142  26.928   7.018
 3421THSLK    S 3400  33.856  27.153   7.099
 3422ETHY    C1 3401  34.006  26.751   6.942
 3423ETHY    C1 3402  34.259  26.321   6.728
 3424ETHY    C1 3403  34.591  25.965   6.495
 3425ETHY    C1 3404  34.990  25.684   6.249
 3426AUSL   AUS 3405  32.736  27.445   7.500
 3427AUSL   AUS 3406  32.806  27.590   7.083
 3428AUL    AUL 3407  32.522  27.364   7.196
 3429THSLK    S 3408  32.631  27.419   6.966
 3430ETHY    C1 3409  32.269  27.173   6.833
 3431ETHY    C1 3410  31.861  26.910   6.589
 3432ETHY    C1 3411  31.500  26.691   6.255
 3433ETHY    C1 3412  31.188  26.513   5.843
 3434THSLK    S 3413  32.466  27.384   7.503
 3435ETHY    C1 3414  32.020  27.284   7.502
 3436ETHY    C1 3415  31.518  27.078   7.500
 3437ETHY    C1 3416  31.071  26.776   7.500
 3438ETHY    C1 3417  30.683  26.392   7.503
 3439AUSL   AUS 3418  32.643  27.691   7.651
 3440AUSL   AUS 3419  32.900  27.344   7.764
 3441AUL    AUL 3420  32.522  27.364   7.803
 3442THSLK    S 3421  32.712  27.196   7.881
 3443ETHY    C1 3422  32.356  26.920   7.958
 3444ETHY    C1 3423  31.981  26.563   8.122
 3445ETHY    C1 3424  31.680  26.189   8.367
 3446ETHY    C1 3425  31.449  25.807   8.682
 3447THSLK    S 3426  32.380  27.621   7.618
 3448ETHY    C1 3427  31.930  27.569   7.557
 3449ETHY    C1 3428  31.398  27.463   7.566
 3450ETHY    C1 3429  30.891  27.312   7.673
 3451ETHY    C1 3430  30.417  27.124   7.867
 3452AUSL   AUS 3431  33.316  28.435   7.909
 3453AUSL   AUS 3432  32.900  28.365   7.764
 3454AUL    AUL 3433  33.013  28.649   7.991
 3455THSLK    S 3434  32.777  28.527   7.948
 3456ETHY    C1 3435  32.626  28.847   8.237
 3457ETHY    C1 3436  32.373  29.230   8.527
 3458ETHY    C1 3437  32.041  29.598   8.740
 3459ETHY    C1 3438  31.642  29.944   8.881
 3460THSLK    S 3439  33.354  28.666   8.034
 3461ETHY    C1 3440  33.482  28.992   8.327
 3462ETHY    C1 3441  33.559  29.424   8.646
 3463ETHY    C1 3442  33.540  29.889   8.920
 3464ETHY    C1 3443  33.434  30.374   9.147
 3465AUSL   AUS 3444  33.165  28.528   7.663
 3466AUSL   AUS 3445  33.468  28.528   7.336
 3467AUL    AUL 3446  33.316  28.836   7.500
 3468THSLK    S 3447  33.202  28.780   7.772
 3469ETHY    C1 3448  33.275  29.204   7.929
 3470ETHY    C1 3449  33.272  29.720   8.095
 3471ETHY    C1 3450  33.164  30.231   8.229
 3472ETHY    C1 3451  32.960  30.727   8.336
 3473THSLK    S 3452  33.519  28.768   7.237
 3474ETHY    C1 3453  33.732  29.145   7.091
 3475ETHY    C1 3454  33.902  29.634   6.929
 3476ETHY    C1 3455  33.969  30.152   6.792
 3477ETHY    C1 3456  33.940  30.686   6.682
 3478AUSL   AUS 3457  33.468  28.528   7.663
 3479AUSL   AUS 3458  33.581  28.271   8.011
 3480AUL    AUL 3459  33.620  28.649   7.991
 3481THSLK    S 3460  33.754  28.388   8.184
 3482ETHY    C1 3461  34.027  28.529   8.522
 3483ETHY    C1 3462  34.308  28.778   8.915
 3484ETHY    C1 3463  34.524  29.111   9.279
 3485ETHY    C1 3464  34.676  29.516   9.614
 3486THSLK    S 3465  33.518  28.766   7.768
 3487ETHY    C1 3466  33.731  29.145   7.913
 3488ETHY    C1 3467  33.902  29.634   8.072
 3489ETHY    C1 3468  33.969  30.152   8.207
 3490ETHY    C1 3469  33.938  30.685   8.325
 3491AUSL   AUS 3470  33.316  27.274   7.909
 3492AUSL   AUS 3471  33.733  27.344   7.764
 3493AUL    AUL 3472  33.620  27.060   7.991
 3494THSLK    S 3473  33.275  27.017   7.992
 3495ETHY    C1 3474  33.148  26.608   8.152
 3496ETHY    C1 3475  33.074  26.127   8.391
 3497ETHY    C1 3476  33.093  25.675   8.684
 3498ETHY    C1 3477  33.195  25.257   9.021
 3499THSLK    S 3478  33.853  27.154   7.907
 3500ETHY    C1 3479  34.004  26.752   8.062
 3501ETHY    C1 3480  34.259  26.321   8.272
 3502ETHY    C1 3481  34.591  25.965   8.505
 3503ETHY    C1 3482  34.987  25.686   8.758
 3504AUSL   AUS 3483  33.165  27.181   7.663
 3505AUSL   AUS 3484  33.052  27.438   8.011
 3506AUL    AUL 3485  33.013  27.060   7.991
 3507THSLK    S 3486  33.114  26.936   7.744
 3508ETHY    C1 3487  32.901  26.537   7.812
 3509ETHY    C1 3488  32.730  26.034   7.925
 3510ETHY    C1 3489  32.664  25.520   8.072
 3511ETHY    C1 3490  32.693  25.005   8.252
 3512THSLK    S 3491  32.874  27.268   8.136
 3513ETHY    C1 3492  32.602  26.953   8.327
 3514ETHY    C1 3493  32.324  26.602   8.633
 3515ETHY    C1 3494  32.108  26.294   9.019
 3516ETHY    C1 3495  31.952  26.032   9.473
 3517AUSL   AUS 3496  33.468  27.181   7.663
 3518AUSL   AUS 3497  33.165  27.181   7.336
 3519AUL    AUL 3498  33.316  26.873   7.500
 3520THSLK    S 3499  33.115  26.934   7.261
 3521ETHY    C1 3500  32.902  26.536   7.192
 3522ETHY    C1 3501  32.730  26.034   7.076
 3523ETHY    C1 3502  32.664  25.520   6.927
 3524ETHY    C1 3503  32.695  25.003   6.754
 3525THSLK    S 3504  33.429  26.922   7.748
 3526ETHY    C1 3505  33.357  26.477   7.829
 3527ETHY    C1 3506  33.360  25.948   7.948
 3528ETHY    C1 3507  33.469  25.440   8.095
 3529ETHY    C1 3508  33.671  24.962   8.264
 3530AUSL   AUS 3509  33.316  28.435   7.091
 3531AUSL   AUS 3510  33.733  28.365   7.236
 3532AUL    AUL 3511  33.620  28.649   7.009
 3533THSLK    S 3512  33.358  28.669   6.971
 3534ETHY    C1 3513  33.485  28.994   6.676
 3535ETHY    C1 3514  33.559  29.424   6.353
 3536ETHY    C1 3515  33.540  29.889   6.080
 3537ETHY    C1 3516  33.437  30.377   5.857
 3538THSLK    S 3517  33.920  28.490   7.081
 3539ETHY    C1 3518  34.277  28.682   6.869
 3540ETHY    C1 3519  34.652  28.988   6.623
 3541ETHY    C1 3520  34.953  29.375   6.398
 3542ETHY    C1 3521  35.183  29.827   6.197
 3543AUSL   AUS 3522  33.165  28.528   7.336
 3544AUSL   AUS 3523  33.052  28.271   6.990
 3545AUL    AUL 3524  33.013  28.649   7.009
 3546THSLK    S 3525  33.204  28.782   7.233
 3547ETHY    C1 3526  33.276  29.205   7.074
 3548ETHY    C1 3527  33.273  29.721   6.906
 3549ETHY    C1 3528  33.164  30.231   6.770
 3550ETHY    C1 3529  32.962  30.729   6.670
 3551THSLK    S 3530  32.933  28.408   6.800
 3552ETHY    C1 3531  32.837  28.602   6.396
 3553ETHY    C1 3532  32.660  28.880   5.966
 3554ETHY    C1 3533  32.417  29.205   5.611
 3555ETHY    C1 3534  32.121  29.570   5.330
 3556AUSL   AUS 3535  33.316  27.274   7.091
 3557AUSL   AUS 3536  32.900  27.344   7.236
 3558AUL    AUL 3537  33.013  27.060   7.009
 3559THSLK    S 3538  32.715  27.191   7.122
 3560ETHY    C1 3539  32.358  26.917   7.044
 3561ETHY    C1 3540  31.981  26.563   6.878
 3562ETHY    C1 3541  31.679  26.189   6.633
 3563ETHY    C1 3542  31.452  25.802   6.321
 3564THSLK    S 3543  33.278  27.014   7.013
 3565ETHY    C1 3544  33.150  26.606   6.852
 3566ETHY    C1 3545  33.074  26.127   6.609
 3567ETHY    C1 3546  33.093  25.675   6.315
 3568ETHY    C1 3547  33.199  25.254   5.983
 3569AUSL   AUS 3548  33.468  27.181   7.336
 3570AUSL   AUS 3549  33.581  27.438   6.990
 3571AUL    AUL 3550  33.620  27.060   7.009
 3572THSLK    S 3551  33.431  26.921   7.258
 3573ETHY    C1 3552  33.358  26.476   7.175
 3574ETHY    C1 3553  33.360  25.948   7.052
 3575ETHY    C1 3554  33.468  25.440   6.905
 3576ETHY    C1 3555  33.673  24.961   6.742
 3577THSLK    S 3556  33.704  27.248   6.847
 3578ETHY    C1 3557  33.799  26.880   6.592
 3579ETHY    C1 3558  33.973  26.499   6.247
 3580ETHY    C1 3559  34.215  26.199   5.870
 3581ETHY    C1 3560  34.516  25.978   5.471
 3582AUC    AUC 3561  28.186  15.374   7.500
 3583AUC    AUC 3562  28.432  15.374   7.348
 3584AUC    AUC 3563  28.432  15.374   7.651
 3585AUC    AUC 3564  27.941  15.374   7.348
 3586AUC    AUC 3565  27.941  15.374   7.651
 3587AUC    AUC 3566  28.035  15.619   7.500
 3588AUC    AUC 3567  28.338  15.619   7.500
 3589AUC    AUC 3568  28.035  15.128   7.500
 3590AUC    AUC 3569  28.338  15.128   7.500
 3591AUC    AUC 3570  28.186  15.222   7.745
 3592AUC    AUC 3571  28.186  15.525   7.745
 3593AUC    AUC 3572  28.186  15.222   7.254
 3594AUC    AUC 3573  28.186  15.525   7.254
 3595AUC    AUC 3574  28.677  15.374   7.196
 3596AUC    AUC 3575  28.677  15.374   7.500
 3597AUC    AUC 3576  28.677  15.374   7.803
 3598AUC    AUC 3577  27.695  15.374   7.196
 3599AUC    AUC 3578  27.695  15.374   7.500
 3600AUC    AUC 3579  27.695  15.374   7.803
 3601AUC    AUC 3580  27.883  15.864   7.500
 3602AUC    AUC 3581  28.186  15.864   7.500
 3603AUC    AUC 3582  28.490  15.864   7.500
 3604AUC    AUC 3583  27.883  14.883   7.500
 3605AUC    AUC 3584  28.186  14.883   7.500
 3606AUC    AUC 3585  28.490  14.883   7.500
 3607AUC    AUC 3586  28.186  15.070   7.991
 3608AUC    AUC 3587  28.186  15.374   7.991
 3609AUC    AUC 3588  28.186  15.677   7.991
 3610AUC    AUC 3589  28.186  15.070   7.009
 3611AUC    AUC 3590  28.186  15.374   7.009
 3612AUC    AUC 3591  28.186  15.677   7.009
 3613AUC    AUC 3592  28.432  15.222   7.897
 3614AUC    AUC 3593  28.432  15.525   7.897
 3615AUC    AUC 3594  28.432  15.222   7.103
 3616AUC    AUC 3595  28.432  15.525   7.103
 3617AUC    AUC 3596  27.941  15.222   7.897
 3618AUC    AUC 3597  27.941  15.525   7.897
 3619AUC    AUC 3598  27.941  15.222   7.103
 3620AUC    AUC 3599  27.941  15.525   7.103
 3621AUC    AUC 3600  28.583  15.619   7.348
 3622AUC    AUC 3601  28.583  15.619   7.651
 3623AUC    AUC 3602  27.789  15.619   7.348
 3624AUC    AUC 3603  27.789  15.619   7.651
 3625AUC    AUC 3604  28.583  15.128   7.348
 3626AUC    AUC 3605  28.583  15.128   7.651
 3627AUC    AUC 3606  27.789  15.128   7.348
 3628AUC    AUC 3607  27.789  15.128   7.651
 3629AUC    AUC 3608  28.035  15.771   7.745
 3630AUC    AUC 3609  28.338  15.771   7.745
 3631AUC    AUC 3610  28.035  14.976   7.745
 3632AUC    AUC 3611  28.338  14.976   7.745
 3633AUC    AUC 3612  28.035  15.771   7.254
 3634AUC    AUC 3613  28.338  15.771   7.254
 3635AUC    AUC 3614  28.035  14.976   7.254
 3636AUC    AUC 3615  28.338  14.976   7.254
 3637AUSL   AUS 3616  28.595  15.374   8.080
 3638AUSL   AUS 3617  28.451  14.957   8.011
 3639AUL    AUL 3618  28.677  15.070   8.294
 3640THSLK    S 3619  28.569  14.769   8.156
 3641ETHY    C1 3620  28.665  14.401   8.412
 3642ETHY    C1 3621  28.843  14.018   8.753
 3643ETHY    C1 3622  29.085  13.718   9.130
 3644ETHY    C1 3623  29.381  13.499   9.534
 3645THSLK    S 3624  28.694  15.327   8.327
 3646ETHY    C1 3625  28.921  15.177   8.694
 3647ETHY    C1 3626  29.205  15.089   9.148
 3648ETHY    C1 3627  29.489  15.111   9.607
 3649ETHY    C1 3628  29.766  15.233  10.061
 3650AUSL   AUS 3629  28.350  15.222   8.173
 3651AUSL   AUS 3630  28.023  15.525   8.173
 3652AUL    AUL 3631  28.186  15.374   8.482
 3653THSLK    S 3632  28.431  15.171   8.418
 3654ETHY    C1 3633  28.521  14.953   8.810
 3655ETHY    C1 3634  28.649  14.779   9.308
 3656ETHY    C1 3635  28.795  14.714   9.823
 3657ETHY    C1 3636  28.952  14.748  10.346
 3658THSLK    S 3637  27.936  15.485   8.432
 3659ETHY    C1 3638  27.847  15.411   8.874
 3660ETHY    C1 3639  27.723  15.413   9.403
 3661ETHY    C1 3640  27.578  15.522   9.912
 3662ETHY    C1 3641  27.415  15.726  10.392
 3663AUSL   AUS 3642  28.350  15.525   8.173
 3664AUSL   AUS 3643  28.696  15.638   7.916
 3665AUL    AUL 3644  28.677  15.677   8.294
 3666THSLK    S 3645  28.437  15.577   8.416
 3667ETHY    C1 3646  28.525  15.794   8.809
 3668ETHY    C1 3647  28.650  15.967   9.308
 3669ETHY    C1 3648  28.795  16.033   9.823
 3670ETHY    C1 3649  28.958  16.000  10.345
 3671THSLK    S 3650  28.872  15.744   8.079
 3672ETHY    C1 3651  29.234  15.794   8.355
 3673ETHY    C1 3652  29.641  15.943   8.681
 3674ETHY    C1 3653  30.003  16.192   8.995
 3675ETHY    C1 3654  30.315  16.528   9.293
 3676AUSL   AUS 3655  28.595  15.374   6.920
 3677AUSL   AUS 3656  28.451  15.790   6.990
 3678AUL    AUL 3657  28.677  15.677   6.706
 3679THSLK    S 3658  28.699  15.327   6.676
 3680ETHY    C1 3659  28.926  15.177   6.308
 3681ETHY    C1 3660  29.205  15.089   5.851
 3682ETHY    C1 3661  29.489  15.111   5.393
 3683ETHY    C1 3662  29.771  15.233   4.941
 3684THSLK    S 3663  28.628  15.909   6.820
 3685ETHY    C1 3664  28.900  16.050   6.480
 3686ETHY    C1 3665  29.178  16.297   6.085
 3687ETHY    C1 3666  29.394  16.630   5.720
 3688ETHY    C1 3667  29.551  17.037   5.391
 3689AUSL   AUS 3668  28.350  15.222   6.826
 3690AUSL   AUS 3669  28.696  15.109   7.083
 3691AUL    AUL 3670  28.677  15.070   6.706
 3692THSLK    S 3671  28.836  14.918   6.939
 3693ETHY    C1 3672  29.069  14.601   6.707
 3694ETHY    C1 3673  29.399  14.294   6.403
 3695ETHY    C1 3674  29.779  14.085   6.083
 3696ETHY    C1 3675  30.200  13.968   5.754
 3697THSLK    S 3676  28.437  15.170   6.583
 3698ETHY    C1 3677  28.525  14.953   6.191
 3699ETHY    C1 3678  28.650  14.780   5.692
 3700ETHY    C1 3679  28.795  14.714   5.176
 3701ETHY    C1 3680  28.958  14.747   4.656
 3702AUSL   AUS 3681  28.350  15.525   6.826
 3703AUSL   AUS 3682  28.023  15.222   6.826
 3704AUL    AUL 3683  28.186  15.374   6.518
 3705THSLK    S 3684  27.927  15.170   6.586
 3706ETHY    C1 3685  27.788  14.955   6.206
 3707ETHY    C1 3686  27.631  14.784   5.717
 3708ETHY    C1 3687  27.492  14.718   5.199
 3709ETHY    C1 3688  27.376  14.749   4.666
 3710THSLK    S 3689  28.452  15.486   6.572
 3711ETHY    C1 3690  28.589  15.409   6.142
 3712ETHY    C1 3691  28.742  15.409   5.622
 3713ETHY    C1 3692  28.880  15.518   5.112
 3714ETHY    C1 3693  29.003  15.725   4.621
 3715AUSL   AUS 3694  27.777  15.374   8.080
 3716AUSL   AUS 3695  27.922  15.790   8.011
 3717AUL    AUL 3696  27.695  15.677   8.294
 3718THSLK    S 3697  27.673  15.327   8.325
 3719ETHY    C1 3698  27.447  15.177   8.691
 3720ETHY    C1 3699  27.167  15.089   9.148
 3721ETHY    C1 3700  26.884  15.111   9.607
 3722ETHY    C1 3701  26.601  15.233  10.058
 3723THSLK    S 3702  27.799  15.923   8.201
 3724ETHY    C1 3703  27.703  16.118   8.604
 3725ETHY    C1 3704  27.530  16.399   9.034
 3726ETHY    C1 3705  27.287  16.725   9.390
 3727ETHY    C1 3706  26.986  17.084   9.671
 3728AUSL   AUS 3707  28.023  15.222   8.173
 3729AUSL   AUS 3708  27.676  15.109   7.916
 3730AUL    AUL 3709  27.695  15.070   8.294
 3731THSLK    S 3710  27.497  14.943   8.032
 3732ETHY    C1 3711  27.136  14.696   8.166
 3733ETHY    C1 3712  26.731  14.430   8.410
 3734ETHY    C1 3713  26.370  14.210   8.745
 3735ETHY    C1 3714  26.054  14.037   9.156
 3736THSLK    S 3715  27.921  15.172   8.413
 3737ETHY    C1 3716  27.783  14.957   8.793
 3738ETHY    C1 3717  27.630  14.784   9.284
 3739ETHY    C1 3718  27.493  14.718   9.800
 3740ETHY    C1 3719  27.369  14.750  10.332
 3741AUSL   AUS 3720  27.777  15.374   6.920
 3742AUSL   AUS 3721  27.922  14.957   6.990
 3743AUL    AUL 3722  27.695  15.070   6.706
 3744THSLK    S 3723  27.678  15.327   6.673
 3745ETHY    C1 3724  27.451  15.177   6.305
 3746ETHY    C1 3725  27.168  15.089   5.851
 3747ETHY    C1 3726  26.884  15.111   5.393
 3748ETHY    C1 3727  26.607  15.233   4.938
 3749THSLK    S 3728  27.748  14.782   6.865
 3750ETHY    C1 3729  27.476  14.469   6.673
 3751ETHY    C1 3730  27.195  14.121   6.367
 3752ETHY    C1 3731  26.978  13.813   5.980
 3753ETHY    C1 3732  26.826  13.546   5.528
 3754AUSL   AUS 3733  28.023  15.525   6.826
 3755AUSL   AUS 3734  27.676  15.638   7.083
 3756AUL    AUL 3735  27.695  15.677   6.706
 3757THSLK    S 3736  27.540  15.769   6.893
 3758ETHY    C1 3737  27.306  15.890   6.518
 3759ETHY    C1 3738  26.974  16.078   6.132
 3760ETHY    C1 3739  26.594  16.317   5.833
 3761ETHY    C1 3740  26.177  16.597   5.618
 3762THSLK    S 3741  27.942  15.487   6.566
 3763ETHY    C1 3742  27.852  15.412   6.124
 3764ETHY    C1 3743  27.724  15.413   5.597
 3765ETHY    C1 3744  27.578  15.522   5.089
 3766ETHY    C1 3745  27.421  15.728   4.608
 3767AUSL   AUS 3746  28.766  15.783   7.500
 3768AUSL   AUS 3747  28.696  15.638   7.083
 3769AUL    AUL 3748  28.980  15.864   7.196
 3770THSLK    S 3749  28.876  15.745   6.925
 3771ETHY    C1 3750  29.237  15.795   6.648
 3772ETHY    C1 3751  29.641  15.943   6.319
 3773ETHY    C1 3752  30.003  16.192   6.005
 3774ETHY    C1 3753  30.319  16.529   5.713
 3775THSLK    S 3754  29.036  15.844   7.503
 3776ETHY    C1 3755  29.483  15.944   7.502
 3777ETHY    C1 3756  29.985  16.150   7.500
 3778ETHY    C1 3757  30.432  16.452   7.500
 3779ETHY    C1 3758  30.820  16.836   7.503
 3780AUSL   AUS 3759  28.860  15.537   7.348
 3781AUSL   AUS 3760  28.860  15.210   7.651
 3782AUL    AUL 3761  29.168  15.374   7.500
 3783THSLK    S 3762  29.122  15.584   7.345
 3784ETHY    C1 3763  29.572  15.553   7.270
 3785ETHY    C1 3764  30.104  15.608   7.179
 3786ETHY    C1 3765  30.611  15.771   7.091
 3787ETHY    C1 3766  31.086  16.029   7.011
 3788THSLK    S 3767  29.097  15.073   7.659
 3789ETHY    C1 3768  29.468  14.815   7.726
 3790ETHY    C1 3769  29.954  14.589   7.808
 3791ETHY    C1 3770  30.473  14.469   7.896
 3792ETHY    C1 3771  31.011  14.447   7.989
 3793AUSL   AUS 3772  28.860  15.537   7.651
 3794AUSL   AUS 3773  28.603  15.884   7.764
 3795AUL    AUL 3774  28.980  15.864   7.803
 3796THSLK    S 3775  28.788  16.008   7.924
 3797ETHY    C1 3776  29.145  16.200   8.136
 3798ETHY    C1 3777  29.522  16.507   8.377
 3799ETHY    C1 3778  29.823  16.894   8.602
 3800ETHY    C1 3779  30.050  17.345   8.809
 3801THSLK    S 3780  29.121  15.583   7.661
 3802ETHY    C1 3781  29.572  15.553   7.734
 3803ETHY    C1 3782  30.105  15.608   7.821
 3804ETHY    C1 3783  30.611  15.771   7.908
 3805ETHY    C1 3784  31.085  16.029   7.995
 3806AUSL   AUS 3785  27.606  15.783   7.500
 3807AUSL   AUS 3786  27.676  15.638   7.916
 3808AUL    AUL 3787  27.392  15.864   7.803
 3809THSLK    S 3788  27.536  15.764   8.107
 3810ETHY    C1 3789  27.303  15.885   8.482
 3811ETHY    C1 3790  26.974  16.078   8.868
 3812ETHY    C1 3791  26.594  16.317   9.166
 3813ETHY    C1 3792  26.173  16.592   9.381
 3814THSLK    S 3793  27.385  15.923   7.503
 3815ETHY    C1 3794  27.096  16.278   7.502
 3816ETHY    C1 3795  26.688  16.635   7.500
 3817ETHY    C1 3796  26.218  16.899   7.500
 3818ETHY    C1 3797  25.700  17.075   7.503
 3819AUSL   AUS 3798  27.513  15.537   7.348
 3820AUSL   AUS 3799  27.770  15.884   7.236
 3821AUL    AUL 3800  27.392  15.864   7.196
 3822THSLK    S 3801  27.276  15.651   7.303
 3823ETHY    C1 3802  26.904  15.825   7.101
 3824ETHY    C1 3803  26.418  16.001   6.936
 3825ETHY    C1 3804  25.900  16.133   6.868
 3826ETHY    C1 3805  25.362  16.225   6.890
 3827THSLK    S 3806  27.650  16.051   7.056
 3828ETHY    C1 3807  27.498  16.370   6.765
 3829ETHY    C1 3808  27.244  16.750   6.473
 3830ETHY    C1 3809  26.911  17.118   6.260
 3831ETHY    C1 3810  26.515  17.468   6.122
 3832AUSL   AUS 3811  27.513  15.537   7.651
 3833AUSL   AUS 3812  27.513  15.210   7.348
 3834AUL    AUL 3813  27.205  15.374   7.500
 3835THSLK    S 3814  27.251  15.135   7.384
 3836ETHY    C1 3815  26.801  15.084   7.446
 3837ETHY    C1 3816  26.268  14.981   7.434
 3838ETHY    C1 3817  25.761  14.831   7.327
 3839ETHY    C1 3818  25.288  14.638   7.135
 3840THSLK    S 3819  27.275  15.645   7.699
 3841ETHY    C1 3820  26.904  15.821   7.901
 3842ETHY    C1 3821  26.418  16.000   8.063
 3843ETHY    C1 3822  25.900  16.133   8.133
 3844ETHY    C1 3823  25.361  16.219   8.114
 3845AUSL   AUS 3824  28.766  14.964   7.500
 3846AUSL   AUS 3825  28.696  15.109   7.916
 3847AUL    AUL 3826  28.980  14.883   7.803
 3848THSLK    S 3827  28.987  14.824   7.503
 3849ETHY    C1 3828  29.276  14.469   7.502
 3850ETHY    C1 3829  29.685  14.112   7.500
 3851ETHY    C1 3830  30.155  13.848   7.500
 3852ETHY    C1 3831  30.672  13.672   7.503
 3853THSLK    S 3832  28.833  14.919   8.066
 3854ETHY    C1 3833  29.066  14.602   8.297
 3855ETHY    C1 3834  29.399  14.295   8.598
 3856ETHY    C1 3835  29.779  14.085   8.918
 3857ETHY    C1 3836  30.196  13.969   9.250
 3858AUSL   AUS 3837  28.860  15.210   7.348
 3859AUSL   AUS 3838  28.603  14.863   7.236
 3860AUL    AUL 3839  28.980  14.883   7.196
 3861THSLK    S 3840  29.098  15.073   7.346
 3862ETHY    C1 3841  29.469  14.815   7.279
 3863ETHY    C1 3842  29.954  14.589   7.192
 3864ETHY    C1 3843  30.473  14.469   7.103
 3865ETHY    C1 3844  31.012  14.447   7.018
 3866THSLK    S 3845  28.726  14.672   7.099
 3867ETHY    C1 3846  28.876  14.270   6.942
 3868ETHY    C1 3847  29.129  13.840   6.728
 3869ETHY    C1 3848  29.461  13.484   6.495
 3870ETHY    C1 3849  29.860  13.203   6.249
 3871AUSL   AUS 3850  27.606  14.964   7.500
 3872AUSL   AUS 3851  27.676  15.109   7.083
 3873AUL    AUL 3852  27.392  14.883   7.196
 3874THSLK    S 3853  27.501  14.938   6.966
 3875ETHY    C1 3854  27.139  14.692   6.833
 3876ETHY    C1 3855  26.731  14.429   6.589
 3877ETHY    C1 3856  26.370  14.210   6.255
 3878ETHY    C1 3857  26.058  14.032   5.843
 3879THSLK    S 3858  27.336  14.903   7.503
 3880ETHY    C1 3859  26.890  14.803   7.502
 3881ETHY    C1 3860  26.388  14.597   7.500
 3882ETHY    C1 3861  25.941  14.295   7.500
 3883ETHY    C1 3862  25.553  13.911   7.503
 3884AUSL   AUS 3863  27.513  15.210   7.651
 3885AUSL   AUS 3864  27.770  14.863   7.764
 3886AUL    AUL 3865  27.392  14.883   7.803
 3887THSLK    S 3866  27.582  14.715   7.881
 3888ETHY    C1 3867  27.226  14.439   7.958
 3889ETHY    C1 3868  26.851  14.082   8.122
 3890ETHY    C1 3869  26.550  13.708   8.367
 3891ETHY    C1 3870  26.319  13.326   8.682
 3892THSLK    S 3871  27.250  15.140   7.618
 3893ETHY    C1 3872  26.800  15.088   7.557
 3894ETHY    C1 3873  26.268  14.982   7.566
 3895ETHY    C1 3874  25.761  14.831   7.673
 3896ETHY    C1 3875  25.287  14.643   7.867
 3897AUSL   AUS 3876  28.186  15.954   7.909
 3898AUSL   AUS 3877  27.770  15.884   7.764
 3899AUL    AUL 3878  27.883  16.168   7.991
 3900THSLK    S 3879  27.647  16.046   7.948
 3901ETHY    C1 3880  27.496  16.366   8.237
 3902ETHY    C1 3881  27.243  16.749   8.527
 3903ETHY    C1 3882  26.911  17.117   8.740
 3904ETHY    C1 3883  26.512  17.463   8.881
 3905THSLK    S 3884  28.224  16.185   8.034
 3906ETHY    C1 3885  28.352  16.511   8.327
 3907ETHY    C1 3886  28.429  16.943   8.646
 3908ETHY    C1 3887  28.410  17.408   8.920
 3909ETHY    C1 3888  28.304  17.893   9.147
 3910AUSL   AUS 3889  28.035  16.047   7.663
 3911AUSL   AUS 3890  28.338  16.047   7.336
 3912AUL    AUL 3891  28.186  16.355   7.500
 3913THSLK    S 3892  28.072  16.299   7.772
 3914ETHY    C1 3893  28.145  16.723   7.929
 3915ETHY    C1 3894  28.142  17.239   8.095
 3916ETHY    C1 3895  28.034  17.750   8.229
 3917ETHY    C1 3896  27.830  18.246   8.336
 3918THSLK    S 3897  28.389  16.287   7.237
 3919ETHY    C1 3898  28.602  16.664   7.091
 3920ETHY    C1 3899  28.772  17.153   6.929
 3921ETHY    C1 3900  28.839  17.671   6.792
 3922ETHY    C1 3901  28.810  18.205   6.682
 3923AUSL   AUS 3902  28.338  16.047   7.663
 3924AUSL   AUS 3903  28.451  15.790   8.011
 3925AUL    AUL 3904  28.490  16.168   7.991
 3926THSLK    S 3905  28.624  15.907   8.184
 3927ETHY    C1 3906  28.897  16.048   8.522
 3928ETHY    C1 3907  29.178  16.297   8.915
 3929ETHY    C1 3908  29.394  16.630   9.279
 3930ETHY    C1 3909  29.546  17.035   9.614
 3931THSLK    S 3910  28.388  16.285   7.768
 3932ETHY    C1 3911  28.601  16.664   7.913
 3933ETHY    C1 3912  28.772  17.153   8.072
 3934ETHY    C1 3913  28.839  17.671   8.207
 3935ETHY    C1 3914  28.808  18.204   8.325
 3936AUSL   AUS 3915  28.186  14.793   7.909
 3937AUSL   AUS 3916  28.603  14.863   7.764
 3938AUL    AUL 3917  28.490  14.579   7.991
 3939THSLK    S 3918  28.145  14.536   7.992
 3940ETHY    C1 3919  28.018  14.127   8.152
 3941ETHY    C1 3920  27.944  13.646   8.391
 3942ETHY    C1 3921  27.963  13.194   8.684
 3943ETHY    C1 3922  28.065  12.776   9.021
 3944THSLK    S 3923  28.723  14.673   7.907
 3945ETHY    C1 3924  28.874  14.271   8.062
 3946ETHY    C1 3925  29.129  13.840   8.272
 3947ETHY    C1 3926  29.461  13.484   8.505
 3948ETHY    C1 3927  29.857  13.205   8.758
 3949AUSL   AUS 3928  28.035  14.700   7.663
 3950AUSL   AUS 3929  27.922  14.957   8.011
 3951AUL    AUL 3930  27.883  14.579   7.991
 3952THSLK    S 3931  27.984  14.455   7.744
 3953ETHY    C1 3932  27.771  14.056   7.812
 3954ETHY    C1 3933  27.600  13.553   7.925
 3955ETHY    C1 3934  27.534  13.039   8.072
 3956ETHY    C1 3935  27.563  12.524   8.252
 3957THSLK    S 3936  27.744  14.787   8.136
 3958ETHY    C1 3937  27.472  14.472   8.327
 3959ETHY    C1 3938  27.194  14.121   8.633
 3960ETHY    C1 3939  26.978  13.813   9.019
 3961ETHY    C1 3940  26.822  13.551   9.473
 3962AUSL   AUS 3941  28.338  14.700   7.663
 3963AUSL   AUS 3942  28.035  14.700   7.336
 3964AUL    AUL 3943  28.186  14.392   7.500
 3965THSLK    S 3944  27.985  14.453   7.261
 3966ETHY    C1 3945  27.772  14.055   7.192
 3967ETHY    C1 3946  27.600  13.553   7.076
 3968ETHY    C1 3947  27.534  13.039   6.927
 3969ETHY    C1 3948  27.565  12.522   6.754
 3970THSLK    S 3949  28.299  14.441   7.748
 3971ETHY    C1 3950  28.227  13.996   7.829
 3972ETHY    C1 3951  28.230  13.467   7.948
 3973ETHY    C1 3952  28.339  12.959   8.095
 3974ETHY    C1 3953  28.541  12.481   8.264
 3975AUSL   AUS 3954  28.186  15.954   7.091
 3976AUSL   AUS 3955  28.603  15.884   7.236
 3977AUL    AUL 3956  28.490  16.168   7.009
 3978THSLK    S 3957  28.228  16.188   6.971
 3979ETHY    C1 3958  28.355  16.513   6.676
 3980ETHY    C1 3959  28.429  16.943   6.353
 3981ETHY    C1 3960  28.410  17.408   6.080
 3982ETHY    C1 3961  28.307  17.896   5.857
 3983THSLK    S 3962  28.790  16.009   7.081
 3984ETHY    C1 3963  29.147  16.201   6.869
 3985ETHY    C1 3964  29.522  16.507   6.623
 3986ETHY    C1 3965  29.823  16.894   6.398
 3987ETHY    C1 3966  30.053  17.346   6.197
 3988AUSL   AUS 3967  28.035  16.047   7.336
 3989AUSL   AUS 3968  27.922  15.790   6.990
 3990AUL    AUL 3969  27.883  16.168   7.009
 3991THSLK    S 3970  28.074  16.301   7.233
 3992ETHY    C1 3971  28.146  16.724   7.074
 3993ETHY    C1 3972  28.143  17.240   6.906
 3994ETHY    C1 3973  28.034  17.750   6.770
 3995ETHY    C1 3974  27.832  18.248   6.670
 3996THSLK    S 3975  27.803  15.927   6.800
 3997ETHY    C1 3976  27.707  16.121   6.396
 3998ETHY    C1 3977  27.530  16.399   5.966
 3999ETHY    C1 3978  27.287  16.724   5.611
 4000ETHY    C1 3979  26.991  17.089   5.330
 4001AUSL   AUS 3980  28.186  14.793   7.091
 4002AUSL   AUS 3981  27.770  14.863   7.236
 4003AUL    AUL 3982  27.883  14.579   7.009
 4004THSLK    S 3983  27.585  14.710   7.122
 4005ETHY    C1 3984  27.228  14.436   7.044
 4006ETHY    C1 3985  26.851  14.082   6.878
 4007ETHY    C1 3986  26.549  13.708   6.633
 4008ETHY    C1 3987  26.322  13.321   6.321
 4009THSLK    S 3988  28.148  14.533   7.013
 4010ETHY    C1 3989  28.020  14.125   6.852
 4011ETHY    C1 3990  27.944  13.646   6.609
 4012ETHY    C1 3991  27.963  13.194   6.315
 4013ETHY    C1 3992  28.069  12.773   5.983
 4014AUSL   AUS 3993  28.338  14.700   7.336
 4015AUSL   AUS 3994  28.451  14.957   6.990
 4016AUL    AUL 3995  28.490  14.579   7.009
 4017THSLK    S 3996  28.301  14.440   7.258
 4018ETHY    C1 3997  28.228  13.995   7.175
 4019ETHY    C1 3998  28.230  13.467   7.052
 4020ETHY    C1 3999  28.338  12.959   6.905
 4021ETHY    C1 4000  28.543  12.480   6.742
 4022THSLK    S 4001  28.574  14.767   6.847
 4023ETHY    C1 4002  28.669  14.399   6.592
 4024ETHY    C1 4003  28.843  14.018   6.247
 4025ETHY    C1 4004  29.085  13.718   5.870
 4026ETHY    C1 4005  29.386  13.497   5.471
 4027AUC    AUC 4006  17.836  14.122   7.500
 4028AUC    AUC 4007  18.082  14.122   7.348
 4029AUC    AUC 4008  18.082  14.122   7.651
 4030AUC    AUC 4009  17.591  14.122   7.348
 4031AUC    AUC 4010  17.591  14.122   7.651
 4032AUC    AUC 4011  17.685  14.367   7.500
 4033AUC    AUC 4012  17.988  14.367   7.500
 4034AUC    AUC 4013  17.685  13.876   7.500
 4035AUC    AUC 4014  17.988  13.876   7.500
 4036AUC    AUC 4015  17.836  13.970   7.745
 4037AUC    AUC 4016  17.836  14.273   7.745
 4038AUC    AUC 4017  17.836  13.970   7.254
 4039AUC    AUC 4018  17.836  14.273   7.254
 4040AUC    AUC 4019  18.327  14.122   7.196
 4041AUC    AUC 4020  18.327  14.122   7.500
 4042AUC    AUC 4021  18.327  14.122   7.803
 4043AUC    AUC 4022  17.345  14.122   7.196
 4044AUC    AUC 4023  17.345  14.122   7.500
 4045AUC    AUC 4024  17.345  14.122   7.803
 4046AUC    AUC 4025  17.533  14.612   7.500
 4047AUC    AUC 4026  17.836  14.612   7.500
 4048AUC    AUC 4027  18.140  14.612   7.500
 4049AUC    AUC 4028  17.533  13.631   7.500
 4050AUC    AUC 4029  17.836  13.631   7.500
 4051AUC    AUC 4030  18.140  13.631   7.500
 4052AUC    AUC 4031  17.836  13.818   7.991
 4053AUC    AUC 4032  17.836  14.122   7.991
 4054AUC    AUC 4033  17.836  14.425   7.991
 4055AUC    AUC 4034  17.836  13.818   7.009
 4056AUC    AUC 4035  17.836  14.122   7.009
 4057AUC    AUC 4036  17.836  14.425   7.009
 4058AUC    AUC 4037  18.082  13.970   7.897
 4059AUC    AUC 4038  18.082  14.273   7.897
 4060AUC    AUC 4039  18.082  13.970   7.103
 4061AUC    AUC 4040  18.082  14.273   7.103
 4062AUC    AUC 4041  17.591  13.970   7.897
 4063AUC    AUC 4042  17.591  14.273   7.897
 4064AUC    AUC 4043  17.591  13.970   7.103
 4065AUC    AUC 4044  17.591  14.273   7.103
 4066AUC    AUC 4045  18.233  14.367   7.348
 4067AUC    AUC 4046  18.233  14.367   7.651
 4068AUC    AUC 4047  17.439  14.367   7.348
 4069AUC    AUC 4048  17.439  14.367   7.651
 4070AUC    AUC 4049  18.233  13.876   7.348
 4071AUC    AUC 4050  18.233  13.876   7.651
 4072AUC    AUC 4051  17.439  13.876   7.348
 4073AUC    AUC 4052  17.439  13.876   7.651
 4074AUC    AUC 4053  17.685  14.519   7.745
 4075AUC    AUC 4054  17.988  14.519   7.745
 4076AUC    AUC 4055  17.685  13.724   7.745
 4077AUC    AUC 4056  17.988  13.724   7.745
 4078AUC    AUC 4057  17.685  14.519   7.254
 4079AUC    AUC 4058  17.988  14.519   7.254
 4080AUC    AUC 4059  17.685  13.724   7.254
 4081AUC    AUC 4060  17.988  13.724   7.254
 4082AUSL   AUS 4061  18.245  14.122   8.080
 4083AUSL   AUS 4062  18.101  13.705   8.011
 4084AUL    AUL 4063  18.327  13.818   8.294
 4085THSLK    S 4064  18.219  13.517   8.156
 4086ETHY    C1 4065  18.315  13.149   8.412
 4087ETHY    C1 4066  18.493  12.766   8.753
 4088ETHY    C1 4067  18.735  12.466   9.130
 4089ETHY    C1 4068  19.031  12.247   9.534
 4090THSLK    S 4069  18.344  14.075   8.327
 4091ETHY    C1 4070  18.571  13.925   8.694
 4092ETHY    C1 4071  18.855  13.837   9.148
 4093ETHY    C1 4072  19.139  13.859   9.607
 4094ETHY    C1 4073  19.416  13.981  10.061
 4095AUSL   AUS 4074  18.000  13.970   8.173
 4096AUSL   AUS 4075  17.673  14.273   8.173
 4097AUL    AUL 4076  17.836  14.122   8.482
 4098THSLK    S 4077  18.081  13.919   8.418
 4099ETHY    C1 4078  18.171  13.701   8.810
 4100ETHY    C1 4079  18.299  13.527   9.308
 4101ETHY    C1 4080  18.445  13.462   9.823
 4102ETHY    C1 4081  18.602  13.496  10.346
 4103THSLK    S 4082  17.586  14.233   8.432
 4104ETHY    C1 4083  17.497  14.159   8.874
 4105ETHY    C1 4084  17.373  14.161   9.403
 4106ETHY    C1 4085  17.228  14.270   9.912
 4107ETHY    C1 4086  17.065  14.474  10.392
 4108AUSL   AUS 4087  18.000  14.273   8.173
 4109AUSL   AUS 4088  18.346  14.386   7.916
 4110AUL    AUL 4089  18.327  14.425   8.294
 4111THSLK    S 4090  18.087  14.325   8.416
 4112ETHY    C1 4091  18.175  14.542   8.809
 4113ETHY    C1 4092  18.300  14.715   9.308
 4114ETHY    C1 4093  18.445  14.781   9.823
 4115ETHY    C1 4094  18.608  14.748  10.345
 4116THSLK    S 4095  18.522  14.492   8.079
 4117ETHY    C1 4096  18.884  14.542   8.355
 4118ETHY    C1 4097  19.291  14.691   8.681
 4119ETHY    C1 4098  19.653  14.940   8.995
 4120ETHY    C1 4099  19.965  15.276   9.293
 4121AUSL   AUS 4100  18.245  14.122   6.920
 4122AUSL   AUS 4101  18.101  14.538   6.990
 4123AUL    AUL 4102  18.327  14.425   6.706
 4124THSLK    S 4103  18.349  14.075   6.676
 4125ETHY    C1 4104  18.576  13.925   6.308
 4126ETHY    C1 4105  18.855  13.837   5.851
 4127ETHY    C1 4106  19.139  13.859   5.393
 4128ETHY    C1 4107  19.421  13.981   4.941
 4129THSLK    S 4108  18.278  14.657   6.820
 4130ETHY    C1 4109  18.550  14.798   6.480
 4131ETHY    C1 4110  18.828  15.045   6.085
 4132ETHY    C1 4111  19.044  15.378   5.720
 4133ETHY    C1 4112  19.201  15.785   5.391
 4134AUSL   AUS 4113  18.000  13.970   6.826
 4135AUSL   AUS 4114  18.346  13.857   7.083
 4136AUL    AUL 4115  18.327  13.818   6.706
 4137THSLK    S 4116  18.486  13.666   6.939
 4138ETHY    C1 4117  18.719  13.349   6.707
 4139ETHY    C1 4118  19.049  13.042   6.403
 4140ETHY    C1 4119  19.429  12.833   6.083
 4141ETHY    C1 4120  19.850  12.716   5.754
 4142THSLK    S 4121  18.087  13.918   6.583
 4143ETHY    C1 4122  18.175  13.701   6.191
 4144ETHY    C1 4123  18.300  13.528   5.692
 4145ETHY    C1 4124  18.445  13.462   5.176
 4146ETHY    C1 4125  18.608  13.495   4.656
 4147AUSL   AUS 4126  18.000  14.273   6.826
 4148AUSL   AUS 4127  17.673  13.970   6.826
 4149AUL    AUL 4128  17.836  14.122   6.518
 4150THSLK    S 4129  17.577  13.918   6.586
 4151ETHY    C1 4130  17.438  13.703   6.206
 4152ETHY    C1 4131  17.281  13.532   5.717
 4153ETHY    C1 4132  17.142  13.466   5.199
 4154ETHY    C1 4133  17.026  13.497   4.666
 4155THSLK    S 4134  18.102  14.234   6.572
 4156ETHY    C1 4135  18.239  14.157   6.142
 4157ETHY    C1 4136  18.392  14.157   5.622
 4158ETHY    C1 4137  18.530  14.266   5.112
 4159ETHY    C1 4138  18.653  14.473   4.621
 4160AUSL   AUS 4139  17.427  14.122   8.080
 4161AUSL   AUS 4140  17.572  14.538   8.011
 4162AUL    AUL 4141  17.345  14.425   8.294
 4163THSLK    S 4142  17.323  14.075   8.325
 4164ETHY    C1 4143  17.097  13.925   8.691
 4165ETHY    C1 4144  16.817  13.837   9.148
 4166ETHY    C1 4145  16.534  13.859   9.607
 4167ETHY    C1 4146  16.251  13.981  10.058
 4168THSLK    S 4147  17.449  14.671   8.201
 4169ETHY    C1 4148  17.353  14.866   8.604
 4170ETHY    C1 4149  17.180  15.147   9.034
 4171ETHY    C1 4150  16.937  15.473   9.390
 4172ETHY    C1 4151  16.636  15.832   9.671
 4173AUSL   AUS 4152  17.673  13.970   8.173
 4174AUSL   AUS 4153  17.326  13.857   7.916
 4175AUL    AUL 4154  17.345  13.818   8.294
 4176THSLK    S 4155  17.147  13.691   8.032
 4177ETHY    C1 4156  16.786  13.444   8.166
 4178ETHY    C1 4157  16.381  13.178   8.410
 4179ETHY    C1 4158  16.020  12.958   8.745
 4180ETHY    C1 4159  15.704  12.785   9.156
 4181THSLK    S 4160  17.571  13.920   8.413
 4182ETHY    C1 4161  17.433  13.705   8.793
 4183ETHY    C1 4162  17.280  13.532   9.284
 4184ETHY    C1 4163  17.143  13.466   9.800
 4185ETHY    C1 4164  17.019  13.498  10.332
 4186AUSL   AUS 4165  17.427  14.122   6.920
 4187AUSL   AUS 4166  17.572  13.705   6.990
 4188AUL    AUL 4167  17.345  13.818   6.706
 4189THSLK    S 4168  17.328  14.075   6.673
 4190ETHY    C1 4169  17.101  13.925   6.305
 4191ETHY    C1 4170  16.818  13.837   5.851
 4192ETHY    C1 4171  16.534  13.859   5.393
 4193ETHY    C1 4172  16.257  13.981   4.938
 4194THSLK    S 4173  17.398  13.530   6.865
 4195ETHY    C1 4174  17.126  13.217   6.673
 4196ETHY    C1 4175  16.845  12.869   6.367
 4197ETHY    C1 4176  16.628  12.561   5.980
 4198ETHY    C1 4177  16.476  12.294   5.528
 4199AUSL   AUS 4178  17.673  14.273   6.826
 4200AUSL   AUS 4179  17.326  14.386   7.083
 4201AUL    AUL 4180  17.345  14.425   6.706
 4202THSLK    S 4181  17.190  14.517   6.893
 4203ETHY    C1 4182  16.956  14.638   6.518
 4204ETHY    C1 4183  16.624  14.826   6.132
 4205ETHY    C1 4184  16.244  15.065   5.833
 4206ETHY    C1 4185  15.827  15.345   5.618
 4207THSLK    S 4186  17.592  14.235   6.566
 4208ETHY    C1 4187  17.502  14.160   6.124
 4209ETHY    C1 4188  17.374  14.161   5.597
 4210ETHY    C1 4189  17.228  14.270   5.089
 4211ETHY    C1 4190  17.071  14.476   4.608
 4212AUSL   AUS 4191  18.416  14.531   7.500
 4213AUSL   AUS 4192  18.346  14.386   7.083
 4214AUL    AUL 4193  18.630  14.612   7.196
 4215THSLK    S 4194  18.526  14.493   6.925
 4216ETHY    C1 4195  18.887  14.543   6.648
 4217ETHY    C1 4196  19.291  14.691   6.319
 4218ETHY    C1 4197  19.653  14.940   6.005
 4219ETHY    C1 4198  19.969  15.277   5.713
 4220THSLK    S 4199  18.686  14.592   7.503
 4221ETHY    C1 4200  19.133  14.692   7.502
 4222ETHY    C1 4201  19.635  14.898   7.500
 4223ETHY    C1 4202  20.082  15.200   7.500
 4224ETHY    C1 4203  20.470  15.584   7.503
 4225AUSL   AUS 4204  18.510  14.285   7.348
 4226AUSL   AUS 4205  18.510  13.958   7.651
 4227AUL    AUL 4206  18.818  14.122   7.500
 4228THSLK    S 4207  18.772  14.332   7.345
 4229ETHY    C1 4208  19.222  14.301   7.270
 4230ETHY    C1 4209  19.754  14.356   7.179
 4231ETHY    C1 4210  20.261  14.519   7.091
 4232ETHY    C1 4211  20.736  14.777   7.011
 4233THSLK    S 4212  18.747  13.821   7.659
 4234ETHY    C1 4213  19.118  13.563   7.726
 4235ETHY    C1 4214  19.604  13.337   7.808
 4236ETHY    C1 4215  20.123  13.217   7.896
 4237ETHY    C1 4216  20.661  13.195   7.989
 4238AUSL   AUS 4217  18.510  14.285   7.651
 4239AUSL   AUS 4218  18.253  14.632   7.764
 4240AUL    AUL 4219  18.630  14.612   7.803
 4241THSLK    S 4220  18.438  14.756   7.924
 4242ETHY    C1 4221  18.795  14.948   8.136
 4243ETHY    C1 4222  19.172  15.255   8.377
 4244ETHY    C1 4223  19.473  15.642   8.602
 4245ETHY    C1 4224  19.700  16.093   8.809
 4246THSLK    S 4225  18.771  14.331   7.661
 4247ETHY    C1 4226  19.222  14.301   7.734
 4248ETHY    C1 4227  19.755  14.356   7.821
 4249ETHY    C1 4228  20.261  14.519   7.908
 4250ETHY    C1 4229  20.735  14.777   7.995
 4251AUSL   AUS 4230  17.256  14.531   7.500
 4252AUSL   AUS 4231  17.326  14.386   7.916
 4253AUL    AUL 4232  17.042  14.612   7.803
 4254THSLK    S 4233  17.186  14.512   8.107
 4255ETHY    C1 4234  16.953  14.633   8.482
 4256ETHY    C1 4235  16.624  14.826   8.868
 4257ETHY    C1 4236  16.244  15.065   9.166
 4258ETHY    C1 4237  15.823  15.340   9.381
 4259THSLK    S 4238  17.035  14.671   7.503
 4260ETHY    C1 4239  16.746  15.026   7.502
 4261ETHY    C1 4240  16.338  15.383   7.500
 4262ETHY    C1 4241  15.868  15.647   7.500
 4263ETHY    C1 4242  15.350  15.823   7.503
 4264AUSL   AUS 4243  17.163  14.285   7.348
 4265AUSL   AUS 4244  17.420  14.632   7.236
 4266AUL    AUL 4245  17.042  14.612   7.196
 4267THSLK    S 4246  16.926  14.399   7.303
 4268ETHY    C1 4247  16.554  14.573   7.101
 4269ETHY    C1 4248  16.068  14.749   6.936
 4270ETHY    C1 4249  15.550  14.881   6.868
 4271ETHY    C1 4250  15.012  14.973   6.890
 4272THSLK    S 4251  17.300  14.799   7.056
 4273ETHY    C1 4252  17.148  15.118   6.765
 4274ETHY    C1 4253  16.894  15.498   6.473
 4275ETHY    C1 4254  16.561  15.866   6.260
 4276ETHY    C1 4255  16.165  16.216   6.122
 4277AUSL   AUS 4256  17.163  14.285   7.651
 4278AUSL   AUS 4257  17.163  13.958   7.348
 4279AUL    AUL 4258  16.855  14.122   7.500
 4280THSLK    S 4259  16.901  13.883   7.384
 4281ETHY    C1 4260  16.451  13.832   7.446
 4282ETHY    C1 4261  15.918  13.729   7.434
 4283ETHY    C1 4262  15.411  13.579   7.327
 4284ETHY    C1 4263  14.938  13.386   7.135
 4285THSLK    S 4264  16.925  14.393   7.699
 4286ETHY    C1 4265  16.554  14.569   7.901
 4287ETHY    C1 4266  16.068  14.748   8.063
 4288ETHY    C1 4267  15.550  14.881   8.133
 4289ETHY    C1 4268  15.011  14.967   8.114
 4290AUSL   AUS 4269  18.416  13.712   7.500
 4291AUSL   AUS 4270  18.346  13.857   7.916
 4292AUL    AUL 4271  18.630  13.631   7.803
 4293THSLK    S 4272  18.637  13.572   7.503
 4294ETHY    C1 4273  18.926  13.217   7.502
 4295ETHY    C1 4274  19.335  12.860   7.500
 4296ETHY    C1 4275  19.805  12.596   7.500
 4297ETHY    C1 4276  20.322  12.420   7.503
 4298THSLK    S 4277  18.483  13.667   8.066
 4299ETHY    C1 4278  18.716  13.350   8.297
 4300ETHY    C1 4279  19.049  13.043   8.598
 4301ETHY    C1 4280  19.429  12.833   8.918
 4302ETHY    C1 4281  19.846  12.717   9.250
 4303AUSL   AUS 4282  18.510  13.958   7.348
 4304AUSL   AUS 4283  18.253  13.611   7.236
 4305AUL    AUL 4284  18.630  13.631   7.196
 4306THSLK    S 4285  18.748  13.821   7.346
 4307ETHY    C1 4286  19.119  13.563   7.279
 4308ETHY    C1 4287  19.604  13.337   7.192
 4309ETHY    C1 4288  20.123  13.217   7.103
 4310ETHY    C1 4289  20.662  13.195   7.018
 4311THSLK    S 4290  18.376  13.420   7.099
 4312ETHY    C1 4291  18.526  13.018   6.942
 4313ETHY    C1 4292  18.779  12.588   6.728
 4314ETHY    C1 4293  19.111  12.232   6.495
 4315ETHY    C1 4294  19.510  11.951   6.249
 4316AUSL   AUS 4295  17.256  13.712   7.500
 4317AUSL   AUS 4296  17.326  13.857   7.083
 4318AUL    AUL 4297  17.042  13.631   7.196
 4319THSLK    S 4298  17.151  13.686   6.966
 4320ETHY    C1 4299  16.789  13.440   6.833
 4321ETHY    C1 4300  16.381  13.177   6.589
 4322ETHY    C1 4301  16.020  12.958   6.255
 4323ETHY    C1 4302  15.708  12.780   5.843
 4324THSLK    S 4303  16.986  13.651   7.503
 4325ETHY    C1 4304  16.540  13.551   7.502
 4326ETHY    C1 4305  16.038  13.345   7.500
 4327ETHY    C1 4306  15.591  13.043   7.500
 4328ETHY    C1 4307  15.203  12.659   7.503
 4329AUSL   AUS 4308  17.163  13.958   7.651
 4330AUSL   AUS 4309  17.420  13.611   7.764
 4331AUL    AUL 4310  17.042  13.631   7.803
 4332THSLK    S 4311  17.232  13.463   7.881
 4333ETHY    C1 4312  16.876  13.187   7.958
 4334ETHY    C1 4313  16.501  12.830   8.122
 4335ETHY    C1 4314  16.200  12.456   8.367
 4336ETHY    C1 4315  15.969  12.074   8.682
 4337THSLK    S 4316  16.900  13.888   7.618
 4338ETHY    C1 4317  16.450  13.836   7.557
 4339ETHY    C1 4318  15.918  13.730   7.566
 4340ETHY    C1 4319  15.411  13.579   7.673
 4341ETHY    C1 4320  14.937  13.391   7.867
 4342AUSL   AUS 4321  17.836  14.702   7.909
 4343AUSL   AUS 4322  17.420  14.632   7.764
 4344AUL    AUL 4323  17.533  14.916   7.991
 4345THSLK    S 4324  17.297  14.794   7.948
 4346ETHY    C1 4325  17.146  15.114   8.237
 4347ETHY    C1 4326  16.893  15.497   8.527
 4348ETHY    C1 4327  16.561  15.865   8.740
 4349ETHY    C1 4328  16.162  16.211   8.881
 4350THSLK    S 4329  17.874  14.933   8.034
 4351ETHY    C1 4330  18.002  15.259   8.327
 4352ETHY    C1 4331  18.079  15.691   8.646
 4353ETHY    C1 4332  18.060  16.156   8.920
 4354ETHY    C1 4333  17.954  16.641   9.147
 4355AUSL   AUS 4334  17.685  14.795   7.663
 4356AUSL   AUS 4335  17.988  14.795   7.336
 4357AUL    AUL 4336  17.836  15.103   7.500
 4358THSLK    S 4337  17.722  15.047   7.772
 4359ETHY    C1 4338  17.795  15.471   7.929
 4360ETHY    C1 4339  17.792  15.987   8.095
 4361ETHY    C1 4340  17.684  16.498   8.229
 4362ETHY    C1 4341  17.480  16.994   8.336
 4363THSLK    S 4342  18.039  15.035   7.237
 4364ETHY    C1 4343  18.252  15.412   7.091
 4365ETHY    C1 4344  18.422  15.901   6.929
 4366ETHY    C1 4345  18.489  16.419   6.792
 4367ETHY    C1 4346  18.460  16.953   6.682
 4368AUSL   AUS 4347  17.988  14.795   7.663
 4369AUSL   AUS 4348  18.101  14.538   8.011
 4370AUL    AUL 4349  18.140  14.916   7.991
 4371THSLK    S 4350  18.274  14.655   8.184
 4372ETHY    C1 4351  18.547  14.796   8.522
 4373ETHY    C1 4352  18.828  15.045   8.915
 4374ETHY    C1 4353  19.044  15.378   9.279
 4375ETHY    C1 4354  19.196  15.783   9.614
 4376THSLK    S 4355  18.038  15.033   7.768
 4377ETHY    C1 4356  18.251  15.412   7.913
 4378ETHY    C1 4357  18.422  15.901   8.072
 4379ETHY    C1 4358  18.489  16.419   8.207
 4380ETHY    C1 4359  18.458  16.952   8.325
 4381AUSL   AUS 4360  17.836  13.541   7.909
 4382AUSL   AUS 4361  18.253  13.611   7.764
 4383AUL    AUL 4362  18.140  13.327   7.991
 4384THSLK    S 4363  17.795  13.284   7.992
 4385ETHY    C1 4364  17.668  12.875   8.152
 4386ETHY    C1 4365  17.594  12.394   8.391
 4387ETHY    C1 4366  17.613  11.942   8.684
 4388ETHY    C1 4367  17.715  11.524   9.021
 4389THSLK    S 4368  18.373  13.421   7.907
 4390ETHY    C1 4369  18.524  13.019   8.062
 4391ETHY    C1 4370  18.779  12.588   8.272
 4392ETHY    C1 4371  19.111  12.232   8.505
 4393ETHY    C1 4372  19.507  11.953   8.758
 4394AUSL   AUS 4373  17.685  13.448   7.663
 4395AUSL   AUS 4374  17.572  13.705   8.011
 4396AUL    AUL 4375  17.533  13.327   7.991
 4397THSLK    S 4376  17.634  13.203   7.744
 4398ETHY    C1 4377  17.421  12.804   7.812
 4399ETHY    C1 4378  17.250  12.301   7.925
 4400ETHY    C1 4379  17.184  11.787   8.072
 4401ETHY    C1 4380  17.213  11.272   8.252
 4402THSLK    S 4381  17.394  13.535   8.136
 4403ETHY    C1 4382  17.122  13.220   8.327
 4404ETHY    C1 4383  16.844  12.869   8.633
 4405ETHY    C1 4384  16.628  12.561   9.019
 4406ETHY    C1 4385  16.472  12.299   9.473
 4407AUSL   AUS 4386  17.988  13.448   7.663
 4408AUSL   AUS 4387  17.685  13.448   7.336
 4409AUL    AUL 4388  17.836  13.140   7.500
 4410THSLK    S 4389  17.635  13.201   7.261
 4411ETHY    C1 4390  17.422  12.803   7.192
 4412ETHY    C1 4391  17.250  12.301   7.076
 4413ETHY    C1 4392  17.184  11.787   6.927
 4414ETHY    C1 4393  17.215  11.270   6.754
 4415THSLK    S 4394  17.949  13.189   7.748
 4416ETHY    C1 4395  17.877  12.744   7.829
 4417ETHY    C1 4396  17.880  12.215   7.948
 4418ETHY    C1 4397  17.989  11.707   8.095
 4419ETHY    C1 4398  18.191  11.229   8.264
 4420AUSL   AUS 4399  17.836  14.702   7.091
 4421AUSL   AUS 4400  18.253  14.632   7.236
 4422AUL    AUL 4401  18.140  14.916   7.009
 4423THSLK    S 4402  17.878  14.936   6.971
 4424ETHY    C1 4403  18.005  15.261   6.676
 4425ETHY    C1 4404  18.079  15.691   6.353
 4426ETHY    C1 4405  18.060  16.156   6.080
 4427ETHY    C1 4406  17.957  16.644   5.857
 4428THSLK    S 4407  18.440  14.757   7.081
 4429ETHY    C1 4408  18.797  14.949   6.869
 4430ETHY    C1 4409  19.172  15.255   6.623
 4431ETHY    C1 4410  19.473  15.642   6.398
 4432ETHY    C1 4411  19.703  16.094   6.197
 4433AUSL   AUS 4412  17.685  14.795   7.336
 4434AUSL   AUS 4413  17.572  14.538   6.990
 4435AUL    AUL 4414  17.533  14.916   7.009
 4436THSLK    S 4415  17.724  15.049   7.233
 4437ETHY    C1 4416  17.796  15.472   7.074
 4438ETHY    C1 4417  17.793  15.988   6.906
 4439ETHY    C1 4418  17.684  16.498   6.770
 4440ETHY    C1 4419  17.482  16.996   6.670
 4441THSLK    S 4420  17.453  14.675   6.800
 4442ETHY    C1 4421  17.357  14.869   6.396
 4443ETHY    C1 4422  17.180  15.147   5.966
 4444ETHY    C1 4423  16.937  15.472   5.611
 4445ETHY    C1 4424  16.641  15.837   5.330
 4446AUSL   AUS 4425  17.836  13.541   7.091
 4447AUSL   AUS 4426  17.420  13.611   7.236
 4448AUL    AUL 4427  17.533  13.327   7.009
 4449THSLK    S 4428  17.235  13.458   7.122
 4450ETHY    C1 4429  16.878  13.184   7.044
 4451ETHY    C1 4430  16.501  12.830   6.878
 4452ETHY    C1 4431  16.199  12.456   6.633
 4453ETHY    C1 4432  15.972  12.069   6.321
 4454THSLK    S 4433  17.798  13.281   7.013
 4455ETHY    C1 4434  17.670  12.873   6.852
 4456ETHY    C1 4435  17.594  12.394   6.609
 4457ETHY    C1 4436  17.613  11.942   6.315
 4458ETHY    C1 4437  17.719  11.521   5.983
 4459AUSL   AUS 4438  17.988  13.448   7.336
 4460AUSL   AUS 4439  18.101  13.705   6.990
 4461AUL    AUL 4440  18.140  13.327   7.009
 4462THSLK    S 4441  17.951  13.188   7.258
 4463ETHY    C1 4442  17.878  12.743   7.175
 4464ETHY    C1 4443  17.880  12.215   7.052
 4465ETHY    C1 4444  17.988  11.707   6.905
 4466ETHY    C1 4445  18.193  11.228   6.742
 4467THSLK    S 4446  18.224  13.515   6.847
 4468ETHY    C1 4447  18.319  13.147   6.592
 4469ETHY    C1 4448  18.493  12.766   6.247
 4470ETHY    C1 4449  18.735  12.466   5.870
 4471ETHY    C1 4450  19.036  12.245   5.471
 4472POPC   NC3 4451   4.340   6.597   9.450
 4472POPC   PO4 4452   4.356   6.694   9.150
 4472POPC   GL1 4453   4.298   6.687   8.850
 4472POPC   GL2 4454   4.225   6.556   8.850
 4472POPC   C1A 4455   4.313   6.619   8.550
 4472POPC   D2A 4456   4.322   6.670   8.250
 4472POPC   C3A 4457   4.290   6.658   7.950
 4472POPC   C4A 4458   4.326   6.677   7.650
 4472POPC   C1B 4459   4.151   6.442   8.550
 4472POPC   C2B 4460   4.101   6.445   8.250
 4472POPC   C3B 4461   4.117   6.490   7.950
 4472POPC   C4B 4462   4.174   6.414   7.650
 4473POPC   NC3 4463  25.272   1.261   9.450
 4473POPC   PO4 4464  25.247   1.237   9.150
 4473POPC   GL1 4465  25.217   1.233   8.850
 4473POPC   GL2 4466  25.247   1.052   8.850
 4473POPC   C1A 4467  25.289   1.212   8.550
 4473POPC   D2A 4468  25.240   1.174   8.250
 4473POPC   C3A 4469  25.272   1.196   7.950
 4473POPC   C4A 4470  25.236   1.219   7.650
 4473POPC   C1B 4471  25.202   0.976   8.550
 4473POPC   C2B 4472  25.115   1.029   8.250
 4473POPC   C3B 4473  25.152   1.011   7.950
 4473POPC   C4B 4474  25.156   1.032   7.650
 4474POPC   NC3 4475  15.175  19.872   9.450
 4474POPC   PO4 4476  15.222  19.876   9.150
 4474POPC   GL1 4477  15.147  19.850   8.850
 4474POPC   GL2 4478  15.148  19.949   8.850
 4474POPC   C1A 4479  15.222  19.881   8.550
 4474POPC   D2A 4480  15.223  19.796   8.250
 4474POPC   C3A 4481  15.207  19.851   7.950
 4474POPC   C4A 4482  15.132  19.868   7.650
 4474POPC   C1B 4483  15.159  20.075   8.550
 4474POPC   C2B 4484  15.177  20.104   8.250
 4474POPC   C3B 4485  15.177  20.065   7.950
 4474POPC   C4B 4486  15.111  20.088   7.650
 4475POPC   NC3 4487  38.460  26.053   9.450
 4475POPC   PO4 4488  38.499  26.075   9.150
 4475POPC   GL1 4489  38.439  25.998   8.850
 4475POPC   GL2 4490  38.565  25.932   8.850
 4475POPC   C1A 4491  38.493  26.086   8.550
 4475POPC   D2A 4492  38.483  26.033   8.250
 4475POPC   C3A 4493  38.499  26.045   7.950
 4475POPC   C4A 4494  38.490  26.035   7.650
 4475POPC   C1B 4495  38.639  25.857   8.550
 4475POPC   C2B 4496  38.561  25.866   8.250
 4475POPC   C3B 4497  38.617  25.816   7.950
 4475POPC   C4B 4498  38.625  25.834   7.650
 4476POPC   NC3 4499   8.203  10.512   9.450
 4476POPC   PO4 4500   8.214  10.517   9.150
 4476POPC   GL1 4501   8.211  10.546   8.850
 4476POPC   GL2 4502   8.236  10.648   8.850
 4476POPC   C1A 4503   8.207  10.482   8.550
 4476POPC   D2A 4504   8.193  10.479   8.250
 4476POPC   C3A 4505   8.176  10.491   7.950
 4476POPC   C4A 4506   8.198  10.476   7.650
 4476POPC   C1B 4507   8.238  10.791   8.550
 4476POPC   C2B 4508   8.234  10.778   8.250
 4476POPC   C3B 4509   8.235  10.759   7.950
 4476POPC   C4B 4510   8.252  10.773   7.650
 4477POPC   NC3 4511  20.639   4.355   9.450
 4477POPC   PO4 4512  20.633   4.286   9.150
 4477POPC   GL1 4513  20.619   4.283   8.850
 4477POPC   GL2 4514  20.537   4.283   8.850
 4477POPC   C1A 4515  20.597   4.346   8.550
 4477POPC   D2A 4516  20.572   4.318   8.250
 4477POPC   C3A 4517  20.627   4.346   7.950
 4477POPC   C4A 4518  20.612   4.355   7.650
 4477POPC   C1B 4519  20.365   4.277   8.550
 4477POPC   C2B 4520  20.391   4.260   8.250
 4477POPC   C3B 4521  20.415   4.244   7.950
 4477POPC   C4B 4522  20.420   4.278   7.650
 4478POPC   NC3 4523  10.507  44.708   9.450
 4478POPC   PO4 4524  10.531  44.633   9.150
 4478POPC   GL1 4525  10.502  44.701   8.850
 4478POPC   GL2 4526  10.666  44.669   8.850
 4478POPC   C1A 4527  10.538  44.688   8.550
 4478POPC   D2A 4528  10.553  44.654   8.250
 4478POPC   C3A 4529  10.531  44.696   7.950
 4478POPC   C4A 4530  10.554  44.699   7.650
 4478POPC   C1B 4531  10.790  44.635   8.550
 4478POPC   C2B 4532  10.759  44.639   8.250
 4478POPC   C3B 4533  10.755  44.553   7.950
 4478POPC   C4B 4534  10.764  44.613   7.650
 4479POPC   NC3 4535  10.568  40.011   9.450
 4479POPC   PO4 4536  10.499  39.982   9.150
 4479POPC   GL1 4537  10.573  40.016   8.850
 4479POPC   GL2 4538  10.409  40.011   8.850
 4479POPC   C1A 4539  10.554  40.034   8.550
 4479POPC   D2A 4540  10.508  40.044   8.250
 4479POPC   C3A 4541  10.535  40.051   7.950
 4479POPC   C4A 4542  10.481  39.965   7.650
 4479POPC   C1B 4543  10.243  39.992   8.550
 4479POPC   C2B 4544  10.317  39.976   8.250
 4479POPC   C3B 4545  10.231  40.008   7.950
 4479POPC   C4B 4546  10.242  39.974   7.650
 4480POPC   NC3 4547  26.089  10.534   9.450
 4480POPC   PO4 4548  26.075  10.541   9.150
 4480POPC   GL1 4549  26.033  10.544   8.850
 4480POPC   GL2 4550  26.176  10.596   8.850
 4480POPC   C1A 4551  26.056  10.525   8.550
 4480POPC   D2A 4552  26.033  10.523   8.250
 4480POPC   C3A 4553  26.020  10.509   7.950
 4480POPC   C4A 4554  25.996  10.509   7.650
 4480POPC   C1B 4555  26.285  10.672   8.550
 4480POPC   C2B 4556  26.250  10.630   8.250
 4480POPC   C3B 4557  26.267  10.640   7.950
 4480POPC   C4B 4558  26.261  10.608   7.650
 4481POPC   NC3 4559  22.196  14.441   9.450
 4481POPC   PO4 4560  22.155  14.448   9.150
 4481POPC   GL1 4561  22.115  14.393   8.850
 4481POPC   GL2 4562  22.119  14.277   8.850
 4481POPC   C1A 4563  22.183  14.401   8.550
 4481POPC   D2A 4564  22.134  14.441   8.250
 4481POPC   C3A 4565  22.128  14.362   7.950
 4481POPC   C4A 4566  22.134  14.416   7.650
 4481POPC   C1B 4567  22.093  14.201   8.550
 4481POPC   C2B 4568  22.090  14.211   8.250
 4481POPC   C3B 4569  22.072  14.189   7.950
 4481POPC   C4B 4570  22.055  14.157   7.650
 4482POPC   NC3 4571  32.293   0.419   9.450
 4482POPC   PO4 4572  32.286   0.487   9.150
 4482POPC   GL1 4573  32.205   0.393   8.850
 4482POPC   GL2 4574  32.357   0.518   8.850
 4482POPC   C1A 4575  32.277   0.423   8.550
 4482POPC   D2A 4576  32.271   0.428   8.250
 4482POPC   C3A 4577  32.232   0.453   7.950
 4482POPC   C4A 4578  32.253   0.389   7.650
 4482POPC   C1B 4579  32.467   0.581   8.550
 4482POPC   C2B 4580  32.479   0.519   8.250
 4482POPC   C3B 4581  32.510   0.501   7.950
 4482POPC   C4B 4582  32.478   0.549   7.650
 4483POPC   NC3 4583  12.880  34.596   9.450
 4483POPC   PO4 4584  12.883  34.526   9.150
 4483POPC   GL1 4585  12.885  34.573   8.850
 4483POPC   GL2 4586  13.006  34.584   8.850
 4483POPC   C1A 4587  12.851  34.609   8.550
 4483POPC   D2A 4588  12.834  34.574   8.250
 4483POPC   C3A 4589  12.819  34.545   7.950
 4483POPC   C4A 4590  12.810  34.526   7.650
 4483POPC   C1B 4591  13.100  34.706   8.550
 4483POPC   C2B 4592  13.056  34.705   8.250
 4483POPC   C3B 4593  13.076  34.675   7.950
 4483POPC   C4B 4594  13.122  34.670   7.650
 4484POPC   NC3 4595   8.997   2.732   9.450
 4484POPC   PO4 4596   8.951   2.718   9.150
 4484POPC   GL1 4597   8.986   2.797   8.850
 4484POPC   GL2 4598   9.111   2.792   8.850
 4484POPC   C1A 4599   9.022   2.747   8.550
 4484POPC   D2A 4600   8.956   2.810   8.250
 4484POPC   C3A 4601   8.930   2.791   7.950
 4484POPC   C4A 4602   8.923   2.757   7.650
 4484POPC   C1B 4603   9.181   2.911   8.550
 4484POPC   C2B 4604   9.142   2.862   8.250
 4484POPC   C3B 4605   9.157   2.936   7.950
 4484POPC   C4B 4606   9.159   2.933   7.650
 4485POPC   NC3 4607  43.895  32.254   9.450
 4485POPC   PO4 4608  43.881  32.245   9.150
 4485POPC   GL1 4609  43.922  32.208   8.850
 4485POPC   GL2 4610  43.966  32.340   8.850
 4485POPC   C1A 4611  43.929  32.263   8.550
 4485POPC   D2A 4612  43.924  32.256   8.250
 4485POPC   C3A 4613  43.857  32.206   7.950
 4485POPC   C4A 4614  43.890  32.249   7.650
 4485POPC   C1B 4615  44.111  32.415   8.550
 4485POPC   C2B 4616  44.084  32.376   8.250
 4485POPC   C3B 4617  44.105  32.363   7.950
 4485POPC   C4B 4618  44.043  32.457   7.650
 4486POPC   NC3 4619  16.751   3.513   9.450
 4486POPC   PO4 4620  16.777   3.527   9.150
 4486POPC   GL1 4621  16.739   3.589   8.850
 4486POPC   GL2 4622  16.609   3.668   8.850
 4486POPC   C1A 4623  16.708   3.569   8.550
 4486POPC   D2A 4624  16.755   3.537   8.250
 4486POPC   C3A 4625  16.738   3.584   7.950
 4486POPC   C4A 4626  16.761   3.509   7.650
 4486POPC   C1B 4627  16.525   3.741   8.550
 4486POPC   C2B 4628  16.536   3.675   8.250
 4486POPC   C3B 4629  16.490   3.681   7.950
 4486POPC   C4B 4630  16.511   3.660   7.650
 4487POPC   NC3 4631  12.029  12.124   9.450
 4487POPC   PO4 4632  12.076  12.057   9.150
 4487POPC   GL1 4633  12.048  12.055   8.850
 4487POPC   GL2 4634  12.117  12.006   8.850
 4487POPC   C1A 4635  12.036  12.094   8.550
 4487POPC   D2A 4636  12.032  12.038   8.250
 4487POPC   C3A 4637  12.073  12.091   7.950
 4487POPC   C4A 4638  12.101  12.120   7.650
 4487POPC   C1B 4639  12.155  11.809   8.550
 4487POPC   C2B 4640  12.141  11.881   8.250
 4487POPC   C3B 4641  12.166  11.854   7.950
 4487POPC   C4B 4642  12.188  11.801   7.650
 4488POPC   NC3 4643   0.438  41.561   9.450
 4488POPC   PO4 4644   0.438  41.593   9.150
 4488POPC   GL1 4645   0.414  41.547   8.850
 4488POPC   GL2 4646   0.532  41.578   8.850
 4488POPC   C1A 4647   0.481  41.591   8.550
 4488POPC   D2A 4648   0.390  41.589   8.250
 4488POPC   C3A 4649   0.426  41.584   7.950
 4488POPC   C4A 4650   0.396  41.559   7.650
 4488POPC   C1B 4651   0.663  41.682   8.550
 4488POPC   C2B 4652   0.681  41.693   8.250
 4488POPC   C3B 4653   0.609  41.640   7.950
 4488POPC   C4B 4654   0.669  41.723   7.650
 4489POPC   NC3 4655  28.404  39.205   9.450
 4489POPC   PO4 4656  28.406  39.191   9.150
 4489POPC   GL1 4657  28.324  39.238   8.850
 4489POPC   GL2 4658  28.225  39.250   8.850
 4489POPC   C1A 4659  28.408  39.255   8.550
 4489POPC   D2A 4660  28.416  39.195   8.250
 4489POPC   C3A 4661  28.342  39.254   7.950
 4489POPC   C4A 4662  28.325  39.240   7.650
 4489POPC   C1B 4663  28.108  39.195   8.550
 4489POPC   C2B 4664  28.147  39.214   8.250
 4489POPC   C3B 4665  28.133  39.137   7.950
 4489POPC   C4B 4666  28.080  39.207   7.650
 4490POPC   NC3 4667  36.104   8.171   9.450
 4490POPC   PO4 4668  36.152   8.206   9.150
 4490POPC   GL1 4669  36.158   8.241   8.850
 4490POPC   GL2 4670  36.088   8.310   8.850
 4490POPC   C1A 4671  36.107   8.241   8.550
 4490POPC   D2A 4672  36.172   8.192   8.250
 4490POPC   C3A 4673  36.102   8.194   7.950
 4490POPC   C4A 4674  36.099   8.234   7.650
 4490POPC   C1B 4675  36.026   8.405   8.550
 4490POPC   C2B 4676  36.041   8.397   8.250
 4490POPC   C3B 4677  36.039   8.426   7.950
 4490POPC   C4B 4678  36.013   8.408   7.650
 4491POPC   NC3 4679  19.826  28.350   9.450
 4491POPC   PO4 4680  19.879  28.417   9.150
 4491POPC   GL1 4681  19.860  28.399   8.850
 4491POPC   GL2 4682  19.916  28.517   8.850
 4491POPC   C1A 4683  19.871  28.392   8.550
 4491POPC   D2A 4684  19.853  28.377   8.250
 4491POPC   C3A 4685  19.807  28.371   7.950
 4491POPC   C4A 4686  19.842  28.331   7.650
 4491POPC   C1B 4687  19.972  28.535   8.550
 4491POPC   C2B 4688  19.926  28.591   8.250
 4491POPC   C3B 4689  19.934  28.547   7.950
 4491POPC   C4B 4690  19.979  28.625   7.650
 4492POPC   NC3 4691  19.069  16.705   9.450
 4492POPC   PO4 4692  19.055  16.698   9.150
 4492POPC   GL1 4693  19.043  16.722   8.850
 4492POPC   GL2 4694  19.160  16.616   8.850
 4492POPC   C1A 4695  19.056  16.749   8.550
 4492POPC   D2A 4696  19.024  16.695   8.250
 4492POPC   C3A 4697  19.019  16.762   7.950
 4492POPC   C4A 4698  19.057  16.757   7.650
 4492POPC   C1B 4699  19.265  16.521   8.550
 4492POPC   C2B 4700  19.205  16.578   8.250
 4492POPC   C3B 4701  19.231  16.559   7.950
 4492POPC   C4B 4702  19.210  16.566   7.650
 4493POPC   NC3 4703  28.387  29.875   9.450
 4493POPC   PO4 4704  28.390  29.908   9.150
 4493POPC   GL1 4705  28.395  29.920   8.850
 4493POPC   GL2 4706  28.216  29.853   8.850
 4493POPC   C1A 4707  28.322  29.956   8.550
 4493POPC   D2A 4708  28.391  29.969   8.250
 4493POPC   C3A 4709  28.378  29.906   7.950
 4493POPC   C4A 4710  28.387  29.886   7.650
 4493POPC   C1B 4711  28.173  29.861   8.550
 4493POPC   C2B 4712  28.150  29.888   8.250
 4493POPC   C3B 4713  28.173  29.866   7.950
 4493POPC   C4B 4714  28.162  29.827   7.650
 4494POPC   NC3 4715  14.445  34.625   9.450
 4494POPC   PO4 4716  14.390  34.602   9.150
 4494POPC   GL1 4717  14.441  34.567   8.850
 4494POPC   GL2 4718  14.283  34.442   8.850
 4494POPC   C1A 4719  14.361  34.584   8.550
 4494POPC   D2A 4720  14.386  34.601   8.250
 4494POPC   C3A 4721  14.397  34.611   7.950
 4494POPC   C4A 4722  14.442  34.555   7.650
 4494POPC   C1B 4723  14.243  34.368   8.550
 4494POPC   C2B 4724  14.271  34.363   8.250
 4494POPC   C3B 4725  14.228  34.385   7.950
 4494POPC   C4B 4726  14.200  34.446   7.650
 4495POPC   NC3 4727   0.406   0.452   9.450
 4495POPC   PO4 4728   0.452   0.436   9.150
 4495POPC   GL1 4729   0.460   0.473   8.850
 4495POPC   GL2 4730   0.427   0.292   8.850
 4495POPC   C1A 4731   0.414   0.390   8.550
 4495POPC   D2A 4732   0.467   0.423   8.250
 4495POPC   C3A 4733   0.434   0.431   7.950
 4495POPC   C4A 4734   0.439   0.432   7.650
 4495POPC   C1B 4735   0.367   0.239   8.550
 4495POPC   C2B 4736   0.380   0.195   8.250
 4495POPC   C3B 4737   0.367   0.171   7.950
 4495POPC   C4B 4738   0.321   0.231   7.650
 4496POPC   NC3 4739  22.925   8.989   9.450
 4496POPC   PO4 4740  22.959   9.003   9.150
 4496POPC   GL1 4741  22.940   8.957   8.850
 4496POPC   GL2 4742  23.103   8.993   8.850
 4496POPC   C1A 4743  22.896   9.009   8.550
 4496POPC   D2A 4744  22.903   8.977   8.250
 4496POPC   C3A 4745  22.977   8.959   7.950
 4496POPC   C4A 4746  22.968   8.938   7.650
 4496POPC   C1B 4747  23.219   8.985   8.550
 4496POPC   C2B 4748  23.159   9.036   8.250
 4496POPC   C3B 4749  23.133   8.997   7.950
 4496POPC   C4B 4750  23.160   8.994   7.650
 4497POPC   NC3 4751  17.544   6.689   9.450
 4497POPC   PO4 4752  17.479   6.693   9.150
 4497POPC   GL1 4753  17.537   6.680   8.850
 4497POPC   GL2 4754  17.572   6.703   8.850
 4497POPC   C1A 4755  17.516   6.656   8.550
 4497POPC   D2A 4756  17.508   6.639   8.250
 4497POPC   C3A 4757  17.543   6.604   7.950
 4497POPC   C4A 4758  17.475   6.681   7.650
 4497POPC   C1B 4759  17.700   6.826   8.550
 4497POPC   C2B 4760  17.694   6.831   8.250
 4497POPC   C3B 4761  17.670   6.799   7.950
 4497POPC   C4B 4762  17.711   6.843   7.650
 4498POPC   NC3 4763  36.869  41.577   9.450
 4498POPC   PO4 4764  36.858  41.559   9.150
 4498POPC   GL1 4765  36.926  41.573   8.850
 4498POPC   GL2 4766  36.848  41.401   8.850
 4498POPC   C1A 4767  36.899  41.578   8.550
 4498POPC   D2A 4768  36.918  41.529   8.250
 4498POPC   C3A 4769  36.899  41.579   7.950
 4498POPC   C4A 4770  36.887  41.552   7.650
 4498POPC   C1B 4771  36.879  41.297   8.550
 4498POPC   C2B 4772  36.811  41.296   8.250
 4498POPC   C3B 4773  36.821  41.345   7.950
 4498POPC   C4B 4774  36.800  41.275   7.650
 4499POPC   NC3 4775  14.411   9.716   9.450
 4499POPC   PO4 4776  14.356   9.747   9.150
 4499POPC   GL1 4777  14.392   9.720   8.850
 4499POPC   GL2 4778  14.331   9.722   8.850
 4499POPC   C1A 4779  14.368   9.756   8.550
 4499POPC   D2A 4780  14.381   9.716   8.250
 4499POPC   C3A 4781  14.362   9.781   7.950
 4499POPC   C4A 4782  14.419   9.745   7.650
 4499POPC   C1B 4783  14.181   9.649   8.550
 4499POPC   C2B 4784  14.166   9.667   8.250
 4499POPC   C3B 4785  14.146   9.615   7.950
 4499POPC   C4B 4786  14.168   9.651   7.650
 4500POPC   NC3 4787   1.165   5.097   9.450
 4500POPC   PO4 4788   1.245   5.068   9.150
 4500POPC   GL1 4789   1.251   5.045   8.850
 4500POPC   GL2 4790   1.262   5.020   8.850
 4500POPC   C1A 4791   1.185   5.109   8.550
 4500POPC   D2A 4792   1.186   5.127   8.250
 4500POPC   C3A 4793   1.221   5.062   7.950
 4500POPC   C4A 4794   1.222   5.099   7.650
 4500POPC   C1B 4795   1.377   4.847   8.550
 4500POPC   C2B 4796   1.385   4.879   8.250
 4500POPC   C3B 4797   1.319   4.878   7.950
 4500POPC   C4B 4798   1.369   4.900   7.650
 4501POPC   NC3 4799   6.677  36.914   9.450
 4501POPC   PO4 4800   6.607  36.918   9.150
 4501POPC   GL1 4801   6.643  36.920   8.850
 4501POPC   GL2 4802   6.684  36.794   8.850
 4501POPC   C1A 4803   6.604  36.911   8.550
 4501POPC   D2A 4804   6.661  36.914   8.250
 4501POPC   C3A 4805   6.633  36.913   7.950
 4501POPC   C4A 4806   6.597  36.928   7.650
 4501POPC   C1B 4807   6.683  36.683   8.550
 4501POPC   C2B 4808   6.744  36.689   8.250
 4501POPC   C3B 4809   6.736  36.687   7.950
 4501POPC   C4B 4810   6.762  36.621   7.650
 4502POPC   NC3 4811  38.446  13.618   9.450
 4502POPC   PO4 4812  38.474  13.634   9.150
 4502POPC   GL1 4813  38.425  13.642   8.850
 4502POPC   GL2 4814  38.589  13.641   8.850
 4502POPC   C1A 4815  38.490  13.647   8.550
 4502POPC   D2A 4816  38.414  13.628   8.250
 4502POPC   C3A 4817  38.414  13.638   7.950
 4502POPC   C4A 4818  38.444  13.606   7.650
 4502POPC   C1B 4819  38.658  13.722   8.550
 4502POPC   C2B 4820  38.656  13.783   8.250
 4502POPC   C3B 4821  38.638  13.783   7.950
 4502POPC   C4B 4822  38.648  13.771   7.650
 4503POPC   NC3 4823   9.769  27.639   9.450
 4503POPC   PO4 4824   9.722  27.637   9.150
 4503POPC   GL1 4825   9.741  27.570   8.850
 4503POPC   GL2 4826   9.826  27.541   8.850
 4503POPC   C1A 4827   9.793  27.623   8.550
 4503POPC   D2A 4828   9.754  27.549   8.250
 4503POPC   C3A 4829   9.707  27.636   7.950
 4503POPC   C4A 4830   9.713  27.560   7.650
 4503POPC   C1B 4831   9.951  27.408   8.550
 4503POPC   C2B 4832   9.919  27.482   8.250
 4503POPC   C3B 4833   9.920  27.409   7.950
 4503POPC   C4B 4834   9.923  27.409   7.650
 4504POPC   NC3 4835  29.936  36.139   9.450
 4504POPC   PO4 4836  29.876  36.155   9.150
 4504POPC   GL1 4837  29.951  36.108   8.850
 4504POPC   GL2 4838  29.872  36.265   8.850
 4504POPC   C1A 4839  29.959  36.156   8.550
 4504POPC   D2A 4840  29.874  36.127   8.250
 4504POPC   C3A 4841  29.890  36.096   7.950
 4504POPC   C4A 4842  29.965  36.150   7.650
 4504POPC   C1B 4843  29.878  36.330   8.550
 4504POPC   C2B 4844  29.875  36.337   8.250
 4504POPC   C3B 4845  29.921  36.386   7.950
 4504POPC   C4B 4846  29.903  36.341   7.650
 4505POPC   NC3 4847  33.828  40.027   9.450
 4505POPC   PO4 4848  33.766  40.053   9.150
 4505POPC   GL1 4849  33.810  40.013   8.850
 4505POPC   GL2 4850  33.904  39.945   8.850
 4505POPC   C1A 4851  33.814  39.971   8.550
 4505POPC   D2A 4852  33.817  40.002   8.250
 4505POPC   C3A 4853  33.780  40.057   7.950
 4505POPC   C4A 4854  33.799  40.006   7.650
 4505POPC   C1B 4855  34.008  39.788   8.550
 4505POPC   C2B 4856  33.938  39.883   8.250
 4505POPC   C3B 4857  34.013  39.792   7.950
 4505POPC   C4B 4858  34.000  39.883   7.650
 4506POPC   NC3 4859  44.711  41.584   9.450
 4506POPC   PO4 4860  44.668  41.580   9.150
 4506POPC   GL1 4861  44.650  41.570   8.850
 4506POPC   GL2 4862  44.789  41.464   8.850
 4506POPC   C1A 4863  44.623  41.566   8.550
 4506POPC   D2A 4864  44.658  41.523   8.250
 4506POPC   C3A 4865  44.665  41.577   7.950
 4506POPC   C4A 4866  44.635  41.522   7.650
 4506POPC   C1B 4867  44.776  41.318   8.550
 4506POPC   C2B 4868  44.851  41.343   8.250
 4506POPC   C3B 4869  44.774  41.367   7.950
 4506POPC   C4B 4870  44.820  41.391   7.650
 4507POPC   NC3 4871  39.260  26.090   9.450
 4507POPC   PO4 4872  39.250  26.069   9.150
 4507POPC   GL1 4873  39.226  26.056   8.850
 4507POPC   GL2 4874  39.306  25.922   8.850
 4507POPC   C1A 4875  39.250  25.999   8.550
 4507POPC   D2A 4876  39.266  26.031   8.250
 4507POPC   C3A 4877  39.234  26.015   7.950
 4507POPC   C4A 4878  39.218  26.081   7.650
 4507POPC   C1B 4879  39.432  25.900   8.550
 4507POPC   C2B 4880  39.450  25.887   8.250
 4507POPC   C3B 4881  39.400  25.883   7.950
 4507POPC   C4B 4882  39.409  25.905   7.650
 4508POPC   NC3 4883  20.631  40.761   9.450
 4508POPC   PO4 4884  20.580  40.742   9.150
 4508POPC   GL1 4885  20.638  40.748   8.850
 4508POPC   GL2 4886  20.668  40.618   8.850
 4508POPC   C1A 4887  20.579  40.780   8.550
 4508POPC   D2A 4888  20.592  40.733   8.250
 4508POPC   C3A 4889  20.573  40.803   7.950
 4508POPC   C4A 4890  20.646  40.759   7.650
 4508POPC   C1B 4891  20.686  40.579   8.550
 4508POPC   C2B 4892  20.614  40.574   8.250
 4508POPC   C3B 4893  20.628  40.575   7.950
 4508POPC   C4B 4894  20.604  40.576   7.650
 4509POPC   NC3 4895  43.853   8.197   9.450
 4509POPC   PO4 4896  43.924   8.168   9.150
 4509POPC   GL1 4897  43.881   8.184   8.850
 4509POPC   GL2 4898  43.870   8.093   8.850
 4509POPC   C1A 4899  43.867   8.178   8.550
 4509POPC   D2A 4900  43.932   8.166   8.250
 4509POPC   C3A 4901  43.862   8.166   7.950
 4509POPC   C4A 4902  43.931   8.221   7.650
 4509POPC   C1B 4903  43.859   7.913   8.550
 4509POPC   C2B 4904  43.857   7.989   8.250
 4509POPC   C3B 4905  43.883   7.956   7.950
 4509POPC   C4B 4906  43.881   7.922   7.650
 4510POPC   NC3 4907  12.101  20.621   9.450
 4510POPC   PO4 4908  12.081  20.599   9.150
 4510POPC   GL1 4909  12.075  20.627   8.850
 4510POPC   GL2 4910  12.154  20.722   8.850
 4510POPC   C1A 4911  12.114  20.640   8.550
 4510POPC   D2A 4912  12.099  20.645   8.250
 4510POPC   C3A 4913  12.053  20.637   7.950
 4510POPC   C4A 4914  12.056  20.645   7.650
 4510POPC   C1B 4915  12.203  20.836   8.550
 4510POPC   C2B 4916  12.271  20.771   8.250
 4510POPC   C3B 4917  12.178  20.781   7.950
 4510POPC   C4B 4918  12.198  20.808   7.650
 4511POPC   NC3 4919  43.919   7.454   9.450
 4511POPC   PO4 4920  43.884   7.398   9.150
 4511POPC   GL1 4921  43.841   7.380   8.850
 4511POPC   GL2 4922  43.983   7.432   8.850
 4511POPC   C1A 4923  43.921   7.463   8.550
 4511POPC   D2A 4924  43.889   7.410   8.250
 4511POPC   C3A 4925  43.935   7.460   7.950
 4511POPC   C4A 4926  43.928   7.467   7.650
 4511POPC   C1B 4927  44.086   7.364   8.550
 4511POPC   C2B 4928  44.137   7.348   8.250
 4511POPC   C3B 4929  44.082   7.378   7.950
 4511POPC   C4B 4930  44.134   7.340   7.650
 4512POPC   NC3 4931   1.259  42.358   9.450
 4512POPC   PO4 4932   1.224  42.372   9.150
 4512POPC   GL1 4933   1.204  42.296   8.850
 4512POPC   GL2 4934   1.303  42.338   8.850
 4512POPC   C1A 4935   1.196  42.382   8.550
 4512POPC   D2A 4936   1.246  42.329   8.250
 4512POPC   C3A 4937   1.195  42.352   7.950
 4512POPC   C4A 4938   1.165  42.329   7.650
 4512POPC   C1B 4939   1.434  42.293   8.550
 4512POPC   C2B 4940   1.409  42.230   8.250
 4512POPC   C3B 4941   1.475  42.266   7.950
 4512POPC   C4B 4942   1.478  42.215   7.650
 4513POPC   NC3 4943  29.889  37.711   9.450
 4513POPC   PO4 4944  29.948  37.688   9.150
 4513POPC   GL1 4945  29.938  37.683   8.850
 4513POPC   GL2 4946  29.887  37.839   8.850
 4513POPC   C1A 4947  29.897  37.653   8.550
 4513POPC   D2A 4948  29.958  37.720   8.250
 4513POPC   C3A 4949  29.959  37.723   7.950
 4513POPC   C4A 4950  29.912  37.655   7.650
 4513POPC   C1B 4951  29.874  37.929   8.550
 4513POPC   C2B 4952  29.866  37.919   8.250
 4513POPC   C3B 4953  29.804  37.951   7.950
 4513POPC   C4B 4954  29.806  37.875   7.650
 4514POPC   NC3 4955   1.958  12.061   9.450
 4514POPC   PO4 4956   1.993  12.078   9.150
 4514POPC   GL1 4957   1.987  12.042   8.850
 4514POPC   GL2 4958   1.960  12.216   8.850
 4514POPC   C1A 4959   1.981  12.079   8.550
 4514POPC   D2A 4960   1.984  12.123   8.250
 4514POPC   C3A 4961   2.000  12.053   7.950
 4514POPC   C4A 4962   2.005  12.097   7.650
 4514POPC   C1B 4963   1.979  12.337   8.550
 4514POPC   C2B 4964   1.998  12.371   8.250
 4514POPC   C3B 4965   2.004  12.330   7.950
 4514POPC   C4B 4966   1.976  12.310   7.650
 4515POPC   NC3 4967   2.728  40.826   9.450
 4515POPC   PO4 4968   2.763  40.827   9.150
 4515POPC   GL1 4969   2.778  40.774   8.850
 4515POPC   GL2 4970   2.786  40.680   8.850
 4515POPC   C1A 4971   2.762  40.738   8.550
 4515POPC   D2A 4972   2.807  40.772   8.250
 4515POPC   C3A 4973   2.815  40.740   7.950
 4515POPC   C4A 4974   2.804  40.794   7.650
 4515POPC   C1B 4975   2.919  40.595   8.550
 4515POPC   C2B 4976   2.845  40.560   8.250
 4515POPC   C3B 4977   2.917  40.586   7.950
 4515POPC   C4B 4978   2.882  40.540   7.650
 4516POPC   NC3 4979  34.602   3.575   9.450
 4516POPC   PO4 4980  34.556   3.502   9.150
 4516POPC   GL1 4981  34.603   3.511   8.850
 4516POPC   GL2 4982  34.502   3.407   8.850
 4516POPC   C1A 4983  34.533   3.506   8.550
 4516POPC   D2A 4984  34.597   3.512   8.250
 4516POPC   C3A 4985  34.556   3.498   7.950
 4516POPC   C4A 4986  34.593   3.549   7.650
 4516POPC   C1B 4987  34.448   3.361   8.550
 4516POPC   C2B 4988  34.433   3.267   8.250
 4516POPC   C3B 4989  34.443   3.308   7.950
 4516POPC   C4B 4990  34.501   3.304   7.650
 4517POPC   NC3 4991   8.989  23.745   9.450
 4517POPC   PO4 4992   9.004  23.740   9.150
 4517POPC   GL1 4993   8.980  23.731   8.850
 4517POPC   GL2 4994   8.930  23.593   8.850
 4517POPC   C1A 4995   9.010  23.684   8.550
 4517POPC   D2A 4996   9.004  23.700   8.250
 4517POPC   C3A 4997   8.955  23.698   7.950
 4517POPC   C4A 4998   8.970  23.664   7.650
 4517POPC   C1B 4999   8.790  23.493   8.550
 4517POPC   C2B 5000   8.782  23.548   8.250
 4517POPC   C3B 5001   8.815  23.498   7.950
 4517POPC   C4B 5002   8.829  23.507   7.650
 4518POPC   NC3 5003  37.674   6.665   9.450
 4518POPC   PO4 5004  37.635   6.652   9.150
 4518POPC   GL1 5005  37.680   6.690   8.850
 4518POPC   GL2 5006  37.651   6.527   8.850
 4518POPC   C1A 5007  37.691   6.690   8.550
 4518POPC   D2A 5008  37.635   6.660   8.250
 4518POPC   C3A 5009  37.668   6.648   7.950
 4518POPC   C4A 5010  37.701   6.679   7.650
 4518POPC   C1B 5011  37.750   6.363   8.550
 4518POPC   C2B 5012  37.730   6.383   8.250
 4518POPC   C3B 5013  37.686   6.361   7.950
 4518POPC   C4B 5014  37.705   6.364   7.650
 4519POPC   NC3 5015  36.085  22.161   9.450
 4519POPC   PO4 5016  36.098  22.199   9.150
 4519POPC   GL1 5017  36.175  22.125   8.850
 4519POPC   GL2 5018  36.109  22.281   8.850
 4519POPC   C1A 5019  36.131  22.143   8.550
 4519POPC   D2A 5020  36.100  22.138   8.250
 4519POPC   C3A 5021  36.118  22.123   7.950
 4519POPC   C4A 5022  36.155  22.119   7.650
 4519POPC   C1B 5023  36.094  22.365   8.550
 4519POPC   C2B 5024  36.066  22.431   8.250
 4519POPC   C3B 5025  36.067  22.409   7.950
 4519POPC   C4B 5026  36.067  22.397   7.650
 4520POPC   NC3 5027  36.943  10.495   9.450
 4520POPC   PO4 5028  36.884  10.494   9.150
 4520POPC   GL1 5029  36.896  10.539   8.850
 4520POPC   GL2 5030  36.845  10.416   8.850
 4520POPC   C1A 5031  36.888  10.515   8.550
 4520POPC   D2A 5032  36.929  10.552   8.250
 4520POPC   C3A 5033  36.857  10.493   7.950
 4520POPC   C4A 5034  36.917  10.522   7.650
 4520POPC   C1B 5035  36.840  10.288   8.550
 4520POPC   C2B 5036  36.827  10.315   8.250
 4520POPC   C3B 5037  36.806  10.259   7.950
 4520POPC   C4B 5038  36.822  10.275   7.650
 4521POPC   NC3 5039  35.352  15.920   9.450
 4521POPC   PO4 5040  35.375  15.942   9.150
 4521POPC   GL1 5041  35.371  15.906   8.850
 4521POPC   GL2 5042  35.189  15.926   8.850
 4521POPC   C1A 5043  35.354  15.933   8.550
 4521POPC   D2A 5044  35.391  15.982   8.250
 4521POPC   C3A 5045  35.381  15.929   7.950
 4521POPC   C4A 5046  35.398  15.935   7.650
 4521POPC   C1B 5047  35.119  15.933   8.550
 4521POPC   C2B 5048  35.087  15.917   8.250
 4521POPC   C3B 5049  35.080  15.971   7.950
 4521POPC   C4B 5050  35.065  15.918   7.650
 4522POPC   NC3 5051  33.819  10.513   9.450
 4522POPC   PO4 5052  33.750  10.494   9.150
 4522POPC   GL1 5053  33.809  10.502   8.850
 4522POPC   GL2 5054  33.800  10.447   8.850
 4522POPC   C1A 5055  33.840  10.487   8.550
 4522POPC   D2A 5056  33.792  10.547   8.250
 4522POPC   C3A 5057  33.822  10.517   7.950
 4522POPC   C4A 5058  33.790  10.525   7.650
 4522POPC   C1B 5059  33.808  10.299   8.550
 4522POPC   C2B 5060  33.798  10.237   8.250
 4522POPC   C3B 5061  33.840  10.264   7.950
 4522POPC   C4B 5062  33.773  10.308   7.650
 4523POPC   NC3 5063  12.802  30.655   9.450
 4523POPC   PO4 5064  12.803  30.714   9.150
 4523POPC   GL1 5065  12.864  30.696   8.850
 4523POPC   GL2 5066  12.858  30.608   8.850
 4523POPC   C1A 5067  12.865  30.686   8.550
 4523POPC   D2A 5068  12.857  30.723   8.250
 4523POPC   C3A 5069  12.824  30.693   7.950
 4523POPC   C4A 5070  12.844  30.676   7.650
 4523POPC   C1B 5071  12.818  30.476   8.550
 4523POPC   C2B 5072  12.836  30.494   8.250
 4523POPC   C3B 5073  12.887  30.484   7.950
 4523POPC   C4B 5074  12.844  30.436   7.650
 4524POPC   NC3 5075  12.887  27.638   9.450
 4524POPC   PO4 5076  12.852  27.571   9.150
 4524POPC   GL1 5077  12.868  27.584   8.850
 4524POPC   GL2 5078  12.711  27.613   8.850
 4524POPC   C1A 5079  12.838  27.641   8.550
 4524POPC   D2A 5080  12.836  27.577   8.250
 4524POPC   C3A 5081  12.871  27.582   7.950
 4524POPC   C4A 5082  12.876  27.566   7.650
 4524POPC   C1B 5083  12.642  27.757   8.550
 4524POPC   C2B 5084  12.638  27.753   8.250
 4524POPC   C3B 5085  12.644  27.726   7.950
 4524POPC   C4B 5086  12.621  27.738   7.650
 4525POPC   NC3 5087  12.088  33.045   9.450
 4525POPC   PO4 5088  12.123  33.036   9.150
 4525POPC   GL1 5089  12.058  32.996   8.850
 4525POPC   GL2 5090  12.136  32.959   8.850
 4525POPC   C1A 5091  12.112  33.043   8.550
 4525POPC   D2A 5092  12.077  32.997   8.250
 4525POPC   C3A 5093  12.052  32.984   7.950
 4525POPC   C4A 5094  12.026  33.027   7.650
 4525POPC   C1B 5095  12.277  32.912   8.550
 4525POPC   C2B 5096  12.277  32.890   8.250
 4525POPC   C3B 5097  12.264  32.858   7.950
 4525POPC   C4B 5098  12.271  32.829   7.650
 4526POPC   NC3 5099  26.002   0.452   9.450
 4526POPC   PO4 5100  26.080   0.394   9.150
 4526POPC   GL1 5101  26.018   0.470   8.850
 4526POPC   GL2 5102  25.996   0.267   8.850
 4526POPC   C1A 5103  26.033   0.473   8.550
 4526POPC   D2A 5104  26.067   0.434   8.250
 4526POPC   C3A 5105  26.081   0.445   7.950
 4526POPC   C4A 5106  25.999   0.444   7.650
 4526POPC   C1B 5107  25.965   0.180   8.550
 4526POPC   C2B 5108  25.973   0.186   8.250
 4526POPC   C3B 5109  26.021   0.237   7.950
 4526POPC   C4B 5110  25.956   0.235   7.650
 4527POPC   NC3 5111  19.878  23.706   9.450
 4527POPC   PO4 5112  19.847  23.746   9.150
 4527POPC   GL1 5113  19.834  23.703   8.850
 4527POPC   GL2 5114  19.905  23.590   8.850
 4527POPC   C1A 5115  19.864  23.753   8.550
 4527POPC   D2A 5116  19.855  23.736   8.250
 4527POPC   C3A 5117  19.884  23.669   7.950
 4527POPC   C4A 5118  19.798  23.694   7.650
 4527POPC   C1B 5119  20.059  23.554   8.550
 4527POPC   C2B 5120  19.999  23.581   8.250
 4527POPC   C3B 5121  20.016  23.561   7.950
 4527POPC   C4B 5122  20.065  23.602   7.650
 4528POPC   NC3 5123  22.179  29.941   9.450
 4528POPC   PO4 5124  22.114  29.925   9.150
 4528POPC   GL1 5125  22.162  29.919   8.850
 4528POPC   GL2 5126  22.335  29.909   8.850
 4528POPC   C1A 5127  22.158  29.930   8.550
 4528POPC   D2A 5128  22.112  29.927   8.250
 4528POPC   C3A 5129  22.144  29.900   7.950
 4528POPC   C4A 5130  22.161  29.888   7.650
 4528POPC   C1B 5131  22.422  29.912   8.550
 4528POPC   C2B 5132  22.419  29.926   8.250
 4528POPC   C3B 5133  22.364  29.870   7.950
 4528POPC   C4B 5134  22.407  29.928   7.650
 4529POPC   NC3 5135  15.986  19.072   9.450
 4529POPC   PO4 5136  15.939  19.027   9.150
 4529POPC   GL1 5137  15.990  19.057   8.850
 4529POPC   GL2 5138  16.033  18.942   8.850
 4529POPC   C1A 5139  15.911  19.018   8.550
 4529POPC   D2A 5140  15.915  19.070   8.250
 4529POPC   C3A 5141  15.909  19.058   7.950
 4529POPC   C4A 5142  15.995  19.044   7.650
 4529POPC   C1B 5143  16.079  18.879   8.550
 4529POPC   C2B 5144  16.121  18.857   8.250
 4529POPC   C3B 5145  16.077  18.853   7.950
 4529POPC   C4B 5146  16.120  18.815   7.650
 4530POPC   NC3 5147   2.022  39.969   9.450
 4530POPC   PO4 5148   2.030  40.004   9.150
 4530POPC   GL1 5149   1.998  40.005   8.850
 4530POPC   GL2 5150   1.941  39.850   8.850
 4530POPC   C1A 5151   1.995  40.000   8.550
 4530POPC   D2A 5152   2.004  40.040   8.250
 4530POPC   C3A 5153   2.039  39.984   7.950
 4530POPC   C4A 5154   1.990  40.036   7.650
 4530POPC   C1B 5155   1.869  39.788   8.550
 4530POPC   C2B 5156   1.843  39.821   8.250
 4530POPC   C3B 5157   1.901  39.754   7.950
 4530POPC   C4B 5158   1.831  39.802   7.650
 4531POPC   NC3 5159  27.574  17.459   9.450
 4531POPC   PO4 5160  27.599  17.556   9.150
 4531POPC   GL1 5161  27.567  17.533   8.850
 4531POPC   GL2 5162  27.555  17.409   8.850
 4531POPC   C1A 5163  27.601  17.523   8.550
 4531POPC   D2A 5164  27.610  17.532   8.250
 4531POPC   C3A 5165  27.611  17.531   7.950
 4531POPC   C4A 5166  27.603  17.480   7.650
 4531POPC   C1B 5167  27.642  17.264   8.550
 4531POPC   C2B 5168  27.654  17.259   8.250
 4531POPC   C3B 5169  27.633  17.261   7.950
 4531POPC   C4B 5170  27.584  17.218   7.650
 4532POPC   NC3 5171  26.083  33.033   9.450
 4532POPC   PO4 5172  26.017  33.042   9.150
 4532POPC   GL1 5173  26.052  33.020   8.850
 4532POPC   GL2 5174  26.124  33.065   8.850
 4532POPC   C1A 5175  26.051  33.026   8.550
 4532POPC   D2A 5176  26.085  32.979   8.250
 4532POPC   C3A 5177  26.055  33.041   7.950
 4532POPC   C4A 5178  26.026  32.994   7.650
 4532POPC   C1B 5179  26.253  33.188   8.550
 4532POPC   C2B 5180  26.246  33.127   8.250
 4532POPC   C3B 5181  26.296  33.152   7.950
 4532POPC   C4B 5182  26.288  33.119   7.650
 4533POPC   NC3 5183  33.810   9.790   9.450
 4533POPC   PO4 5184  33.785   9.754   9.150
 4533POPC   GL1 5185  33.843   9.765   8.850
 4533POPC   GL2 5186  33.820   9.688   8.850
 4533POPC   C1A 5187  33.842   9.738   8.550
 4533POPC   D2A 5188  33.778   9.742   8.250
 4533POPC   C3A 5189  33.770   9.738   7.950
 4533POPC   C4A 5190  33.751   9.744   7.650
 4533POPC   C1B 5191  33.899   9.568   8.550
 4533POPC   C2B 5192  33.916   9.500   8.250
 4533POPC   C3B 5193  33.897   9.530   7.950
 4533POPC   C4B 5194  33.942   9.553   7.650
 4534POPC   NC3 5195   6.639   1.942   9.450
 4534POPC   PO4 5196   6.638   1.952   9.150
 4534POPC   GL1 5197   6.626   1.943   8.850
 4534POPC   GL2 5198   6.517   1.919   8.850
 4534POPC   C1A 5199   6.680   1.952   8.550
 4534POPC   D2A 5200   6.637   1.949   8.250
 4534POPC   C3A 5201   6.601   1.957   7.950
 4534POPC   C4A 5202   6.692   1.951   7.650
 4534POPC   C1B 5203   6.463   1.838   8.550
 4534POPC   C2B 5204   6.479   1.826   8.250
 4534POPC   C3B 5205   6.478   1.824   7.950
 4534POPC   C4B 5206   6.519   1.808   7.650
 4535POPC   NC3 5207   5.899  22.968   9.450
 4535POPC   PO4 5208   5.821  22.905   9.150
 4535POPC   GL1 5209   5.885  22.960   8.850
 4535POPC   GL2 5210   5.775  22.837   8.850
 4535POPC   C1A 5211   5.881  22.929   8.550
 4535POPC   D2A 5212   5.914  22.974   8.250
 4535POPC   C3A 5213   5.877  22.907   7.950
 4535POPC   C4A 5214   5.852  22.924   7.650
 4535POPC   C1B 5215   5.769  22.769   8.550
 4535POPC   C2B 5216   5.717  22.700   8.250
 4535POPC   C3B 5217   5.762  22.725   7.950
 4535POPC   C4B 5218   5.753  22.744   7.650
 4536POPC   NC3 5219  43.866  25.310   9.450
 4536POPC   PO4 5220  43.921  25.282   9.150
 4536POPC   GL1 5221  43.860  25.229   8.850
 4536POPC   GL2 5222  43.974  25.208   8.850
 4536POPC   C1A 5223  43.894  25.223   8.550
 4536POPC   D2A 5224  43.846  25.273   8.250
 4536POPC   C3A 5225  43.840  25.236   7.950
 4536POPC   C4A 5226  43.935  25.313   7.650
 4536POPC   C1B 5227  44.042  25.035   8.550
 4536POPC   C2B 5228  44.008  25.092   8.250
 4536POPC   C3B 5229  43.993  25.063   7.950
 4536POPC   C4B 5230  44.011  25.017   7.650
 4537POPC   NC3 5231  17.472  10.485   9.450
 4537POPC   PO4 5232  17.467  10.498   9.150
 4537POPC   GL1 5233  17.490  10.527   8.850
 4537POPC   GL2 5234  17.382  10.581   8.850
 4537POPC   C1A 5235  17.518  10.504   8.550
 4537POPC   D2A 5236  17.484  10.495   8.250
 4537POPC   C3A 5237  17.467  10.560   7.950
 4537POPC   C4A 5238  17.496  10.566   7.650
 4537POPC   C1B 5239  17.315  10.681   8.550
 4537POPC   C2B 5240  17.330  10.712   8.250
 4537POPC   C3B 5241  17.307  10.716   7.950
 4537POPC   C4B 5242  17.308  10.684   7.650
 4538POPC   NC3 5243  36.944  35.371   9.450
 4538POPC   PO4 5244  36.884  35.363   9.150
 4538POPC   GL1 5245  36.878  35.323   8.850
 4538POPC   GL2 5246  36.753  35.382   8.850
 4538POPC   C1A 5247  36.941  35.385   8.550
 4538POPC   D2A 5248  36.877  35.329   8.250
 4538POPC   C3A 5249  36.855  35.313   7.950
 4538POPC   C4A 5250  36.927  35.384   7.650
 4538POPC   C1B 5251  36.709  35.534   8.550
 4538POPC   C2B 5252  36.741  35.482   8.250
 4538POPC   C3B 5253  36.729  35.481   7.950
 4538POPC   C4B 5254  36.671  35.446   7.650
 4539POPC   NC3 5255  39.210  23.730   9.450
 4539POPC   PO4 5256  39.190  23.758   9.150
 4539POPC   GL1 5257  39.218  23.752   8.850
 4539POPC   GL2 5258  39.168  23.753   8.850
 4539POPC   C1A 5259  39.259  23.720   8.550
 4539POPC   D2A 5260  39.271  23.738   8.250
 4539POPC   C3A 5261  39.218  23.753   7.950
 4539POPC   C4A 5262  39.229  23.754   7.650
 4539POPC   C1B 5263  38.969  23.857   8.550
 4539POPC   C2B 5264  38.970  23.874   8.250
 4539POPC   C3B 5265  38.991  23.838   7.950
 4539POPC   C4B 5266  39.002  23.868   7.650
 4540POPC   NC3 5267  15.975  40.786   9.450
 4540POPC   PO4 5268  15.921  40.769   9.150
 4540POPC   GL1 5269  15.944  40.831   8.850
 4540POPC   GL2 5270  15.946  40.645   8.850
 4540POPC   C1A 5271  15.959  40.764   8.550
 4540POPC   D2A 5272  15.909  40.808   8.250
 4540POPC   C3A 5273  15.954  40.793   7.950
 4540POPC   C4A 5274  15.934  40.745   7.650
 4540POPC   C1B 5275  15.991  40.489   8.550
 4540POPC   C2B 5276  15.979  40.495   8.250
 4540POPC   C3B 5277  15.926  40.560   7.950
 4540POPC   C4B 5278  15.952  40.567   7.650
 4541POPC   NC3 5279  12.044  34.608   9.450
 4541POPC   PO4 5280  12.125  34.615   9.150
 4541POPC   GL1 5281  12.081  34.576   8.850
 4541POPC   GL2 5282  11.968  34.478   8.850
 4541POPC   C1A 5283  12.066  34.532   8.550
 4541POPC   D2A 5284  12.032  34.593   8.250
 4541POPC   C3A 5285  12.095  34.609   7.950
 4541POPC   C4A 5286  12.065  34.539   7.650
 4541POPC   C1B 5287  11.926  34.339   8.550
 4541POPC   C2B 5288  11.969  34.418   8.250
 4541POPC   C3B 5289  11.902  34.376   7.950
 4541POPC   C4B 5290  11.877  34.387   7.650
 4542POPC   NC3 5291  15.966  33.047   9.450
 4542POPC   PO4 5292  16.004  32.976   9.150
 4542POPC   GL1 5293  15.994  33.044   8.850
 4542POPC   GL2 5294  16.058  33.127   8.850
 4542POPC   C1A 5295  15.937  32.996   8.550
 4542POPC   D2A 5296  15.944  33.005   8.250
 4542POPC   C3A 5297  15.957  33.014   7.950
 4542POPC   C4A 5298  15.978  32.995   7.650
 4542POPC   C1B 5299  16.041  33.264   8.550
 4542POPC   C2B 5300  16.049  33.222   8.250
 4542POPC   C3B 5301  16.126  33.264   7.950
 4542POPC   C4B 5302  16.132  33.281   7.650
 4543POPC   NC3 5303   3.501  41.579   9.450
 4543POPC   PO4 5304   3.556  41.528   9.150
 4543POPC   GL1 5305   3.507  41.531   8.850
 4543POPC   GL2 5306   3.509  41.670   8.850
 4543POPC   C1A 5307   3.542  41.590   8.550
 4543POPC   D2A 5308   3.516  41.554   8.250
 4543POPC   C3A 5309   3.545  41.601   7.950
 4543POPC   C4A 5310   3.530  41.573   7.650
 4543POPC   C1B 5311   3.540  41.854   8.550
 4543POPC   C2B 5312   3.474  41.797   8.250
 4543POPC   C3B 5313   3.510  41.762   7.950
 4543POPC   C4B 5314   3.500  41.820   7.650
 4544POPC   NC3 5315  25.228  19.812   9.450
 4544POPC   PO4 5316  25.281  19.785   9.150
 4544POPC   GL1 5317  25.229  19.835   8.850
 4544POPC   GL2 5318  25.419  19.765   8.850
 4544POPC   C1A 5319  25.222  19.796   8.550
 4544POPC   D2A 5320  25.239  19.877   8.250
 4544POPC   C3A 5321  25.232  19.826   7.950
 4544POPC   C4A 5322  25.231  19.849   7.650
 4544POPC   C1B 5323  25.479  19.791   8.550
 4544POPC   C2B 5324  25.520  19.791   8.250
 4544POPC   C3B 5325  25.498  19.773   7.950
 4544POPC   C4B 5326  25.545  19.805   7.650
 4545POPC   NC3 5327   3.523   0.413   9.450
 4545POPC   PO4 5328   3.537   0.402   9.150
 4545POPC   GL1 5329   3.531   0.465   8.850
 4545POPC   GL2 5330   3.563   0.521   8.850
 4545POPC   C1A 5331   3.560   0.474   8.550
 4545POPC   D2A 5332   3.586   0.443   8.250
 4545POPC   C3A 5333   3.542   0.443   7.950
 4545POPC   C4A 5334   3.532   0.417   7.650
 4545POPC   C1B 5335   3.535   0.678   8.550
 4545POPC   C2B 5336   3.559   0.718   8.250
 4545POPC   C3B 5337   3.496   0.689   7.950
 4545POPC   C4B 5338   3.472   0.669   7.650
 4546POPC   NC3 5339  26.851  29.923   9.450
 4546POPC   PO4 5340  26.814  29.925   9.150
 4546POPC   GL1 5341  26.776  29.917   8.850
 4546POPC   GL2 5342  26.757  29.970   8.850
 4546POPC   C1A 5343  26.773  29.904   8.550
 4546POPC   D2A 5344  26.807  29.910   8.250
 4546POPC   C3A 5345  26.800  29.921   7.950
 4546POPC   C4A 5346  26.851  29.911   7.650
 4546POPC   C1B 5347  26.677  30.041   8.550
 4546POPC   C2B 5348  26.648  30.058   8.250
 4546POPC   C3B 5349  26.637  30.070   7.950
 4546POPC   C4B 5350  26.634  30.127   7.650
 4547POPC   NC3 5351  17.484  24.472   9.450
 4547POPC   PO4 5352  17.497  24.507   9.150
 4547POPC   GL1 5353  17.517  24.530   8.850
 4547POPC   GL2 5354  17.451  24.569   8.850
 4547POPC   C1A 5355  17.462  24.479   8.550
 4547POPC   D2A 5356  17.536  24.497   8.250
 4547POPC   C3A 5357  17.522  24.538   7.950
 4547POPC   C4A 5358  17.469  24.479   7.650
 4547POPC   C1B 5359  17.472  24.697   8.550
 4547POPC   C2B 5360  17.490  24.717   8.250
 4547POPC   C3B 5361  17.469  24.785   7.950
 4547POPC   C4B 5362  17.511  24.732   7.650
 4548POPC   NC3 5363   2.753  22.938   9.450
 4548POPC   PO4 5364   2.791  22.963   9.150
 4548POPC   GL1 5365   2.755  22.896   8.850
 4548POPC   GL2 5366   2.834  23.094   8.850
 4548POPC   C1A 5367   2.753  22.895   8.550
 4548POPC   D2A 5368   2.789  22.899   8.250
 4548POPC   C3A 5369   2.727  22.960   7.950
 4548POPC   C4A 5370   2.717  22.913   7.650
 4548POPC   C1B 5371   2.866  23.223   8.550
 4548POPC   C2B 5372   2.772  23.146   8.250
 4548POPC   C3B 5373   2.803  23.224   7.950
 4548POPC   C4B 5374   2.853  23.200   7.650
 4549POPC   NC3 5375   6.626   7.450   9.450
 4549POPC   PO4 5376   6.632   7.470   9.150
 4549POPC   GL1 5377   6.689   7.454   8.850
 4549POPC   GL2 5378   6.562   7.471   8.850
 4549POPC   C1A 5379   6.655   7.444   8.550
 4549POPC   D2A 5380   6.686   7.411   8.250
 4549POPC   C3A 5381   6.678   7.393   7.950
 4549POPC   C4A 5382   6.672   7.438   7.650
 4549POPC   C1B 5383   6.377   7.424   8.550
 4549POPC   C2B 5384   6.398   7.452   8.250
 4549POPC   C3B 5385   6.420   7.492   7.950
 4549POPC   C4B 5386   6.385   7.440   7.650
 4550POPC   NC3 5387  22.976  44.628   9.450
 4550POPC   PO4 5388  22.966  44.645   9.150
 4550POPC   GL1 5389  22.922  44.626   8.850
 4550POPC   GL2 5390  22.954  44.800   8.850
 4550POPC   C1A 5391  22.968  44.630   8.550
 4550POPC   D2A 5392  22.917  44.633   8.250
 4550POPC   C3A 5393  22.949  44.672   7.950
 4550POPC   C4A 5394  22.910  44.677   7.650
 4550POPC   C1B 5395  22.978  44.886   8.550
 4550POPC   C2B 5396  23.005  44.929   8.250
 4550POPC   C3B 5397  23.000  44.949   7.950
 4550POPC   C4B 5398  22.919  44.931   7.650
 4551POPC   NC3 5399  11.259   8.198   9.450
 4551POPC   PO4 5400  11.289   8.195   9.150
 4551POPC   GL1 5401  11.283   8.205   8.850
 4551POPC   GL2 5402  11.337   8.058   8.850
 4551POPC   C1A 5403  11.335   8.231   8.550
 4551POPC   D2A 5404  11.291   8.172   8.250
 4551POPC   C3A 5405  11.337   8.217   7.950
 4551POPC   C4A 5406  11.294   8.198   7.650
 4551POPC   C1B 5407  11.459   7.973   8.550
 4551POPC   C2B 5408  11.409   8.022   8.250
 4551POPC   C3B 5409  11.385   7.964   7.950
 4551POPC   C4B 5410  11.431   8.024   7.650
 4552POPC   NC3 5411  29.190  35.389   9.450
 4552POPC   PO4 5412  29.147  35.390   9.150
 4552POPC   GL1 5413  29.193  35.331   8.850
 4552POPC   GL2 5414  29.051  35.214   8.850
 4552POPC   C1A 5415  29.148  35.383   8.550
 4552POPC   D2A 5416  29.111  35.315   8.250
 4552POPC   C3A 5417  29.161  35.343   7.950
 4552POPC   C4A 5418  29.162  35.348   7.650
 4552POPC   C1B 5419  29.076  35.105   8.550
 4552POPC   C2B 5420  29.024  35.081   8.250
 4552POPC   C3B 5421  29.015  35.150   7.950
 4552POPC   C4B 5422  29.063  35.102   7.650
 4553POPC   NC3 5423  34.603  43.085   9.450
 4553POPC   PO4 5424  34.592  43.128   9.150
 4553POPC   GL1 5425  34.533  43.136   8.850
 4553POPC   GL2 5426  34.674  42.981   8.850
 4553POPC   C1A 5427  34.540  43.140   8.550
 4553POPC   D2A 5428  34.610  43.115   8.250
 4553POPC   C3A 5429  34.615  43.141   7.950
 4553POPC   C4A 5430  34.616  43.148   7.650
 4553POPC   C1B 5431  34.753  42.875   8.550
 4553POPC   C2B 5432  34.781  42.942   8.250
 4553POPC   C3B 5433  34.696  42.878   7.950
 4553POPC   C4B 5434  34.737  42.966   7.650
 4554POPC   NC3 5435  12.860  32.204   9.450
 4554POPC   PO4 5436  12.893  32.218   9.150
 4554POPC   GL1 5437  12.888  32.219   8.850
 4554POPC   GL2 5438  12.771  32.156   8.850
 4554POPC   C1A 5439  12.842  32.206   8.550
 4554POPC   D2A 5440  12.894  32.294   8.250
 4554POPC   C3A 5441  12.876  32.283   7.950
 4554POPC   C4A 5442  12.845  32.220   7.650
 4554POPC   C1B 5443  12.766  32.069   8.550
 4554POPC   C2B 5444  12.774  32.033   8.250
 4554POPC   C3B 5445  12.783  32.049   7.950
 4554POPC   C4B 5446  12.765  32.044   7.650
 4555POPC   NC3 5447   3.502  34.606   9.450
 4555POPC   PO4 5448   3.560  34.559   9.150
 4555POPC   GL1 5449   3.496  34.592   8.850
 4555POPC   GL2 5450   3.575  34.700   8.850
 4555POPC   C1A 5451   3.564  34.550   8.550
 4555POPC   D2A 5452   3.497  34.593   8.250
 4555POPC   C3A 5453   3.570  34.551   7.950
 4555POPC   C4A 5454   3.512  34.587   7.650
 4555POPC   C1B 5455   3.505  34.855   8.550
 4555POPC   C2B 5456   3.541  34.866   8.250
 4555POPC   C3B 5457   3.538  34.851   7.950
 4555POPC   C4B 5458   3.477  34.840   7.650
 4556POPC   NC3 5459  38.477  22.901   9.450
 4556POPC   PO4 5460  38.475  22.977   9.150
 4556POPC   GL1 5461  38.431  22.939   8.850
 4556POPC   GL2 5462  38.312  22.828   8.850
 4556POPC   C1A 5463  38.410  22.908   8.550
 4556POPC   D2A 5464  38.413  22.898   8.250
 4556POPC   C3A 5465  38.426  22.895   7.950
 4556POPC   C4A 5466  38.453  22.943   7.650
 4556POPC   C1B 5467  38.236  22.851   8.550
 4556POPC   C2B 5468  38.288  22.795   8.250
 4556POPC   C3B 5469  38.194  22.769   7.950
 4556POPC   C4B 5470  38.247  22.787   7.650
 4557POPC   NC3 5471  31.434  12.871   9.450
 4557POPC   PO4 5472  31.479  12.881   9.150
 4557POPC   GL1 5473  31.433  12.887   8.850
 4557POPC   GL2 5474  31.484  12.976   8.850
 4557POPC   C1A 5475  31.439  12.863   8.550
 4557POPC   D2A 5476  31.500  12.814   8.250
 4557POPC   C3A 5477  31.493  12.829   7.950
 4557POPC   C4A 5478  31.498  12.879   7.650
 4557POPC   C1B 5479  31.442  13.114   8.550
 4557POPC   C2B 5480  31.398  13.136   8.250
 4557POPC   C3B 5481  31.398  13.089   7.950
 4557POPC   C4B 5482  31.451  13.117   7.650
 4558POPC   NC3 5483  29.875  43.842   9.450
 4558POPC   PO4 5484  29.920  43.844   9.150
 4558POPC   GL1 5485  29.953  43.892   8.850
 4558POPC   GL2 5486  30.006  43.939   8.850
 4558POPC   C1A 5487  29.889  43.841   8.550
 4558POPC   D2A 5488  29.915  43.864   8.250
 4558POPC   C3A 5489  29.873  43.909   7.950
 4558POPC   C4A 5490  29.909  43.865   7.650
 4558POPC   C1B 5491  30.167  43.945   8.550
 4558POPC   C2B 5492  30.196  43.927   8.250
 4558POPC   C3B 5493  30.183  43.901   7.950
 4558POPC   C4B 5494  30.190  43.885   7.650
 4559POPC   NC3 5495  24.515  40.806   9.450
 4559POPC   PO4 5496  24.514  40.829   9.150
 4559POPC   GL1 5497  24.497  40.764   8.850
 4559POPC   GL2 5498  24.478  40.953   8.850
 4559POPC   C1A 5499  24.488  40.747   8.550
 4559POPC   D2A 5500  24.446  40.795   8.250
 4559POPC   C3A 5501  24.506  40.807   7.950
 4559POPC   C4A 5502  24.496  40.821   7.650
 4559POPC   C1B 5503  24.459  41.079   8.550
 4559POPC   C2B 5504  24.472  40.989   8.250
 4559POPC   C3B 5505  24.453  41.051   7.950
 4559POPC   C4B 5506  24.495  41.034   7.650
 4560POPC   NC3 5507  10.476  42.377   9.450
 4560POPC   PO4 5508  10.509  42.353   9.150
 4560POPC   GL1 5509  10.500  42.289   8.850
 4560POPC   GL2 5510  10.645  42.392   8.850
 4560POPC   C1A 5511  10.559  42.317   8.550
 4560POPC   D2A 5512  10.524  42.328   8.250
 4560POPC   C3A 5513  10.516  42.367   7.950
 4560POPC   C4A 5514  10.494  42.384   7.650
 4560POPC   C1B 5515  10.737  42.354   8.550
 4560POPC   C2B 5516  10.762  42.403   8.250
 4560POPC   C3B 5517  10.817  42.380   7.950
 4560POPC   C4B 5518  10.764  42.394   7.650
 4561POPC   NC3 5519  27.564  28.401   9.450
 4561POPC   PO4 5520  27.609  28.363   9.150
 4561POPC   GL1 5521  27.642  28.404   8.850
 4561POPC   GL2 5522  27.663  28.417   8.850
 4561POPC   C1A 5523  27.566  28.324   8.550
 4561POPC   D2A 5524  27.580  28.350   8.250
 4561POPC   C3A 5525  27.579  28.347   7.950
 4561POPC   C4A 5526  27.585  28.367   7.650
 4561POPC   C1B 5527  27.815  28.456   8.550
 4561POPC   C2B 5528  27.850  28.502   8.250
 4561POPC   C3B 5529  27.857  28.478   7.950
 4561POPC   C4B 5530  27.859  28.523   7.650
 4562POPC   NC3 5531   7.389   9.767   9.450
 4562POPC   PO4 5532   7.448   9.705   9.150
 4562POPC   GL1 5533   7.458   9.742   8.850
 4562POPC   GL2 5534   7.397   9.682   8.850
 4562POPC   C1A 5535   7.387   9.733   8.550
 4562POPC   D2A 5536   7.416   9.730   8.250
 4562POPC   C3A 5537   7.410   9.794   7.950
 4562POPC   C4A 5538   7.415   9.777   7.650
 4562POPC   C1B 5539   7.326   9.561   8.550
 4562POPC   C2B 5540   7.328   9.509   8.250
 4562POPC   C3B 5541   7.272   9.551   7.950
 4562POPC   C4B 5542   7.327   9.507   7.650
 4563POPC   NC3 5543  13.646  33.022   9.450
 4563POPC   PO4 5544  13.615  33.042   9.150
 4563POPC   GL1 5545  13.655  33.064   8.850
 4563POPC   GL2 5546  13.564  32.965   8.850
 4563POPC   C1A 5547  13.647  33.025   8.550
 4563POPC   D2A 5548  13.583  33.012   8.250
 4563POPC   C3A 5549  13.666  33.012   7.950
 4563POPC   C4A 5550  13.611  33.051   7.650
 4563POPC   C1B 5551  13.439  32.865   8.550
 4563POPC   C2B 5552  13.417  32.841   8.250
 4563POPC   C3B 5553  13.479  32.827   7.950
 4563POPC   C4B 5554  13.478  32.820   7.650
 4564POPC   NC3 5555  40.797  44.673   9.450
 4564POPC   PO4 5556  40.753  44.629   9.150
 4564POPC   GL1 5557  40.799  44.614   8.850
 4564POPC   GL2 5558  40.734  44.834   8.850
 4564POPC   C1A 5559  40.765  44.629   8.550
 4564POPC   D2A 5560  40.795  44.688   8.250
 4564POPC   C3A 5561  40.776  44.707   7.950
 4564POPC   C4A 5562  40.738  44.630   7.650
 4564POPC   C1B 5563  40.768  44.881   8.550
 4564POPC   C2B 5564  40.732  44.954   8.250
 4564POPC   C3B 5565  40.757  44.914   7.950
 4564POPC   C4B 5566  40.738  44.923   7.650
 4565POPC   NC3 5567   4.292   0.436   9.450
 4565POPC   PO4 5568   4.325   0.460   9.150
 4565POPC   GL1 5569   4.305   0.438   8.850
 4565POPC   GL2 5570   4.403   0.515   8.850
 4565POPC   C1A 5571   4.306   0.417   8.550
 4565POPC   D2A 5572   4.314   0.437   8.250
 4565POPC   C3A 5573   4.349   0.478   7.950
 4565POPC   C4A 5574   4.280   0.423   7.650
 4565POPC   C1B 5575   4.509   0.520   8.550
 4565POPC   C2B 5576   4.559   0.475   8.250
 4565POPC   C3B 5577   4.570   0.532   7.950
 4565POPC   C4B 5578   4.512   0.476   7.650
 4566POPC   NC3 5579  20.603  22.135   9.450
 4566POPC   PO4 5580  20.628  22.118   9.150
 4566POPC   GL1 5581  20.598  22.192   8.850
 4566POPC   GL2 5582  20.528  22.181   8.850
 4566POPC   C1A 5583  20.630  22.204   8.550
 4566POPC   D2A 5584  20.590  22.182   8.250
 4566POPC   C3A 5585  20.584  22.149   7.950
 4566POPC   C4A 5586  20.611  22.203   7.650
 4566POPC   C1B 5587  20.410  22.170   8.550
 4566POPC   C2B 5588  20.413  22.189   8.250
 4566POPC   C3B 5589  20.321  22.174   7.950
 4566POPC   C4B 5590  20.361  22.259   7.650
 4567POPC   NC3 5591  19.805   8.983   9.450
 4567POPC   PO4 5592  19.851   8.925   9.150
 4567POPC   GL1 5593  19.852   8.948   8.850
 4567POPC   GL2 5594  19.857   9.109   8.850
 4567POPC   C1A 5595  19.813   8.933   8.550
 4567POPC   D2A 5596  19.795   8.966   8.250
 4567POPC   C3A 5597  19.866   8.947   7.950
 4567POPC   C4A 5598  19.820   8.946   7.650
 4567POPC   C1B 5599  19.957   9.226   8.550
 4567POPC   C2B 5600  19.951   9.184   8.250
 4567POPC   C3B 5601  19.943   9.139   7.950
 4567POPC   C4B 5602  19.964   9.216   7.650
 4568POPC   NC3 5603  41.575   6.667   9.450
 4568POPC   PO4 5604  41.532   6.676   9.150
 4568POPC   GL1 5605  41.526   6.643   8.850
 4568POPC   GL2 5606  41.512   6.798   8.850
 4568POPC   C1A 5607  41.577   6.663   8.550
 4568POPC   D2A 5608  41.593   6.603   8.250
 4568POPC   C3A 5609  41.599   6.610   7.950
 4568POPC   C4A 5610  41.539   6.662   7.650
 4568POPC   C1B 5611  41.517   6.854   8.550
 4568POPC   C2B 5612  41.544   6.875   8.250
 4568POPC   C3B 5613  41.580   6.888   7.950
 4568POPC   C4B 5614  41.553   6.912   7.650
 4569POPC   NC3 5615  17.555  22.932   9.450
 4569POPC   PO4 5616  17.553  22.936   9.150
 4569POPC   GL1 5617  17.461  22.971   8.850
 4569POPC   GL2 5618  17.456  22.789   8.850
 4569POPC   C1A 5619  17.553  22.906   8.550
 4569POPC   D2A 5620  17.541  22.905   8.250
 4569POPC   C3A 5621  17.546  22.909   7.950
 4569POPC   C4A 5622  17.544  22.932   7.650
 4569POPC   C1B 5623  17.428  22.728   8.550
 4569POPC   C2B 5624  17.476  22.721   8.250
 4569POPC   C3B 5625  17.438  22.729   7.950
 4569POPC   C4B 5626  17.458  22.731   7.650
 4570POPC   NC3 5627  11.261   2.766   9.450
 4570POPC   PO4 5628  11.305   2.753   9.150
 4570POPC   GL1 5629  11.291   2.789   8.850
 4570POPC   GL2 5630  11.441   2.735   8.850
 4570POPC   C1A 5631  11.305   2.745   8.550
 4570POPC   D2A 5632  11.293   2.776   8.250
 4570POPC   C3A 5633  11.313   2.737   7.950
 4570POPC   C4A 5634  11.300   2.723   7.650
 4570POPC   C1B 5635  11.497   2.659   8.550
 4570POPC   C2B 5636  11.478   2.672   8.250
 4570POPC   C3B 5637  11.504   2.674   7.950
 4570POPC   C4B 5638  11.526   2.667   7.650
 4571POPC   NC3 5639  29.150   9.718   9.450
 4571POPC   PO4 5640  29.105   9.701   9.150
 4571POPC   GL1 5641  29.131   9.716   8.850
 4571POPC   GL2 5642  29.306   9.714   8.850
 4571POPC   C1A 5643  29.100   9.728   8.550
 4571POPC   D2A 5644  29.181   9.789   8.250
 4571POPC   C3A 5645  29.192   9.793   7.950
 4571POPC   C4A 5646  29.172   9.710   7.650
 4571POPC   C1B 5647  29.349   9.685   8.550
 4571POPC   C2B 5648  29.376   9.775   8.250
 4571POPC   C3B 5649  29.420   9.716   7.950
 4571POPC   C4B 5650  29.377   9.695   7.650
 4572POPC   NC3 5651  19.814   2.737   9.450
 4572POPC   PO4 5652  19.800   2.727   9.150
 4572POPC   GL1 5653  19.852   2.805   8.850
 4572POPC   GL2 5654  19.849   2.929   8.850
 4572POPC   C1A 5655  19.815   2.813   8.550
 4572POPC   D2A 5656  19.786   2.757   8.250
 4572POPC   C3A 5657  19.875   2.805   7.950
 4572POPC   C4A 5658  19.843   2.775   7.650
 4572POPC   C1B 5659  19.893   2.974   8.550
 4572POPC   C2B 5660  19.866   2.997   8.250
 4572POPC   C3B 5661  19.875   3.028   7.950
 4572POPC   C4B 5662  19.840   2.967   7.650
 4573POPC   NC3 5663   3.577  11.270   9.450
 4573POPC   PO4 5664   3.526  11.322   9.150
 4573POPC   GL1 5665   3.498  11.283   8.850
 4573POPC   GL2 5666   3.421  11.271   8.850
 4573POPC   C1A 5667   3.516  11.333   8.550
 4573POPC   D2A 5668   3.529  11.264   8.250
 4573POPC   C3A 5669   3.581  11.282   7.950
 4573POPC   C4A 5670   3.572  11.295   7.650
 4573POPC   C1B 5671   3.351  11.142   8.550
 4573POPC   C2B 5672   3.346  11.214   8.250
 4573POPC   C3B 5673   3.330  11.200   7.950
 4573POPC   C4B 5674   3.345  11.168   7.650
 4574POPC   NC3 5675   0.423  30.712   9.450
 4574POPC   PO4 5676   0.389  30.741   9.150
 4574POPC   GL1 5677   0.446  30.668   8.850
 4574POPC   GL2 5678   0.540  30.804   8.850
 4574POPC   C1A 5679   0.451  30.722   8.550
 4574POPC   D2A 5680   0.436  30.725   8.250
 4574POPC   C3A 5681   0.461  30.679   7.950
 4574POPC   C4A 5682   0.460  30.722   7.650
 4574POPC   C1B 5683   0.655  30.855   8.550
 4574POPC   C2B 5684   0.597  30.886   8.250
 4574POPC   C3B 5685   0.674  30.841   7.950
 4574POPC   C4B 5686   0.599  30.802   7.650
 4575POPC   NC3 5687  16.714  33.780   9.450
 4575POPC   PO4 5688  16.763  33.758   9.150
 4575POPC   GL1 5689  16.726  33.762   8.850
 4575POPC   GL2 5690  16.761  33.881   8.850
 4575POPC   C1A 5691  16.695  33.819   8.550
 4575POPC   D2A 5692  16.766  33.846   8.250
 4575POPC   C3A 5693  16.765  33.765   7.950
 4575POPC   C4A 5694  16.729  33.754   7.650
 4575POPC   C1B 5695  16.820  34.094   8.550
 4575POPC   C2B 5696  16.792  34.056   8.250
 4575POPC   C3B 5697  16.796  34.052   7.950
 4575POPC   C4B 5698  16.761  34.054   7.650
 4576POPC   NC3 5699  14.422  33.759   9.450
 4576POPC   PO4 5700  14.443  33.846   9.150
 4576POPC   GL1 5701  14.440  33.801   8.850
 4576POPC   GL2 5702  14.468  33.822   8.850
 4576POPC   C1A 5703  14.359  33.822   8.550
 4576POPC   D2A 5704  14.448  33.800   8.250
 4576POPC   C3A 5705  14.421  33.849   7.950
 4576POPC   C4A 5706  14.389  33.847   7.650
 4576POPC   C1B 5707  14.587  33.920   8.550
 4576POPC   C2B 5708  14.667  33.870   8.250
 4576POPC   C3B 5709  14.643  33.901   7.950
 4576POPC   C4B 5710  14.656  33.859   7.650
 4577POPC   NC3 5711  11.304   4.295   9.450
 4577POPC   PO4 5712  11.310   4.325   9.150
 4577POPC   GL1 5713  11.288   4.315   8.850
 4577POPC   GL2 5714  11.175   4.409   8.850
 4577POPC   C1A 5715  11.311   4.311   8.550
 4577POPC   D2A 5716  11.339   4.285   8.250
 4577POPC   C3A 5717  11.292   4.323   7.950
 4577POPC   C4A 5718  11.335   4.269   7.650
 4577POPC   C1B 5719  11.050   4.434   8.550
 4577POPC   C2B 5720  11.041   4.433   8.250
 4577POPC   C3B 5721  11.062   4.391   7.950
 4577POPC   C4B 5722  11.098   4.390   7.650
 4578POPC   NC3 5723  43.067  40.827   9.450
 4578POPC   PO4 5724  43.154  40.740   9.150
 4578POPC   GL1 5725  43.064  40.818   8.850
 4578POPC   GL2 5726  43.082  40.858   8.850
 4578POPC   C1A 5727  43.072  40.784   8.550
 4578POPC   D2A 5728  43.104  40.756   8.250
 4578POPC   C3A 5729  43.068  40.789   7.950
 4578POPC   C4A 5730  43.101  40.780   7.650
 4578POPC   C1B 5731  43.111  40.983   8.550
 4578POPC   C2B 5732  43.116  40.983   8.250
 4578POPC   C3B 5733  43.061  41.045   7.950
 4578POPC   C4B 5734  43.067  41.016   7.650
 4579POPC   NC3 5735  16.703  32.224   9.450
 4579POPC   PO4 5736  16.731  32.209   9.150
 4579POPC   GL1 5737  16.733  32.238   8.850
 4579POPC   GL2 5738  16.611  32.201   8.850
 4579POPC   C1A 5739  16.703  32.249   8.550
 4579POPC   D2A 5740  16.711  32.227   8.250
 4579POPC   C3A 5741  16.692  32.254   7.950
 4579POPC   C4A 5742  16.693  32.243   7.650
 4579POPC   C1B 5743  16.510  32.132   8.550
 4579POPC   C2B 5744  16.468  32.116   8.250
 4579POPC   C3B 5745  16.532  32.123   7.950
 4579POPC   C4B 5746  16.550  32.152   7.650
 4580POPC   NC3 5747  21.394  17.549   9.450
 4580POPC   PO4 5748  21.395  17.505   9.150
 4580POPC   GL1 5749  21.360  17.531   8.850
 4580POPC   GL2 5750  21.331  17.443   8.850
 4580POPC   C1A 5751  21.377  17.508   8.550
 4580POPC   D2A 5752  21.358  17.518   8.250
 4580POPC   C3A 5753  21.432  17.537   7.950
 4580POPC   C4A 5754  21.374  17.463   7.650
 4580POPC   C1B 5755  21.292  17.314   8.550
 4580POPC   C2B 5756  21.218  17.266   8.250
 4580POPC   C3B 5757  21.288  17.310   7.950
 4580POPC   C4B 5758  21.295  17.286   7.650
 4581POPC   NC3 5759  25.288  33.780   9.450
 4581POPC   PO4 5760  25.278  33.758   9.150
 4581POPC   GL1 5761  25.225  33.786   8.850
 4581POPC   GL2 5762  25.194  33.743   8.850
 4581POPC   C1A 5763  25.311  33.794   8.550
 4581POPC   D2A 5764  25.285  33.753   8.250
 4581POPC   C3A 5765  25.301  33.822   7.950
 4581POPC   C4A 5766  25.237  33.791   7.650
 4581POPC   C1B 5767  25.111  33.679   8.550
 4581POPC   C2B 5768  25.063  33.612   8.250
 4581POPC   C3B 5769  25.083  33.621   7.950
 4581POPC   C4B 5770  25.075  33.618   7.650
 4582POPC   NC3 5771   1.183  36.116   9.450
 4582POPC   PO4 5772   1.253  36.152   9.150
 4582POPC   GL1 5773   1.171  36.156   8.850
 4582POPC   GL2 5774   1.149  36.210   8.850
 4582POPC   C1A 5775   1.210  36.109   8.550
 4582POPC   D2A 5776   1.234  36.151   8.250
 4582POPC   C3A 5777   1.242  36.086   7.950
 4582POPC   C4A 5778   1.247  36.124   7.650
 4582POPC   C1B 5779   1.155  36.356   8.550
 4582POPC   C2B 5780   1.178  36.375   8.250
 4582POPC   C3B 5781   1.153  36.351   7.950
 4582POPC   C4B 5782   1.171  36.375   7.650
 4583POPC   NC3 5783   2.727  24.501   9.450
 4583POPC   PO4 5784   2.804  24.522   9.150
 4583POPC   GL1 5785   2.721  24.493   8.850
 4583POPC   GL2 5786   2.829  24.624   8.850
 4583POPC   C1A 5787   2.776  24.476   8.550
 4583POPC   D2A 5788   2.792  24.448   8.250
 4583POPC   C3A 5789   2.727  24.497   7.950
 4583POPC   C4A 5790   2.808  24.467   7.650
 4583POPC   C1B 5791   2.896  24.694   8.550
 4583POPC   C2B 5792   2.918  24.645   8.250
 4583POPC   C3B 5793   2.952  24.665   7.950
 4583POPC   C4B 5794   2.960  24.673   7.650
 4584POPC   NC3 5795  44.702  29.142   9.450
 4584POPC   PO4 5796  44.689  29.115   9.150
 4584POPC   GL1 5797  44.690  29.120   8.850
 4584POPC   GL2 5798  44.623  29.069   8.850
 4584POPC   C1A 5799  44.677  29.120   8.550
 4584POPC   D2A 5800  44.639  29.155   8.250
 4584POPC   C3A 5801  44.684  29.158   7.950
 4584POPC   C4A 5802  44.686  29.109   7.650
 4584POPC   C1B 5803  44.511  28.924   8.550
 4584POPC   C2B 5804  44.484  28.942   8.250
 4584POPC   C3B 5805  44.483  28.931   7.950
 4584POPC   C4B 5806  44.499  28.952   7.650
 4585POPC   NC3 5807  30.735  32.255   9.450
 4585POPC   PO4 5808  30.668  32.201   9.150
 4585POPC   GL1 5809  30.707  32.280   8.850
 4585POPC   GL2 5810  30.764  32.301   8.850
 4585POPC   C1A 5811  30.738  32.253   8.550
 4585POPC   D2A 5812  30.650  32.250   8.250
 4585POPC   C3A 5813  30.662  32.276   7.950
 4585POPC   C4A 5814  30.649  32.277   7.650
 4585POPC   C1B 5815  30.887  32.459   8.550
 4585POPC   C2B 5816  30.849  32.395   8.250
 4585POPC   C3B 5817  30.914  32.453   7.950
 4585POPC   C4B 5818  30.925  32.374   7.650
 4586POPC   NC3 5819  19.045   9.752   9.450
 4586POPC   PO4 5820  19.054   9.730   9.150
 4586POPC   GL1 5821  19.050   9.781   8.850
 4586POPC   GL2 5822  18.973   9.846   8.850
 4586POPC   C1A 5823  19.031   9.768   8.550
 4586POPC   D2A 5824  19.052   9.783   8.250
 4586POPC   C3A 5825  19.101   9.733   7.950
 4586POPC   C4A 5826  19.084   9.734   7.650
 4586POPC   C1B 5827  18.917   9.943   8.550
 4586POPC   C2B 5828  18.870   9.974   8.250
 4586POPC   C3B 5829  18.892   9.905   7.950
 4586POPC   C4B 5830  18.877   9.893   7.650
 4587POPC   NC3 5831   3.584   9.758   9.450
 4587POPC   PO4 5832   3.541   9.718   9.150
 4587POPC   GL1 5833   3.500   9.779   8.850
 4587POPC   GL2 5834   3.482   9.608   8.850
 4587POPC   C1A 5835   3.562   9.726   8.550
 4587POPC   D2A 5836   3.497   9.764   8.250
 4587POPC   C3A 5837   3.516   9.700   7.950
 4587POPC   C4A 5838   3.556   9.753   7.650
 4587POPC   C1B 5839   3.447   9.528   8.550
 4587POPC   C2B 5840   3.500   9.534   8.250
 4587POPC   C3B 5841   3.462   9.473   7.950
 4587POPC   C4B 5842   3.493   9.526   7.650
 4588POPC   NC3 5843   3.531  12.105   9.450
 4588POPC   PO4 5844   3.564  12.091   9.150
 4588POPC   GL1 5845   3.563  12.037   8.850
 4588POPC   GL2 5846   3.633  12.034   8.850
 4588POPC   C1A 5847   3.586  12.041   8.550
 4588POPC   D2A 5848   3.567  12.058   8.250
 4588POPC   C3A 5849   3.496  12.091   7.950
 4588POPC   C4A 5850   3.518  12.115   7.650
 4588POPC   C1B 5851   3.783  12.025   8.550
 4588POPC   C2B 5852   3.803  12.007   8.250
 4588POPC   C3B 5853   3.784  12.015   7.950
 4588POPC   C4B 5854   3.823  12.025   7.650
 4589POPC   NC3 5855  25.294  28.354   9.450
 4589POPC   PO4 5856  25.258  28.410   9.150
 4589POPC   GL1 5857  25.292  28.378   8.850
 4589POPC   GL2 5858  25.158  28.436   8.850
 4589POPC   C1A 5859  25.285  28.397   8.550
 4589POPC   D2A 5860  25.217  28.372   8.250
 4589POPC   C3A 5861  25.228  28.341   7.950
 4589POPC   C4A 5862  25.275  28.327   7.650
 4589POPC   C1B 5863  25.056  28.560   8.550
 4589POPC   C2B 5864  25.081  28.508   8.250
 4589POPC   C3B 5865  25.097  28.517   7.950
 4589POPC   C4B 5866  25.075  28.493   7.650
 4590POPC   NC3 5867  43.856  19.821   9.450
 4590POPC   PO4 5868  43.906  19.843   9.150
 4590POPC   GL1 5869  43.868  19.802   8.850
 4590POPC   GL2 5870  43.815  19.900   8.850
 4590POPC   C1A 5871  43.873  19.800   8.550
 4590POPC   D2A 5872  43.902  19.866   8.250
 4590POPC   C3A 5873  43.863  19.832   7.950
 4590POPC   C4A 5874  43.886  19.795   7.650
 4590POPC   C1B 5875  43.645  19.953   8.550
 4590POPC   C2B 5876  43.649  19.998   8.250
 4590POPC   C3B 5877  43.703  20.024   7.950
 4590POPC   C4B 5878  43.640  19.989   7.650
 4591POPC   NC3 5879  39.209  13.654   9.450
 4591POPC   PO4 5880  39.222  13.657   9.150
 4591POPC   GL1 5881  39.273  13.595   8.850
 4591POPC   GL2 5882  39.378  13.695   8.850
 4591POPC   C1A 5883  39.261  13.659   8.550
 4591POPC   D2A 5884  39.194  13.597   8.250
 4591POPC   C3A 5885  39.203  13.590   7.950
 4591POPC   C4A 5886  39.257  13.657   7.650
 4591POPC   C1B 5887  39.508  13.635   8.550
 4591POPC   C2B 5888  39.452  13.694   8.250
 4591POPC   C3B 5889  39.495  13.652   7.950
 4591POPC   C4B 5890  39.489  13.650   7.650
 4592POPC   NC3 5891  26.779  28.366   9.450
 4592POPC   PO4 5892  26.798  28.400   9.150
 4592POPC   GL1 5893  26.771  28.359   8.850
 4592POPC   GL2 5894  26.789  28.449   8.850
 4592POPC   C1A 5895  26.832  28.330   8.550
 4592POPC   D2A 5896  26.805  28.342   8.250
 4592POPC   C3A 5897  26.818  28.361   7.950
 4592POPC   C4A 5898  26.856  28.401   7.650
 4592POPC   C1B 5899  26.753  28.651   8.550
 4592POPC   C2B 5900  26.760  28.594   8.250
 4592POPC   C3B 5901  26.702  28.579   7.950
 4592POPC   C4B 5902  26.714  28.577   7.650
 4593POPC   NC3 5903  44.666   2.027   9.450
 4593POPC   PO4 5904  44.673   2.027   9.150
 4593POPC   GL1 5905  44.623   1.973   8.850
 4593POPC   GL2 5906  44.612   1.880   8.850
 4593POPC   C1A 5907  44.684   1.967   8.550
 4593POPC   D2A 5908  44.682   1.953   8.250
 4593POPC   C3A 5909  44.647   2.015   7.950
 4593POPC   C4A 5910  44.650   2.017   7.650
 4593POPC   C1B 5911  44.598   1.734   8.550
 4593POPC   C2B 5912  44.640   1.756   8.250
 4593POPC   C3B 5913  44.632   1.721   7.950
 4593POPC   C4B 5914  44.647   1.761   7.650
 4594POPC   NC3 5915   1.235  40.762   9.450
 4594POPC   PO4 5916   1.233  40.758   9.150
 4594POPC   GL1 5917   1.192  40.740   8.850
 4594POPC   GL2 5918   1.207  40.908   8.850
 4594POPC   C1A 5919   1.252  40.810   8.550
 4594POPC   D2A 5920   1.166  40.774   8.250
 4594POPC   C3A 5921   1.195  40.740   7.950
 4594POPC   C4A 5922   1.245  40.746   7.650
 4594POPC   C1B 5923   1.215  41.056   8.550
 4594POPC   C2B 5924   1.150  41.041   8.250
 4594POPC   C3B 5925   1.147  41.048   7.950
 4594POPC   C4B 5926   1.206  41.063   7.650
 4595POPC   NC3 5927  34.622  17.507   9.450
 4595POPC   PO4 5928  34.536  17.537   9.150
 4595POPC   GL1 5929  34.622  17.525   8.850
 4595POPC   GL2 5930  34.441  17.591   8.850
 4595POPC   C1A 5931  34.538  17.551   8.550
 4595POPC   D2A 5932  34.605  17.534   8.250
 4595POPC   C3A 5933  34.626  17.534   7.950
 4595POPC   C4A 5934  34.602  17.459   7.650
 4595POPC   C1B 5935  34.412  17.636   8.550
 4595POPC   C2B 5936  34.368  17.667   8.250
 4595POPC   C3B 5937  34.336  17.617   7.950
 4595POPC   C4B 5938  34.365  17.644   7.650
 4596POPC   NC3 5939  26.813  39.264   9.450
 4596POPC   PO4 5940  26.865  39.222   9.150
 4596POPC   GL1 5941  26.821  39.199   8.850
 4596POPC   GL2 5942  26.743  39.138   8.850
 4596POPC   C1A 5943  26.771  39.201   8.550
 4596POPC   D2A 5944  26.831  39.194   8.250
 4596POPC   C3A 5945  26.855  39.248   7.950
 4596POPC   C4A 5946  26.783  39.232   7.650
 4596POPC   C1B 5947  26.709  39.008   8.550
 4596POPC   C2B 5948  26.754  38.967   8.250
 4596POPC   C3B 5949  26.729  39.019   7.950
 4596POPC   C4B 5950  26.699  38.985   7.650
 4597POPC   NC3 5951  30.735  18.328   9.450
 4597POPC   PO4 5952  30.718  18.300   9.150
 4597POPC   GL1 5953  30.656  18.236   8.850
 4597POPC   GL2 5954  30.803  18.223   8.850
 4597POPC   C1A 5955  30.741  18.239   8.550
 4597POPC   D2A 5956  30.724  18.316   8.250
 4597POPC   C3A 5957  30.649  18.296   7.950
 4597POPC   C4A 5958  30.745  18.238   7.650
 4597POPC   C1B 5959  30.783  18.118   8.550
 4597POPC   C2B 5960  30.862  18.038   8.250
 4597POPC   C3B 5961  30.840  18.102   7.950
 4597POPC   C4B 5962  30.868  18.119   7.650
 4598POPC   NC3 5963   5.829  20.585   9.450
 4598POPC   PO4 5964   5.839  20.642   9.150
 4598POPC   GL1 5965   5.894  20.585   8.850
 4598POPC   GL2 5966   5.957  20.651   8.850
 4598POPC   C1A 5967   5.881  20.563   8.550
 4598POPC   D2A 5968   5.851  20.627   8.250
 4598POPC   C3A 5969   5.913  20.636   7.950
 4598POPC   C4A 5970   5.859  20.605   7.650
 4598POPC   C1B 5971   6.107  20.739   8.550
 4598POPC   C2B 5972   6.074  20.733   8.250
 4598POPC   C3B 5973   6.086  20.775   7.950
 4598POPC   C4B 5974   6.099  20.775   7.650
 4599POPC   NC3 5975  26.823   7.435   9.450
 4599POPC   PO4 5976  26.780   7.420   9.150
 4599POPC   GL1 5977  26.774   7.426   8.850
 4599POPC   GL2 5978  26.823   7.542   8.850
 4599POPC   C1A 5979  26.769   7.420   8.550
 4599POPC   D2A 5980  26.769   7.467   8.250
 4599POPC   C3A 5981  26.844   7.427   7.950
 4599POPC   C4A 5982  26.782   7.389   7.650
 4599POPC   C1B 5983  26.817   7.635   8.550
 4599POPC   C2B 5984  26.782   7.674   8.250
 4599POPC   C3B 5985  26.770   7.641   7.950
 4599POPC   C4B 5986  26.818   7.633   7.650
 4600POPC   NC3 5987  28.336   7.459   9.450
 4600POPC   PO4 5988  28.414   7.399   9.150
 4600POPC   GL1 5989  28.334   7.469   8.850
 4600POPC   GL2 5990  28.330   7.554   8.850
 4600POPC   C1A 5991  28.418   7.392   8.550
 4600POPC   D2A 5992  28.407   7.443   8.250
 4600POPC   C3A 5993  28.416   7.449   7.950
 4600POPC   C4A 5994  28.368   7.375   7.650
 4600POPC   C1B 5995  28.228   7.594   8.550
 4600POPC   C2B 5996  28.196   7.564   8.250
 4600POPC   C3B 5997  28.182   7.632   7.950
 4600POPC   C4B 5998  28.237   7.582   7.650
 4601POPC   NC3 5999  18.314  44.616   9.450
 4601POPC   PO4 6000  18.323  44.677   9.150
 4601POPC   GL1 6001  18.278  44.674   8.850
 4601POPC   GL2 6002  18.234  44.750   8.850
 4601POPC   C1A 6003  18.294  44.680   8.550
 4601POPC   D2A 6004  18.310  44.672   8.250
 4601POPC   C3A 6005  18.289  44.690   7.950
 4601POPC   C4A 6006  18.301  44.704   7.650
 4601POPC   C1B 6007  18.123  44.847   8.550
 4601POPC   C2B 6008  18.074  44.832   8.250
 4601POPC   C3B 6009  18.152  44.801   7.950
 4601POPC   C4B 6010  18.087  44.845   7.650
 4602POPC   NC3 6011  17.518   9.000   9.450
 4602POPC   PO4 6012  17.495   9.003   9.150
 4602POPC   GL1 6013  17.505   9.000   8.850
 4602POPC   GL2 6014  17.455   8.882   8.850
 4602POPC   C1A 6015  17.478   9.009   8.550
 4602POPC   D2A 6016  17.501   8.970   8.250
 4602POPC   C3A 6017  17.461   8.959   7.950
 4602POPC   C4A 6018  17.540   8.940   7.650
 4602POPC   C1B 6019  17.378   8.816   8.550
 4602POPC   C2B 6020  17.295   8.822   8.250
 4602POPC   C3B 6021  17.325   8.817   7.950
 4602POPC   C4B 6022  17.303   8.801   7.650
 4603POPC   NC3 6023  30.665  41.531   9.450
 4603POPC   PO4 6024  30.719  41.538   9.150
 4603POPC   GL1 6025  30.683  41.510   8.850
 4603POPC   GL2 6026  30.841  41.570   8.850
 4603POPC   C1A 6027  30.741  41.560   8.550
 4603POPC   D2A 6028  30.689  41.552   8.250
 4603POPC   C3A 6029  30.668  41.587   7.950
 4603POPC   C4A 6030  30.666  41.583   7.650
 4603POPC   C1B 6031  30.907  41.602   8.550
 4603POPC   C2B 6032  30.996  41.568   8.250
 4603POPC   C3B 6033  30.994  41.565   7.950
 4603POPC   C4B 6034  30.911  41.570   7.650
 4604POPC   NC3 6035  15.210  20.645   9.450
 4604POPC   PO4 6036  15.163  20.645   9.150
 4604POPC   GL1 6037  15.134  20.587   8.850
 4604POPC   GL2 6038  15.216  20.535   8.850
 4604POPC   C1A 6039  15.212  20.607   8.550
 4604POPC   D2A 6040  15.210  20.581   8.250
 4604POPC   C3A 6041  15.134  20.603   7.950
 4604POPC   C4A 6042  15.172  20.602   7.650
 4604POPC   C1B 6043  15.244  20.400   8.550
 4604POPC   C2B 6044  15.195  20.380   8.250
 4604POPC   C3B 6045  15.250  20.393   7.950
 4604POPC   C4B 6046  15.247  20.337   7.650
 4605POPC   NC3 6047  32.240  15.154   9.450
 4605POPC   PO4 6048  32.229  15.155   9.150
 4605POPC   GL1 6049  32.209  15.179   8.850
 4605POPC   GL2 6050  32.354  15.184   8.850
 4605POPC   C1A 6051  32.240  15.192   8.550
 4605POPC   D2A 6052  32.283  15.203   8.250
 4605POPC   C3A 6053  32.238  15.223   7.950
 4605POPC   C4A 6054  32.247  15.183   7.650
 4605POPC   C1B 6055  32.517  15.174   8.550
 4605POPC   C2B 6056  32.517  15.240   8.250
 4605POPC   C3B 6057  32.487  15.160   7.950
 4605POPC   C4B 6058  32.454  15.248   7.650
 4606POPC   NC3 6059  15.959  18.247   9.450
 4606POPC   PO4 6060  15.937  18.280   9.150
 4606POPC   GL1 6061  15.992  18.285   8.850
 4606POPC   GL2 6062  16.073  18.391   8.850
 4606POPC   C1A 6063  15.966  18.234   8.550
 4606POPC   D2A 6064  15.976  18.311   8.250
 4606POPC   C3A 6065  15.998  18.254   7.950
 4606POPC   C4A 6066  16.002  18.248   7.650
 4606POPC   C1B 6067  16.068  18.488   8.550
 4606POPC   C2B 6068  16.134  18.484   8.250
 4606POPC   C3B 6069  16.098  18.528   7.950
 4606POPC   C4B 6070  16.078  18.460   7.650
 4607POPC   NC3 6071   8.951  26.838   9.450
 4607POPC   PO4 6072   8.934  26.865   9.150
 4607POPC   GL1 6073   8.926  26.820   8.850
 4607POPC   GL2 6074   8.933  26.923   8.850
 4607POPC   C1A 6075   8.924  26.839   8.550
 4607POPC   D2A 6076   9.005  26.799   8.250
 4607POPC   C3A 6077   8.975  26.770   7.950
 4607POPC   C4A 6078   8.966  26.772   7.650
 4607POPC   C1B 6079   8.976  27.060   8.550
 4607POPC   C2B 6080   8.941  27.051   8.250
 4607POPC   C3B 6081   8.976  27.078   7.950
 4607POPC   C4B 6082   8.936  27.025   7.650
 4608POPC   NC3 6083   8.930   4.279   9.450
 4608POPC   PO4 6084   9.007   4.331   9.150
 4608POPC   GL1 6085   9.014   4.323   8.850
 4608POPC   GL2 6086   8.852   4.248   8.850
 4608POPC   C1A 6087   8.991   4.318   8.550
 4608POPC   D2A 6088   8.966   4.304   8.250
 4608POPC   C3A 6089   8.966   4.346   7.950
 4608POPC   C4A 6090   8.963   4.335   7.650
 4608POPC   C1B 6091   8.687   4.286   8.550
 4608POPC   C2B 6092   8.734   4.274   8.250
 4608POPC   C3B 6093   8.776   4.288   7.950
 4608POPC   C4B 6094   8.713   4.273   7.650
 4609POPC   NC3 6095  19.057  31.500   9.450
 4609POPC   PO4 6096  19.067  31.490   9.150
 4609POPC   GL1 6097  19.026  31.429   8.850
 4609POPC   GL2 6098  18.891  31.457   8.850
 4609POPC   C1A 6099  19.088  31.490   8.550
 4609POPC   D2A 6100  19.038  31.428   8.250
 4609POPC   C3A 6101  19.085  31.439   7.950
 4609POPC   C4A 6102  19.058  31.444   7.650
 4609POPC   C1B 6103  18.790  31.423   8.550
 4609POPC   C2B 6104  18.787  31.387   8.250
 4609POPC   C3B 6105  18.822  31.432   7.950
 4609POPC   C4B 6106  18.847  31.377   7.650
 4610POPC   NC3 6107  15.136  30.716   9.450
 4610POPC   PO4 6108  15.176  30.722   9.150
 4610POPC   GL1 6109  15.172  30.655   8.850
 4610POPC   GL2 6110  15.190  30.816   8.850
 4610POPC   C1A 6111  15.198  30.697   8.550
 4610POPC   D2A 6112  15.181  30.691   8.250
 4610POPC   C3A 6113  15.136  30.673   7.950
 4610POPC   C4A 6114  15.215  30.730   7.650
 4610POPC   C1B 6115  15.185  30.981   8.550
 4610POPC   C2B 6116  15.283  30.917   8.250
 4610POPC   C3B 6117  15.262  30.924   7.950
 4610POPC   C4B 6118  15.239  30.910   7.650
 4611POPC   NC3 6119  14.406  30.688   9.450
 4611POPC   PO4 6120  14.417  30.670   9.150
 4611POPC   GL1 6121  14.390  30.738   8.850
 4611POPC   GL2 6122  14.320  30.589   8.850
 4611POPC   C1A 6123  14.411  30.717   8.550
 4611POPC   D2A 6124  14.452  30.715   8.250
 4611POPC   C3A 6125  14.365  30.726   7.950
 4611POPC   C4A 6126  14.402  30.744   7.650
 4611POPC   C1B 6127  14.322  30.510   8.550
 4611POPC   C2B 6128  14.304  30.472   8.250
 4611POPC   C3B 6129  14.327  30.473   7.950
 4611POPC   C4B 6130  14.287  30.467   7.650
 4612POPC   NC3 6131  21.412  22.955   9.450
 4612POPC   PO4 6132  21.340  22.933   9.150
 4612POPC   GL1 6133  21.352  22.970   8.850
 4612POPC   GL2 6134  21.504  22.983   8.850
 4612POPC   C1A 6135  21.406  22.912   8.550
 4612POPC   D2A 6136  21.432  22.920   8.250
 4612POPC   C3A 6137  21.356  22.974   7.950
 4612POPC   C4A 6138  21.351  22.894   7.650
 4612POPC   C1B 6139  21.605  23.158   8.550
 4612POPC   C2B 6140  21.616  23.102   8.250
 4612POPC   C3B 6141  21.549  23.136   7.950
 4612POPC   C4B 6142  21.552  23.066   7.650
 4613POPC   NC3 6143   3.525  23.709   9.450
 4613POPC   PO4 6144   3.538  23.758   9.150
 4613POPC   GL1 6145   3.572  23.675   8.850
 4613POPC   GL2 6146   3.556  23.615   8.850
 4613POPC   C1A 6147   3.586  23.732   8.550
 4613POPC   D2A 6148   3.512  23.744   8.250
 4613POPC   C3A 6149   3.563  23.704   7.950
 4613POPC   C4A 6150   3.558  23.748   7.650
 4613POPC   C1B 6151   3.627  23.526   8.550
 4613POPC   C2B 6152   3.653  23.511   8.250
 4613POPC   C3B 6153   3.666  23.437   7.950
 4613POPC   C4B 6154   3.589  23.454   7.650
 4614POPC   NC3 6155  11.341  30.693   9.450
 4614POPC   PO4 6156  11.307  30.676   9.150
 4614POPC   GL1 6157  11.255  30.743   8.850
 4614POPC   GL2 6158  11.279  30.592   8.850
 4614POPC   C1A 6159  11.262  30.727   8.550
 4614POPC   D2A 6160  11.336  30.694   8.250
 4614POPC   C3A 6161  11.256  30.721   7.950
 4614POPC   C4A 6162  11.306  30.688   7.650
 4614POPC   C1B 6163  11.261  30.486   8.550
 4614POPC   C2B 6164  11.232  30.493   8.250
 4614POPC   C3B 6165  11.207  30.452   7.950
 4614POPC   C4B 6166  11.258  30.418   7.650
 4615POPC   NC3 6167   2.789  42.369   9.450
 4615POPC   PO4 6168   2.730  42.339   9.150
 4615POPC   GL1 6169   2.750  42.363   8.850
 4615POPC   GL2 6170   2.694  42.171   8.850
 4615POPC   C1A 6171   2.746  42.376   8.550
 4615POPC   D2A 6172   2.774  42.357   8.250
 4615POPC   C3A 6173   2.755  42.351   7.950
 4615POPC   C4A 6174   2.731  42.360   7.650
 4615POPC   C1B 6175   2.709  42.108   8.550
 4615POPC   C2B 6176   2.657  42.061   8.250
 4615POPC   C3B 6177   2.658  42.143   7.950
 4615POPC   C4B 6178   2.712  42.088   7.650
 4616POPC   NC3 6179  44.671  30.681   9.450
 4616POPC   PO4 6180  44.668  30.720   9.150
 4616POPC   GL1 6181  44.697  30.705   8.850
 4616POPC   GL2 6182  44.565  30.573   8.850
 4616POPC   C1A 6183  44.683  30.737   8.550
 4616POPC   D2A 6184  44.648  30.739   8.250
 4616POPC   C3A 6185  44.660  30.721   7.950
 4616POPC   C4A 6186  44.645  30.739   7.650
 4616POPC   C1B 6187  44.504  30.432   8.550
 4616POPC   C2B 6188  44.509  30.458   8.250
 4616POPC   C3B 6189  44.544  30.443   7.950
 4616POPC   C4B 6190  44.516  30.513   7.650
 4617POPC   NC3 6191  33.844  20.649   9.450
 4617POPC   PO4 6192  33.781  20.564   9.150
 4617POPC   GL1 6193  33.800  20.614   8.850
 4617POPC   GL2 6194  33.858  20.495   8.850
 4617POPC   C1A 6195  33.833  20.650   8.550
 4617POPC   D2A 6196  33.774  20.650   8.250
 4617POPC   C3A 6197  33.848  20.648   7.950
 4617POPC   C4A 6198  33.770  20.650   7.650
 4617POPC   C1B 6199  34.005  20.421   8.550
 4617POPC   C2B 6200  33.969  20.460   8.250
 4617POPC   C3B 6201  33.967  20.457   7.950
 4617POPC   C4B 6202  33.995  20.459   7.650
 4618POPC   NC3 6203  38.503  12.044   9.450
 4618POPC   PO4 6204  38.501  12.040   9.150
 4618POPC   GL1 6205  38.405  12.073   8.850
 4618POPC   GL2 6206  38.407  12.222   8.850
 4618POPC   C1A 6207  38.472  12.121   8.550
 4618POPC   D2A 6208  38.418  12.105   8.250
 4618POPC   C3A 6209  38.435  12.057   7.950
 4618POPC   C4A 6210  38.501  12.050   7.650
 4618POPC   C1B 6211  38.385  12.301   8.550
 4618POPC   C2B 6212  38.342  12.272   8.250
 4618POPC   C3B 6213  38.343  12.291   7.950
 4618POPC   C4B 6214  38.311  12.275   7.650
 4619POPC   NC3 6215  20.632  38.415   9.450
 4619POPC   PO4 6216  20.622  38.408   9.150
 4619POPC   GL1 6217  20.602  38.436   8.850
 4619POPC   GL2 6218  20.738  38.473   8.850
 4619POPC   C1A 6219  20.649  38.459   8.550
 4619POPC   D2A 6220  20.595  38.464   8.250
 4619POPC   C3A 6221  20.656  38.494   7.950
 4619POPC   C4A 6222  20.658  38.446   7.650
 4619POPC   C1B 6223  20.853  38.447   8.550
 4619POPC   C2B 6224  20.830  38.449   8.250
 4619POPC   C3B 6225  20.809  38.449   7.950
 4619POPC   C4B 6226  20.903  38.486   7.650
 4620POPC   NC3 6227  18.259  39.251   9.450
 4620POPC   PO4 6228  18.300  39.218   9.150
 4620POPC   GL1 6229  18.299  39.227   8.850
 4620POPC   GL2 6230  18.350  39.330   8.850
 4620POPC   C1A 6231  18.279  39.210   8.550
 4620POPC   D2A 6232  18.330  39.265   8.250
 4620POPC   C3A 6233  18.286  39.260   7.950
 4620POPC   C4A 6234  18.301  39.238   7.650
 4620POPC   C1B 6235  18.547  39.309   8.550
 4620POPC   C2B 6236  18.511  39.352   8.250
 4620POPC   C3B 6237  18.520  39.324   7.950
 4620POPC   C4B 6238  18.461  39.316   7.650
 4621POPC   NC3 6239  29.103  37.728   9.450
 4621POPC   PO4 6240  29.175  37.686   9.150
 4621POPC   GL1 6241  29.099  37.664   8.850
 4621POPC   GL2 6242  29.248  37.670   8.850
 4621POPC   C1A 6243  29.126  37.635   8.550
 4621POPC   D2A 6244  29.114  37.694   8.250
 4621POPC   C3A 6245  29.097  37.727   7.950
 4621POPC   C4A 6246  29.192  37.690   7.650
 4621POPC   C1B 6247  29.421  37.585   8.550
 4621POPC   C2B 6248  29.433  37.609   8.250
 4621POPC   C3B 6249  29.387  37.602   7.950
 4621POPC   C4B 6250  29.425  37.650   7.650
 4622POPC   NC3 6251  20.604  26.028   9.450
 4622POPC   PO4 6252  20.579  26.061   9.150
 4622POPC   GL1 6253  20.631  26.024   8.850
 4622POPC   GL2 6254  20.684  25.959   8.850
 4622POPC   C1A 6255  20.562  26.022   8.550
 4622POPC   D2A 6256  20.603  25.992   8.250
 4622POPC   C3A 6257  20.619  26.018   7.950
 4622POPC   C4A 6258  20.569  26.079   7.650
 4622POPC   C1B 6259  20.812  25.958   8.550
 4622POPC   C2B 6260  20.877  25.947   8.250
 4622POPC   C3B 6261  20.854  25.891   7.950
 4622POPC   C4B 6262  20.796  25.897   7.650
 4623POPC   NC3 6263   1.212   1.985   9.450
 4623POPC   PO4 6264   1.254   2.013   9.150
 4623POPC   GL1 6265   1.185   1.949   8.850
 4623POPC   GL2 6266   1.299   1.875   8.850
 4623POPC   C1A 6267   1.212   1.954   8.550
 4623POPC   D2A 6268   1.207   1.949   8.250
 4623POPC   C3A 6269   1.247   1.982   7.950
 4623POPC   C4A 6270   1.243   1.968   7.650
 4623POPC   C1B 6271   1.385   1.837   8.550
 4623POPC   C2B 6272   1.385   1.846   8.250
 4623POPC   C3B 6273   1.425   1.805   7.950
 4623POPC   C4B 6274   1.459   1.846   7.650
 4624POPC   NC3 6275   6.646   6.642   9.450
 4624POPC   PO4 6276   6.689   6.675   9.150
 4624POPC   GL1 6277   6.676   6.666   8.850
 4624POPC   GL2 6278   6.702   6.499   8.850
 4624POPC   C1A 6279   6.598   6.678   8.550
 4624POPC   D2A 6280   6.606   6.678   8.250
 4624POPC   C3A 6281   6.663   6.676   7.950
 4624POPC   C4A 6282   6.688   6.619   7.650
 4624POPC   C1B 6283   6.806   6.417   8.550
 4624POPC   C2B 6284   6.795   6.488   8.250
 4624POPC   C3B 6285   6.773   6.447   7.950
 4624POPC   C4B 6286   6.760   6.474   7.650
 4625POPC   NC3 6287  40.817   8.945   9.450
 4625POPC   PO4 6288  40.798   8.967   9.150
 4625POPC   GL1 6289  40.782   8.951   8.850
 4625POPC   GL2 6290  40.699   9.014   8.850
 4625POPC   C1A 6291  40.754   9.014   8.550
 4625POPC   D2A 6292  40.745   8.956   8.250
 4625POPC   C3A 6293  40.784   9.007   7.950
 4625POPC   C4A 6294  40.742   9.004   7.650
 4625POPC   C1B 6295  40.611   9.083   8.550
 4625POPC   C2B 6296  40.572   9.104   8.250
 4625POPC   C3B 6297  40.540   9.116   7.950
 4625POPC   C4B 6298  40.604   9.076   7.650
 4626POPC   NC3 6299  38.409  43.103   9.450
 4626POPC   PO4 6300  38.484  43.149   9.150
 4626POPC   GL1 6301  38.498  43.077   8.850
 4626POPC   GL2 6302  38.391  42.950   8.850
 4626POPC   C1A 6303  38.407  43.149   8.550
 4626POPC   D2A 6304  38.435  43.077   8.250
 4626POPC   C3A 6305  38.430  43.133   7.950
 4626POPC   C4A 6306  38.461  43.119   7.650
 4626POPC   C1B 6307  38.367  42.896   8.550
 4626POPC   C2B 6308  38.429  42.904   8.250
 4626POPC   C3B 6309  38.408  42.886   7.950
 4626POPC   C4B 6310  38.354  42.908   7.650
 4627POPC   NC3 6311  12.092  25.247   9.450
 4627POPC   PO4 6312  12.049  25.299   9.150
 4627POPC   GL1 6313  12.096  25.221   8.850
 4627POPC   GL2 6314  11.911  25.315   8.850
 4627POPC   C1A 6315  12.104  25.279   8.550
 4627POPC   D2A 6316  12.125  25.305   8.250
 4627POPC   C3A 6317  12.109  25.230   7.950
 4627POPC   C4A 6318  12.087  25.286   7.650
 4627POPC   C1B 6319  11.884  25.342   8.550
 4627POPC   C2B 6320  11.882  25.356   8.250
 4627POPC   C3B 6321  11.881  25.380   7.950
 4627POPC   C4B 6322  11.816  25.320   7.650
 4628POPC   NC3 6323  34.555  37.712   9.450
 4628POPC   PO4 6324  34.613  37.697   9.150
 4628POPC   GL1 6325  34.567  37.635   8.850
 4628POPC   GL2 6326  34.614  37.786   8.850
 4628POPC   C1A 6327  34.589  37.673   8.550
 4628POPC   D2A 6328  34.580  37.716   8.250
 4628POPC   C3A 6329  34.553  37.676   7.950
 4628POPC   C4A 6330  34.599  37.640   7.650
 4628POPC   C1B 6331  34.565  37.932   8.550
 4628POPC   C2B 6332  34.646  37.947   8.250
 4628POPC   C3B 6333  34.563  37.912   7.950
 4628POPC   C4B 6334  34.610  37.881   7.650
 4629POPC   NC3 6335  17.475  35.337   9.450
 4629POPC   PO4 6336  17.514  35.310   9.150
 4629POPC   GL1 6337  17.473  35.318   8.850
 4629POPC   GL2 6338  17.501  35.457   8.850
 4629POPC   C1A 6339  17.536  35.394   8.550
 4629POPC   D2A 6340  17.544  35.369   8.250
 4629POPC   C3A 6341  17.465  35.376   7.950
 4629POPC   C4A 6342  17.472  35.346   7.650
 4629POPC   C1B 6343  17.390  35.551   8.550
 4629POPC   C2B 6344  17.372  35.598   8.250
 4629POPC   C3B 6345  17.398  35.542   7.950
 4629POPC   C4B 6346  17.408  35.607   7.650
 4630POPC   NC3 6347  33.022   9.792   9.450
 4630POPC   PO4 6348  33.070   9.703   9.150
 4630POPC   GL1 6349  33.054   9.795   8.850
 4630POPC   GL2 6350  33.176   9.794   8.850
 4630POPC   C1A 6351  33.057   9.763   8.550
 4630POPC   D2A 6352  33.004   9.762   8.250
 4630POPC   C3A 6353  33.024   9.720   7.950
 4630POPC   C4A 6354  33.045   9.703   7.650
 4630POPC   C1B 6355  33.299   9.859   8.550
 4630POPC   C2B 6356  33.216   9.853   8.250
 4630POPC   C3B 6357  33.269   9.858   7.950
 4630POPC   C4B 6358  33.288   9.837   7.650
 4631POPC   NC3 6359   2.771  27.641   9.450
 4631POPC   PO4 6360   2.738  27.633   9.150
 4631POPC   GL1 6361   2.717  27.598   8.850
 4631POPC   GL2 6362   2.716  27.481   8.850
 4631POPC   C1A 6363   2.723  27.619   8.550
 4631POPC   D2A 6364   2.772  27.614   8.250
 4631POPC   C3A 6365   2.783  27.621   7.950
 4631POPC   C4A 6366   2.800  27.586   7.650
 4631POPC   C1B 6367   2.626  27.442   8.550
 4631POPC   C2B 6368   2.550  27.390   8.250
 4631POPC   C3B 6369   2.586  27.412   7.950
 4631POPC   C4B 6370   2.610  27.449   7.650
 4632POPC   NC3 6371  36.873  22.911   9.450
 4632POPC   PO4 6372  36.874  22.950   9.150
 4632POPC   GL1 6373  36.859  22.914   8.850
 4632POPC   GL2 6374  36.869  22.772   8.850
 4632POPC   C1A 6375  36.855  22.940   8.550
 4632POPC   D2A 6376  36.937  22.984   8.250
 4632POPC   C3A 6377  36.874  22.940   7.950
 4632POPC   C4A 6378  36.946  22.984   7.650
 4632POPC   C1B 6379  36.837  22.697   8.550
 4632POPC   C2B 6380  36.798  22.744   8.250
 4632POPC   C3B 6381  36.867  22.724   7.950
 4632POPC   C4B 6382  36.850  22.702   7.650
 4633POPC   NC3 6383  33.779  43.880   9.450
 4633POPC   PO4 6384  33.752  43.894   9.150
 4633POPC   GL1 6385  33.796  43.879   8.850
 4633POPC   GL2 6386  33.907  43.828   8.850
 4633POPC   C1A 6387  33.802  43.898   8.550
 4633POPC   D2A 6388  33.756  43.913   8.250
 4633POPC   C3A 6389  33.761  43.887   7.950
 4633POPC   C4A 6390  33.815  43.854   7.650
 4633POPC   C1B 6391  33.946  43.639   8.550
 4633POPC   C2B 6392  33.988  43.689   8.250
 4633POPC   C3B 6393  33.902  43.730   7.950
 4633POPC   C4B 6394  33.956  43.647   7.650
 4634POPC   NC3 6395  34.623  43.925   9.450
 4634POPC   PO4 6396  34.555  43.897   9.150
 4634POPC   GL1 6397  34.556  43.884   8.850
 4634POPC   GL2 6398  34.537  43.741   8.850
 4634POPC   C1A 6399  34.539  43.847   8.550
 4634POPC   D2A 6400  34.603  43.866   8.250
 4634POPC   C3A 6401  34.537  43.842   7.950
 4634POPC   C4A 6402  34.529  43.870   7.650
 4634POPC   C1B 6403  34.542  43.654   8.550
 4634POPC   C2B 6404  34.563  43.653   8.250
 4634POPC   C3B 6405  34.503  43.626   7.950
 4634POPC   C4B 6406  34.537  43.634   7.650
 4635POPC   NC3 6407  11.341  41.533   9.450
 4635POPC   PO4 6408  11.315  41.533   9.150
 4635POPC   GL1 6409  11.341  41.542   8.850
 4635POPC   GL2 6410  11.333  41.615   8.850
 4635POPC   C1A 6411  11.337  41.520   8.550
 4635POPC   D2A 6412  11.265  41.528   8.250
 4635POPC   C3A 6413  11.300  41.583   7.950
 4635POPC   C4A 6414  11.303  41.533   7.650
 4635POPC   C1B 6415  11.488  41.811   8.550
 4635POPC   C2B 6416  11.402  41.775   8.250
 4635POPC   C3B 6417  11.430  41.804   7.950
 4635POPC   C4B 6418  11.463  41.769   7.650
 4636POPC   NC3 6419   4.333  20.567   9.450
 4636POPC   PO4 6420   4.308  20.601   9.150
 4636POPC   GL1 6421   4.321  20.635   8.850
 4636POPC   GL2 6422   4.380  20.740   8.850
 4636POPC   C1A 6423   4.270  20.636   8.550
 4636POPC   D2A 6424   4.307  20.651   8.250
 4636POPC   C3A 6425   4.322  20.641   7.950
 4636POPC   C4A 6426   4.362  20.650   7.650
 4636POPC   C1B 6427   4.402  20.867   8.550
 4636POPC   C2B 6428   4.352  20.818   8.250
 4636POPC   C3B 6429   4.336  20.874   7.950
 4636POPC   C4B 6430   4.404  20.899   7.650
 4637POPC   NC3 6431  12.833   9.797   9.450
 4637POPC   PO4 6432  12.865   9.763   9.150
 4637POPC   GL1 6433  12.893   9.729   8.850
 4637POPC   GL2 6434  12.789   9.614   8.850
 4637POPC   C1A 6435  12.866   9.737   8.550
 4637POPC   D2A 6436  12.822   9.722   8.250
 4637POPC   C3A 6437  12.803   9.764   7.950
 4637POPC   C4A 6438  12.889   9.699   7.650
 4637POPC   C1B 6439  12.713   9.506   8.550
 4637POPC   C2B 6440  12.724   9.573   8.250
 4637POPC   C3B 6441  12.760   9.565   7.950
 4637POPC   C4B 6442  12.743   9.534   7.650
 4638POPC   NC3 6443  15.178  26.782   9.450
 4638POPC   PO4 6444  15.172  26.806   9.150
 4638POPC   GL1 6445  15.181  26.778   8.850
 4638POPC   GL2 6446  15.186  26.666   8.850
 4638POPC   C1A 6447  15.202  26.835   8.550
 4638POPC   D2A 6448  15.178  26.857   8.250
 4638POPC   C3A 6449  15.209  26.866   7.950
 4638POPC   C4A 6450  15.150  26.823   7.650
 4638POPC   C1B 6451  15.250  26.556   8.550
 4638POPC   C2B 6452  15.243  26.550   8.250
 4638POPC   C3B 6453  15.303  26.630   7.950
 4638POPC   C4B 6454  15.297  26.629   7.650
 4639POPC   NC3 6455  42.370  21.423   9.450
 4639POPC   PO4 6456  42.340  21.412   9.150
 4639POPC   GL1 6457  42.362  21.339   8.850
 4639POPC   GL2 6458  42.362  21.295   8.850
 4639POPC   C1A 6459  42.332  21.375   8.550
 4639POPC   D2A 6460  42.296  21.391   8.250
 4639POPC   C3A 6461  42.383  21.359   7.950
 4639POPC   C4A 6462  42.352  21.378   7.650
 4639POPC   C1B 6463  42.430  21.163   8.550
 4639POPC   C2B 6464  42.405  21.145   8.250
 4639POPC   C3B 6465  42.481  21.187   7.950
 4639POPC   C4B 6466  42.432  21.133   7.650
 4640POPC   NC3 6467  44.614   3.547   9.450
 4640POPC   PO4 6468  44.633   3.574   9.150
 4640POPC   GL1 6469  44.627   3.548   8.850
 4640POPC   GL2 6470  44.801   3.592   8.850
 4640POPC   C1A 6471  44.632   3.582   8.550
 4640POPC   D2A 6472  44.659   3.535   8.250
 4640POPC   C3A 6473  44.675   3.531   7.950
 4640POPC   C4A 6474  44.679   3.525   7.650
 4640POPC   C1B 6475  44.898   3.607   8.550
 4640POPC   C2B 6476  44.933   3.586   8.250
 4640POPC   C3B 6477  44.929   3.632   7.950
 4640POPC   C4B 6478  44.900   3.635   7.650
 4641POPC   NC3 6479  32.294   9.752   9.450
 4641POPC   PO4 6480  32.237   9.739   9.150
 4641POPC   GL1 6481  32.214   9.725   8.850
 4641POPC   GL2 6482  32.372   9.738   8.850
 4641POPC   C1A 6483  32.212   9.792   8.550
 4641POPC   D2A 6484  32.229   9.738   8.250
 4641POPC   C3A 6485  32.282   9.761   7.950
 4641POPC   C4A 6486  32.203   9.794   7.650
 4641POPC   C1B 6487  32.500   9.748   8.550
 4641POPC   C2B 6488  32.468   9.798   8.250
 4641POPC   C3B 6489  32.542   9.826   7.950
 4641POPC   C4B 6490  32.514   9.769   7.650
 4642POPC   NC3 6491  19.016  34.571   9.450
 4642POPC   PO4 6492  19.028  34.549   9.150
 4642POPC   GL1 6493  19.085  34.598   8.850
 4642POPC   GL2 6494  18.949  34.664   8.850
 4642POPC   C1A 6495  19.025  34.547   8.550
 4642POPC   D2A 6496  19.055  34.592   8.250
 4642POPC   C3A 6497  19.034  34.553   7.950
 4642POPC   C4A 6498  19.014  34.573   7.650
 4642POPC   C1B 6499  18.871  34.763   8.550
 4642POPC   C2B 6500  18.936  34.740   8.250
 4642POPC   C3B 6501  18.882  34.809   7.950
 4642POPC   C4B 6502  18.880  34.786   7.650
 4643POPC   NC3 6503  24.522  43.919   9.450
 4643POPC   PO4 6504  24.534  43.842   9.150
 4643POPC   GL1 6505  24.445  43.849   8.850
 4643POPC   GL2 6506  24.623  43.839   8.850
 4643POPC   C1A 6507  24.444  43.881   8.550
 4643POPC   D2A 6508  24.509  43.856   8.250
 4643POPC   C3A 6509  24.519  43.876   7.950
 4643POPC   C4A 6510  24.512  43.883   7.650
 4643POPC   C1B 6511  24.736  43.779   8.550
 4643POPC   C2B 6512  24.733  43.784   8.250
 4643POPC   C3B 6513  24.749  43.800   7.950
 4643POPC   C4B 6514  24.679  43.812   7.650
 4644POPC   NC3 6515  34.613  32.292   9.450
 4644POPC   PO4 6516  34.575  32.288   9.150
 4644POPC   GL1 6517  34.554  32.233   8.850
 4644POPC   GL2 6518  34.416  32.245   8.850
 4644POPC   C1A 6519  34.601  32.248   8.550
 4644POPC   D2A 6520  34.615  32.202   8.250
 4644POPC   C3A 6521  34.540  32.241   7.950
 4644POPC   C4A 6522  34.612  32.208   7.650
 4644POPC   C1B 6523  34.314  32.380   8.550
 4644POPC   C2B 6524  34.347  32.336   8.250
 4644POPC   C3B 6525  34.347  32.336   7.950
 4644POPC   C4B 6526  34.378  32.381   7.650
 4645POPC   NC3 6527   8.988  12.889   9.450
 4645POPC   PO4 6528   8.996  12.896   9.150
 4645POPC   GL1 6529   8.963  12.893   8.850
 4645POPC   GL2 6530   9.020  12.788   8.850
 4645POPC   C1A 6531   8.994  12.870   8.550
 4645POPC   D2A 6532   9.007  12.890   8.250
 4645POPC   C3A 6533   8.948  12.849   7.950
 4645POPC   C4A 6534   9.007  12.802   7.650
 4645POPC   C1B 6535   9.149  12.714   8.550
 4645POPC   C2B 6536   9.160  12.663   8.250
 4645POPC   C3B 6537   9.114  12.705   7.950
 4645POPC   C4B 6538   9.167  12.653   7.650
 4646POPC   NC3 6539  36.094   8.946   9.450
 4646POPC   PO4 6540  36.088   8.958   9.150
 4646POPC   GL1 6541  36.091   8.997   8.850
 4646POPC   GL2 6542  36.277   9.018   8.850
 4646POPC   C1A 6543  36.089   8.991   8.550
 4646POPC   D2A 6544  36.129   8.996   8.250
 4646POPC   C3A 6545  36.148   8.986   7.950
 4646POPC   C4A 6546  36.113   8.944   7.650
 4646POPC   C1B 6547  36.360   8.965   8.550
 4646POPC   C2B 6548  36.368   8.947   8.250
 4646POPC   C3B 6549  36.390   8.973   7.950
 4646POPC   C4B 6550  36.331   9.024   7.650
 4647POPC   NC3 6551  25.223   9.759   9.450
 4647POPC   PO4 6552  25.242   9.701   9.150
 4647POPC   GL1 6553  25.262   9.705   8.850
 4647POPC   GL2 6554  25.171   9.729   8.850
 4647POPC   C1A 6555  25.284   9.709   8.550
 4647POPC   D2A 6556  25.252   9.723   8.250
 4647POPC   C3A 6557  25.305   9.706   7.950
 4647POPC   C4A 6558  25.255   9.722   7.650
 4647POPC   C1B 6559  24.975   9.729   8.550
 4647POPC   C2B 6560  24.997   9.683   8.250
 4647POPC   C3B 6561  24.980   9.700   7.950
 4647POPC   C4B 6562  25.047   9.748   7.650
 4648POPC   NC3 6563  44.628  43.067   9.450
 4648POPC   PO4 6564  44.615  43.138   9.150
 4648POPC   GL1 6565  44.702  43.159   8.850
 4648POPC   GL2 6566  44.544  43.164   8.850
 4648POPC   C1A 6567  44.631  43.144   8.550
 4648POPC   D2A 6568  44.614  43.076   8.250
 4648POPC   C3A 6569  44.666  43.066   7.950
 4648POPC   C4A 6570  44.673  43.125   7.650
 4648POPC   C1B 6571  44.506  43.252   8.550
 4648POPC   C2B 6572  44.483  43.265   8.250
 4648POPC   C3B 6573  44.414  43.297   7.950
 4648POPC   C4B 6574  44.422  43.244   7.650
 4649POPC   NC3 6575  36.158   2.750   9.450
 4649POPC   PO4 6576  36.108   2.716   9.150
 4649POPC   GL1 6577  36.153   2.737   8.850
 4649POPC   GL2 6578  36.188   2.867   8.850
 4649POPC   C1A 6579  36.087   2.789   8.550
 4649POPC   D2A 6580  36.104   2.799   8.250
 4649POPC   C3A 6581  36.137   2.804   7.950
 4649POPC   C4A 6582  36.168   2.785   7.650
 4649POPC   C1B 6583  36.258   2.990   8.550
 4649POPC   C2B 6584  36.279   2.970   8.250
 4649POPC   C3B 6585  36.294   2.930   7.950
 4649POPC   C4B 6586  36.276   2.918   7.650
 4650POPC   NC3 6587  26.026  40.766   9.450
 4650POPC   PO4 6588  26.034  40.812   9.150
 4650POPC   GL1 6589  25.993  40.776   8.850
 4650POPC   GL2 6590  26.021  40.898   8.850
 4650POPC   C1A 6591  26.004  40.825   8.550
 4650POPC   D2A 6592  26.050  40.770   8.250
 4650POPC   C3A 6593  26.034  40.829   7.950
 4650POPC   C4A 6594  26.003  40.755   7.650
 4650POPC   C1B 6595  26.112  41.039   8.550
 4650POPC   C2B 6596  26.086  41.037   8.250
 4650POPC   C3B 6597  26.044  41.070   7.950
 4650POPC   C4B 6598  26.068  41.064   7.650
 4651POPC   NC3 6599  11.321  25.277   9.450
 4651POPC   PO4 6600  11.294  25.292   9.150
 4651POPC   GL1 6601  11.287  25.251   8.850
 4651POPC   GL2 6602  11.153  25.293   8.850
 4651POPC   C1A 6603  11.280  25.248   8.550
 4651POPC   D2A 6604  11.262  25.275   8.250
 4651POPC   C3A 6605  11.265  25.273   7.950
 4651POPC   C4A 6606  11.275  25.310   7.650
 4651POPC   C1B 6607  11.072  25.336   8.550
 4651POPC   C2B 6608  11.065  25.347   8.250
 4651POPC   C3B 6609  11.064  25.347   7.950
 4651POPC   C4B 6610  11.037  25.308   7.650
 4652POPC   NC3 6611  44.662   9.771   9.450
 4652POPC   PO4 6612  44.698   9.773   9.150
 4652POPC   GL1 6613  44.684   9.775   8.850
 4652POPC   GL2 6614  44.706   9.578   8.850
 4652POPC   C1A 6615  44.638   9.766   8.550
 4652POPC   D2A 6616  44.622   9.770   8.250
 4652POPC   C3A 6617  44.709   9.717   7.950
 4652POPC   C4A 6618  44.678   9.770   7.650
 4652POPC   C1B 6619  44.651   9.542   8.550
 4652POPC   C2B 6620  44.687   9.464   8.250
 4652POPC   C3B 6621  44.607   9.543   7.950
 4652POPC   C4B 6622  44.657   9.548   7.650
 4653POPC   NC3 6623  39.271   8.216   9.450
 4653POPC   PO4 6624  39.214   8.183   9.150
 4653POPC   GL1 6625  39.258   8.236   8.850
 4653POPC   GL2 6626  39.130   8.185   8.850
 4653POPC   C1A 6627  39.208   8.159   8.550
 4653POPC   D2A 6628  39.220   8.241   8.250
 4653POPC   C3A 6629  39.196   8.185   7.950
 4653POPC   C4A 6630  39.211   8.162   7.650
 4653POPC   C1B 6631  38.979   8.202   8.550
 4653POPC   C2B 6632  38.944   8.219   8.250
 4653POPC   C3B 6633  38.935   8.191   7.950
 4653POPC   C4B 6634  38.945   8.174   7.650
 4654POPC   NC3 6635  31.522  19.801   9.450
 4654POPC   PO4 6636  31.484  19.852   9.150
 4654POPC   GL1 6637  31.475  19.801   8.850
 4654POPC   GL2 6638  31.594  19.818   8.850
 4654POPC   C1A 6639  31.424  19.794   8.550
 4654POPC   D2A 6640  31.510  19.840   8.250
 4654POPC   C3A 6641  31.482  19.806   7.950
 4654POPC   C4A 6642  31.522  19.847   7.650
 4654POPC   C1B 6643  31.715  19.769   8.550
 4654POPC   C2B 6644  31.691  19.756   8.250
 4654POPC   C3B 6645  31.742  19.780   7.950
 4654POPC   C4B 6646  31.714  19.760   7.650
 4655POPC   NC3 6647  28.352  30.656   9.450
 4655POPC   PO4 6648  28.369  30.653   9.150
 4655POPC   GL1 6649  28.393  30.723   8.850
 4655POPC   GL2 6650  28.216  30.673   8.850
 4655POPC   C1A 6651  28.378  30.729   8.550
 4655POPC   D2A 6652  28.405  30.740   8.250
 4655POPC   C3A 6653  28.401  30.669   7.950
 4655POPC   C4A 6654  28.418  30.720   7.650
 4655POPC   C1B 6655  28.095  30.581   8.550
 4655POPC   C2B 6656  28.088  30.586   8.250
 4655POPC   C3B 6657  28.086  30.604   7.950
 4655POPC   C4B 6658  28.126  30.650   7.650
 4656POPC   NC3 6659   8.202  26.000   9.450
 4656POPC   PO4 6660   8.196  25.996   9.150
 4656POPC   GL1 6661   8.148  26.086   8.850
 4656POPC   GL2 6662   8.193  26.159   8.850
 4656POPC   C1A 6663   8.169  26.012   8.550
 4656POPC   D2A 6664   8.151  25.992   8.250
 4656POPC   C3A 6665   8.159  26.047   7.950
 4656POPC   C4A 6666   8.183  26.060   7.650
 4656POPC   C1B 6667   8.087  26.242   8.550
 4656POPC   C2B 6668   8.101  26.223   8.250
 4656POPC   C3B 6669   8.094  26.228   7.950
 4656POPC   C4B 6670   8.111  26.239   7.650
 4657POPC   NC3 6671   1.213  43.067   9.450
 4657POPC   PO4 6672   1.207  43.158   9.150
 4657POPC   GL1 6673   1.232  43.145   8.850
 4657POPC   GL2 6674   1.261  42.990   8.850
 4657POPC   C1A 6675   1.224  43.124   8.550
 4657POPC   D2A 6676   1.204  43.097   8.250
 4657POPC   C3A 6677   1.193  43.113   7.950
 4657POPC   C4A 6678   1.261  43.139   7.650
 4657POPC   C1B 6679   1.326  42.846   8.550
 4657POPC   C2B 6680   1.364  42.848   8.250
 4657POPC   C3B 6681   1.367  42.945   7.950
 4657POPC   C4B 6682   1.374  42.933   7.650
 4658POPC   NC3 6683   4.320  25.233   9.450
 4658POPC   PO4 6684   4.360  25.223   9.150
 4658POPC   GL1 6685   4.363  25.223   8.850
 4658POPC   GL2 6686   4.236  25.232   8.850
 4658POPC   C1A 6687   4.273  25.236   8.550
 4658POPC   D2A 6688   4.322  25.314   8.250
 4658POPC   C3A 6689   4.338  25.240   7.950
 4658POPC   C4A 6690   4.311  25.233   7.650
 4658POPC   C1B 6691   4.145  25.143   8.550
 4658POPC   C2B 6692   4.143  25.146   8.250
 4658POPC   C3B 6693   4.115  25.092   7.950
 4658POPC   C4B 6694   4.137  25.078   7.650
 4659POPC   NC3 6695  39.982  12.814   9.450
 4659POPC   PO4 6696  40.052  12.889   9.150
 4659POPC   GL1 6697  40.020  12.866   8.850
 4659POPC   GL2 6698  39.925  12.906   8.850
 4659POPC   C1A 6699  40.024  12.861   8.550
 4659POPC   D2A 6700  39.984  12.873   8.250
 4659POPC   C3A 6701  40.052  12.803   7.950
 4659POPC   C4A 6702  40.013  12.812   7.650
 4659POPC   C1B 6703  39.823  13.044   8.550
 4659POPC   C2B 6704  39.837  13.058   8.250
 4659POPC   C3B 6705  39.861  13.022   7.950
 4659POPC   C4B 6706  39.859  13.031   7.650
 4660POPC   NC3 6707  35.382  24.508   9.450
 4660POPC   PO4 6708  35.398  24.502   9.150
 4660POPC   GL1 6709  35.383  24.464   8.850
 4660POPC   GL2 6710  35.190  24.481   8.850
 4660POPC   C1A 6711  35.376  24.491   8.550
 4660POPC   D2A 6712  35.323  24.447   8.250
 4660POPC   C3A 6713  35.394  24.493   7.950
 4660POPC   C4A 6714  35.336  24.475   7.650
 4660POPC   C1B 6715  35.119  24.493   8.550
 4660POPC   C2B 6716  35.099  24.501   8.250
 4660POPC   C3B 6717  35.079  24.406   7.950
 4660POPC   C4B 6718  35.147  24.408   7.650
 4661POPC   NC3 6719   2.015  19.851   9.450
 4661POPC   PO4 6720   1.961  19.828   9.150
 4661POPC   GL1 6721   1.953  19.854   8.850
 4661POPC   GL2 6722   2.104  19.813   8.850
 4661POPC   C1A 6723   1.944  19.861   8.550
 4661POPC   D2A 6724   2.039  19.839   8.250
 4661POPC   C3A 6725   1.965  19.848   7.950
 4661POPC   C4A 6726   2.013  19.795   7.650
 4661POPC   C1B 6727   2.233  19.866   8.550
 4661POPC   C2B 6728   2.207  19.902   8.250
 4661POPC   C3B 6729   2.254  19.906   7.950
 4661POPC   C4B 6730   2.251  19.911   7.650
 4662POPC   NC3 6731   8.165  33.798   9.450
 4662POPC   PO4 6732   8.178  33.826   9.150
 4662POPC   GL1 6733   8.211  33.825   8.850
 4662POPC   GL2 6734   8.258  33.953   8.850
 4662POPC   C1A 6735   8.149  33.823   8.550
 4662POPC   D2A 6736   8.164  33.757   8.250
 4662POPC   C3A 6737   8.200  33.766   7.950
 4662POPC   C4A 6738   8.184  33.820   7.650
 4662POPC   C1B 6739   8.347  34.014   8.550
 4662POPC   C2B 6740   8.300  34.028   8.250
 4662POPC   C3B 6741   8.299  34.065   7.950
 4662POPC   C4B 6742   8.289  34.036   7.650
 4663POPC   NC3 6743   9.721  38.418   9.450
 4663POPC   PO4 6744   9.745  38.428   9.150
 4663POPC   GL1 6745   9.776  38.459   8.850
 4663POPC   GL2 6746   9.635  38.551   8.850
 4663POPC   C1A 6747   9.772  38.464   8.550
 4663POPC   D2A 6748   9.771  38.482   8.250
 4663POPC   C3A 6749   9.784  38.421   7.950
 4663POPC   C4A 6750   9.751  38.497   7.650
 4663POPC   C1B 6751   9.582  38.572   8.550
 4663POPC   C2B 6752   9.544  38.609   8.250
 4663POPC   C3B 6753   9.603  38.595   7.950
 4663POPC   C4B 6754   9.582  38.572   7.650
 4664POPC   NC3 6755  26.866   8.947   9.450
 4664POPC   PO4 6756  26.776   8.931   9.150
 4664POPC   GL1 6757  26.788   8.986   8.850
 4664POPC   GL2 6758  26.910   8.896   8.850
 4664POPC   C1A 6759  26.829   8.983   8.550
 4664POPC   D2A 6760  26.841   8.929   8.250
 4664POPC   C3A 6761  26.858   8.952   7.950
 4664POPC   C4A 6762  26.804   9.011   7.650
 4664POPC   C1B 6763  26.975   8.828   8.550
 4664POPC   C2B 6764  27.020   8.771   8.250
 4664POPC   C3B 6765  26.977   8.809   7.950
 4664POPC   C4B 6766  26.977   8.789   7.650
 4665POPC   NC3 6767  19.845  20.631   9.450
 4665POPC   PO4 6768  19.880  20.621   9.150
 4665POPC   GL1 6769  19.840  20.641   8.850
 4665POPC   GL2 6770  19.754  20.632   8.850
 4665POPC   C1A 6771  19.799  20.623   8.550
 4665POPC   D2A 6772  19.827  20.608   8.250
 4665POPC   C3A 6773  19.833  20.628   7.950
 4665POPC   C4A 6774  19.867  20.634   7.650
 4665POPC   C1B 6775  19.586  20.627   8.550
 4665POPC   C2B 6776  19.578  20.666   8.250
 4665POPC   C3B 6777  19.589  20.633   7.950
 4665POPC   C4B 6778  19.634  20.591   7.650
 4666POPC   NC3 6779   3.496  25.259   9.450
 4666POPC   PO4 6780   3.546  25.275   9.150
 4666POPC   GL1 6781   3.554  25.311   8.850
 4666POPC   GL2 6782   3.613  25.170   8.850
 4666POPC   C1A 6783   3.495  25.278   8.550
 4666POPC   D2A 6784   3.514  25.267   8.250
 4666POPC   C3A 6785   3.492  25.283   7.950
 4666POPC   C4A 6786   3.519  25.227   7.650
 4666POPC   C1B 6787   3.754  25.100   8.550
 4666POPC   C2B 6788   3.752  25.164   8.250
 4666POPC   C3B 6789   3.745  25.118   7.950
 4666POPC   C4B 6790   3.788  25.135   7.650
 4667POPC   NC3 6791  14.427  32.274   9.450
 4667POPC   PO4 6792  14.441  32.246   9.150
 4667POPC   GL1 6793  14.376  32.226   8.850
 4667POPC   GL2 6794  14.551  32.267   8.850
 4667POPC   C1A 6795  14.400  32.253   8.550
 4667POPC   D2A 6796  14.398  32.209   8.250
 4667POPC   C3A 6797  14.362  32.206   7.950
 4667POPC   C4A 6798  14.394  32.295   7.650
 4667POPC   C1B 6799  14.598  32.304   8.550
 4667POPC   C2B 6800  14.605  32.313   8.250
 4667POPC   C3B 6801  14.665  32.280   7.950
 4667POPC   C4B 6802  14.628  32.327   7.650
 4668POPC   NC3 6803  27.565   1.994   9.450
 4668POPC   PO4 6804  27.616   2.023   9.150
 4668POPC   GL1 6805  27.563   2.007   8.850
 4668POPC   GL2 6806  27.475   1.880   8.850
 4668POPC   C1A 6807  27.624   1.971   8.550
 4668POPC   D2A 6808  27.596   2.024   8.250
 4668POPC   C3A 6809  27.627   1.967   7.950
 4668POPC   C4A 6810  27.570   2.019   7.650
 4668POPC   C1B 6811  27.387   1.824   8.550
 4668POPC   C2B 6812  27.457   1.766   8.250
 4668POPC   C3B 6813  27.434   1.797   7.950
 4668POPC   C4B 6814  27.479   1.814   7.650
 4669POPC   NC3 6815  23.760  11.273   9.450
 4669POPC   PO4 6816  23.744  11.287   9.150
 4669POPC   GL1 6817  23.741  11.276   8.850
 4669POPC   GL2 6818  23.608  11.389   8.850
 4669POPC   C1A 6819  23.676  11.335   8.550
 4669POPC   D2A 6820  23.667  11.290   8.250
 4669POPC   C3A 6821  23.738  11.266   7.950
 4669POPC   C4A 6822  23.745  11.254   7.650
 4669POPC   C1B 6823  23.521  11.397   8.550
 4669POPC   C2B 6824  23.435  11.365   8.250
 4669POPC   C3B 6825  23.490  11.387   7.950
 4669POPC   C4B 6826  23.520  11.438   7.650
 4670POPC   NC3 6827  10.504   9.700   9.450
 4670POPC   PO4 6828  10.484   9.703   9.150
 4670POPC   GL1 6829  10.474   9.749   8.850
 4670POPC   GL2 6830  10.649   9.676   8.850
 4670POPC   C1A 6831  10.518   9.797   8.550
 4670POPC   D2A 6832  10.477   9.779   8.250
 4670POPC   C3A 6833  10.511   9.700   7.950
 4670POPC   C4A 6834  10.502   9.736   7.650
 4670POPC   C1B 6835  10.766   9.653   8.550
 4670POPC   C2B 6836  10.705   9.614   8.250
 4670POPC   C3B 6837  10.721   9.604   7.950
 4670POPC   C4B 6838  10.696   9.620   7.650
 4671POPC   NC3 6839  24.474   6.629   9.450
 4671POPC   PO4 6840  24.530   6.673   9.150
 4671POPC   GL1 6841  24.451   6.620   8.850
 4671POPC   GL2 6842  24.419   6.494   8.850
 4671POPC   C1A 6843  24.535   6.653   8.550
 4671POPC   D2A 6844  24.465   6.680   8.250
 4671POPC   C3A 6845  24.533   6.639   7.950
 4671POPC   C4A 6846  24.501   6.635   7.650
 4671POPC   C1B 6847  24.370   6.358   8.550
 4671POPC   C2B 6848  24.400   6.428   8.250
 4671POPC   C3B 6849  24.391   6.446   7.950
 4671POPC   C4B 6850  24.464   6.368   7.650
 4672POPC   NC3 6851   8.223   4.360   9.450
 4672POPC   PO4 6852   8.225   4.268   9.150
 4672POPC   GL1 6853   8.175   4.285   8.850
 4672POPC   GL2 6854   8.347   4.361   8.850
 4672POPC   C1A 6855   8.178   4.359   8.550
 4672POPC   D2A 6856   8.243   4.270   8.250
 4672POPC   C3A 6857   8.175   4.335   7.950
 4672POPC   C4A 6858   8.163   4.302   7.650
 4672POPC   C1B 6859   8.385   4.416   8.550
 4672POPC   C2B 6860   8.439   4.382   8.250
 4672POPC   C3B 6861   8.399   4.437   7.950
 4672POPC   C4B 6862   8.462   4.417   7.650
 4673POPC   NC3 6863  32.230  19.088   9.450
 4673POPC   PO4 6864  32.243  19.107   9.150
 4673POPC   GL1 6865  32.271  19.102   8.850
 4673POPC   GL2 6866  32.104  19.108   8.850
 4673POPC   C1A 6867  32.245  19.081   8.550
 4673POPC   D2A 6868  32.237  19.108   8.250
 4673POPC   C3A 6869  32.212  19.083   7.950
 4673POPC   C4A 6870  32.208  19.075   7.650
 4673POPC   C1B 6871  32.028  19.070   8.550
 4673POPC   C2B 6872  31.968  19.109   8.250
 4673POPC   C3B 6873  32.032  19.116   7.950
 4673POPC   C4B 6874  32.053  19.065   7.650
 4674POPC   NC3 6875  27.601  39.223   9.450
 4674POPC   PO4 6876  27.617  39.247   9.150
 4674POPC   GL1 6877  27.593  39.271   8.850
 4674POPC   GL2 6878  27.600  39.302   8.850
 4674POPC   C1A 6879  27.618  39.215   8.550
 4674POPC   D2A 6880  27.566  39.273   8.250
 4674POPC   C3A 6881  27.642  39.263   7.950
 4674POPC   C4A 6882  27.554  39.226   7.650
 4674POPC   C1B 6883  27.676  39.492   8.550
 4674POPC   C2B 6884  27.710  39.449   8.250
 4674POPC   C3B 6885  27.744  39.471   7.950
 4674POPC   C4B 6886  27.668  39.463   7.650
 4675POPC   NC3 6887  26.843  36.162   9.450
 4675POPC   PO4 6888  26.779  36.127   9.150
 4675POPC   GL1 6889  26.841  36.118   8.850
 4675POPC   GL2 6890  26.715  36.026   8.850
 4675POPC   C1A 6891  26.822  36.081   8.550
 4675POPC   D2A 6892  26.863  36.156   8.250
 4675POPC   C3A 6893  26.865  36.087   7.950
 4675POPC   C4A 6894  26.861  36.152   7.650
 4675POPC   C1B 6895  26.603  36.012   8.550
 4675POPC   C2B 6896  26.597  35.933   8.250
 4675POPC   C3B 6897  26.578  35.945   7.950
 4675POPC   C4B 6898  26.585  35.997   7.650
 4676POPC   NC3 6899  11.260  32.993   9.450
 4676POPC   PO4 6900  11.338  33.048   9.150
 4676POPC   GL1 6901  11.316  32.998   8.850
 4676POPC   GL2 6902  11.372  33.162   8.850
 4676POPC   C1A 6903  11.257  33.030   8.550
 4676POPC   D2A 6904  11.295  33.022   8.250
 4676POPC   C3A 6905  11.265  33.056   7.950
 4676POPC   C4A 6906  11.259  33.037   7.650
 4676POPC   C1B 6907  11.334  33.258   8.550
 4676POPC   C2B 6908  11.333  33.219   8.250
 4676POPC   C3B 6909  11.387  33.214   7.950
 4676POPC   C4B 6910  11.397  33.240   7.650
 4677POPC   NC3 6911  13.609  29.171   9.450
 4677POPC   PO4 6912  13.599  29.180   9.150
 4677POPC   GL1 6913  13.611  29.125   8.850
 4677POPC   GL2 6914  13.711  29.115   8.850
 4677POPC   C1A 6915  13.652  29.114   8.550
 4677POPC   D2A 6916  13.629  29.120   8.250
 4677POPC   C3A 6917  13.608  29.108   7.950
 4677POPC   C4A 6918  13.662  29.123   7.650
 4677POPC   C1B 6919  13.860  29.180   8.550
 4677POPC   C2B 6920  13.891  29.138   8.250
 4677POPC   C3B 6921  13.850  29.187   7.950
 4677POPC   C4B 6922  13.878  29.164   7.650
 4678POPC   NC3 6923  11.302  35.376   9.450
 4678POPC   PO4 6924  11.286  35.385   9.150
 4678POPC   GL1 6925  11.272  35.325   8.850
 4678POPC   GL2 6926  11.237  35.215   8.850
 4678POPC   C1A 6927  11.346  35.313   8.550
 4678POPC   D2A 6928  11.257  35.397   8.250
 4678POPC   C3A 6929  11.289  35.355   7.950
 4678POPC   C4A 6930  11.306  35.309   7.650
 4678POPC   C1B 6931  11.256  35.077   8.550
 4678POPC   C2B 6932  11.196  35.121   8.250
 4678POPC   C3B 6933  11.255  35.068   7.950
 4678POPC   C4B 6934  11.236  35.164   7.650
 4679POPC   NC3 6935  18.296  20.588   9.450
 4679POPC   PO4 6936  18.322  20.617   9.150
 4679POPC   GL1 6937  18.243  20.640   8.850
 4679POPC   GL2 6938  18.241  20.513   8.850
 4679POPC   C1A 6939  18.329  20.581   8.550
 4679POPC   D2A 6940  18.274  20.573   8.250
 4679POPC   C3A 6941  18.273  20.611   7.950
 4679POPC   C4A 6942  18.327  20.602   7.650
 4679POPC   C1B 6943  18.210  20.331   8.550
 4679POPC   C2B 6944  18.225  20.366   8.250
 4679POPC   C3B 6945  18.211  20.321   7.950
 4679POPC   C4B 6946  18.264  20.365   7.650
 4680POPC   NC3 6947  38.479  15.227   9.450
 4680POPC   PO4 6948  38.439  15.131   9.150
 4680POPC   GL1 6949  38.406  15.171   8.850
 4680POPC   GL2 6950  38.375  15.046   8.850
 4680POPC   C1A 6951  38.481  15.220   8.550
 4680POPC   D2A 6952  38.430  15.185   8.250
 4680POPC   C3A 6953  38.443  15.185   7.950
 4680POPC   C4A 6954  38.438  15.153   7.650
 4680POPC   C1B 6955  38.407  14.978   8.550
 4680POPC   C2B 6956  38.359  14.919   8.250
 4680POPC   C3B 6957  38.360  14.985   7.950
 4680POPC   C4B 6958  38.385  14.927   7.650
 4681POPC   NC3 6959  42.368  43.886   9.450
 4681POPC   PO4 6960  42.300  43.907   9.150
 4681POPC   GL1 6961  42.305  43.907   8.850
 4681POPC   GL2 6962  42.206  43.788   8.850
 4681POPC   C1A 6963  42.329  43.886   8.550
 4681POPC   D2A 6964  42.285  43.836   8.250
 4681POPC   C3A 6965  42.293  43.900   7.950
 4681POPC   C4A 6966  42.350  43.859   7.650
 4681POPC   C1B 6967  42.207  43.694   8.550
 4681POPC   C2B 6968  42.134  43.698   8.250
 4681POPC   C3B 6969  42.139  43.672   7.950
 4681POPC   C4B 6970  42.164  43.661   7.650
 4682POPC   NC3 6971   1.237  30.664   9.450
 4682POPC   PO4 6972   1.200  30.697   9.150
 4682POPC   GL1 6973   1.200  30.704   8.850
 4682POPC   GL2 6974   1.147  30.861   8.850
 4682POPC   C1A 6975   1.231  30.653   8.550
 4682POPC   D2A 6976   1.172  30.652   8.250
 4682POPC   C3A 6977   1.198  30.728   7.950
 4682POPC   C4A 6978   1.181  30.716   7.650
 4682POPC   C1B 6979   1.151  30.911   8.550
 4682POPC   C2B 6980   1.141  30.961   8.250
 4682POPC   C3B 6981   1.113  30.900   7.950
 4682POPC   C4B 6982   1.141  30.964   7.650
 4683POPC   NC3 6983  32.284  24.522   9.450
 4683POPC   PO4 6984  32.269  24.479   9.150
 4683POPC   GL1 6985  32.253  24.452   8.850
 4683POPC   GL2 6986  32.174  24.553   8.850
 4683POPC   C1A 6987  32.240  24.463   8.550
 4683POPC   D2A 6988  32.280  24.484   8.250
 4683POPC   C3A 6989  32.206  24.501   7.950
 4683POPC   C4A 6990  32.204  24.502   7.650
 4683POPC   C1B 6991  32.065  24.616   8.550
 4683POPC   C2B 6992  32.051  24.635   8.250
 4683POPC   C3B 6993  32.015  24.615   7.950
 4683POPC   C4B 6994  31.991  24.606   7.650
 4684POPC   NC3 6995   2.776  36.890   9.450
 4684POPC   PO4 6996   2.802  36.934   9.150
 4684POPC   GL1 6997   2.756  36.898   8.850
 4684POPC   GL2 6998   2.645  36.814   8.850
 4684POPC   C1A 6999   2.809  36.859   8.550
 4684POPC   D2A 7000   2.736  36.933   8.250
 4684POPC   C3A 7001   2.809  36.945   7.950
 4684POPC   C4A 7002   2.770  36.854   7.650
 4684POPC   C1B 7003   2.536  36.816   8.550
 4684POPC   C2B 7004   2.499  36.802   8.250
 4684POPC   C3B 7005   2.489  36.781   7.950
 4684POPC   C4B 7006   2.501  36.842   7.650
 4685POPC   NC3 7007  40.807  29.100   9.450
 4685POPC   PO4 7008  40.762  29.105   9.150
 4685POPC   GL1 7009  40.760  29.146   8.850
 4685POPC   GL2 7010  40.661  29.180   8.850
 4685POPC   C1A 7011  40.761  29.130   8.550
 4685POPC   D2A 7012  40.802  29.165   8.250
 4685POPC   C3A 7013  40.747  29.123   7.950
 4685POPC   C4A 7014  40.784  29.110   7.650
 4685POPC   C1B 7015  40.615  29.333   8.550
 4685POPC   C2B 7016  40.596  29.331   8.250
 4685POPC   C3B 7017  40.584  29.253   7.950
 4685POPC   C4B 7018  40.589  29.274   7.650
 4686POPC   NC3 7019  23.671  41.557   9.450
 4686POPC   PO4 7020  23.736  41.599   9.150
 4686POPC   GL1 7021  23.721  41.509   8.850
 4686POPC   GL2 7022  23.795  41.698   8.850
 4686POPC   C1A 7023  23.724  41.545   8.550
 4686POPC   D2A 7024  23.760  41.533   8.250
 4686POPC   C3A 7025  23.742  41.534   7.950
 4686POPC   C4A 7026  23.717  41.581   7.650
 4686POPC   C1B 7027  23.805  41.752   8.550
 4686POPC   C2B 7028  23.775  41.761   8.250
 4686POPC   C3B 7029  23.807  41.832   7.950
 4686POPC   C4B 7030  23.787  41.813   7.650
 4687POPC   NC3 7031   8.946  44.700   9.450
 4687POPC   PO4 7032   8.934  44.675   9.150
 4687POPC   GL1 7033   8.930  44.664   8.850
 4687POPC   GL2 7034   8.998  44.797   8.850
 4687POPC   C1A 7035   8.994  44.686   8.550
 4687POPC   D2A 7036   8.997  44.628   8.250
 4687POPC   C3A 7037   9.021  44.643   7.950
 4687POPC   C4A 7038   8.966  44.639   7.650
 4687POPC   C1B 7039   9.037  44.900   8.550
 4687POPC   C2B 7040   9.001  44.868   8.250
 4687POPC   C3B 7041   9.043  44.884   7.950
 4687POPC   C4B 7042   9.051  44.912   7.650
 4688POPC   NC3 7043  15.157  28.382   9.450
 4688POPC   PO4 7044  15.160  28.378   9.150
 4688POPC   GL1 7045  15.205  28.332   8.850
 4688POPC   GL2 7046  15.137  28.528   8.850
 4688POPC   C1A 7047  15.155  28.391   8.550
 4688POPC   D2A 7048  15.208  28.383   8.250
 4688POPC   C3A 7049  15.213  28.330   7.950
 4688POPC   C4A 7050  15.188  28.357   7.650
 4688POPC   C1B 7051  15.084  28.604   8.550
 4688POPC   C2B 7052  15.053  28.612   8.250
 4688POPC   C3B 7053  15.082  28.582   7.950
 4688POPC   C4B 7054  15.042  28.618   7.650
 4689POPC   NC3 7055  43.121  22.902   9.450
 4689POPC   PO4 7056  43.143  22.970   9.150
 4689POPC   GL1 7057  43.145  22.931   8.850
 4689POPC   GL2 7058  43.220  22.983   8.850
 4689POPC   C1A 7059  43.068  22.927   8.550
 4689POPC   D2A 7060  43.157  22.986   8.250
 4689POPC   C3A 7061  43.126  22.964   7.950
 4689POPC   C4A 7062  43.139  22.949   7.650
 4689POPC   C1B 7063  43.396  23.038   8.550
 4689POPC   C2B 7064  43.306  23.001   8.250
 4689POPC   C3B 7065  43.349  22.978   7.950
 4689POPC   C4B 7066  43.330  22.989   7.650
 4690POPC   NC3 7067  27.632  40.814   9.450
 4690POPC   PO4 7068  27.610  40.808   9.150
 4690POPC   GL1 7069  27.632  40.830   8.850
 4690POPC   GL2 7070  27.470  40.702   8.850
 4690POPC   C1A 7071  27.630  40.826   8.550
 4690POPC   D2A 7072  27.569  40.756   8.250
 4690POPC   C3A 7073  27.616  40.794   7.950
 4690POPC   C4A 7074  27.635  40.797   7.650
 4690POPC   C1B 7075  27.357  40.690   8.550
 4690POPC   C2B 7076  27.348  40.638   8.250
 4690POPC   C3B 7077  27.351  40.698   7.950
 4690POPC   C4B 7078  27.388  40.664   7.650
 4691POPC   NC3 7079  35.367   9.723   9.450
 4691POPC   PO4 7080  35.400   9.720   9.150
 4691POPC   GL1 7081  35.319   9.790   8.850
 4691POPC   GL2 7082  35.389   9.844   8.850
 4691POPC   C1A 7083  35.387   9.743   8.550
 4691POPC   D2A 7084  35.350   9.780   8.250
 4691POPC   C3A 7085  35.398   9.712   7.950
 4691POPC   C4A 7086  35.371   9.791   7.650
 4691POPC   C1B 7087  35.465   9.939   8.550
 4691POPC   C2B 7088  35.492   9.939   8.250
 4691POPC   C3B 7089  35.486   9.997   7.950
 4691POPC   C4B 7090  35.463   9.976   7.650
 4692POPC   NC3 7091  29.166  38.426   9.450
 4692POPC   PO4 7092  29.186  38.426   9.150
 4692POPC   GL1 7093  29.113  38.486   8.850
 4692POPC   GL2 7094  29.237  38.533   8.850
 4692POPC   C1A 7095  29.185  38.409   8.550
 4692POPC   D2A 7096  29.194  38.482   8.250
 4692POPC   C3A 7097  29.156  38.424   7.950
 4692POPC   C4A 7098  29.185  38.495   7.650
 4692POPC   C1B 7099  29.327  38.600   8.550
 4692POPC   C2B 7100  29.392  38.630   8.250
 4692POPC   C3B 7101  29.315  38.630   7.950
 4692POPC   C4B 7102  29.362  38.586   7.650
 4693POPC   NC3 7103  35.313   5.099   9.450
 4693POPC   PO4 7104  35.304   5.129   9.150
 4693POPC   GL1 7105  35.312   5.065   8.850
 4693POPC   GL2 7106  35.316   5.239   8.850
 4693POPC   C1A 7107  35.348   5.139   8.550
 4693POPC   D2A 7108  35.347   5.114   8.250
 4693POPC   C3A 7109  35.370   5.103   7.950
 4693POPC   C4A 7110  35.306   5.119   7.650
 4693POPC   C1B 7111  35.308   5.322   8.550
 4693POPC   C2B 7112  35.324   5.338   8.250
 4693POPC   C3B 7113  35.257   5.357   7.950
 4693POPC   C4B 7114  35.265   5.317   7.650
 4694POPC   NC3 7115   7.464  21.366   9.450
 4694POPC   PO4 7116   7.445  21.428   9.150
 4694POPC   GL1 7117   7.439  21.353   8.850
 4694POPC   GL2 7118   7.502  21.521   8.850
 4694POPC   C1A 7119   7.441  21.415   8.550
 4694POPC   D2A 7120   7.377  21.403   8.250
 4694POPC   C3A 7121   7.398  21.347   7.950
 4694POPC   C4A 7122   7.426  21.370   7.650
 4694POPC   C1B 7123   7.553  21.616   8.550
 4694POPC   C2B 7124   7.484  21.610   8.250
 4694POPC   C3B 7125   7.543  21.574   7.950
 4694POPC   C4B 7126   7.473  21.566   7.650
 4695POPC   NC3 7127   6.625   2.812   9.450
 4695POPC   PO4 7128   6.693   2.720   9.150
 4695POPC   GL1 7129   6.688   2.804   8.850
 4695POPC   GL2 7130   6.675   2.676   8.850
 4695POPC   C1A 7131   6.649   2.752   8.550
 4695POPC   D2A 7132   6.670   2.786   8.250
 4695POPC   C3A 7133   6.684   2.800   7.950
 4695POPC   C4A 7134   6.602   2.759   7.650
 4695POPC   C1B 7135   6.735   2.587   8.550
 4695POPC   C2B 7136   6.784   2.566   8.250
 4695POPC   C3B 7137   6.797   2.580   7.950
 4695POPC   C4B 7138   6.733   2.543   7.650
 4696POPC   NC3 7139  40.022  26.845   9.450
 4696POPC   PO4 7140  39.979  26.786   9.150
 4696POPC   GL1 7141  40.049  26.839   8.850
 4696POPC   GL2 7142  40.109  26.751   8.850
 4696POPC   C1A 7143  39.986  26.770   8.550
 4696POPC   D2A 7144  40.021  26.782   8.250
 4696POPC   C3A 7145  39.994  26.845   7.950
 4696POPC   C4A 7146  40.025  26.771   7.650
 4696POPC   C1B 7147  40.240  26.778   8.550
 4696POPC   C2B 7148  40.269  26.734   8.250
 4696POPC   C3B 7149  40.224  26.794   7.950
 4696POPC   C4B 7150  40.219  26.725   7.650
 4697POPC   NC3 7151  18.305   5.077   9.450
 4697POPC   PO4 7152  18.278   5.062   9.150
 4697POPC   GL1 7153  18.331   5.070   8.850
 4697POPC   GL2 7154  18.254   5.004   8.850
 4697POPC   C1A 7155  18.274   5.133   8.550
 4697POPC   D2A 7156  18.235   5.094   8.250
 4697POPC   C3A 7157  18.295   5.125   7.950
 4697POPC   C4A 7158  18.286   5.142   7.650
 4697POPC   C1B 7159  18.252   4.816   8.550
 4697POPC   C2B 7160  18.252   4.871   8.250
 4697POPC   C3B 7161  18.274   4.800   7.950
 4697POPC   C4B 7162  18.195   4.825   7.650
 4698POPC   NC3 7163  43.877  41.595   9.450
 4698POPC   PO4 7164  43.892  41.584   9.150
 4698POPC   GL1 7165  43.851  41.549   8.850
 4698POPC   GL2 7166  43.834  41.682   8.850
 4698POPC   C1A 7167  43.920  41.543   8.550
 4698POPC   D2A 7168  43.928  41.580   8.250
 4698POPC   C3A 7169  43.923  41.591   7.950
 4698POPC   C4A 7170  43.863  41.568   7.650
 4698POPC   C1B 7171  43.695  41.810   8.550
 4698POPC   C2B 7172  43.738  41.759   8.250
 4698POPC   C3B 7173  43.746  41.780   7.950
 4698POPC   C4B 7174  43.732  41.729   7.650
 4699POPC   NC3 7175   5.823  36.133   9.450
 4699POPC   PO4 7176   5.898  36.116   9.150
 4699POPC   GL1 7177   5.848  36.132   8.850
 4699POPC   GL2 7178   5.921  35.971   8.850
 4699POPC   C1A 7179   5.848  36.088   8.550
 4699POPC   D2A 7180   5.820  36.166   8.250
 4699POPC   C3A 7181   5.843  36.175   7.950
 4699POPC   C4A 7182   5.870  36.132   7.650
 4699POPC   C1B 7183   5.940  35.907   8.550
 4699POPC   C2B 7184   5.953  35.870   8.250
 4699POPC   C3B 7185   5.921  35.934   7.950
 4699POPC   C4B 7186   5.907  35.882   7.650
 4700POPC   NC3 7187  24.490   5.849   9.450
 4700POPC   PO4 7188  24.533   5.877   9.150
 4700POPC   GL1 7189  24.472   5.858   8.850
 4700POPC   GL2 7190  24.380   5.873   8.850
 4700POPC   C1A 7191  24.514   5.918   8.550
 4700POPC   D2A 7192  24.467   5.823   8.250
 4700POPC   C3A 7193  24.496   5.884   7.950
 4700POPC   C4A 7194  24.500   5.871   7.650
 4700POPC   C1B 7195  24.246   5.796   8.550
 4700POPC   C2B 7196  24.200   5.825   8.250
 4700POPC   C3B 7197  24.227   5.824   7.950
 4700POPC   C4B 7198  24.266   5.786   7.650
 4701POPC   NC3 7199  37.692  19.057   9.450
 4701POPC   PO4 7200  37.693  19.041   9.150
 4701POPC   GL1 7201  37.670  19.092   8.850
 4701POPC   GL2 7202  37.846  19.100   8.850
 4701POPC   C1A 7203  37.696  19.049   8.550
 4701POPC   D2A 7204  37.664  19.048   8.250
 4701POPC   C3A 7205  37.704  19.056   7.950
 4701POPC   C4A 7206  37.725  19.093   7.650
 4701POPC   C1B 7207  37.946  19.037   8.550
 4701POPC   C2B 7208  37.927  19.049   8.250
 4701POPC   C3B 7209  37.897  19.077   7.950
 4701POPC   C4B 7210  37.922  19.069   7.650
 4702POPC   NC3 7211  19.080  29.961   9.450
 4702POPC   PO4 7212  19.037  29.916   9.150
 4702POPC   GL1 7213  19.063  29.876   8.850
 4702POPC   GL2 7214  19.098  29.769   8.850
 4702POPC   C1A 7215  19.047  29.902   8.550
 4702POPC   D2A 7216  19.016  29.924   8.250
 4702POPC   C3A 7217  19.105  29.912   7.950
 4702POPC   C4A 7218  19.066  29.930   7.650
 4702POPC   C1B 7219  19.046  29.625   8.550
 4702POPC   C2B 7220  19.052  29.682   8.250
 4702POPC   C3B 7221  19.052  29.627   7.950
 4702POPC   C4B 7222  19.064  29.678   7.650
 4703POPC   NC3 7223  25.261  33.011   9.450
 4703POPC   PO4 7224  25.247  33.017   9.150
 4703POPC   GL1 7225  25.259  32.986   8.850
 4703POPC   GL2 7226  25.176  32.914   8.850
 4703POPC   C1A 7227  25.301  33.017   8.550
 4703POPC   D2A 7228  25.216  33.061   8.250
 4703POPC   C3A 7229  25.258  33.000   7.950
 4703POPC   C4A 7230  25.296  33.048   7.650
 4703POPC   C1B 7231  25.207  32.753   8.550
 4703POPC   C2B 7232  25.171  32.749   8.250
 4703POPC   C3B 7233  25.193  32.744   7.950
 4703POPC   C4B 7234  25.190  32.782   7.650
 4704POPC   NC3 7235  40.777  29.951   9.450
 4704POPC   PO4 7236  40.810  29.874   9.150
 4704POPC   GL1 7237  40.737  29.873   8.850
 4704POPC   GL2 7238  40.721  29.996   8.850
 4704POPC   C1A 7239  40.795  29.958   8.550
 4704POPC   D2A 7240  40.749  29.921   8.250
 4704POPC   C3A 7241  40.785  29.962   7.950
 4704POPC   C4A 7242  40.805  29.928   7.650
 4704POPC   C1B 7243  40.606  30.073   8.550
 4704POPC   C2B 7244  40.647  30.076   8.250
 4704POPC   C3B 7245  40.624  30.070   7.950
 4704POPC   C4B 7246  40.659  30.161   7.650
 4705POPC   NC3 7247  21.365   6.655   9.450
 4705POPC   PO4 7248  21.423   6.671   9.150
 4705POPC   GL1 7249  21.428   6.614   8.850
 4705POPC   GL2 7250  21.439   6.573   8.850
 4705POPC   C1A 7251  21.404   6.604   8.550
 4705POPC   D2A 7252  21.372   6.674   8.250
 4705POPC   C3A 7253  21.432   6.666   7.950
 4705POPC   C4A 7254  21.430   6.637   7.650
 4705POPC   C1B 7255  21.553   6.440   8.550
 4705POPC   C2B 7256  21.567   6.433   8.250
 4705POPC   C3B 7257  21.492   6.431   7.950
 4705POPC   C4B 7258  21.524   6.433   7.650
 4706POPC   NC3 7259  39.263  20.621   9.450
 4706POPC   PO4 7260  39.184  20.645   9.150
 4706POPC   GL1 7261  39.242  20.628   8.850
 4706POPC   GL2 7262  39.209  20.531   8.850
 4706POPC   C1A 7263  39.215  20.631   8.550
 4706POPC   D2A 7264  39.196  20.626   8.250
 4706POPC   C3A 7265  39.238  20.569   7.950
 4706POPC   C4A 7266  39.244  20.610   7.650
 4706POPC   C1B 7267  39.270  20.390   8.550
 4706POPC   C2B 7268  39.227  20.407   8.250
 4706POPC   C3B 7269  39.270  20.389   7.950
 4706POPC   C4B 7270  39.261  20.376   7.650
 4707POPC   NC3 7271   8.956  34.611   9.450
 4707POPC   PO4 7272   8.935  34.609   9.150
 4707POPC   GL1 7273   8.928  34.608   8.850
 4707POPC   GL2 7274   8.870  34.423   8.850
 4707POPC   C1A 7275   8.965  34.571   8.550
 4707POPC   D2A 7276   9.009  34.579   8.250
 4707POPC   C3A 7277   8.996  34.532   7.950
 4707POPC   C4A 7278   8.949  34.593   7.650
 4707POPC   C1B 7279   8.805  34.354   8.550
 4707POPC   C2B 7280   8.823  34.399   8.250
 4707POPC   C3B 7281   8.856  34.374   7.950
 4707POPC   C4B 7282   8.799  34.325   7.650
 4708POPC   NC3 7283  15.932  28.389   9.450
 4708POPC   PO4 7284  15.951  28.332   9.150
 4708POPC   GL1 7285  15.970  28.353   8.850
 4708POPC   GL2 7286  16.095  28.351   8.850
 4708POPC   C1A 7287  15.999  28.389   8.550
 4708POPC   D2A 7288  15.918  28.390   8.250
 4708POPC   C3A 7289  15.934  28.388   7.950
 4708POPC   C4A 7290  16.000  28.364   7.650
 4708POPC   C1B 7291  16.144  28.294   8.550
 4708POPC   C2B 7292  16.164  28.313   8.250
 4708POPC   C3B 7293  16.155  28.266   7.950
 4708POPC   C4B 7294  16.180  28.310   7.650
 4709POPC   NC3 7295   4.272  23.708   9.450
 4709POPC   PO4 7296   4.307  23.727   9.150
 4709POPC   GL1 7297   4.301  23.718   8.850
 4709POPC   GL2 7298   4.197  23.616   8.850
 4709POPC   C1A 7299   4.281  23.703   8.550
 4709POPC   D2A 7300   4.358  23.719   8.250
 4709POPC   C3A 7301   4.357  23.665   7.950
 4709POPC   C4A 7302   4.333  23.751   7.650
 4709POPC   C1B 7303   4.099  23.557   8.550
 4709POPC   C2B 7304   4.070  23.588   8.250
 4709POPC   C3B 7305   4.141  23.584   7.950
 4709POPC   C4B 7306   4.070  23.631   7.650
 4710POPC   NC3 7307  31.431  23.757   9.450
 4710POPC   PO4 7308  31.517  23.685   9.150
 4710POPC   GL1 7309  31.518  23.683   8.850
 4710POPC   GL2 7310  31.475  23.818   8.850
 4710POPC   C1A 7311  31.483  23.746   8.550
 4710POPC   D2A 7312  31.499  23.733   8.250
 4710POPC   C3A 7313  31.488  23.681   7.950
 4710POPC   C4A 7314  31.438  23.754   7.650
 4710POPC   C1B 7315  31.460  23.919   8.550
 4710POPC   C2B 7316  31.473  24.001   8.250
 4710POPC   C3B 7317  31.499  23.960   7.950
 4710POPC   C4B 7318  31.450  23.981   7.650
 4711POPC   NC3 7319   2.803  29.946   9.450
 4711POPC   PO4 7320   2.799  29.963   9.150
 4711POPC   GL1 7321   2.734  29.942   8.850
 4711POPC   GL2 7322   2.699  29.811   8.850
 4711POPC   C1A 7323   2.801  29.893   8.550
 4711POPC   D2A 7324   2.807  29.875   8.250
 4711POPC   C3A 7325   2.765  29.905   7.950
 4711POPC   C4A 7326   2.780  29.877   7.650
 4711POPC   C1B 7327   2.630  29.772   8.550
 4711POPC   C2B 7328   2.613  29.681   8.250
 4711POPC   C3B 7329   2.591  29.692   7.950
 4711POPC   C4B 7330   2.581  29.769   7.650
 4712POPC   NC3 7331  13.582  20.586   9.450
 4712POPC   PO4 7332  13.592  20.624   9.150
 4712POPC   GL1 7333  13.601  20.574   8.850
 4712POPC   GL2 7334  13.608  20.729   8.850
 4712POPC   C1A 7335  13.598  20.626   8.550
 4712POPC   D2A 7336  13.620  20.658   8.250
 4712POPC   C3A 7337  13.594  20.567   7.950
 4712POPC   C4A 7338  13.655  20.562   7.650
 4712POPC   C1B 7339  13.482  20.797   8.550
 4712POPC   C2B 7340  13.534  20.879   8.250
 4712POPC   C3B 7341  13.503  20.850   7.950
 4712POPC   C4B 7342  13.556  20.816   7.650
 4713POPC   NC3 7343  29.926  11.329   9.450
 4713POPC   PO4 7344  29.892  11.336   9.150
 4713POPC   GL1 7345  29.947  11.349   8.850
 4713POPC   GL2 7346  29.843  11.435   8.850
 4713POPC   C1A 7347  29.919  11.267   8.550
 4713POPC   D2A 7348  29.934  11.325   8.250
 4713POPC   C3A 7349  29.909  11.313   7.950
 4713POPC   C4A 7350  29.956  11.334   7.650
 4713POPC   C1B 7351  29.849  11.500   8.550
 4713POPC   C2B 7352  29.825  11.488   8.250
 4713POPC   C3B 7353  29.805  11.509   7.950
 4713POPC   C4B 7354  29.762  11.555   7.650
 4714POPC   NC3 7355   8.991  21.338   9.450
 4714POPC   PO4 7356   8.941  21.404   9.150
 4714POPC   GL1 7357   8.938  21.381   8.850
 4714POPC   GL2 7358   8.832  21.420   8.850
 4714POPC   C1A 7359   8.925  21.367   8.550
 4714POPC   D2A 7360   9.007  21.341   8.250
 4714POPC   C3A 7361   8.970  21.416   7.950
 4714POPC   C4A 7362   8.958  21.419   7.650
 4714POPC   C1B 7363   8.710  21.469   8.550
 4714POPC   C2B 7364   8.719  21.478   8.250
 4714POPC   C3B 7365   8.692  21.416   7.950
 4714POPC   C4B 7366   8.690  21.432   7.650
 4715POPC   NC3 7367   8.147  31.476   9.450
 4715POPC   PO4 7368   8.181  31.502   9.150
 4715POPC   GL1 7369   8.179  31.475   8.850
 4715POPC   GL2 7370   8.298  31.440   8.850
 4715POPC   C1A 7371   8.194  31.518   8.550
 4715POPC   D2A 7372   8.157  31.517   8.250
 4715POPC   C3A 7373   8.172  31.454   7.950
 4715POPC   C4A 7374   8.149  31.522   7.650
 4715POPC   C1B 7375   8.410  31.305   8.550
 4715POPC   C2B 7376   8.427  31.321   8.250
 4715POPC   C3B 7377   8.415  31.321   7.950
 4715POPC   C4B 7378   8.420  31.352   7.650
 4716POPC   NC3 7379  14.434  33.024   9.450
 4716POPC   PO4 7380  14.375  32.997   9.150
 4716POPC   GL1 7381  14.366  33.007   8.850
 4716POPC   GL2 7382  14.346  32.899   8.850
 4716POPC   C1A 7383  14.388  33.032   8.550
 4716POPC   D2A 7384  14.435  33.047   8.250
 4716POPC   C3A 7385  14.390  33.032   7.950
 4716POPC   C4A 7386  14.366  33.016   7.650
 4716POPC   C1B 7387  14.219  32.829   8.550
 4716POPC   C2B 7388  14.275  32.809   8.250
 4716POPC   C3B 7389  14.234  32.765   7.950
 4716POPC   C4B 7390  14.219  32.844   7.650
 4717POPC   NC3 7391  16.000   2.797   9.450
 4717POPC   PO4 7392  15.971   2.762   9.150
 4717POPC   GL1 7393  15.935   2.802   8.850
 4717POPC   GL2 7394  15.902   2.897   8.850
 4717POPC   C1A 7395  15.936   2.762   8.550
 4717POPC   D2A 7396  15.921   2.756   8.250
 4717POPC   C3A 7397  15.911   2.762   7.950
 4717POPC   C4A 7398  15.994   2.747   7.650
 4717POPC   C1B 7399  15.845   3.042   8.550
 4717POPC   C2B 7400  15.814   2.967   8.250
 4717POPC   C3B 7401  15.854   2.993   7.950
 4717POPC   C4B 7402  15.843   2.998   7.650
 4718POPC   NC3 7403  42.374  27.618   9.450
 4718POPC   PO4 7404  42.361  27.581   9.150
 4718POPC   GL1 7405  42.326  27.620   8.850
 4718POPC   GL2 7406  42.265  27.659   8.850
 4718POPC   C1A 7407  42.306  27.637   8.550
 4718POPC   D2A 7408  42.376  27.578   8.250
 4718POPC   C3A 7409  42.324  27.637   7.950
 4718POPC   C4A 7410  42.383  27.550   7.650
 4718POPC   C1B 7411  42.164  27.789   8.550
 4718POPC   C2B 7412  42.123  27.767   8.250
 4718POPC   C3B 7413  42.095  27.710   7.950
 4718POPC   C4B 7414  42.109  27.718   7.650
 4719POPC   NC3 7415  22.980   2.726   9.450
 4719POPC   PO4 7416  22.888   2.769   9.150
 4719POPC   GL1 7417  22.981   2.751   8.850
 4719POPC   GL2 7418  22.995   2.650   8.850
 4719POPC   C1A 7419  22.971   2.764   8.550
 4719POPC   D2A 7420  22.951   2.815   8.250
 4719POPC   C3A 7421  22.968   2.718   7.950
 4719POPC   C4A 7422  22.917   2.762   7.650
 4719POPC   C1B 7423  23.157   2.624   8.550
 4719POPC   C2B 7424  23.080   2.555   8.250
 4719POPC   C3B 7425  23.083   2.637   7.950
 4719POPC   C4B 7426  23.082   2.630   7.650
 4720POPC   NC3 7427   3.552  36.924   9.450
 4720POPC   PO4 7428   3.575  36.855   9.150
 4720POPC   GL1 7429   3.558  36.926   8.850
 4720POPC   GL2 7430   3.613  37.056   8.850
 4720POPC   C1A 7431   3.513  36.888   8.550
 4720POPC   D2A 7432   3.535  36.871   8.250
 4720POPC   C3A 7433   3.531  36.904   7.950
 4720POPC   C4A 7434   3.550  36.938   7.650
 4720POPC   C1B 7435   3.617  37.158   8.550
 4720POPC   C2B 7436   3.661  37.157   8.250
 4720POPC   C3B 7437   3.651  37.080   7.950
 4720POPC   C4B 7438   3.642  37.167   7.650
 4721POPC   NC3 7439  40.757  19.027   9.450
 4721POPC   PO4 7440  40.784  19.049   9.150
 4721POPC   GL1 7441  40.751  19.058   8.850
 4721POPC   GL2 7442  40.724  19.007   8.850
 4721POPC   C1A 7443  40.761  19.092   8.550
 4721POPC   D2A 7444  40.787  19.075   8.250
 4721POPC   C3A 7445  40.741  19.058   7.950
 4721POPC   C4A 7446  40.761  19.105   7.650
 4721POPC   C1B 7447  40.572  18.911   8.550
 4721POPC   C2B 7448  40.538  18.884   8.250
 4721POPC   C3B 7449  40.620  18.959   7.950
 4721POPC   C4B 7450  40.614  18.962   7.650
 4722POPC   NC3 7451   6.642  30.670   9.450
 4722POPC   PO4 7452   6.674  30.660   9.150
 4722POPC   GL1 7453   6.679  30.655   8.850
 4722POPC   GL2 7454   6.742  30.550   8.850
 4722POPC   C1A 7455   6.677  30.660   8.550
 4722POPC   D2A 7456   6.665  30.684   8.250
 4722POPC   C3A 7457   6.676  30.738   7.950
 4722POPC   C4A 7458   6.687  30.727   7.650
 4722POPC   C1B 7459   6.794  30.458   8.550
 4722POPC   C2B 7460   6.749  30.542   8.250
 4722POPC   C3B 7461   6.754  30.514   7.950
 4722POPC   C4B 7462   6.777  30.536   7.650
 4723POPC   NC3 7463   4.334   5.916   9.450
 4723POPC   PO4 7464   4.295   5.914   9.150
 4723POPC   GL1 7465   4.291   5.838   8.850
 4723POPC   GL2 7466   4.433   5.818   8.850
 4723POPC   C1A 7467   4.293   5.846   8.550
 4723POPC   D2A 7468   4.280   5.887   8.250
 4723POPC   C3A 7469   4.271   5.861   7.950
 4723POPC   C4A 7470   4.356   5.914   7.650
 4723POPC   C1B 7471   4.516   5.755   8.550
 4723POPC   C2B 7472   4.528   5.798   8.250
 4723POPC   C3B 7473   4.523   5.751   7.950
 4723POPC   C4B 7474   4.514   5.770   7.650
 4724POPC   NC3 7475   8.970  29.176   9.450
 4724POPC   PO4 7476   8.994  29.131   9.150
 4724POPC   GL1 7477   9.017  29.187   8.850
 4724POPC   GL2 7478   8.854  29.118   8.850
 4724POPC   C1A 7479   9.012  29.121   8.550
 4724POPC   D2A 7480   9.019  29.148   8.250
 4724POPC   C3A 7481   8.975  29.170   7.950
 4724POPC   C4A 7482   9.010  29.107   7.650
 4724POPC   C1B 7483   8.781  29.039   8.550
 4724POPC   C2B 7484   8.709  29.083   8.250
 4724POPC   C3B 7485   8.767  29.038   7.950
 4724POPC   C4B 7486   8.758  29.006   7.650
 4725POPC   NC3 7487  26.788  12.101   9.450
 4725POPC   PO4 7488  26.856  12.095   9.150
 4725POPC   GL1 7489  26.779  12.079   8.850
 4725POPC   GL2 7490  26.940  12.067   8.850
 4725POPC   C1A 7491  26.862  12.065   8.550
 4725POPC   D2A 7492  26.820  12.059   8.250
 4725POPC   C3A 7493  26.845  12.052   7.950
 4725POPC   C4A 7494  26.824  12.061   7.650
 4725POPC   C1B 7495  27.036  12.084   8.550
 4725POPC   C2B 7496  27.110  12.119   8.250
 4725POPC   C3B 7497  27.054  12.057   7.950
 4725POPC   C4B 7498  27.072  12.105   7.650
 4726POPC   NC3 7499  39.234  33.783   9.450
 4726POPC   PO4 7500  39.256  33.842   9.150
 4726POPC   GL1 7501  39.259  33.807   8.850
 4726POPC   GL2 7502  39.328  33.729   8.850
 4726POPC   C1A 7503  39.184  33.780   8.550
 4726POPC   D2A 7504  39.270  33.826   8.250
 4726POPC   C3A 7505  39.241  33.832   7.950
 4726POPC   C4A 7506  39.223  33.849   7.650
 4726POPC   C1B 7507  39.334  33.608   8.550
 4726POPC   C2B 7508  39.331  33.623   8.250
 4726POPC   C3B 7509  39.413  33.581   7.950
 4726POPC   C4B 7510  39.333  33.553   7.650
 4727POPC   NC3 7511   2.760  22.190   9.450
 4727POPC   PO4 7512   2.772  22.194   9.150
 4727POPC   GL1 7513   2.718  22.207   8.850
 4727POPC   GL2 7514   2.894  22.095   8.850
 4727POPC   C1A 7515   2.801  22.171   8.550
 4727POPC   D2A 7516   2.794  22.179   8.250
 4727POPC   C3A 7517   2.785  22.182   7.950
 4727POPC   C4A 7518   2.806  22.161   7.650
 4727POPC   C1B 7519   2.952  22.029   8.550
 4727POPC   C2B 7520   3.039  22.064   8.250
 4727POPC   C3B 7521   3.001  22.065   7.950
 4727POPC   C4B 7522   3.042  22.051   7.650
 4728POPC   NC3 7523  34.610   2.011   9.450
 4728POPC   PO4 7524  34.588   1.950   9.150
 4728POPC   GL1 7525  34.593   1.986   8.850
 4728POPC   GL2 7526  34.484   2.048   8.850
 4728POPC   C1A 7527  34.626   1.965   8.550
 4728POPC   D2A 7528  34.548   2.012   8.250
 4728POPC   C3A 7529  34.536   2.004   7.950
 4728POPC   C4A 7530  34.623   2.004   7.650
 4728POPC   C1B 7531  34.330   2.047   8.550
 4728POPC   C2B 7532  34.355   1.982   8.250
 4728POPC   C3B 7533  34.361   1.981   7.950
 4728POPC   C4B 7534  34.377   2.058   7.650
 4729POPC   NC3 7535  22.926   9.774   9.450
 4729POPC   PO4 7536  22.922   9.745   9.150
 4729POPC   GL1 7537  22.917   9.795   8.850
 4729POPC   GL2 7538  23.008   9.661   8.850
 4729POPC   C1A 7539  22.948   9.766   8.550
 4729POPC   D2A 7540  22.919   9.729   8.250
 4729POPC   C3A 7541  22.938   9.715   7.950
 4729POPC   C4A 7542  22.956   9.703   7.650
 4729POPC   C1B 7543  23.087   9.585   8.550
 4729POPC   C2B 7544  23.081   9.551   8.250
 4729POPC   C3B 7545  23.108   9.510   7.950
 4729POPC   C4B 7546  23.139   9.595   7.650
 4730POPC   NC3 7547   7.427   6.682   9.450
 4730POPC   PO4 7548   7.434   6.645   9.150
 4730POPC   GL1 7549   7.447   6.638   8.850
 4730POPC   GL2 7550   7.388   6.744   8.850
 4730POPC   C1A 7551   7.411   6.631   8.550
 4730POPC   D2A 7552   7.455   6.684   8.250
 4730POPC   C3A 7553   7.380   6.647   7.950
 4730POPC   C4A 7554   7.394   6.604   7.650
 4730POPC   C1B 7555   7.249   6.821   8.550
 4730POPC   C2B 7556   7.283   6.855   8.250
 4730POPC   C3B 7557   7.234   6.798   7.950
 4730POPC   C4B 7558   7.296   6.876   7.650
 4731POPC   NC3 7559  42.312   2.741   9.450
 4731POPC   PO4 7560  42.343   2.755   9.150
 4731POPC   GL1 7561  42.362   2.801   8.850
 4731POPC   GL2 7562  42.401   2.867   8.850
 4731POPC   C1A 7563  42.369   2.764   8.550
 4731POPC   D2A 7564  42.339   2.744   8.250
 4731POPC   C3A 7565  42.342   2.755   7.950
 4731POPC   C4A 7566  42.356   2.754   7.650
 4731POPC   C1B 7567  42.543   2.922   8.550
 4731POPC   C2B 7568  42.544   2.866   8.250
 4731POPC   C3B 7569  42.545   2.913   7.950
 4731POPC   C4B 7570  42.538   2.903   7.650
 4732POPC   NC3 7571   9.739  14.404   9.450
 4732POPC   PO4 7572   9.730  14.414   9.150
 4732POPC   GL1 7573   9.762  14.374   8.850
 4732POPC   GL2 7574   9.920  14.437   8.850
 4732POPC   C1A 7575   9.747  14.369   8.550
 4732POPC   D2A 7576   9.798  14.399   8.250
 4732POPC   C3A 7577   9.724  14.378   7.950
 4732POPC   C4A 7578   9.711  14.407   7.650
 4732POPC   C1B 7579  10.025  14.360   8.550
 4732POPC   C2B 7580   9.978  14.421   8.250
 4732POPC   C3B 7581   9.996  14.373   7.950
 4732POPC   C4B 7582  10.009  14.446   7.650
 4733POPC   NC3 7583  12.055  26.772   9.450
 4733POPC   PO4 7584  12.051  26.837   9.150
 4733POPC   GL1 7585  12.029  26.864   8.850
 4733POPC   GL2 7586  12.013  26.927   8.850
 4733POPC   C1A 7587  12.097  26.816   8.550
 4733POPC   D2A 7588  12.066  26.830   8.250
 4733POPC   C3A 7589  12.114  26.819   7.950
 4733POPC   C4A 7590  12.054  26.830   7.650
 4733POPC   C1B 7591  11.970  27.050   8.550
 4733POPC   C2B 7592  11.931  27.015   8.250
 4733POPC   C3B 7593  11.947  27.075   7.950
 4733POPC   C4B 7594  11.943  27.021   7.650
 4734POPC   NC3 7595  36.883  33.011   9.450
 4734POPC   PO4 7596  36.936  32.992   9.150
 4734POPC   GL1 7597  36.872  33.051   8.850
 4734POPC   GL2 7598  36.939  32.910   8.850
 4734POPC   C1A 7599  36.887  32.984   8.550
 4734POPC   D2A 7600  36.856  33.006   8.250
 4734POPC   C3A 7601  36.907  33.066   7.950
 4734POPC   C4A 7602  36.913  32.996   7.650
 4734POPC   C1B 7603  36.856  32.788   8.550
 4734POPC   C2B 7604  36.927  32.796   8.250
 4734POPC   C3B 7605  36.921  32.768   7.950
 4734POPC   C4B 7606  36.868  32.728   7.650
 4735POPC   NC3 7607  37.667  31.453   9.450
 4735POPC   PO4 7608  37.717  31.488   9.150
 4735POPC   GL1 7609  37.646  31.434   8.850
 4735POPC   GL2 7610  37.639  31.368   8.850
 4735POPC   C1A 7611  37.727  31.489   8.550
 4735POPC   D2A 7612  37.679  31.464   8.250
 4735POPC   C3A 7613  37.646  31.442   7.950
 4735POPC   C4A 7614  37.684  31.442   7.650
 4735POPC   C1B 7615  37.535  31.343   8.550
 4735POPC   C2B 7616  37.487  31.299   8.250
 4735POPC   C3B 7617  37.465  31.336   7.950
 4735POPC   C4B 7618  37.513  31.282   7.650
 4736POPC   NC3 7619  42.350   7.397   9.450
 4736POPC   PO4 7620  42.348   7.380   9.150
 4736POPC   GL1 7621  42.291   7.430   8.850
 4736POPC   GL2 7622  42.413   7.386   8.850
 4736POPC   C1A 7623  42.343   7.413   8.550
 4736POPC   D2A 7624  42.346   7.414   8.250
 4736POPC   C3A 7625  42.305   7.431   7.950
 4736POPC   C4A 7626  42.362   7.424   7.650
 4736POPC   C1B 7627  42.570   7.465   8.550
 4736POPC   C2B 7628  42.552   7.440   8.250
 4736POPC   C3B 7629  42.554   7.473   7.950
 4736POPC   C4B 7630  42.630   7.408   7.650
 4737POPC   NC3 7631  18.314  26.824   9.450
 4737POPC   PO4 7632  18.328  26.768   9.150
 4737POPC   GL1 7633  18.298  26.866   8.850
 4737POPC   GL2 7634  18.160  26.931   8.850
 4737POPC   C1A 7635  18.324  26.827   8.550
 4737POPC   D2A 7636  18.233  26.786   8.250
 4737POPC   C3A 7637  18.276  26.816   7.950
 4737POPC   C4A 7638  18.257  26.842   7.650
 4737POPC   C1B 7639  18.119  26.973   8.550
 4737POPC   C2B 7640  18.117  26.996   8.250
 4737POPC   C3B 7641  18.087  26.990   7.950
 4737POPC   C4B 7642  18.121  26.989   7.650
 4738POPC   NC3 7643  15.208  39.250   9.450
 4738POPC   PO4 7644  15.172  39.211   9.150
 4738POPC   GL1 7645  15.153  39.206   8.850
 4738POPC   GL2 7646  15.105  39.144   8.850
 4738POPC   C1A 7647  15.149  39.185   8.550
 4738POPC   D2A 7648  15.163  39.250   8.250
 4738POPC   C3A 7649  15.202  39.273   7.950
 4738POPC   C4A 7650  15.173  39.242   7.650
 4738POPC   C1B 7651  14.916  39.149   8.550
 4738POPC   C2B 7652  14.907  39.148   8.250
 4738POPC   C3B 7653  14.944  39.136   7.950
 4738POPC   C4B 7654  14.917  39.148   7.650
 4739POPC   NC3 7655  36.937   6.612   9.450
 4739POPC   PO4 7656  36.913   6.628   9.150
 4739POPC   GL1 7657  36.944   6.662   8.850
 4739POPC   GL2 7658  36.937   6.577   8.850
 4739POPC   C1A 7659  36.859   6.615   8.550
 4739POPC   D2A 7660  36.941   6.676   8.250
 4739POPC   C3A 7661  36.946   6.643   7.950
 4739POPC   C4A 7662  36.874   6.688   7.650
 4739POPC   C1B 7663  37.004   6.428   8.550
 4739POPC   C2B 7664  37.000   6.389   8.250
 4739POPC   C3B 7665  37.057   6.405   7.950
 4739POPC   C4B 7666  37.060   6.399   7.650
 4740POPC   NC3 7667  37.721  24.445   9.450
 4740POPC   PO4 7668  37.675  24.465   9.150
 4740POPC   GL1 7669  37.708  24.530   8.850
 4740POPC   GL2 7670  37.713  24.541   8.850
 4740POPC   C1A 7671  37.700  24.535   8.550
 4740POPC   D2A 7672  37.637  24.457   8.250
 4740POPC   C3A 7673  37.680  24.448   7.950
 4740POPC   C4A 7674  37.700  24.494   7.650
 4740POPC   C1B 7675  37.837  24.634   8.550
 4740POPC   C2B 7676  37.798  24.661   8.250
 4740POPC   C3B 7677  37.817  24.727   7.950
 4740POPC   C4B 7678  37.842  24.660   7.650
 4741POPC   NC3 7679  43.155  32.252   9.450
 4741POPC   PO4 7680  43.065  32.249   9.150
 4741POPC   GL1 7681  43.074  32.290   8.850
 4741POPC   GL2 7682  43.202  32.358   8.850
 4741POPC   C1A 7683  43.101  32.272   8.550
 4741POPC   D2A 7684  43.142  32.234   8.250
 4741POPC   C3A 7685  43.113  32.245   7.950
 4741POPC   C4A 7686  43.151  32.216   7.650
 4741POPC   C1B 7687  43.304  32.378   8.550
 4741POPC   C2B 7688  43.265  32.429   8.250
 4741POPC   C3B 7689  43.301  32.400   7.950
 4741POPC   C4B 7690  43.265  32.365   7.650
 4742POPC   NC3 7691  25.226  26.840   9.450
 4742POPC   PO4 7692  25.255  26.845   9.150
 4742POPC   GL1 7693  25.298  26.831   8.850
 4742POPC   GL2 7694  25.273  26.980   8.850
 4742POPC   C1A 7695  25.266  26.816   8.550
 4742POPC   D2A 7696  25.262  26.856   8.250
 4742POPC   C3A 7697  25.251  26.862   7.950
 4742POPC   C4A 7698  25.298  26.830   7.650
 4742POPC   C1B 7699  25.258  27.022   8.550
 4742POPC   C2B 7700  25.306  27.028   8.250
 4742POPC   C3B 7701  25.292  27.087   7.950
 4742POPC   C4B 7702  25.296  27.044   7.650
 4743POPC   NC3 7703  27.550   6.638   9.450
 4743POPC   PO4 7704  27.592   6.672   9.150
 4743POPC   GL1 7705  27.548   6.650   8.850
 4743POPC   GL2 7706  27.694   6.539   8.850
 4743POPC   C1A 7707  27.622   6.683   8.550
 4743POPC   D2A 7708  27.603   6.647   8.250
 4743POPC   C3A 7709  27.614   6.631   7.950
 4743POPC   C4A 7710  27.558   6.619   7.650
 4743POPC   C1B 7711  27.839   6.463   8.550
 4743POPC   C2B 7712  27.846   6.550   8.250
 4743POPC   C3B 7713  27.829   6.510   7.950
 4743POPC   C4B 7714  27.766   6.497   7.650
 4744POPC   NC3 7715   1.952  24.492   9.450
 4744POPC   PO4 7716   1.991  24.458   9.150
 4744POPC   GL1 7717   2.018  24.497   8.850
 4744POPC   GL2 7718   1.869  24.530   8.850
 4744POPC   C1A 7719   1.977  24.534   8.550
 4744POPC   D2A 7720   2.023  24.492   8.250
 4744POPC   C3A 7721   2.016  24.515   7.950
 4744POPC   C4A 7722   1.971  24.460   7.650
 4744POPC   C1B 7723   1.740  24.650   8.550
 4744POPC   C2B 7724   1.790  24.618   8.250
 4744POPC   C3B 7725   1.735  24.627   7.950
 4744POPC   C4B 7726   1.771  24.569   7.650
 4745POPC   NC3 7727  22.939  20.607   9.450
 4745POPC   PO4 7728  22.923  20.583   9.150
 4745POPC   GL1 7729  22.963  20.578   8.850
 4745POPC   GL2 7730  22.894  20.696   8.850
 4745POPC   C1A 7731  22.987  20.567   8.550
 4745POPC   D2A 7732  22.890  20.612   8.250
 4745POPC   C3A 7733  22.937  20.594   7.950
 4745POPC   C4A 7734  22.986  20.642   7.650
 4745POPC   C1B 7735  22.787  20.860   8.550
 4745POPC   C2B 7736  22.816  20.789   8.250
 4745POPC   C3B 7737  22.819  20.859   7.950
 4745POPC   C4B 7738  22.791  20.803   7.650
 4746POPC   NC3 7739  15.146  29.133   9.450
 4746POPC   PO4 7740  15.222  29.123   9.150
 4746POPC   GL1 7741  15.155  29.187   8.850
 4746POPC   GL2 7742  15.261  28.990   8.850
 4746POPC   C1A 7743  15.226  29.103   8.550
 4746POPC   D2A 7744  15.228  29.144   8.250
 4746POPC   C3A 7745  15.189  29.107   7.950
 4746POPC   C4A 7746  15.170  29.097   7.650
 4746POPC   C1B 7747  15.300  28.948   8.550
 4746POPC   C2B 7748  15.233  28.877   8.250
 4746POPC   C3B 7749  15.238  28.862   7.950
 4746POPC   C4B 7750  15.240  28.891   7.650
 4747POPC   NC3 7751  22.967  14.436   9.450
 4747POPC   PO4 7752  22.944  14.364   9.150
 4747POPC   GL1 7753  22.974  14.428   8.850
 4747POPC   GL2 7754  22.943  14.269   8.850
 4747POPC   C1A 7755  22.957  14.401   8.550
 4747POPC   D2A 7756  22.902  14.422   8.250
 4747POPC   C3A 7757  22.945  14.384   7.950
 4747POPC   C4A 7758  22.976  14.412   7.650
 4747POPC   C1B 7759  22.962  14.188   8.550
 4747POPC   C2B 7760  22.889  14.142   8.250
 4747POPC   C3B 7761  22.911  14.183   7.950
 4747POPC   C4B 7762  22.955  14.140   7.650
 4748POPC   NC3 7763  22.984  30.678   9.450
 4748POPC   PO4 7764  22.947  30.728   9.150
 4748POPC   GL1 7765  22.930  30.690   8.850
 4748POPC   GL2 7766  22.940  30.616   8.850
 4748POPC   C1A 7767  22.950  30.736   8.550
 4748POPC   D2A 7768  22.897  30.708   8.250
 4748POPC   C3A 7769  22.972  30.731   7.950
 4748POPC   C4A 7770  22.905  30.662   7.650
 4748POPC   C1B 7771  22.942  30.449   8.550
 4748POPC   C2B 7772  22.914  30.464   8.250
 4748POPC   C3B 7773  22.939  30.464   7.950
 4748POPC   C4B 7774  22.935  30.411   7.650
 4749POPC   NC3 7775  29.896   6.671   9.450
 4749POPC   PO4 7776  29.966   6.643   9.150
 4749POPC   GL1 7777  29.916   6.633   8.850
 4749POPC   GL2 7778  29.771   6.606   8.850
 4749POPC   C1A 7779  29.929   6.686   8.550
 4749POPC   D2A 7780  29.919   6.633   8.250
 4749POPC   C3A 7781  29.957   6.684   7.950
 4749POPC   C4A 7782  29.943   6.656   7.650
 4749POPC   C1B 7783  29.732   6.559   8.550
 4749POPC   C2B 7784  29.733   6.546   8.250
 4749POPC   C3B 7785  29.735   6.555   7.950
 4749POPC   C4B 7786  29.679   6.573   7.650
 4750POPC   NC3 7787   5.106  14.447   9.450
 4750POPC   PO4 7788   5.098  14.448   9.150
 4750POPC   GL1 7789   5.076  14.371   8.850
 4750POPC   GL2 7790   5.184  14.531   8.850
 4750POPC   C1A 7791   5.091  14.356   8.550
 4750POPC   D2A 7792   5.097  14.437   8.250
 4750POPC   C3A 7793   5.109  14.370   7.950
 4750POPC   C4A 7794   5.114  14.427   7.650
 4750POPC   C1B 7795   5.264  14.574   8.550
 4750POPC   C2B 7796   5.189  14.629   8.250
 4750POPC   C3B 7797   5.221  14.656   7.950
 4750POPC   C4B 7798   5.275  14.607   7.650
 4751POPC   NC3 7799  29.919   1.165   9.450
 4751POPC   PO4 7800  29.927   1.249   9.150
 4751POPC   GL1 7801  29.881   1.184   8.850
 4751POPC   GL2 7802  29.855   1.183   8.850
 4751POPC   C1A 7803  29.933   1.255   8.550
 4751POPC   D2A 7804  29.928   1.240   8.250
 4751POPC   C3A 7805  29.920   1.253   7.950
 4751POPC   C4A 7806  29.961   1.251   7.650
 4751POPC   C1B 7807  29.742   1.084   8.550
 4751POPC   C2B 7808  29.738   1.112   8.250
 4751POPC   C3B 7809  29.706   1.076   7.950
 4751POPC   C4B 7810  29.734   1.044   7.650
 4752POPC   NC3 7811  16.002  23.700   9.450
 4752POPC   PO4 7812  15.991  23.686   9.150
 4752POPC   GL1 7813  15.911  23.750   8.850
 4752POPC   GL2 7814  16.058  23.688   8.850
 4752POPC   C1A 7815  15.963  23.673   8.550
 4752POPC   D2A 7816  15.978  23.666   8.250
 4752POPC   C3A 7817  15.983  23.740   7.950
 4752POPC   C4A 7818  15.920  23.738   7.650
 4752POPC   C1B 7819  16.174  23.691   8.550
 4752POPC   C2B 7820  16.164  23.642   8.250
 4752POPC   C3B 7821  16.167  23.671   7.950
 4752POPC   C4B 7822  16.152  23.624   7.650
 4753POPC   NC3 7823  33.015  35.358   9.450
 4753POPC   PO4 7824  33.038  35.331   9.150
 4753POPC   GL1 7825  32.998  35.389   8.850
 4753POPC   GL2 7826  32.893  35.439   8.850
 4753POPC   C1A 7827  33.014  35.398   8.550
 4753POPC   D2A 7828  32.982  35.363   8.250
 4753POPC   C3A 7829  33.021  35.307   7.950
 4753POPC   C4A 7830  32.995  35.382   7.650
 4753POPC   C1B 7831  32.787  35.424   8.550
 4753POPC   C2B 7832  32.811  35.478   8.250
 4753POPC   C3B 7833  32.805  35.419   7.950
 4753POPC   C4B 7834  32.798  35.414   7.650
 4754POPC   NC3 7835   6.608  29.156   9.450
 4754POPC   PO4 7836   6.653  29.163   9.150
 4754POPC   GL1 7837   6.695  29.099   8.850
 4754POPC   GL2 7838   6.596  29.039   8.850
 4754POPC   C1A 7839   6.649  29.177   8.550
 4754POPC   D2A 7840   6.674  29.118   8.250
 4754POPC   C3A 7841   6.616  29.116   7.950
 4754POPC   C4A 7842   6.611  29.183   7.650
 4754POPC   C1B 7843   6.497  28.967   8.550
 4754POPC   C2B 7844   6.431  28.927   8.250
 4754POPC   C3B 7845   6.487  28.914   7.950
 4754POPC   C4B 7846   6.443  28.995   7.650
 4755POPC   NC3 7847  24.465  20.589   9.450
 4755POPC   PO4 7848  24.533  20.587   9.150
 4755POPC   GL1 7849  24.444  20.602   8.850
 4755POPC   GL2 7850  24.342  20.563   8.850
 4755POPC   C1A 7851  24.483  20.645   8.550
 4755POPC   D2A 7852  24.486  20.578   8.250
 4755POPC   C3A 7853  24.503  20.654   7.950
 4755POPC   C4A 7854  24.470  20.572   7.650
 4755POPC   C1B 7855  24.218  20.550   8.550
 4755POPC   C2B 7856  24.241  20.577   8.250
 4755POPC   C3B 7857  24.239  20.597   7.950
 4755POPC   C4B 7858  24.282  20.623   7.650
 4756POPC   NC3 7859   5.819  37.727   9.450
 4756POPC   PO4 7860   5.856  37.655   9.150
 4756POPC   GL1 7861   5.842  37.691   8.850
 4756POPC   GL2 7862   5.959  37.646   8.850
 4756POPC   C1A 7863   5.836  37.704   8.550
 4756POPC   D2A 7864   5.856  37.696   8.250
 4756POPC   C3A 7865   5.846  37.630   7.950
 4756POPC   C4A 7866   5.863  37.652   7.650
 4756POPC   C1B 7867   6.097  37.682   8.550
 4756POPC   C2B 7868   6.147  37.633   8.250
 4756POPC   C3B 7869   6.104  37.676   7.950
 4756POPC   C4B 7870   6.141  37.693   7.650
 4757POPC   NC3 7871   2.781  41.592   9.450
 4757POPC   PO4 7872   2.754  41.541   9.150
 4757POPC   GL1 7873   2.805  41.602   8.850
 4757POPC   GL2 7874   2.794  41.483   8.850
 4757POPC   C1A 7875   2.735  41.568   8.550
 4757POPC   D2A 7876   2.762  41.540   8.250
 4757POPC   C3A 7877   2.769  41.583   7.950
 4757POPC   C4A 7878   2.768  41.566   7.650
 4757POPC   C1B 7879   2.899  41.375   8.550
 4757POPC   C2B 7880   2.856  41.310   8.250
 4757POPC   C3B 7881   2.842  41.341   7.950
 4757POPC   C4B 7882   2.852  41.362   7.650
 4758POPC   NC3 7883  43.134  20.635   9.450
 4758POPC   PO4 7884  43.076  20.590   9.150
 4758POPC   GL1 7885  43.139  20.626   8.850
 4758POPC   GL2 7886  43.074  20.497   8.850
 4758POPC   C1A 7887  43.129  20.597   8.550
 4758POPC   D2A 7888  43.088  20.576   8.250
 4758POPC   C3A 7889  43.096  20.630   7.950
 4758POPC   C4A 7890  43.127  20.635   7.650
 4758POPC   C1B 7891  42.939  20.353   8.550
 4758POPC   C2B 7892  42.956  20.378   8.250
 4758POPC   C3B 7893  42.985  20.365   7.950
 4758POPC   C4B 7894  43.009  20.404   7.650
 4759POPC   NC3 7895  22.909  36.115   9.450
 4759POPC   PO4 7896  22.952  36.108   9.150
 4759POPC   GL1 7897  22.916  36.141   8.850
 4759POPC   GL2 7898  22.936  36.017   8.850
 4759POPC   C1A 7899  22.927  36.130   8.550
 4759POPC   D2A 7900  22.984  36.146   8.250
 4759POPC   C3A 7901  22.948  36.162   7.950
 4759POPC   C4A 7902  22.981  36.094   7.650
 4759POPC   C1B 7903  22.984  35.881   8.550
 4759POPC   C2B 7904  23.056  35.924   8.250
 4759POPC   C3B 7905  23.055  35.935   7.950
 4759POPC   C4B 7906  23.046  35.900   7.650
 4760POPC   NC3 7907  13.623  40.785   9.450
 4760POPC   PO4 7908  13.610  40.768   9.150
 4760POPC   GL1 7909  13.661  40.743   8.850
 4760POPC   GL2 7910  13.699  40.726   8.850
 4760POPC   C1A 7911  13.632  40.745   8.550
 4760POPC   D2A 7912  13.633  40.801   8.250
 4760POPC   C3A 7913  13.624  40.758   7.950
 4760POPC   C4A 7914  13.624  40.793   7.650
 4760POPC   C1B 7915  13.810  40.570   8.550
 4760POPC   C2B 7916  13.721  40.552   8.250
 4760POPC   C3B 7917  13.811  40.593   7.950
 4760POPC   C4B 7918  13.817  40.586   7.650
 4761POPC   NC3 7919   0.453  27.568   9.450
 4761POPC   PO4 7920   0.468  27.559   9.150
 4761POPC   GL1 7921   0.462  27.643   8.850
 4761POPC   GL2 7922   0.556  27.542   8.850
 4761POPC   C1A 7923   0.456  27.563   8.550
 4761POPC   D2A 7924   0.430  27.596   8.250
 4761POPC   C3A 7925   0.410  27.640   7.950
 4761POPC   C4A 7926   0.415  27.590   7.650
 4761POPC   C1B 7927   0.655  27.514   8.550
 4761POPC   C2B 7928   0.690  27.528   8.250
 4761POPC   C3B 7929   0.719  27.515   7.950
 4761POPC   C4B 7930   0.663  27.563   7.650
 4762POPC   NC3 7931  40.805  33.047   9.450
 4762POPC   PO4 7932  40.805  33.044   9.150
 4762POPC   GL1 7933  40.832  33.035   8.850
 4762POPC   GL2 7934  40.936  32.986   8.850
 4762POPC   C1A 7935  40.768  32.975   8.550
 4762POPC   D2A 7936  40.774  33.006   8.250
 4762POPC   C3A 7937  40.820  33.012   7.950
 4762POPC   C4A 7938  40.746  33.035   7.650
 4762POPC   C1B 7939  41.039  33.086   8.550
 4762POPC   C2B 7940  41.005  33.009   8.250
 4762POPC   C3B 7941  40.995  33.089   7.950
 4762POPC   C4B 7942  41.066  33.071   7.650
 4763POPC   NC3 7943   1.203  31.446   9.450
 4763POPC   PO4 7944   1.202  31.461   9.150
 4763POPC   GL1 7945   1.194  31.439   8.850
 4763POPC   GL2 7946   1.185  31.357   8.850
 4763POPC   C1A 7947   1.260  31.435   8.550
 4763POPC   D2A 7948   1.207  31.487   8.250
 4763POPC   C3A 7949   1.202  31.494   7.950
 4763POPC   C4A 7950   1.246  31.509   7.650
 4763POPC   C1B 7951   1.226  31.205   8.550
 4763POPC   C2B 7952   1.267  31.272   8.250
 4763POPC   C3B 7953   1.248  31.256   7.950
 4763POPC   C4B 7954   1.230  31.195   7.650
 4764POPC   NC3 7955  23.753   5.854   9.450
 4764POPC   PO4 7956  23.700   5.856   9.150
 4764POPC   GL1 7957  23.690   5.846   8.850
 4764POPC   GL2 7958  23.769   5.800   8.850
 4764POPC   C1A 7959  23.737   5.874   8.550
 4764POPC   D2A 7960  23.735   5.895   8.250
 4764POPC   C3A 7961  23.734   5.875   7.950
 4764POPC   C4A 7962  23.689   5.883   7.650
 4764POPC   C1B 7963  23.862   5.642   8.550
 4764POPC   C2B 7964  23.806   5.614   8.250
 4764POPC   C3B 7965  23.800   5.678   7.950
 4764POPC   C4B 7966  23.803   5.595   7.650
 4765POPC   NC3 7967  18.319  40.031   9.450
 4765POPC   PO4 7968  18.317  39.960   9.150
 4765POPC   GL1 7969  18.330  40.055   8.850
 4765POPC   GL2 7970  18.149  39.990   8.850
 4765POPC   C1A 7971  18.244  40.017   8.550
 4765POPC   D2A 7972  18.253  40.037   8.250
 4765POPC   C3A 7973  18.260  39.981   7.950
 4765POPC   C4A 7974  18.261  39.990   7.650
 4765POPC   C1B 7975  17.983  40.005   8.550
 4765POPC   C2B 7976  18.024  40.035   8.250
 4765POPC   C3B 7977  18.058  40.017   7.950
 4765POPC   C4B 7978  18.033  40.044   7.650
 4766POPC   NC3 7979  30.711  20.563   9.450
 4766POPC   PO4 7980  30.736  20.564   9.150
 4766POPC   GL1 7981  30.739  20.582   8.850
 4766POPC   GL2 7982  30.739  20.735   8.850
 4766POPC   C1A 7983  30.659  20.630   8.550
 4766POPC   D2A 7984  30.683  20.586   8.250
 4766POPC   C3A 7985  30.734  20.613   7.950
 4766POPC   C4A 7986  30.686  20.621   7.650
 4766POPC   C1B 7987  30.717  20.815   8.550
 4766POPC   C2B 7988  30.699  20.850   8.250
 4766POPC   C3B 7989  30.712  20.834   7.950
 4766POPC   C4B 7990  30.710  20.812   7.650
 4767POPC   NC3 7991  39.272  37.710   9.450
 4767POPC   PO4 7992  39.194  37.663   9.150
 4767POPC   GL1 7993  39.259  37.685   8.850
 4767POPC   GL2 7994  39.095  37.752   8.850
 4767POPC   C1A 7995  39.215  37.677   8.550
 4767POPC   D2A 7996  39.278  37.693   8.250
 4767POPC   C3A 7997  39.275  37.633   7.950
 4767POPC   C4A 7998  39.280  37.726   7.650
 4767POPC   C1B 7999  38.978  37.768   8.550
 4767POPC   C2B 8000  38.992  37.799   8.250
 4767POPC   C3B 8001  39.036  37.837   7.950
 4767POPC   C4B 8002  38.997  37.768   7.650
 4768POPC   NC3 8003  15.189   7.386   9.450
 4768POPC   PO4 8004  15.171   7.430   9.150
 4768POPC   GL1 8005  15.188   7.397   8.850
 4768POPC   GL2 8006  15.337   7.428   8.850
 4768POPC   C1A 8007  15.156   7.434   8.550
 4768POPC   D2A 8008  15.228   7.393   8.250
 4768POPC   C3A 8009  15.198   7.459   7.950
 4768POPC   C4A 8010  15.224   7.439   7.650
 4768POPC   C1B 8011  15.417   7.371   8.550
 4768POPC   C2B 8012  15.403   7.376   8.250
 4768POPC   C3B 8013  15.446   7.300   7.950
 4768POPC   C4B 8014  15.414   7.295   7.650
 4769POPC   NC3 8015  19.795  39.207   9.450
 4769POPC   PO4 8016  19.785  39.263   9.150
 4769POPC   GL1 8017  19.832  39.216   8.850
 4769POPC   GL2 8018  19.904  39.302   8.850
 4769POPC   C1A 8019  19.792  39.244   8.550
 4769POPC   D2A 8020  19.840  39.261   8.250
 4769POPC   C3A 8021  19.853  39.230   7.950
 4769POPC   C4A 8022  19.809  39.279   7.650
 4769POPC   C1B 8023  20.025  39.355   8.550
 4769POPC   C2B 8024  19.972  39.383   8.250
 4769POPC   C3B 8025  20.047  39.423   7.950
 4769POPC   C4B 8026  20.010  39.377   7.650
 4770POPC   NC3 8027  27.559  20.654   9.450
 4770POPC   PO4 8028  27.637  20.625   9.150
 4770POPC   GL1 8029  27.543  20.603   8.850
 4770POPC   GL2 8030  27.434  20.605   8.850
 4770POPC   C1A 8031  27.635  20.634   8.550
 4770POPC   D2A 8032  27.638  20.622   8.250
 4770POPC   C3A 8033  27.598  20.660   7.950
 4770POPC   C4A 8034  27.585  20.633   7.650
 4770POPC   C1B 8035  27.363  20.567   8.550
 4770POPC   C2B 8036  27.381  20.606   8.250
 4770POPC   C3B 8037  27.322  20.548   7.950
 4770POPC   C4B 8038  27.394  20.527   7.650
 4771POPC   NC3 8039  29.876  32.271   9.450
 4771POPC   PO4 8040  29.918  32.295   9.150
 4771POPC   GL1 8041  29.934  32.274   8.850
 4771POPC   GL2 8042  29.869  32.380   8.850
 4771POPC   C1A 8043  29.937  32.269   8.550
 4771POPC   D2A 8044  29.891  32.296   8.250
 4771POPC   C3A 8045  29.877  32.248   7.950
 4771POPC   C4A 8046  29.922  32.216   7.650
 4771POPC   C1B 8047  29.788  32.456   8.550
 4771POPC   C2B 8048  29.806  32.437   8.250
 4771POPC   C3B 8049  29.847  32.465   7.950
 4771POPC   C4B 8050  29.771  32.462   7.650
 4772POPC   NC3 8051  37.632  32.293   9.450
 4772POPC   PO4 8052  37.645  32.274   9.150
 4772POPC   GL1 8053  37.665  32.228   8.850
 4772POPC   GL2 8054  37.741  32.160   8.850
 4772POPC   C1A 8055  37.663  32.242   8.550
 4772POPC   D2A 8056  37.633  32.254   8.250
 4772POPC   C3A 8057  37.668  32.297   7.950
 4772POPC   C4A 8058  37.642  32.263   7.650
 4772POPC   C1B 8059  37.785  32.079   8.550
 4772POPC   C2B 8060  37.822  32.022   8.250
 4772POPC   C3B 8061  37.821  32.031   7.950
 4772POPC   C4B 8062  37.836  32.044   7.650
 4773POPC   NC3 8063  28.383  29.155   9.450
 4773POPC   PO4 8064  28.378  29.126   9.150
 4773POPC   GL1 8065  28.373  29.110   8.850
 4773POPC   GL2 8066  28.297  29.218   8.850
 4773POPC   C1A 8067  28.352  29.134   8.550
 4773POPC   D2A 8068  28.391  29.186   8.250
 4773POPC   C3A 8069  28.393  29.184   7.950
 4773POPC   C4A 8070  28.338  29.170   7.650
 4773POPC   C1B 8071  28.177  29.314   8.550
 4773POPC   C2B 8072  28.225  29.329   8.250
 4773POPC   C3B 8073  28.154  29.336   7.950
 4773POPC   C4B 8074  28.206  29.359   7.650
 4774POPC   NC3 8075  30.668  36.163   9.450
 4774POPC   PO4 8076  30.724  36.177   9.150
 4774POPC   GL1 8077  30.716  36.161   8.850
 4774POPC   GL2 8078  30.587  36.097   8.850
 4774POPC   C1A 8079  30.736  36.126   8.550
 4774POPC   D2A 8080  30.667  36.152   8.250
 4774POPC   C3A 8081  30.729  36.079   7.950
 4774POPC   C4A 8082  30.725  36.135   7.650
 4774POPC   C1B 8083  30.432  36.025   8.550
 4774POPC   C2B 8084  30.518  36.026   8.250
 4774POPC   C3B 8085  30.470  35.987   7.950
 4774POPC   C4B 8086  30.466  36.015   7.650
 4775POPC   NC3 8087  40.801  15.917   9.450
 4775POPC   PO4 8088  40.772  15.929   9.150
 4775POPC   GL1 8089  40.806  15.934   8.850
 4775POPC   GL2 8090  40.914  15.918   8.850
 4775POPC   C1A 8091  40.742  15.992   8.550
 4775POPC   D2A 8092  40.735  15.993   8.250
 4775POPC   C3A 8093  40.827  15.972   7.950
 4775POPC   C4A 8094  40.830  15.924   7.650
 4775POPC   C1B 8095  41.004  15.837   8.550
 4775POPC   C2B 8096  40.954  15.787   8.250
 4775POPC   C3B 8097  40.970  15.748   7.950
 4775POPC   C4B 8098  40.984  15.774   7.650
 4776POPC   NC3 8099  12.854   7.392   9.450
 4776POPC   PO4 8100  12.875   7.418   9.150
 4776POPC   GL1 8101  12.847   7.457   8.850
 4776POPC   GL2 8102  12.766   7.356   8.850
 4776POPC   C1A 8103  12.878   7.416   8.550
 4776POPC   D2A 8104  12.807   7.385   8.250
 4776POPC   C3A 8105  12.808   7.424   7.950
 4776POPC   C4A 8106  12.819   7.372   7.650
 4776POPC   C1B 8107  12.664   7.169   8.550
 4776POPC   C2B 8108  12.665   7.176   8.250
 4776POPC   C3B 8109  12.759   7.218   7.950
 4776POPC   C4B 8110  12.683   7.188   7.650
 4777POPC   NC3 8111  33.840   8.245   9.450
 4777POPC   PO4 8112  33.762   8.236   9.150
 4777POPC   GL1 8113  33.773   8.163   8.850
 4777POPC   GL2 8114  33.878   8.226   8.850
 4777POPC   C1A 8115  33.803   8.176   8.550
 4777POPC   D2A 8116  33.772   8.169   8.250
 4777POPC   C3A 8117  33.847   8.238   7.950
 4777POPC   C4A 8118  33.838   8.174   7.650
 4777POPC   C1B 8119  33.991   8.235   8.550
 4777POPC   C2B 8120  34.003   8.259   8.250
 4777POPC   C3B 8121  34.053   8.246   7.950
 4777POPC   C4B 8122  34.078   8.225   7.650
 4778POPC   NC3 8123  23.677  30.650   9.450
 4778POPC   PO4 8124  23.738  30.671   9.150
 4778POPC   GL1 8125  23.681  30.740   8.850
 4778POPC   GL2 8126  23.812  30.665   8.850
 4778POPC   C1A 8127  23.761  30.667   8.550
 4778POPC   D2A 8128  23.748  30.664   8.250
 4778POPC   C3A 8129  23.712  30.650   7.950
 4778POPC   C4A 8130  23.739  30.678   7.650
 4778POPC   C1B 8131  23.947  30.698   8.550
 4778POPC   C2B 8132  24.005  30.685   8.250
 4778POPC   C3B 8133  23.935  30.676   7.950
 4778POPC   C4B 8134  23.948  30.725   7.650
 4779POPC   NC3 8135  30.734  40.043   9.450
 4779POPC   PO4 8136  30.712  39.962   9.150
 4779POPC   GL1 8137  30.709  40.036   8.850
 4779POPC   GL2 8138  30.588  39.894   8.850
 4779POPC   C1A 8139  30.691  40.040   8.550
 4779POPC   D2A 8140  30.719  39.983   8.250
 4779POPC   C3A 8141  30.676  39.997   7.950
 4779POPC   C4A 8142  30.708  39.987   7.650
 4779POPC   C1B 8143  30.496  39.804   8.550
 4779POPC   C2B 8144  30.561  39.786   8.250
 4779POPC   C3B 8145  30.504  39.807   7.950
 4779POPC   C4B 8146  30.547  39.815   7.650
 4780POPC   NC3 8147  10.477  13.614   9.450
 4780POPC   PO4 8148  10.487  13.585   9.150
 4780POPC   GL1 8149  10.487  13.638   8.850
 4780POPC   GL2 8150  10.419  13.669   8.850
 4780POPC   C1A 8151  10.475  13.598   8.550
 4780POPC   D2A 8152  10.479  13.595   8.250
 4780POPC   C3A 8153  10.538  13.641   7.950
 4780POPC   C4A 8154  10.568  13.584   7.650
 4780POPC   C1B 8155  10.391  13.832   8.550
 4780POPC   C2B 8156  10.332  13.778   8.250
 4780POPC   C3B 8157  10.368  13.777   7.950
 4780POPC   C4B 8158  10.303  13.848   7.650
 4781POPC   NC3 8159  32.999  15.932   9.450
 4781POPC   PO4 8160  33.037  15.957   9.150
 4781POPC   GL1 8161  32.995  15.994   8.850
 4781POPC   GL2 8162  32.947  15.978   8.850
 4781POPC   C1A 8163  33.041  15.953   8.550
 4781POPC   D2A 8164  33.064  15.937   8.250
 4781POPC   C3A 8165  32.978  15.988   7.950
 4781POPC   C4A 8166  33.064  15.914   7.650
 4781POPC   C1B 8167  32.783  16.038   8.550
 4781POPC   C2B 8168  32.751  16.017   8.250
 4781POPC   C3B 8169  32.826  16.003   7.950
 4781POPC   C4B 8170  32.775  16.011   7.650
 4782POPC   NC3 8171  23.704  19.060   9.450
 4782POPC   PO4 8172  23.675  19.049   9.150
 4782POPC   GL1 8173  23.744  19.070   8.850
 4782POPC   GL2 8174  23.802  19.144   8.850
 4782POPC   C1A 8175  23.740  19.016   8.550
 4782POPC   D2A 8176  23.741  19.029   8.250
 4782POPC   C3A 8177  23.700  19.069   7.950
 4782POPC   C4A 8178  23.750  19.062   7.650
 4782POPC   C1B 8179  23.864  19.245   8.550
 4782POPC   C2B 8180  23.878  19.192   8.250
 4782POPC   C3B 8181  23.890  19.260   7.950
 4782POPC   C4B 8182  23.864  19.226   7.650
 4783POPC   NC3 8183  21.364  29.929   9.450
 4783POPC   PO4 8184  21.377  29.915   9.150
 4783POPC   GL1 8185  21.399  29.894   8.850
 4783POPC   GL2 8186  21.283  29.958   8.850
 4783POPC   C1A 8187  21.386  29.920   8.550
 4783POPC   D2A 8188  21.356  29.890   8.250
 4783POPC   C3A 8189  21.355  29.894   7.950
 4783POPC   C4A 8190  21.392  29.874   7.650
 4783POPC   C1B 8191  21.247  30.079   8.550
 4783POPC   C2B 8192  21.197  30.120   8.250
 4783POPC   C3B 8193  21.157  30.124   7.950
 4783POPC   C4B 8194  21.231  30.049   7.650
 4784POPC   NC3 8195  36.107  43.084   9.450
 4784POPC   PO4 8196  36.169  43.087   9.150
 4784POPC   GL1 8197  36.126  43.144   8.850
 4784POPC   GL2 8198  36.162  43.031   8.850
 4784POPC   C1A 8199  36.147  43.138   8.550
 4784POPC   D2A 8200  36.109  43.146   8.250
 4784POPC   C3A 8201  36.156  43.127   7.950
 4784POPC   C4A 8202  36.158  43.132   7.650
 4784POPC   C1B 8203  36.081  42.854   8.550
 4784POPC   C2B 8204  36.140  42.889   8.250
 4784POPC   C3B 8205  36.151  42.827   7.950
 4784POPC   C4B 8206  36.078  42.830   7.650
 4785POPC   NC3 8207  38.446  10.498   9.450
 4785POPC   PO4 8208  38.455  10.559   9.150
 4785POPC   GL1 8209  38.487  10.562   8.850
 4785POPC   GL2 8210  38.345  10.601   8.850
 4785POPC   C1A 8211  38.411  10.511   8.550
 4785POPC   D2A 8212  38.461  10.541   8.250
 4785POPC   C3A 8213  38.497  10.567   7.950
 4785POPC   C4A 8214  38.481  10.523   7.650
 4785POPC   C1B 8215  38.338  10.790   8.550
 4785POPC   C2B 8216  38.360  10.717   8.250
 4785POPC   C3B 8217  38.308  10.730   7.950
 4785POPC   C4B 8218  38.352  10.722   7.650
 4786POPC   NC3 8219  33.846  12.874   9.450
 4786POPC   PO4 8220  33.832  12.844   9.150
 4786POPC   GL1 8221  33.769  12.845   8.850
 4786POPC   GL2 8222  33.743  12.753   8.850
 4786POPC   C1A 8223  33.782  12.844   8.550
 4786POPC   D2A 8224  33.822  12.810   8.250
 4786POPC   C3A 8225  33.770  12.888   7.950
 4786POPC   C4A 8226  33.753  12.812   7.650
 4786POPC   C1B 8227  33.566  12.731   8.550
 4786POPC   C2B 8228  33.557  12.710   8.250
 4786POPC   C3B 8229  33.636  12.695   7.950
 4786POPC   C4B 8230  33.616  12.746   7.650
 4787POPC   NC3 8231  37.710  27.588   9.450
 4787POPC   PO4 8232  37.666  27.619   9.150
 4787POPC   GL1 8233  37.701  27.629   8.850
 4787POPC   GL2 8234  37.643  27.696   8.850
 4787POPC   C1A 8235  37.712  27.587   8.550
 4787POPC   D2A 8236  37.705  27.637   8.250
 4787POPC   C3A 8237  37.703  27.577   7.950
 4787POPC   C4A 8238  37.710  27.625   7.650
 4787POPC   C1B 8239  37.726  27.801   8.550
 4787POPC   C2B 8240  37.665  27.849   8.250
 4787POPC   C3B 8241  37.662  27.872   7.950
 4787POPC   C4B 8242  37.657  27.871   7.650
 4788POPC   NC3 8243  22.966   3.535   9.450
 4788POPC   PO4 8244  22.934   3.520   9.150
 4788POPC   GL1 8245  22.899   3.567   8.850
 4788POPC   GL2 8246  23.064   3.562   8.850
 4788POPC   C1A 8247  22.937   3.558   8.550
 4788POPC   D2A 8248  22.950   3.513   8.250
 4788POPC   C3A 8249  22.931   3.528   7.950
 4788POPC   C4A 8250  22.926   3.546   7.650
 4788POPC   C1B 8251  23.175   3.633   8.550
 4788POPC   C2B 8252  23.129   3.636   8.250
 4788POPC   C3B 8253  23.134   3.625   7.950
 4788POPC   C4B 8254  23.169   3.585   7.650
 4789POPC   NC3 8255   9.737   5.050   9.450
 4789POPC   PO4 8256   9.793   5.084   9.150
 4789POPC   GL1 8257   9.770   5.101   8.850
 4789POPC   GL2 8258   9.664   4.950   8.850
 4789POPC   C1A 8259   9.750   5.063   8.550
 4789POPC   D2A 8260   9.702   5.123   8.250
 4789POPC   C3A 8261   9.764   5.063   7.950
 4789POPC   C4A 8262   9.720   5.059   7.650
 4789POPC   C1B 8263   9.600   4.878   8.550
 4789POPC   C2B 8264   9.622   4.864   8.250
 4789POPC   C3B 8265   9.576   4.942   7.950
 4789POPC   C4B 8266   9.548   4.884   7.650
 4790POPC   NC3 8267  19.101   6.644   9.450
 4790POPC   PO4 8268  19.068   6.673   9.150
 4790POPC   GL1 8269  19.046   6.680   8.850
 4790POPC   GL2 8270  19.150   6.711   8.850
 4790POPC   C1A 8271  19.019   6.670   8.550
 4790POPC   D2A 8272  19.079   6.655   8.250
 4790POPC   C3A 8273  19.038   6.682   7.950
 4790POPC   C4A 8274  19.099   6.687   7.650
 4790POPC   C1B 8275  19.131   6.856   8.550
 4790POPC   C2B 8276  19.169   6.833   8.250
 4790POPC   C3B 8277  19.194   6.909   7.950
 4790POPC   C4B 8278  19.192   6.830   7.650
 4791POPC   NC3 8279   1.996  18.293   9.450
 4791POPC   PO4 8280   1.955  18.266   9.150
 4791POPC   GL1 8281   1.995  18.289   8.850
 4791POPC   GL2 8282   1.904  18.420   8.850
 4791POPC   C1A 8283   1.948  18.290   8.550
 4791POPC   D2A 8284   2.014  18.235   8.250
 4791POPC   C3A 8285   1.983  18.303   7.950
 4791POPC   C4A 8286   1.982  18.285   7.650
 4791POPC   C1B 8287   1.897  18.496   8.550
 4791POPC   C2B 8288   1.883  18.522   8.250
 4791POPC   C3B 8289   1.856  18.559   7.950
 4791POPC   C4B 8290   1.939  18.544   7.650
 4792POPC   NC3 8291  39.990  42.299   9.450
 4792POPC   PO4 8292  40.008  42.358   9.150
 4792POPC   GL1 8293  40.024  42.361   8.850
 4792POPC   GL2 8294  39.874  42.218   8.850
 4792POPC   C1A 8295  40.001  42.293   8.550
 4792POPC   D2A 8296  40.019  42.295   8.250
 4792POPC   C3A 8297  40.052  42.296   7.950
 4792POPC   C4A 8298  40.042  42.334   7.650
 4792POPC   C1B 8299  39.816  42.156   8.550
 4792POPC   C2B 8300  39.777  42.131   8.250
 4792POPC   C3B 8301  39.839  42.180   7.950
 4792POPC   C4B 8302  39.797  42.208   7.650
 4793POPC   NC3 8303  16.698  16.778   9.450
 4793POPC   PO4 8304  16.725  16.693   9.150
 4793POPC   GL1 8305  16.767  16.720   8.850
 4793POPC   GL2 8306  16.801  16.682   8.850
 4793POPC   C1A 8307  16.770  16.756   8.550
 4793POPC   D2A 8308  16.777  16.759   8.250
 4793POPC   C3A 8309  16.683  16.721   7.950
 4793POPC   C4A 8310  16.719  16.689   7.650
 4793POPC   C1B 8311  16.889  16.536   8.550
 4793POPC   C2B 8312  16.921  16.502   8.250
 4793POPC   C3B 8313  16.895  16.566   7.950
 4793POPC   C4B 8314  16.889  16.504   7.650
 4794POPC   NC3 8315  43.138  25.238   9.450
 4794POPC   PO4 8316  43.137  25.315   9.150
 4794POPC   GL1 8317  43.149  25.283   8.850
 4794POPC   GL2 8318  43.266  25.239   8.850
 4794POPC   C1A 8319  43.158  25.237   8.550
 4794POPC   D2A 8320  43.092  25.283   8.250
 4794POPC   C3A 8321  43.125  25.264   7.950
 4794POPC   C4A 8322  43.119  25.238   7.650
 4794POPC   C1B 8323  43.358  25.267   8.550
 4794POPC   C2B 8324  43.335  25.237   8.250
 4794POPC   C3B 8325  43.405  25.265   7.950
 4794POPC   C4B 8326  43.355  25.233   7.650
 4795POPC   NC3 8327  26.049  44.662   9.450
 4795POPC   PO4 8328  26.041  44.620   9.150
 4795POPC   GL1 8329  26.021  44.674   8.850
 4795POPC   GL2 8330  26.160  44.648   8.850
 4795POPC   C1A 8331  26.071  44.629   8.550
 4795POPC   D2A 8332  26.008  44.668   8.250
 4795POPC   C3A 8333  26.032  44.670   7.950
 4795POPC   C4A 8334  26.049  44.660   7.650
 4795POPC   C1B 8335  26.255  44.570   8.550
 4795POPC   C2B 8336  26.324  44.565   8.250
 4795POPC   C3B 8337  26.237  44.625   7.950
 4795POPC   C4B 8338  26.265  44.594   7.650
 4796POPC   NC3 8339  14.408   5.121   9.450
 4796POPC   PO4 8340  14.384   5.048   9.150
 4796POPC   GL1 8341  14.452   5.125   8.850
 4796POPC   GL2 8342  14.434   5.241   8.850
 4796POPC   C1A 8343  14.429   5.075   8.550
 4796POPC   D2A 8344  14.443   5.110   8.250
 4796POPC   C3A 8345  14.402   5.085   7.950
 4796POPC   C4A 8346  14.388   5.127   7.650
 4796POPC   C1B 8347  14.415   5.389   8.550
 4796POPC   C2B 8348  14.354   5.373   8.250
 4796POPC   C3B 8349  14.378   5.375   7.950
 4796POPC   C4B 8350  14.369   5.298   7.650
 4797POPC   NC3 8351  21.427   4.280   9.450
 4797POPC   PO4 8352  21.405   4.328   9.150
 4797POPC   GL1 8353  21.353   4.360   8.850
 4797POPC   GL2 8354  21.437   4.176   8.850
 4797POPC   C1A 8355  21.413   4.342   8.550
 4797POPC   D2A 8356  21.395   4.361   8.250
 4797POPC   C3A 8357  21.355   4.367   7.950
 4797POPC   C4A 8358  21.413   4.289   7.650
 4797POPC   C1B 8359  21.536   4.079   8.550
 4797POPC   C2B 8360  21.522   4.126   8.250
 4797POPC   C3B 8361  21.511   4.088   7.950
 4797POPC   C4B 8362  21.527   4.079   7.650
 4798POPC   NC3 8363  36.910  36.119   9.450
 4798POPC   PO4 8364  36.882  36.176   9.150
 4798POPC   GL1 8365  36.912  36.175   8.850
 4798POPC   GL2 8366  36.825  36.151   8.850
 4798POPC   C1A 8367  36.869  36.148   8.550
 4798POPC   D2A 8368  36.865  36.152   8.250
 4798POPC   C3A 8369  36.896  36.118   7.950
 4798POPC   C4A 8370  36.942  36.176   7.650
 4798POPC   C1B 8371  36.710  36.262   8.550
 4798POPC   C2B 8372  36.724  36.218   8.250
 4798POPC   C3B 8373  36.724  36.295   7.950
 4798POPC   C4B 8374  36.732  36.272   7.650
 4799POPC   NC3 8375  25.231   6.666   9.450
 4799POPC   PO4 8376  25.273   6.686   9.150
 4799POPC   GL1 8377  25.246   6.638   8.850
 4799POPC   GL2 8378  25.282   6.577   8.850
 4799POPC   C1A 8379  25.290   6.611   8.550
 4799POPC   D2A 8380  25.222   6.626   8.250
 4799POPC   C3A 8381  25.228   6.679   7.950
 4799POPC   C4A 8382  25.223   6.610   7.650
 4799POPC   C1B 8383  25.413   6.439   8.550
 4799POPC   C2B 8384  25.398   6.428   8.250
 4799POPC   C3B 8385  25.354   6.445   7.950
 4799POPC   C4B 8386  25.390   6.420   7.650
 4800POPC   NC3 8387  39.969  22.970   9.450
 4800POPC   PO4 8388  40.042  22.901   9.150
 4800POPC   GL1 8389  39.985  22.961   8.850
 4800POPC   GL2 8390  39.889  22.984   8.850
 4800POPC   C1A 8391  40.047  22.972   8.550
 4800POPC   D2A 8392  40.013  22.934   8.250
 4800POPC   C3A 8393  39.979  22.929   7.950
 4800POPC   C4A 8394  40.027  22.969   7.650
 4800POPC   C1B 8395  39.781  22.980   8.550
 4800POPC   C2B 8396  39.813  23.047   8.250
 4800POPC   C3B 8397  39.747  23.002   7.950
 4800POPC   C4B 8398  39.741  23.007   7.650
 4801POPC   NC3 8399  22.157  24.510   9.450
 4801POPC   PO4 8400  22.185  24.470   9.150
 4801POPC   GL1 8401  22.136  24.442   8.850
 4801POPC   GL2 8402  22.206  24.564   8.850
 4801POPC   C1A 8403  22.146  24.497   8.550
 4801POPC   D2A 8404  22.185  24.502   8.250
 4801POPC   C3A 8405  22.192  24.522   7.950
 4801POPC   C4A 8406  22.187  24.531   7.650
 4801POPC   C1B 8407  22.311  24.690   8.550
 4801POPC   C2B 8408  22.332  24.670   8.250
 4801POPC   C3B 8409  22.301  24.725   7.950
 4801POPC   C4B 8410  22.283  24.642   7.650
 4802POPC   NC3 8411   6.690   3.536   9.450
 4802POPC   PO4 8412   6.693   3.499   9.150
 4802POPC   GL1 8413   6.639   3.589   8.850
 4802POPC   GL2 8414   6.729   3.522   8.850
 4802POPC   C1A 8415   6.622   3.575   8.550
 4802POPC   D2A 8416   6.686   3.497   8.250
 4802POPC   C3A 8417   6.621   3.590   7.950
 4802POPC   C4A 8418   6.632   3.574   7.650
 4802POPC   C1B 8419   6.875   3.565   8.550
 4802POPC   C2B 8420   6.885   3.568   8.250
 4802POPC   C3B 8421   6.871   3.569   7.950
 4802POPC   C4B 8422   6.882   3.628   7.650
 4803POPC   NC3 8423  22.900  41.580   9.450
 4803POPC   PO4 8424  22.908  41.556   9.150
 4803POPC   GL1 8425  22.941  41.554   8.850
 4803POPC   GL2 8426  22.942  41.710   8.850
 4803POPC   C1A 8427  22.912  41.561   8.550
 4803POPC   D2A 8428  22.898  41.536   8.250
 4803POPC   C3A 8429  22.914  41.575   7.950
 4803POPC   C4A 8430  22.985  41.509   7.650
 4803POPC   C1B 8431  22.935  41.810   8.550
 4803POPC   C2B 8432  22.925  41.837   8.250
 4803POPC   C3B 8433  22.861  41.774   7.950
 4803POPC   C4B 8434  22.878  41.774   7.650
 4804POPC   NC3 8435  22.909  19.020   9.450
 4804POPC   PO4 8436  22.930  19.074   9.150
 4804POPC   GL1 8437  22.937  19.026   8.850
 4804POPC   GL2 8438  23.007  18.992   8.850
 4804POPC   C1A 8439  22.916  19.075   8.550
 4804POPC   D2A 8440  22.931  19.057   8.250
 4804POPC   C3A 8441  22.941  19.041   7.950
 4804POPC   C4A 8442  22.927  19.100   7.650
 4804POPC   C1B 8443  23.191  18.982   8.550
 4804POPC   C2B 8444  23.133  18.933   8.250
 4804POPC   C3B 8445  23.137  19.021   7.950
 4804POPC   C4B 8446  23.139  18.941   7.650
 4805POPC   NC3 8447  29.875  40.785   9.450
 4805POPC   PO4 8448  29.962  40.805   9.150
 4805POPC   GL1 8449  29.916  40.827   8.850
 4805POPC   GL2 8450  29.820  40.734   8.850
 4805POPC   C1A 8451  29.962  40.817   8.550
 4805POPC   D2A 8452  29.906  40.809   8.250
 4805POPC   C3A 8453  29.948  40.795   7.950
 4805POPC   C4A 8454  29.873  40.752   7.650
 4805POPC   C1B 8455  29.645  40.737   8.550
 4805POPC   C2B 8456  29.678  40.727   8.250
 4805POPC   C3B 8457  29.639  40.720   7.950
 4805POPC   C4B 8458  29.687  40.750   7.650
 4806POPC   NC3 8459   2.007  26.860   9.450
 4806POPC   PO4 8460   2.027  26.829   9.150
 4806POPC   GL1 8461   1.985  26.834   8.850
 4806POPC   GL2 8462   1.919  26.718   8.850
 4806POPC   C1A 8463   1.974  26.806   8.550
 4806POPC   D2A 8464   1.997  26.802   8.250
 4806POPC   C3A 8465   1.963  26.835   7.950
 4806POPC   C4A 8466   1.992  26.782   7.650
 4806POPC   C1B 8467   1.836  26.635   8.550
 4806POPC   C2B 8468   1.819  26.639   8.250
 4806POPC   C3B 8469   1.783  26.602   7.950
 4806POPC   C4B 8470   1.809  26.658   7.650
 4807POPC   NC3 8471  22.126  10.507   9.450
 4807POPC   PO4 8472  22.182  10.538   9.150
 4807POPC   GL1 8473  22.177  10.486   8.850
 4807POPC   GL2 8474  22.257  10.429   8.850
 4807POPC   C1A 8475  22.187  10.528   8.550
 4807POPC   D2A 8476  22.130  10.517   8.250
 4807POPC   C3A 8477  22.148  10.545   7.950
 4807POPC   C4A 8478  22.134  10.501   7.650
 4807POPC   C1B 8479  22.240  10.256   8.550
 4807POPC   C2B 8480  22.257  10.290   8.250
 4807POPC   C3B 8481  22.257  10.275   7.950
 4807POPC   C4B 8482  22.225  10.314   7.650
 4808POPC   NC3 8483  28.368  44.707   9.450
 4808POPC   PO4 8484  28.343  44.617   9.150
 4808POPC   GL1 8485  28.352  44.632   8.850
 4808POPC   GL2 8486  28.271  44.791   8.850
 4808POPC   C1A 8487  28.323  44.690   8.550
 4808POPC   D2A 8488  28.361  44.695   8.250
 4808POPC   C3A 8489  28.350  44.659   7.950
 4808POPC   C4A 8490  28.359  44.701   7.650
 4808POPC   C1B 8491  28.272  44.887   8.550
 4808POPC   C2B 8492  28.281  44.911   8.250
 4808POPC   C3B 8493  28.308  44.854   7.950
 4808POPC   C4B 8494  28.309  44.909   7.650
 4809POPC   NC3 8495   5.885  14.389   9.450
 4809POPC   PO4 8496   5.821  14.364   9.150
 4809POPC   GL1 8497   5.836  14.446   8.850
 4809POPC   GL2 8498   5.764  14.311   8.850
 4809POPC   C1A 8499   5.824  14.440   8.550
 4809POPC   D2A 8500   5.893  14.435   8.250
 4809POPC   C3A 8501   5.829  14.392   7.950
 4809POPC   C4A 8502   5.846  14.427   7.650
 4809POPC   C1B 8503   5.613  14.289   8.550
 4809POPC   C2B 8504   5.621  14.297   8.250
 4809POPC   C3B 8505   5.656  14.307   7.950
 4809POPC   C4B 8506   5.674  14.323   7.650
 4810POPC   NC3 8507  43.084   8.976   9.450
 4810POPC   PO4 8508  43.149   8.980   9.150
 4810POPC   GL1 8509  43.131   8.992   8.850
 4810POPC   GL2 8510  42.984   9.023   8.850
 4810POPC   C1A 8511  43.101   8.926   8.550
 4810POPC   D2A 8512  43.078   8.928   8.250
 4810POPC   C3A 8513  43.128   9.007   7.950
 4810POPC   C4A 8514  43.137   9.014   7.650
 4810POPC   C1B 8515  42.887   9.195   8.550
 4810POPC   C2B 8516  42.924   9.172   8.250
 4810POPC   C3B 8517  42.914   9.169   7.950
 4810POPC   C4B 8518  42.973   9.114   7.650
 4811POPC   NC3 8519  26.091  40.008   9.450
 4811POPC   PO4 8520  26.076  40.026   9.150
 4811POPC   GL1 8521  26.001  40.021   8.850
 4811POPC   GL2 8522  26.070  40.152   8.850
 4811POPC   C1A 8523  26.013  40.010   8.550
 4811POPC   D2A 8524  26.022  39.996   8.250
 4811POPC   C3A 8525  26.012  39.964   7.950
 4811POPC   C4A 8526  26.080  40.055   7.650
 4811POPC   C1B 8527  25.972  40.224   8.550
 4811POPC   C2B 8528  25.974  40.252   8.250
 4811POPC   C3B 8529  26.063  40.232   7.950
 4811POPC   C4B 8530  26.069  40.206   7.650
 4812POPC   NC3 8531  33.785  11.326   9.450
 4812POPC   PO4 8532  33.757  11.270   9.150
 4812POPC   GL1 8533  33.810  11.343   8.850
 4812POPC   GL2 8534  33.855  11.134   8.850
 4812POPC   C1A 8535  33.789  11.337   8.550
 4812POPC   D2A 8536  33.768  11.334   8.250
 4812POPC   C3A 8537  33.759  11.278   7.950
 4812POPC   C4A 8538  33.795  11.318   7.650
 4812POPC   C1B 8539  33.857  11.037   8.550
 4812POPC   C2B 8540  33.884  11.004   8.250
 4812POPC   C3B 8541  33.797  11.007   7.950
 4812POPC   C4B 8542  33.861  11.062   7.650
 4813POPC   NC3 8543  36.907  27.544   9.450
 4813POPC   PO4 8544  36.923  27.611   9.150
 4813POPC   GL1 8545  36.877  27.594   8.850
 4813POPC   GL2 8546  37.009  27.533   8.850
 4813POPC   C1A 8547  36.890  27.567   8.550
 4813POPC   D2A 8548  36.927  27.638   8.250
 4813POPC   C3A 8549  36.938  27.573   7.950
 4813POPC   C4A 8550  36.922  27.617   7.650
 4813POPC   C1B 8551  37.042  27.358   8.550
 4813POPC   C2B 8552  37.009  27.442   8.250
 4813POPC   C3B 8553  37.094  27.433   7.950
 4813POPC   C4B 8554  37.040  27.358   7.650
 4814POPC   NC3 8555  37.697  20.574   9.450
 4814POPC   PO4 8556  37.680  20.608   9.150
 4814POPC   GL1 8557  37.651  20.562   8.850
 4814POPC   GL2 8558  37.840  20.580   8.850
 4814POPC   C1A 8559  37.668  20.618   8.550
 4814POPC   D2A 8560  37.672  20.622   8.250
 4814POPC   C3A 8561  37.681  20.641   7.950
 4814POPC   C4A 8562  37.715  20.576   7.650
 4814POPC   C1B 8563  37.949  20.495   8.550
 4814POPC   C2B 8564  37.884  20.473   8.250
 4814POPC   C3B 8565  37.904  20.501   7.950
 4814POPC   C4B 8566  37.868  20.473   7.650
 4815POPC   NC3 8567   3.492  22.927   9.450
 4815POPC   PO4 8568   3.564  22.957   9.150
 4815POPC   GL1 8569   3.498  22.958   8.850
 4815POPC   GL2 8570   3.620  23.079   8.850
 4815POPC   C1A 8571   3.564  22.976   8.550
 4815POPC   D2A 8572   3.538  22.923   8.250
 4815POPC   C3A 8573   3.507  22.921   7.950
 4815POPC   C4A 8574   3.500  22.899   7.650
 4815POPC   C1B 8575   3.688  23.128   8.550
 4815POPC   C2B 8576   3.673  23.162   8.250
 4815POPC   C3B 8577   3.684  23.083   7.950
 4815POPC   C4B 8578   3.674  23.129   7.650
 4816POPC   NC3 8579  14.442  38.469   9.450
 4816POPC   PO4 8580  14.447  38.494   9.150
 4816POPC   GL1 8581  14.450  38.437   8.850
 4816POPC   GL2 8582  14.277  38.375   8.850
 4816POPC   C1A 8583  14.385  38.411   8.550
 4816POPC   D2A 8584  14.362  38.436   8.250
 4816POPC   C3A 8585  14.420  38.486   7.950
 4816POPC   C4A 8586  14.403  38.483   7.650
 4816POPC   C1B 8587  14.233  38.260   8.550
 4816POPC   C2B 8588  14.261  38.297   8.250
 4816POPC   C3B 8589  14.251  38.276   7.950
 4816POPC   C4B 8590  14.202  38.248   7.650
 4817POPC   NC3 8591  33.775  19.095   9.450
 4817POPC   PO4 8592  33.812  19.098   9.150
 4817POPC   GL1 8593  33.780  19.095   8.850
 4817POPC   GL2 8594  33.826  19.130   8.850
 4817POPC   C1A 8595  33.770  19.073   8.550
 4817POPC   D2A 8596  33.796  19.038   8.250
 4817POPC   C3A 8597  33.799  19.080   7.950
 4817POPC   C4A 8598  33.843  19.045   7.650
 4817POPC   C1B 8599  33.972  19.238   8.550
 4817POPC   C2B 8600  33.954  19.284   8.250
 4817POPC   C3B 8601  33.946  19.243   7.950
 4817POPC   C4B 8602  33.986  19.291   7.650
 4818POPC   NC3 8603  16.702  36.929   9.450
 4818POPC   PO4 8604  16.706  36.929   9.150
 4818POPC   GL1 8605  16.689  36.910   8.850
 4818POPC   GL2 8606  16.755  36.745   8.850
 4818POPC   C1A 8607  16.780  36.948   8.550
 4818POPC   D2A 8608  16.681  36.950   8.250
 4818POPC   C3A 8609  16.734  36.882   7.950
 4818POPC   C4A 8610  16.748  36.856   7.650
 4818POPC   C1B 8611  16.749  36.642   8.550
 4818POPC   C2B 8612  16.818  36.619   8.250
 4818POPC   C3B 8613  16.772  36.689   7.950
 4818POPC   C4B 8614  16.741  36.642   7.650
 4819POPC   NC3 8615  16.704  24.441   9.450
 4819POPC   PO4 8616  16.773  24.499   9.150
 4819POPC   GL1 8617  16.697  24.485   8.850
 4819POPC   GL2 8618  16.645  24.527   8.850
 4819POPC   C1A 8619  16.780  24.447   8.550
 4819POPC   D2A 8620  16.688  24.510   8.250
 4819POPC   C3A 8621  16.727  24.525   7.950
 4819POPC   C4A 8622  16.693  24.469   7.650
 4819POPC   C1B 8623  16.535  24.573   8.550
 4819POPC   C2B 8624  16.496  24.604   8.250
 4819POPC   C3B 8625  16.489  24.573   7.950
 4819POPC   C4B 8626  16.554  24.584   7.650
 4820POPC   NC3 8627  26.826  34.613   9.450
 4820POPC   PO4 8628  26.817  34.535   9.150
 4820POPC   GL1 8629  26.863  34.534   8.850
 4820POPC   GL2 8630  26.935  34.473   8.850
 4820POPC   C1A 8631  26.784  34.534   8.550
 4820POPC   D2A 8632  26.852  34.538   8.250
 4820POPC   C3A 8633  26.836  34.585   7.950
 4820POPC   C4A 8634  26.816  34.546   7.650
 4820POPC   C1B 8635  26.952  34.382   8.550
 4820POPC   C2B 8636  27.022  34.405   8.250
 4820POPC   C3B 8637  26.970  34.359   7.950
 4820POPC   C4B 8638  27.015  34.370   7.650
 4821POPC   NC3 8639   0.429  18.275   9.450
 4821POPC   PO4 8640   0.415  18.255   9.150
 4821POPC   GL1 8641   0.478  18.329   8.850
 4821POPC   GL2 8642   0.488  18.206   8.850
 4821POPC   C1A 8643   0.480  18.271   8.550
 4821POPC   D2A 8644   0.452  18.256   8.250
 4821POPC   C3A 8645   0.414  18.249   7.950
 4821POPC   C4A 8646   0.433  18.313   7.650
 4821POPC   C1B 8647   0.624  18.121   8.550
 4821POPC   C2B 8648   0.596  18.092   8.250
 4821POPC   C3B 8649   0.665  18.145   7.950
 4821POPC   C4B 8650   0.670  18.136   7.650
 4822POPC   NC3 8651  29.897   9.790   9.450
 4822POPC   PO4 8652  29.915   9.721   9.150
 4822POPC   GL1 8653  29.925   9.708   8.850
 4822POPC   GL2 8654  29.977   9.691   8.850
 4822POPC   C1A 8655  29.950   9.768   8.550
 4822POPC   D2A 8656  29.914   9.794   8.250
 4822POPC   C3A 8657  29.901   9.785   7.950
 4822POPC   C4A 8658  29.879   9.778   7.650
 4822POPC   C1B 8659  30.155   9.566   8.550
 4822POPC   C2B 8660  30.110   9.585   8.250
 4822POPC   C3B 8661  30.128   9.642   7.950
 4822POPC   C4B 8662  30.133   9.582   7.650
 4823POPC   NC3 8663   5.123  30.691   9.450
 4823POPC   PO4 8664   5.089  30.721   9.150
 4823POPC   GL1 8665   5.078  30.689   8.850
 4823POPC   GL2 8666   5.115  30.801   8.850
 4823POPC   C1A 8667   5.096  30.700   8.550
 4823POPC   D2A 8668   5.128  30.647   8.250
 4823POPC   C3A 8669   5.081  30.687   7.950
 4823POPC   C4A 8670   5.064  30.657   7.650
 4823POPC   C1B 8671   5.084  30.988   8.550
 4823POPC   C2B 8672   5.087  30.943   8.250
 4823POPC   C3B 8673   5.105  30.936   7.950
 4823POPC   C4B 8674   5.084  30.988   7.650
 4824POPC   NC3 8675  34.589  19.848   9.450
 4824POPC   PO4 8676  34.621  19.826   9.150
 4824POPC   GL1 8677  34.541  19.811   8.850
 4824POPC   GL2 8678  34.570  19.955   8.850
 4824POPC   C1A 8679  34.547  19.809   8.550
 4824POPC   D2A 8680  34.599  19.830   8.250
 4824POPC   C3A 8681  34.577  19.806   7.950
 4824POPC   C4A 8682  34.554  19.803   7.650
 4824POPC   C1B 8683  34.626  20.072   8.550
 4824POPC   C2B 8684  34.672  20.125   8.250
 4824POPC   C3B 8685  34.684  20.094   7.950
 4824POPC   C4B 8686  34.691  20.056   7.650
 4825POPC   NC3 8687   0.486  10.495   9.450
 4825POPC   PO4 8688   0.448  10.538   9.150
 4825POPC   GL1 8689   0.402  10.552   8.850
 4825POPC   GL2 8690   0.272  10.493   8.850
 4825POPC   C1A 8691   0.401  10.520   8.550
 4825POPC   D2A 8692   0.420  10.539   8.250
 4825POPC   C3A 8693   0.444  10.483   7.950
 4825POPC   C4A 8694   0.432  10.549   7.650
 4825POPC   C1B 8695   0.202  10.467   8.550
 4825POPC   C2B 8696   0.149  10.447   8.250
 4825POPC   C3B 8697   0.178  10.475   7.950
 4825POPC   C4B 8698   0.198  10.494   7.650
 4826POPC   NC3 8699  34.573  10.485   9.450
 4826POPC   PO4 8700  34.598  10.509   9.150
 4826POPC   GL1 8701  34.616  10.519   8.850
 4826POPC   GL2 8702  34.499  10.623   8.850
 4826POPC   C1A 8703  34.580  10.488   8.550
 4826POPC   D2A 8704  34.617  10.514   8.250
 4826POPC   C3A 8705  34.568  10.486   7.950
 4826POPC   C4A 8706  34.568  10.490   7.650
 4826POPC   C1B 8707  34.523  10.758   8.550
 4826POPC   C2B 8708  34.513  10.782   8.250
 4826POPC   C3B 8709  34.507  10.744   7.950
 4826POPC   C4B 8710  34.507  10.746   7.650
 4827POPC   NC3 8711  34.567  34.551   9.450
 4827POPC   PO4 8712  34.602  34.585   9.150
 4827POPC   GL1 8713  34.620  34.600   8.850
 4827POPC   GL2 8714  34.608  34.722   8.850
 4827POPC   C1A 8715  34.567  34.607   8.550
 4827POPC   D2A 8716  34.562  34.533   8.250
 4827POPC   C3A 8717  34.596  34.566   7.950
 4827POPC   C4A 8718  34.544  34.565   7.650
 4827POPC   C1B 8719  34.678  34.852   8.550
 4827POPC   C2B 8720  34.621  34.836   8.250
 4827POPC   C3B 8721  34.621  34.766   7.950
 4827POPC   C4B 8722  34.653  34.796   7.650
 4828POPC   NC3 8723  33.782  44.697   9.450
 4828POPC   PO4 8724  33.777  44.653   9.150
 4828POPC   GL1 8725  33.763  44.656   8.850
 4828POPC   GL2 8726  33.871  44.747   8.850
 4828POPC   C1A 8727  33.783  44.694   8.550
 4828POPC   D2A 8728  33.763  44.630   8.250
 4828POPC   C3A 8729  33.800  44.642   7.950
 4828POPC   C4A 8730  33.755  44.689   7.650
 4828POPC   C1B 8731  33.946  44.850   8.550
 4828POPC   C2B 8732  33.920  44.872   8.250
 4828POPC   C3B 8733  33.910  44.885   7.950
 4828POPC   C4B 8734  33.940  44.865   7.650
 4829POPC   NC3 8735  29.917  20.571   9.450
 4829POPC   PO4 8736  29.884  20.646   9.150
 4829POPC   GL1 8737  29.900  20.616   8.850
 4829POPC   GL2 8738  29.931  20.531   8.850
 4829POPC   C1A 8739  29.949  20.568   8.550
 4829POPC   D2A 8740  29.893  20.659   8.250
 4829POPC   C3A 8741  29.958  20.610   7.950
 4829POPC   C4A 8742  29.920  20.639   7.650
 4829POPC   C1B 8743  29.930  20.408   8.550
 4829POPC   C2B 8744  29.898  20.396   8.250
 4829POPC   C3B 8745  29.938  20.347   7.950
 4829POPC   C4B 8746  29.902  20.357   7.650
 4830POPC   NC3 8747  39.259  36.163   9.450
 4830POPC   PO4 8748  39.240  36.096   9.150
 4830POPC   GL1 8749  39.208  36.103   8.850
 4830POPC   GL2 8750  39.169  36.045   8.850
 4830POPC   C1A 8751  39.252  36.111   8.550
 4830POPC   D2A 8752  39.183  36.109   8.250
 4830POPC   C3A 8753  39.240  36.131   7.950
 4830POPC   C4A 8754  39.225  36.114   7.650
 4830POPC   C1B 8755  39.056  36.047   8.550
 4830POPC   C2B 8756  39.052  36.033   8.250
 4830POPC   C3B 8757  38.987  36.027   7.950
 4830POPC   C4B 8758  39.034  35.962   7.650
 4831POPC   NC3 8759  33.034  10.536   9.450
 4831POPC   PO4 8760  33.068  10.566   9.150
 4831POPC   GL1 8761  33.015  10.502   8.850
 4831POPC   GL2 8762  32.939  10.495   8.850
 4831POPC   C1A 8763  32.981  10.534   8.550
 4831POPC   D2A 8764  33.063  10.553   8.250
 4831POPC   C3A 8765  33.051  10.479   7.950
 4831POPC   C4A 8766  33.067  10.533   7.650
 4831POPC   C1B 8767  32.793  10.459   8.550
 4831POPC   C2B 8768  32.756  10.487   8.250
 4831POPC   C3B 8769  32.751  10.458   7.950
 4831POPC   C4B 8770  32.805  10.497   7.650
 4832POPC   NC3 8771   0.397  16.743   9.450
 4832POPC   PO4 8772   0.464  16.740   9.150
 4832POPC   GL1 8773   0.403  16.688   8.850
 4832POPC   GL2 8774   0.584  16.699   8.850
 4832POPC   C1A 8775   0.447  16.779   8.550
 4832POPC   D2A 8776   0.450  16.709   8.250
 4832POPC   C3A 8777   0.478  16.749   7.950
 4832POPC   C4A 8778   0.455  16.749   7.650
 4832POPC   C1B 8779   0.703  16.568   8.550
 4832POPC   C2B 8780   0.625  16.636   8.250
 4832POPC   C3B 8781   0.672  16.600   7.950
 4832POPC   C4B 8782   0.645  16.657   7.650
 4833POPC   NC3 8783  43.071  39.185   9.450
 4833POPC   PO4 8784  43.134  39.197   9.150
 4833POPC   GL1 8785  43.158  39.249   8.850
 4833POPC   GL2 8786  43.227  39.240   8.850
 4833POPC   C1A 8787  43.147  39.274   8.550
 4833POPC   D2A 8788  43.112  39.278   8.250
 4833POPC   C3A 8789  43.103  39.255   7.950
 4833POPC   C4A 8790  43.080  39.274   7.650
 4833POPC   C1B 8791  43.398  39.215   8.550
 4833POPC   C2B 8792  43.394  39.175   8.250
 4833POPC   C3B 8793  43.309  39.182   7.950
 4833POPC   C4B 8794  43.360  39.215   7.650
 4834POPC   NC3 8795  41.590  43.104   9.450
 4834POPC   PO4 8796  41.528  43.120   9.150
 4834POPC   GL1 8797  41.514  43.133   8.850
 4834POPC   GL2 8798  41.586  42.991   8.850
 4834POPC   C1A 8799  41.601  43.149   8.550
 4834POPC   D2A 8800  41.513  43.081   8.250
 4834POPC   C3A 8801  41.579  43.113   7.950
 4834POPC   C4A 8802  41.550  43.118   7.650
 4834POPC   C1B 8803  41.571  42.863   8.550
 4834POPC   C2B 8804  41.591  42.904   8.250
 4834POPC   C3B 8805  41.616  42.836   7.950
 4834POPC   C4B 8806  41.592  42.870   7.650
 4835POPC   NC3 8807  35.340  37.676   9.450
 4835POPC   PO4 8808  35.335  37.680   9.150
 4835POPC   GL1 8809  35.387  37.668   8.850
 4835POPC   GL2 8810  35.190  37.728   8.850
 4835POPC   C1A 8811  35.324  37.658   8.550
 4835POPC   D2A 8812  35.342  37.718   8.250
 4835POPC   C3A 8813  35.392  37.723   7.950
 4835POPC   C4A 8814  35.309  37.694   7.650
 4835POPC   C1B 8815  35.082  37.705   8.550
 4835POPC   C2B 8816  35.099  37.709   8.250
 4835POPC   C3B 8817  35.129  37.671   7.950
 4835POPC   C4B 8818  35.071  37.682   7.650
 4836POPC   NC3 8819  12.881   5.052   9.450
 4836POPC   PO4 8820  12.898   5.113   9.150
 4836POPC   GL1 8821  12.842   5.052   8.850
 4836POPC   GL2 8822  12.881   5.011   8.850
 4836POPC   C1A 8823  12.829   5.080   8.550
 4836POPC   D2A 8824  12.818   5.127   8.250
 4836POPC   C3A 8825  12.833   5.048   7.950
 4836POPC   C4A 8826  12.810   5.136   7.650
 4836POPC   C1B 8827  12.873   4.892   8.550
 4836POPC   C2B 8828  12.856   4.805   8.250
 4836POPC   C3B 8829  12.907   4.834   7.950
 4836POPC   C4B 8830  12.843   4.871   7.650
 4837POPC   NC3 8831   2.803  40.041   9.450
 4837POPC   PO4 8832   2.755  40.044   9.150
 4837POPC   GL1 8833   2.815  40.035   8.850
 4837POPC   GL2 8834   2.743  40.138   8.850
 4837POPC   C1A 8835   2.775  39.971   8.550
 4837POPC   D2A 8836   2.727  39.991   8.250
 4837POPC   C3A 8837   2.815  40.017   7.950
 4837POPC   C4A 8838   2.791  39.985   7.650
 4837POPC   C1B 8839   2.671  40.245   8.550
 4837POPC   C2B 8840   2.653  40.206   8.250
 4837POPC   C3B 8841   2.665  40.175   7.950
 4837POPC   C4B 8842   2.625  40.215   7.650
 4838POPC   NC3 8843   3.516   4.321   9.450
 4838POPC   PO4 8844   3.588   4.299   9.150
 4838POPC   GL1 8845   3.590   4.358   8.850
 4838POPC   GL2 8846   3.428   4.229   8.850
 4838POPC   C1A 8847   3.569   4.310   8.550
 4838POPC   D2A 8848   3.533   4.306   8.250
 4838POPC   C3A 8849   3.568   4.283   7.950
 4838POPC   C4A 8850   3.572   4.364   7.650
 4838POPC   C1B 8851   3.305   4.224   8.550
 4838POPC   C2B 8852   3.338   4.208   8.250
 4838POPC   C3B 8853   3.324   4.242   7.950
 4838POPC   C4B 8854   3.314   4.254   7.650
 4839POPC   NC3 8855  12.071  23.750   9.450
 4839POPC   PO4 8856  12.102  23.707   9.150
 4839POPC   GL1 8857  12.040  23.678   8.850
 4839POPC   GL2 8858  12.162  23.705   8.850
 4839POPC   C1A 8859  12.079  23.679   8.550
 4839POPC   D2A 8860  12.113  23.716   8.250
 4839POPC   C3A 8861  12.090  23.717   7.950
 4839POPC   C4A 8862  12.080  23.690   7.650
 4839POPC   C1B 8863  12.326  23.630   8.550
 4839POPC   C2B 8864  12.351  23.595   8.250
 4839POPC   C3B 8865  12.306  23.635   7.950
 4839POPC   C4B 8866  12.353  23.592   7.650
 4840POPC   NC3 8867  13.586  25.314   9.450
 4840POPC   PO4 8868  13.620  25.217   9.150
 4840POPC   GL1 8869  13.595  25.224   8.850
 4840POPC   GL2 8870  13.589  25.189   8.850
 4840POPC   C1A 8871  13.617  25.248   8.550
 4840POPC   D2A 8872  13.652  25.231   8.250
 4840POPC   C3A 8873  13.594  25.293   7.950
 4840POPC   C4A 8874  13.677  25.228   7.650
 4840POPC   C1B 8875  13.532  25.073   8.550
 4840POPC   C2B 8876  13.557  25.018   8.250
 4840POPC   C3B 8877  13.533  25.088   7.950
 4840POPC   C4B 8878  13.557  25.041   7.650
 4841POPC   NC3 8879   8.986  31.501   9.450
 4841POPC   PO4 8880   8.943  31.512   9.150
 4841POPC   GL1 8881   8.956  31.474   8.850
 4841POPC   GL2 8882   9.094  31.489   8.850
 4841POPC   C1A 8883   8.937  31.463   8.550
 4841POPC   D2A 8884   8.953  31.490   8.250
 4841POPC   C3A 8885   8.998  31.506   7.950
 4841POPC   C4A 8886   9.015  31.522   7.650
 4841POPC   C1B 8887   9.259  31.574   8.550
 4841POPC   C2B 8888   9.211  31.499   8.250
 4841POPC   C3B 8889   9.262  31.529   7.950
 4841POPC   C4B 8890   9.170  31.543   7.650
 4842POPC   NC3 8891   4.284   2.752   9.450
 4842POPC   PO4 8892   4.273   2.725   9.150
 4842POPC   GL1 8893   4.271   2.780   8.850
 4842POPC   GL2 8894   4.238   2.613   8.850
 4842POPC   C1A 8895   4.335   2.811   8.550
 4842POPC   D2A 8896   4.363   2.736   8.250
 4842POPC   C3A 8897   4.323   2.764   7.950
 4842POPC   C4A 8898   4.294   2.718   7.650
 4842POPC   C1B 8899   4.223   2.592   8.550
 4842POPC   C2B 8900   4.162   2.552   8.250
 4842POPC   C3B 8901   4.170   2.545   7.950
 4842POPC   C4B 8902   4.224   2.606   7.650
 4843POPC   NC3 8903  12.087  44.630   9.450
 4843POPC   PO4 8904  12.063  44.612   9.150
 4843POPC   GL1 8905  12.068  44.620   8.850
 4843POPC   GL2 8906  11.957  44.788   8.850
 4843POPC   C1A 8907  12.053  44.673   8.550
 4843POPC   D2A 8908  12.113  44.656   8.250
 4843POPC   C3A 8909  12.067  44.695   7.950
 4843POPC   C4A 8910  12.093  44.682   7.650
 4843POPC   C1B 8911  11.934  44.807   8.550
 4843POPC   C2B 8912  11.886  44.888   8.250
 4843POPC   C3B 8913  11.963  44.858   7.950
 4843POPC   C4B 8914  11.878  44.903   7.650
 4844POPC   NC3 8915  36.947  11.328   9.450
 4844POPC   PO4 8916  36.947  11.303   9.150
 4844POPC   GL1 8917  36.878  11.330   8.850
 4844POPC   GL2 8918  36.838  11.405   8.850
 4844POPC   C1A 8919  36.886  11.331   8.550
 4844POPC   D2A 8920  36.887  11.321   8.250
 4844POPC   C3A 8921  36.871  11.277   7.950
 4844POPC   C4A 8922  36.895  11.331   7.650
 4844POPC   C1B 8923  36.802  11.501   8.550
 4844POPC   C2B 8924  36.769  11.538   8.250
 4844POPC   C3B 8925  36.810  11.531   7.950
 4844POPC   C4B 8926  36.848  11.552   7.650
 4845POPC   NC3 8927  25.257  26.043   9.450
 4845POPC   PO4 8928  25.251  26.069   9.150
 4845POPC   GL1 8929  25.265  26.057   8.850
 4845POPC   GL2 8930  25.277  25.944   8.850
 4845POPC   C1A 8931  25.233  25.995   8.550
 4845POPC   D2A 8932  25.229  26.052   8.250
 4845POPC   C3A 8933  25.237  26.062   7.950
 4845POPC   C4A 8934  25.218  26.010   7.650
 4845POPC   C1B 8935  25.305  25.835   8.550
 4845POPC   C2B 8936  25.231  25.811   8.250
 4845POPC   C3B 8937  25.265  25.830   7.950
 4845POPC   C4B 8938  25.232  25.822   7.650
 4846POPC   NC3 8939  40.745   0.479   9.450
 4846POPC   PO4 8940  40.812   0.428   9.150
 4846POPC   GL1 8941  40.763   0.420   8.850
 4846POPC   GL2 8942  40.815   0.342   8.850
 4846POPC   C1A 8943  40.787   0.394   8.550
 4846POPC   D2A 8944  40.817   0.445   8.250
 4846POPC   C3A 8945  40.809   0.446   7.950
 4846POPC   C4A 8946  40.792   0.435   7.650
 4846POPC   C1B 8947  40.854   0.236   8.550
 4846POPC   C2B 8948  40.894   0.186   8.250
 4846POPC   C3B 8949  40.877   0.158   7.950
 4846POPC   C4B 8950  40.887   0.194   7.650
 4847POPC   NC3 8951  40.033  11.255   9.450
 4847POPC   PO4 8952  40.045  11.313   9.150
 4847POPC   GL1 8953  39.962  11.279   8.850
 4847POPC   GL2 8954  39.971  11.200   8.850
 4847POPC   C1A 8955  40.041  11.282   8.550
 4847POPC   D2A 8956  40.028  11.282   8.250
 4847POPC   C3A 8957  39.977  11.303   7.950
 4847POPC   C4A 8958  40.013  11.329   7.650
 4847POPC   C1B 8959  40.034  11.046   8.550
 4847POPC   C2B 8960  39.994  11.047   8.250
 4847POPC   C3B 8961  39.970  11.019   7.950
 4847POPC   C4B 8962  39.966  11.054   7.650
 4848POPC   NC3 8963  36.927  31.433   9.450
 4848POPC   PO4 8964  36.949  31.508   9.150
 4848POPC   GL1 8965  36.897  31.451   8.850
 4848POPC   GL2 8966  36.874  31.550   8.850
 4848POPC   C1A 8967  36.923  31.463   8.550
 4848POPC   D2A 8968  36.870  31.439   8.250
 4848POPC   C3A 8969  36.859  31.429   7.950
 4848POPC   C4A 8970  36.892  31.500   7.650
 4848POPC   C1B 8971  36.842  31.714   8.550
 4848POPC   C2B 8972  36.841  31.727   8.250
 4848POPC   C3B 8973  36.860  31.743   7.950
 4848POPC   C4B 8974  36.877  31.732   7.650
 4849POPC   NC3 8975  24.514  14.367   9.450
 4849POPC   PO4 8976  24.482  14.410   9.150
 4849POPC   GL1 8977  24.481  14.361   8.850
 4849POPC   GL2 8978  24.470  14.502   8.850
 4849POPC   C1A 8979  24.507  14.369   8.550
 4849POPC   D2A 8980  24.475  14.381   8.250
 4849POPC   C3A 8981  24.538  14.392   7.950
 4849POPC   C4A 8982  24.509  14.360   7.650
 4849POPC   C1B 8983  24.384  14.639   8.550
 4849POPC   C2B 8984  24.441  14.642   8.250
 4849POPC   C3B 8985  24.433  14.665   7.950
 4849POPC   C4B 8986  24.398  14.637   7.650
 4850POPC   NC3 8987  18.310  19.081   9.450
 4850POPC   PO4 8988  18.327  19.092   9.150
 4850POPC   GL1 8989  18.305  19.072   8.850
 4850POPC   GL2 8990  18.283  18.962   8.850
 4850POPC   C1A 8991  18.298  19.053   8.550
 4850POPC   D2A 8992  18.272  19.101   8.250
 4850POPC   C3A 8993  18.300  19.010   7.950
 4850POPC   C4A 8994  18.249  19.056   7.650
 4850POPC   C1B 8995  18.212  18.853   8.550
 4850POPC   C2B 8996  18.195  18.842   8.250
 4850POPC   C3B 8997  18.189  18.823   7.950
 4850POPC   C4B 8998  18.270  18.822   7.650
 4851POPC   NC3 8999  14.405   4.272   9.450
 4851POPC   PO4 9000  14.419   4.287   9.150
 4851POPC   GL1 9001  14.431   4.308   8.850
 4851POPC   GL2 9002  14.437   4.201   8.850
 4851POPC   C1A 9003  14.357   4.298   8.550
 4851POPC   D2A 9004  14.381   4.365   8.250
 4851POPC   C3A 9005  14.372   4.301   7.950
 4851POPC   C4A 9006  14.448   4.274   7.650
 4851POPC   C1B 9007  14.540   4.118   8.550
 4851POPC   C2B 9008  14.518   4.114   8.250
 4851POPC   C3B 9009  14.481   4.088   7.950
 4851POPC   C4B 9010  14.532   4.116   7.650
 4852POPC   NC3 9011  43.159  27.568   9.450
 4852POPC   PO4 9012  43.154  27.588   9.150
 4852POPC   GL1 9013  43.153  27.553   8.850
 4852POPC   GL2 9014  43.126  27.695   8.850
 4852POPC   C1A 9015  43.080  27.643   8.550
 4852POPC   D2A 9016  43.085  27.576   8.250
 4852POPC   C3A 9017  43.077  27.602   7.950
 4852POPC   C4A 9018  43.102  27.623   7.650
 4852POPC   C1B 9019  43.216  27.836   8.550
 4852POPC   C2B 9020  43.194  27.823   8.250
 4852POPC   C3B 9021  43.290  27.773   7.950
 4852POPC   C4B 9022  43.247  27.824   7.650
 4853POPC   NC3 9023  11.257  16.729   9.450
 4853POPC   PO4 9024  11.260  16.777   9.150
 4853POPC   GL1 9025  11.282  16.722   8.850
 4853POPC   GL2 9026  11.359  16.626   8.850
 4853POPC   C1A 9027  11.294  16.695   8.550
 4853POPC   D2A 9028  11.320  16.763   8.250
 4853POPC   C3A 9029  11.300  16.747   7.950
 4853POPC   C4A 9030  11.330  16.731   7.650
 4853POPC   C1B 9031  11.512  16.614   8.550
 4853POPC   C2B 9032  11.513  16.514   8.250
 4853POPC   C3B 9033  11.457  16.553   7.950
 4853POPC   C4B 9034  11.513  16.554   7.650
 4854POPC   NC3 9035  36.114  19.085   9.450
 4854POPC   PO4 9036  36.134  19.081   9.150
 4854POPC   GL1 9037  36.133  19.042   8.850
 4854POPC   GL2 9038  36.165  18.909   8.850
 4854POPC   C1A 9039  36.167  19.080   8.550
 4854POPC   D2A 9040  36.099  19.037   8.250
 4854POPC   C3A 9041  36.096  19.044   7.950
 4854POPC   C4A 9042  36.135  19.048   7.650
 4854POPC   C1B 9043  36.105  18.781   8.550
 4854POPC   C2B 9044  36.129  18.838   8.250
 4854POPC   C3B 9045  36.187  18.828   7.950
 4854POPC   C4B 9046  36.135  18.801   7.650
 4855POPC   NC3 9047  12.849   8.230   9.450
 4855POPC   PO4 9048  12.900   8.222   9.150
 4855POPC   GL1 9049  12.805   8.163   8.850
 4855POPC   GL2 9050  12.916   8.298   8.850
 4855POPC   C1A 9051  12.884   8.241   8.550
 4855POPC   D2A 9052  12.851   8.208   8.250
 4855POPC   C3A 9053  12.825   8.163   7.950
 4855POPC   C4A 9054  12.816   8.245   7.650
 4855POPC   C1B 9055  12.927   8.448   8.550
 4855POPC   C2B 9056  12.894   8.424   8.250
 4855POPC   C3B 9057  12.909   8.423   7.950
 4855POPC   C4B 9058  12.922   8.396   7.650
 4856POPC   NC3 9059  30.678   9.001   9.450
 4856POPC   PO4 9060  30.676   8.923   9.150
 4856POPC   GL1 9061  30.668   8.994   8.850
 4856POPC   GL2 9062  30.776   8.942   8.850
 4856POPC   C1A 9063  30.722   8.944   8.550
 4856POPC   D2A 9064  30.671   8.945   8.250
 4856POPC   C3A 9065  30.668   8.936   7.950
 4856POPC   C4A 9066  30.744   8.982   7.650
 4856POPC   C1B 9067  30.987   8.902   8.550
 4856POPC   C2B 9068  30.977   8.931   8.250
 4856POPC   C3B 9069  30.944   8.918   7.950
 4856POPC   C4B 9070  30.948   8.905   7.650
 4857POPC   NC3 9071  13.612   4.309   9.450
 4857POPC   PO4 9072  13.591   4.351   9.150
 4857POPC   GL1 9073  13.583   4.281   8.850
 4857POPC   GL2 9074  13.582   4.216   8.850
 4857POPC   C1A 9075  13.651   4.278   8.550
 4857POPC   D2A 9076  13.673   4.331   8.250
 4857POPC   C3A 9077  13.608   4.311   7.950
 4857POPC   C4A 9078  13.595   4.319   7.650
 4857POPC   C1B 9079  13.398   4.150   8.550
 4857POPC   C2B 9080  13.469   4.192   8.250
 4857POPC   C3B 9081  13.402   4.155   7.950
 4857POPC   C4B 9082  13.413   4.107   7.650
 4858POPC   NC3 9083   4.333  39.238   9.450
 4858POPC   PO4 9084   4.343  39.219   9.150
 4858POPC   GL1 9085   4.313  39.225   8.850
 4858POPC   GL2 9086   4.157  39.208   8.850
 4858POPC   C1A 9087   4.343  39.253   8.550
 4858POPC   D2A 9088   4.314  39.273   8.250
 4858POPC   C3A 9089   4.295  39.243   7.950
 4858POPC   C4A 9090   4.365  39.250   7.650
 4858POPC   C1B 9091   4.057  39.296   8.550
 4858POPC   C2B 9092   4.084  39.255   8.250
 4858POPC   C3B 9093   4.052  39.251   7.950
 4858POPC   C4B 9094   4.030  39.284   7.650
 4859POPC   NC3 9095  19.076  44.675   9.450
 4859POPC   PO4 9096  19.025  44.700   9.150
 4859POPC   GL1 9097  19.069  44.669   8.850
 4859POPC   GL2 9098  18.929  44.625   8.850
 4859POPC   C1A 9099  19.044  44.618   8.550
 4859POPC   D2A 9100  19.017  44.685   8.250
 4859POPC   C3A 9101  19.065  44.677   7.950
 4859POPC   C4A 9102  19.021  44.655   7.650
 4859POPC   C1B 9103  18.863  44.478   8.550
 4859POPC   C2B 9104  18.891  44.543   8.250
 4859POPC   C3B 9105  18.818  44.551   7.950
 4859POPC   C4B 9106  18.848  44.550   7.650
 4860POPC   NC3 9107  40.741  13.589   9.450
 4860POPC   PO4 9108  40.826  13.652   9.150
 4860POPC   GL1 9109  40.766  13.662   8.850
 4860POPC   GL2 9110  40.799  13.485   8.850
 4860POPC   C1A 9111  40.803  13.660   8.550
 4860POPC   D2A 9112  40.809  13.587   8.250
 4860POPC   C3A 9113  40.787  13.594   7.950
 4860POPC   C4A 9114  40.735  13.629   7.650
 4860POPC   C1B 9115  40.710  13.410   8.550
 4860POPC   C2B 9116  40.712  13.382   8.250
 4860POPC   C3B 9117  40.689  13.364   7.950
 4860POPC   C4B 9118  40.724  13.334   7.650
 4861POPC   NC3 9119  44.677  39.269   9.450
 4861POPC   PO4 9120  44.618  39.248   9.150
 4861POPC   GL1 9121  44.652  39.230   8.850
 4861POPC   GL2 9122  44.704  39.164   8.850
 4861POPC   C1A 9123  44.706  39.190   8.550
 4861POPC   D2A 9124  44.638  39.273   8.250
 4861POPC   C3A 9125  44.704  39.277   7.950
 4861POPC   C4A 9126  44.617  39.236   7.650
 4861POPC   C1B 9127  44.829  39.049   8.550
 4861POPC   C2B 9128  44.830  39.072   8.250
 4861POPC   C3B 9129  44.838  39.005   7.950
 4861POPC   C4B 9130  44.822  39.077   7.650
 4862POPC   NC3 9131  22.917  12.059   9.450
 4862POPC   PO4 9132  22.891  12.048   9.150
 4862POPC   GL1 9133  22.987  12.033   8.850
 4862POPC   GL2 9134  22.810  12.011   8.850
 4862POPC   C1A 9135  22.920  12.076   8.550
 4862POPC   D2A 9136  22.921  12.114   8.250
 4862POPC   C3A 9137  22.913  12.102   7.950
 4862POPC   C4A 9138  22.914  12.073   7.650
 4862POPC   C1B 9139  22.778  11.847   8.550
 4862POPC   C2B 9140  22.812  11.882   8.250
 4862POPC   C3B 9141  22.733  11.861   7.950
 4862POPC   C4B 9142  22.735  11.878   7.650
 4863POPC   NC3 9143  29.903  39.188   9.450
 4863POPC   PO4 9144  29.872  39.267   9.150
 4863POPC   GL1 9145  29.961  39.205   8.850
 4863POPC   GL2 9146  30.027  39.326   8.850
 4863POPC   C1A 9147  29.931  39.274   8.550
 4863POPC   D2A 9148  29.923  39.241   8.250
 4863POPC   C3A 9149  29.875  39.226   7.950
 4863POPC   C4A 9150  29.902  39.204   7.650
 4863POPC   C1B 9151  30.123  39.328   8.550
 4863POPC   C2B 9152  30.101  39.322   8.250
 4863POPC   C3B 9153  30.187  39.311   7.950
 4863POPC   C4B 9154  30.181  39.302   7.650
 4864POPC   NC3 9155   6.616  34.531   9.450
 4864POPC   PO4 9156   6.618  34.547   9.150
 4864POPC   GL1 9157   6.676  34.562   8.850
 4864POPC   GL2 9158   6.535  34.589   8.850
 4864POPC   C1A 9159   6.626  34.565   8.550
 4864POPC   D2A 9160   6.685  34.619   8.250
 4864POPC   C3A 9161   6.684  34.613   7.950
 4864POPC   C4A 9162   6.670  34.584   7.650
 4864POPC   C1B 9163   6.427  34.627   8.550
 4864POPC   C2B 9164   6.419  34.641   8.250
 4864POPC   C3B 9165   6.424  34.627   7.950
 4864POPC   C4B 9166   6.442  34.630   7.650
 4865POPC   NC3 9167  18.330  21.381   9.450
 4865POPC   PO4 9168  18.292  21.397   9.150
 4865POPC   GL1 9169  18.314  21.346   8.850
 4865POPC   GL2 9170  18.208  21.502   8.850
 4865POPC   C1A 9171  18.331  21.395   8.550
 4865POPC   D2A 9172  18.267  21.423   8.250
 4865POPC   C3A 9173  18.261  21.348   7.950
 4865POPC   C4A 9174  18.248  21.364   7.650
 4865POPC   C1B 9175  18.079  21.549   8.550
 4865POPC   C2B 9176  18.059  21.601   8.250
 4865POPC   C3B 9177  18.114  21.592   7.950
 4865POPC   C4B 9178  18.107  21.575   7.650
 4866POPC   NC3 9179  18.272  28.345   9.450
 4866POPC   PO4 9180  18.301  28.376   9.150
 4866POPC   GL1 9181  18.278  28.416   8.850
 4866POPC   GL2 9182  18.142  28.369   8.850
 4866POPC   C1A 9183  18.258  28.352   8.550
 4866POPC   D2A 9184  18.333  28.415   8.250
 4866POPC   C3A 9185  18.265  28.392   7.950
 4866POPC   C4A 9186  18.277  28.404   7.650
 4866POPC   C1B 9187  18.021  28.417   8.550
 4866POPC   C2B 9188  17.996  28.400   8.250
 4866POPC   C3B 9189  18.040  28.451   7.950
 4866POPC   C4B 9190  18.052  28.415   7.650
 4867POPC   NC3 9191  19.840  26.845   9.450
 4867POPC   PO4 9192  19.879  26.829   9.150
 4867POPC   GL1 9193  19.793  26.792   8.850
 4867POPC   GL2 9194  19.735  26.780   8.850
 4867POPC   C1A 9195  19.803  26.830   8.550
 4867POPC   D2A 9196  19.835  26.823   8.250
 4867POPC   C3A 9197  19.857  26.838   7.950
 4867POPC   C4A 9198  19.871  26.795   7.650
 4867POPC   C1B 9199  19.613  26.815   8.550
 4867POPC   C2B 9200  19.609  26.788   8.250
 4867POPC   C3B 9201  19.556  26.775   7.950
 4867POPC   C4B 9202  19.542  26.846   7.650
 4868POPC   NC3 9203  19.819  31.458   9.450
 4868POPC   PO4 9204  19.860  31.484   9.150
 4868POPC   GL1 9205  19.865  31.512   8.850
 4868POPC   GL2 9206  19.695  31.469   8.850
 4868POPC   C1A 9207  19.849  31.471   8.550
 4868POPC   D2A 9208  19.788  31.440   8.250
 4868POPC   C3A 9209  19.845  31.491   7.950
 4868POPC   C4A 9210  19.855  31.441   7.650
 4868POPC   C1B 9211  19.608  31.567   8.550
 4868POPC   C2B 9212  19.560  31.571   8.250
 4868POPC   C3B 9213  19.592  31.563   7.950
 4868POPC   C4B 9214  19.636  31.501   7.650
 4869POPC   NC3 9215  44.613   0.465   9.450
 4869POPC   PO4 9216  44.699   0.440   9.150
 4869POPC   GL1 9217  44.641   0.447   8.850
 4869POPC   GL2 9218  44.581   0.539   8.850
 4869POPC   C1A 9219  44.664   0.453   8.550
 4869POPC   D2A 9220  44.652   0.436   8.250
 4869POPC   C3A 9221  44.687   0.406   7.950
 4869POPC   C4A 9222  44.644   0.413   7.650
 4869POPC   C1B 9223  44.443   0.575   8.550
 4869POPC   C2B 9224  44.476   0.573   8.250
 4869POPC   C3B 9225  44.432   0.540   7.950
 4869POPC   C4B 9226  44.400   0.528   7.650
 4870POPC   NC3 9227  32.276  14.432   9.450
 4870POPC   PO4 9228  32.226  14.385   9.150
 4870POPC   GL1 9229  32.263  14.393   8.850
 4870POPC   GL2 9230  32.278  14.553   8.850
 4870POPC   C1A 9231  32.228  14.428   8.550
 4870POPC   D2A 9232  32.288  14.357   8.250
 4870POPC   C3A 9233  32.228  14.361   7.950
 4870POPC   C4A 9234  32.283  14.390   7.650
 4870POPC   C1B 9235  32.267  14.630   8.550
 4870POPC   C2B 9236  32.241  14.702   8.250
 4870POPC   C3B 9237  32.191  14.675   7.950
 4870POPC   C4B 9238  32.252  14.677   7.650
 4871POPC   NC3 9239  15.971  34.569   9.450
 4871POPC   PO4 9240  15.978  34.557   9.150
 4871POPC   GL1 9241  15.933  34.595   8.850
 4871POPC   GL2 9242  15.890  34.463   8.850
 4871POPC   C1A 9243  15.981  34.602   8.550
 4871POPC   D2A 9244  15.968  34.594   8.250
 4871POPC   C3A 9245  15.933  34.590   7.950
 4871POPC   C4A 9246  15.964  34.622   7.650
 4871POPC   C1B 9247  15.851  34.360   8.550
 4871POPC   C2B 9248  15.778  34.382   8.250
 4871POPC   C3B 9249  15.799  34.407   7.950
 4871POPC   C4B 9250  15.815  34.337   7.650
 4872POPC   NC3 9251  43.879  43.113   9.450
 4872POPC   PO4 9252  43.926  43.107   9.150
 4872POPC   GL1 9253  43.917  43.065   8.850
 4872POPC   GL2 9254  43.939  43.157   8.850
 4872POPC   C1A 9255  43.915  43.101   8.550
 4872POPC   D2A 9256  43.872  43.159   8.250
 4872POPC   C3A 9257  43.922  43.142   7.950
 4872POPC   C4A 9258  43.878  43.067   7.650
 4872POPC   C1B 9259  44.070  43.237   8.550
 4872POPC   C2B 9260  44.103  43.213   8.250
 4872POPC   C3B 9261  44.095  43.280   7.950
 4872POPC   C4B 9262  44.057  43.286   7.650
 4873POPC   NC3 9263   4.297   7.435   9.450
 4873POPC   PO4 9264   4.273   7.407   9.150
 4873POPC   GL1 9265   4.282   7.464   8.850
 4873POPC   GL2 9266   4.381   7.391   8.850
 4873POPC   C1A 9267   4.334   7.421   8.550
 4873POPC   D2A 9268   4.321   7.410   8.250
 4873POPC   C3A 9269   4.328   7.386   7.950
 4873POPC   C4A 9270   4.329   7.405   7.650
 4873POPC   C1B 9271   4.509   7.236   8.550
 4873POPC   C2B 9272   4.548   7.239   8.250
 4873POPC   C3B 9273   4.506   7.284   7.950
 4873POPC   C4B 9274   4.476   7.310   7.650
 4874POPC   NC3 9275  17.478  27.570   9.450
 4874POPC   PO4 9276  17.511  27.570   9.150
 4874POPC   GL1 9277  17.498  27.576   8.850
 4874POPC   GL2 9278  17.537  27.766   8.850
 4874POPC   C1A 9279  17.540  27.636   8.550
 4874POPC   D2A 9280  17.496  27.619   8.250
 4874POPC   C3A 9281  17.493  27.624   7.950
 4874POPC   C4A 9282  17.486  27.634   7.650
 4874POPC   C1B 9283  17.450  27.854   8.550
 4874POPC   C2B 9284  17.543  27.803   8.250
 4874POPC   C3B 9285  17.471  27.866   7.950
 4874POPC   C4B 9286  17.462  27.864   7.650
 4875POPC   NC3 9287  27.623  12.119   9.450
 4875POPC   PO4 9288  27.601  12.104   9.150
 4875POPC   GL1 9289  27.563  12.092   8.850
 4875POPC   GL2 9290  27.661  12.166   8.850
 4875POPC   C1A 9291  27.577  12.063   8.550
 4875POPC   D2A 9292  27.563  12.086   8.250
 4875POPC   C3A 9293  27.574  12.033   7.950
 4875POPC   C4A 9294  27.554  12.080   7.650
 4875POPC   C1B 9295  27.659  12.279   8.550
 4875POPC   C2B 9296  27.652  12.316   8.250
 4875POPC   C3B 9297  27.653  12.270   7.950
 4875POPC   C4B 9298  27.647  12.320   7.650
 4876POPC   NC3 9299  24.498  12.859   9.450
 4876POPC   PO4 9300  24.484  12.877   9.150
 4876POPC   GL1 9301  24.502  12.806   8.850
 4876POPC   GL2 9302  24.587  12.894   8.850
 4876POPC   C1A 9303  24.525  12.883   8.550
 4876POPC   D2A 9304  24.490  12.875   8.250
 4876POPC   C3A 9305  24.528  12.822   7.950
 4876POPC   C4A 9306  24.469  12.881   7.650
 4876POPC   C1B 9307  24.754  12.982   8.550
 4876POPC   C2B 9308  24.679  12.993   8.250
 4876POPC   C3B 9309  24.732  12.958   7.950
 4876POPC   C4B 9310  24.747  13.002   7.650
 4877POPC   NC3 9311  23.694  39.986   9.450
 4877POPC   PO4 9312  23.729  39.988   9.150
 4877POPC   GL1 9313  23.758  40.030   8.850
 4877POPC   GL2 9314  23.624  39.894   8.850
 4877POPC   C1A 9315  23.735  40.042   8.550
 4877POPC   D2A 9316  23.665  39.970   8.250
 4877POPC   C3A 9317  23.729  39.969   7.950
 4877POPC   C4A 9318  23.747  39.969   7.650
 4877POPC   C1B 9319  23.536  39.835   8.550
 4877POPC   C2B 9320  23.531  39.796   8.250
 4877POPC   C3B 9321  23.509  39.888   7.950
 4877POPC   C4B 9322  23.483  39.891   7.650
 4878POPC   NC3 9323  35.307  32.240   9.450
 4878POPC   PO4 9324  35.343  32.224   9.150
 4878POPC   GL1 9325  35.384  32.282   8.850
 4878POPC   GL2 9326  35.428  32.385   8.850
 4878POPC   C1A 9327  35.374  32.221   8.550
 4878POPC   D2A 9328  35.396  32.230   8.250
 4878POPC   C3A 9329  35.342  32.238   7.950
 4878POPC   C4A 9330  35.310  32.211   7.650
 4878POPC   C1B 9331  35.506  32.453   8.550
 4878POPC   C2B 9332  35.466  32.494   8.250
 4878POPC   C3B 9333  35.470  32.442   7.950
 4878POPC   C4B 9334  35.444  32.454   7.650
 4879POPC   NC3 9335   8.158   7.431   9.450
 4879POPC   PO4 9336   8.157   7.392   9.150
 4879POPC   GL1 9337   8.158   7.452   8.850
 4879POPC   GL2 9338   8.353   7.392   8.850
 4879POPC   C1A 9339   8.201   7.379   8.550
 4879POPC   D2A 9340   8.174   7.457   8.250
 4879POPC   C3A 9341   8.204   7.459   7.950
 4879POPC   C4A 9342   8.207   7.400   7.650
 4879POPC   C1B 9343   8.473   7.402   8.550
 4879POPC   C2B 9344   8.437   7.327   8.250
 4879POPC   C3B 9345   8.436   7.354   7.950
 4879POPC   C4B 9346   8.460   7.339   7.650
 4880POPC   NC3 9347  26.026  27.612   9.450
 4880POPC   PO4 9348  26.051  27.626   9.150
 4880POPC   GL1 9349  26.075  27.610   8.850
 4880POPC   GL2 9350  26.031  27.690   8.850
 4880POPC   C1A 9351  26.063  27.557   8.550
 4880POPC   D2A 9352  26.060  27.550   8.250
 4880POPC   C3A 9353  26.050  27.624   7.950
 4880POPC   C4A 9354  26.000  27.623   7.650
 4880POPC   C1B 9355  26.074  27.845   8.550
 4880POPC   C2B 9356  26.078  27.795   8.250
 4880POPC   C3B 9357  26.070  27.812   7.950
 4880POPC   C4B 9358  26.105  27.858   7.650
 4881POPC   NC3 9359  37.636  26.053   9.450
 4881POPC   PO4 9360  37.698  26.051   9.150
 4881POPC   GL1 9361  37.726  26.088   8.850
 4881POPC   GL2 9362  37.695  25.869   8.850
 4881POPC   C1A 9363  37.714  26.031   8.550
 4881POPC   D2A 9364  37.719  26.091   8.250
 4881POPC   C3A 9365  37.689  25.999   7.950
 4881POPC   C4A 9366  37.677  26.039   7.650
 4881POPC   C1B 9367  37.763  25.804   8.550
 4881POPC   C2B 9368  37.688  25.785   8.250
 4881POPC   C3B 9369  37.681  25.758   7.950
 4881POPC   C4B 9370  37.719  25.827   7.650
 4882POPC   NC3 9371  20.610  17.472   9.450
 4882POPC   PO4 9372  20.594  17.496   9.150
 4882POPC   GL1 9373  20.591  17.513   8.850
 4882POPC   GL2 9374  20.532  17.430   8.850
 4882POPC   C1A 9375  20.571  17.498   8.550
 4882POPC   D2A 9376  20.641  17.470   8.250
 4882POPC   C3A 9377  20.644  17.461   7.950
 4882POPC   C4A 9378  20.589  17.481   7.650
 4882POPC   C1B 9379  20.482  17.291   8.550
 4882POPC   C2B 9380  20.469  17.312   8.250
 4882POPC   C3B 9381  20.509  17.297   7.950
 4882POPC   C4B 9382  20.524  17.289   7.650
 4883POPC   NC3 9383  32.226  12.123   9.450
 4883POPC   PO4 9384  32.259  12.119   9.150
 4883POPC   GL1 9385  32.261  12.061   8.850
 4883POPC   GL2 9386  32.204  12.134   8.850
 4883POPC   C1A 9387  32.221  12.101   8.550
 4883POPC   D2A 9388  32.247  12.065   8.250
 4883POPC   C3A 9389  32.254  12.080   7.950
 4883POPC   C4A 9390  32.244  12.102   7.650
 4883POPC   C1B 9391  32.129  12.259   8.550
 4883POPC   C2B 9392  32.071  12.268   8.250
 4883POPC   C3B 9393  32.086  12.273   7.950
 4883POPC   C4B 9394  32.161  12.283   7.650
 4884POPC   NC3 9395  16.702   5.871   9.450
 4884POPC   PO4 9396  16.748   5.865   9.150
 4884POPC   GL1 9397  16.734   5.824   8.850
 4884POPC   GL2 9398  16.649   5.904   8.850
 4884POPC   C1A 9399  16.709   5.885   8.550
 4884POPC   D2A 9400  16.779   5.843   8.250
 4884POPC   C3A 9401  16.736   5.828   7.950
 4884POPC   C4A 9402  16.720   5.900   7.650
 4884POPC   C1B 9403  16.441   5.898   8.550
 4884POPC   C2B 9404  16.528   5.907   8.250
 4884POPC   C3B 9405  16.501   5.964   7.950
 4884POPC   C4B 9406  16.506   5.958   7.650
 4885POPC   NC3 9407  34.535  12.840   9.450
 4885POPC   PO4 9408  34.529  12.853   9.150
 4885POPC   GL1 9409  34.616  12.835   8.850
 4885POPC   GL2 9410  34.560  13.012   8.850
 4885POPC   C1A 9411  34.581  12.869   8.550
 4885POPC   D2A 9412  34.595  12.866   8.250
 4885POPC   C3A 9413  34.540  12.856   7.950
 4885POPC   C4A 9414  34.583  12.842   7.650
 4885POPC   C1B 9415  34.566  13.105   8.550
 4885POPC   C2B 9416  34.542  13.052   8.250
 4885POPC   C3B 9417  34.574  13.136   7.950
 4885POPC   C4B 9418  34.618  13.150   7.650
 4886POPC   NC3 9419  29.145  32.982   9.450
 4886POPC   PO4 9420  29.121  32.977   9.150
 4886POPC   GL1 9421  29.109  33.022   8.850
 4886POPC   GL2 9422  29.190  32.883   8.850
 4886POPC   C1A 9423  29.143  32.989   8.550
 4886POPC   D2A 9424  29.161  33.042   8.250
 4886POPC   C3A 9425  29.129  33.062   7.950
 4886POPC   C4A 9426  29.095  32.994   7.650
 4886POPC   C1B 9427  29.234  32.865   8.550
 4886POPC   C2B 9428  29.300  32.849   8.250
 4886POPC   C3B 9429  29.263  32.806   7.950
 4886POPC   C4B 9430  29.289  32.856   7.650
 4887POPC   NC3 9431  12.115   7.462   9.450
 4887POPC   PO4 9432  12.083   7.460   9.150
 4887POPC   GL1 9433  12.062   7.459   8.850
 4887POPC   GL2 9434  12.093   7.500   8.850
 4887POPC   C1A 9435  12.065   7.447   8.550
 4887POPC   D2A 9436  12.067   7.387   8.250
 4887POPC   C3A 9437  12.124   7.396   7.950
 4887POPC   C4A 9438  12.050   7.460   7.650
 4887POPC   C1B 9439  12.187   7.639   8.550
 4887POPC   C2B 9440  12.194   7.638   8.250
 4887POPC   C3B 9441  12.168   7.628   7.950
 4887POPC   C4B 9442  12.166   7.613   7.650
 4888POPC   NC3 9443  36.928  18.244   9.450
 4888POPC   PO4 9444  36.872  18.285   9.150
 4888POPC   GL1 9445  36.904  18.306   8.850
 4888POPC   GL2 9446  36.972  18.186   8.850
 4888POPC   C1A 9447  36.895  18.304   8.550
 4888POPC   D2A 9448  36.914  18.317   8.250
 4888POPC   C3A 9449  36.944  18.330   7.950
 4888POPC   C4A 9450  36.945  18.326   7.650
 4888POPC   C1B 9451  37.020  18.095   8.550
 4888POPC   C2B 9452  37.033  18.075   8.250
 4888POPC   C3B 9453  37.070  18.037   7.950
 4888POPC   C4B 9454  37.045  18.093   7.650
 4889POPC   NC3 9455  33.068  38.445   9.450
 4889POPC   PO4 9456  33.063  38.444   9.150
 4889POPC   GL1 9457  33.049  38.436   8.850
 4889POPC   GL2 9458  33.157  38.395   8.850
 4889POPC   C1A 9459  33.046  38.466   8.550
 4889POPC   D2A 9460  32.983  38.478   8.250
 4889POPC   C3A 9461  33.024  38.485   7.950
 4889POPC   C4A 9462  33.017  38.488   7.650
 4889POPC   C1B 9463  33.250  38.238   8.550
 4889POPC   C2B 9464  33.230  38.309   8.250
 4889POPC   C3B 9465  33.168  38.260   7.950
 4889POPC   C4B 9466  33.238  38.280   7.650
 4890POPC   NC3 9467   3.507  17.505   9.450
 4890POPC   PO4 9468   3.521  17.545   9.150
 4890POPC   GL1 9469   3.558  17.530   8.850
 4890POPC   GL2 9470   3.522  17.389   8.850
 4890POPC   C1A 9471   3.501  17.462   8.550
 4890POPC   D2A 9472   3.570  17.469   8.250
 4890POPC   C3A 9473   3.515  17.520   7.950
 4890POPC   C4A 9474   3.591  17.529   7.650
 4890POPC   C1B 9475   3.519  17.226   8.550
 4890POPC   C2B 9476   3.459  17.264   8.250
 4890POPC   C3B 9477   3.484  17.231   7.950
 4890POPC   C4B 9478   3.489  17.300   7.650
 4891POPC   NC3 9479   5.915  33.068   9.450
 4891POPC   PO4 9480   5.828  32.983   9.150
 4891POPC   GL1 9481   5.832  32.994   8.850
 4891POPC   GL2 9482   5.950  33.005   8.850
 4891POPC   C1A 9483   5.879  33.009   8.550
 4891POPC   D2A 9484   5.850  32.985   8.250
 4891POPC   C3A 9485   5.907  33.024   7.950
 4891POPC   C4A 9486   5.896  33.070   7.650
 4891POPC   C1B 9487   6.084  32.925   8.550
 4891POPC   C2B 9488   6.084  32.923   8.250
 4891POPC   C3B 9489   6.068  32.931   7.950
 4891POPC   C4B 9490   6.125  32.923   7.650
 4892POPC   NC3 9491  37.670  22.165   9.450
 4892POPC   PO4 9492  37.672  22.156   9.150
 4892POPC   GL1 9493  37.712  22.185   8.850
 4892POPC   GL2 9494  37.827  22.070   8.850
 4892POPC   C1A 9495  37.727  22.210   8.550
 4892POPC   D2A 9496  37.698  22.139   8.250
 4892POPC   C3A 9497  37.629  22.114   7.950
 4892POPC   C4A 9498  37.669  22.141   7.650
 4892POPC   C1B 9499  37.931  22.114   8.550
 4892POPC   C2B 9500  37.865  22.030   8.250
 4892POPC   C3B 9501  37.914  22.062   7.950
 4892POPC   C4B 9502  37.892  22.080   7.650
 4893POPC   NC3 9503  36.098  39.270   9.450
 4893POPC   PO4 9504  36.177  39.191   9.150
 4893POPC   GL1 9505  36.088  39.264   8.850
 4893POPC   GL2 9506  36.105  39.137   8.850
 4893POPC   C1A 9507  36.083  39.270   8.550
 4893POPC   D2A 9508  36.155  39.185   8.250
 4893POPC   C3A 9509  36.122  39.255   7.950
 4893POPC   C4A 9510  36.159  39.209   7.650
 4893POPC   C1B 9511  35.968  38.972   8.550
 4893POPC   C2B 9512  36.050  39.032   8.250
 4893POPC   C3B 9513  35.975  39.013   7.950
 4893POPC   C4B 9514  35.963  38.985   7.650
 4894POPC   NC3 9515  10.496  26.774   9.450
 4894POPC   PO4 9516  10.492  26.790   9.150
 4894POPC   GL1 9517  10.542  26.836   8.850
 4894POPC   GL2 9518  10.605  26.826   8.850
 4894POPC   C1A 9519  10.522  26.858   8.550
 4894POPC   D2A 9520  10.485  26.782   8.250
 4894POPC   C3A 9521  10.529  26.848   7.950
 4894POPC   C4A 9522  10.531  26.773   7.650
 4894POPC   C1B 9523  10.793  26.736   8.550
 4894POPC   C2B 9524  10.722  26.795   8.250
 4894POPC   C3B 9525  10.762  26.777   7.950
 4894POPC   C4B 9526  10.737  26.801   7.650
 4895POPC   NC3 9527  35.327  30.669   9.450
 4895POPC   PO4 9528  35.363  30.674   9.150
 4895POPC   GL1 9529  35.337  30.712   8.850
 4895POPC   GL2 9530  35.325  30.542   8.850
 4895POPC   C1A 9531  35.353  30.737   8.550
 4895POPC   D2A 9532  35.316  30.686   8.250
 4895POPC   C3A 9533  35.312  30.687   7.950
 4895POPC   C4A 9534  35.359  30.671   7.650
 4895POPC   C1B 9535  35.292  30.479   8.550
 4895POPC   C2B 9536  35.261  30.436   8.250
 4895POPC   C3B 9537  35.322  30.415   7.950
 4895POPC   C4B 9538  35.334  30.464   7.650
 4896POPC   NC3 9539  40.794  28.334   9.450
 4896POPC   PO4 9540  40.770  28.408   9.150
 4896POPC   GL1 9541  40.734  28.371   8.850
 4896POPC   GL2 9542  40.623  28.419   8.850
 4896POPC   C1A 9543  40.758  28.363   8.550
 4896POPC   D2A 9544  40.788  28.417   8.250
 4896POPC   C3A 9545  40.795  28.343   7.950
 4896POPC   C4A 9546  40.806  28.330   7.650
 4896POPC   C1B 9547  40.564  28.410   8.550
 4896POPC   C2B 9548  40.494  28.428   8.250
 4896POPC   C3B 9549  40.491  28.411   7.950
 4896POPC   C4B 9550  40.553  28.434   7.650
 4897POPC   NC3 9551  12.045   2.725   9.450
 4897POPC   PO4 9552  12.096   2.769   9.150
 4897POPC   GL1 9553  12.113   2.721   8.850
 4897POPC   GL2 9554  12.206   2.855   8.850
 4897POPC   C1A 9555  12.077   2.768   8.550
 4897POPC   D2A 9556  12.088   2.756   8.250
 4897POPC   C3A 9557  12.032   2.808   7.950
 4897POPC   C4A 9558  12.099   2.775   7.650
 4897POPC   C1B 9559  12.222   2.934   8.550
 4897POPC   C2B 9560  12.266   2.972   8.250
 4897POPC   C3B 9561  12.213   2.929   7.950
 4897POPC   C4B 9562  12.281   2.946   7.650
 4898POPC   NC3 9563  36.138   7.410   9.450
 4898POPC   PO4 9564  36.144   7.392   9.150
 4898POPC   GL1 9565  36.144   7.466   8.850
 4898POPC   GL2 9566  36.217   7.444   8.850
 4898POPC   C1A 9567  36.170   7.402   8.550
 4898POPC   D2A 9568  36.097   7.453   8.250
 4898POPC   C3A 9569  36.126   7.419   7.950
 4898POPC   C4A 9570  36.100   7.417   7.650
 4898POPC   C1B 9571  36.422   7.493   8.550
 4898POPC   C2B 9572  36.346   7.441   8.250
 4898POPC   C3B 9573  36.356   7.418   7.950
 4898POPC   C4B 9574  36.389   7.497   7.650
 4899POPC   NC3 9575  21.408  24.492   9.450
 4899POPC   PO4 9576  21.406  24.531   9.150
 4899POPC   GL1 9577  21.340  24.521   8.850
 4899POPC   GL2 9578  21.306  24.433   8.850
 4899POPC   C1A 9579  21.361  24.491   8.550
 4899POPC   D2A 9580  21.358  24.449   8.250
 4899POPC   C3A 9581  21.401  24.518   7.950
 4899POPC   C4A 9582  21.337  24.485   7.650
 4899POPC   C1B 9583  21.207  24.355   8.550
 4899POPC   C2B 9584  21.191  24.292   8.250
 4899POPC   C3B 9585  21.219  24.340   7.950
 4899POPC   C4B 9586  21.167  24.352   7.650
 4900POPC   NC3 9587  40.039  19.063   9.450
 4900POPC   PO4 9588  40.054  19.101   9.150
 4900POPC   GL1 9589  40.003  19.103   8.850
 4900POPC   GL2 9590  40.016  18.961   8.850
 4900POPC   C1A 9591  40.047  19.016   8.550
 4900POPC   D2A 9592  40.003  19.103   8.250
 4900POPC   C3A 9593  40.010  19.063   7.950
 4900POPC   C4A 9594  39.980  19.035   7.650
 4900POPC   C1B 9595  39.986  18.759   8.550
 4900POPC   C2B 9596  39.987  18.853   8.250
 4900POPC   C3B 9597  40.034  18.820   7.950
 4900POPC   C4B 9598  39.967  18.812   7.650
 4901POPC   NC3 9599   7.457  22.198   9.450
 4901POPC   PO4 9600   7.378  22.135   9.150
 4901POPC   GL1 9601   7.460  22.139   8.850
 4901POPC   GL2 9602   7.510  22.239   8.850
 4901POPC   C1A 9603   7.406  22.158   8.550
 4901POPC   D2A 9604   7.375  22.212   8.250
 4901POPC   C3A 9605   7.426  22.147   7.950
 4901POPC   C4A 9606   7.445  22.140   7.650
 4901POPC   C1B 9607   7.685  22.261   8.550
 4901POPC   C2B 9608   7.669  22.314   8.250
 4901POPC   C3B 9609   7.622  22.279   7.950
 4901POPC   C4B 9610   7.651  22.270   7.650
 4902POPC   NC3 9611  13.646  11.309   9.450
 4902POPC   PO4 9612  13.590  11.341   9.150
 4902POPC   GL1 9613  13.597  11.331   8.850
 4902POPC   GL2 9614  13.600  11.162   8.850
 4902POPC   C1A 9615  13.625  11.334   8.550
 4902POPC   D2A 9616  13.587  11.313   8.250
 4902POPC   C3A 9617  13.645  11.339   7.950
 4902POPC   C4A 9618  13.594  11.327   7.650
 4902POPC   C1B 9619  13.580  11.062   8.550
 4902POPC   C2B 9620  13.600  11.071   8.250
 4902POPC   C3B 9621  13.641  11.033   7.950
 4902POPC   C4B 9622  13.615  11.027   7.650
 4903POPC   NC3 9623   4.365   4.337   9.450
 4903POPC   PO4 9624   4.317   4.312   9.150
 4903POPC   GL1 9625   4.334   4.348   8.850
 4903POPC   GL2 9626   4.402   4.210   8.850
 4903POPC   C1A 9627   4.366   4.311   8.550
 4903POPC   D2A 9628   4.352   4.319   8.250
 4903POPC   C3A 9629   4.365   4.309   7.950
 4903POPC   C4A 9630   4.292   4.296   7.650
 4903POPC   C1B 9631   4.365   4.046   8.550
 4903POPC   C2B 9632   4.355   4.045   8.250
 4903POPC   C3B 9633   4.420   4.052   7.950
 4903POPC   C4B 9634   4.370   4.058   7.650
 4904POPC   NC3 9635  24.461  10.553   9.450
 4904POPC   PO4 9636  24.513  10.546   9.150
 4904POPC   GL1 9637  24.537  10.555   8.850
 4904POPC   GL2 9638  24.536  10.630   8.850
 4904POPC   C1A 9639  24.516  10.538   8.550
 4904POPC   D2A 9640  24.516  10.567   8.250
 4904POPC   C3A 9641  24.519  10.526   7.950
 4904POPC   C4A 9642  24.494  10.517   7.650
 4904POPC   C1B 9643  24.675  10.720   8.550
 4904POPC   C2B 9644  24.654  10.753   8.250
 4904POPC   C3B 9645  24.618  10.673   7.950
 4904POPC   C4B 9646  24.663  10.719   7.650
 4905POPC   NC3 9647  27.630  19.803   9.450
 4905POPC   PO4 9648  27.606  19.844   9.150
 4905POPC   GL1 9649  27.553  19.859   8.850
 4905POPC   GL2 9650  27.679  19.682   8.850
 4905POPC   C1A 9651  27.580  19.812   8.550
 4905POPC   D2A 9652  27.547  19.857   8.250
 4905POPC   C3A 9653  27.548  19.793   7.950
 4905POPC   C4A 9654  27.637  19.790   7.650
 4905POPC   C1B 9655  27.666  19.618   8.550
 4905POPC   C2B 9656  27.762  19.637   8.250
 4905POPC   C3B 9657  27.670  19.579   7.950
 4905POPC   C4B 9658  27.710  19.612   7.650
 4906POPC   NC3 9659  16.695  22.205   9.450
 4906POPC   PO4 9660  16.765  22.185   9.150
 4906POPC   GL1 9661  16.700  22.164   8.850
 4906POPC   GL2 9662  16.643  22.042   8.850
 4906POPC   C1A 9663  16.706  22.128   8.550
 4906POPC   D2A 9664  16.694  22.188   8.250
 4906POPC   C3A 9665  16.700  22.154   7.950
 4906POPC   C4A 9666  16.751  22.195   7.650
 4906POPC   C1B 9667  16.615  21.894   8.550
 4906POPC   C2B 9668  16.606  21.902   8.250
 4906POPC   C3B 9669  16.590  21.980   7.950
 4906POPC   C4B 9670  16.590  21.923   7.650
 4907POPC   NC3 9671  40.783  25.218   9.450
 4907POPC   PO4 9672  40.809  25.216   9.150
 4907POPC   GL1 9673  40.737  25.241   8.850
 4907POPC   GL2 9674  40.807  25.367   8.850
 4907POPC   C1A 9675  40.740  25.299   8.550
 4907POPC   D2A 9676  40.793  25.223   8.250
 4907POPC   C3A 9677  40.764  25.254   7.950
 4907POPC   C4A 9678  40.788  25.217   7.650
 4907POPC   C1B 9679  40.739  25.495   8.550
 4907POPC   C2B 9680  40.787  25.497   8.250
 4907POPC   C3B 9681  40.746  25.526   7.950
 4907POPC   C4B 9682  40.826  25.563   7.650
 4908POPC   NC3 9683  22.966  22.900   9.450
 4908POPC   PO4 9684  22.931  22.934   9.150
 4908POPC   GL1 9685  22.957  22.904   8.850
 4908POPC   GL2 9686  22.874  23.072   8.850
 4908POPC   C1A 9687  22.896  22.946   8.550
 4908POPC   D2A 9688  22.961  22.904   8.250
 4908POPC   C3A 9689  22.910  22.901   7.950
 4908POPC   C4A 9690  22.931  22.967   7.650
 4908POPC   C1B 9691  22.793  23.174   8.550
 4908POPC   C2B 9692  22.796  23.129   8.250
 4908POPC   C3B 9693  22.749  23.129   7.950
 4908POPC   C4B 9694  22.787  23.171   7.650
 4909POPC   NC3 9695  35.359  22.153   9.450
 4909POPC   PO4 9696  35.392  22.154   9.150
 4909POPC   GL1 9697  35.336  22.121   8.850
 4909POPC   GL2 9698  35.429  22.091   8.850
 4909POPC   C1A 9699  35.331  22.184   8.550
 4909POPC   D2A 9700  35.325  22.210   8.250
 4909POPC   C3A 9701  35.317  22.121   7.950
 4909POPC   C4A 9702  35.340  22.167   7.650
 4909POPC   C1B 9703  35.546  22.042   8.550
 4909POPC   C2B 9704  35.597  22.092   8.250
 4909POPC   C3B 9705  35.546  22.105   7.950
 4909POPC   C4B 9706  35.554  22.109   7.650
 4910POPC   NC3 9707  24.533  33.780   9.450
 4910POPC   PO4 9708  24.490  33.794   9.150
 4910POPC   GL1 9709  24.526  33.764   8.850
 4910POPC   GL2 9710  24.502  33.963   8.850
 4910POPC   C1A 9711  24.535  33.778   8.550
 4910POPC   D2A 9712  24.456  33.780   8.250
 4910POPC   C3A 9713  24.515  33.797   7.950
 4910POPC   C4A 9714  24.482  33.824   7.650
 4910POPC   C1B 9715  24.628  34.043   8.550
 4910POPC   C2B 9716  24.613  34.072   8.250
 4910POPC   C3B 9717  24.615  33.978   7.950
 4910POPC   C4B 9718  24.578  34.028   7.650
 4911POPC   NC3 9719  12.859  22.177   9.450
 4911POPC   PO4 9720  12.852  22.182   9.150
 4911POPC   GL1 9721  12.845  22.134   8.850
 4911POPC   GL2 9722  12.940  22.110   8.850
 4911POPC   C1A 9723  12.849  22.139   8.550
 4911POPC   D2A 9724  12.817  22.126   8.250
 4911POPC   C3A 9725  12.822  22.180   7.950
 4911POPC   C4A 9726  12.828  22.157   7.650
 4911POPC   C1B 9727  13.140  22.152   8.550
 4911POPC   C2B 9728  13.060  22.150   8.250
 4911POPC   C3B 9729  13.064  22.173   7.950
 4911POPC   C4B 9730  13.063  22.090   7.650
 4912POPC   NC3 9731  19.809   6.694   9.450
 4912POPC   PO4 9732  19.877   6.652   9.150
 4912POPC   GL1 9733  19.875   6.677   8.850
 4912POPC   GL2 9734  19.733   6.548   8.850
 4912POPC   C1A 9735  19.822   6.604   8.550
 4912POPC   D2A 9736  19.869   6.624   8.250
 4912POPC   C3A 9737  19.809   6.638   7.950
 4912POPC   C4A 9738  19.883   6.626   7.650
 4912POPC   C1B 9739  19.653   6.554   8.550
 4912POPC   C2B 9740  19.652   6.540   8.250
 4912POPC   C3B 9741  19.632   6.501   7.950
 4912POPC   C4B 9742  19.616   6.491   7.650
 4913POPC   NC3 9743  42.350  10.512   9.450
 4913POPC   PO4 9744  42.316  10.478   9.150
 4913POPC   GL1 9745  42.297  10.490   8.850
 4913POPC   GL2 9746  42.494  10.532   8.850
 4913POPC   C1A 9747  42.291  10.565   8.550
 4913POPC   D2A 9748  42.329  10.555   8.250
 4913POPC   C3A 9749  42.287  10.486   7.950
 4913POPC   C4A 9750  42.297  10.543   7.650
 4913POPC   C1B 9751  42.583  10.532   8.550
 4913POPC   C2B 9752  42.626  10.495   8.250
 4913POPC   C3B 9753  42.573  10.462   7.950
 4913POPC   C4B 9754  42.623  10.533   7.650
 4914POPC   NC3 9755  37.684  40.032   9.450
 4914POPC   PO4 9756  37.709  40.046   9.150
 4914POPC   GL1 9757  37.674  39.984   8.850
 4914POPC   GL2 9758  37.597  40.045   8.850
 4914POPC   C1A 9759  37.724  40.035   8.550
 4914POPC   D2A 9760  37.665  40.023   8.250
 4914POPC   C3A 9761  37.702  40.029   7.950
 4914POPC   C4A 9762  37.700  40.004   7.650
 4914POPC   C1B 9763  37.515  40.148   8.550
 4914POPC   C2B 9764  37.544  40.153   8.250
 4914POPC   C3B 9765  37.461  40.149   7.950
 4914POPC   C4B 9766  37.496  40.196   7.650
 4915POPC   NC3 9767  32.256  30.740   9.450
 4915POPC   PO4 9768  32.282  30.679   9.150
 4915POPC   GL1 9769  32.250  30.743   8.850
 4915POPC   GL2 9770  32.121  30.656   8.850
 4915POPC   C1A 9771  32.234  30.656   8.550
 4915POPC   D2A 9772  32.273  30.726   8.250
 4915POPC   C3A 9773  32.275  30.737   7.950
 4915POPC   C4A 9774  32.281  30.683   7.650
 4915POPC   C1B 9775  32.032  30.631   8.550
 4915POPC   C2B 9776  32.037  30.648   8.250
 4915POPC   C3B 9777  31.987  30.603   7.950
 4915POPC   C4B 9778  31.997  30.574   7.650
 4916POPC   NC3 9779  13.614   6.686   9.450
 4916POPC   PO4 9780  13.609   6.596   9.150
 4916POPC   GL1 9781  13.628   6.595   8.850
 4916POPC   GL2 9782  13.527   6.608   8.850
 4916POPC   C1A 9783  13.643   6.666   8.550
 4916POPC   D2A 9784  13.597   6.606   8.250
 4916POPC   C3A 9785  13.661   6.610   7.950
 4916POPC   C4A 9786  13.604   6.647   7.650
 4916POPC   C1B 9787  13.389   6.630   8.550
 4916POPC   C2B 9788  13.346   6.591   8.250
 4916POPC   C3B 9789  13.403   6.574   7.950
 4916POPC   C4B 9790  13.364   6.547   7.650
 4917POPC   NC3 9791  14.360  41.514   9.450
 4917POPC   PO4 9792  14.438  41.576   9.150
 4917POPC   GL1 9793  14.371  41.590   8.850
 4917POPC   GL2 9794  14.332  41.603   8.850
 4917POPC   C1A 9795  14.397  41.594   8.550
 4917POPC   D2A 9796  14.441  41.571   8.250
 4917POPC   C3A 9797  14.437  41.542   7.950
 4917POPC   C4A 9798  14.431  41.514   7.650
 4917POPC   C1B 9799  14.180  41.631   8.550
 4917POPC   C2B 9800  14.153  41.606   8.250
 4917POPC   C3B 9801  14.118  41.671   7.950
 4917POPC   C4B 9802  14.180  41.637   7.650
 4918POPC   NC3 9803   7.380  12.806   9.450
 4918POPC   PO4 9804   7.435  12.878   9.150
 4918POPC   GL1 9805   7.403  12.832   8.850
 4918POPC   GL2 9806   7.435  12.762   8.850
 4918POPC   C1A 9807   7.465  12.867   8.550
 4918POPC   D2A 9808   7.467  12.859   8.250
 4918POPC   C3A 9809   7.419  12.889   7.950
 4918POPC   C4A 9810   7.434  12.892   7.650
 4918POPC   C1B 9811   7.530  12.618   8.550
 4918POPC   C2B 9812   7.510  12.641   8.250
 4918POPC   C3B 9813   7.552  12.661   7.950
 4918POPC   C4B 9814   7.505  12.583   7.650
 4919POPC   NC3 9815  14.415  17.507   9.450
 4919POPC   PO4 9816  14.441  17.537   9.150
 4919POPC   GL1 9817  14.394  17.496   8.850
 4919POPC   GL2 9818  14.361  17.350   8.850
 4919POPC   C1A 9819  14.426  17.476   8.550
 4919POPC   D2A 9820  14.360  17.524   8.250
 4919POPC   C3A 9821  14.417  17.536   7.950
 4919POPC   C4A 9822  14.405  17.512   7.650
 4919POPC   C1B 9823  14.432  17.246   8.550
 4919POPC   C2B 9824  14.386  17.239   8.250
 4919POPC   C3B 9825  14.436  17.260   7.950
 4919POPC   C4B 9826  14.413  17.214   7.650
 4920POPC   NC3 9827  41.510  24.501   9.450
 4920POPC   PO4 9828  41.586  24.440   9.150
 4920POPC   GL1 9829  41.579  24.502   8.850
 4920POPC   GL2 9830  41.449  24.426   8.850
 4920POPC   C1A 9831  41.575  24.505   8.550
 4920POPC   D2A 9832  41.567  24.514   8.250
 4920POPC   C3A 9833  41.563  24.535   7.950
 4920POPC   C4A 9834  41.584  24.517   7.650
 4920POPC   C1B 9835  41.343  24.318   8.550
 4920POPC   C2B 9836  41.304  24.334   8.250
 4920POPC   C3B 9837  41.335  24.369   7.950
 4920POPC   C4B 9838  41.302  24.336   7.650
 4921POPC   NC3 9839  22.113   1.190   9.450
 4921POPC   PO4 9840  22.169   1.167   9.150
 4921POPC   GL1 9841  22.125   1.230   8.850
 4921POPC   GL2 9842  22.250   1.252   8.850
 4921POPC   C1A 9843  22.134   1.247   8.550
 4921POPC   D2A 9844  22.200   1.245   8.250
 4921POPC   C3A 9845  22.151   1.174   7.950
 4921POPC   C4A 9846  22.186   1.214   7.650
 4921POPC   C1B 9847  22.385   1.282   8.550
 4921POPC   C2B 9848  22.417   1.310   8.250
 4921POPC   C3B 9849  22.363   1.294   7.950
 4921POPC   C4B 9850  22.388   1.290   7.650
 4922POPC   NC3 9851   6.667  37.729   9.450
 4922POPC   PO4 9852   6.611  37.641   9.150
 4922POPC   GL1 9853   6.664  37.683   8.850
 4922POPC   GL2 9854   6.584  37.781   8.850
 4922POPC   C1A 9855   6.687  37.674   8.550
 4922POPC   D2A 9856   6.629  37.710   8.250
 4922POPC   C3A 9857   6.620  37.632   7.950
 4922POPC   C4A 9858   6.628  37.649   7.650
 4922POPC   C1B 9859   6.445  37.884   8.550
 4922POPC   C2B 9860   6.461  37.925   8.250
 4922POPC   C3B 9861   6.497  37.879   7.950
 4922POPC   C4B 9862   6.443  37.854   7.650
 4923POPC   NC3 9863  42.381  15.215   9.450
 4923POPC   PO4 9864  42.298  15.142   9.150
 4923POPC   GL1 9865  42.313  15.210   8.850
 4923POPC   GL2 9866  42.194  15.132   8.850
 4923POPC   C1A 9867  42.312  15.172   8.550
 4923POPC   D2A 9868  42.350  15.147   8.250
 4923POPC   C3A 9869  42.309  15.202   7.950
 4923POPC   C4A 9870  42.316  15.157   7.650
 4923POPC   C1B 9871  42.106  14.979   8.550
 4923POPC   C2B 9872  42.175  15.001   8.250
 4923POPC   C3B 9873  42.098  15.003   7.950
 4923POPC   C4B 9874  42.108  15.028   7.650
 4924POPC   NC3 9875  23.713   8.972   9.450
 4924POPC   PO4 9876  23.712   9.020   9.150
 4924POPC   GL1 9877  23.703   8.956   8.850
 4924POPC   GL2 9878  23.854   9.043   8.850
 4924POPC   C1A 9879  23.703   8.943   8.550
 4924POPC   D2A 9880  23.752   8.993   8.250
 4924POPC   C3A 9881  23.706   8.934   7.950
 4924POPC   C4A 9882  23.705   8.984   7.650
 4924POPC   C1B 9883  23.906   9.078   8.550
 4924POPC   C2B 9884  23.902   9.020   8.250
 4924POPC   C3B 9885  23.975   9.039   7.950
 4924POPC   C4B 9886  23.986   9.097   7.650
 4925POPC   NC3 9887  32.232  33.755   9.450
 4925POPC   PO4 9888  32.228  33.765   9.150
 4925POPC   GL1 9889  32.219  33.771   8.850
 4925POPC   GL2 9890  32.266  33.879   8.850
 4925POPC   C1A 9891  32.243  33.845   8.550
 4925POPC   D2A 9892  32.271  33.767   8.250
 4925POPC   C3A 9893  32.216  33.821   7.950
 4925POPC   C4A 9894  32.274  33.781   7.650
 4925POPC   C1B 9895  32.246  34.014   8.550
 4925POPC   C2B 9896  32.337  34.044   8.250
 4925POPC   C3B 9897  32.312  34.063   7.950
 4925POPC   C4B 9898  32.281  34.046   7.650
 4926POPC   NC3 9899  24.487  42.290   9.450
 4926POPC   PO4 9900  24.509  42.310   9.150
 4926POPC   GL1 9901  24.482  42.329   8.850
 4926POPC   GL2 9902  24.571  42.266   8.850
 4926POPC   C1A 9903  24.491  42.381   8.550
 4926POPC   D2A 9904  24.467  42.357   8.250
 4926POPC   C3A 9905  24.453  42.287   7.950
 4926POPC   C4A 9906  24.440  42.354   7.650
 4926POPC   C1B 9907  24.756  42.243   8.550
 4926POPC   C2B 9908  24.770  42.227   8.250
 4926POPC   C3B 9909  24.680  42.200   7.950
 4926POPC   C4B 9910  24.734  42.279   7.650
 4927POPC   NC3 9911  18.292  23.697   9.450
 4927POPC   PO4 9912  18.323  23.754   9.150
 4927POPC   GL1 9913  18.281  23.664   8.850
 4927POPC   GL2 9914  18.347  23.671   8.850
 4927POPC   C1A 9915  18.246  23.679   8.550
 4927POPC   D2A 9916  18.289  23.698   8.250
 4927POPC   C3A 9917  18.270  23.670   7.950
 4927POPC   C4A 9918  18.247  23.725   7.650
 4927POPC   C1B 9919  18.529  23.523   8.550
 4927POPC   C2B 9920  18.460  23.592   8.250
 4927POPC   C3B 9921  18.469  23.554   7.950
 4927POPC   C4B 9922  18.473  23.608   7.650
 4928POPC   NC3 9923  40.792  34.606   9.450
 4928POPC   PO4 9924  40.764  34.592   9.150
 4928POPC   GL1 9925  40.775  34.590   8.850
 4928POPC   GL2 9926  40.642  34.591   8.850
 4928POPC   C1A 9927  40.810  34.594   8.550
 4928POPC   D2A 9928  40.755  34.612   8.250
 4928POPC   C3A 9929  40.765  34.598   7.950
 4928POPC   C4A 9930  40.787  34.605   7.650
 4928POPC   C1B 9931  40.550  34.623   8.550
 4928POPC   C2B 9932  40.523  34.649   8.250
 4928POPC   C3B 9933  40.527  34.609   7.950
 4928POPC   C4B 9934  40.566  34.648   7.650
 4929POPC   NC3 9935  42.333   8.219   9.450
 4929POPC   PO4 9936  42.343   8.214   9.150
 4929POPC   GL1 9937  42.311   8.195   8.850
 4929POPC   GL2 9938  42.314   8.326   8.850
 4929POPC   C1A 9939  42.347   8.224   8.550
 4929POPC   D2A 9940  42.372   8.215   8.250
 4929POPC   C3A 9941  42.287   8.158   7.950
 4929POPC   C4A 9942  42.304   8.163   7.650
 4929POPC   C1B 9943  42.240   8.412   8.550
 4929POPC   C2B 9944  42.232   8.481   8.250
 4929POPC   C3B 9945  42.315   8.444   7.950
 4929POPC   C4B 9946  42.302   8.443   7.650
 4930POPC   NC3 9947  34.567  33.751   9.450
 4930POPC   PO4 9948  34.544  33.788   9.150
 4930POPC   GL1 9949  34.582  33.797   8.850
 4930POPC   GL2 9950  34.528  33.954   8.850
 4930POPC   C1A 9951  34.609  33.834   8.550
 4930POPC   D2A 9952  34.546  33.809   8.250
 4930POPC   C3A 9953  34.580  33.840   7.950
 4930POPC   C4A 9954  34.567  33.841   7.650
 4930POPC   C1B 9955  34.484  33.996   8.550
 4930POPC   C2B 9956  34.441  34.037   8.250
 4930POPC   C3B 9957  34.480  33.972   7.950
 4930POPC   C4B 9958  34.473  33.981   7.650
 4931POPC   NC3 9959   3.518  29.938   9.450
 4931POPC   PO4 9960   3.537  29.939   9.150
 4931POPC   GL1 9961   3.505  29.882   8.850
 4931POPC   GL2 9962   3.489  30.038   8.850
 4931POPC   C1A 9963   3.510  29.893   8.550
 4931POPC   D2A 9964   3.524  29.941   8.250
 4931POPC   C3A 9965   3.492  29.907   7.950
 4931POPC   C4A 9966   3.496  29.928   7.650
 4931POPC   C1B 9967   3.491  30.216   8.550
 4931POPC   C2B 9968   3.481  30.215   8.250
 4931POPC   C3B 9969   3.554  30.131   7.950
 4931POPC   C4B 9970   3.530  30.153   7.650
 4932POPC   NC3 9971   5.077  22.946   9.450
 4932POPC   PO4 9972   5.084  22.918   9.150
 4932POPC   GL1 9973   5.138  22.890   8.850
 4932POPC   GL2 9974   5.109  23.026   8.850
 4932POPC   C1A 9975   5.129  22.923   8.550
 4932POPC   D2A 9976   5.091  22.936   8.250
 4932POPC   C3A 9977   5.048  22.981   7.950
 4932POPC   C4A 9978   5.138  22.924   7.650
 4932POPC   C1B 9979   5.163  23.203   8.550
 4932POPC   C2B 9980   5.108  23.214   8.250
 4932POPC   C3B 9981   5.175  23.217   7.950
 4932POPC   C4B 9982   5.180  23.221   7.650
 4933POPC   NC3 9983  44.672   1.234   9.450
 4933POPC   PO4 9984  44.688   1.252   9.150
 4933POPC   GL1 9985  44.641   1.253   8.850
 4933POPC   GL2 9986  44.550   1.091   8.850
 4933POPC   C1A 9987  44.691   1.234   8.550
 4933POPC   D2A 9988  44.679   1.190   8.250
 4933POPC   C3A 9989  44.659   1.230   7.950
 4933POPC   C4A 9990  44.701   1.215   7.650
 4933POPC   C1B 9991  44.482   1.057   8.550
 4933POPC   C2B 9992  44.481   1.055   8.250
 4933POPC   C3B 9993  44.469   1.016   7.950
 4933POPC   C4B 9994  44.427   1.062   7.650
 4934POPC   NC3 9995  28.405  31.436   9.450
 4934POPC   PO4 9996  28.372  31.445   9.150
 4934POPC   GL1 9997  28.395  31.489   8.850
 4934POPC   GL2 9998  28.273  31.347   8.850
 4934POPC   C1A 9999  28.398  31.458   8.550
 4934POPC   D2A10000  28.387  31.502   8.250
 4934POPC   C3A10001  28.361  31.479   7.950
 4934POPC   C4A10002  28.355  31.441   7.650
 4934POPC   C1B10003  28.299  31.213   8.550
 4934POPC   C2B10004  28.293  31.280   8.250
 4934POPC   C3B10005  28.224  31.225   7.950
 4934POPC   C4B10006  28.241  31.225   7.650
 4935POPC   NC310007  15.958  16.728   9.450
 4935POPC   PO410008  15.925  16.735   9.150
 4935POPC   GL110009  15.967  16.691   8.850
 4935POPC   GL210010  16.044  16.769   8.850
 4935POPC   C1A10011  15.991  16.779   8.550
 4935POPC   D2A10012  15.944  16.710   8.250
 4935POPC   C3A10013  15.966  16.771   7.950
 4935POPC   C4A10014  15.953  16.704   7.650
 4935POPC   C1B10015  16.116  16.845   8.550
 4935POPC   C2B10016  16.161  16.925   8.250
 4935POPC   C3B10017  16.176  16.870   7.950
 4935POPC   C4B10018  16.146  16.845   7.650
 4936POPC   NC310019  29.913   8.999   9.450
 4936POPC   PO410020  29.919   8.928   9.150
 4936POPC   GL110021  29.885   8.957   8.850
 4936POPC   GL210022  30.065   9.085   8.850
 4936POPC   C1A10023  29.961   8.923   8.550
 4936POPC   D2A10024  29.935   8.994   8.250
 4936POPC   C3A10025  29.930   8.941   7.950
 4936POPC   C4A10026  29.956   8.991   7.650
 4936POPC   C1B10027  30.092   9.133   8.550
 4936POPC   C2B10028  30.117   9.088   8.250
 4936POPC   C3B10029  30.123   9.130   7.950
 4936POPC   C4B10030  30.084   9.110   7.650
 4937POPC   NC310031  43.889  10.514   9.450
 4937POPC   PO410032  43.889  10.516   9.150
 4937POPC   GL110033  43.851  10.510   8.850
 4937POPC   GL210034  43.837  10.412   8.850
 4937POPC   C1A10035  43.857  10.480   8.550
 4937POPC   D2A10036  43.886  10.521   8.250
 4937POPC   C3A10037  43.838  10.498   7.950
 4937POPC   C4A10038  43.902  10.517   7.650
 4937POPC   C1B10039  43.874  10.260   8.550
 4937POPC   C2B10040  43.885  10.308   8.250
 4937POPC   C3B10041  43.809  10.322   7.950
 4937POPC   C4B10042  43.840  10.279   7.650
 4938POPC   NC310043   1.215  43.901   9.450
 4938POPC   PO410044   1.235  43.889   9.150
 4938POPC   GL110045   1.178  43.886   8.850
 4938POPC   GL210046   1.380  43.884   8.850
 4938POPC   C1A10047   1.244  43.911   8.550
 4938POPC   D2A10048   1.171  43.921   8.250
 4938POPC   C3A10049   1.179  43.860   7.950
 4938POPC   C4A10050   1.192  43.871   7.650
 4938POPC   C1B10051   1.478  43.935   8.550
 4938POPC   C2B10052   1.476  43.946   8.250
 4938POPC   C3B10053   1.484  44.015   7.950
 4938POPC   C4B10054   1.418  43.960   7.650
 4939POPC   NC310055  19.106  24.480   9.450
 4939POPC   PO410056  19.076  24.528   9.150
 4939POPC   GL110057  19.053  24.487   8.850
 4939POPC   GL210058  19.034  24.398   8.850
 4939POPC   C1A10059  19.022  24.521   8.550
 4939POPC   D2A10060  19.102  24.516   8.250
 4939POPC   C3A10061  19.077  24.453   7.950
 4939POPC   C4A10062  19.100  24.489   7.650
 4939POPC   C1B10063  19.000  24.285   8.550
 4939POPC   C2B10064  19.002  24.249   8.250
 4939POPC   C3B10065  18.944  24.257   7.950
 4939POPC   C4B10066  19.015  24.213   7.650
 4940POPC   NC310067   4.346  22.982   9.450
 4940POPC   PO410068   4.341  22.973   9.150
 4940POPC   GL110069   4.341  22.918   8.850
 4940POPC   GL210070   4.247  22.866   8.850
 4940POPC   C1A10071   4.330  22.950   8.550
 4940POPC   D2A10072   4.311  22.924   8.250
 4940POPC   C3A10073   4.351  22.983   7.950
 4940POPC   C4A10074   4.333  22.927   7.650
 4940POPC   C1B10075   4.115  22.834   8.550
 4940POPC   C2B10076   4.136  22.822   8.250
 4940POPC   C3B10077   4.129  22.788   7.950
 4940POPC   C4B10078   4.075  22.792   7.650
 4941POPC   NC310079  22.152  38.457   9.450
 4941POPC   PO410080  22.187  38.423   9.150
 4941POPC   GL110081  22.155  38.475   8.850
 4941POPC   GL210082  22.327  38.454   8.850
 4941POPC   C1A10083  22.184  38.439   8.550
 4941POPC   D2A10084  22.182  38.497   8.250
 4941POPC   C3A10085  22.193  38.493   7.950
 4941POPC   C4A10086  22.208  38.462   7.650
 4941POPC   C1B10087  22.362  38.390   8.550
 4941POPC   C2B10088  22.408  38.399   8.250
 4941POPC   C3B10089  22.353  38.367   7.950
 4941POPC   C4B10090  22.350  38.381   7.650
 4942POPC   NC310091  14.439  27.595   9.450
 4942POPC   PO410092  14.433  27.627   9.150
 4942POPC   GL110093  14.380  27.555   8.850
 4942POPC   GL210094  14.397  27.426   8.850
 4942POPC   C1A10095  14.367  27.625   8.550
 4942POPC   D2A10096  14.399  27.613   8.250
 4942POPC   C3A10097  14.449  27.609   7.950
 4942POPC   C4A10098  14.434  27.638   7.650
 4942POPC   C1B10099  14.395  27.352   8.550
 4942POPC   C2B10100  14.331  27.383   8.250
 4942POPC   C3B10101  14.355  27.388   7.950
 4942POPC   C4B10102  14.366  27.368   7.650
 4943POPC   NC310103  38.482  20.642   9.450
 4943POPC   PO410104  38.435  20.626   9.150
 4943POPC   GL110105  38.450  20.654   8.850
 4943POPC   GL210106  38.441  20.698   8.850
 4943POPC   C1A10107  38.454  20.605   8.550
 4943POPC   D2A10108  38.485  20.615   8.250
 4943POPC   C3A10109  38.454  20.623   7.950
 4943POPC   C4A10110  38.481  20.585   7.650
 4943POPC   C1B10111  38.414  20.887   8.550
 4943POPC   C2B10112  38.388  20.851   8.250
 4943POPC   C3B10113  38.366  20.850   7.950
 4943POPC   C4B10114  38.361  20.831   7.650
 4944POPC   NC310115  18.266   0.401   9.450
 4944POPC   PO410116  18.257   0.440   9.150
 4944POPC   GL110117  18.311   0.427   8.850
 4944POPC   GL210118  18.305   0.380   8.850
 4944POPC   C1A10119  18.306   0.408   8.550
 4944POPC   D2A10120  18.241   0.419   8.250
 4944POPC   C3A10121  18.251   0.443   7.950
 4944POPC   C4A10122  18.289   0.419   7.650
 4944POPC   C1B10123  18.410   0.235   8.550
 4944POPC   C2B10124  18.424   0.231   8.250
 4944POPC   C3B10125  18.460   0.246   7.950
 4944POPC   C4B10126  18.474   0.253   7.650
 4945POPC   NC310127  43.082  11.323   9.450
 4945POPC   PO410128  43.153  11.297   9.150
 4945POPC   GL110129  43.069  11.298   8.850
 4945POPC   GL210130  43.247  11.288   8.850
 4945POPC   C1A10131  43.116  11.295   8.550
 4945POPC   D2A10132  43.086  11.261   8.250
 4945POPC   C3A10133  43.113  11.324   7.950
 4945POPC   C4A10134  43.065  11.337   7.650
 4945POPC   C1B10135  43.391  11.406   8.550
 4945POPC   C2B10136  43.369  11.407   8.250
 4945POPC   C3B10137  43.359  11.345   7.950
 4945POPC   C4B10138  43.395  11.348   7.650
 4946POPC   NC310139   3.500  39.220   9.450
 4946POPC   PO410140   3.523  39.206   9.150
 4946POPC   GL110141   3.509  39.234   8.850
 4946POPC   GL210142   3.675  39.259   8.850
 4946POPC   C1A10143   3.533  39.265   8.550
 4946POPC   D2A10144   3.589  39.213   8.250
 4946POPC   C3A10145   3.544  39.276   7.950
 4946POPC   C4A10146   3.585  39.258   7.650
 4946POPC   C1B10147   3.827  39.268   8.550
 4946POPC   C2B10148   3.810  39.270   8.250
 4946POPC   C3B10149   3.828  39.249   7.950
 4946POPC   C4B10150   3.771  39.316   7.650
 4947POPC   NC310151  10.567  28.337   9.450
 4947POPC   PO410152  10.475  28.383   9.150
 4947POPC   GL110153  10.507  28.376   8.850
 4947POPC   GL210154  10.393  28.347   8.850
 4947POPC   C1A10155  10.556  28.415   8.550
 4947POPC   D2A10156  10.534  28.386   8.250
 4947POPC   C3A10157  10.558  28.374   7.950
 4947POPC   C4A10158  10.558  28.394   7.650
 4947POPC   C1B10159  10.238  28.345   8.550
 4947POPC   C2B10160  10.308  28.312   8.250
 4947POPC   C3B10161  10.273  28.352   7.950
 4947POPC   C4B10162  10.254  28.300   7.650
 4948POPC   NC310163  10.514  25.997   9.450
 4948POPC   PO410164  10.518  26.080   9.150
 4948POPC   GL110165  10.497  26.055   8.850
 4948POPC   GL210166  10.458  26.162   8.850
 4948POPC   C1A10167  10.556  26.072   8.550
 4948POPC   D2A10168  10.565  26.023   8.250
 4948POPC   C3A10169  10.573  26.012   7.950
 4948POPC   C4A10170  10.487  26.004   7.650
 4948POPC   C1B10171  10.337  26.249   8.550
 4948POPC   C2B10172  10.412  26.220   8.250
 4948POPC   C3B10173  10.410  26.280   7.950
 4948POPC   C4B10174  10.367  26.188   7.650
 4949POPC   NC310175  36.881  28.406   9.450
 4949POPC   PO410176  36.893  28.416   9.150
 4949POPC   GL110177  36.901  28.403   8.850
 4949POPC   GL210178  36.799  28.228   8.850
 4949POPC   C1A10179  36.922  28.416   8.550
 4949POPC   D2A10180  36.911  28.324   8.250
 4949POPC   C3A10181  36.944  28.337   7.950
 4949POPC   C4A10182  36.925  28.325   7.650
 4949POPC   C1B10183  36.742  28.157   8.550
 4949POPC   C2B10184  36.766  28.211   8.250
 4949POPC   C3B10185  36.705  28.146   7.950
 4949POPC   C4B10186  36.731  28.195   7.650
 4950POPC   NC310187  24.465  37.721   9.450
 4950POPC   PO410188  24.483  37.634   9.150
 4950POPC   GL110189  24.517  37.714   8.850
 4950POPC   GL210190  24.524  37.821   8.850
 4950POPC   C1A10191  24.519  37.660   8.550
 4950POPC   D2A10192  24.478  37.648   8.250
 4950POPC   C3A10193  24.514  37.700   7.950
 4950POPC   C4A10194  24.472  37.714   7.650
 4950POPC   C1B10195  24.525  37.899   8.550
 4950POPC   C2B10196  24.503  37.879   8.250
 4950POPC   C3B10197  24.510  37.964   7.950
 4950POPC   C4B10198  24.496  37.954   7.650
 4951POPC   NC310199  17.544  32.251   9.450
 4951POPC   PO410200  17.552  32.269   9.150
 4951POPC   GL110201  17.532  32.204   8.850
 4951POPC   GL210202  17.440  32.265   8.850
 4951POPC   C1A10203  17.495  32.215   8.550
 4951POPC   D2A10204  17.480  32.283   8.250
 4951POPC   C3A10205  17.554  32.220   7.950
 4951POPC   C4A10206  17.507  32.204   7.650
 4951POPC   C1B10207  17.262  32.363   8.550
 4951POPC   C2B10208  17.266  32.311   8.250
 4951POPC   C3B10209  17.309  32.323   7.950
 4951POPC   C4B10210  17.306  32.351   7.650
 4952POPC   NC310211  31.451  19.091   9.450
 4952POPC   PO410212  31.484  19.091   9.150
 4952POPC   GL110213  31.477  19.089   8.850
 4952POPC   GL210214  31.493  19.159   8.850
 4952POPC   C1A10215  31.444  19.098   8.550
 4952POPC   D2A10216  31.465  19.096   8.250
 4952POPC   C3A10217  31.429  19.065   7.950
 4952POPC   C4A10218  31.454  19.106   7.650
 4952POPC   C1B10219  31.519  19.340   8.550
 4952POPC   C2B10220  31.552  19.283   8.250
 4952POPC   C3B10221  31.490  19.312   7.950
 4952POPC   C4B10222  31.515  19.325   7.650
 4953POPC   NC310223  19.866  41.534   9.450
 4953POPC   PO410224  19.883  41.546   9.150
 4953POPC   GL110225  19.860  41.577   8.850
 4953POPC   GL210226  19.768  41.490   8.850
 4953POPC   C1A10227  19.786  41.514   8.550
 4953POPC   D2A10228  19.825  41.575   8.250
 4953POPC   C3A10229  19.813  41.535   7.950
 4953POPC   C4A10230  19.801  41.512   7.650
 4953POPC   C1B10231  19.728  41.354   8.550
 4953POPC   C2B10232  19.702  41.363   8.250
 4953POPC   C3B10233  19.725  41.361   7.950
 4953POPC   C4B10234  19.726  41.382   7.650
 4954POPC   NC310235  24.521  15.152   9.450
 4954POPC   PO410236  24.530  15.224   9.150
 4954POPC   GL110237  24.443  15.209   8.850
 4954POPC   GL210238  24.510  15.056   8.850
 4954POPC   C1A10239  24.524  15.227   8.550
 4954POPC   D2A10240  24.531  15.188   8.250
 4954POPC   C3A10241  24.492  15.220   7.950
 4954POPC   C4A10242  24.490  15.174   7.650
 4954POPC   C1B10243  24.479  14.897   8.550
 4954POPC   C2B10244  24.419  14.964   8.250
 4954POPC   C3B10245  24.438  14.916   7.950
 4954POPC   C4B10246  24.485  14.965   7.650
 4955POPC   NC310247   5.906  32.202   9.450
 4955POPC   PO410248   5.848  32.292   9.150
 4955POPC   GL110249   5.883  32.244   8.850
 4955POPC   GL210250   5.975  32.200   8.850
 4955POPC   C1A10251   5.888  32.294   8.550
 4955POPC   D2A10252   5.847  32.245   8.250
 4955POPC   C3A10253   5.846  32.289   7.950
 4955POPC   C4A10254   5.831  32.219   7.650
 4955POPC   C1B10255   6.064  32.200   8.550
 4955POPC   C2B10256   6.111  32.157   8.250
 4955POPC   C3B10257   6.076  32.152   7.950
 4955POPC   C4B10258   6.069  32.203   7.650
 4956POPC   NC310259  40.783  39.193   9.450
 4956POPC   PO410260  40.754  39.201   9.150
 4956POPC   GL110261  40.782  39.206   8.850
 4956POPC   GL210262  40.763  39.150   8.850
 4956POPC   C1A10263  40.770  39.267   8.550
 4956POPC   D2A10264  40.783  39.274   8.250
 4956POPC   C3A10265  40.808  39.277   7.950
 4956POPC   C4A10266  40.770  39.182   7.650
 4956POPC   C1B10267  40.785  38.960   8.550
 4956POPC   C2B10268  40.852  39.012   8.250
 4956POPC   C3B10269  40.833  39.011   7.950
 4956POPC   C4B10270  40.787  38.998   7.650
 4957POPC   NC310271  11.267  37.657   9.450
 4957POPC   PO410272  11.347  37.719   9.150
 4957POPC   GL110273  11.259  37.683   8.850
 4957POPC   GL210274  11.181  37.661   8.850
 4957POPC   C1A10275  11.311  37.713   8.550
 4957POPC   D2A10276  11.277  37.729   8.250
 4957POPC   C3A10277  11.299  37.658   7.950
 4957POPC   C4A10278  11.316  37.715   7.650
 4957POPC   C1B10279  11.085  37.662   8.550
 4957POPC   C2B10280  11.023  37.662   8.250
 4957POPC   C3B10281  11.013  37.684   7.950
 4957POPC   C4B10282  11.052  37.637   7.650
 4958POPC   NC310283  21.371   2.765   9.450
 4958POPC   PO410284  21.422   2.768   9.150
 4958POPC   GL110285  21.404   2.809   8.850
 4958POPC   GL210286  21.393   2.856   8.850
 4958POPC   C1A10287  21.422   2.729   8.550
 4958POPC   D2A10288  21.397   2.782   8.250
 4958POPC   C3A10289  21.372   2.716   7.950
 4958POPC   C4A10290  21.346   2.801   7.650
 4958POPC   C1B10291  21.376   3.019   8.550
 4958POPC   C2B10292  21.310   2.985   8.250
 4958POPC   C3B10293  21.358   2.977   7.950
 4958POPC   C4B10294  21.362   3.017   7.650
 4959POPC   NC310295  37.685  25.261   9.450
 4959POPC   PO410296  37.675  25.277   9.150
 4959POPC   GL110297  37.685  25.226   8.850
 4959POPC   GL210298  37.725  25.387   8.850
 4959POPC   C1A10299  37.667  25.279   8.550
 4959POPC   D2A10300  37.664  25.221   8.250
 4959POPC   C3A10301  37.689  25.295   7.950
 4959POPC   C4A10302  37.683  25.295   7.650
 4959POPC   C1B10303  37.793  25.478   8.550
 4959POPC   C2B10304  37.864  25.453   8.250
 4959POPC   C3B10305  37.779  25.523   7.950
 4959POPC   C4B10306  37.810  25.518   7.650
 4960POPC   NC310307   1.216   4.293   9.450
 4960POPC   PO410308   1.204   4.288   9.150
 4960POPC   GL110309   1.189   4.304   8.850
 4960POPC   GL210310   1.374   4.400   8.850
 4960POPC   C1A10311   1.206   4.361   8.550
 4960POPC   D2A10312   1.201   4.277   8.250
 4960POPC   C3A10313   1.221   4.281   7.950
 4960POPC   C4A10314   1.173   4.344   7.650
 4960POPC   C1B10315   1.447   4.389   8.550
 4960POPC   C2B10316   1.446   4.463   8.250
 4960POPC   C3B10317   1.420   4.376   7.950
 4960POPC   C4B10318   1.432   4.457   7.650
 4961POPC   NC310319   7.463   1.264   9.450
 4961POPC   PO410320   7.457   1.245   9.150
 4961POPC   GL110321   7.428   1.173   8.850
 4961POPC   GL210322   7.319   1.323   8.850
 4961POPC   C1A10323   7.447   1.185   8.550
 4961POPC   D2A10324   7.459   1.255   8.250
 4961POPC   C3A10325   7.396   1.190   7.950
 4961POPC   C4A10326   7.442   1.258   7.650
 4961POPC   C1B10327   7.211   1.453   8.550
 4961POPC   C2B10328   7.238   1.359   8.250
 4961POPC   C3B10329   7.276   1.376   7.950
 4961POPC   C4B10330   7.210   1.371   7.650
 4962POPC   NC310331  21.398  21.351   9.450
 4962POPC   PO410332  21.428  21.366   9.150
 4962POPC   GL110333  21.399  21.413   8.850
 4962POPC   GL210334  21.255  21.375   8.850
 4962POPC   C1A10335  21.381  21.433   8.550
 4962POPC   D2A10336  21.391  21.347   8.250
 4962POPC   C3A10337  21.407  21.378   7.950
 4962POPC   C4A10338  21.381  21.401   7.650
 4962POPC   C1B10339  21.116  21.428   8.550
 4962POPC   C2B10340  21.100  21.389   8.250
 4962POPC   C3B10341  21.128  21.451   7.950
 4962POPC   C4B10342  21.138  21.451   7.650
 4963POPC   NC310343  19.105  17.518   9.450
 4963POPC   PO410344  19.056  17.481   9.150
 4963POPC   GL110345  19.013  17.465   8.850
 4963POPC   GL210346  19.176  17.445   8.850
 4963POPC   C1A10347  19.014  17.463   8.550
 4963POPC   D2A10348  19.066  17.547   8.250
 4963POPC   C3A10349  19.071  17.548   7.950
 4963POPC   C4A10350  19.051  17.493   7.650
 4963POPC   C1B10351  19.318  17.406   8.550
 4963POPC   C2B10352  19.256  17.364   8.250
 4963POPC   C3B10353  19.222  17.353   7.950
 4963POPC   C4B10354  19.263  17.339   7.650
 4964POPC   NC310355  44.693   8.951   9.450
 4964POPC   PO410356  44.710   8.978   9.150
 4964POPC   GL110357  44.688   8.993   8.850
 4964POPC   GL210358  44.608   9.094   8.850
 4964POPC   C1A10359  44.690   8.924   8.550
 4964POPC   D2A10360  44.696   8.982   8.250
 4964POPC   C3A10361  44.641   8.970   7.950
 4964POPC   C4A10362  44.625   8.944   7.650
 4964POPC   C1B10363  44.516   9.247   8.550
 4964POPC   C2B10364  44.563   9.243   8.250
 4964POPC   C3B10365  44.547   9.231   7.950
 4964POPC   C4B10366  44.525   9.230   7.650
 4965POPC   NC310367  25.241   4.299   9.450
 4965POPC   PO410368  25.217   4.366   9.150
 4965POPC   GL110369  25.255   4.300   8.850
 4965POPC   GL210370  25.398   4.271   8.850
 4965POPC   C1A10371  25.261   4.345   8.550
 4965POPC   D2A10372  25.266   4.327   8.250
 4965POPC   C3A10373  25.309   4.339   7.950
 4965POPC   C4A10374  25.231   4.355   7.650
 4965POPC   C1B10375  25.511   4.309   8.550
 4965POPC   C2B10376  25.490   4.235   8.250
 4965POPC   C3B10377  25.486   4.271   7.950
 4965POPC   C4B10378  25.493   4.277   7.650
 4966POPC   NC310379  19.848   5.898   9.450
 4966POPC   PO410380  19.862   5.858   9.150
 4966POPC   GL110381  19.873   5.842   8.850
 4966POPC   GL210382  19.817   5.954   8.850
 4966POPC   C1A10383  19.840   5.840   8.550
 4966POPC   D2A10384  19.786   5.893   8.250
 4966POPC   C3A10385  19.815   5.908   7.950
 4966POPC   C4A10386  19.870   5.840   7.650
 4966POPC   C1B10387  19.795   6.075   8.550
 4966POPC   C2B10388  19.742   6.076   8.250
 4966POPC   C3B10389  19.704   6.136   7.950
 4966POPC   C4B10390  19.766   6.079   7.650
 4967POPC   NC310391  42.290   3.530   9.450
 4967POPC   PO410392  42.330   3.576   9.150
 4967POPC   GL110393  42.384   3.529   8.850
 4967POPC   GL210394  42.438   3.534   8.850
 4967POPC   C1A10395  42.348   3.492   8.550
 4967POPC   D2A10396  42.384   3.558   8.250
 4967POPC   C3A10397  42.338   3.553   7.950
 4967POPC   C4A10398  42.376   3.498   7.650
 4967POPC   C1B10399  42.626   3.481   8.550
 4967POPC   C2B10400  42.587   3.503   8.250
 4967POPC   C3B10401  42.599   3.539   7.950
 4967POPC   C4B10402  42.586   3.491   7.650
 4968POPC   NC310403  13.673  15.175   9.450
 4968POPC   PO410404  13.633  15.203   9.150
 4968POPC   GL110405  13.595  15.163   8.850
 4968POPC   GL210406  13.763  15.274   8.850
 4968POPC   C1A10407  13.588  15.221   8.550
 4968POPC   D2A10408  13.653  15.138   8.250
 4968POPC   C3A10409  13.668  15.215   7.950
 4968POPC   C4A10410  13.648  15.214   7.650
 4968POPC   C1B10411  13.857  15.325   8.550
 4968POPC   C2B10412  13.814  15.356   8.250
 4968POPC   C3B10413  13.862  15.363   7.950
 4968POPC   C4B10414  13.845  15.296   7.650
 4969POPC   NC310415  43.143  24.463   9.450
 4969POPC   PO410416  43.145  24.474   9.150
 4969POPC   GL110417  43.095  24.469   8.850
 4969POPC   GL210418  43.225  24.601   8.850
 4969POPC   C1A10419  43.101  24.519   8.550
 4969POPC   D2A10420  43.094  24.469   8.250
 4969POPC   C3A10421  43.072  24.468   7.950
 4969POPC   C4A10422  43.133  24.539   7.650
 4969POPC   C1B10423  43.243  24.735   8.550
 4969POPC   C2B10424  43.278  24.709   8.250
 4969POPC   C3B10425  43.198  24.719   7.950
 4969POPC   C4B10426  43.203  24.717   7.650
 4970POPC   NC310427  38.452   6.616   9.450
 4970POPC   PO410428  38.464   6.606   9.150
 4970POPC   GL110429  38.469   6.659   8.850
 4970POPC   GL210430  38.414   6.576   8.850
 4970POPC   C1A10431  38.460   6.619   8.550
 4970POPC   D2A10432  38.440   6.628   8.250
 4970POPC   C3A10433  38.416   6.677   7.950
 4970POPC   C4A10434  38.454   6.626   7.650
 4970POPC   C1B10435  38.312   6.407   8.550
 4970POPC   C2B10436  38.305   6.447   8.250
 4970POPC   C3B10437  38.325   6.461   7.950
 4970POPC   C4B10438  38.303   6.485   7.650
 4971POPC   NC310439  42.306  17.527   9.450
 4971POPC   PO410440  42.323  17.511   9.150
 4971POPC   GL110441  42.320  17.501   8.850
 4971POPC   GL210442  42.297  17.351   8.850
 4971POPC   C1A10443  42.378  17.496   8.550
 4971POPC   D2A10444  42.290  17.530   8.250
 4971POPC   C3A10445  42.335  17.517   7.950
 4971POPC   C4A10446  42.296  17.502   7.650
 4971POPC   C1B10447  42.266  17.301   8.550
 4971POPC   C2B10448  42.300  17.306   8.250
 4971POPC   C3B10449  42.293  17.215   7.950
 4971POPC   C4B10450  42.235  17.260   7.650
 4972POPC   NC310451  21.370  30.659   9.450
 4972POPC   PO410452  21.408  30.695   9.150
 4972POPC   GL110453  21.342  30.695   8.850
 4972POPC   GL210454  21.506  30.637   8.850
 4972POPC   C1A10455  21.336  30.709   8.550
 4972POPC   D2A10456  21.426  30.702   8.250
 4972POPC   C3A10457  21.426  30.667   7.950
 4972POPC   C4A10458  21.421  30.715   7.650
 4972POPC   C1B10459  21.567  30.516   8.550
 4972POPC   C2B10460  21.575  30.504   8.250
 4972POPC   C3B10461  21.528  30.541   7.950
 4972POPC   C4B10462  21.563  30.510   7.650
 4973POPC   NC310463  44.711  40.048   9.450
 4973POPC   PO410464  44.683  40.037   9.150
 4973POPC   GL110465  44.697  39.996   8.850
 4973POPC   GL210466  44.528  39.996   8.850
 4973POPC   C1A10467  44.615  40.052   8.550
 4973POPC   D2A10468  44.640  40.017   8.250
 4973POPC   C3A10469  44.704  39.977   7.950
 4973POPC   C4A10470  44.662  40.031   7.650
 4973POPC   C1B10471  44.430  39.987   8.550
 4973POPC   C2B10472  44.393  40.048   8.250
 4973POPC   C3B10473  44.372  40.017   7.950
 4973POPC   C4B10474  44.461  40.004   7.650
 4974POPC   NC310475  15.921  36.915   9.450
 4974POPC   PO410476  16.005  36.922   9.150
 4974POPC   GL110477  15.988  36.884   8.850
 4974POPC   GL210478  15.824  36.913   8.850
 4974POPC   C1A10479  16.004  36.893   8.550
 4974POPC   D2A10480  15.926  36.951   8.250
 4974POPC   C3A10481  15.961  36.870   7.950
 4974POPC   C4A10482  15.933  36.946   7.650
 4974POPC   C1B10483  15.744  36.936   8.550
 4974POPC   C2B10484  15.664  36.947   8.250
 4974POPC   C3B10485  15.683  36.956   7.950
 4974POPC   C4B10486  15.667  36.969   7.650
 4975POPC   NC310487  21.418   3.577   9.450
 4975POPC   PO410488  21.428   3.549   9.150
 4975POPC   GL110489  21.362   3.568   8.850
 4975POPC   GL210490  21.222   3.520   8.850
 4975POPC   C1A10491  21.364   3.546   8.550
 4975POPC   D2A10492  21.397   3.519   8.250
 4975POPC   C3A10493  21.374   3.583   7.950
 4975POPC   C4A10494  21.392   3.568   7.650
 4975POPC   C1B10495  21.094   3.514   8.550
 4975POPC   C2B10496  21.089   3.490   8.250
 4975POPC   C3B10497  21.147   3.481   7.950
 4975POPC   C4B10498  21.186   3.487   7.650
 4976POPC   NC310499   5.835   5.087   9.450
 4976POPC   PO410500   5.854   5.065   9.150
 4976POPC   GL110501   5.908   5.089   8.850
 4976POPC   GL210502   5.920   5.129   8.850
 4976POPC   C1A10503   5.919   5.095   8.550
 4976POPC   D2A10504   5.905   5.125   8.250
 4976POPC   C3A10505   5.843   5.117   7.950
 4976POPC   C4A10506   5.824   5.073   7.650
 4976POPC   C1B10507   6.094   5.224   8.550
 4976POPC   C2B10508   6.039   5.263   8.250
 4976POPC   C3B10509   6.070   5.294   7.950
 4976POPC   C4B10510   6.094   5.255   7.650
 4977POPC   NC310511  15.922  30.672   9.450
 4977POPC   PO410512  15.946  30.722   9.150
 4977POPC   GL110513  15.977  30.727   8.850
 4977POPC   GL210514  15.986  30.836   8.850
 4977POPC   C1A10515  15.984  30.699   8.550
 4977POPC   D2A10516  15.979  30.672   8.250
 4977POPC   C3A10517  15.972  30.652   7.950
 4977POPC   C4A10518  15.946  30.671   7.650
 4977POPC   C1B10519  16.047  30.926   8.550
 4977POPC   C2B10520  16.066  30.891   8.250
 4977POPC   C3B10521  16.051  30.959   7.950
 4977POPC   C4B10522  16.102  30.951   7.650
 4978POPC   NC310523  32.206  15.970   9.450
 4978POPC   PO410524  32.250  15.906   9.150
 4978POPC   GL110525  32.232  15.909   8.850
 4978POPC   GL210526  32.211  15.837   8.850
 4978POPC   C1A10527  32.223  15.942   8.550
 4978POPC   D2A10528  32.212  15.950   8.250
 4978POPC   C3A10529  32.234  16.002   7.950
 4978POPC   C4A10530  32.267  15.988   7.650
 4978POPC   C1B10531  32.135  15.679   8.550
 4978POPC   C2B10532  32.153  15.712   8.250
 4978POPC   C3B10533  32.227  15.743   7.950
 4978POPC   C4B10534  32.191  15.722   7.650
 4979POPC   NC310535  10.539  35.349   9.450
 4979POPC   PO410536  10.524  35.305   9.150
 4979POPC   GL110537  10.560  35.307   8.850
 4979POPC   GL210538  10.642  35.381   8.850
 4979POPC   C1A10539  10.540  35.313   8.550
 4979POPC   D2A10540  10.495  35.345   8.250
 4979POPC   C3A10541  10.502  35.314   7.950
 4979POPC   C4A10542  10.524  35.393   7.650
 4979POPC   C1B10543  10.755  35.487   8.550
 4979POPC   C2B10544  10.754  35.514   8.250
 4979POPC   C3B10545  10.783  35.432   7.950
 4979POPC   C4B10546  10.713  35.492   7.650
 4980POPC   NC310547   5.125  44.704   9.450
 4980POPC   PO410548   5.049  44.654   9.150
 4980POPC   GL110549   5.043  44.644   8.850
 4980POPC   GL210550   4.930  44.651   8.850
 4980POPC   C1A10551   5.051  44.624   8.550
 4980POPC   D2A10552   5.109  44.661   8.250
 4980POPC   C3A10553   5.109  44.674   7.950
 4980POPC   C4A10554   5.120  44.635   7.650
 4980POPC   C1B10555   4.865  44.745   8.550
 4980POPC   C2B10556   4.880  44.688   8.250
 4980POPC   C3B10557   4.861  44.722   7.950
 4980POPC   C4B10558   4.868  44.763   7.650
 4981POPC   NC310559  15.946  39.202   9.450
 4981POPC   PO410560  15.986  39.197   9.150
 4981POPC   GL110561  15.963  39.245   8.850
 4981POPC   GL210562  16.129  39.184   8.850
 4981POPC   C1A10563  15.937  39.195   8.550
 4981POPC   D2A10564  15.945  39.261   8.250
 4981POPC   C3A10565  15.909  39.201   7.950
 4981POPC   C4A10566  15.964  39.265   7.650
 4981POPC   C1B10567  16.156  39.208   8.550
 4981POPC   C2B10568  16.236  39.167   8.250
 4981POPC   C3B10569  16.219  39.175   7.950
 4981POPC   C4B10570  16.186  39.172   7.650
 4982POPC   NC310571  12.122  12.869   9.450
 4982POPC   PO410572  12.120  12.819   9.150
 4982POPC   GL110573  12.029  12.807   8.850
 4982POPC   GL210574  11.984  12.842   8.850
 4982POPC   C1A10575  12.113  12.865   8.550
 4982POPC   D2A10576  12.060  12.866   8.250
 4982POPC   C3A10577  12.101  12.900   7.950
 4982POPC   C4A10578  12.056  12.845   7.650
 4982POPC   C1B10579  11.823  12.707   8.550
 4982POPC   C2B10580  11.865  12.718   8.250
 4982POPC   C3B10581  11.889  12.775   7.950
 4982POPC   C4B10582  11.852  12.700   7.650
 4983POPC   NC310583  42.340   5.887   9.450
 4983POPC   PO410584  42.351   5.906   9.150
 4983POPC   GL110585  42.361   5.872   8.850
 4983POPC   GL210586  42.443   5.925   8.850
 4983POPC   C1A10587  42.339   5.898   8.550
 4983POPC   D2A10588  42.361   5.912   8.250
 4983POPC   C3A10589  42.347   5.839   7.950
 4983POPC   C4A10590  42.299   5.898   7.650
 4983POPC   C1B10591  42.570   5.846   8.550
 4983POPC   C2B10592  42.561   5.842   8.250
 4983POPC   C3B10593  42.626   5.848   7.950
 4983POPC   C4B10594  42.590   5.895   7.650
 4984POPC   NC310595   6.652  21.347   9.450
 4984POPC   PO410596   6.596  21.361   9.150
 4984POPC   GL110597   6.640  21.396   8.850
 4984POPC   GL210598   6.747  21.427   8.850
 4984POPC   C1A10599   6.669  21.391   8.550
 4984POPC   D2A10600   6.630  21.380   8.250
 4984POPC   C3A10601   6.626  21.413   7.950
 4984POPC   C4A10602   6.636  21.408   7.650
 4984POPC   C1B10603   6.839  21.412   8.550
 4984POPC   C2B10604   6.857  21.434   8.250
 4984POPC   C3B10605   6.850  21.505   7.950
 4984POPC   C4B10606   6.910  21.492   7.650
 4985POPC   NC310607   3.516  31.435   9.450
 4985POPC   PO410608   3.511  31.458   9.150
 4985POPC   GL110609   3.582  31.472   8.850
 4985POPC   GL210610   3.408  31.402   8.850
 4985POPC   C1A10611   3.524  31.427   8.550
 4985POPC   D2A10612   3.539  31.468   8.250
 4985POPC   C3A10613   3.573  31.499   7.950
 4985POPC   C4A10614   3.496  31.471   7.650
 4985POPC   C1B10615   3.369  31.376   8.550
 4985POPC   C2B10616   3.287  31.334   8.250
 4985POPC   C3B10617   3.323  31.305   7.950
 4985POPC   C4B10618   3.298  31.372   7.650
 4986POPC   NC310619  36.133  13.673   9.450
 4986POPC   PO410620  36.143  13.611   9.150
 4986POPC   GL110621  36.104  13.669   8.850
 4986POPC   GL210622  35.993  13.583   8.850
 4986POPC   C1A10623  36.080  13.644   8.550
 4986POPC   D2A10624  36.095  13.665   8.250
 4986POPC   C3A10625  36.109  13.635   7.950
 4986POPC   C4A10626  36.107  13.634   7.650
 4986POPC   C1B10627  35.964  13.492   8.550
 4986POPC   C2B10628  35.882  13.458   8.250
 4986POPC   C3B10629  35.912  13.511   7.950
 4986POPC   C4B10630  35.949  13.439   7.650
 4987POPC   NC310631  32.270  37.728   9.450
 4987POPC   PO410632  32.216  37.729   9.150
 4987POPC   GL110633  32.256  37.636   8.850
 4987POPC   GL210634  32.316  37.740   8.850
 4987POPC   C1A10635  32.296  37.692   8.550
 4987POPC   D2A10636  32.216  37.630   8.250
 4987POPC   C3A10637  32.296  37.712   7.950
 4987POPC   C4A10638  32.254  37.700   7.650
 4987POPC   C1B10639  32.438  37.820   8.550
 4987POPC   C2B10640  32.438  37.854   8.250
 4987POPC   C3B10641  32.413  37.841   7.950
 4987POPC   C4B10642  32.452  37.875   7.650
 4988POPC   NC310643  42.379   5.114   9.450
 4988POPC   PO410644  42.348   5.143   9.150
 4988POPC   GL110645  42.332   5.123   8.850
 4988POPC   GL210646  42.394   5.007   8.850
 4988POPC   C1A10647  42.330   5.074   8.550
 4988POPC   D2A10648  42.297   5.084   8.250
 4988POPC   C3A10649  42.322   5.091   7.950
 4988POPC   C4A10650  42.301   5.084   7.650
 4988POPC   C1B10651  42.528   4.923   8.550
 4988POPC   C2B10652  42.537   4.924   8.250
 4988POPC   C3B10653  42.555   4.936   7.950
 4988POPC   C4B10654  42.531   4.893   7.650
 4989POPC   NC310655   4.280  33.817   9.450
 4989POPC   PO410656   4.364  33.756   9.150
 4989POPC   GL110657   4.351  33.819   8.850
 4989POPC   GL210658   4.245  33.887   8.850
 4989POPC   C1A10659   4.327  33.809   8.550
 4989POPC   D2A10660   4.276  33.817   8.250
 4989POPC   C3A10661   4.268  33.802   7.950
 4989POPC   C4A10662   4.271  33.805   7.650
 4989POPC   C1B10663   4.121  33.967   8.550
 4989POPC   C2B10664   4.055  33.902   8.250
 4989POPC   C3B10665   4.090  33.961   7.950
 4989POPC   C4B10666   4.142  33.887   7.650
 4990POPC   NC310667  22.186   6.616   9.450
 4990POPC   PO410668  22.128   6.661   9.150
 4990POPC   GL110669  22.157   6.638   8.850
 4990POPC   GL210670  22.131   6.801   8.850
 4990POPC   C1A10671  22.198   6.688   8.550
 4990POPC   D2A10672  22.175   6.643   8.250
 4990POPC   C3A10673  22.199   6.623   7.950
 4990POPC   C4A10674  22.174   6.616   7.650
 4990POPC   C1B10675  22.051   6.865   8.550
 4990POPC   C2B10676  22.093   6.843   8.250
 4990POPC   C3B10677  22.053   6.887   7.950
 4990POPC   C4B10678  22.122   6.890   7.650
 4991POPC   NC310679   4.308  12.056   9.450
 4991POPC   PO410680   4.335  12.080   9.150
 4991POPC   GL110681   4.353  12.032   8.850
 4991POPC   GL210682   4.408  11.961   8.850
 4991POPC   C1A10683   4.358  12.058   8.550
 4991POPC   D2A10684   4.320  12.091   8.250
 4991POPC   C3A10685   4.363  12.061   7.950
 4991POPC   C4A10686   4.349  12.052   7.650
 4991POPC   C1B10687   4.546  11.881   8.550
 4991POPC   C2B10688   4.468  11.907   8.250
 4991POPC   C3B10689   4.549  11.957   7.950
 4991POPC   C4B10690   4.536  11.911   7.650
 4992POPC   NC310691  39.960  12.086   9.450
 4992POPC   PO410692  40.055  12.091   9.150
 4992POPC   GL110693  39.997  12.068   8.850
 4992POPC   GL210694  39.962  11.976   8.850
 4992POPC   C1A10695  40.056  12.097   8.550
 4992POPC   D2A10696  39.999  12.091   8.250
 4992POPC   C3A10697  39.992  12.121   7.950
 4992POPC   C4A10698  40.040  12.102   7.650
 4992POPC   C1B10699  39.998  11.852   8.550
 4992POPC   C2B10700  39.984  11.847   8.250
 4992POPC   C3B10701  39.968  11.835   7.950
 4992POPC   C4B10702  39.966  11.830   7.650
 4993POPC   NC310703  41.581   2.737   9.450
 4993POPC   PO410704  41.578   2.774   9.150
 4993POPC   GL110705  41.542   2.798   8.850
 4993POPC   GL210706  41.545   2.892   8.850
 4993POPC   C1A10707  41.521   2.717   8.550
 4993POPC   D2A10708  41.593   2.776   8.250
 4993POPC   C3A10709  41.560   2.800   7.950
 4993POPC   C4A10710  41.509   2.804   7.650
 4993POPC   C1B10711  41.480   3.020   8.550
 4993POPC   C2B10712  41.436   2.981   8.250
 4993POPC   C3B10713  41.416   2.972   7.950
 4993POPC   C4B10714  41.461   2.957   7.650
 4994POPC   NC310715  41.511  26.053   9.450
 4994POPC   PO410716  41.531  26.048   9.150
 4994POPC   GL110717  41.588  25.995   8.850
 4994POPC   GL210718  41.643  25.955   8.850
 4994POPC   C1A10719  41.599  26.000   8.550
 4994POPC   D2A10720  41.576  25.995   8.250
 4994POPC   C3A10721  41.547  26.011   7.950
 4994POPC   C4A10722  41.560  26.021   7.650
 4994POPC   C1B10723  41.768  25.865   8.550
 4994POPC   C2B10724  41.755  25.852   8.250
 4994POPC   C3B10725  41.766  25.941   7.950
 4994POPC   C4B10726  41.784  25.945   7.650
 4995POPC   NC310727  16.688  11.326   9.450
 4995POPC   PO410728  16.732  11.263   9.150
 4995POPC   GL110729  16.711  11.269   8.850
 4995POPC   GL210730  16.627  11.330   8.850
 4995POPC   C1A10731  16.700  11.316   8.550
 4995POPC   D2A10732  16.751  11.344   8.250
 4995POPC   C3A10733  16.746  11.264   7.950
 4995POPC   C4A10734  16.746  11.310   7.650
 4995POPC   C1B10735  16.476  11.302   8.550
 4995POPC   C2B10736  16.527  11.292   8.250
 4995POPC   C3B10737  16.524  11.256   7.950
 4995POPC   C4B10738  16.463  11.223   7.650
 4996POPC   NC310739   8.190   5.128   9.450
 4996POPC   PO410740   8.227   5.110   9.150
 4996POPC   GL110741   8.204   5.138   8.850
 4996POPC   GL210742   8.299   5.118   8.850
 4996POPC   C1A10743   8.215   5.106   8.550
 4996POPC   D2A10744   8.196   5.071   8.250
 4996POPC   C3A10745   8.229   5.091   7.950
 4996POPC   C4A10746   8.226   5.140   7.650
 4996POPC   C1B10747   8.478   5.068   8.550
 4996POPC   C2B10748   8.410   5.061   8.250
 4996POPC   C3B10749   8.435   5.004   7.950
 4996POPC   C4B10750   8.396   5.026   7.650
 4997POPC   NC310751  24.504  32.977   9.450
 4997POPC   PO410752  24.445  33.037   9.150
 4997POPC   GL110753  24.472  32.984   8.850
 4997POPC   GL210754  24.591  33.013   8.850
 4997POPC   C1A10755  24.449  32.989   8.550
 4997POPC   D2A10756  24.506  33.013   8.250
 4997POPC   C3A10757  24.502  33.074   7.950
 4997POPC   C4A10758  24.507  33.065   7.650
 4997POPC   C1B10759  24.736  33.031   8.550
 4997POPC   C2B10760  24.773  33.096   8.250
 4997POPC   C3B10761  24.739  33.110   7.950
 4997POPC   C4B10762  24.758  33.109   7.650
 4998POPC   NC310763  17.515  42.295   9.450
 4998POPC   PO410764  17.467  42.384   9.150
 4998POPC   GL110765  17.476  42.307   8.850
 4998POPC   GL210766  17.541  42.222   8.850
 4998POPC   C1A10767  17.469  42.287   8.550
 4998POPC   D2A10768  17.524  42.312   8.250
 4998POPC   C3A10769  17.494  42.363   7.950
 4998POPC   C4A10770  17.496  42.369   7.650
 4998POPC   C1B10771  17.624  42.092   8.550
 4998POPC   C2B10772  17.707  42.128   8.250
 4998POPC   C3B10773  17.612  42.154   7.950
 4998POPC   C4B10774  17.693  42.118   7.650
 4999POPC   NC310775  26.825  29.189   9.450
 4999POPC   PO410776  26.783  29.161   9.150
 4999POPC   GL110777  26.777  29.127   8.850
 4999POPC   GL210778  26.759  29.204   8.850
 4999POPC   C1A10779  26.836  29.182   8.550
 4999POPC   D2A10780  26.854  29.106   8.250
 4999POPC   C3A10781  26.842  29.146   7.950
 4999POPC   C4A10782  26.849  29.175   7.650
 4999POPC   C1B10783  26.604  29.260   8.550
 4999POPC   C2B10784  26.655  29.271   8.250
 4999POPC   C3B10785  26.639  29.240   7.950
 4999POPC   C4B10786  26.635  29.321   7.650
 5000POPC   NC310787  41.577  39.198   9.450
 5000POPC   PO410788  41.577  39.253   9.150
 5000POPC   GL110789  41.590  39.251   8.850
 5000POPC   GL210790  41.580  39.082   8.850
 5000POPC   C1A10791  41.607  39.206   8.550
 5000POPC   D2A10792  41.514  39.188   8.250
 5000POPC   C3A10793  41.560  39.251   7.950
 5000POPC   C4A10794  41.538  39.188   7.650
 5000POPC   C1B10795  41.575  38.963   8.550
 5000POPC   C2B10796  41.527  39.008   8.250
 5000POPC   C3B10797  41.574  38.975   7.950
 5000POPC   C4B10798  41.561  38.938   7.650
 5001POPC   NC310799  19.107   8.936   9.450
 5001POPC   PO410800  19.089   9.020   9.150
 5001POPC   GL110801  19.012   8.941   8.850
 5001POPC   GL210802  19.033   9.141   8.850
 5001POPC   C1A10803  19.040   8.963   8.550
 5001POPC   D2A10804  19.050   9.013   8.250
 5001POPC   C3A10805  19.016   8.968   7.950
 5001POPC   C4A10806  19.020   8.962   7.650
 5001POPC   C1B10807  19.137   9.186   8.550
 5001POPC   C2B10808  19.091   9.219   8.250
 5001POPC   C3B10809  19.090   9.226   7.950
 5001POPC   C4B10810  19.122   9.242   7.650
 5002POPC   NC310811   5.871  15.192   9.450
 5002POPC   PO410812   5.883  15.218   9.150
 5002POPC   GL110813   5.906  15.147   8.850
 5002POPC   GL210814   5.800  15.086   8.850
 5002POPC   C1A10815   5.867  15.141   8.550
 5002POPC   D2A10816   5.867  15.166   8.250
 5002POPC   C3A10817   5.877  15.187   7.950
 5002POPC   C4A10818   5.837  15.209   7.650
 5002POPC   C1B10819   5.615  15.102   8.550
 5002POPC   C2B10820   5.654  15.085   8.250
 5002POPC   C3B10821   5.603  15.112   7.950
 5002POPC   C4B10822   5.616  15.098   7.650
 5003POPC   NC310823   5.863   2.758   9.450
 5003POPC   PO410824   5.917   2.754   9.150
 5003POPC   GL110825   5.860   2.813   8.850
 5003POPC   GL210826   5.999   2.715   8.850
 5003POPC   C1A10827   5.826   2.742   8.550
 5003POPC   D2A10828   5.914   2.807   8.250
 5003POPC   C3A10829   5.883   2.806   7.950
 5003POPC   C4A10830   5.913   2.789   7.650
 5003POPC   C1B10831   6.065   2.711   8.550
 5003POPC   C2B10832   6.089   2.706   8.250
 5003POPC   C3B10833   6.141   2.706   7.950
 5003POPC   C4B10834   6.096   2.641   7.650
 5004POPC   NC310835  40.788  35.323   9.450
 5004POPC   PO410836  40.831  35.307   9.150
 5004POPC   GL110837  40.772  35.307   8.850
 5004POPC   GL210838  40.779  35.468   8.850
 5004POPC   C1A10839  40.807  35.392   8.550
 5004POPC   D2A10840  40.740  35.324   8.250
 5004POPC   C3A10841  40.824  35.349   7.950
 5004POPC   C4A10842  40.791  35.333   7.650
 5004POPC   C1B10843  40.866  35.604   8.550
 5004POPC   C2B10844  40.879  35.558   8.250
 5004POPC   C3B10845  40.851  35.595   7.950
 5004POPC   C4B10846  40.848  35.573   7.650
 5005POPC   NC310847   1.196  33.774   9.450
 5005POPC   PO410848   1.195  33.758   9.150
 5005POPC   GL110849   1.244  33.783   8.850
 5005POPC   GL210850   1.140  33.744   8.850
 5005POPC   C1A10851   1.236  33.804   8.550
 5005POPC   D2A10852   1.241  33.764   8.250
 5005POPC   C3A10853   1.207  33.807   7.950
 5005POPC   C4A10854   1.173  33.825   7.650
 5005POPC   C1B10855   1.081  33.598   8.550
 5005POPC   C2B10856   1.107  33.575   8.250
 5005POPC   C3B10857   1.111  33.573   7.950
 5005POPC   C4B10858   1.086  33.619   7.650
 5006POPC   NC310859  21.385  25.274   9.450
 5006POPC   PO410860  21.341  25.245   9.150
 5006POPC   GL110861  21.405  25.266   8.850
 5006POPC   GL210862  21.290  25.175   8.850
 5006POPC   C1A10863  21.389  25.241   8.550
 5006POPC   D2A10864  21.430  25.219   8.250
 5006POPC   C3A10865  21.412  25.304   7.950
 5006POPC   C4A10866  21.351  25.273   7.650
 5006POPC   C1B10867  21.110  25.198   8.550
 5006POPC   C2B10868  21.146  25.158   8.250
 5006POPC   C3B10869  21.186  25.122   7.950
 5006POPC   C4B10870  21.189  25.180   7.650
 5007POPC   NC310871  38.416  36.137   9.450
 5007POPC   PO410872  38.488  36.120   9.150
 5007POPC   GL110873  38.434  36.131   8.850
 5007POPC   GL210874  38.563  36.221   8.850
 5007POPC   C1A10875  38.467  36.123   8.550
 5007POPC   D2A10876  38.437  36.116   8.250
 5007POPC   C3A10877  38.458  36.136   7.950
 5007POPC   C4A10878  38.479  36.105   7.650
 5007POPC   C1B10879  38.720  36.200   8.550
 5007POPC   C2B10880  38.667  36.280   8.250
 5007POPC   C3B10881  38.662  36.201   7.950
 5007POPC   C4B10882  38.709  36.202   7.650
 5008POPC   NC310883   3.568  19.786   9.450
 5008POPC   PO410884   3.519  19.815   9.150
 5008POPC   GL110885   3.572  19.883   8.850
 5008POPC   GL210886   3.573  19.762   8.850
 5008POPC   C1A10887   3.515  19.788   8.550
 5008POPC   D2A10888   3.508  19.859   8.250
 5008POPC   C3A10889   3.519  19.790   7.950
 5008POPC   C4A10890   3.525  19.845   7.650
 5008POPC   C1B10891   3.584  19.575   8.550
 5008POPC   C2B10892   3.615  19.578   8.250
 5008POPC   C3B10893   3.591  19.631   7.950
 5008POPC   C4B10894   3.648  19.586   7.650
 5009POPC   NC310895  40.053  17.486   9.450
 5009POPC   PO410896  40.029  17.471   9.150
 5009POPC   GL110897  40.052  17.477   8.850
 5009POPC   GL210898  40.067  17.586   8.850
 5009POPC   C1A10899  39.958  17.502   8.550
 5009POPC   D2A10900  40.030  17.512   8.250
 5009POPC   C3A10901  40.010  17.515   7.950
 5009POPC   C4A10902  40.004  17.488   7.650
 5009POPC   C1B10903  40.175  17.624   8.550
 5009POPC   C2B10904  40.238  17.648   8.250
 5009POPC   C3B10905  40.257  17.696   7.950
 5009POPC   C4B10906  40.211  17.619   7.650
 5010POPC   NC310907  16.696  22.888   9.450
 5010POPC   PO410908  16.779  22.914   9.150
 5010POPC   GL110909  16.684  22.985   8.850
 5010POPC   GL210910  16.679  23.092   8.850
 5010POPC   C1A10911  16.691  22.912   8.550
 5010POPC   D2A10912  16.734  22.984   8.250
 5010POPC   C3A10913  16.738  22.897   7.950
 5010POPC   C4A10914  16.727  22.928   7.650
 5010POPC   C1B10915  16.648  23.178   8.550
 5010POPC   C2B10916  16.556  23.112   8.250
 5010POPC   C3B10917  16.586  23.123   7.950
 5010POPC   C4B10918  16.605  23.166   7.650
 5011POPC   NC310919  19.072   1.984   9.450
 5011POPC   PO410920  19.078   1.973   9.150
 5011POPC   GL110921  19.037   2.004   8.850
 5011POPC   GL210922  18.960   2.062   8.850
 5011POPC   C1A10923  19.025   1.940   8.550
 5011POPC   D2A10924  19.042   2.026   8.250
 5011POPC   C3A10925  19.090   1.998   7.950
 5011POPC   C4A10926  19.043   1.991   7.650
 5011POPC   C1B10927  18.841   2.100   8.550
 5011POPC   C2B10928  18.803   2.168   8.250
 5011POPC   C3B10929  18.802   2.114   7.950
 5011POPC   C4B10930  18.822   2.094   7.650
 5012POPC   NC310931   3.501  13.629   9.450
 5012POPC   PO410932   3.586  13.659   9.150
 5012POPC   GL110933   3.586  13.596   8.850
 5012POPC   GL210934   3.683  13.605   8.850
 5012POPC   C1A10935   3.584  13.635   8.550
 5012POPC   D2A10936   3.526  13.677   8.250
 5012POPC   C3A10937   3.541  13.603   7.950
 5012POPC   C4A10938   3.509  13.612   7.650
 5012POPC   C1B10939   3.787  13.546   8.550
 5012POPC   C2B10940   3.741  13.574   8.250
 5012POPC   C3B10941   3.742  13.490   7.950
 5012POPC   C4B10942   3.774  13.513   7.650
 5013POPC   NC310943   8.169  11.288   9.450
 5013POPC   PO410944   8.193  11.288   9.150
 5013POPC   GL110945   8.195  11.322   8.850
 5013POPC   GL210946   8.237  11.171   8.850
 5013POPC   C1A10947   8.219  11.303   8.550
 5013POPC   D2A10948   8.224  11.341   8.250
 5013POPC   C3A10949   8.197  11.295   7.950
 5013POPC   C4A10950   8.152  11.256   7.650
 5013POPC   C1B10951   8.206  11.087   8.550
 5013POPC   C2B10952   8.234  11.039   8.250
 5013POPC   C3B10953   8.257  11.012   7.950
 5013POPC   C4B10954   8.222  11.038   7.650
 5014POPC   NC310955  20.651  23.762   9.450
 5014POPC   PO410956  20.593  23.671   9.150
 5014POPC   GL110957  20.613  23.750   8.850
 5014POPC   GL210958  20.673  23.815   8.850
 5014POPC   C1A10959  20.645  23.762   8.550
 5014POPC   D2A10960  20.573  23.691   8.250
 5014POPC   C3A10961  20.638  23.734   7.950
 5014POPC   C4A10962  20.616  23.694   7.650
 5014POPC   C1B10963  20.707  23.872   8.550
 5014POPC   C2B10964  20.746  23.889   8.250
 5014POPC   C3B10965  20.781  23.955   7.950
 5014POPC   C4B10966  20.727  23.915   7.650
 5015POPC   NC310967  19.062  26.800   9.450
 5015POPC   PO410968  19.090  26.859   9.150
 5015POPC   GL110969  19.013  26.849   8.850
 5015POPC   GL210970  18.926  26.858   8.850
 5015POPC   C1A10971  19.086  26.857   8.550
 5015POPC   D2A10972  19.029  26.829   8.250
 5015POPC   C3A10973  19.105  26.853   7.950
 5015POPC   C4A10974  19.048  26.830   7.650
 5015POPC   C1B10975  18.791  26.782   8.550
 5015POPC   C2B10976  18.835  26.854   8.250
 5015POPC   C3B10977  18.800  26.858   7.950
 5015POPC   C4B10978  18.778  26.784   7.650
 5016POPC   NC310979  10.563  29.128   9.450
 5016POPC   PO410980  10.486  29.134   9.150
 5016POPC   GL110981  10.547  29.116   8.850
 5016POPC   GL210982  10.466  29.074   8.850
 5016POPC   C1A10983  10.528  29.096   8.550
 5016POPC   D2A10984  10.519  29.166   8.250
 5016POPC   C3A10985  10.570  29.116   7.950
 5016POPC   C4A10986  10.507  29.156   7.650
 5016POPC   C1B10987  10.317  28.939   8.550
 5016POPC   C2B10988  10.314  29.008   8.250
 5016POPC   C3B10989  10.396  28.941   7.950
 5016POPC   C4B10990  10.346  29.005   7.650
 5017POPC   NC310991  14.375  18.302   9.450
 5017POPC   PO410992  14.438  18.273   9.150
 5017POPC   GL110993  14.424  18.287   8.850
 5017POPC   GL210994  14.305  18.326   8.850
 5017POPC   C1A10995  14.371  18.314   8.550
 5017POPC   D2A10996  14.410  18.302   8.250
 5017POPC   C3A10997  14.447  18.251   7.950
 5017POPC   C4A10998  14.406  18.273   7.650
 5017POPC   C1B10999  14.123  18.388   8.550
 5017POPC   C2B11000  14.157  18.355   8.250
 5017POPC   C3B11001  14.147  18.385   7.950
 5017POPC   C4B11002  14.156  18.355   7.650
 5018POPC   NC311003  44.676  35.353   9.450
 5018POPC   PO411004  44.625  35.379   9.150
 5018POPC   GL111005  44.650  35.317   8.850
 5018POPC   GL211006  44.756  35.292   8.850
 5018POPC   C1A11007  44.629  35.375   8.550
 5018POPC   D2A11008  44.708  35.388   8.250
 5018POPC   C3A11009  44.707  35.362   7.950
 5018POPC   C4A11010  44.632  35.323   7.650
 5018POPC   C1B11011  44.883  35.302   8.550
 5018POPC   C2B11012  44.860  35.342   8.250
 5018POPC   C3B11013  44.947  35.313   7.950
 5018POPC   C4B11014  44.933  35.315   7.650
 5019POPC   NC311015  25.289  16.686   9.450
 5019POPC   PO411016  25.231  16.753   9.150
 5019POPC   GL111017  25.260  16.690   8.850
 5019POPC   GL211018  25.128  16.838   8.850
 5019POPC   C1A11019  25.236  16.743   8.550
 5019POPC   D2A11020  25.304  16.721   8.250
 5019POPC   C3A11021  25.285  16.745   7.950
 5019POPC   C4A11022  25.231  16.750   7.650
 5019POPC   C1B11023  25.001  16.888   8.550
 5019POPC   C2B11024  25.058  16.810   8.250
 5019POPC   C3B11025  25.031  16.864   7.950
 5019POPC   C4B11026  25.072  16.895   7.650
 5020POPC   NC311027  30.736  42.288   9.450
 5020POPC   PO411028  30.723  42.381   9.150
 5020POPC   GL111029  30.737  42.358   8.850
 5020POPC   GL211030  30.693  42.424   8.850
 5020POPC   C1A11031  30.711  42.297   8.550
 5020POPC   D2A11032  30.664  42.294   8.250
 5020POPC   C3A11033  30.723  42.322   7.950
 5020POPC   C4A11034  30.746  42.336   7.650
 5020POPC   C1B11035  30.681  42.606   8.550
 5020POPC   C2B11036  30.614  42.549   8.250
 5020POPC   C3B11037  30.682  42.614   7.950
 5020POPC   C4B11038  30.654  42.547   7.650
 5021POPC   NC311039  35.380  12.899   9.450
 5021POPC   PO411040  35.376  12.864   9.150
 5021POPC   GL111041  35.305  12.847   8.850
 5021POPC   GL211042  35.320  12.932   8.850
 5021POPC   C1A11043  35.345  12.880   8.550
 5021POPC   D2A11044  35.314  12.878   8.250
 5021POPC   C3A11045  35.362  12.817   7.950
 5021POPC   C4A11046  35.343  12.803   7.650
 5021POPC   C1B11047  35.220  13.065   8.550
 5021POPC   C2B11048  35.235  13.018   8.250
 5021POPC   C3B11049  35.243  13.081   7.950
 5021POPC   C4B11050  35.197  13.023   7.650
 5022POPC   NC311051  13.659  18.309   9.450
 5022POPC   PO411052  13.589  18.285   9.150
 5022POPC   GL111053  13.593  18.263   8.850
 5022POPC   GL211054  13.685  18.145   8.850
 5022POPC   C1A11055  13.640  18.277   8.550
 5022POPC   D2A11056  13.623  18.327   8.250
 5022POPC   C3A11057  13.624  18.294   7.950
 5022POPC   C4A11058  13.578  18.310   7.650
 5022POPC   C1B11059  13.745  18.058   8.550
 5022POPC   C2B11060  13.681  18.070   8.250
 5022POPC   C3B11061  13.658  18.008   7.950
 5022POPC   C4B11062  13.745  18.084   7.650
 5023POPC   NC311063  23.712  23.677   9.450
 5023POPC   PO411064  23.754  23.700   9.150
 5023POPC   GL111065  23.718  23.712   8.850
 5023POPC   GL211066  23.567  23.723   8.850
 5023POPC   C1A11067  23.684  23.740   8.550
 5023POPC   D2A11068  23.739  23.703   8.250
 5023POPC   C3A11069  23.703  23.752   7.950
 5023POPC   C4A11070  23.754  23.675   7.650
 5023POPC   C1B11071  23.416  23.709   8.550
 5023POPC   C2B11072  23.427  23.669   8.250
 5023POPC   C3B11073  23.422  23.662   7.950
 5023POPC   C4B11074  23.421  23.719   7.650
 5024POPC   NC311075  11.319  19.822   9.450
 5024POPC   PO411076  11.306  19.821   9.150
 5024POPC   GL111077  11.257  19.825   8.850
 5024POPC   GL211078  11.241  19.687   8.850
 5024POPC   C1A11079  11.316  19.862   8.550
 5024POPC   D2A11080  11.257  19.804   8.250
 5024POPC   C3A11081  11.319  19.854   7.950
 5024POPC   C4A11082  11.344  19.812   7.650
 5024POPC   C1B11083  11.177  19.599   8.550
 5024POPC   C2B11084  11.213  19.614   8.250
 5024POPC   C3B11085  11.141  19.593   7.950
 5024POPC   C4B11086  11.205  19.615   7.650
 5025POPC   NC311087  39.242  30.700   9.450
 5025POPC   PO411088  39.231  30.722   9.150
 5025POPC   GL111089  39.235  30.742   8.850
 5025POPC   GL211090  39.248  30.576   8.850
 5025POPC   C1A11091  39.258  30.713   8.550
 5025POPC   D2A11092  39.227  30.651   8.250
 5025POPC   C3A11093  39.257  30.694   7.950
 5025POPC   C4A11094  39.235  30.696   7.650
 5025POPC   C1B11095  39.314  30.452   8.550
 5025POPC   C2B11096  39.362  30.472   8.250
 5025POPC   C3B11097  39.340  30.513   7.950
 5025POPC   C4B11098  39.364  30.513   7.650
 5026POPC   NC311099  12.110   9.731   9.450
 5026POPC   PO411100  12.042   9.738   9.150
 5026POPC   GL111101  12.118   9.723   8.850
 5026POPC   GL211102  12.014   9.815   8.850
 5026POPC   C1A11103  12.053   9.769   8.550
 5026POPC   D2A11104  12.033   9.749   8.250
 5026POPC   C3A11105  12.099   9.736   7.950
 5026POPC   C4A11106  12.079   9.793   7.650
 5026POPC   C1B11107  11.873   9.893   8.550
 5026POPC   C2B11108  11.956   9.950   8.250
 5026POPC   C3B11109  11.924   9.968   7.950
 5026POPC   C4B11110  11.920   9.947   7.650
 5027POPC   NC311111  21.389  38.502   9.450
 5027POPC   PO411112  21.435  38.496   9.150
 5027POPC   GL111113  21.408  38.405   8.850
 5027POPC   GL211114  21.501  38.500   8.850
 5027POPC   C1A11115  21.434  38.492   8.550
 5027POPC   D2A11116  21.354  38.469   8.250
 5027POPC   C3A11117  21.376  38.493   7.950
 5027POPC   C4A11118  21.427  38.493   7.650
 5027POPC   C1B11119  21.678  38.425   8.550
 5027POPC   C2B11120  21.680  38.454   8.250
 5027POPC   C3B11121  21.666  38.430   7.950
 5027POPC   C4B11122  21.595  38.429   7.650
 5028POPC   NC311123  16.769  41.554   9.450
 5028POPC   PO411124  16.778  41.580   9.150
 5028POPC   GL111125  16.691  41.600   8.850
 5028POPC   GL211126  16.810  41.400   8.850
 5028POPC   C1A11127  16.686  41.570   8.550
 5028POPC   D2A11128  16.682  41.517   8.250
 5028POPC   C3A11129  16.752  41.536   7.950
 5028POPC   C4A11130  16.682  41.520   7.650
 5028POPC   C1B11131  16.849  41.281   8.550
 5028POPC   C2B11132  16.777  41.339   8.250
 5028POPC   C3B11133  16.838  41.370   7.950
 5028POPC   C4B11134  16.831  41.364   7.650
 5029POPC   NC311135   8.196  22.124   9.450
 5029POPC   PO411136   8.163  22.129   9.150
 5029POPC   GL111137   8.223  22.153   8.850
 5029POPC   GL211138   8.102  22.298   8.850
 5029POPC   C1A11139   8.154  22.150   8.550
 5029POPC   D2A11140   8.181  22.132   8.250
 5029POPC   C3A11141   8.198  22.190   7.950
 5029POPC   C4A11142   8.152  22.197   7.650
 5029POPC   C1B11143   8.072  22.435   8.550
 5029POPC   C2B11144   8.076  22.412   8.250
 5029POPC   C3B11145   8.136  22.357   7.950
 5029POPC   C4B11146   8.067  22.416   7.650
 5030POPC   NC311147  35.309   4.276   9.450
 5030POPC   PO411148  35.383   4.318   9.150
 5030POPC   GL111149  35.334   4.325   8.850
 5030POPC   GL211150  35.261   4.341   8.850
 5030POPC   C1A11151  35.377   4.339   8.550
 5030POPC   D2A11152  35.401   4.311   8.250
 5030POPC   C3A11153  35.369   4.298   7.950
 5030POPC   C4A11154  35.323   4.315   7.650
 5030POPC   C1B11155  35.067   4.340   8.550
 5030POPC   C2B11156  35.106   4.292   8.250
 5030POPC   C3B11157  35.109   4.378   7.950
 5030POPC   C4B11158  35.086   4.379   7.650
 5031POPC   NC311159   2.746  13.674   9.450
 5031POPC   PO411160   2.791  13.662   9.150
 5031POPC   GL111161   2.754  13.587   8.850
 5031POPC   GL211162   2.741  13.783   8.850
 5031POPC   C1A11163   2.723  13.657   8.550
 5031POPC   D2A11164   2.765  13.621   8.250
 5031POPC   C3A11165   2.749  13.659   7.950
 5031POPC   C4A11166   2.763  13.676   7.650
 5031POPC   C1B11167   2.830  13.894   8.550
 5031POPC   C2B11168   2.828  13.896   8.250
 5031POPC   C3B11169   2.791  13.845   7.950
 5031POPC   C4B11170   2.760  13.881   7.650
 5032POPC   NC311171  15.198  32.205   9.450
 5032POPC   PO411172  15.213  32.253   9.150
 5032POPC   GL111173  15.165  32.218   8.850
 5032POPC   GL211174  15.174  32.140   8.850
 5032POPC   C1A11175  15.160  32.217   8.550
 5032POPC   D2A11176  15.168  32.295   8.250
 5032POPC   C3A11177  15.145  32.232   7.950
 5032POPC   C4A11178  15.215  32.268   7.650
 5032POPC   C1B11179  15.190  31.988   8.550
 5032POPC   C2B11180  15.197  31.951   8.250
 5032POPC   C3B11181  15.142  31.952   7.950
 5032POPC   C4B11182  15.148  31.993   7.650
 5033POPC   NC311183  13.589  22.146   9.450
 5033POPC   PO411184  13.672  22.179   9.150
 5033POPC   GL111185  13.608  22.174   8.850
 5033POPC   GL211186  13.685  22.290   8.850
 5033POPC   C1A11187  13.611  22.164   8.550
 5033POPC   D2A11188  13.649  22.189   8.250
 5033POPC   C3A11189  13.632  22.149   7.950
 5033POPC   C4A11190  13.621  22.128   7.650
 5033POPC   C1B11191  13.819  22.362   8.550
 5033POPC   C2B11192  13.771  22.378   8.250
 5033POPC   C3B11193  13.757  22.319   7.950
 5033POPC   C4B11194  13.739  22.338   7.650
 5034POPC   NC311195  40.818   5.056   9.450
 5034POPC   PO411196  40.801   5.094   9.150
 5034POPC   GL111197  40.746   5.083   8.850
 5034POPC   GL211198  40.680   5.079   8.850
 5034POPC   C1A11199  40.781   5.127   8.550
 5034POPC   D2A11200  40.816   5.106   8.250
 5034POPC   C3A11201  40.744   5.107   7.950
 5034POPC   C4A11202  40.750   5.102   7.650
 5034POPC   C1B11203  40.502   5.021   8.550
 5034POPC   C2B11204  40.549   5.047   8.250
 5034POPC   C3B11205  40.588   4.998   7.950
 5034POPC   C4B11206  40.509   4.965   7.650
 5035POPC   NC311207  31.492  17.491   9.450
 5035POPC   PO411208  31.518  17.509   9.150
 5035POPC   GL111209  31.430  17.485   8.850
 5035POPC   GL211210  31.613  17.578   8.850
 5035POPC   C1A11211  31.505  17.503   8.550
 5035POPC   D2A11212  31.490  17.543   8.250
 5035POPC   C3A11213  31.467  17.490   7.950
 5035POPC   C4A11214  31.473  17.481   7.650
 5035POPC   C1B11215  31.651  17.615   8.550
 5035POPC   C2B11216  31.697  17.604   8.250
 5035POPC   C3B11217  31.740  17.636   7.950
 5035POPC   C4B11218  31.648  17.582   7.650
 5036POPC   NC311219  15.220  14.380   9.450
 5036POPC   PO411220  15.184  14.380   9.150
 5036POPC   GL111221  15.148  14.435   8.850
 5036POPC   GL211222  15.280  14.314   8.850
 5036POPC   C1A11223  15.154  14.400   8.550
 5036POPC   D2A11224  15.216  14.443   8.250
 5036POPC   C3A11225  15.178  14.360   7.950
 5036POPC   C4A11226  15.213  14.409   7.650
 5036POPC   C1B11227  15.319  14.160   8.550
 5036POPC   C2B11228  15.313  14.230   8.250
 5036POPC   C3B11229  15.295  14.149   7.950
 5036POPC   C4B11230  15.282  14.168   7.650
 5037POPC   NC311231  41.540   7.469   9.450
 5037POPC   PO411232  41.543   7.450   9.150
 5037POPC   GL111233  41.548   7.427   8.850
 5037POPC   GL211234  41.621   7.258   8.850
 5037POPC   C1A11235  41.570   7.396   8.550
 5037POPC   D2A11236  41.513   7.406   8.250
 5037POPC   C3A11237  41.578   7.467   7.950
 5037POPC   C4A11238  41.518   7.385   7.650
 5037POPC   C1B11239  41.625   7.201   8.550
 5037POPC   C2B11240  41.602   7.171   8.250
 5037POPC   C3B11241  41.661   7.132   7.950
 5037POPC   C4B11242  41.614   7.151   7.650
 5038POPC   NC311243   2.748  12.829   9.450
 5038POPC   PO411244   2.795  12.821   9.150
 5038POPC   GL111245   2.750  12.802   8.850
 5038POPC   GL211246   2.781  12.988   8.850
 5038POPC   C1A11247   2.756  12.809   8.550
 5038POPC   D2A11248   2.772  12.832   8.250
 5038POPC   C3A11249   2.747  12.868   7.950
 5038POPC   C4A11250   2.735  12.887   7.650
 5038POPC   C1B11251   2.841  13.076   8.550
 5038POPC   C2B11252   2.778  13.089   8.250
 5038POPC   C3B11253   2.793  13.086   7.950
 5038POPC   C4B11254   2.761  13.058   7.650
 5039POPC   NC311255   2.039  22.962   9.450
 5039POPC   PO411256   2.035  22.968   9.150
 5039POPC   GL111257   2.000  22.924   8.850
 5039POPC   GL211258   2.115  23.044   8.850
 5039POPC   C1A11259   1.996  22.942   8.550
 5039POPC   D2A11260   2.014  22.943   8.250
 5039POPC   C3A11261   2.030  22.946   7.950
 5039POPC   C4A11262   1.946  22.953   7.650
 5039POPC   C1B11263   2.158  23.087   8.550
 5039POPC   C2B11264   2.194  23.160   8.250
 5039POPC   C3B11265   2.199  23.170   7.950
 5039POPC   C4B11266   2.162  23.102   7.650
 5040POPC   NC311267  35.351  16.742   9.450
 5040POPC   PO411268  35.331  16.722   9.150
 5040POPC   GL111269  35.385  16.723   8.850
 5040POPC   GL211270  35.345  16.620   8.850
 5040POPC   C1A11271  35.387  16.748   8.550
 5040POPC   D2A11272  35.334  16.706   8.250
 5040POPC   C3A11273  35.399  16.718   7.950
 5040POPC   C4A11274  35.311  16.765   7.650
 5040POPC   C1B11275  35.263  16.494   8.550
 5040POPC   C2B11276  35.284  16.552   8.250
 5040POPC   C3B11277  35.220  16.522   7.950
 5040POPC   C4B11278  35.251  16.492   7.650
 5041POPC   NC311279  41.563  16.737   9.450
 5041POPC   PO411280  41.574  16.694   9.150
 5041POPC   GL111281  41.603  16.711   8.850
 5041POPC   GL211282  41.634  16.633   8.850
 5041POPC   C1A11283  41.589  16.745   8.550
 5041POPC   D2A11284  41.547  16.684   8.250
 5041POPC   C3A11285  41.583  16.753   7.950
 5041POPC   C4A11286  41.521  16.744   7.650
 5041POPC   C1B11287  41.728  16.560   8.550
 5041POPC   C2B11288  41.758  16.505   8.250
 5041POPC   C3B11289  41.758  16.539   7.950
 5041POPC   C4B11290  41.757  16.576   7.650
 5042POPC   NC311291  20.622  26.827   9.450
 5042POPC   PO411292  20.646  26.842   9.150
 5042POPC   GL111293  20.593  26.771   8.850
 5042POPC   GL211294  20.596  26.695   8.850
 5042POPC   C1A11295  20.584  26.778   8.550
 5042POPC   D2A11296  20.631  26.842   8.250
 5042POPC   C3A11297  20.659  26.775   7.950
 5042POPC   C4A11298  20.623  26.842   7.650
 5042POPC   C1B11299  20.473  26.613   8.550
 5042POPC   C2B11300  20.537  26.548   8.250
 5042POPC   C3B11301  20.515  26.580   7.950
 5042POPC   C4B11302  20.501  26.559   7.650
 5043POPC   NC311303  43.115  26.049   9.450
 5043POPC   PO411304  43.156  26.043   9.150
 5043POPC   GL111305  43.129  26.055   8.850
 5043POPC   GL211306  43.218  26.047   8.850
 5043POPC   C1A11307  43.123  26.056   8.550
 5043POPC   D2A11308  43.071  26.028   8.250
 5043POPC   C3A11309  43.121  26.007   7.950
 5043POPC   C4A11310  43.145  25.995   7.650
 5043POPC   C1B11311  43.403  25.995   8.550
 5043POPC   C2B11312  43.388  26.052   8.250
 5043POPC   C3B11313  43.325  26.002   7.950
 5043POPC   C4B11314  43.353  26.027   7.650
 5044POPC   NC311315   0.447   5.051   9.450
 5044POPC   PO411316   0.466   5.131   9.150
 5044POPC   GL111317   0.442   5.100   8.850
 5044POPC   GL211318   0.315   5.210   8.850
 5044POPC   C1A11319   0.406   5.071   8.550
 5044POPC   D2A11320   0.436   5.082   8.250
 5044POPC   C3A11321   0.403   5.070   7.950
 5044POPC   C4A11322   0.407   5.140   7.650
 5044POPC   C1B11323   0.281   5.265   8.550
 5044POPC   C2B11324   0.272   5.200   8.250
 5044POPC   C3B11325   0.273   5.247   7.950
 5044POPC   C4B11326   0.235   5.228   7.650
 5045POPC   NC311327  30.691  35.312   9.450
 5045POPC   PO411328  30.716  35.314   9.150
 5045POPC   GL111329  30.725  35.338   8.850
 5045POPC   GL211330  30.858  35.365   8.850
 5045POPC   C1A11331  30.741  35.388   8.550
 5045POPC   D2A11332  30.684  35.321   8.250
 5045POPC   C3A11333  30.656  35.399   7.950
 5045POPC   C4A11334  30.683  35.323   7.650
 5045POPC   C1B11335  30.894  35.308   8.550
 5045POPC   C2B11336  30.906  35.307   8.250
 5045POPC   C3B11337  30.978  35.282   7.950
 5045POPC   C4B11338  30.971  35.332   7.650
 5046POPC   NC311339  32.270  22.938   9.450
 5046POPC   PO411340  32.250  22.940   9.150
 5046POPC   GL111341  32.216  22.910   8.850
 5046POPC   GL211342  32.184  22.821   8.850
 5046POPC   C1A11343  32.265  22.911   8.550
 5046POPC   D2A11344  32.285  22.915   8.250
 5046POPC   C3A11345  32.269  22.917   7.950
 5046POPC   C4A11346  32.206  22.929   7.650
 5046POPC   C1B11347  32.074  22.725   8.550
 5046POPC   C2B11348  32.067  22.778   8.250
 5046POPC   C3B11349  32.060  22.707   7.950
 5046POPC   C4B11350  32.054  22.767   7.650
 5047POPC   NC311351  13.643  26.841   9.450
 5047POPC   PO411352  13.587  26.867   9.150
 5047POPC   GL111353  13.619  26.857   8.850
 5047POPC   GL211354  13.523  26.742   8.850
 5047POPC   C1A11355  13.629  26.785   8.550
 5047POPC   D2A11356  13.581  26.802   8.250
 5047POPC   C3A11357  13.578  26.771   7.950
 5047POPC   C4A11358  13.640  26.865   7.650
 5047POPC   C1B11359  13.463  26.598   8.550
 5047POPC   C2B11360  13.421  26.645   8.250
 5047POPC   C3B11361  13.437  26.608   7.950
 5047POPC   C4B11362  13.448  26.608   7.650
 5048POPC   NC311363   8.958   7.381   9.450
 5048POPC   PO411364   9.002   7.428   9.150
 5048POPC   GL111365   8.966   7.419   8.850
 5048POPC   GL211366   8.852   7.315   8.850
 5048POPC   C1A11367   8.949   7.393   8.550
 5048POPC   D2A11368   8.960   7.453   8.250
 5048POPC   C3A11369   9.018   7.402   7.950
 5048POPC   C4A11370   8.968   7.448   7.650
 5048POPC   C1B11371   8.809   7.300   8.550
 5048POPC   C2B11372   8.820   7.283   8.250
 5048POPC   C3B11373   8.761   7.233   7.950
 5048POPC   C4B11374   8.746   7.292   7.650
 5049POPC   NC311375  30.700  15.175   9.450
 5049POPC   PO411376  30.682  15.191   9.150
 5049POPC   GL111377  30.731  15.222   8.850
 5049POPC   GL211378  30.710  15.297   8.850
 5049POPC   C1A11379  30.673  15.155   8.550
 5049POPC   D2A11380  30.694  15.180   8.250
 5049POPC   C3A11381  30.660  15.180   7.950
 5049POPC   C4A11382  30.727  15.205   7.650
 5049POPC   C1B11383  30.691  15.463   8.550
 5049POPC   C2B11384  30.681  15.393   8.250
 5049POPC   C3B11385  30.672  15.375   7.950
 5049POPC   C4B11386  30.694  15.404   7.650
 5050POPC   NC311387  41.587  30.652   9.450
 5050POPC   PO411388  41.522  30.707   9.150
 5050POPC   GL111389  41.560  30.673   8.850
 5050POPC   GL211390  41.706  30.622   8.850
 5050POPC   C1A11391  41.540  30.725   8.550
 5050POPC   D2A11392  41.586  30.668   8.250
 5050POPC   C3A11393  41.534  30.699   7.950
 5050POPC   C4A11394  41.567  30.724   7.650
 5050POPC   C1B11395  41.795  30.651   8.550
 5050POPC   C2B11396  41.787  30.601   8.250
 5050POPC   C3B11397  41.833  30.623   7.950
 5050POPC   C4B11398  41.816  30.625   7.650
 5051POPC   NC311399  40.734   8.148   9.450
 5051POPC   PO411400  40.734   8.196   9.150
 5051POPC   GL111401  40.764   8.159   8.850
 5051POPC   GL211402  40.658   8.281   8.850
 5051POPC   C1A11403  40.817   8.230   8.550
 5051POPC   D2A11404  40.778   8.228   8.250
 5051POPC   C3A11405  40.815   8.175   7.950
 5051POPC   C4A11406  40.790   8.194   7.650
 5051POPC   C1B11407  40.617   8.343   8.550
 5051POPC   C2B11408  40.577   8.316   8.250
 5051POPC   C3B11409  40.559   8.309   7.950
 5051POPC   C4B11410  40.590   8.312   7.650
 5052POPC   NC311411  26.070   7.388   9.450
 5052POPC   PO411412  26.080   7.468   9.150
 5052POPC   GL111413  26.029   7.449   8.850
 5052POPC   GL211414  25.980   7.349   8.850
 5052POPC   C1A11415  26.077   7.435   8.550
 5052POPC   D2A11416  26.085   7.406   8.250
 5052POPC   C3A11417  26.059   7.432   7.950
 5052POPC   C4A11418  26.075   7.455   7.650
 5052POPC   C1B11419  25.892   7.258   8.550
 5052POPC   C2B11420  25.864   7.226   8.250
 5052POPC   C3B11421  25.858   7.197   7.950
 5052POPC   C4B11422  25.841   7.214   7.650
 5053POPC   NC311423  28.365   1.216   9.450
 5053POPC   PO411424  28.379   1.240   9.150
 5053POPC   GL111425  28.384   1.250   8.850
 5053POPC   GL211426  28.217   1.253   8.850
 5053POPC   C1A11427  28.408   1.231   8.550
 5053POPC   D2A11428  28.330   1.229   8.250
 5053POPC   C3A11429  28.326   1.172   7.950
 5053POPC   C4A11430  28.324   1.244   7.650
 5053POPC   C1B11431  28.129   1.357   8.550
 5053POPC   C2B11432  28.103   1.305   8.250
 5053POPC   C3B11433  28.170   1.360   7.950
 5053POPC   C4B11434  28.162   1.278   7.650
 5054POPC   NC311435  13.655  36.935   9.450
 5054POPC   PO411436  13.628  36.863   9.150
 5054POPC   GL111437  13.633  36.919   8.850
 5054POPC   GL211438  13.745  37.018   8.850
 5054POPC   C1A11439  13.634  36.879   8.550
 5054POPC   D2A11440  13.593  36.873   8.250
 5054POPC   C3A11441  13.583  36.889   7.950
 5054POPC   C4A11442  13.586  36.870   7.650
 5054POPC   C1B11443  13.841  37.020   8.550
 5054POPC   C2B11444  13.832  37.036   8.250
 5054POPC   C3B11445  13.800  37.021   7.950
 5054POPC   C4B11446  13.886  37.041   7.650
 5055POPC   NC311447  15.130   5.827   9.450
 5055POPC   PO411448  15.202   5.907   9.150
 5055POPC   GL111449  15.179   5.883   8.850
 5055POPC   GL211450  15.331   5.858   8.850
 5055POPC   C1A11451  15.197   5.832   8.550
 5055POPC   D2A11452  15.143   5.858   8.250
 5055POPC   C3A11453  15.203   5.821   7.950
 5055POPC   C4A11454  15.162   5.858   7.650
 5055POPC   C1B11455  15.397   5.846   8.550
 5055POPC   C2B11456  15.430   5.797   8.250
 5055POPC   C3B11457  15.377   5.763   7.950
 5055POPC   C4B11458  15.415   5.761   7.650
 5056POPC   NC311459  36.869  26.016   9.450
 5056POPC   PO411460  36.873  26.076   9.150
 5056POPC   GL111461  36.872  26.004   8.850
 5056POPC   GL211462  36.807  26.149   8.850
 5056POPC   C1A11463  36.916  26.077   8.550
 5056POPC   D2A11464  36.943  26.042   8.250
 5056POPC   C3A11465  36.867  26.020   7.950
 5056POPC   C4A11466  36.860  26.016   7.650
 5056POPC   C1B11467  36.765  26.255   8.550
 5056POPC   C2B11468  36.777  26.251   8.250
 5056POPC   C3B11469  36.776  26.223   7.950
 5056POPC   C4B11470  36.768  26.214   7.650
 5057POPC   NC311471  18.236  24.476   9.450
 5057POPC   PO411472  18.269  24.529   9.150
 5057POPC   GL111473  18.308  24.454   8.850
 5057POPC   GL211474  18.255  24.625   8.850
 5057POPC   C1A11475  18.258  24.475   8.550
 5057POPC   D2A11476  18.278  24.502   8.250
 5057POPC   C3A11477  18.309  24.518   7.950
 5057POPC   C4A11478  18.234  24.520   7.650
 5057POPC   C1B11479  18.308  24.703   8.550
 5057POPC   C2B11480  18.316  24.759   8.250
 5057POPC   C3B11481  18.232  24.748   7.950
 5057POPC   C4B11482  18.237  24.753   7.650
 5058POPC   NC311483  25.270  38.440   9.450
 5058POPC   PO411484  25.306  38.430   9.150
 5058POPC   GL111485  25.252  38.481   8.850
 5058POPC   GL211486  25.229  38.396   8.850
 5058POPC   C1A11487  25.216  38.446   8.550
 5058POPC   D2A11488  25.238  38.456   8.250
 5058POPC   C3A11489  25.304  38.468   7.950
 5058POPC   C4A11490  25.236  38.463   7.650
 5058POPC   C1B11491  25.112  38.268   8.550
 5058POPC   C2B11492  25.157  38.262   8.250
 5058POPC   C3B11493  25.111  38.263   7.950
 5058POPC   C4B11494  25.136  38.269   7.650
 5059POPC   NC311495  38.489  36.883   9.450
 5059POPC   PO411496  38.450  36.942   9.150
 5059POPC   GL111497  38.485  36.858   8.850
 5059POPC   GL211498  38.580  36.924   8.850
 5059POPC   C1A11499  38.446  36.926   8.550
 5059POPC   D2A11500  38.412  36.920   8.250
 5059POPC   C3A11501  38.476  36.926   7.950
 5059POPC   C4A11502  38.480  36.910   7.650
 5059POPC   C1B11503  38.751  36.899   8.550
 5059POPC   C2B11504  38.700  36.883   8.250
 5059POPC   C3B11505  38.738  36.815   7.950
 5059POPC   C4B11506  38.719  36.894   7.650
 5060POPC   NC311507  35.321  19.873   9.450
 5060POPC   PO411508  35.367  19.871   9.150
 5060POPC   GL111509  35.324  19.807   8.850
 5060POPC   GL211510  35.457  19.712   8.850
 5060POPC   C1A11511  35.332  19.791   8.550
 5060POPC   D2A11512  35.334  19.821   8.250
 5060POPC   C3A11513  35.318  19.837   7.950
 5060POPC   C4A11514  35.373  19.848   7.650
 5060POPC   C1B11515  35.547  19.668   8.550
 5060POPC   C2B11516  35.495  19.637   8.250
 5060POPC   C3B11517  35.547  19.612   7.950
 5060POPC   C4B11518  35.554  19.678   7.650
 5061POPC   NC311519   8.971  10.535   9.450
 5061POPC   PO411520   8.953  10.514   9.150
 5061POPC   GL111521   9.012  10.534   8.850
 5061POPC   GL211522   9.048  10.385   8.850
 5061POPC   C1A11523   8.985  10.494   8.550
 5061POPC   D2A11524   8.949  10.561   8.250
 5061POPC   C3A11525   8.980  10.514   7.950
 5061POPC   C4A11526   8.950  10.571   7.650
 5061POPC   C1B11527   9.106  10.365   8.550
 5061POPC   C2B11528   9.163  10.345   8.250
 5061POPC   C3B11529   9.159  10.300   7.950
 5061POPC   C4B11530   9.160  10.299   7.650
 5062POPC   NC311531  33.059   0.421   9.450
 5062POPC   PO411532  33.062   0.436   9.150
 5062POPC   GL111533  33.056   0.474   8.850
 5062POPC   GL211534  33.089   0.329   8.850
 5062POPC   C1A11535  33.069   0.420   8.550
 5062POPC   D2A11536  33.003   0.463   8.250
 5062POPC   C3A11537  33.063   0.469   7.950
 5062POPC   C4A11538  32.999   0.470   7.650
 5062POPC   C1B11539  33.269   0.331   8.550
 5062POPC   C2B11540  33.215   0.326   8.250
 5062POPC   C3B11541  33.227   0.319   7.950
 5062POPC   C4B11542  33.271   0.298   7.650
 5063POPC   NC311543  19.025  43.865   9.450
 5063POPC   PO411544  19.105  43.846   9.150
 5063POPC   GL111545  19.034  43.893   8.850
 5063POPC   GL211546  19.035  43.965   8.850
 5063POPC   C1A11547  19.083  43.859   8.550
 5063POPC   D2A11548  19.052  43.890   8.250
 5063POPC   C3A11549  19.086  43.891   7.950
 5063POPC   C4A11550  19.100  43.888   7.650
 5063POPC   C1B11551  18.894  44.067   8.550
 5063POPC   C2B11552  18.933  44.089   8.250
 5063POPC   C3B11553  18.987  44.082   7.950
 5063POPC   C4B11554  18.918  44.139   7.650
 5064POPC   NC311555  16.733  23.707   9.450
 5064POPC   PO411556  16.746  23.754   9.150
 5064POPC   GL111557  16.712  23.745   8.850
 5064POPC   GL211558  16.819  23.774   8.850
 5064POPC   C1A11559  16.761  23.696   8.550
 5064POPC   D2A11560  16.682  23.723   8.250
 5064POPC   C3A11561  16.714  23.690   7.950
 5064POPC   C4A11562  16.701  23.719   7.650
 5064POPC   C1B11563  16.848  23.962   8.550
 5064POPC   C2B11564  16.921  23.903   8.250
 5064POPC   C3B11565  16.844  23.927   7.950
 5064POPC   C4B11566  16.831  23.908   7.650
 5065POPC   NC311567  16.687  18.256   9.450
 5065POPC   PO411568  16.775  18.301   9.150
 5065POPC   GL111569  16.746  18.254   8.850
 5065POPC   GL211570  16.655  18.335   8.850
 5065POPC   C1A11571  16.748  18.290   8.550
 5065POPC   D2A11572  16.765  18.296   8.250
 5065POPC   C3A11573  16.776  18.271   7.950
 5065POPC   C4A11574  16.728  18.260   7.650
 5065POPC   C1B11575  16.578  18.473   8.550
 5065POPC   C2B11576  16.549  18.481   8.250
 5065POPC   C3B11577  16.529  18.445   7.950
 5065POPC   C4B11578  16.571  18.425   7.650
 5066POPC   NC311579  23.676  28.325   9.450
 5066POPC   PO411580  23.751  28.407   9.150
 5066POPC   GL111581  23.746  28.366   8.850
 5066POPC   GL211582  23.640  28.482   8.850
 5066POPC   C1A11583  23.669  28.378   8.550
 5066POPC   D2A11584  23.754  28.364   8.250
 5066POPC   C3A11585  23.705  28.335   7.950
 5066POPC   C4A11586  23.686  28.410   7.650
 5066POPC   C1B11587  23.634  28.569   8.550
 5066POPC   C2B11588  23.578  28.551   8.250
 5066POPC   C3B11589  23.619  28.550   7.950
 5066POPC   C4B11590  23.621  28.611   7.650
 5067POPC   NC311591  41.560  29.176   9.450
 5067POPC   PO411592  41.576  29.117   9.150
 5067POPC   GL111593  41.580  29.107   8.850
 5067POPC   GL211594  41.498  29.077   8.850
 5067POPC   C1A11595  41.545  29.148   8.550
 5067POPC   D2A11596  41.572  29.170   8.250
 5067POPC   C3A11597  41.521  29.175   7.950
 5067POPC   C4A11598  41.513  29.125   7.650
 5067POPC   C1B11599  41.490  28.864   8.550
 5067POPC   C2B11600  41.467  28.911   8.250
 5067POPC   C3B11601  41.487  28.948   7.950
 5067POPC   C4B11602  41.445  28.932   7.650
 5068POPC   NC311603  39.995  31.516   9.450
 5068POPC   PO411604  39.960  31.508   9.150
 5068POPC   GL111605  40.023  31.465   8.850
 5068POPC   GL211606  40.084  31.491   8.850
 5068POPC   C1A11607  40.016  31.435   8.550
 5068POPC   D2A11608  39.976  31.489   8.250
 5068POPC   C3A11609  39.987  31.480   7.950
 5068POPC   C4A11610  40.029  31.432   7.650
 5068POPC   C1B11611  40.248  31.569   8.550
 5068POPC   C2B11612  40.246  31.526   8.250
 5068POPC   C3B11613  40.207  31.565   7.950
 5068POPC   C4B11614  40.286  31.549   7.650
 5069POPC   NC311615  31.447  30.698   9.450
 5069POPC   PO411616  31.484  30.654   9.150
 5069POPC   GL111617  31.428  30.743   8.850
 5069POPC   GL211618  31.557  30.565   8.850
 5069POPC   C1A11619  31.471  30.722   8.550
 5069POPC   D2A11620  31.519  30.680   8.250
 5069POPC   C3A11621  31.468  30.680   7.950
 5069POPC   C4A11622  31.446  30.713   7.650
 5069POPC   C1B11623  31.588  30.437   8.550
 5069POPC   C2B11624  31.539  30.449   8.250
 5069POPC   C3B11625  31.542  30.445   7.950
 5069POPC   C4B11626  31.568  30.440   7.650
 5070POPC   NC311627  19.843  32.246   9.450
 5070POPC   PO411628  19.874  32.234   9.150
 5070POPC   GL111629  19.845  32.267   8.850
 5070POPC   GL211630  19.694  32.259   8.850
 5070POPC   C1A11631  19.817  32.280   8.550
 5070POPC   D2A11632  19.880  32.221   8.250
 5070POPC   C3A11633  19.859  32.263   7.950
 5070POPC   C4A11634  19.812  32.250   7.650
 5070POPC   C1B11635  19.600  32.221   8.550
 5070POPC   C2B11636  19.550  32.215   8.250
 5070POPC   C3B11637  19.623  32.239   7.950
 5070POPC   C4B11638  19.538  32.232   7.650
 5071POPC   NC311639  17.521  38.482   9.450
 5071POPC   PO411640  17.459  38.493   9.150
 5071POPC   GL111641  17.521  38.427   8.850
 5071POPC   GL211642  17.458  38.306   8.850
 5071POPC   C1A11643  17.553  38.461   8.550
 5071POPC   D2A11644  17.516  38.461   8.250
 5071POPC   C3A11645  17.495  38.448   7.950
 5071POPC   C4A11646  17.477  38.477   7.650
 5071POPC   C1B11647  17.472  38.197   8.550
 5071POPC   C2B11648  17.471  38.182   8.250
 5071POPC   C3B11649  17.437  38.163   7.950
 5071POPC   C4B11650  17.440  38.172   7.650
 5072POPC   NC311651  41.566  15.214   9.450
 5072POPC   PO411652  41.553  15.195   9.150
 5072POPC   GL111653  41.589  15.176   8.850
 5072POPC   GL211654  41.437  15.298   8.850
 5072POPC   C1A11655  41.588  15.183   8.550
 5072POPC   D2A11656  41.607  15.150   8.250
 5072POPC   C3A11657  41.511  15.180   7.950
 5072POPC   C4A11658  41.511  15.207   7.650
 5072POPC   C1B11659  41.415  15.317   8.550
 5072POPC   C2B11660  41.361  15.381   8.250
 5072POPC   C3B11661  41.351  15.376   7.950
 5072POPC   C4B11662  41.401  15.341   7.650
 5073POPC   NC311663  15.936  20.580   9.450
 5073POPC   PO411664  15.917  20.561   9.150
 5073POPC   GL111665  15.990  20.659   8.850
 5073POPC   GL211666  15.810  20.639   8.850
 5073POPC   C1A11667  15.922  20.635   8.550
 5073POPC   D2A11668  16.003  20.639   8.250
 5073POPC   C3A11669  15.968  20.639   7.950
 5073POPC   C4A11670  15.934  20.626   7.650
 5073POPC   C1B11671  15.688  20.649   8.550
 5073POPC   C2B11672  15.707  20.609   8.250
 5073POPC   C3B11673  15.691  20.642   7.950
 5073POPC   C4B11674  15.698  20.614   7.650
 5074POPC   NC311675  20.637  16.742   9.450
 5074POPC   PO411676  20.608  16.775   9.150
 5074POPC   GL111677  20.598  16.749   8.850
 5074POPC   GL211678  20.699  16.689   8.850
 5074POPC   C1A11679  20.637  16.701   8.550
 5074POPC   D2A11680  20.613  16.731   8.250
 5074POPC   C3A11681  20.609  16.702   7.950
 5074POPC   C4A11682  20.576  16.690   7.650
 5074POPC   C1B11683  20.853  16.710   8.550
 5074POPC   C2B11684  20.819  16.719   8.250
 5074POPC   C3B11685  20.831  16.728   7.950
 5074POPC   C4B11686  20.819  16.762   7.650
 5075POPC   NC311687  28.347  12.107   9.450
 5075POPC   PO411688  28.358  12.036   9.150
 5075POPC   GL111689  28.397  12.033   8.850
 5075POPC   GL211690  28.258  12.159   8.850
 5075POPC   C1A11691  28.362  12.051   8.550
 5075POPC   D2A11692  28.385  12.049   8.250
 5075POPC   C3A11693  28.361  12.060   7.950
 5075POPC   C4A11694  28.331  12.091   7.650
 5075POPC   C1B11695  28.199  12.223   8.550
 5075POPC   C2B11696  28.181  12.244   8.250
 5075POPC   C3B11697  28.254  12.235   7.950
 5075POPC   C4B11698  28.210  12.288   7.650
 5076POPC   NC311699  34.550  31.479   9.450
 5076POPC   PO411700  34.595  31.510   9.150
 5076POPC   GL111701  34.601  31.434   8.850
 5076POPC   GL211702  34.556  31.368   8.850
 5076POPC   C1A11703  34.590  31.506   8.550
 5076POPC   D2A11704  34.618  31.446   8.250
 5076POPC   C3A11705  34.588  31.466   7.950
 5076POPC   C4A11706  34.587  31.465   7.650
 5076POPC   C1B11707  34.611  31.271   8.550
 5076POPC   C2B11708  34.666  31.224   8.250
 5076POPC   C3B11709  34.619  31.215   7.950
 5076POPC   C4B11710  34.602  31.195   7.650
 5077POPC   NC311711   8.963  35.347   9.450
 5077POPC   PO411712   9.011  35.385   9.150
 5077POPC   GL111713   9.018  35.313   8.850
 5077POPC   GL211714   8.845  35.351   8.850
 5077POPC   C1A11715   8.930  35.309   8.550
 5077POPC   D2A11716   8.928  35.381   8.250
 5077POPC   C3A11717   8.964  35.400   7.950
 5077POPC   C4A11718   8.951  35.313   7.650
 5077POPC   C1B11719   8.684  35.343   8.550
 5077POPC   C2B11720   8.752  35.325   8.250
 5077POPC   C3B11721   8.688  35.373   7.950
 5077POPC   C4B11722   8.755  35.337   7.650
 5078POPC   NC311723  38.409  41.522   9.450
 5078POPC   PO411724  38.495  41.545   9.150
 5078POPC   GL111725  38.453  41.510   8.850
 5078POPC   GL211726  38.600  41.529   8.850
 5078POPC   C1A11727  38.408  41.518   8.550
 5078POPC   D2A11728  38.429  41.600   8.250
 5078POPC   C3A11729  38.427  41.524   7.950
 5078POPC   C4A11730  38.501  41.587   7.650
 5078POPC   C1B11731  38.651  41.398   8.550
 5078POPC   C2B11732  38.697  41.431   8.250
 5078POPC   C3B11733  38.717  41.440   7.950
 5078POPC   C4B11734  38.682  41.401   7.650
 5079POPC   NC311735  37.685  12.034   9.450
 5079POPC   PO411736  37.694  12.107   9.150
 5079POPC   GL111737  37.643  12.078   8.850
 5079POPC   GL211738  37.739  12.159   8.850
 5079POPC   C1A11739  37.660  12.059   8.550
 5079POPC   D2A11740  37.707  12.115   8.250
 5079POPC   C3A11741  37.676  12.064   7.950
 5079POPC   C4A11742  37.714  12.083   7.650
 5079POPC   C1B11743  37.893  12.271   8.550
 5079POPC   C2B11744  37.861  12.200   8.250
 5079POPC   C3B11745  37.846  12.255   7.950
 5079POPC   C4B11746  37.830  12.204   7.650
 5080POPC   NC311747  43.930   6.618   9.450
 5080POPC   PO411748  43.864   6.684   9.150
 5080POPC   GL111749  43.876   6.639   8.850
 5080POPC   GL211750  43.764   6.529   8.850
 5080POPC   C1A11751  43.844   6.688   8.550
 5080POPC   D2A11752  43.916   6.660   8.250
 5080POPC   C3A11753  43.882   6.603   7.950
 5080POPC   C4A11754  43.850   6.651   7.650
 5080POPC   C1B11755  43.693   6.469   8.550
 5080POPC   C2B11756  43.726   6.428   8.250
 5080POPC   C3B11757  43.718   6.474   7.950
 5080POPC   C4B11758  43.714   6.476   7.650
 5081POPC   NC311759  43.909  12.089   9.450
 5081POPC   PO411760  43.871  12.087   9.150
 5081POPC   GL111761  43.843  12.052   8.850
 5081POPC   GL211762  43.839  12.182   8.850
 5081POPC   C1A11763  43.875  12.078   8.550
 5081POPC   D2A11764  43.878  12.121   8.250
 5081POPC   C3A11765  43.837  12.107   7.950
 5081POPC   C4A11766  43.925  12.050   7.650
 5081POPC   C1B11767  43.693  12.229   8.550
 5081POPC   C2B11768  43.676  12.232   8.250
 5081POPC   C3B11769  43.774  12.315   7.950
 5081POPC   C4B11770  43.700  12.251   7.650
 5082POPC   NC311771  36.932  37.641   9.450
 5082POPC   PO411772  36.951  37.660   9.150
 5082POPC   GL111773  36.953  37.659   8.850
 5082POPC   GL211774  36.898  37.852   8.850
 5082POPC   C1A11775  36.920  37.727   8.550
 5082POPC   D2A11776  36.948  37.700   8.250
 5082POPC   C3A11777  36.901  37.668   7.950
 5082POPC   C4A11778  36.882  37.652   7.650
 5082POPC   C1B11779  36.888  37.922   8.550
 5082POPC   C2B11780  36.849  37.894   8.250
 5082POPC   C3B11781  36.930  37.958   7.950
 5082POPC   C4B11782  36.913  37.900   7.650
 5083POPC   NC311783   0.455  39.246   9.450
 5083POPC   PO411784   0.392  39.211   9.150
 5083POPC   GL111785   0.442  39.280   8.850
 5083POPC   GL211786   0.466  39.095   8.850
 5083POPC   C1A11787   0.487  39.224   8.550
 5083POPC   D2A11788   0.408  39.200   8.250
 5083POPC   C3A11789   0.466  39.251   7.950
 5083POPC   C4A11790   0.430  39.229   7.650
 5083POPC   C1B11791   0.504  38.960   8.550
 5083POPC   C2B11792   0.509  38.948   8.250
 5083POPC   C3B11793   0.496  39.031   7.950
 5083POPC   C4B11794   0.505  39.026   7.650
 5084POPC   NC311795  24.535  29.152   9.450
 5084POPC   PO411796  24.539  29.100   9.150
 5084POPC   GL111797  24.442  29.130   8.850
 5084POPC   GL211798  24.422  29.251   8.850
 5084POPC   C1A11799  24.523  29.162   8.550
 5084POPC   D2A11800  24.451  29.184   8.250
 5084POPC   C3A11801  24.463  29.179   7.950
 5084POPC   C4A11802  24.514  29.146   7.650
 5084POPC   C1B11803  24.389  29.343   8.550
 5084POPC   C2B11804  24.430  29.369   8.250
 5084POPC   C3B11805  24.437  29.361   7.950
 5084POPC   C4B11806  24.402  29.337   7.650
 5085POPC   NC311807  29.106  27.589   9.450
 5085POPC   PO411808  29.119  27.551   9.150
 5085POPC   GL111809  29.106  27.556   8.850
 5085POPC   GL211810  29.122  27.461   8.850
 5085POPC   C1A11811  29.190  27.624   8.550
 5085POPC   D2A11812  29.118  27.633   8.250
 5085POPC   C3A11813  29.099  27.639   7.950
 5085POPC   C4A11814  29.195  27.603   7.650
 5085POPC   C1B11815  28.975  27.410   8.550
 5085POPC   C2B11816  29.059  27.379   8.250
 5085POPC   C3B11817  28.966  27.334   7.950
 5085POPC   C4B11818  29.040  27.379   7.650
 5086POPC   NC311819  22.131  41.565   9.450
 5086POPC   PO411820  22.146  41.566   9.150
 5086POPC   GL111821  22.195  41.586   8.850
 5086POPC   GL211822  22.071  41.663   8.850
 5086POPC   C1A11823  22.160  41.577   8.550
 5086POPC   D2A11824  22.150  41.520   8.250
 5086POPC   C3A11825  22.178  41.537   7.950
 5086POPC   C4A11826  22.142  41.583   7.650
 5086POPC   C1B11827  22.080  41.778   8.550
 5086POPC   C2B11828  22.083  41.832   8.250
 5086POPC   C3B11829  22.073  41.801   7.950
 5086POPC   C4B11830  22.032  41.819   7.650
 5087POPC   NC311831  43.885  13.644   9.450
 5087POPC   PO411832  43.870  13.616   9.150
 5087POPC   GL111833  43.867  13.640   8.850
 5087POPC   GL211834  43.953  13.503   8.850
 5087POPC   C1A11835  43.911  13.627   8.550
 5087POPC   D2A11836  43.884  13.673   8.250
 5087POPC   C3A11837  43.842  13.672   7.950
 5087POPC   C4A11838  43.900  13.581   7.650
 5087POPC   C1B11839  44.119  13.466   8.550
 5087POPC   C2B11840  44.044  13.522   8.250
 5087POPC   C3B11841  44.121  13.497   7.950
 5087POPC   C4B11842  44.078  13.506   7.650
 5088POPC   NC311843  40.759  37.687   9.450
 5088POPC   PO411844  40.792  37.696   9.150
 5088POPC   GL111845  40.823  37.643   8.850
 5088POPC   GL211846  40.848  37.551   8.850
 5088POPC   C1A11847  40.782  37.635   8.550
 5088POPC   D2A11848  40.803  37.702   8.250
 5088POPC   C3A11849  40.768  37.647   7.950
 5088POPC   C4A11850  40.792  37.648   7.650
 5088POPC   C1B11851  40.875  37.494   8.550
 5088POPC   C2B11852  40.831  37.396   8.250
 5088POPC   C3B11853  40.893  37.401   7.950
 5088POPC   C4B11854  40.868  37.483   7.650
 5089POPC   NC311855  12.032  22.908   9.450
 5089POPC   PO411856  12.074  22.926   9.150
 5089POPC   GL111857  12.072  22.973   8.850
 5089POPC   GL211858  12.196  23.020   8.850
 5089POPC   C1A11859  12.092  22.979   8.550
 5089POPC   D2A11860  12.044  22.943   8.250
 5089POPC   C3A11861  12.079  22.937   7.950
 5089POPC   C4A11862  12.091  22.932   7.650
 5089POPC   C1B11863  12.276  23.101   8.550
 5089POPC   C2B11864  12.307  23.049   8.250
 5089POPC   C3B11865  12.289  23.133   7.950
 5089POPC   C4B11866  12.255  23.047   7.650
 5090POPC   NC311867  20.613  41.569   9.450
 5090POPC   PO411868  20.609  41.602   9.150
 5090POPC   GL111869  20.560  41.599   8.850
 5090POPC   GL211870  20.615  41.409   8.850
 5090POPC   C1A11871  20.631  41.523   8.550
 5090POPC   D2A11872  20.645  41.533   8.250
 5090POPC   C3A11873  20.573  41.585   7.950
 5090POPC   C4A11874  20.640  41.528   7.650
 5090POPC   C1B11875  20.703  41.283   8.550
 5090POPC   C2B11876  20.669  41.353   8.250
 5090POPC   C3B11877  20.720  41.290   7.950
 5090POPC   C4B11878  20.696  41.313   7.650
 5091POPC   NC311879  37.675  18.234   9.450
 5091POPC   PO411880  37.639  18.327   9.150
 5091POPC   GL111881  37.630  18.290   8.850
 5091POPC   GL211882  37.780  18.300   8.850
 5091POPC   C1A11883  37.720  18.249   8.550
 5091POPC   D2A11884  37.658  18.291   8.250
 5091POPC   C3A11885  37.632  18.332   7.950
 5091POPC   C4A11886  37.662  18.244   7.650
 5091POPC   C1B11887  37.897  18.295   8.550
 5091POPC   C2B11888  37.943  18.237   8.250
 5091POPC   C3B11889  37.909  18.281   7.950
 5091POPC   C4B11890  37.968  18.206   7.650
 5092POPC   NC311891  21.355  18.330   9.450
 5092POPC   PO411892  21.416  18.277   9.150
 5092POPC   GL111893  21.354  18.254   8.850
 5092POPC   GL211894  21.399  18.195   8.850
 5092POPC   C1A11895  21.386  18.274   8.550
 5092POPC   D2A11896  21.375  18.306   8.250
 5092POPC   C3A11897  21.418  18.241   7.950
 5092POPC   C4A11898  21.404  18.332   7.650
 5092POPC   C1B11899  21.437  18.061   8.550
 5092POPC   C2B11900  21.359  18.073   8.250
 5092POPC   C3B11901  21.402  18.003   7.950
 5092POPC   C4B11902  21.423  18.080   7.650
 5093POPC   NC311903  27.640  32.294   9.450
 5093POPC   PO411904  27.600  32.237   9.150
 5093POPC   GL111905  27.570  32.272   8.850
 5093POPC   GL211906  27.713  32.364   8.850
 5093POPC   C1A11907  27.601  32.201   8.550
 5093POPC   D2A11908  27.546  32.280   8.250
 5093POPC   C3A11909  27.640  32.242   7.950
 5093POPC   C4A11910  27.577  32.209   7.650
 5093POPC   C1B11911  27.769  32.369   8.550
 5093POPC   C2B11912  27.754  32.391   8.250
 5093POPC   C3B11913  27.842  32.413   7.950
 5093POPC   C4B11914  27.778  32.439   7.650
 5094POPC   NC311915  41.575  42.363   9.450
 5094POPC   PO411916  41.511  42.319   9.150
 5094POPC   GL111917  41.518  42.287   8.850
 5094POPC   GL211918  41.653  42.355   8.850
 5094POPC   C1A11919  41.570  42.306   8.550
 5094POPC   D2A11920  41.552  42.384   8.250
 5094POPC   C3A11921  41.559  42.328   7.950
 5094POPC   C4A11922  41.509  42.326   7.650
 5094POPC   C1B11923  41.842  42.337   8.550
 5094POPC   C2B11924  41.780  42.294   8.250
 5094POPC   C3B11925  41.801  42.283   7.950
 5094POPC   C4B11926  41.796  42.336   7.650
 5095POPC   NC311927  43.129  38.480   9.450
 5095POPC   PO411928  43.151  38.504   9.150
 5095POPC   GL111929  43.115  38.445   8.850
 5095POPC   GL211930  43.048  38.523   8.850
 5095POPC   C1A11931  43.111  38.498   8.550
 5095POPC   D2A11932  43.104  38.426   8.250
 5095POPC   C3A11933  43.150  38.469   7.950
 5095POPC   C4A11934  43.104  38.449   7.650
 5095POPC   C1B11935  42.930  38.623   8.550
 5095POPC   C2B11936  42.875  38.611   8.250
 5095POPC   C3B11937  42.905  38.600   7.950
 5095POPC   C4B11938  42.894  38.598   7.650
 5096POPC   NC311939  26.852  38.453   9.450
 5096POPC   PO411940  26.865  38.431   9.150
 5096POPC   GL111941  26.833  38.426   8.850
 5096POPC   GL211942  26.825  38.604   8.850
 5096POPC   C1A11943  26.788  38.420   8.550
 5096POPC   D2A11944  26.839  38.415   8.250
 5096POPC   C3A11945  26.786  38.490   7.950
 5096POPC   C4A11946  26.796  38.437   7.650
 5096POPC   C1B11947  26.744  38.652   8.550
 5096POPC   C2B11948  26.740  38.661   8.250
 5096POPC   C3B11949  26.761  38.649   7.950
 5096POPC   C4B11950  26.725  38.714   7.650
 5097POPC   NC311951   9.712  32.210   9.450
 5097POPC   PO411952   9.766  32.238   9.150
 5097POPC   GL111953   9.729  32.220   8.850
 5097POPC   GL211954   9.685  32.350   8.850
 5097POPC   C1A11955   9.767  32.277   8.550
 5097POPC   D2A11956   9.737  32.229   8.250
 5097POPC   C3A11957   9.772  32.214   7.950
 5097POPC   C4A11958   9.706  32.220   7.650
 5097POPC   C1B11959   9.596  32.475   8.550
 5097POPC   C2B11960   9.543  32.461   8.250
 5097POPC   C3B11961   9.555  32.447   7.950
 5097POPC   C4B11962   9.582  32.430   7.650
 5098POPC   NC311963  21.351  44.663   9.450
 5098POPC   PO411964  21.348  44.710   9.150
 5098POPC   GL111965  21.402  44.672   8.850
 5098POPC   GL211966  21.499  44.741   8.850
 5098POPC   C1A11967  21.406  44.636   8.550
 5098POPC   D2A11968  21.421  44.679   8.250
 5098POPC   C3A11969  21.394  44.661   7.950
 5098POPC   C4A11970  21.400  44.641   7.650
 5098POPC   C1B11971  21.651  44.817   8.550
 5098POPC   C2B11972  21.652  44.768   8.250
 5098POPC   C3B11973  21.608  44.733   7.950
 5098POPC   C4B11974  21.610  44.768   7.650
 5099POPC   NC311975   8.156  23.689   9.450
 5099POPC   PO411976   8.231  23.741   9.150
 5099POPC   GL111977   8.195  23.727   8.850
 5099POPC   GL211978   8.240  23.798   8.850
 5099POPC   C1A11979   8.215  23.734   8.550
 5099POPC   D2A11980   8.183  23.671   8.250
 5099POPC   C3A11981   8.217  23.739   7.950
 5099POPC   C4A11982   8.229  23.719   7.650
 5099POPC   C1B11983   8.391  23.949   8.550
 5099POPC   C2B11984   8.375  23.930   8.250
 5099POPC   C3B11985   8.349  23.947   7.950
 5099POPC   C4B11986   8.306  23.916   7.650
 5100POPC   NC311987  18.328  29.900   9.450
 5100POPC   PO411988  18.295  29.911   9.150
 5100POPC   GL111989  18.318  29.920   8.850
 5100POPC   GL211990  18.354  29.769   8.850
 5100POPC   C1A11991  18.246  29.896   8.550
 5100POPC   D2A11992  18.281  29.943   8.250
 5100POPC   C3A11993  18.236  29.914   7.950
 5100POPC   C4A11994  18.298  29.912   7.650
 5100POPC   C1B11995  18.345  29.697   8.550
 5100POPC   C2B11996  18.372  29.726   8.250
 5100POPC   C3B11997  18.408  29.639   7.950
 5100POPC   C4B11998  18.346  29.696   7.650
 5101POPC   NC311999   1.196  16.705   9.450
 5101POPC   PO412000   1.166  16.747   9.150
 5101POPC   GL112001   1.169  16.719   8.850
 5101POPC   GL212002   1.085  16.690   8.850
 5101POPC   C1A12003   1.190  16.703   8.550
 5101POPC   D2A12004   1.195  16.761   8.250
 5101POPC   C3A12005   1.221  16.718   7.950
 5101POPC   C4A12006   1.261  16.763   7.650
 5101POPC   C1B12007   0.983  16.596   8.550
 5101POPC   C2B12008   0.987  16.588   8.250
 5101POPC   C3B12009   1.006  16.592   7.950
 5101POPC   C4B12010   1.008  16.557   7.650
 5102POPC   NC312011  12.860  13.579   9.450
 5102POPC   PO412012  12.852  13.633   9.150
 5102POPC   GL112013  12.898  13.609   8.850
 5102POPC   GL212014  12.863  13.460   8.850
 5102POPC   C1A12015  12.807  13.584   8.550
 5102POPC   D2A12016  12.806  13.661   8.250
 5102POPC   C3A12017  12.861  13.582   7.950
 5102POPC   C4A12018  12.846  13.670   7.650
 5102POPC   C1B12019  12.784  13.351   8.550
 5102POPC   C2B12020  12.821  13.352   8.250
 5102POPC   C3B12021  12.800  13.364   7.950
 5102POPC   C4B12022  12.772  13.367   7.650
 5103POPC   NC312023   4.339  12.897   9.450
 5103POPC   PO412024   4.274  12.888   9.150
 5103POPC   GL112025   4.355  12.825   8.850
 5103POPC   GL212026   4.235  12.928   8.850
 5103POPC   C1A12027   4.346  12.844   8.550
 5103POPC   D2A12028   4.356  12.900   8.250
 5103POPC   C3A12029   4.279  12.829   7.950
 5103POPC   C4A12030   4.350  12.824   7.650
 5103POPC   C1B12031   4.055  12.975   8.550
 5103POPC   C2B12032   4.125  12.996   8.250
 5103POPC   C3B12033   4.093  12.956   7.950
 5103POPC   C4B12034   4.092  13.026   7.650
 5104POPC   NC312035  25.228  36.155   9.450
 5104POPC   PO412036  25.230  36.147   9.150
 5104POPC   GL112037  25.285  36.153   8.850
 5104POPC   GL212038  25.378  36.219   8.850
 5104POPC   C1A12039  25.247  36.136   8.550
 5104POPC   D2A12040  25.246  36.111   8.250
 5104POPC   C3A12041  25.233  36.131   7.950
 5104POPC   C4A12042  25.274  36.173   7.650
 5104POPC   C1B12043  25.468  36.251   8.550
 5104POPC   C2B12044  25.464  36.252   8.250
 5104POPC   C3B12045  25.461  36.253   7.950
 5104POPC   C4B12046  25.430  36.287   7.650
 5105POPC   NC312047  22.147  23.679   9.450
 5105POPC   PO412048  22.200  23.731   9.150
 5105POPC   GL112049  22.163  23.673   8.850
 5105POPC   GL212050  22.128  23.814   8.850
 5105POPC   C1A12051  22.125  23.763   8.550
 5105POPC   D2A12052  22.201  23.714   8.250
 5105POPC   C3A12053  22.204  23.689   7.950
 5105POPC   C4A12054  22.169  23.745   7.650
 5105POPC   C1B12055  22.181  23.944   8.550
 5105POPC   C2B12056  22.195  23.951   8.250
 5105POPC   C3B12057  22.209  23.968   7.950
 5105POPC   C4B12058  22.156  23.940   7.650
 5106POPC   NC312059  10.486  19.856   9.450
 5106POPC   PO412060  10.495  19.823   9.150
 5106POPC   GL112061  10.476  19.845   8.850
 5106POPC   GL212062  10.368  19.834   8.850
 5106POPC   C1A12063  10.477  19.789   8.550
 5106POPC   D2A12064  10.540  19.855   8.250
 5106POPC   C3A12065  10.475  19.882   7.950
 5106POPC   C4A12066  10.524  19.792   7.650
 5106POPC   C1B12067  10.310  19.812   8.550
 5106POPC   C2B12068  10.290  19.823   8.250
 5106POPC   C3B12069  10.234  19.872   7.950
 5106POPC   C4B12070  10.239  19.887   7.650
 5107POPC   NC312071  22.117  27.569   9.450
 5107POPC   PO412072  22.168  27.590   9.150
 5107POPC   GL112073  22.187  27.617   8.850
 5107POPC   GL212074  22.293  27.537   8.850
 5107POPC   C1A12075  22.146  27.577   8.550
 5107POPC   D2A12076  22.156  27.575   8.250
 5107POPC   C3A12077  22.191  27.553   7.950
 5107POPC   C4A12078  22.171  27.616   7.650
 5107POPC   C1B12079  22.375  27.607   8.550
 5107POPC   C2B12080  22.368  27.607   8.250
 5107POPC   C3B12081  22.447  27.580   7.950
 5107POPC   C4B12082  22.418  27.551   7.650
 5108POPC   NC312083   6.604  33.782   9.450
 5108POPC   PO412084   6.663  33.811   9.150
 5108POPC   GL112085   6.630  33.838   8.850
 5108POPC   GL212086   6.674  33.912   8.850
 5108POPC   C1A12087   6.645  33.837   8.550
 5108POPC   D2A12088   6.635  33.849   8.250
 5108POPC   C3A12089   6.606  33.810   7.950
 5108POPC   C4A12090   6.628  33.803   7.650
 5108POPC   C1B12091   6.697  34.019   8.550
 5108POPC   C2B12092   6.603  34.056   8.250
 5108POPC   C3B12093   6.622  34.051   7.950
 5108POPC   C4B12094   6.651  34.081   7.650
 5109POPC   NC312095  15.912  35.362   9.450
 5109POPC   PO412096  15.961  35.326   9.150
 5109POPC   GL112097  15.964  35.382   8.850
 5109POPC   GL212098  16.065  35.392   8.850
 5109POPC   C1A12099  15.925  35.348   8.550
 5109POPC   D2A12100  15.978  35.394   8.250
 5109POPC   C3A12101  15.933  35.379   7.950
 5109POPC   C4A12102  15.967  35.398   7.650
 5109POPC   C1B12103  16.165  35.374   8.550
 5109POPC   C2B12104  16.246  35.412   8.250
 5109POPC   C3B12105  16.198  35.373   7.950
 5109POPC   C4B12106  16.187  35.378   7.650
 5110POPC   NC312107  40.046   9.779   9.450
 5110POPC   PO412108  40.001   9.735   9.150
 5110POPC   GL112109  40.016   9.770   8.850
 5110POPC   GL212110  40.098   9.767   8.850
 5110POPC   C1A12111  40.008   9.771   8.550
 5110POPC   D2A12112  39.979   9.734   8.250
 5110POPC   C3A12113  40.033   9.774   7.950
 5110POPC   C4A12114  40.030   9.747   7.650
 5110POPC   C1B12115  40.184   9.901   8.550
 5110POPC   C2B12116  40.194   9.867   8.250
 5110POPC   C3B12117  40.193   9.871   7.950
 5110POPC   C4B12118  40.223   9.859   7.650
 5111POPC   NC312119   8.996  43.903   9.450
 5111POPC   PO412120   8.943  43.903   9.150
 5111POPC   GL112121   8.932  43.842   8.850
 5111POPC   GL212122   9.116  43.874   8.850
 5111POPC   C1A12123   8.938  43.898   8.550
 5111POPC   D2A12124   8.979  43.913   8.250
 5111POPC   C3A12125   8.940  43.843   7.950
 5111POPC   C4A12126   8.925  43.853   7.650
 5111POPC   C1B12127   9.175  43.752   8.550
 5111POPC   C2B12128   9.152  43.740   8.250
 5111POPC   C3B12129   9.181  43.784   7.950
 5111POPC   C4B12130   9.249  43.797   7.650
 5112POPC   NC312131  35.304  20.605   9.450
 5112POPC   PO412132  35.342  20.585   9.150
 5112POPC   GL112133  35.343  20.607   8.850
 5112POPC   GL212134  35.497  20.578   8.850
 5112POPC   C1A12135  35.380  20.638   8.550
 5112POPC   D2A12136  35.338  20.637   8.250
 5112POPC   C3A12137  35.358  20.649   7.950
 5112POPC   C4A12138  35.368  20.595   7.650
 5112POPC   C1B12139  35.543  20.557   8.550
 5112POPC   C2B12140  35.564  20.576   8.250
 5112POPC   C3B12141  35.628  20.546   7.950
 5112POPC   C4B12142  35.606  20.554   7.650
 5113POPC   NC312143  24.517   9.022   9.450
 5113POPC   PO412144  24.526   8.931   9.150
 5113POPC   GL112145  24.462   8.994   8.850
 5113POPC   GL212146  24.525   8.810   8.850
 5113POPC   C1A12147  24.490   8.996   8.550
 5113POPC   D2A12148  24.518   8.970   8.250
 5113POPC   C3A12149  24.525   8.949   7.950
 5113POPC   C4A12150  24.510   8.959   7.650
 5113POPC   C1B12151  24.545   8.752   8.550
 5113POPC   C2B12152  24.575   8.711   8.250
 5113POPC   C3B12153  24.577   8.782   7.950
 5113POPC   C4B12154  24.598   8.696   7.650
 5114POPC   NC312155  29.185  26.018   9.450
 5114POPC   PO412156  29.130  26.080   9.150
 5114POPC   GL112157  29.165  26.076   8.850
 5114POPC   GL212158  29.294  26.047   8.850
 5114POPC   C1A12159  29.139  26.006   8.550
 5114POPC   D2A12160  29.185  26.090   8.250
 5114POPC   C3A12161  29.163  26.059   7.950
 5114POPC   C4A12162  29.153  26.008   7.650
 5114POPC   C1B12163  29.417  25.994   8.550
 5114POPC   C2B12164  29.398  26.059   8.250
 5114POPC   C3B12165  29.435  25.978   7.950
 5114POPC   C4B12166  29.411  26.030   7.650
 5115POPC   NC312167   4.344  29.907   9.450
 5115POPC   PO412168   4.354  29.926   9.150
 5115POPC   GL112169   4.309  29.916   8.850
 5115POPC   GL212170   4.394  30.010   8.850
 5115POPC   C1A12171   4.284  29.882   8.550
 5115POPC   D2A12172   4.323  29.970   8.250
 5115POPC   C3A12173   4.362  29.891   7.950
 5115POPC   C4A12174   4.336  29.950   7.650
 5115POPC   C1B12175   4.468  30.109   8.550
 5115POPC   C2B12176   4.491  30.152   8.250
 5115POPC   C3B12177   4.471  30.127   7.950
 5115POPC   C4B12178   4.487  30.106   7.650
 5116POPC   NC312179  40.792   5.852   9.450
 5116POPC   PO412180  40.799   5.836   9.150
 5116POPC   GL112181  40.792   5.896   8.850
 5116POPC   GL212182  40.864   5.936   8.850
 5116POPC   C1A12183  40.830   5.886   8.550
 5116POPC   D2A12184  40.815   5.866   8.250
 5116POPC   C3A12185  40.824   5.846   7.950
 5116POPC   C4A12186  40.791   5.888   7.650
 5116POPC   C1B12187  41.069   5.959   8.550
 5116POPC   C2B12188  40.976   5.942   8.250
 5116POPC   C3B12189  40.988   5.894   7.950
 5116POPC   C4B12190  41.054   5.986   7.650
 5117POPC   NC312191  22.156  12.126   9.450
 5117POPC   PO412192  22.130  12.119   9.150
 5117POPC   GL112193  22.144  12.031   8.850
 5117POPC   GL212194  22.092  11.920   8.850
 5117POPC   C1A12195  22.186  12.124   8.550
 5117POPC   D2A12196  22.147  12.065   8.250
 5117POPC   C3A12197  22.190  12.087   7.950
 5117POPC   C4A12198  22.116  12.108   7.650
 5117POPC   C1B12199  22.099  11.814   8.550
 5117POPC   C2B12200  22.130  11.782   8.250
 5117POPC   C3B12201  22.167  11.825   7.950
 5117POPC   C4B12202  22.108  11.807   7.650
 5118POPC   NC312203  13.602  16.756   9.450
 5118POPC   PO412204  13.669  16.767   9.150
 5118POPC   GL112205  13.673  16.777   8.850
 5118POPC   GL212206  13.695  16.829   8.850
 5118POPC   C1A12207  13.651  16.759   8.550
 5118POPC   D2A12208  13.586  16.713   8.250
 5118POPC   C3A12209  13.595  16.760   7.950
 5118POPC   C4A12210  13.660  16.730   7.650
 5118POPC   C1B12211  13.716  16.995   8.550
 5118POPC   C2B12212  13.706  16.994   8.250
 5118POPC   C3B12213  13.761  17.009   7.950
 5118POPC   C4B12214  13.742  16.952   7.650
 5119POPC   NC312215  37.700  26.829   9.450
 5119POPC   PO412216  37.678  26.829   9.150
 5119POPC   GL112217  37.646  26.813   8.850
 5119POPC   GL212218  37.718  26.878   8.850
 5119POPC   C1A12219  37.652  26.798   8.550
 5119POPC   D2A12220  37.653  26.828   8.250
 5119POPC   C3A12221  37.710  26.859   7.950
 5119POPC   C4A12222  37.671  26.792   7.650
 5119POPC   C1B12223  37.901  27.003   8.550
 5119POPC   C2B12224  37.807  26.969   8.250
 5119POPC   C3B12225  37.824  26.965   7.950
 5119POPC   C4B12226  37.888  27.028   7.650
 5120POPC   NC312227  39.258  32.987   9.450
 5120POPC   PO412228  39.237  33.052   9.150
 5120POPC   GL112229  39.208  33.008   8.850
 5120POPC   GL212230  39.253  33.196   8.850
 5120POPC   C1A12231  39.213  33.022   8.550
 5120POPC   D2A12232  39.217  33.010   8.250
 5120POPC   C3A12233  39.238  33.039   7.950
 5120POPC   C4A12234  39.243  33.066   7.650
 5120POPC   C1B12235  39.261  33.262   8.550
 5120POPC   C2B12236  39.277  33.305   8.250
 5120POPC   C3B12237  39.317  33.315   7.950
 5120POPC   C4B12238  39.317  33.307   7.650
 5121POPC   NC312239  36.855  39.977   9.450
 5121POPC   PO412240  36.924  40.041   9.150
 5121POPC   GL112241  36.861  40.044   8.850
 5121POPC   GL212242  36.991  40.116   8.850
 5121POPC   C1A12243  36.869  39.997   8.550
 5121POPC   D2A12244  36.856  40.019   8.250
 5121POPC   C3A12245  36.895  40.015   7.950
 5121POPC   C4A12246  36.858  39.990   7.650
 5121POPC   C1B12247  37.016  40.259   8.550
 5121POPC   C2B12248  37.081  40.208   8.250
 5121POPC   C3B12249  36.989  40.210   7.950
 5121POPC   C4B12250  37.005  40.265   7.650
 5122POPC   NC312251  22.974  10.561   9.450
 5122POPC   PO412252  22.890  10.476   9.150
 5122POPC   GL112253  22.940  10.482   8.850
 5122POPC   GL212254  22.929  10.413   8.850
 5122POPC   C1A12255  22.913  10.530   8.550
 5122POPC   D2A12256  22.932  10.476   8.250
 5122POPC   C3A12257  22.959  10.555   7.950
 5122POPC   C4A12258  22.924  10.540   7.650
 5122POPC   C1B12259  22.896  10.227   8.550
 5122POPC   C2B12260  22.909  10.248   8.250
 5122POPC   C3B12261  22.934  10.269   7.950
 5122POPC   C4B12262  22.919  10.319   7.650
 5123POPC   NC312263   9.019   8.225   9.450
 5123POPC   PO412264   8.977   8.196   9.150
 5123POPC   GL112265   9.015   8.238   8.850
 5123POPC   GL212266   8.972   8.057   8.850
 5123POPC   C1A12267   8.924   8.218   8.550
 5123POPC   D2A12268   8.964   8.223   8.250
 5123POPC   C3A12269   8.940   8.157   7.950
 5123POPC   C4A12270   8.966   8.241   7.650
 5123POPC   C1B12271   8.934   7.973   8.550
 5123POPC   C2B12272   8.907   7.903   8.250
 5123POPC   C3B12273   8.931   8.001   7.950
 5123POPC   C4B12274   8.892   7.960   7.650
 5124POPC   NC312275   0.478  42.287   9.450
 5124POPC   PO412276   0.394  42.337   9.150
 5124POPC   GL112277   0.471  42.291   8.850
 5124POPC   GL212278   0.472  42.215   8.850
 5124POPC   C1A12279   0.407  42.290   8.550
 5124POPC   D2A12280   0.478  42.356   8.250
 5124POPC   C3A12281   0.477  42.292   7.950
 5124POPC   C4A12282   0.481  42.292   7.650
 5124POPC   C1B12283   0.464  42.047   8.550
 5124POPC   C2B12284   0.482  42.068   8.250
 5124POPC   C3B12285   0.527  42.115   7.950
 5124POPC   C4B12286   0.494  42.074   7.650
 5125POPC   NC312287   8.967  26.065   9.450
 5125POPC   PO412288   9.004  25.994   9.150
 5125POPC   GL112289   9.011  26.027   8.850
 5125POPC   GL212290   8.893  25.922   8.850
 5125POPC   C1A12291   8.943  26.030   8.550
 5125POPC   D2A12292   8.992  26.087   8.250
 5125POPC   C3A12293   8.985  26.058   7.950
 5125POPC   C4A12294   8.948  26.009   7.650
 5125POPC   C1B12295   8.864  25.764   8.550
 5125POPC   C2B12296   8.847  25.765   8.250
 5125POPC   C3B12297   8.905  25.773   7.950
 5125POPC   C4B12298   8.843  25.772   7.650
 5126POPC   NC312299  33.802  33.062   9.450
 5126POPC   PO412300  33.792  33.045   9.150
 5126POPC   GL112301  33.801  33.064   8.850
 5126POPC   GL212302  33.947  32.992   8.850
 5126POPC   C1A12303  33.835  33.026   8.550
 5126POPC   D2A12304  33.810  33.073   8.250
 5126POPC   C3A12305  33.808  32.975   7.950
 5126POPC   C4A12306  33.786  33.029   7.650
 5126POPC   C1B12307  34.029  32.955   8.550
 5126POPC   C2B12308  34.053  32.987   8.250
 5126POPC   C3B12309  34.069  32.996   7.950
 5126POPC   C4B12310  34.034  32.944   7.650
 5127POPC   NC312311   0.456  29.179   9.450
 5127POPC   PO412312   0.453  29.109   9.150
 5127POPC   GL112313   0.483  29.113   8.850
 5127POPC   GL212314   0.595  29.082   8.850
 5127POPC   C1A12315   0.401  29.130   8.550
 5127POPC   D2A12316   0.480  29.156   8.250
 5127POPC   C3A12317   0.487  29.113   7.950
 5127POPC   C4A12318   0.417  29.136   7.650
 5127POPC   C1B12319   0.720  29.137   8.550
 5127POPC   C2B12320   0.671  29.070   8.250
 5127POPC   C3B12321   0.694  29.068   7.950
 5127POPC   C4B12322   0.698  29.044   7.650
 5128POPC   NC312323   6.650  11.324   9.450
 5128POPC   PO412324   6.611  11.341   9.150
 5128POPC   GL112325   6.645  11.304   8.850
 5128POPC   GL212326   6.733  11.165   8.850
 5128POPC   C1A12327   6.651  11.276   8.550
 5128POPC   D2A12328   6.616  11.317   8.250
 5128POPC   C3A12329   6.653  11.292   7.950
 5128POPC   C4A12330   6.694  11.287   7.650
 5128POPC   C1B12331   6.774  11.073   8.550
 5128POPC   C2B12332   6.780  11.112   8.250
 5128POPC   C3B12333   6.746  11.072   7.950
 5128POPC   C4B12334   6.768  11.119   7.650
 5129POPC   NC312335  19.803  24.472   9.450
 5129POPC   PO412336  19.884  24.494   9.150
 5129POPC   GL112337  19.866  24.457   8.850
 5129POPC   GL212338  19.785  24.406   8.850
 5129POPC   C1A12339  19.808  24.505   8.550
 5129POPC   D2A12340  19.811  24.526   8.250
 5129POPC   C3A12341  19.785  24.450   7.950
 5129POPC   C4A12342  19.872  24.528   7.650
 5129POPC   C1B12343  19.813  24.275   8.550
 5129POPC   C2B12344  19.818  24.242   8.250
 5129POPC   C3B12345  19.766  24.226   7.950
 5129POPC   C4B12346  19.776  24.211   7.650
 5130POPC   NC312347  11.301  34.610   9.450
 5130POPC   PO412348  11.348  34.586   9.150
 5130POPC   GL112349  11.332  34.563   8.850
 5130POPC   GL212350  11.223  34.638   8.850
 5130POPC   C1A12351  11.321  34.619   8.550
 5130POPC   D2A12352  11.280  34.575   8.250
 5130POPC   C3A12353  11.333  34.603   7.950
 5130POPC   C4A12354  11.264  34.556   7.650
 5130POPC   C1B12355  11.041  34.641   8.550
 5130POPC   C2B12356  11.018  34.586   8.250
 5130POPC   C3B12357  11.094  34.679   7.950
 5130POPC   C4B12358  11.076  34.672   7.650
 5131POPC   NC312359  24.530  44.628   9.450
 5131POPC   PO412360  24.456  44.671   9.150
 5131POPC   GL112361  24.448  44.628   8.850
 5131POPC   GL212362  24.549  44.557   8.850
 5131POPC   C1A12363  24.481  44.634   8.550
 5131POPC   D2A12364  24.469  44.674   8.250
 5131POPC   C3A12365  24.526  44.676   7.950
 5131POPC   C4A12366  24.452  44.632   7.650
 5131POPC   C1B12367  24.579  44.428   8.550
 5131POPC   C2B12368  24.561  44.482   8.250
 5131POPC   C3B12369  24.615  44.483   7.950
 5131POPC   C4B12370  24.594  44.418   7.650
 5132POPC   NC312371  41.595   1.193   9.450
 5132POPC   PO412372  41.527   1.209   9.150
 5132POPC   GL112373  41.562   1.238   8.850
 5132POPC   GL212374  41.590   1.329   8.850
 5132POPC   C1A12375  41.534   1.253   8.550
 5132POPC   D2A12376  41.597   1.230   8.250
 5132POPC   C3A12377  41.603   1.175   7.950
 5132POPC   C4A12378  41.605   1.231   7.650
 5132POPC   C1B12379  41.679   1.397   8.550
 5132POPC   C2B12380  41.649   1.483   8.250
 5132POPC   C3B12381  41.605   1.474   7.950
 5132POPC   C4B12382  41.624   1.436   7.650
 5133POPC   NC312383  37.678   7.395   9.450
 5133POPC   PO412384  37.641   7.443   9.150
 5133POPC   GL112385  37.677   7.378   8.850
 5133POPC   GL212386  37.724   7.509   8.850
 5133POPC   C1A12387  37.660   7.397   8.550
 5133POPC   D2A12388  37.724   7.468   8.250
 5133POPC   C3A12389  37.674   7.461   7.950
 5133POPC   C4A12390  37.693   7.405   7.650
 5133POPC   C1B12391  37.743   7.706   8.550
 5133POPC   C2B12392  37.772   7.627   8.250
 5133POPC   C3B12393  37.742   7.705   7.950
 5133POPC   C4B12394  37.729   7.646   7.650
 5134POPC   NC312395  15.190  21.368   9.450
 5134POPC   PO412396  15.194  21.412   9.150
 5134POPC   GL112397  15.195  21.401   8.850
 5134POPC   GL212398  15.301  21.374   8.850
 5134POPC   C1A12399  15.172  21.338   8.550
 5134POPC   D2A12400  15.164  21.353   8.250
 5134POPC   C3A12401  15.194  21.389   7.950
 5134POPC   C4A12402  15.153  21.401   7.650
 5134POPC   C1B12403  15.444  21.485   8.550
 5134POPC   C2B12404  15.411  21.452   8.250
 5134POPC   C3B12405  15.428  21.431   7.950
 5134POPC   C4B12406  15.454  21.405   7.650
 5135POPC   NC312407  26.789  19.009   9.450
 5135POPC   PO412408  26.782  19.101   9.150
 5135POPC   GL112409  26.780  19.072   8.850
 5135POPC   GL212410  26.705  19.006   8.850
 5135POPC   C1A12411  26.848  19.015   8.550
 5135POPC   D2A12412  26.834  19.090   8.250
 5135POPC   C3A12413  26.793  19.068   7.950
 5135POPC   C4A12414  26.856  19.100   7.650
 5135POPC   C1B12415  26.574  18.870   8.550
 5135POPC   C2B12416  26.581  18.914   8.250
 5135POPC   C3B12417  26.668  18.892   7.950
 5135POPC   C4B12418  26.659  18.878   7.650
 5136POPC   NC312419  44.666   5.843   9.450
 5136POPC   PO412420  44.669   5.899   9.150
 5136POPC   GL112421  44.667   5.894   8.850
 5136POPC   GL212422  44.617   5.720   8.850
 5136POPC   C1A12423  44.694   5.857   8.550
 5136POPC   D2A12424  44.651   5.870   8.250
 5136POPC   C3A12425  44.692   5.847   7.950
 5136POPC   C4A12426  44.674   5.878   7.650
 5136POPC   C1B12427  44.589   5.595   8.550
 5136POPC   C2B12428  44.601   5.595   8.250
 5136POPC   C3B12429  44.581   5.664   7.950
 5136POPC   C4B12430  44.627   5.664   7.650
 5137POPC   NC312431  33.039  20.591   9.450
 5137POPC   PO412432  33.005  20.561   9.150
 5137POPC   GL112433  33.011  20.569   8.850
 5137POPC   GL212434  33.142  20.682   8.850
 5137POPC   C1A12435  33.000  20.561   8.550
 5137POPC   D2A12436  33.041  20.596   8.250
 5137POPC   C3A12437  33.035  20.641   7.950
 5137POPC   C4A12438  33.003  20.602   7.650
 5137POPC   C1B12439  33.273  20.730   8.550
 5137POPC   C2B12440  33.232  20.657   8.250
 5137POPC   C3B12441  33.288  20.658   7.950
 5137POPC   C4B12442  33.220  20.637   7.650
 5138POPC   NC312443  44.710  26.031   9.450
 5138POPC   PO412444  44.658  26.039   9.150
 5138POPC   GL112445  44.688  26.045   8.850
 5138POPC   GL212446  44.726  25.898   8.850
 5138POPC   C1A12447  44.666  26.007   8.550
 5138POPC   D2A12448  44.706  26.041   8.250
 5138POPC   C3A12449  44.614  26.023   7.950
 5138POPC   C4A12450  44.638  26.060   7.650
 5138POPC   C1B12451  44.799  25.784   8.550
 5138POPC   C2B12452  44.806  25.833   8.250
 5138POPC   C3B12453  44.814  25.788   7.950
 5138POPC   C4B12454  44.812  25.875   7.650
 5139POPC   NC312455  12.103  40.794   9.450
 5139POPC   PO412456  12.035  40.777   9.150
 5139POPC   GL112457  12.096  40.817   8.850
 5139POPC   GL212458  11.966  40.830   8.850
 5139POPC   C1A12459  12.123  40.772   8.550
 5139POPC   D2A12460  12.090  40.782   8.250
 5139POPC   C3A12461  12.050  40.830   7.950
 5139POPC   C4A12462  12.116  40.801   7.650
 5139POPC   C1B12463  11.854  40.883   8.550
 5139POPC   C2B12464  11.814  40.844   8.250
 5139POPC   C3B12465  11.873  40.803   7.950
 5139POPC   C4B12466  11.861  40.808   7.650
 5140POPC   NC312467  20.645   0.421   9.450
 5140POPC   PO412468  20.601   0.415   9.150
 5140POPC   GL112469  20.652   0.444   8.850
 5140POPC   GL212470  20.710   0.569   8.850
 5140POPC   C1A12471  20.607   0.467   8.550
 5140POPC   D2A12472  20.618   0.438   8.250
 5140POPC   C3A12473  20.598   0.417   7.950
 5140POPC   C4A12474  20.575   0.437   7.650
 5140POPC   C1B12475  20.837   0.587   8.550
 5140POPC   C2B12476  20.771   0.569   8.250
 5140POPC   C3B12477  20.763   0.614   7.950
 5140POPC   C4B12478  20.776   0.581   7.650
 5141POPC   NC312479  35.332  33.005   9.450
 5141POPC   PO412480  35.368  33.041   9.150
 5141POPC   GL112481  35.381  33.000   8.850
 5141POPC   GL212482  35.463  33.077   8.850
 5141POPC   C1A12483  35.380  32.992   8.550
 5141POPC   D2A12484  35.353  33.070   8.250
 5141POPC   C3A12485  35.331  33.005   7.950
 5141POPC   C4A12486  35.305  33.072   7.650
 5141POPC   C1B12487  35.592  33.065   8.550
 5141POPC   C2B12488  35.579  33.022   8.250
 5141POPC   C3B12489  35.611  33.031   7.950
 5141POPC   C4B12490  35.617  33.063   7.650
 5142POPC   NC312491   1.207  32.984   9.450
 5142POPC   PO412492   1.212  33.052   9.150
 5142POPC   GL112493   1.190  33.064   8.850
 5142POPC   GL212494   1.332  32.947   8.850
 5142POPC   C1A12495   1.263  33.048   8.550
 5142POPC   D2A12496   1.221  33.015   8.250
 5142POPC   C3A12497   1.210  32.989   7.950
 5142POPC   C4A12498   1.217  32.999   7.650
 5142POPC   C1B12499   1.390  32.945   8.550
 5142POPC   C2B12500   1.433  32.918   8.250
 5142POPC   C3B12501   1.410  32.946   7.950
 5142POPC   C4B12502   1.448  32.908   7.650
 5143POPC   NC312503  31.430  44.620   9.450
 5143POPC   PO412504  31.485  44.614   9.150
 5143POPC   GL112505  31.517  44.665   8.850
 5143POPC   GL212506  31.555  44.802   8.850
 5143POPC   C1A12507  31.470  44.636   8.550
 5143POPC   D2A12508  31.463  44.655   8.250
 5143POPC   C3A12509  31.449  44.674   7.950
 5143POPC   C4A12510  31.489  44.669   7.650
 5143POPC   C1B12511  31.634  44.812   8.550
 5143POPC   C2B12512  31.654  44.851   8.250
 5143POPC   C3B12513  31.614  44.801   7.950
 5143POPC   C4B12514  31.673  44.846   7.650
 5144POPC   NC312515   8.176  39.192   9.450
 5144POPC   PO412516   8.183  39.249   9.150
 5144POPC   GL112517   8.216  39.221   8.850
 5144POPC   GL212518   8.312  39.200   8.850
 5144POPC   C1A12519   8.243  39.208   8.550
 5144POPC   D2A12520   8.238  39.190   8.250
 5144POPC   C3A12521   8.168  39.214   7.950
 5144POPC   C4A12522   8.182  39.259   7.650
 5144POPC   C1B12523   8.452  39.197   8.550
 5144POPC   C2B12524   8.397  39.203   8.250
 5144POPC   C3B12525   8.437  39.145   7.950
 5144POPC   C4B12526   8.486  39.222   7.650
 5145POPC   NC312527  25.307  18.278   9.450
 5145POPC   PO412528  25.230  18.242   9.150
 5145POPC   GL112529  25.241  18.322   8.850
 5145POPC   GL212530  25.112  18.265   8.850
 5145POPC   C1A12531  25.270  18.241   8.550
 5145POPC   D2A12532  25.238  18.248   8.250
 5145POPC   C3A12533  25.270  18.267   7.950
 5145POPC   C4A12534  25.222  18.298   7.650
 5145POPC   C1B12535  25.060  18.249   8.550
 5145POPC   C2B12536  24.984  18.165   8.250
 5145POPC   C3B12537  24.983  18.236   7.950
 5145POPC   C4B12538  25.073  18.192   7.650
 5146POPC   NC312539  12.832  19.015   9.450
 5146POPC   PO412540  12.900  19.038   9.150
 5146POPC   GL112541  12.894  19.073   8.850
 5146POPC   GL212542  12.828  18.987   8.850
 5146POPC   C1A12543  12.862  19.048   8.550
 5146POPC   D2A12544  12.895  19.019   8.250
 5146POPC   C3A12545  12.859  19.094   7.950
 5146POPC   C4A12546  12.873  19.087   7.650
 5146POPC   C1B12547  12.721  18.788   8.550
 5146POPC   C2B12548  12.735  18.795   8.250
 5146POPC   C3B12549  12.757  18.832   7.950
 5146POPC   C4B12550  12.746  18.783   7.650
 5147POPC   NC312551  28.418  26.006   9.450
 5147POPC   PO412552  28.371  25.996   9.150
 5147POPC   GL112553  28.373  26.044   8.850
 5147POPC   GL212554  28.442  26.089   8.850
 5147POPC   C1A12555  28.392  26.090   8.550
 5147POPC   D2A12556  28.373  26.063   8.250
 5147POPC   C3A12557  28.402  26.050   7.950
 5147POPC   C4A12558  28.412  26.034   7.650
 5147POPC   C1B12559  28.533  26.175   8.550
 5147POPC   C2B12560  28.549  26.199   8.250
 5147POPC   C3B12561  28.623  26.207   7.950
 5147POPC   C4B12562  28.609  26.213   7.650
 5148POPC   NC312563  22.194  43.068   9.450
 5148POPC   PO412564  22.145  43.113   9.150
 5148POPC   GL112565  22.125  43.144   8.850
 5148POPC   GL212566  21.992  43.148   8.850
 5148POPC   C1A12567  22.162  43.109   8.550
 5148POPC   D2A12568  22.133  43.146   8.250
 5148POPC   C3A12569  22.124  43.116   7.950
 5148POPC   C4A12570  22.179  43.155   7.650
 5148POPC   C1B12571  21.912  43.113   8.550
 5148POPC   C2B12572  21.874  43.103   8.250
 5148POPC   C3B12573  21.954  43.058   7.950
 5148POPC   C4B12574  21.902  43.139   7.650
 5149POPC   NC312575  39.233  17.546   9.450
 5149POPC   PO412576  39.277  17.483   9.150
 5149POPC   GL112577  39.211  17.540   8.850
 5149POPC   GL212578  39.089  17.492   8.850
 5149POPC   C1A12579  39.191  17.546   8.550
 5149POPC   D2A12580  39.215  17.537   8.250
 5149POPC   C3A12581  39.280  17.460   7.950
 5149POPC   C4A12582  39.252  17.468   7.650
 5149POPC   C1B12583  38.977  17.410   8.550
 5149POPC   C2B12584  38.957  17.485   8.250
 5149POPC   C3B12585  39.033  17.447   7.950
 5149POPC   C4B12586  38.972  17.465   7.650
 5150POPC   NC312587  36.953   9.719   9.450
 5150POPC   PO412588  36.938   9.751   9.150
 5150POPC   GL112589  36.885   9.702   8.850
 5150POPC   GL212590  36.974   9.804   8.850
 5150POPC   C1A12591  36.951   9.707   8.550
 5150POPC   D2A12592  36.889   9.743   8.250
 5150POPC   C3A12593  36.885   9.777   7.950
 5150POPC   C4A12594  36.869   9.749   7.650
 5150POPC   C1B12595  37.185   9.805   8.550
 5150POPC   C2B12596  37.163   9.782   8.250
 5150POPC   C3B12597  37.174   9.860   7.950
 5150POPC   C4B12598  37.134   9.809   7.650
 5151POPC   NC312599   0.451   2.007   9.450
 5151POPC   PO412600   0.416   1.960   9.150
 5151POPC   GL112601   0.413   1.946   8.850
 5151POPC   GL212602   0.366   1.959   8.850
 5151POPC   C1A12603   0.405   1.986   8.550
 5151POPC   D2A12604   0.413   1.941   8.250
 5151POPC   C3A12605   0.410   2.027   7.950
 5151POPC   C4A12606   0.481   1.983   7.650
 5151POPC   C1B12607   0.246   1.866   8.550
 5151POPC   C2B12608   0.231   1.921   8.250
 5151POPC   C3B12609   0.216   1.936   7.950
 5151POPC   C4B12610   0.177   1.853   7.650
 5152POPC   NC312611  18.244   6.599   9.450
 5152POPC   PO412612  18.324   6.626   9.150
 5152POPC   GL112613  18.307   6.661   8.850
 5152POPC   GL212614  18.268   6.514   8.850
 5152POPC   C1A12615  18.268   6.639   8.550
 5152POPC   D2A12616  18.293   6.643   8.250
 5152POPC   C3A12617  18.273   6.663   7.950
 5152POPC   C4A12618  18.286   6.658   7.650
 5152POPC   C1B12619  18.236   6.390   8.550
 5152POPC   C2B12620  18.169   6.440   8.250
 5152POPC   C3B12621  18.186   6.426   7.950
 5152POPC   C4B12622  18.233   6.430   7.650
 5153POPC   NC312623  40.765  11.347   9.450
 5153POPC   PO412624  40.815  11.275   9.150
 5153POPC   GL112625  40.827  11.303   8.850
 5153POPC   GL212626  40.679  11.254   8.850
 5153POPC   C1A12627  40.801  11.330   8.550
 5153POPC   D2A12628  40.803  11.284   8.250
 5153POPC   C3A12629  40.766  11.344   7.950
 5153POPC   C4A12630  40.778  11.256   7.650
 5153POPC   C1B12631  40.573  11.168   8.550
 5153POPC   C2B12632  40.596  11.232   8.250
 5153POPC   C3B12633  40.579  11.151   7.950
 5153POPC   C4B12634  40.541  11.169   7.650
 5154POPC   NC312635  23.673  29.139   9.450
 5154POPC   PO412636  23.682  29.174   9.150
 5154POPC   GL112637  23.745  29.122   8.850
 5154POPC   GL212638  23.818  29.129   8.850
 5154POPC   C1A12639  23.717  29.110   8.550
 5154POPC   D2A12640  23.683  29.183   8.250
 5154POPC   C3A12641  23.683  29.135   7.950
 5154POPC   C4A12642  23.757  29.181   7.650
 5154POPC   C1B12643  23.929  29.184   8.550
 5154POPC   C2B12644  23.947  29.142   8.250
 5154POPC   C3B12645  23.931  29.153   7.950
 5154POPC   C4B12646  23.998  29.130   7.650
 5155POPC   NC312647  27.613   5.839   9.450
 5155POPC   PO412648  27.630   5.904   9.150
 5155POPC   GL112649  27.558   5.895   8.850
 5155POPC   GL212650  27.733   5.881   8.850
 5155POPC   C1A12651  27.571   5.829   8.550
 5155POPC   D2A12652  27.550   5.821   8.250
 5155POPC   C3A12653  27.553   5.852   7.950
 5155POPC   C4A12654  27.574   5.837   7.650
 5155POPC   C1B12655  27.867   5.882   8.550
 5155POPC   C2B12656  27.872   5.912   8.250
 5155POPC   C3B12657  27.824   5.906   7.950
 5155POPC   C4B12658  27.889   5.856   7.650
 5156POPC   NC312659  18.268  22.957   9.450
 5156POPC   PO412660  18.258  22.965   9.150
 5156POPC   GL112661  18.277  22.970   8.850
 5156POPC   GL212662  18.139  22.962   8.850
 5156POPC   C1A12663  18.269  22.937   8.550
 5156POPC   D2A12664  18.266  22.927   8.250
 5156POPC   C3A12665  18.286  22.926   7.950
 5156POPC   C4A12666  18.263  22.976   7.650
 5156POPC   C1B12667  18.024  22.913   8.550
 5156POPC   C2B12668  18.029  22.905   8.250
 5156POPC   C3B12669  18.036  22.915   7.950
 5156POPC   C4B12670  17.984  22.967   7.650
 5157POPC   NC312671  19.073  11.293   9.450
 5157POPC   PO412672  19.047  11.265   9.150
 5157POPC   GL112673  19.020  11.337   8.850
 5157POPC   GL212674  19.032  11.148   8.850
 5157POPC   C1A12675  19.041  11.314   8.550
 5157POPC   D2A12676  19.059  11.263   8.250
 5157POPC   C3A12677  19.090  11.333   7.950
 5157POPC   C4A12678  19.108  11.286   7.650
 5157POPC   C1B12679  18.920  11.030   8.550
 5157POPC   C2B12680  18.976  11.062   8.250
 5157POPC   C3B12681  18.923  11.091   7.950
 5157POPC   C4B12682  18.944  11.105   7.650
 5158POPC   NC312683  18.284  25.239   9.450
 5158POPC   PO412684  18.261  25.283   9.150
 5158POPC   GL112685  18.251  25.286   8.850
 5158POPC   GL212686  18.159  25.235   8.850
 5158POPC   C1A12687  18.331  25.260   8.550
 5158POPC   D2A12688  18.306  25.251   8.250
 5158POPC   C3A12689  18.299  25.292   7.950
 5158POPC   C4A12690  18.316  25.266   7.650
 5158POPC   C1B12691  18.065  25.257   8.550
 5158POPC   C2B12692  18.057  25.298   8.250
 5158POPC   C3B12693  18.015  25.344   7.950
 5158POPC   C4B12694  18.025  25.267   7.650
 5159POPC   NC312695  19.841   7.421   9.450
 5159POPC   PO412696  19.823   7.404   9.150
 5159POPC   GL112697  19.872   7.410   8.850
 5159POPC   GL212698  19.768   7.348   8.850
 5159POPC   C1A12699  19.851   7.372   8.550
 5159POPC   D2A12700  19.788   7.433   8.250
 5159POPC   C3A12701  19.870   7.467   7.950
 5159POPC   C4A12702  19.803   7.384   7.650
 5159POPC   C1B12703  19.670   7.252   8.550
 5159POPC   C2B12704  19.678   7.248   8.250
 5159POPC   C3B12705  19.709   7.264   7.950
 5159POPC   C4B12706  19.719   7.221   7.650
 5160POPC   NC312707  22.127   8.202   9.450
 5160POPC   PO412708  22.159   8.220   9.150
 5160POPC   GL112709  22.208   8.157   8.850
 5160POPC   GL212710  22.234   8.309   8.850
 5160POPC   C1A12711  22.149   8.199   8.550
 5160POPC   D2A12712  22.209   8.224   8.250
 5160POPC   C3A12713  22.158   8.211   7.950
 5160POPC   C4A12714  22.126   8.209   7.650
 5160POPC   C1B12715  22.224   8.468   8.550
 5160POPC   C2B12716  22.237   8.480   8.250
 5160POPC   C3B12717  22.194   8.490   7.950
 5160POPC   C4B12718  22.247   8.461   7.650
 5161POPC   NC312719  18.266   4.314   9.450
 5161POPC   PO412720  18.271   4.292   9.150
 5161POPC   GL112721  18.277   4.273   8.850
 5161POPC   GL212722  18.431   4.351   8.850
 5161POPC   C1A12723  18.315   4.298   8.550
 5161POPC   D2A12724  18.260   4.355   8.250
 5161POPC   C3A12725  18.244   4.353   7.950
 5161POPC   C4A12726  18.254   4.324   7.650
 5161POPC   C1B12727  18.485   4.404   8.550
 5161POPC   C2B12728  18.508   4.384   8.250
 5161POPC   C3B12729  18.556   4.409   7.950
 5161POPC   C4B12730  18.567   4.339   7.650
 5162POPC   NC312731   5.917  27.578   9.450
 5162POPC   PO412732   5.861  27.582   9.150
 5162POPC   GL112733   5.876  27.548   8.850
 5162POPC   GL212734   5.915  27.482   8.850
 5162POPC   C1A12735   5.842  27.617   8.550
 5162POPC   D2A12736   5.900  27.596   8.250
 5162POPC   C3A12737   5.857  27.600   7.950
 5162POPC   C4A12738   5.882  27.572   7.650
 5162POPC   C1B12739   6.021  27.428   8.550
 5162POPC   C2B12740   5.964  27.397   8.250
 5162POPC   C3B12741   6.000  27.374   7.950
 5162POPC   C4B12742   5.993  27.399   7.650
 5163POPC   NC312743  17.554   5.875   9.450
 5163POPC   PO412744  17.521   5.906   9.150
 5163POPC   GL112745  17.526   5.907   8.850
 5163POPC   GL212746  17.530   5.715   8.850
 5163POPC   C1A12747  17.463   5.844   8.550
 5163POPC   D2A12748  17.489   5.840   8.250
 5163POPC   C3A12749  17.469   5.847   7.950
 5163POPC   C4A12750  17.532   5.906   7.650
 5163POPC   C1B12751  17.588   5.688   8.550
 5163POPC   C2B12752  17.596   5.697   8.250
 5163POPC   C3B12753  17.615   5.641   7.950
 5163POPC   C4B12754  17.593   5.645   7.650
 5164POPC   NC312755  42.336  33.001   9.450
 5164POPC   PO412756  42.340  33.006   9.150
 5164POPC   GL112757  42.300  33.042   8.850
 5164POPC   GL212758  42.215  33.031   8.850
 5164POPC   C1A12759  42.321  33.005   8.550
 5164POPC   D2A12760  42.315  32.990   8.250
 5164POPC   C3A12761  42.354  33.056   7.950
 5164POPC   C4A12762  42.333  33.029   7.650
 5164POPC   C1B12763  42.076  33.029   8.550
 5164POPC   C2B12764  42.119  33.000   8.250
 5164POPC   C3B12765  42.052  32.999   7.950
 5164POPC   C4B12766  42.081  33.036   7.650
 5165POPC   NC312767   7.455  20.566   9.450
 5165POPC   PO412768   7.442  20.630   9.150
 5165POPC   GL112769   7.375  20.605   8.850
 5165POPC   GL212770   7.300  20.678   8.850
 5165POPC   C1A12771   7.396  20.654   8.550
 5165POPC   D2A12772   7.397  20.650   8.250
 5165POPC   C3A12773   7.470  20.644   7.950
 5165POPC   C4A12774   7.422  20.572   7.650
 5165POPC   C1B12775   7.191  20.707   8.550
 5165POPC   C2B12776   7.188  20.660   8.250
 5165POPC   C3B12777   7.183  20.659   7.950
 5165POPC   C4B12778   7.204  20.704   7.650
 5166POPC   NC312779  16.738   4.333   9.450
 5166POPC   PO412780  16.704   4.316   9.150
 5166POPC   GL112781  16.781   4.322   8.850
 5166POPC   GL212782  16.614   4.206   8.850
 5166POPC   C1A12783  16.683   4.314   8.550
 5166POPC   D2A12784  16.775   4.347   8.250
 5166POPC   C3A12785  16.721   4.307   7.950
 5166POPC   C4A12786  16.704   4.271   7.650
 5166POPC   C1B12787  16.539   4.141   8.550
 5166POPC   C2B12788  16.572   4.161   8.250
 5166POPC   C3B12789  16.562   4.192   7.950
 5166POPC   C4B12790  16.552   4.206   7.650
 5167POPC   NC312791  41.581  28.361   9.450
 5167POPC   PO412792  41.563  28.346   9.150
 5167POPC   GL112793  41.578  28.351   8.850
 5167POPC   GL212794  41.483  28.244   8.850
 5167POPC   C1A12795  41.572  28.338   8.550
 5167POPC   D2A12796  41.538  28.403   8.250
 5167POPC   C3A12797  41.509  28.351   7.950
 5167POPC   C4A12798  41.546  28.375   7.650
 5167POPC   C1B12799  41.364  28.197   8.550
 5167POPC   C2B12800  41.422  28.225   8.250
 5167POPC   C3B12801  41.428  28.203   7.950
 5167POPC   C4B12802  41.352  28.214   7.650
 5168POPC   NC312803  32.987  41.547   9.450
 5168POPC   PO412804  32.991  41.522   9.150
 5168POPC   GL112805  33.013  41.554   8.850
 5168POPC   GL212806  32.949  41.680   8.850
 5168POPC   C1A12807  33.039  41.603   8.550
 5168POPC   D2A12808  32.999  41.509   8.250
 5168POPC   C3A12809  32.991  41.556   7.950
 5168POPC   C4A12810  33.015  41.566   7.650
 5168POPC   C1B12811  32.892  41.746   8.550
 5168POPC   C2B12812  32.913  41.785   8.250
 5168POPC   C3B12813  32.901  41.737   7.950
 5168POPC   C4B12814  32.915  41.756   7.650
 5169POPC   NC312815   3.581  29.127   9.450
 5169POPC   PO412816   3.498  29.116   9.150
 5169POPC   GL112817   3.535  29.191   8.850
 5169POPC   GL212818   3.673  29.147   8.850
 5169POPC   C1A12819   3.533  29.169   8.550
 5169POPC   D2A12820   3.491  29.098   8.250
 5169POPC   C3A12821   3.556  29.097   7.950
 5169POPC   C4A12822   3.549  29.177   7.650
 5169POPC   C1B12823   3.762  29.229   8.550
 5169POPC   C2B12824   3.789  29.236   8.250
 5169POPC   C3B12825   3.817  29.234   7.950
 5169POPC   C4B12826   3.742  29.280   7.650
 5170POPC   NC312827  11.336  42.297   9.450
 5170POPC   PO412828  11.278  42.365   9.150
 5170POPC   GL112829  11.303  42.302   8.850
 5170POPC   GL212830  11.269  42.193   8.850
 5170POPC   C1A12831  11.314  42.286   8.550
 5170POPC   D2A12832  11.268  42.285   8.250
 5170POPC   C3A12833  11.264  42.343   7.950
 5170POPC   C4A12834  11.299  42.299   7.650
 5170POPC   C1B12835  11.255  42.114   8.550
 5170POPC   C2B12836  11.275  42.122   8.250
 5170POPC   C3B12837  11.283  42.068   7.950
 5170POPC   C4B12838  11.297  42.103   7.650
 5171POPC   NC312839   0.417  13.597   9.450
 5171POPC   PO412840   0.457  13.624   9.150
 5171POPC   GL112841   0.487  13.628   8.850
 5171POPC   GL212842   0.564  13.512   8.850
 5171POPC   C1A12843   0.470  13.662   8.550
 5171POPC   D2A12844   0.438  13.601   8.250
 5171POPC   C3A12845   0.468  13.578   7.950
 5171POPC   C4A12846   0.420  13.628   7.650
 5171POPC   C1B12847   0.566  13.407   8.550
 5171POPC   C2B12848   0.554  13.486   8.250
 5171POPC   C3B12849   0.618  13.391   7.950
 5171POPC   C4B12850   0.587  13.443   7.650
 5172POPC   NC312851  29.923  24.457   9.450
 5172POPC   PO412852  29.947  24.471   9.150
 5172POPC   GL112853  29.881  24.448   8.850
 5172POPC   GL212854  29.992  24.547   8.850
 5172POPC   C1A12855  29.925  24.491   8.550
 5172POPC   D2A12856  29.896  24.489   8.250
 5172POPC   C3A12857  29.932  24.481   7.950
 5172POPC   C4A12858  29.970  24.487   7.650
 5172POPC   C1B12859  30.152  24.595   8.550
 5172POPC   C2B12860  30.182  24.650   8.250
 5172POPC   C3B12861  30.141  24.640   7.950
 5172POPC   C4B12862  30.127  24.569   7.650
 5173POPC   NC312863  18.309   1.992   9.450
 5173POPC   PO412864  18.260   1.953   9.150
 5173POPC   GL112865  18.290   1.965   8.850
 5173POPC   GL212866  18.221   2.075   8.850
 5173POPC   C1A12867  18.290   1.961   8.550
 5173POPC   D2A12868  18.267   1.965   8.250
 5173POPC   C3A12869  18.265   2.034   7.950
 5173POPC   C4A12870  18.275   1.986   7.650
 5173POPC   C1B12871  18.116   2.132   8.550
 5173POPC   C2B12872  18.122   2.169   8.250
 5173POPC   C3B12873  18.121   2.127   7.950
 5173POPC   C4B12874  18.159   2.170   7.650
 5174POPC   NC312875   5.097  36.118   9.450
 5174POPC   PO412876   5.098  36.103   9.150
 5174POPC   GL112877   5.044  36.169   8.850
 5174POPC   GL212878   5.248  36.234   8.850
 5174POPC   C1A12879   5.105  36.149   8.550
 5174POPC   D2A12880   5.113  36.099   8.250
 5174POPC   C3A12881   5.094  36.131   7.950
 5174POPC   C4A12882   5.095  36.144   7.650
 5174POPC   C1B12883   5.314  36.218   8.550
 5174POPC   C2B12884   5.298  36.194   8.250
 5174POPC   C3B12885   5.349  36.286   7.950
 5174POPC   C4B12886   5.288  36.271   7.650
 5175POPC   NC312887  36.166  19.884   9.450
 5175POPC   PO412888  36.145  19.850   9.150
 5175POPC   GL112889  36.101  19.836   8.850
 5175POPC   GL212890  36.180  19.679   8.850
 5175POPC   C1A12891  36.134  19.881   8.550
 5175POPC   D2A12892  36.145  19.830   8.250
 5175POPC   C3A12893  36.178  19.807   7.950
 5175POPC   C4A12894  36.159  19.813   7.650
 5175POPC   C1B12895  36.115  19.574   8.550
 5175POPC   C2B12896  36.095  19.565   8.250
 5175POPC   C3B12897  36.159  19.632   7.950
 5175POPC   C4B12898  36.178  19.592   7.650
 5176POPC   NC312899  36.902  42.297   9.450
 5176POPC   PO412900  36.918  42.329   9.150
 5176POPC   GL112901  36.929  42.375   8.850
 5176POPC   GL212902  37.037  42.376   8.850
 5176POPC   C1A12903  36.882  42.285   8.550
 5176POPC   D2A12904  36.941  42.309   8.250
 5176POPC   C3A12905  36.866  42.315   7.950
 5176POPC   C4A12906  36.909  42.360   7.650
 5176POPC   C1B12907  37.157  42.411   8.550
 5176POPC   C2B12908  37.129  42.350   8.250
 5176POPC   C3B12909  37.107  42.395   7.950
 5176POPC   C4B12910  37.201  42.335   7.650
 5177POPC   NC312911   4.268  21.434   9.450
 5177POPC   PO412912   4.336  21.377   9.150
 5177POPC   GL112913   4.286  21.353   8.850
 5177POPC   GL212914   4.346  21.498   8.850
 5177POPC   C1A12915   4.322  21.340   8.550
 5177POPC   D2A12916   4.335  21.351   8.250
 5177POPC   C3A12917   4.327  21.435   7.950
 5177POPC   C4A12918   4.363  21.430   7.650
 5177POPC   C1B12919   4.292  21.613   8.550
 5177POPC   C2B12920   4.278  21.616   8.250
 5177POPC   C3B12921   4.336  21.606   7.950
 5177POPC   C4B12922   4.285  21.634   7.650
 5178POPC   NC312923  32.296  36.086   9.450
 5178POPC   PO412924  32.293  36.173   9.150
 5178POPC   GL112925  32.273  36.101   8.850
 5178POPC   GL212926  32.169  36.207   8.850
 5178POPC   C1A12927  32.224  36.130   8.550
 5178POPC   D2A12928  32.269  36.128   8.250
 5178POPC   C3A12929  32.208  36.122   7.950
 5178POPC   C4A12930  32.251  36.147   7.650
 5178POPC   C1B12931  32.202  36.332   8.550
 5178POPC   C2B12932  32.212  36.345   8.250
 5178POPC   C3B12933  32.161  36.331   7.950
 5178POPC   C4B12934  32.203  36.391   7.650
 5179POPC   NC312935  26.830   5.853   9.450
 5179POPC   PO412936  26.859   5.839   9.150
 5179POPC   GL112937  26.782   5.827   8.850
 5179POPC   GL212938  26.743   5.859   8.850
 5179POPC   C1A12939  26.770   5.866   8.550
 5179POPC   D2A12940  26.802   5.835   8.250
 5179POPC   C3A12941  26.819   5.886   7.950
 5179POPC   C4A12942  26.846   5.869   7.650
 5179POPC   C1B12943  26.538   5.821   8.550
 5179POPC   C2B12944  26.620   5.855   8.250
 5179POPC   C3B12945  26.535   5.865   7.950
 5179POPC   C4B12946  26.556   5.870   7.650
 5180POPC   NC312947  14.431  24.445   9.450
 5180POPC   PO412948  14.372  24.508   9.150
 5180POPC   GL112949  14.364  24.494   8.850
 5180POPC   GL212950  14.503  24.427   8.850
 5180POPC   C1A12951  14.371  24.523   8.550
 5180POPC   D2A12952  14.451  24.444   8.250
 5180POPC   C3A12953  14.361  24.443   7.950
 5180POPC   C4A12954  14.442  24.475   7.650
 5180POPC   C1B12955  14.623  24.426   8.550
 5180POPC   C2B12956  14.675  24.383   8.250
 5180POPC   C3B12957  14.620  24.410   7.950
 5180POPC   C4B12958  14.661  24.405   7.650
 5181POPC   NC312959  43.897   2.783   9.450
 5181POPC   PO412960  43.866   2.777   9.150
 5181POPC   GL112961  43.847   2.780   8.850
 5181POPC   GL212962  43.953   2.652   8.850
 5181POPC   C1A12963  43.919   2.811   8.550
 5181POPC   D2A12964  43.841   2.795   8.250
 5181POPC   C3A12965  43.849   2.755   7.950
 5181POPC   C4A12966  43.849   2.786   7.650
 5181POPC   C1B12967  44.046   2.584   8.550
 5181POPC   C2B12968  44.031   2.615   8.250
 5181POPC   C3B12969  44.083   2.596   7.950
 5181POPC   C4B12970  44.024   2.608   7.650
 5182POPC   NC312971   7.449   0.459   9.450
 5182POPC   PO412972   7.392   0.394   9.150
 5182POPC   GL112973   7.446   0.391   8.850
 5182POPC   GL212974   7.298   0.432   8.850
 5182POPC   C1A12975   7.417   0.445   8.550
 5182POPC   D2A12976   7.463   0.450   8.250
 5182POPC   C3A12977   7.468   0.456   7.950
 5182POPC   C4A12978   7.436   0.464   7.650
 5182POPC   C1B12979   7.226   0.359   8.550
 5182POPC   C2B12980   7.186   0.337   8.250
 5182POPC   C3B12981   7.162   0.374   7.950
 5182POPC   C4B12982   7.227   0.362   7.650
 5183POPC   NC312983  40.823   7.411   9.450
 5183POPC   PO412984  40.800   7.395   9.150
 5183POPC   GL112985  40.751   7.423   8.850
 5183POPC   GL212986  40.730   7.331   8.850
 5183POPC   C1A12987  40.770   7.379   8.550
 5183POPC   D2A12988  40.792   7.428   8.250
 5183POPC   C3A12989  40.816   7.436   7.950
 5183POPC   C4A12990  40.801   7.427   7.650
 5183POPC   C1B12991  40.714   7.154   8.550
 5183POPC   C2B12992  40.648   7.163   8.250
 5183POPC   C3B12993  40.655   7.158   7.950
 5183POPC   C4B12994  40.667   7.194   7.650
 5184POPC   NC312995  22.176   7.433   9.450
 5184POPC   PO412996  22.196   7.392   9.150
 5184POPC   GL112997  22.129   7.421   8.850
 5184POPC   GL212998  21.998   7.471   8.850
 5184POPC   C1A12999  22.128   7.412   8.550
 5184POPC   D2A13000  22.151   7.414   8.250
 5184POPC   C3A13001  22.199   7.412   7.950
 5184POPC   C4A13002  22.147   7.386   7.650
 5184POPC   C1B13003  21.897   7.492   8.550
 5184POPC   C2B13004  21.930   7.472   8.250
 5184POPC   C3B13005  21.931   7.490   7.950
 5184POPC   C4B13006  21.916   7.517   7.650
 5185POPC   NC313007  22.930   7.462   9.450
 5185POPC   PO413008  22.898   7.393   9.150
 5185POPC   GL113009  22.958   7.445   8.850
 5185POPC   GL213010  22.800   7.383   8.850
 5185POPC   C1A13011  22.965   7.441   8.550
 5185POPC   D2A13012  22.955   7.448   8.250
 5185POPC   C3A13013  22.968   7.384   7.950
 5185POPC   C4A13014  22.910   7.425   7.650
 5185POPC   C1B13015  22.678   7.410   8.550
 5185POPC   C2B13016  22.713   7.422   8.250
 5185POPC   C3B13017  22.705   7.413   7.950
 5185POPC   C4B13018  22.675   7.408   7.650
 5186POPC   NC313019   5.913   8.996   9.450
 5186POPC   PO413020   5.908   8.940   9.150
 5186POPC   GL113021   5.819   8.924   8.850
 5186POPC   GL213022   5.885   9.144   8.850
 5186POPC   C1A13023   5.886   8.995   8.550
 5186POPC   D2A13024   5.867   8.948   8.250
 5186POPC   C3A13025   5.831   8.947   7.950
 5186POPC   C4A13026   5.854   9.010   7.650
 5186POPC   C1B13027   5.887   9.193   8.550
 5186POPC   C2B13028   5.886   9.247   8.250
 5186POPC   C3B13029   5.903   9.224   7.950
 5186POPC   C4B13030   5.817   9.214   7.650
 5187POPC   NC313031   0.442   2.784   9.450
 5187POPC   PO413032   0.389   2.770   9.150
 5187POPC   GL113033   0.406   2.794   8.850
 5187POPC   GL213034   0.389   2.668   8.850
 5187POPC   C1A13035   0.394   2.814   8.550
 5187POPC   D2A13036   0.410   2.746   8.250
 5187POPC   C3A13037   0.427   2.802   7.950
 5187POPC   C4A13038   0.487   2.778   7.650
 5187POPC   C1B13039   0.292   2.649   8.550
 5187POPC   C2B13040   0.267   2.566   8.250
 5187POPC   C3B13041   0.224   2.562   7.950
 5187POPC   C4B13042   0.230   2.641   7.650
 5188POPC   NC313043  21.373  10.562   9.450
 5188POPC   PO413044  21.353  10.484   9.150
 5188POPC   GL113045  21.399  10.570   8.850
 5188POPC   GL213046  21.370  10.637   8.850
 5188POPC   C1A13047  21.399  10.550   8.550
 5188POPC   D2A13048  21.397  10.564   8.250
 5188POPC   C3A13049  21.436  10.523   7.950
 5188POPC   C4A13050  21.357  10.537   7.650
 5188POPC   C1B13051  21.412  10.747   8.550
 5188POPC   C2B13052  21.379  10.790   8.250
 5188POPC   C3B13053  21.327  10.726   7.950
 5188POPC   C4B13054  21.382  10.800   7.650
 5189POPC   NC313055  15.915  29.942   9.450
 5189POPC   PO413056  15.932  29.969   9.150
 5189POPC   GL113057  15.991  29.879   8.850
 5189POPC   GL213058  15.834  29.962   8.850
 5189POPC   C1A13059  15.922  29.882   8.550
 5189POPC   D2A13060  15.973  29.925   8.250
 5189POPC   C3A13061  15.992  29.929   7.950
 5189POPC   C4A13062  15.914  29.892   7.650
 5189POPC   C1B13063  15.667  29.949   8.550
 5189POPC   C2B13064  15.670  29.940   8.250
 5189POPC   C3B13065  15.688  29.918   7.950
 5189POPC   C4B13066  15.667  29.951   7.650
 5190POPC   NC313067   9.755  29.919   9.450
 5190POPC   PO413068   9.751  29.904   9.150
 5190POPC   GL113069   9.731  29.871   8.850
 5190POPC   GL213070   9.817  29.862   8.850
 5190POPC   C1A13071   9.790  29.969   8.550
 5190POPC   D2A13072   9.771  29.949   8.250
 5190POPC   C3A13073   9.792  29.926   7.950
 5190POPC   C4A13074   9.757  29.900   7.650
 5190POPC   C1B13075   9.907  29.803   8.550
 5190POPC   C2B13076   9.899  29.811   8.250
 5190POPC   C3B13077   9.902  29.741   7.950
 5190POPC   C4B13078   9.902  29.722   7.650
 5191POPC   NC313079  14.402  11.253   9.450
 5191POPC   PO413080  14.369  11.315   9.150
 5191POPC   GL113081  14.374  11.304   8.850
 5191POPC   GL213082  14.302  11.213   8.850
 5191POPC   C1A13083  14.390  11.306   8.550
 5191POPC   D2A13084  14.379  11.341   8.250
 5191POPC   C3A13085  14.419  11.340   7.950
 5191POPC   C4A13086  14.361  11.311   7.650
 5191POPC   C1B13087  14.177  11.162   8.550
 5191POPC   C2B13088  14.238  11.166   8.250
 5191POPC   C3B13089  14.222  11.135   7.950
 5191POPC   C4B13090  14.248  11.131   7.650
 5192POPC   NC313091  12.900   8.983   9.450
 5192POPC   PO413092  12.866   8.994   9.150
 5192POPC   GL113093  12.852   8.960   8.850
 5192POPC   GL213094  12.792   8.867   8.850
 5192POPC   C1A13095  12.808   8.935   8.550
 5192POPC   D2A13096  12.871   8.930   8.250
 5192POPC   C3A13097  12.810   8.947   7.950
 5192POPC   C4A13098  12.850   8.972   7.650
 5192POPC   C1B13099  12.646   8.807   8.550
 5192POPC   C2B13100  12.694   8.766   8.250
 5192POPC   C3B13101  12.626   8.787   7.950
 5192POPC   C4B13102  12.703   8.796   7.650
 5193POPC   NC313103  39.972   7.433   9.450
 5193POPC   PO413104  39.973   7.466   9.150
 5193POPC   GL113105  39.994   7.432   8.850
 5193POPC   GL213106  39.951   7.536   8.850
 5193POPC   C1A13107  39.972   7.381   8.550
 5193POPC   D2A13108  40.033   7.379   8.250
 5193POPC   C3A13109  39.989   7.388   7.950
 5193POPC   C4A13110  39.998   7.427   7.650
 5193POPC   C1B13111  39.981   7.623   8.550
 5193POPC   C2B13112  39.968   7.661   8.250
 5193POPC   C3B13113  39.956   7.675   7.950
 5193POPC   C4B13114  39.984   7.624   7.650
 5194POPC   NC313115  33.048  19.811   9.450
 5194POPC   PO413116  33.069  19.854   9.150
 5194POPC   GL113117  32.982  19.837   8.850
 5194POPC   GL213118  32.964  19.929   8.850
 5194POPC   C1A13119  33.074  19.806   8.550
 5194POPC   D2A13120  32.992  19.881   8.250
 5194POPC   C3A13121  33.011  19.819   7.950
 5194POPC   C4A13122  33.052  19.831   7.650
 5194POPC   C1B13123  32.930  20.057   8.550
 5194POPC   C2B13124  32.952  20.106   8.250
 5194POPC   C3B13125  32.952  20.016   7.950
 5194POPC   C4B13126  32.866  20.063   7.650
 5195POPC   NC313127  25.995  33.842   9.450
 5195POPC   PO413128  26.004  33.773   9.150
 5195POPC   GL113129  26.067  33.803   8.850
 5195POPC   GL213130  25.932  33.759   8.850
 5195POPC   C1A13131  26.071  33.849   8.550
 5195POPC   D2A13132  26.056  33.823   8.250
 5195POPC   C3A13133  26.038  33.815   7.950
 5195POPC   C4A13134  26.078  33.845   7.650
 5195POPC   C1B13135  25.822  33.747   8.550
 5195POPC   C2B13136  25.764  33.747   8.250
 5195POPC   C3B13137  25.800  33.760   7.950
 5195POPC   C4B13138  25.771  33.711   7.650
 5196POPC   NC313139  24.461  15.919   9.450
 5196POPC   PO413140  24.450  15.973   9.150
 5196POPC   GL113141  24.491  15.937   8.850
 5196POPC   GL213142  24.500  15.859   8.850
 5196POPC   C1A13143  24.465  15.984   8.550
 5196POPC   D2A13144  24.456  16.001   8.250
 5196POPC   C3A13145  24.477  15.943   7.950
 5196POPC   C4A13146  24.450  15.939   7.650
 5196POPC   C1B13147  24.489  15.747   8.550
 5196POPC   C2B13148  24.410  15.721   8.250
 5196POPC   C3B13149  24.430  15.713   7.950
 5196POPC   C4B13150  24.496  15.674   7.650
 5197POPC   NC313151  35.348  31.503   9.450
 5197POPC   PO413152  35.399  31.510   9.150
 5197POPC   GL113153  35.399  31.475   8.850
 5197POPC   GL213154  35.526  31.482   8.850
 5197POPC   C1A13155  35.342  31.440   8.550
 5197POPC   D2A13156  35.362  31.425   8.250
 5197POPC   C3A13157  35.370  31.440   7.950
 5197POPC   C4A13158  35.325  31.450   7.650
 5197POPC   C1B13159  35.594  31.540   8.550
 5197POPC   C2B13160  35.627  31.455   8.250
 5197POPC   C3B13161  35.594  31.473   7.950
 5197POPC   C4B13162  35.573  31.537   7.650
 5198POPC   NC313163  25.292  36.883   9.450
 5198POPC   PO413164  25.286  36.919   9.150
 5198POPC   GL113165  25.242  36.871   8.850
 5198POPC   GL213166  25.384  36.853   8.850
 5198POPC   C1A13167  25.233  36.924   8.550
 5198POPC   D2A13168  25.247  36.860   8.250
 5198POPC   C3A13169  25.265  36.911   7.950
 5198POPC   C4A13170  25.303  36.901   7.650
 5198POPC   C1B13171  25.479  36.789   8.550
 5198POPC   C2B13172  25.502  36.803   8.250
 5198POPC   C3B13173  25.512  36.793   7.950
 5198POPC   C4B13174  25.467  36.796   7.650
 5199POPC   NC313175   4.305  32.293   9.450
 5199POPC   PO413176   4.301  32.245   9.150
 5199POPC   GL113177   4.345  32.242   8.850
 5199POPC   GL213178   4.371  32.357   8.850
 5199POPC   C1A13179   4.300  32.240   8.550
 5199POPC   D2A13180   4.289  32.251   8.250
 5199POPC   C3A13181   4.282  32.285   7.950
 5199POPC   C4A13182   4.293  32.239   7.650
 5199POPC   C1B13183   4.459  32.431   8.550
 5199POPC   C2B13184   4.498  32.423   8.250
 5199POPC   C3B13185   4.436  32.450   7.950
 5199POPC   C4B13186   4.452  32.410   7.650
 5200POPC   NC313187  22.920  18.278   9.450
 5200POPC   PO413188  22.891  18.269   9.150
 5200POPC   GL113189  22.949  18.327   8.850
 5200POPC   GL213190  22.938  18.173   8.850
 5200POPC   C1A13191  22.947  18.272   8.550
 5200POPC   D2A13192  22.951  18.247   8.250
 5200POPC   C3A13193  22.956  18.257   7.950
 5200POPC   C4A13194  22.894  18.290   7.650
 5200POPC   C1B13195  23.054  18.012   8.550
 5200POPC   C2B13196  22.963  18.093   8.250
 5200POPC   C3B13197  23.047  18.049   7.950
 5200POPC   C4B13198  23.047  18.036   7.650
 5201POPC   NC313199   8.986  22.918   9.450
 5201POPC   PO413200   8.984  22.943   9.150
 5201POPC   GL113201   9.021  22.901   8.850
 5201POPC   GL213202   8.951  22.773   8.850
 5201POPC   C1A13203   8.941  22.961   8.550
 5201POPC   D2A13204   8.967  22.945   8.250
 5201POPC   C3A13205   8.981  22.925   7.950
 5201POPC   C4A13206   8.947  22.900   7.650
 5201POPC   C1B13207   8.918  22.687   8.550
 5201POPC   C2B13208   8.961  22.659   8.250
 5201POPC   C3B13209   8.921  22.690   7.950
 5201POPC   C4B13210   8.945  22.678   7.650
 5202POPC   NC313211   9.718  44.637   9.450
 5202POPC   PO413212   9.762  44.615   9.150
 5202POPC   GL113213   9.710  44.648   8.850
 5202POPC   GL213214   9.836  44.610   8.850
 5202POPC   C1A13215   9.735  44.682   8.550
 5202POPC   D2A13216   9.795  44.711   8.250
 5202POPC   C3A13217   9.753  44.666   7.950
 5202POPC   C4A13218   9.749  44.679   7.650
 5202POPC   C1B13219   9.914  44.538   8.550
 5202POPC   C2B13220   9.941  44.501   8.250
 5202POPC   C3B13221   9.980  44.516   7.950
 5202POPC   C4B13222   9.965  44.525   7.650
 5203POPC   NC313223   9.744   6.622   9.450
 5203POPC   PO413224   9.729   6.651   9.150
 5203POPC   GL113225   9.705   6.614   8.850
 5203POPC   GL213226   9.827   6.693   8.850
 5203POPC   C1A13227   9.758   6.661   8.550
 5203POPC   D2A13228   9.790   6.675   8.250
 5203POPC   C3A13229   9.783   6.668   7.950
 5203POPC   C4A13230   9.784   6.634   7.650
 5203POPC   C1B13231   9.895   6.811   8.550
 5203POPC   C2B13232   9.917   6.839   8.250
 5203POPC   C3B13233   9.985   6.844   7.950
 5203POPC   C4B13234   9.911   6.760   7.650
 5204POPC   NC313235  15.968  17.542   9.450
 5204POPC   PO413236  15.917  17.514   9.150
 5204POPC   GL113237  15.940  17.515   8.850
 5204POPC   GL213238  16.087  17.444   8.850
 5204POPC   C1A13239  15.915  17.527   8.550
 5204POPC   D2A13240  15.961  17.554   8.250
 5204POPC   C3A13241  15.985  17.544   7.950
 5204POPC   C4A13242  15.969  17.477   7.650
 5204POPC   C1B13243  16.212  17.361   8.550
 5204POPC   C2B13244  16.178  17.372   8.250
 5204POPC   C3B13245  16.156  17.382   7.950
 5204POPC   C4B13246  16.222  17.427   7.650
 5205POPC   NC313247  43.140  44.709   9.450
 5205POPC   PO413248  43.111  44.631   9.150
 5205POPC   GL113249  43.079  44.624   8.850
 5205POPC   GL213250  43.057  44.503   8.850
 5205POPC   C1A13251  43.136  44.699   8.550
 5205POPC   D2A13252  43.095  44.666   8.250
 5205POPC   C3A13253  43.134  44.700   7.950
 5205POPC   C4A13254  43.117  44.685   7.650
 5205POPC   C1B13255  43.078  44.440   8.550
 5205POPC   C2B13256  43.106  44.370   8.250
 5205POPC   C3B13257  43.121  44.432   7.950
 5205POPC   C4B13258  43.061  44.448   7.650
 5206POPC   NC313259  40.050  25.223   9.450
 5206POPC   PO413260  40.037  25.290   9.150
 5206POPC   GL113261  39.968  25.289   8.850
 5206POPC   GL213262  40.075  25.315   8.850
 5206POPC   C1A13263  39.997  25.250   8.550
 5206POPC   D2A13264  40.017  25.243   8.250
 5206POPC   C3A13265  39.976  25.297   7.950
 5206POPC   C4A13266  39.969  25.277   7.650
 5206POPC   C1B13267  40.163  25.465   8.550
 5206POPC   C2B13268  40.184  25.446   8.250
 5206POPC   C3B13269  40.194  25.406   7.950
 5206POPC   C4B13270  40.166  25.473   7.650
 5207POPC   NC313271   5.117  31.425   9.450
 5207POPC   PO413272   5.104  31.506   9.150
 5207POPC   GL113273   5.134  31.475   8.850
 5207POPC   GL213274   5.057  31.335   8.850
 5207POPC   C1A13275   5.096  31.434   8.550
 5207POPC   D2A13276   5.109  31.477   8.250
 5207POPC   C3A13277   5.125  31.470   7.950
 5207POPC   C4A13278   5.118  31.472   7.650
 5207POPC   C1B13279   5.137  31.230   8.550
 5207POPC   C2B13280   5.116  31.208   8.250
 5207POPC   C3B13281   5.099  31.211   7.950
 5207POPC   C4B13282   5.110  31.210   7.650
 5208POPC   NC313283  12.036   4.337   9.450
 5208POPC   PO413284  12.048   4.353   9.150
 5208POPC   GL113285  12.087   4.335   8.850
 5208POPC   GL213286  12.131   4.222   8.850
 5208POPC   C1A13287  12.057   4.347   8.550
 5208POPC   D2A13288  12.116   4.362   8.250
 5208POPC   C3A13289  12.109   4.323   7.950
 5208POPC   C4A13290  12.059   4.323   7.650
 5208POPC   C1B13291  12.114   4.025   8.550
 5208POPC   C2B13292  12.142   4.077   8.250
 5208POPC   C3B13293  12.112   4.057   7.950
 5208POPC   C4B13294  12.155   4.075   7.650
 5209POPC   NC313295  12.098  38.503   9.450
 5209POPC   PO413296  12.047  38.498   9.150
 5209POPC   GL113297  12.043  38.443   8.850
 5209POPC   GL213298  11.979  38.332   8.850
 5209POPC   C1A13299  12.092  38.414   8.550
 5209POPC   D2A13300  12.108  38.453   8.250
 5209POPC   C3A13301  12.100  38.452   7.950
 5209POPC   C4A13302  12.026  38.444   7.650
 5209POPC   C1B13303  11.943  38.184   8.550
 5209POPC   C2B13304  12.011  38.211   8.250
 5209POPC   C3B13305  11.987  38.194   7.950
 5209POPC   C4B13306  11.970  38.239   7.650
 5210POPC   NC313307  41.565  11.326   9.450
 5210POPC   PO413308  41.588  11.329   9.150
 5210POPC   GL113309  41.560  11.317   8.850
 5210POPC   GL213310  41.538  11.366   8.850
 5210POPC   C1A13311  41.573  11.275   8.550
 5210POPC   D2A13312  41.602  11.272   8.250
 5210POPC   C3A13313  41.563  11.264   7.950
 5210POPC   C4A13314  41.579  11.296   7.650
 5210POPC   C1B13315  41.476  11.540   8.550
 5210POPC   C2B13316  41.428  11.509   8.250
 5210POPC   C3B13317  41.486  11.567   7.950
 5210POPC   C4B13318  41.447  11.529   7.650
 5211POPC   NC313319  21.417  20.607   9.450
 5211POPC   PO413320  21.371  20.581   9.150
 5211POPC   GL113321  21.338  20.565   8.850
 5211POPC   GL213322  21.455  20.584   8.850
 5211POPC   C1A13323  21.404  20.572   8.550
 5211POPC   D2A13324  21.399  20.573   8.250
 5211POPC   C3A13325  21.342  20.604   7.950
 5211POPC   C4A13326  21.428  20.637   7.650
 5211POPC   C1B13327  21.571  20.521   8.550
 5211POPC   C2B13328  21.636  20.462   8.250
 5211POPC   C3B13329  21.613  20.556   7.950
 5211POPC   C4B13330  21.634  20.541   7.650
 5212POPC   NC313331  12.042  37.720   9.450
 5212POPC   PO413332  12.121  37.631   9.150
 5212POPC   GL113333  12.125  37.649   8.850
 5212POPC   GL213334  12.163  37.747   8.850
 5212POPC   C1A13335  12.059  37.638   8.550
 5212POPC   D2A13336  12.042  37.671   8.250
 5212POPC   C3A13337  12.081  37.647   7.950
 5212POPC   C4A13338  12.115  37.690   7.650
 5212POPC   C1B13339  12.351  37.719   8.550
 5212POPC   C2B13340  12.274  37.749   8.250
 5212POPC   C3B13341  12.335  37.778   7.950
 5212POPC   C4B13342  12.295  37.778   7.650
 5213POPC   NC313343  13.588  19.828   9.450
 5213POPC   PO413344  13.639  19.826   9.150
 5213POPC   GL113345  13.603  19.858   8.850
 5213POPC   GL213346  13.676  19.963   8.850
 5213POPC   C1A13347  13.659  19.841   8.550
 5213POPC   D2A13348  13.663  19.873   8.250
 5213POPC   C3A13349  13.646  19.804   7.950
 5213POPC   C4A13350  13.630  19.865   7.650
 5213POPC   C1B13351  13.677  20.103   8.550
 5213POPC   C2B13352  13.711  20.093   8.250
 5213POPC   C3B13353  13.699  20.127   7.950
 5213POPC   C4B13354  13.728  20.040   7.650
 5214POPC   NC313355  34.608  18.259   9.450
 5214POPC   PO413356  34.622  18.242   9.150
 5214POPC   GL113357  34.576  18.242   8.850
 5214POPC   GL213358  34.441  18.341   8.850
 5214POPC   C1A13359  34.560  18.266   8.550
 5214POPC   D2A13360  34.550  18.302   8.250
 5214POPC   C3A13361  34.623  18.310   7.950
 5214POPC   C4A13362  34.535  18.237   7.650
 5214POPC   C1B13363  34.386  18.350   8.550
 5214POPC   C2B13364  34.348  18.368   8.250
 5214POPC   C3B13365  34.344  18.421   7.950
 5214POPC   C4B13366  34.318  18.433   7.650
 5215POPC   NC313367  30.716  26.052   9.450
 5215POPC   PO413368  30.707  26.065   9.150
 5215POPC   GL113369  30.718  26.015   8.850
 5215POPC   GL213370  30.723  25.923   8.850
 5215POPC   C1A13371  30.697  25.997   8.550
 5215POPC   D2A13372  30.685  25.994   8.250
 5215POPC   C3A13373  30.708  26.019   7.950
 5215POPC   C4A13374  30.744  26.004   7.650
 5215POPC   C1B13375  30.782  25.762   8.550
 5215POPC   C2B13376  30.780  25.791   8.250
 5215POPC   C3B13377  30.841  25.772   7.950
 5215POPC   C4B13378  30.759  25.786   7.650
 5216POPC   NC313379   5.121  36.942   9.450
 5216POPC   PO413380   5.086  36.862   9.150
 5216POPC   GL113381   5.103  36.916   8.850
 5216POPC   GL213382   5.220  36.857   8.850
 5216POPC   C1A13383   5.092  36.937   8.550
 5216POPC   D2A13384   5.070  36.877   8.250
 5216POPC   C3A13385   5.063  36.869   7.950
 5216POPC   C4A13386   5.052  36.923   7.650
 5216POPC   C1B13387   5.278  36.743   8.550
 5216POPC   C2B13388   5.302  36.694   8.250
 5216POPC   C3B13389   5.303  36.717   7.950
 5216POPC   C4B13390   5.248  36.695   7.650
 5217POPC   NC313391   2.726   1.972   9.450
 5217POPC   PO413392   2.811   2.015   9.150
 5217POPC   GL113393   2.725   2.031   8.850
 5217POPC   GL213394   2.803   2.065   8.850
 5217POPC   C1A13395   2.734   2.001   8.550
 5217POPC   D2A13396   2.766   2.028   8.250
 5217POPC   C3A13397   2.730   1.954   7.950
 5217POPC   C4A13398   2.797   1.973   7.650
 5217POPC   C1B13399   2.752   2.264   8.550
 5217POPC   C2B13400   2.796   2.261   8.250
 5217POPC   C3B13401   2.779   2.280   7.950
 5217POPC   C4B13402   2.766   2.220   7.650
 5218POPC   NC313403   6.595   1.209   9.450
 5218POPC   PO413404   6.645   1.205   9.150
 5218POPC   GL113405   6.607   1.219   8.850
 5218POPC   GL213406   6.521   1.168   8.850
 5218POPC   C1A13407   6.653   1.254   8.550
 5218POPC   D2A13408   6.648   1.240   8.250
 5218POPC   C3A13409   6.610   1.260   7.950
 5218POPC   C4A13410   6.688   1.223   7.650
 5218POPC   C1B13411   6.422   1.102   8.550
 5218POPC   C2B13412   6.432   1.133   8.250
 5218POPC   C3B13413   6.424   1.096   7.950
 5218POPC   C4B13414   6.444   1.115   7.650
 5219POPC   NC313415  35.397  41.578   9.450
 5219POPC   PO413416  35.315  41.568   9.150
 5219POPC   GL113417  35.315  41.549   8.850
 5219POPC   GL213418  35.491  41.566   8.850
 5219POPC   C1A13419  35.346  41.517   8.550
 5219POPC   D2A13420  35.312  41.570   8.250
 5219POPC   C3A13421  35.385  41.542   7.950
 5219POPC   C4A13422  35.304  41.517   7.650
 5219POPC   C1B13423  35.597  41.590   8.550
 5219POPC   C2B13424  35.638  41.569   8.250
 5219POPC   C3B13425  35.581  41.613   7.950
 5219POPC   C4B13426  35.556  41.552   7.650
 5220POPC   NC313427  29.184  12.828   9.450
 5220POPC   PO413428  29.126  12.861   9.150
 5220POPC   GL113429  29.142  12.844   8.850
 5220POPC   GL213430  29.295  12.868   8.850
 5220POPC   C1A13431  29.121  12.885   8.550
 5220POPC   D2A13432  29.185  12.840   8.250
 5220POPC   C3A13433  29.161  12.851   7.950
 5220POPC   C4A13434  29.151  12.839   7.650
 5220POPC   C1B13435  29.412  12.854   8.550
 5220POPC   C2B13436  29.374  12.776   8.250
 5220POPC   C3B13437  29.368  12.795   7.950
 5220POPC   C4B13438  29.391  12.821   7.650
 5221POPC   NC313439  21.417   8.189   9.450
 5221POPC   PO413440  21.345   8.180   9.150
 5221POPC   GL113441  21.396   8.240   8.850
 5221POPC   GL213442  21.244   8.212   8.850
 5221POPC   C1A13443  21.409   8.195   8.550
 5221POPC   D2A13444  21.347   8.234   8.250
 5221POPC   C3A13445  21.410   8.239   7.950
 5221POPC   C4A13446  21.382   8.223   7.650
 5221POPC   C1B13447  21.152   8.164   8.550
 5221POPC   C2B13448  21.153   8.175   8.250
 5221POPC   C3B13449  21.185   8.184   7.950
 5221POPC   C4B13450  21.140   8.133   7.650
 5222POPC   NC313451   2.766   3.509   9.450
 5222POPC   PO413452   2.810   3.589   9.150
 5222POPC   GL113453   2.770   3.549   8.850
 5222POPC   GL213454   2.602   3.503   8.850
 5222POPC   C1A13455   2.786   3.504   8.550
 5222POPC   D2A13456   2.721   3.591   8.250
 5222POPC   C3A13457   2.743   3.532   7.950
 5222POPC   C4A13458   2.790   3.577   7.650
 5222POPC   C1B13459   2.489   3.603   8.550
 5222POPC   C2B13460   2.547   3.530   8.250
 5222POPC   C3B13461   2.547   3.586   7.950
 5222POPC   C4B13462   2.513   3.522   7.650
 5223POPC   NC313463  10.540  37.707   9.450
 5223POPC   PO413464  10.515  37.726   9.150
 5223POPC   GL113465  10.535  37.677   8.850
 5223POPC   GL213466  10.490  37.590   8.850
 5223POPC   C1A13467  10.570  37.689   8.550
 5223POPC   D2A13468  10.517  37.637   8.250
 5223POPC   C3A13469  10.544  37.651   7.950
 5223POPC   C4A13470  10.490  37.700   7.650
 5223POPC   C1B13471  10.414  37.478   8.550
 5223POPC   C2B13472  10.419  37.504   8.250
 5223POPC   C3B13473  10.379  37.407   7.950
 5223POPC   C4B13474  10.370  37.460   7.650
 5224POPC   NC313475  31.428  38.439   9.450
 5224POPC   PO413476  31.502  38.462   9.150
 5224POPC   GL113477  31.498  38.488   8.850
 5224POPC   GL213478  31.535  38.335   8.850
 5224POPC   C1A13479  31.430  38.422   8.550
 5224POPC   D2A13480  31.486  38.442   8.250
 5224POPC   C3A13481  31.461  38.483   7.950
 5224POPC   C4A13482  31.495  38.431   7.650
 5224POPC   C1B13483  31.670  38.271   8.550
 5224POPC   C2B13484  31.630  38.293   8.250
 5224POPC   C3B13485  31.623  38.351   7.950
 5224POPC   C4B13486  31.658  38.286   7.650
 5225POPC   NC313487   1.999   1.961   9.450
 5225POPC   PO413488   1.954   1.941   9.150
 5225POPC   GL113489   1.941   2.004   8.850
 5225POPC   GL213490   2.104   2.105   8.850
 5225POPC   C1A13491   1.989   1.968   8.550
 5225POPC   D2A13492   1.968   1.973   8.250
 5225POPC   C3A13493   1.992   2.005   7.950
 5225POPC   C4A13494   1.961   2.011   7.650
 5225POPC   C1B13495   2.149   2.221   8.550
 5225POPC   C2B13496   2.166   2.165   8.250
 5225POPC   C3B13497   2.093   2.166   7.950
 5225POPC   C4B13498   2.161   2.166   7.650
 5226POPC   NC313499  37.696  36.116   9.450
 5226POPC   PO413500  37.724  36.083   9.150
 5226POPC   GL113501  37.650  36.155   8.850
 5226POPC   GL213502  37.629  35.976   8.850
 5226POPC   C1A13503  37.664  36.088   8.550
 5226POPC   D2A13504  37.653  36.146   8.250
 5226POPC   C3A13505  37.700  36.155   7.950
 5226POPC   C4A13506  37.635  36.173   7.650
 5226POPC   C1B13507  37.567  35.848   8.550
 5226POPC   C2B13508  37.556  35.883   8.250
 5226POPC   C3B13509  37.576  35.906   7.950
 5226POPC   C4B13510  37.615  35.928   7.650
 5227POPC   NC313511  42.339  32.238   9.450
 5227POPC   PO413512  42.285  32.245   9.150
 5227POPC   GL113513  42.294  32.276   8.850
 5227POPC   GL213514  42.458  32.306   8.850
 5227POPC   C1A13515  42.313  32.261   8.550
 5227POPC   D2A13516  42.371  32.202   8.250
 5227POPC   C3A13517  42.351  32.203   7.950
 5227POPC   C4A13518  42.317  32.228   7.650
 5227POPC   C1B13519  42.447  32.464   8.550
 5227POPC   C2B13520  42.519  32.407   8.250
 5227POPC   C3B13521  42.479  32.409   7.950
 5227POPC   C4B13522  42.465  32.487   7.650
 5228POPC   NC313523   6.691   9.783   9.450
 5228POPC   PO413524   6.657   9.737   9.150
 5228POPC   GL113525   6.665   9.773   8.850
 5228POPC   GL213526   6.785   9.809   8.850
 5228POPC   C1A13527   6.652   9.748   8.550
 5228POPC   D2A13528   6.605   9.719   8.250
 5228POPC   C3A13529   6.666   9.740   7.950
 5228POPC   C4A13530   6.627   9.748   7.650
 5228POPC   C1B13531   6.841   9.936   8.550
 5228POPC   C2B13532   6.834   9.891   8.250
 5228POPC   C3B13533   6.812   9.921   7.950
 5228POPC   C4B13534   6.872   9.932   7.650
 5229POPC   NC313535  41.565  37.696   9.450
 5229POPC   PO413536  41.535  37.657   9.150
 5229POPC   GL113537  41.590  37.725   8.850
 5229POPC   GL213538  41.665  37.631   8.850
 5229POPC   C1A13539  41.601  37.698   8.550
 5229POPC   D2A13540  41.564  37.689   8.250
 5229POPC   C3A13541  41.548  37.703   7.950
 5229POPC   C4A13542  41.592  37.674   7.650
 5229POPC   C1B13543  41.711  37.490   8.550
 5229POPC   C2B13544  41.711  37.480   8.250
 5229POPC   C3B13545  41.716  37.558   7.950
 5229POPC   C4B13546  41.766  37.529   7.650
 5230POPC   NC313547  33.813  23.677   9.450
 5230POPC   PO413548  33.771  23.744   9.150
 5230POPC   GL113549  33.828  23.753   8.850
 5230POPC   GL213550  33.787  23.865   8.850
 5230POPC   C1A13551  33.766  23.742   8.550
 5230POPC   D2A13552  33.759  23.759   8.250
 5230POPC   C3A13553  33.766  23.671   7.950
 5230POPC   C4A13554  33.764  23.711   7.650
 5230POPC   C1B13555  33.788  23.925   8.550
 5230POPC   C2B13556  33.734  23.906   8.250
 5230POPC   C3B13557  33.742  23.936   7.950
 5230POPC   C4B13558  33.712  23.990   7.650
 5231POPC   NC313559   0.445  17.475   9.450
 5231POPC   PO413560   0.400  17.543   9.150
 5231POPC   GL113561   0.445  17.472   8.850
 5231POPC   GL213562   0.399  17.636   8.850
 5231POPC   C1A13563   0.438  17.542   8.550
 5231POPC   D2A13564   0.467  17.545   8.250
 5231POPC   C3A13565   0.452  17.504   7.950
 5231POPC   C4A13566   0.441  17.467   7.650
 5231POPC   C1B13567   0.213  17.662   8.550
 5231POPC   C2B13568   0.222  17.665   8.250
 5231POPC   C3B13569   0.285  17.721   7.950
 5231POPC   C4B13570   0.261  17.675   7.650
 5232POPC   NC313571  23.717  16.763   9.450
 5232POPC   PO413572  23.696  16.766   9.150
 5232POPC   GL113573  23.690  16.693   8.850
 5232POPC   GL213574  23.621  16.636   8.850
 5232POPC   C1A13575  23.696  16.719   8.550
 5232POPC   D2A13576  23.699  16.752   8.250
 5232POPC   C3A13577  23.675  16.694   7.950
 5232POPC   C4A13578  23.668  16.702   7.650
 5232POPC   C1B13579  23.543  16.557   8.550
 5232POPC   C2B13580  23.498  16.599   8.250
 5232POPC   C3B13581  23.514  16.521   7.950
 5232POPC   C4B13582  23.480  16.600   7.650
 5233POPC   NC313583  24.513  30.691   9.450
 5233POPC   PO413584  24.489  30.730   9.150
 5233POPC   GL113585  24.491  30.659   8.850
 5233POPC   GL213586  24.537  30.612   8.850
 5233POPC   C1A13587  24.534  30.703   8.550
 5233POPC   D2A13588  24.519  30.742   8.250
 5233POPC   C3A13589  24.474  30.737   7.950
 5233POPC   C4A13590  24.530  30.667   7.650
 5233POPC   C1B13591  24.530  30.483   8.550
 5233POPC   C2B13592  24.502  30.451   8.250
 5233POPC   C3B13593  24.521  30.424   7.950
 5233POPC   C4B13594  24.490  30.439   7.650
 5234POPC   NC313595  16.781  31.495   9.450
 5234POPC   PO413596  16.759  31.447   9.150
 5234POPC   GL113597  16.719  31.478   8.850
 5234POPC   GL213598  16.901  31.515   8.850
 5234POPC   C1A13599  16.723  31.509   8.550
 5234POPC   D2A13600  16.703  31.508   8.250
 5234POPC   C3A13601  16.695  31.522   7.950
 5234POPC   C4A13602  16.777  31.448   7.650
 5234POPC   C1B13603  17.014  31.530   8.550
 5234POPC   C2B13604  17.003  31.446   8.250
 5234POPC   C3B13605  16.976  31.462   7.950
 5234POPC   C4B13606  16.978  31.528   7.650
 5235POPC   NC313607  15.911  41.562   9.450
 5235POPC   PO413608  15.929  41.518   9.150
 5235POPC   GL113609  15.908  41.519   8.850
 5235POPC   GL213610  15.899  41.602   8.850
 5235POPC   C1A13611  15.916  41.558   8.550
 5235POPC   D2A13612  15.965  41.598   8.250
 5235POPC   C3A13613  15.918  41.533   7.950
 5235POPC   C4A13614  15.929  41.560   7.650
 5235POPC   C1B13615  15.715  41.692   8.550
 5235POPC   C2B13616  15.766  41.657   8.250
 5235POPC   C3B13617  15.703  41.692   7.950
 5235POPC   C4B13618  15.729  41.699   7.650
 5236POPC   NC313619  43.868  29.950   9.450
 5236POPC   PO413620  43.865  29.884   9.150
 5236POPC   GL113621  43.919  29.912   8.850
 5236POPC   GL213622  43.825  29.798   8.850
 5236POPC   C1A13623  43.897  29.891   8.550
 5236POPC   D2A13624  43.919  29.950   8.250
 5236POPC   C3A13625  43.880  29.905   7.950
 5236POPC   C4A13626  43.906  29.889   7.650
 5236POPC   C1B13627  43.758  29.762   8.550
 5236POPC   C2B13628  43.729  29.686   8.250
 5236POPC   C3B13629  43.747  29.742   7.950
 5236POPC   C4B13630  43.758  29.725   7.650
 5237POPC   NC313631  15.132  22.949   9.450
 5237POPC   PO413632  15.215  22.981   9.150
 5237POPC   GL113633  15.173  22.889   8.850
 5237POPC   GL213634  15.189  22.770   8.850
 5237POPC   C1A13635  15.172  22.972   8.550
 5237POPC   D2A13636  15.148  22.906   8.250
 5237POPC   C3A13637  15.183  22.972   7.950
 5237POPC   C4A13638  15.154  22.902   7.650
 5237POPC   C1B13639  15.132  22.690   8.550
 5237POPC   C2B13640  15.150  22.702   8.250
 5237POPC   C3B13641  15.110  22.650   7.950
 5237POPC   C4B13642  15.106  22.680   7.650
 5238POPC   NC313643  25.278  19.011   9.450
 5238POPC   PO413644  25.264  19.080   9.150
 5238POPC   GL113645  25.233  19.051   8.850
 5238POPC   GL213646  25.188  19.017   8.850
 5238POPC   C1A13647  25.225  19.037   8.550
 5238POPC   D2A13648  25.282  19.023   8.250
 5238POPC   C3A13649  25.254  19.072   7.950
 5238POPC   C4A13650  25.295  19.088   7.650
 5238POPC   C1B13651  25.051  19.031   8.550
 5238POPC   C2B13652  25.029  18.991   8.250
 5238POPC   C3B13653  25.061  18.986   7.950
 5238POPC   C4B13654  24.992  18.985   7.650
 5239POPC   NC313655  39.198  42.363   9.450
 5239POPC   PO413656  39.258  42.367   9.150
 5239POPC   GL113657  39.205  42.300   8.850
 5239POPC   GL213658  39.097  42.392   8.850
 5239POPC   C1A13659  39.252  42.286   8.550
 5239POPC   D2A13660  39.248  42.303   8.250
 5239POPC   C3A13661  39.208  42.333   7.950
 5239POPC   C4A13662  39.233  42.344   7.650
 5239POPC   C1B13663  39.025  42.443   8.550
 5239POPC   C2B13664  39.034  42.443   8.250
 5239POPC   C3B13665  38.964  42.417   7.950
 5239POPC   C4B13666  38.962  42.470   7.650
 5240POPC   NC313667   6.651  24.458   9.450
 5240POPC   PO413668   6.656  24.517   9.150
 5240POPC   GL113669   6.663  24.526   8.850
 5240POPC   GL213670   6.573  24.596   8.850
 5240POPC   C1A13671   6.654  24.488   8.550
 5240POPC   D2A13672   6.614  24.445   8.250
 5240POPC   C3A13673   6.655  24.524   7.950
 5240POPC   C4A13674   6.622  24.473   7.650
 5240POPC   C1B13675   6.528  24.655   8.550
 5240POPC   C2B13676   6.456  24.721   8.250
 5240POPC   C3B13677   6.454  24.693   7.950
 5240POPC   C4B13678   6.464  24.727   7.650
 5241POPC   NC313679  32.239  18.309   9.450
 5241POPC   PO413680  32.257  18.294   9.150
 5241POPC   GL113681  32.202  18.274   8.850
 5241POPC   GL213682  32.179  18.316   8.850
 5241POPC   C1A13683  32.247  18.264   8.550
 5241POPC   D2A13684  32.296  18.244   8.250
 5241POPC   C3A13685  32.232  18.233   7.950
 5241POPC   C4A13686  32.229  18.310   7.650
 5241POPC   C1B13687  32.050  18.424   8.550
 5241POPC   C2B13688  31.985  18.341   8.250
 5241POPC   C3B13689  32.035  18.407   7.950
 5241POPC   C4B13690  31.997  18.403   7.650
 5242POPC   NC313691  33.020  18.317   9.450
 5242POPC   PO413692  33.055  18.283   9.150
 5242POPC   GL113693  33.035  18.296   8.850
 5242POPC   GL213694  33.009  18.201   8.850
 5242POPC   C1A13695  33.041  18.326   8.550
 5242POPC   D2A13696  33.031  18.324   8.250
 5242POPC   C3A13697  33.065  18.268   7.950
 5242POPC   C4A13698  33.020  18.324   7.650
 5242POPC   C1B13699  33.055  18.082   8.550
 5242POPC   C2B13700  33.010  18.083   8.250
 5242POPC   C3B13701  33.064  18.055   7.950
 5242POPC   C4B13702  33.073  18.074   7.650
 5243POPC   NC313703  33.773   9.003   9.450
 5243POPC   PO413704  33.804   8.947   9.150
 5243POPC   GL113705  33.797   8.983   8.850
 5243POPC   GL213706  33.924   8.992   8.850
 5243POPC   C1A13707  33.754   8.966   8.550
 5243POPC   D2A13708  33.761   8.990   8.250
 5243POPC   C3A13709  33.813   8.971   7.950
 5243POPC   C4A13710  33.795   8.975   7.650
 5243POPC   C1B13711  34.081   9.036   8.550
 5243POPC   C2B13712  34.035   8.985   8.250
 5243POPC   C3B13713  34.050   9.072   7.950
 5243POPC   C4B13714  34.001   9.065   7.650
 5244POPC   NC313715  14.386  39.190   9.450
 5244POPC   PO413716  14.436  39.238   9.150
 5244POPC   GL113717  14.433  39.183   8.850
 5244POPC   GL213718  14.327  39.235   8.850
 5244POPC   C1A13719  14.406  39.273   8.550
 5244POPC   D2A13720  14.395  39.205   8.250
 5244POPC   C3A13721  14.361  39.214   7.950
 5244POPC   C4A13722  14.424  39.257   7.650
 5244POPC   C1B13723  14.104  39.251   8.550
 5244POPC   C2B13724  14.137  39.253   8.250
 5244POPC   C3B13725  14.164  39.238   7.950
 5244POPC   C4B13726  14.128  39.262   7.650
 5245POPC   NC313727  13.619  32.270   9.450
 5245POPC   PO413728  13.604  32.218   9.150
 5245POPC   GL113729  13.626  32.210   8.850
 5245POPC   GL213730  13.554  32.198   8.850
 5245POPC   C1A13731  13.625  32.243   8.550
 5245POPC   D2A13732  13.608  32.228   8.250
 5245POPC   C3A13733  13.649  32.276   7.950
 5245POPC   C4A13734  13.675  32.258   7.650
 5245POPC   C1B13735  13.431  32.051   8.550
 5245POPC   C2B13736  13.481  32.049   8.250
 5245POPC   C3B13737  13.460  32.131   7.950
 5245POPC   C4B13738  13.404  32.051   7.650
 5246POPC   NC313739  22.179  29.194   9.450
 5246POPC   PO413740  22.113  29.163   9.150
 5246POPC   GL113741  22.211  29.134   8.850
 5246POPC   GL213742  22.219  29.230   8.850
 5246POPC   C1A13743  22.130  29.129   8.550
 5246POPC   D2A13744  22.201  29.117   8.250
 5246POPC   C3A13745  22.210  29.151   7.950
 5246POPC   C4A13746  22.176  29.186   7.650
 5246POPC   C1B13747  22.400  29.319   8.550
 5246POPC   C2B13748  22.339  29.237   8.250
 5246POPC   C3B13749  22.395  29.271   7.950
 5246POPC   C4B13750  22.348  29.235   7.650
 5247POPC   NC313751  29.898  42.374   9.450
 5247POPC   PO413752  29.940  42.314   9.150
 5247POPC   GL113753  29.901  42.352   8.850
 5247POPC   GL213754  29.850  42.297   8.850
 5247POPC   C1A13755  29.951  42.372   8.550
 5247POPC   D2A13756  29.889  42.323   8.250
 5247POPC   C3A13757  29.888  42.376   7.950
 5247POPC   C4A13758  29.937  42.373   7.650
 5247POPC   C1B13759  29.726  42.200   8.550
 5247POPC   C2B13760  29.751  42.212   8.250
 5247POPC   C3B13761  29.752  42.171   7.950
 5247POPC   C4B13762  29.687  42.244   7.650
 5248POPC   NC313763  41.542  12.851   9.450
 5248POPC   PO413764  41.519  12.876   9.150
 5248POPC   GL113765  41.566  12.839   8.850
 5248POPC   GL213766  41.423  12.854   8.850
 5248POPC   C1A13767  41.519  12.885   8.550
 5248POPC   D2A13768  41.574  12.804   8.250
 5248POPC   C3A13769  41.596  12.896   7.950
 5248POPC   C4A13770  41.548  12.897   7.650
 5248POPC   C1B13771  41.323  12.778   8.550
 5248POPC   C2B13772  41.330  12.861   8.250
 5248POPC   C3B13773  41.307  12.849   7.950
 5248POPC   C4B13774  41.287  12.826   7.650
 5249POPC   NC313775  38.449   7.385   9.450
 5249POPC   PO413776  38.409   7.435   9.150
 5249POPC   GL113777  38.459   7.453   8.850
 5249POPC   GL213778  38.364   7.395   8.850
 5249POPC   C1A13779  38.447   7.470   8.550
 5249POPC   D2A13780  38.497   7.419   8.250
 5249POPC   C3A13781  38.432   7.380   7.950
 5249POPC   C4A13782  38.429   7.462   7.650
 5249POPC   C1B13783  38.222   7.352   8.550
 5249POPC   C2B13784  38.213   7.340   8.250
 5249POPC   C3B13785  38.247   7.314   7.950
 5249POPC   C4B13786  38.254   7.321   7.650
 5250POPC   NC313787  11.291  24.441   9.450
 5250POPC   PO413788  11.330  24.505   9.150
 5250POPC   GL113789  11.260  24.505   8.850
 5250POPC   GL213790  11.190  24.404   8.850
 5250POPC   C1A13791  11.264  24.453   8.550
 5250POPC   D2A13792  11.316  24.447   8.250
 5250POPC   C3A13793  11.325  24.452   7.950
 5250POPC   C4A13794  11.336  24.474   7.650
 5250POPC   C1B13795  11.057  24.399   8.550
 5250POPC   C2B13796  11.052  24.393   8.250
 5250POPC   C3B13797  11.110  24.327   7.950
 5250POPC   C4B13798  11.099  24.391   7.650
 5251POPC   NC313799   2.719  16.750   9.450
 5251POPC   PO413800   2.734  16.727   9.150
 5251POPC   GL113801   2.802  16.724   8.850
 5251POPC   GL213802   2.642  16.795   8.850
 5251POPC   C1A13803   2.734  16.723   8.550
 5251POPC   D2A13804   2.720  16.779   8.250
 5251POPC   C3A13805   2.797  16.739   7.950
 5251POPC   C4A13806   2.736  16.718   7.650
 5251POPC   C1B13807   2.548  16.884   8.550
 5251POPC   C2B13808   2.601  16.839   8.250
 5251POPC   C3B13809   2.577  16.848   7.950
 5251POPC   C4B13810   2.600  16.857   7.650
 5252POPC   NC313811  15.211  42.337   9.450
 5252POPC   PO413812  15.140  42.375   9.150
 5252POPC   GL113813  15.139  42.293   8.850
 5252POPC   GL213814  15.218  42.426   8.850
 5252POPC   C1A13815  15.208  42.351   8.550
 5252POPC   D2A13816  15.145  42.384   8.250
 5252POPC   C3A13817  15.169  42.285   7.950
 5252POPC   C4A13818  15.209  42.304   7.650
 5252POPC   C1B13819  15.253  42.570   8.550
 5252POPC   C2B13820  15.176  42.574   8.250
 5252POPC   C3B13821  15.237  42.571   7.950
 5252POPC   C4B13822  15.212  42.622   7.650
 5253POPC   NC313823  36.166  12.876   9.450
 5253POPC   PO413824  36.094  12.823   9.150
 5253POPC   GL113825  36.100  12.852   8.850
 5253POPC   GL213826  36.300  12.817   8.850
 5253POPC   C1A13827  36.147  12.836   8.550
 5253POPC   D2A13828  36.134  12.816   8.250
 5253POPC   C3A13829  36.147  12.863   7.950
 5253POPC   C4A13830  36.110  12.896   7.650
 5253POPC   C1B13831  36.406  12.840   8.550
 5253POPC   C2B13832  36.376  12.855   8.250
 5253POPC   C3B13833  36.391  12.825   7.950
 5253POPC   C4B13834  36.410  12.848   7.650
 5254POPC   NC313835  33.808  31.495   9.450
 5254POPC   PO413836  33.843  31.472   9.150
 5254POPC   GL113837  33.844  31.519   8.850
 5254POPC   GL213838  33.899  31.393   8.850
 5254POPC   C1A13839  33.834  31.522   8.550
 5254POPC   D2A13840  33.758  31.424   8.250
 5254POPC   C3A13841  33.781  31.434   7.950
 5254POPC   C4A13842  33.833  31.508   7.650
 5254POPC   C1B13843  33.996  31.444   8.550
 5254POPC   C2B13844  34.078  31.418   8.250
 5254POPC   C3B13845  34.051  31.397   7.950
 5254POPC   C4B13846  34.051  31.429   7.650
 5255POPC   NC313847  23.674  12.125   9.450
 5255POPC   PO413848  23.762  12.065   9.150
 5255POPC   GL113849  23.754  12.052   8.850
 5255POPC   GL213850  23.631  11.941   8.850
 5255POPC   C1A13851  23.731  12.041   8.550
 5255POPC   D2A13852  23.744  12.074   8.250
 5255POPC   C3A13853  23.705  12.070   7.950
 5255POPC   C4A13854  23.698  12.111   7.650
 5255POPC   C1B13855  23.583  11.840   8.550
 5255POPC   C2B13856  23.556  11.875   8.250
 5255POPC   C3B13857  23.537  11.851   7.950
 5255POPC   C4B13858  23.554  11.908   7.650
 5256POPC   NC313859  11.291   5.855   9.450
 5256POPC   PO413860  11.339   5.893   9.150
 5256POPC   GL113861  11.256   5.863   8.850
 5256POPC   GL213862  11.260   5.973   8.850
 5256POPC   C1A13863  11.289   5.836   8.550
 5256POPC   D2A13864  11.285   5.829   8.250
 5256POPC   C3A13865  11.307   5.902   7.950
 5256POPC   C4A13866  11.315   5.872   7.650
 5256POPC   C1B13867  11.247   6.099   8.550
 5256POPC   C2B13868  11.207   6.096   8.250
 5256POPC   C3B13869  11.207   6.122   7.950
 5256POPC   C4B13870  11.274   6.086   7.650
 5257POPC   NC313871   5.914  19.859   9.450
 5257POPC   PO413872   5.915  19.789   9.150
 5257POPC   GL113873   5.855  19.821   8.850
 5257POPC   GL213874   5.971  19.786   8.850
 5257POPC   C1A13875   5.917  19.831   8.550
 5257POPC   D2A13876   5.829  19.825   8.250
 5257POPC   C3A13877   5.891  19.855   7.950
 5257POPC   C4A13878   5.918  19.793   7.650
 5257POPC   C1B13879   6.028  19.696   8.550
 5257POPC   C2B13880   6.014  19.647   8.250
 5257POPC   C3B13881   6.097  19.704   7.950
 5257POPC   C4B13882   6.038  19.678   7.650
 5258POPC   NC313883  28.394  19.855   9.450
 5258POPC   PO413884  28.387  19.808   9.150
 5258POPC   GL113885  28.342  19.867   8.850
 5258POPC   GL213886  28.419  19.783   8.850
 5258POPC   C1A13887  28.353  19.859   8.550
 5258POPC   D2A13888  28.366  19.805   8.250
 5258POPC   C3A13889  28.408  19.879   7.950
 5258POPC   C4A13890  28.400  19.805   7.650
 5258POPC   C1B13891  28.599  19.640   8.550
 5258POPC   C2B13892  28.529  19.642   8.250
 5258POPC   C3B13893  28.525  19.704   7.950
 5258POPC   C4B13894  28.576  19.650   7.650
 5259POPC   NC313895  11.322  29.963   9.450
 5259POPC   PO413896  11.313  29.909   9.150
 5259POPC   GL113897  11.299  29.887   8.850
 5259POPC   GL213898  11.135  29.951   8.850
 5259POPC   C1A13899  11.278  29.936   8.550
 5259POPC   D2A13900  11.250  29.917   8.250
 5259POPC   C3A13901  11.269  29.906   7.950
 5259POPC   C4A13902  11.329  29.897   7.650
 5259POPC   C1B13903  11.021  29.878   8.550
 5259POPC   C2B13904  11.033  29.939   8.250
 5259POPC   C3B13905  11.097  29.883   7.950
 5259POPC   C4B13906  11.009  29.919   7.650
 5260POPC   NC313907  42.321  19.857   9.450
 5260POPC   PO413908  42.323  19.788   9.150
 5260POPC   GL113909  42.336  19.846   8.850
 5260POPC   GL213910  42.374  19.977   8.850
 5260POPC   C1A13911  42.349  19.793   8.550
 5260POPC   D2A13912  42.298  19.862   8.250
 5260POPC   C3A13913  42.369  19.864   7.950
 5260POPC   C4A13914  42.325  19.875   7.650
 5260POPC   C1B13915  42.484  20.000   8.550
 5260POPC   C2B13916  42.480  20.063   8.250
 5260POPC   C3B13917  42.477  20.065   7.950
 5260POPC   C4B13918  42.548  20.020   7.650
 5261POPC   NC313919  34.584   7.435   9.450
 5261POPC   PO413920  34.588   7.406   9.150
 5261POPC   GL113921  34.617   7.374   8.850
 5261POPC   GL213922  34.504   7.271   8.850
 5261POPC   C1A13923  34.541   7.410   8.550
 5261POPC   D2A13924  34.572   7.424   8.250
 5261POPC   C3A13925  34.548   7.416   7.950
 5261POPC   C4A13926  34.581   7.408   7.650
 5261POPC   C1B13927  34.444   7.209   8.550
 5261POPC   C2B13928  34.425   7.201   8.250
 5261POPC   C3B13929  34.395   7.178   7.950
 5261POPC   C4B13930  34.421   7.179   7.650
 5262POPC   NC313931   8.190  34.555   9.450
 5262POPC   PO413932   8.237  34.571   9.150
 5262POPC   GL113933   8.242  34.615   8.850
 5262POPC   GL213934   8.269  34.506   8.850
 5262POPC   C1A13935   8.152  34.567   8.550
 5262POPC   D2A13936   8.245  34.581   8.250
 5262POPC   C3A13937   8.187  34.581   7.950
 5262POPC   C4A13938   8.170  34.538   7.650
 5262POPC   C1B13939   8.377  34.381   8.550
 5262POPC   C2B13940   8.373  34.421   8.250
 5262POPC   C3B13941   8.410  34.464   7.950
 5262POPC   C4B13942   8.415  34.396   7.650
 5263POPC   NC313943  36.163  25.275   9.450
 5263POPC   PO413944  36.170  25.256   9.150
 5263POPC   GL113945  36.116  25.314   8.850
 5263POPC   GL213946  36.095  25.421   8.850
 5263POPC   C1A13947  36.121  25.238   8.550
 5263POPC   D2A13948  36.106  25.252   8.250
 5263POPC   C3A13949  36.089  25.273   7.950
 5263POPC   C4A13950  36.118  25.234   7.650
 5263POPC   C1B13951  35.979  25.517   8.550
 5263POPC   C2B13952  36.036  25.482   8.250
 5263POPC   C3B13953  35.975  25.486   7.950
 5263POPC   C4B13954  36.056  25.452   7.650
 5264POPC   NC313955  35.349  33.775   9.450
 5264POPC   PO413956  35.304  33.789   9.150
 5264POPC   GL113957  35.378  33.792   8.850
 5264POPC   GL213958  35.359  33.942   8.850
 5264POPC   C1A13959  35.315  33.771   8.550
 5264POPC   D2A13960  35.371  33.847   8.250
 5264POPC   C3A13961  35.381  33.803   7.950
 5264POPC   C4A13962  35.385  33.792   7.650
 5264POPC   C1B13963  35.433  34.066   8.550
 5264POPC   C2B13964  35.411  34.076   8.250
 5264POPC   C3B13965  35.453  34.068   7.950
 5264POPC   C4B13966  35.401  34.094   7.650
 5265POPC   NC313967  26.024  12.073   9.450
 5265POPC   PO413968  26.044  12.098   9.150
 5265POPC   GL113969  26.038  12.066   8.850
 5265POPC   GL213970  26.089  12.151   8.850
 5265POPC   C1A13971  26.057  12.123   8.550
 5265POPC   D2A13972  26.019  12.053   8.250
 5265POPC   C3A13973  26.037  12.084   7.950
 5265POPC   C4A13974  25.998  12.061   7.650
 5265POPC   C1B13975  26.201  12.281   8.550
 5265POPC   C2B13976  26.187  12.235   8.250
 5265POPC   C3B13977  26.173  12.282   7.950
 5265POPC   C4B13978  26.203  12.269   7.650
 5266POPC   NC313979  27.619   7.380   9.450
 5266POPC   PO413980  27.545   7.461   9.150
 5266POPC   GL113981  27.577   7.468   8.850
 5266POPC   GL213982  27.464   7.437   8.850
 5266POPC   C1A13983  27.599   7.449   8.550
 5266POPC   D2A13984  27.554   7.390   8.250
 5266POPC   C3A13985  27.611   7.372   7.950
 5266POPC   C4A13986  27.580   7.384   7.650
 5266POPC   C1B13987  27.310   7.431   8.550
 5266POPC   C2B13988  27.314   7.408   8.250
 5266POPC   C3B13989  27.384   7.429   7.950
 5266POPC   C4B13990  27.339   7.467   7.650
 5267POPC   NC313991  44.627  10.479   9.450
 5267POPC   PO413992  44.692  10.573   9.150
 5267POPC   GL113993  44.675  10.556   8.850
 5267POPC   GL213994  44.685  10.609   8.850
 5267POPC   C1A13995  44.634  10.520   8.550
 5267POPC   D2A13996  44.687  10.506   8.250
 5267POPC   C3A13997  44.653  10.571   7.950
 5267POPC   C4A13998  44.654  10.552   7.650
 5267POPC   C1B13999  44.773  10.773   8.550
 5267POPC   C2B14000  44.732  10.743   8.250
 5267POPC   C3B14001  44.751  10.724   7.950
 5267POPC   C4B14002  44.732  10.748   7.650
 5268POPC   NC314003  13.661   9.009   9.450
 5268POPC   PO414004  13.637   8.943   9.150
 5268POPC   GL114005  13.644   8.950   8.850
 5268POPC   GL214006  13.711   8.968   8.850
 5268POPC   C1A14007  13.656   8.989   8.550
 5268POPC   D2A14008  13.668   8.974   8.250
 5268POPC   C3A14009  13.594   8.987   7.950
 5268POPC   C4A14010  13.587   8.990   7.650
 5268POPC   C1B14011  13.888   9.035   8.550
 5268POPC   C2B14012  13.911   9.042   8.250
 5268POPC   C3B14013  13.924   8.986   7.950
 5268POPC   C4B14014  13.918   9.055   7.650
 5269POPC   NC314015  30.653   9.772   9.450
 5269POPC   PO414016  30.722   9.726   9.150
 5269POPC   GL114017  30.693   9.707   8.850
 5269POPC   GL214018  30.567   9.717   8.850
 5269POPC   C1A14019  30.662   9.747   8.550
 5269POPC   D2A14020  30.727   9.745   8.250
 5269POPC   C3A14021  30.688   9.760   7.950
 5269POPC   C4A14022  30.701   9.730   7.650
 5269POPC   C1B14023  30.475   9.681   8.550
 5269POPC   C2B14024  30.411   9.669   8.250
 5269POPC   C3B14025  30.471   9.751   7.950
 5269POPC   C4B14026  30.423   9.701   7.650
 5270POPC   NC314027  40.816  16.775   9.450
 5270POPC   PO414028  40.816  16.712   9.150
 5270POPC   GL114029  40.774  16.720   8.850
 5270POPC   GL214030  40.616  16.739   8.850
 5270POPC   C1A14031  40.784  16.776   8.550
 5270POPC   D2A14032  40.821  16.758   8.250
 5270POPC   C3A14033  40.811  16.746   7.950
 5270POPC   C4A14034  40.826  16.741   7.650
 5270POPC   C1B14035  40.544  16.688   8.550
 5270POPC   C2B14036  40.545  16.646   8.250
 5270POPC   C3B14037  40.549  16.706   7.950
 5270POPC   C4B14038  40.523  16.673   7.650
 5271POPC   NC314039  32.266  42.308   9.450
 5271POPC   PO414040  32.201  42.313   9.150
 5271POPC   GL114041  32.230  42.296   8.850
 5271POPC   GL214042  32.259  42.476   8.850
 5271POPC   C1A14043  32.291  42.362   8.550
 5271POPC   D2A14044  32.201  42.368   8.250
 5271POPC   C3A14045  32.232  42.298   7.950
 5271POPC   C4A14046  32.201  42.288   7.650
 5271POPC   C1B14047  32.368  42.535   8.550
 5271POPC   C2B14048  32.325  42.556   8.250
 5271POPC   C3B14049  32.401  42.558   7.950
 5271POPC   C4B14050  32.379  42.544   7.650
 5272POPC   NC314051  15.158  16.755   9.450
 5272POPC   PO414052  15.208  16.778   9.150
 5272POPC   GL114053  15.152  16.748   8.850
 5272POPC   GL214054  15.040  16.814   8.850
 5272POPC   C1A14055  15.191  16.720   8.550
 5272POPC   D2A14056  15.195  16.714   8.250
 5272POPC   C3A14057  15.133  16.682   7.950
 5272POPC   C4A14058  15.178  16.714   7.650
 5272POPC   C1B14059  14.920  16.851   8.550
 5272POPC   C2B14060  14.909  16.780   8.250
 5272POPC   C3B14061  14.980  16.766   7.950
 5272POPC   C4B14062  14.982  16.849   7.650
 5273POPC   NC314063  33.031  42.366   9.450
 5273POPC   PO414064  33.040  42.326   9.150
 5273POPC   GL114065  33.028  42.290   8.850
 5273POPC   GL214066  32.932  42.345   8.850
 5273POPC   C1A14067  32.990  42.330   8.550
 5273POPC   D2A14068  32.980  42.296   8.250
 5273POPC   C3A14069  33.054  42.315   7.950
 5273POPC   C4A14070  33.051  42.306   7.650
 5273POPC   C1B14071  32.749  42.404   8.550
 5273POPC   C2B14072  32.772  42.411   8.250
 5273POPC   C3B14073  32.743  42.380   7.950
 5273POPC   C4B14074  32.794  42.374   7.650
 5274POPC   NC314075  22.113   3.526   9.450
 5274POPC   PO414076  22.149   3.568   9.150
 5274POPC   GL114077  22.119   3.511   8.850
 5274POPC   GL214078  22.020   3.551   8.850
 5274POPC   C1A14079  22.174   3.513   8.550
 5274POPC   D2A14080  22.172   3.587   8.250
 5274POPC   C3A14081  22.119   3.562   7.950
 5274POPC   C4A14082  22.137   3.582   7.650
 5274POPC   C1B14083  21.916   3.680   8.550
 5274POPC   C2B14084  21.902   3.608   8.250
 5274POPC   C3B14085  21.917   3.621   7.950
 5274POPC   C4B14086  21.969   3.599   7.650
 5275POPC   NC314087  29.877   0.444   9.450
 5275POPC   PO414088  29.915   0.464   9.150
 5275POPC   GL114089  29.926   0.486   8.850
 5275POPC   GL214090  29.925   0.354   8.850
 5275POPC   C1A14091  29.901   0.435   8.550
 5275POPC   D2A14092  29.931   0.436   8.250
 5275POPC   C3A14093  29.876   0.434   7.950
 5275POPC   C4A14094  29.902   0.473   7.650
 5275POPC   C1B14095  29.842   0.177   8.550
 5275POPC   C2B14096  29.819   0.197   8.250
 5275POPC   C3B14097  29.861   0.185   7.950
 5275POPC   C4B14098  29.802   0.178   7.650
 5276POPC   NC314099  22.890  24.519   9.450
 5276POPC   PO414100  22.925  24.444   9.150
 5276POPC   GL114101  22.951  24.478   8.850
 5276POPC   GL214102  22.950  24.608   8.850
 5276POPC   C1A14103  22.982  24.468   8.550
 5276POPC   D2A14104  22.963  24.521   8.250
 5276POPC   C3A14105  22.895  24.520   7.950
 5276POPC   C4A14106  22.971  24.445   7.650
 5276POPC   C1B14107  22.963  24.777   8.550
 5276POPC   C2B14108  22.975  24.778   8.250
 5276POPC   C3B14109  22.971  24.699   7.950
 5276POPC   C4B14110  22.929  24.700   7.650
 5277POPC   NC314111  10.574  14.383   9.450
 5277POPC   PO414112  10.514  14.382   9.150
 5277POPC   GL114113  10.557  14.357   8.850
 5277POPC   GL214114  10.647  14.361   8.850
 5277POPC   C1A14115  10.560  14.436   8.550
 5277POPC   D2A14116  10.489  14.360   8.250
 5277POPC   C3A14117  10.485  14.367   7.950
 5277POPC   C4A14118  10.507  14.400   7.650
 5277POPC   C1B14119  10.763  14.300   8.550
 5277POPC   C2B14120  10.792  14.275   8.250
 5277POPC   C3B14121  10.765  14.319   7.950
 5277POPC   C4B14122  10.743  14.321   7.650
 5278POPC   NC314123  43.073   4.286   9.450
 5278POPC   PO414124  43.147   4.332   9.150
 5278POPC   GL114125  43.112   4.321   8.850
 5278POPC   GL214126  43.248   4.223   8.850
 5278POPC   C1A14127  43.105   4.352   8.550
 5278POPC   D2A14128  43.105   4.272   8.250
 5278POPC   C3A14129  43.159   4.346   7.950
 5278POPC   C4A14130  43.157   4.307   7.650
 5278POPC   C1B14131  43.311   4.204   8.550
 5278POPC   C2B14132  43.341   4.146   8.250
 5278POPC   C3B14133  43.278   4.176   7.950
 5278POPC   C4B14134  43.366   4.187   7.650
 5279POPC   NC314135  15.211  24.478   9.450
 5279POPC   PO414136  15.183  24.494   9.150
 5279POPC   GL114137  15.226  24.487   8.850
 5279POPC   GL214138  15.193  24.337   8.850
 5279POPC   C1A14139  15.145  24.445   8.550
 5279POPC   D2A14140  15.133  24.513   8.250
 5279POPC   C3A14141  15.188  24.468   7.950
 5279POPC   C4A14142  15.132  24.453   7.650
 5279POPC   C1B14143  15.072  24.282   8.550
 5279POPC   C2B14144  15.106  24.287   8.250
 5279POPC   C3B14145  15.096  24.280   7.950
 5279POPC   C4B14146  15.085  24.245   7.650
 5280POPC   NC314147  12.064  14.359   9.450
 5280POPC   PO414148  12.083  14.430   9.150
 5280POPC   GL114149  12.094  14.379   8.850
 5280POPC   GL214150  11.972  14.520   8.850
 5280POPC   C1A14151  12.040  14.369   8.550
 5280POPC   D2A14152  12.085  14.389   8.250
 5280POPC   C3A14153  12.122  14.380   7.950
 5280POPC   C4A14154  12.036  14.394   7.650
 5280POPC   C1B14155  11.886  14.616   8.550
 5280POPC   C2B14156  11.846  14.521   8.250
 5280POPC   C3B14157  11.870  14.611   7.950
 5280POPC   C4B14158  11.843  14.557   7.650
 5281POPC   NC314159  36.112  36.891   9.450
 5281POPC   PO414160  36.164  36.914   9.150
 5281POPC   GL114161  36.078  36.908   8.850
 5281POPC   GL214162  36.244  36.851   8.850
 5281POPC   C1A14163  36.122  36.877   8.550
 5281POPC   D2A14164  36.132  36.855   8.250
 5281POPC   C3A14165  36.111  36.889   7.950
 5281POPC   C4A14166  36.141  36.873   7.650
 5281POPC   C1B14167  36.339  36.773   8.550
 5281POPC   C2B14168  36.290  36.749   8.250
 5281POPC   C3B14169  36.340  36.685   7.950
 5281POPC   C4B14170  36.330  36.767   7.650
 5282POPC   NC314171   7.444  30.731   9.450
 5282POPC   PO414172   7.444  30.659   9.150
 5282POPC   GL114173   7.466  30.732   8.850
 5282POPC   GL214174   7.308  30.665   8.850
 5282POPC   C1A14175   7.381  30.689   8.550
 5282POPC   D2A14176   7.445  30.657   8.250
 5282POPC   C3A14177   7.384  30.708   7.950
 5282POPC   C4A14178   7.444  30.652   7.650
 5282POPC   C1B14179   7.231  30.552   8.550
 5282POPC   C2B14180   7.259  30.518   8.250
 5282POPC   C3B14181   7.257  30.522   7.950
 5282POPC   C4B14182   7.243  30.571   7.650
 5283POPC   NC314183  31.485  35.385   9.450
 5283POPC   PO414184  31.483  35.324   9.150
 5283POPC   GL114185  31.467  35.381   8.850
 5283POPC   GL214186  31.525  35.521   8.850
 5283POPC   C1A14187  31.471  35.322   8.550
 5283POPC   D2A14188  31.483  35.335   8.250
 5283POPC   C3A14189  31.515  35.401   7.950
 5283POPC   C4A14190  31.439  35.392   7.650
 5283POPC   C1B14191  31.494  35.548   8.550
 5283POPC   C2B14192  31.546  35.614   8.250
 5283POPC   C3B14193  31.558  35.576   7.950
 5283POPC   C4B14194  31.568  35.588   7.650
 5284POPC   NC314195  34.606  39.222   9.450
 5284POPC   PO414196  34.551  39.240   9.150
 5284POPC   GL114197  34.592  39.246   8.850
 5284POPC   GL214198  34.709  39.161   8.850
 5284POPC   C1A14199  34.589  39.273   8.550
 5284POPC   D2A14200  34.600  39.221   8.250
 5284POPC   C3A14201  34.567  39.213   7.950
 5284POPC   C4A14202  34.540  39.253   7.650
 5284POPC   C1B14203  34.810  39.102   8.550
 5284POPC   C2B14204  34.762  39.118   8.250
 5284POPC   C3B14205  34.816  39.085   7.950
 5284POPC   C4B14206  34.825  39.092   7.650
 5285POPC   NC314207  14.389  36.948   9.450
 5285POPC   PO414208  14.435  36.934   9.150
 5285POPC   GL114209  14.409  36.889   8.850
 5285POPC   GL214210  14.352  37.071   8.850
 5285POPC   C1A14211  14.388  36.918   8.550
 5285POPC   D2A14212  14.400  36.926   8.250
 5285POPC   C3A14213  14.385  36.885   7.950
 5285POPC   C4A14214  14.439  36.937   7.650
 5285POPC   C1B14215  14.339  37.147   8.550
 5285POPC   C2B14216  14.426  37.198   8.250
 5285POPC   C3B14217  14.351  37.120   7.950
 5285POPC   C4B14218  14.367  37.187   7.650
 5286POPC   NC314219  42.289  20.610   9.450
 5286POPC   PO414220  42.295  20.569   9.150
 5286POPC   GL114221  42.337  20.572   8.850
 5286POPC   GL214222  42.227  20.697   8.850
 5286POPC   C1A14223  42.320  20.596   8.550
 5286POPC   D2A14224  42.373  20.591   8.250
 5286POPC   C3A14225  42.295  20.587   7.950
 5286POPC   C4A14226  42.305  20.628   7.650
 5286POPC   C1B14227  42.145  20.736   8.550
 5286POPC   C2B14228  42.052  20.650   8.250
 5286POPC   C3B14229  42.146  20.703   7.950
 5286POPC   C4B14230  42.098  20.738   7.650
 5287POPC   NC314231  19.050   2.810   9.450
 5287POPC   PO414232  19.012   2.718   9.150
 5287POPC   GL114233  19.033   2.770   8.850
 5287POPC   GL214234  18.907   2.813   8.850
 5287POPC   C1A14235  19.079   2.795   8.550
 5287POPC   D2A14236  19.037   2.731   8.250
 5287POPC   C3A14237  19.059   2.797   7.950
 5287POPC   C4A14238  19.095   2.747   7.650
 5287POPC   C1B14239  18.850   2.730   8.550
 5287POPC   C2B14240  18.843   2.794   8.250
 5287POPC   C3B14241  18.857   2.773   7.950
 5287POPC   C4B14242  18.851   2.810   7.650
 5288POPC   NC314243  27.548  27.614   9.450
 5288POPC   PO414244  27.566  27.636   9.150
 5288POPC   GL114245  27.560  27.558   8.850
 5288POPC   GL214246  27.501  27.531   8.850
 5288POPC   C1A14247  27.628  27.545   8.550
 5288POPC   D2A14248  27.584  27.635   8.250
 5288POPC   C3A14249  27.582  27.543   7.950
 5288POPC   C4A14250  27.610  27.574   7.650
 5288POPC   C1B14251  27.452  27.351   8.550
 5288POPC   C2B14252  27.455  27.415   8.250
 5288POPC   C3B14253  27.447  27.344   7.950
 5288POPC   C4B14254  27.406  27.399   7.650
 5289POPC   NC314255   7.447  10.557   9.450
 5289POPC   PO414256   7.466  10.512   9.150
 5289POPC   GL114257   7.463  10.544   8.850
 5289POPC   GL214258   7.413  10.392   8.850
 5289POPC   C1A14259   7.462  10.555   8.550
 5289POPC   D2A14260   7.399  10.488   8.250
 5289POPC   C3A14261   7.453  10.562   7.950
 5289POPC   C4A14262   7.467  10.562   7.650
 5289POPC   C1B14263   7.458  10.234   8.550
 5289POPC   C2B14264   7.478  10.292   8.250
 5289POPC   C3B14265   7.421  10.278   7.950
 5289POPC   C4B14266   7.443  10.323   7.650
 5290POPC   NC314267  36.947  12.063   9.450
 5290POPC   PO414268  36.949  12.031   9.150
 5290POPC   GL114269  36.867  12.079   8.850
 5290POPC   GL214270  36.868  12.210   8.850
 5290POPC   C1A14271  36.872  12.080   8.550
 5290POPC   D2A14272  36.877  12.113   8.250
 5290POPC   C3A14273  36.909  12.115   7.950
 5290POPC   C4A14274  36.873  12.030   7.650
 5290POPC   C1B14275  36.737  12.332   8.550
 5290POPC   C2B14276  36.809  12.266   8.250
 5290POPC   C3B14277  36.804  12.289   7.950
 5290POPC   C4B14278  36.751  12.286   7.650
 5291POPC   NC314279  31.444  42.368   9.450
 5291POPC   PO414280  31.496  42.368   9.150
 5291POPC   GL114281  31.441  42.337   8.850
 5291POPC   GL214282  31.620  42.305   8.850
 5291POPC   C1A14283  31.446  42.323   8.550
 5291POPC   D2A14284  31.522  42.325   8.250
 5291POPC   C3A14285  31.520  42.323   7.950
 5291POPC   C4A14286  31.435  42.299   7.650
 5291POPC   C1B14287  31.648  42.172   8.550
 5291POPC   C2B14288  31.637  42.186   8.250
 5291POPC   C3B14289  31.732  42.211   7.950
 5291POPC   C4B14290  31.685  42.201   7.650
 5292POPC   NC314291  36.871  38.483   9.450
 5292POPC   PO414292  36.863  38.438   9.150
 5292POPC   GL114293  36.888  38.471   8.850
 5292POPC   GL214294  36.872  38.554   8.850
 5292POPC   C1A14295  36.923  38.433   8.550
 5292POPC   D2A14296  36.900  38.443   8.250
 5292POPC   C3A14297  36.867  38.457   7.950
 5292POPC   C4A14298  36.867  38.410   7.650
 5292POPC   C1B14299  36.988  38.743   8.550
 5292POPC   C2B14300  36.984  38.711   8.250
 5292POPC   C3B14301  36.894  38.733   7.950
 5292POPC   C4B14302  36.977  38.722   7.650
 5293POPC   NC314303  11.282  23.667   9.450
 5293POPC   PO414304  11.349  23.730   9.150
 5293POPC   GL114305  11.258  23.685   8.850
 5293POPC   GL214306  11.304  23.823   8.850
 5293POPC   C1A14307  11.261  23.756   8.550
 5293POPC   D2A14308  11.295  23.725   8.250
 5293POPC   C3A14309  11.305  23.736   7.950
 5293POPC   C4A14310  11.291  23.732   7.650
 5293POPC   C1B14311  11.304  23.926   8.550
 5293POPC   C2B14312  11.320  23.915   8.250
 5293POPC   C3B14313  11.289  23.962   7.950
 5293POPC   C4B14314  11.313  23.934   7.650
 5294POPC   NC314315  27.558  41.605   9.450
 5294POPC   PO414316  27.625  41.568   9.150
 5294POPC   GL114317  27.629  41.569   8.850
 5294POPC   GL214318  27.502  41.651   8.850
 5294POPC   C1A14319  27.598  41.549   8.550
 5294POPC   D2A14320  27.593  41.597   8.250
 5294POPC   C3A14321  27.633  41.562   7.950
 5294POPC   C4A14322  27.640  41.576   7.650
 5294POPC   C1B14323  27.462  41.800   8.550
 5294POPC   C2B14324  27.515  41.789   8.250
 5294POPC   C3B14325  27.445  41.818   7.950
 5294POPC   C4B14326  27.440  41.817   7.650
 5295POPC   NC314327  29.142  29.929   9.450
 5295POPC   PO414328  29.179  29.889   9.150
 5295POPC   GL114329  29.114  29.878   8.850
 5295POPC   GL214330  29.249  29.842   8.850
 5295POPC   C1A14331  29.137  29.904   8.550
 5295POPC   D2A14332  29.176  29.940   8.250
 5295POPC   C3A14333  29.109  29.951   7.950
 5295POPC   C4A14334  29.141  29.881   7.650
 5295POPC   C1B14335  29.266  29.688   8.550
 5295POPC   C2B14336  29.337  29.763   8.250
 5295POPC   C3B14337  29.259  29.679   7.950
 5295POPC   C4B14338  29.254  29.708   7.650
 5296POPC   NC314339   3.572   7.404   9.450
 5296POPC   PO414340   3.526   7.409   9.150
 5296POPC   GL114341   3.583   7.399   8.850
 5296POPC   GL214342   3.389   7.450   8.850
 5296POPC   C1A14343   3.509   7.393   8.550
 5296POPC   D2A14344   3.537   7.439   8.250
 5296POPC   C3A14345   3.526   7.389   7.950
 5296POPC   C4A14346   3.585   7.401   7.650
 5296POPC   C1B14347   3.308   7.494   8.550
 5296POPC   C2B14348   3.261   7.522   8.250
 5296POPC   C3B14349   3.260   7.459   7.950
 5296POPC   C4B14350   3.332   7.514   7.650
 5297POPC   NC314351  39.247  38.501   9.450
 5297POPC   PO414352  39.227  38.468   9.150
 5297POPC   GL114353  39.221  38.503   8.850
 5297POPC   GL214354  39.244  38.381   8.850
 5297POPC   C1A14355  39.240  38.416   8.550
 5297POPC   D2A14356  39.220  38.424   8.250
 5297POPC   C3A14357  39.251  38.438   7.950
 5297POPC   C4A14358  39.210  38.468   7.650
 5297POPC   C1B14359  39.253  38.205   8.550
 5297POPC   C2B14360  39.260  38.237   8.250
 5297POPC   C3B14361  39.272  38.218   7.950
 5297POPC   C4B14362  39.233  38.193   7.650
 5298POPC   NC314363  25.251  31.469   9.450
 5298POPC   PO414364  25.280  31.457   9.150
 5298POPC   GL114365  25.286  31.469   8.850
 5298POPC   GL214366  25.185  31.538   8.850
 5298POPC   C1A14367  25.282  31.451   8.550
 5298POPC   D2A14368  25.283  31.516   8.250
 5298POPC   C3A14369  25.298  31.521   7.950
 5298POPC   C4A14370  25.272  31.448   7.650
 5298POPC   C1B14371  25.120  31.677   8.550
 5298POPC   C2B14372  25.072  31.634   8.250
 5298POPC   C3B14373  25.085  31.664   7.950
 5298POPC   C4B14374  25.060  31.607   7.650
 5299POPC   NC314375  12.027  22.150   9.450
 5299POPC   PO414376  12.027  22.135   9.150
 5299POPC   GL114377  12.095  22.148   8.850
 5299POPC   GL214378  12.150  22.226   8.850
 5299POPC   C1A14379  12.104  22.210   8.550
 5299POPC   D2A14380  12.090  22.194   8.250
 5299POPC   C3A14381  12.048  22.189   7.950
 5299POPC   C4A14382  12.072  22.178   7.650
 5299POPC   C1B14383  12.250  22.339   8.550
 5299POPC   C2B14384  12.232  22.333   8.250
 5299POPC   C3B14385  12.180  22.359   7.950
 5299POPC   C4B14386  12.250  22.402   7.650
 5300POPC   NC314387   0.418  40.825   9.450
 5300POPC   PO414388   0.465  40.795   9.150
 5300POPC   GL114389   0.482  40.786   8.850
 5300POPC   GL214390   0.517  40.814   8.850
 5300POPC   C1A14391   0.473  40.756   8.550
 5300POPC   D2A14392   0.454  40.766   8.250
 5300POPC   C3A14393   0.434  40.819   7.950
 5300POPC   C4A14394   0.446  40.775   7.650
 5300POPC   C1B14395   0.725  40.847   8.550
 5300POPC   C2B14396   0.727  40.815   8.250
 5300POPC   C3B14397   0.700  40.869   7.950
 5300POPC   C4B14398   0.707  40.873   7.650
 5301POPC   NC314399  38.459  19.094   9.450
 5301POPC   PO414400  38.433  19.012   9.150
 5301POPC   GL114401  38.418  19.072   8.850
 5301POPC   GL214402  38.423  19.197   8.850
 5301POPC   C1A14403  38.468  19.102   8.550
 5301POPC   D2A14404  38.444  19.092   8.250
 5301POPC   C3A14405  38.414  19.033   7.950
 5301POPC   C4A14406  38.453  19.044   7.650
 5301POPC   C1B14407  38.395  19.310   8.550
 5301POPC   C2B14408  38.453  19.352   8.250
 5301POPC   C3B14409  38.389  19.276   7.950
 5301POPC   C4B14410  38.461  19.339   7.650
 5302POPC   NC314411  43.090   5.875   9.450
 5302POPC   PO414412  43.138   5.864   9.150
 5302POPC   GL114413  43.095   5.883   8.850
 5302POPC   GL214414  42.954   5.955   8.850
 5302POPC   C1A14415  43.062   5.903   8.550
 5302POPC   D2A14416  43.076   5.826   8.250
 5302POPC   C3A14417  43.116   5.913   7.950
 5302POPC   C4A14418  43.132   5.900   7.650
 5302POPC   C1B14419  42.832   5.923   8.550
 5302POPC   C2B14420  42.870   5.956   8.250
 5302POPC   C3B14421  42.893   5.925   7.950
 5302POPC   C4B14422  42.847   5.967   7.650
 5303POPC   NC314423   8.927   3.533   9.450
 5303POPC   PO414424   9.008   3.499   9.150
 5303POPC   GL114425   9.002   3.518   8.850
 5303POPC   GL214426   9.043   3.424   8.850
 5303POPC   C1A14427   8.988   3.532   8.550
 5303POPC   D2A14428   8.988   3.538   8.250
 5303POPC   C3A14429   9.013   3.553   7.950
 5303POPC   C4A14430   9.003   3.577   7.650
 5303POPC   C1B14431   9.051   3.359   8.550
 5303POPC   C2B14432   9.071   3.345   8.250
 5303POPC   C3B14433   9.090   3.333   7.950
 5303POPC   C4B14434   9.107   3.266   7.650
 5304POPC   NC314435   5.877   8.190   9.450
 5304POPC   PO414436   5.848   8.226   9.150
 5304POPC   GL114437   5.917   8.237   8.850
 5304POPC   GL214438   5.780   8.249   8.850
 5304POPC   C1A14439   5.870   8.173   8.550
 5304POPC   D2A14440   5.831   8.173   8.250
 5304POPC   C3A14441   5.875   8.179   7.950
 5304POPC   C4A14442   5.846   8.163   7.650
 5304POPC   C1B14443   5.690   8.418   8.550
 5304POPC   C2B14444   5.672   8.397   8.250
 5304POPC   C3B14445   5.733   8.443   7.950
 5304POPC   C4B14446   5.729   8.380   7.650
 5305POPC   NC314447  32.249  43.919   9.450
 5305POPC   PO414448  32.243  43.885   9.150
 5305POPC   GL114449  32.270  43.885   8.850
 5305POPC   GL214450  32.294  43.797   8.850
 5305POPC   C1A14451  32.219  43.933   8.550
 5305POPC   D2A14452  32.295  43.921   8.250
 5305POPC   C3A14453  32.226  43.935   7.950
 5305POPC   C4A14454  32.224  43.907   7.650
 5305POPC   C1B14455  32.347  43.621   8.550
 5305POPC   C2B14456  32.404  43.646   8.250
 5305POPC   C3B14457  32.359  43.617   7.950
 5305POPC   C4B14458  32.386  43.676   7.650
 5306POPC   NC314459   9.785  19.795   9.450
 5306POPC   PO414460   9.700  19.846   9.150
 5306POPC   GL114461   9.715  19.814   8.850
 5306POPC   GL214462   9.663  19.751   8.850
 5306POPC   C1A14463   9.780  19.850   8.550
 5306POPC   D2A14464   9.701  19.807   8.250
 5306POPC   C3A14465   9.769  19.873   7.950
 5306POPC   C4A14466   9.736  19.860   7.650
 5306POPC   C1B14467   9.525  19.708   8.550
 5306POPC   C2B14468   9.571  19.756   8.250
 5306POPC   C3B14469   9.517  19.707   7.950
 5306POPC   C4B14470   9.501  19.719   7.650
 5307POPC   NC314471  20.562   5.878   9.450
 5307POPC   PO414472  20.638   5.836   9.150
 5307POPC   GL114473  20.605   5.853   8.850
 5307POPC   GL214474  20.682   5.894   8.850
 5307POPC   C1A14475  20.610   5.841   8.550
 5307POPC   D2A14476  20.579   5.913   8.250
 5307POPC   C3A14477  20.616   5.885   7.950
 5307POPC   C4A14478  20.600   5.913   7.650
 5307POPC   C1B14479  20.853   5.972   8.550
 5307POPC   C2B14480  20.883   6.010   8.250
 5307POPC   C3B14481  20.852   5.998   7.950
 5307POPC   C4B14482  20.845   5.952   7.650
 5308POPC   NC314483  26.781   1.231   9.450
 5308POPC   PO414484  26.793   1.251   9.150
 5308POPC   GL114485  26.775   1.191   8.850
 5308POPC   GL214486  26.815   1.118   8.850
 5308POPC   C1A14487  26.770   1.251   8.550
 5308POPC   D2A14488  26.821   1.234   8.250
 5308POPC   C3A14489  26.771   1.257   7.950
 5308POPC   C4A14490  26.796   1.230   7.650
 5308POPC   C1B14491  26.913   1.024   8.550
 5308POPC   C2B14492  26.862   0.983   8.250
 5308POPC   C3B14493  26.844   0.939   7.950
 5308POPC   C4B14494  26.920   0.985   7.650
 5309POPC   NC314495  40.792  23.725   9.450
 5309POPC   PO414496  40.831  23.670   9.150
 5309POPC   GL114497  40.764  23.682   8.850
 5309POPC   GL214498  40.942  23.774   8.850
 5309POPC   C1A14499  40.776  23.675   8.550
 5309POPC   D2A14500  40.779  23.671   8.250
 5309POPC   C3A14501  40.783  23.735   7.950
 5309POPC   C4A14502  40.761  23.735   7.650
 5309POPC   C1B14503  41.066  23.764   8.550
 5309POPC   C2B14504  40.983  23.795   8.250
 5309POPC   C3B14505  40.981  23.850   7.950
 5309POPC   C4B14506  41.057  23.826   7.650
 5310POPC   NC314507  26.037   2.754   9.450
 5310POPC   PO414508  26.035   2.729   9.150
 5310POPC   GL114509  26.039   2.724   8.850
 5310POPC   GL214510  25.992   2.911   8.850
 5310POPC   C1A14511  26.059   2.721   8.550
 5310POPC   D2A14512  26.019   2.813   8.250
 5310POPC   C3A14513  26.019   2.733   7.950
 5310POPC   C4A14514  25.993   2.767   7.650
 5310POPC   C1B14515  25.890   2.944   8.550
 5310POPC   C2B14516  25.934   3.013   8.250
 5310POPC   C3B14517  25.904   2.995   7.950
 5310POPC   C4B14518  25.881   2.945   7.650
 5311POPC   NC314519  26.853   5.091   9.450
 5311POPC   PO414520  26.810   5.091   9.150
 5311POPC   GL114521  26.825   5.064   8.850
 5311POPC   GL214522  26.818   5.227   8.850
 5311POPC   C1A14523  26.768   5.123   8.550
 5311POPC   D2A14524  26.838   5.045   8.250
 5311POPC   C3A14525  26.853   5.050   7.950
 5311POPC   C4A14526  26.863   5.057   7.650
 5311POPC   C1B14527  26.742   5.352   8.550
 5311POPC   C2B14528  26.743   5.339   8.250
 5311POPC   C3B14529  26.767   5.340   7.950
 5311POPC   C4B14530  26.690   5.373   7.650
 5312POPC   NC314531  15.934  29.155   9.450
 5312POPC   PO414532  15.994  29.170   9.150
 5312POPC   GL114533  15.906  29.143   8.850
 5312POPC   GL214534  16.029  29.128   8.850
 5312POPC   C1A14535  15.923  29.160   8.550
 5312POPC   D2A14536  15.954  29.117   8.250
 5312POPC   C3A14537  15.936  29.181   7.950
 5312POPC   C4A14538  15.945  29.189   7.650
 5312POPC   C1B14539  16.215  29.058   8.550
 5312POPC   C2B14540  16.207  29.099   8.250
 5312POPC   C3B14541  16.224  29.073   7.950
 5312POPC   C4B14542  16.187  29.086   7.650
 5313POPC   NC314543  35.348  11.347   9.450
 5313POPC   PO414544  35.308  11.276   9.150
 5313POPC   GL114545  35.348  11.301   8.850
 5313POPC   GL214546  35.221  11.319   8.850
 5313POPC   C1A14547  35.401  11.340   8.550
 5313POPC   D2A14548  35.353  11.321   8.250
 5313POPC   C3A14549  35.343  11.327   7.950
 5313POPC   C4A14550  35.361  11.335   7.650
 5313POPC   C1B14551  35.089  11.354   8.550
 5313POPC   C2B14552  35.093  11.368   8.250
 5313POPC   C3B14553  35.096  11.366   7.950
 5313POPC   C4B14554  35.142  11.309   7.650
 5314POPC   NC314555  38.415  43.919   9.450
 5314POPC   PO414556  38.478  43.895   9.150
 5314POPC   GL114557  38.462  43.860   8.850
 5314POPC   GL214558  38.285  43.853   8.850
 5314POPC   C1A14559  38.436  43.926   8.550
 5314POPC   D2A14560  38.493  43.874   8.250
 5314POPC   C3A14561  38.497  43.926   7.950
 5314POPC   C4A14562  38.466  43.869   7.650
 5314POPC   C1B14563  38.195  43.874   8.550
 5314POPC   C2B14564  38.202  43.850   8.250
 5314POPC   C3B14565  38.242  43.812   7.950
 5314POPC   C4B14566  38.195  43.891   7.650
 5315POPC   NC314567  33.044  13.598   9.450
 5315POPC   PO414568  32.989  13.656   9.150
 5315POPC   GL114569  33.039  13.614   8.850
 5315POPC   GL214570  32.873  13.542   8.850
 5315POPC   C1A14571  32.987  13.607   8.550
 5315POPC   D2A14572  33.000  13.642   8.250
 5315POPC   C3A14573  33.070  13.634   7.950
 5315POPC   C4A14574  33.016  13.606   7.650
 5315POPC   C1B14575  32.762  13.480   8.550
 5315POPC   C2B14576  32.770  13.485   8.250
 5315POPC   C3B14577  32.765  13.536   7.950
 5315POPC   C4B14578  32.783  13.537   7.650
 5316POPC   NC314579  38.420  33.072   9.450
 5316POPC   PO414580  38.437  33.020   9.150
 5316POPC   GL114581  38.495  33.045   8.850
 5316POPC   GL214582  38.372  33.016   8.850
 5316POPC   C1A14583  38.500  33.033   8.550
 5316POPC   D2A14584  38.472  32.999   8.250
 5316POPC   C3A14585  38.441  32.996   7.950
 5316POPC   C4A14586  38.451  33.034   7.650
 5316POPC   C1B14587  38.239  32.964   8.550
 5316POPC   C2B14588  38.261  32.962   8.250
 5316POPC   C3B14589  38.202  32.878   7.950
 5316POPC   C4B14590  38.193  32.899   7.650
 5317POPC   NC314591   5.067  28.389   9.450
 5317POPC   PO414592   5.114  28.414   9.150
 5317POPC   GL114593   5.091  28.360   8.850
 5317POPC   GL214594   5.082  28.213   8.850
 5317POPC   C1A14595   5.089  28.347   8.550
 5317POPC   D2A14596   5.101  28.385   8.250
 5317POPC   C3A14597   5.083  28.328   7.950
 5317POPC   C4A14598   5.108  28.373   7.650
 5317POPC   C1B14599   5.139  28.091   8.550
 5317POPC   C2B14600   5.074  28.149   8.250
 5317POPC   C3B14601   5.081  28.128   7.950
 5317POPC   C4B14602   5.109  28.093   7.650
 5318POPC   NC314603   2.029  30.718   9.450
 5318POPC   PO414604   1.963  30.691   9.150
 5318POPC   GL114605   2.036  30.707   8.850
 5318POPC   GL214606   2.041  30.604   8.850
 5318POPC   C1A14607   2.039  30.666   8.550
 5318POPC   D2A14608   1.985  30.725   8.250
 5318POPC   C3A14609   1.995  30.746   7.950
 5318POPC   C4A14610   2.000  30.655   7.650
 5318POPC   C1B14611   2.053  30.409   8.550
 5318POPC   C2B14612   2.009  30.401   8.250
 5318POPC   C3B14613   1.997  30.488   7.950
 5318POPC   C4B14614   2.003  30.467   7.650
 5319POPC   NC314615  39.271  29.176   9.450
 5319POPC   PO414616  39.264  29.178   9.150
 5319POPC   GL114617  39.242  29.161   8.850
 5319POPC   GL214618  39.105  29.122   8.850
 5319POPC   C1A14619  39.188  29.161   8.550
 5319POPC   D2A14620  39.216  29.147   8.250
 5319POPC   C3A14621  39.217  29.115   7.950
 5319POPC   C4A14622  39.199  29.149   7.650
 5319POPC   C1B14623  38.943  29.096   8.550
 5319POPC   C2B14624  38.987  29.126   8.250
 5319POPC   C3B14625  38.962  29.052   7.950
 5319POPC   C4B14626  38.987  29.059   7.650
 5320POPC   NC314627  29.954  23.700   9.450
 5320POPC   PO414628  29.906  23.751   9.150
 5320POPC   GL114629  29.905  23.747   8.850
 5320POPC   GL214630  29.860  23.546   8.850
 5320POPC   C1A14631  29.971  23.702   8.550
 5320POPC   D2A14632  29.887  23.682   8.250
 5320POPC   C3A14633  29.876  23.670   7.950
 5320POPC   C4A14634  29.912  23.711   7.650
 5320POPC   C1B14635  29.903  23.497   8.550
 5320POPC   C2B14636  29.883  23.515   8.250
 5320POPC   C3B14637  29.850  23.427   7.950
 5320POPC   C4B14638  29.838  23.454   7.650
 5321POPC   NC314639  43.838  12.802   9.450
 5321POPC   PO414640  43.839  12.829   9.150
 5321POPC   GL114641  43.872  12.835   8.850
 5321POPC   GL214642  43.866  13.003   8.850
 5321POPC   C1A14643  43.932  12.829   8.550
 5321POPC   D2A14644  43.872  12.894   8.250
 5321POPC   C3A14645  43.900  12.804   7.950
 5321POPC   C4A14646  43.914  12.898   7.650
 5321POPC   C1B14647  43.798  13.103   8.550
 5321POPC   C2B14648  43.795  13.054   8.250
 5321POPC   C3B14649  43.824  13.085   7.950
 5321POPC   C4B14650  43.865  13.097   7.650
 5322POPC   NC314651  20.632   5.062   9.450
 5322POPC   PO414652  20.619   5.122   9.150
 5322POPC   GL114653  20.574   5.085   8.850
 5322POPC   GL214654  20.506   5.008   8.850
 5322POPC   C1A14655  20.621   5.061   8.550
 5322POPC   D2A14656  20.611   5.053   8.250
 5322POPC   C3A14657  20.639   5.077   7.950
 5322POPC   C4A14658  20.611   5.143   7.650
 5322POPC   C1B14659  20.405   4.920   8.550
 5322POPC   C2B14660  20.395   4.994   8.250
 5322POPC   C3B14661  20.401   4.988   7.950
 5322POPC   C4B14662  20.422   4.949   7.650
 5323POPC   NC314663  38.462   8.963   9.450
 5323POPC   PO414664  38.480   9.002   9.150
 5323POPC   GL114665  38.406   8.942   8.850
 5323POPC   GL214666  38.366   9.101   8.850
 5323POPC   C1A14667  38.486   9.011   8.550
 5323POPC   D2A14668  38.438   8.938   8.250
 5323POPC   C3A14669  38.470   8.969   7.950
 5323POPC   C4A14670  38.466   9.018   7.650
 5323POPC   C1B14671  38.264   9.165   8.550
 5323POPC   C2B14672  38.287   9.198   8.250
 5323POPC   C3B14673  38.355   9.132   7.950
 5323POPC   C4B14674  38.292   9.129   7.650
 5324POPC   NC314675  24.521  35.366   9.450
 5324POPC   PO414676  24.484  35.318   9.150
 5324POPC   GL114677  24.531  35.367   8.850
 5324POPC   GL214678  24.565  35.386   8.850
 5324POPC   C1A14679  24.460  35.367   8.550
 5324POPC   D2A14680  24.451  35.341   8.250
 5324POPC   C3A14681  24.499  35.343   7.950
 5324POPC   C4A14682  24.516  35.341   7.650
 5324POPC   C1B14683  24.665  35.503   8.550
 5324POPC   C2B14684  24.694  35.502   8.250
 5324POPC   C3B14685  24.688  35.503   7.950
 5324POPC   C4B14686  24.653  35.501   7.650
 5325POPC   NC314687  27.605  36.147   9.450
 5325POPC   PO414688  27.591  36.157   9.150
 5325POPC   GL114689  27.574  36.103   8.850
 5325POPC   GL214690  27.607  36.253   8.850
 5325POPC   C1A14691  27.553  36.101   8.550
 5325POPC   D2A14692  27.599  36.095   8.250
 5325POPC   C3A14693  27.589  36.166   7.950
 5325POPC   C4A14694  27.558  36.100   7.650
 5325POPC   C1B14695  27.612  36.361   8.550
 5325POPC   C2B14696  27.645  36.336   8.250
 5325POPC   C3B14697  27.583  36.423   7.950
 5325POPC   C4B14698  27.599  36.426   7.650
 5326POPC   NC314699  43.098  36.870   9.450
 5326POPC   PO414700  43.159  36.888   9.150
 5326POPC   GL114701  43.159  36.893   8.850
 5326POPC   GL214702  43.090  36.819   8.850
 5326POPC   C1A14703  43.086  36.867   8.550
 5326POPC   D2A14704  43.109  36.887   8.250
 5326POPC   C3A14705  43.110  36.889   7.950
 5326POPC   C4A14706  43.109  36.927   7.650
 5326POPC   C1B14707  43.010  36.698   8.550
 5326POPC   C2B14708  42.985  36.658   8.250
 5326POPC   C3B14709  42.998  36.685   7.950
 5326POPC   C4B14710  43.044  36.684   7.650
 5327POPC   NC314711  42.292  16.710   9.450
 5327POPC   PO414712  42.365  16.685   9.150
 5327POPC   GL114713  42.285  16.736   8.850
 5327POPC   GL214714  42.389  16.822   8.850
 5327POPC   C1A14715  42.354  16.764   8.550
 5327POPC   D2A14716  42.329  16.767   8.250
 5327POPC   C3A14717  42.368  16.770   7.950
 5327POPC   C4A14718  42.314  16.775   7.650
 5327POPC   C1B14719  42.487  16.847   8.550
 5327POPC   C2B14720  42.507  16.859   8.250
 5327POPC   C3B14721  42.580  16.889   7.950
 5327POPC   C4B14722  42.502  16.845   7.650
 5328POPC   NC314723   5.070   4.355   9.450
 5328POPC   PO414724   5.049   4.270   9.150
 5328POPC   GL114725   5.102   4.288   8.850
 5328POPC   GL214726   5.173   4.237   8.850
 5328POPC   C1A14727   5.050   4.324   8.550
 5328POPC   D2A14728   5.128   4.362   8.250
 5328POPC   C3A14729   5.134   4.276   7.950
 5328POPC   C4A14730   5.077   4.322   7.650
 5328POPC   C1B14731   5.192   4.123   8.550
 5328POPC   C2B14732   5.223   4.077   8.250
 5328POPC   C3B14733   5.199   4.057   7.950
 5328POPC   C4B14734   5.198   4.057   7.650
 5329POPC   NC314735  19.788  40.039   9.450
 5329POPC   PO414736  19.812  40.036   9.150
 5329POPC   GL114737  19.828  40.005   8.850
 5329POPC   GL214738  19.716  40.057   8.850
 5329POPC   C1A14739  19.795  39.963   8.550
 5329POPC   D2A14740  19.788  40.043   8.250
 5329POPC   C3A14741  19.818  40.026   7.950
 5329POPC   C4A14742  19.881  39.997   7.650
 5329POPC   C1B14743  19.556  40.085   8.550
 5329POPC   C2B14744  19.615  40.038   8.250
 5329POPC   C3B14745  19.607  40.092   7.950
 5329POPC   C4B14746  19.608  40.074   7.650
 5330POPC   NC314747   2.004  15.928   9.450
 5330POPC   PO414748   1.947  15.984   9.150
 5330POPC   GL114749   2.031  15.908   8.850
 5330POPC   GL214750   1.866  15.868   8.850
 5330POPC   C1A14751   1.990  15.949   8.550
 5330POPC   D2A14752   1.978  15.974   8.250
 5330POPC   C3A14753   1.972  15.948   7.950
 5330POPC   C4A14754   1.990  15.974   7.650
 5330POPC   C1B14755   1.720  15.860   8.550
 5330POPC   C2B14756   1.725  15.803   8.250
 5330POPC   C3B14757   1.797  15.831   7.950
 5330POPC   C4B14758   1.778  15.832   7.650
 5331POPC   NC314759  20.571  28.358   9.450
 5331POPC   PO414760  20.572  28.404   9.150
 5331POPC   GL114761  20.580  28.401   8.850
 5331POPC   GL214762  20.492  28.291   8.850
 5331POPC   C1A14763  20.594  28.345   8.550
 5331POPC   D2A14764  20.585  28.406   8.250
 5331POPC   C3A14765  20.603  28.383   7.950
 5331POPC   C4A14766  20.603  28.371   7.650
 5331POPC   C1B14767  20.438  28.183   8.550
 5331POPC   C2B14768  20.438  28.231   8.250
 5331POPC   C3B14769  20.396  28.144   7.950
 5331POPC   C4B14770  20.468  28.184   7.650
 5332POPC   NC314771  23.759  32.218   9.450
 5332POPC   PO414772  23.725  32.281   9.150
 5332POPC   GL114773  23.677  32.282   8.850
 5332POPC   GL214774  23.621  32.319   8.850
 5332POPC   C1A14775  23.697  32.207   8.550
 5332POPC   D2A14776  23.747  32.203   8.250
 5332POPC   C3A14777  23.704  32.231   7.950
 5332POPC   C4A14778  23.759  32.256   7.650
 5332POPC   C1B14779  23.564  32.451   8.550
 5332POPC   C2B14780  23.537  32.469   8.250
 5332POPC   C3B14781  23.536  32.412   7.950
 5332POPC   C4B14782  23.583  32.448   7.650
 5333POPC   NC314783  14.382   7.402   9.450
 5333POPC   PO414784  14.378   7.375   9.150
 5333POPC   GL114785  14.354   7.422   8.850
 5333POPC   GL214786  14.555   7.435   8.850
 5333POPC   C1A14787  14.366   7.459   8.550
 5333POPC   D2A14788  14.429   7.399   8.250
 5333POPC   C3A14789  14.376   7.448   7.950
 5333POPC   C4A14790  14.377   7.464   7.650
 5333POPC   C1B14791  14.650   7.343   8.550
 5333POPC   C2B14792  14.687   7.376   8.250
 5333POPC   C3B14793  14.651   7.419   7.950
 5333POPC   C4B14794  14.672   7.419   7.650
 5334POPC   NC314795   0.475  15.933   9.450
 5334POPC   PO414796   0.450  15.967   9.150
 5334POPC   GL114797   0.414  15.952   8.850
 5334POPC   GL214798   0.310  16.014   8.850
 5334POPC   C1A14799   0.399  15.966   8.550
 5334POPC   D2A14800   0.399  16.000   8.250
 5334POPC   C3A14801   0.457  15.999   7.950
 5334POPC   C4A14802   0.413  15.925   7.650
 5334POPC   C1B14803   0.229  16.170   8.550
 5334POPC   C2B14804   0.224  16.106   8.250
 5334POPC   C3B14805   0.304  16.144   7.950
 5334POPC   C4B14806   0.253  16.105   7.650
 5335POPC   NC314807   1.235   6.653   9.450
 5335POPC   PO414808   1.238   6.650   9.150
 5335POPC   GL114809   1.187   6.691   8.850
 5335POPC   GL214810   1.094   6.779   8.850
 5335POPC   C1A14811   1.167   6.645   8.550
 5335POPC   D2A14812   1.229   6.627   8.250
 5335POPC   C3A14813   1.256   6.634   7.950
 5335POPC   C4A14814   1.166   6.656   7.650
 5335POPC   C1B14815   1.068   6.880   8.550
 5335POPC   C2B14816   1.016   6.833   8.250
 5335POPC   C3B14817   1.063   6.810   7.950
 5335POPC   C4B14818   1.046   6.864   7.650
 5336POPC   NC314819  19.050  39.281   9.450
 5336POPC   PO414820  19.015  39.277   9.150
 5336POPC   GL114821  19.082  39.191   8.850
 5336POPC   GL214822  18.925  39.144   8.850
 5336POPC   C1A14823  19.061  39.234   8.550
 5336POPC   D2A14824  19.015  39.185   8.250
 5336POPC   C3A14825  19.068  39.229   7.950
 5336POPC   C4A14826  19.074  39.183   7.650
 5336POPC   C1B14827  18.912  39.057   8.550
 5336POPC   C2B14828  18.864  39.033   8.250
 5336POPC   C3B14829  18.911  39.022   7.950
 5336POPC   C4B14830  18.914  39.065   7.650
 5337POPC   NC314831  23.745  17.552   9.450
 5337POPC   PO414832  23.729  17.497   9.150
 5337POPC   GL114833  23.709  17.500   8.850
 5337POPC   GL214834  23.718  17.401   8.850
 5337POPC   C1A14835  23.732  17.536   8.550
 5337POPC   D2A14836  23.737  17.479   8.250
 5337POPC   C3A14837  23.724  17.481   7.950
 5337POPC   C4A14838  23.744  17.508   7.650
 5337POPC   C1B14839  23.724  17.301   8.550
 5337POPC   C2B14840  23.684  17.288   8.250
 5337POPC   C3B14841  23.673  17.301   7.950
 5337POPC   C4B14842  23.742  17.225   7.650
 5338POPC   NC314843  17.507  44.625   9.450
 5338POPC   PO414844  17.514  44.622   9.150
 5338POPC   GL114845  17.476  44.681   8.850
 5338POPC   GL214846  17.572  44.822   8.850
 5338POPC   C1A14847  17.496  44.620   8.550
 5338POPC   D2A14848  17.523  44.657   8.250
 5338POPC   C3A14849  17.554  44.692   7.950
 5338POPC   C4A14850  17.549  44.711   7.650
 5338POPC   C1B14851  17.634  44.847   8.550
 5338POPC   C2B14852  17.647  44.911   8.250
 5338POPC   C3B14853  17.591  44.866   7.950
 5338POPC   C4B14854  17.633  44.919   7.650
 5339POPC   NC314855   4.309  14.446   9.450
 5339POPC   PO414856   4.341  14.354   9.150
 5339POPC   GL114857   4.283  14.424   8.850
 5339POPC   GL214858   4.397  14.486   8.850
 5339POPC   C1A14859   4.324  14.436   8.550
 5339POPC   D2A14860   4.355  14.405   8.250
 5339POPC   C3A14861   4.357  14.446   7.950
 5339POPC   C4A14862   4.300  14.388   7.650
 5339POPC   C1B14863   4.443  14.597   8.550
 5339POPC   C2B14864   4.424  14.653   8.250
 5339POPC   C3B14865   4.427  14.623   7.950
 5339POPC   C4B14866   4.402  14.592   7.650
 5340POPC   NC314867  23.748  43.127   9.450
 5340POPC   PO414868  23.738  43.128   9.150
 5340POPC   GL114869  23.680  43.064   8.850
 5340POPC   GL214870  23.772  43.021   8.850
 5340POPC   C1A14871  23.744  43.087   8.550
 5340POPC   D2A14872  23.708  43.080   8.250
 5340POPC   C3A14873  23.670  43.089   7.950
 5340POPC   C4A14874  23.717  43.160   7.650
 5340POPC   C1B14875  23.947  42.949   8.550
 5340POPC   C2B14876  23.906  42.951   8.250
 5340POPC   C3B14877  23.949  43.012   7.950
 5340POPC   C4B14878  23.969  43.018   7.650
 5341POPC   NC314879  13.663  15.974   9.450
 5341POPC   PO414880  13.607  15.921   9.150
 5341POPC   GL114881  13.632  15.995   8.850
 5341POPC   GL214882  13.492  15.972   8.850
 5341POPC   C1A14883  13.670  15.938   8.550
 5341POPC   D2A14884  13.630  15.953   8.250
 5341POPC   C3A14885  13.631  15.967   7.950
 5341POPC   C4A14886  13.584  15.915   7.650
 5341POPC   C1B14887  13.380  15.987   8.550
 5341POPC   C2B14888  13.421  16.067   8.250
 5341POPC   C3B14889  13.410  15.987   7.950
 5341POPC   C4B14890  13.435  16.042   7.650
 5342POPC   NC314891  36.947  25.286   9.450
 5342POPC   PO414892  36.875  25.273   9.150
 5342POPC   GL114893  36.875  25.235   8.850
 5342POPC   GL214894  37.057  25.295   8.850
 5342POPC   C1A14895  36.913  25.276   8.550
 5342POPC   D2A14896  36.901  25.306   8.250
 5342POPC   C3A14897  36.877  25.268   7.950
 5342POPC   C4A14898  36.926  25.247   7.650
 5342POPC   C1B14899  37.135  25.246   8.550
 5342POPC   C2B14900  37.177  25.242   8.250
 5342POPC   C3B14901  37.156  25.263   7.950
 5342POPC   C4B14902  37.159  25.246   7.650
 5343POPC   NC314903  28.323   9.754   9.450
 5343POPC   PO414904  28.325   9.798   9.150
 5343POPC   GL114905  28.367   9.751   8.850
 5343POPC   GL214906  28.460   9.690   8.850
 5343POPC   C1A14907  28.359   9.754   8.550
 5343POPC   D2A14908  28.393   9.771   8.250
 5343POPC   C3A14909  28.344   9.707   7.950
 5343POPC   C4A14910  28.354   9.770   7.650
 5343POPC   C1B14911  28.572   9.562   8.550
 5343POPC   C2B14912  28.583   9.585   8.250
 5343POPC   C3B14913  28.601   9.536   7.950
 5343POPC   C4B14914  28.507   9.565   7.650
 5344POPC   NC314915  44.646  12.856   9.450
 5344POPC   PO414916  44.659  12.897   9.150
 5344POPC   GL114917  44.627  12.876   8.850
 5344POPC   GL214918  44.545  12.794   8.850
 5344POPC   C1A14919  44.631  12.886   8.550
 5344POPC   D2A14920  44.664  12.830   8.250
 5344POPC   C3A14921  44.701  12.809   7.950
 5344POPC   C4A14922  44.633  12.873   7.650
 5344POPC   C1B14923  44.489  12.649   8.550
 5344POPC   C2B14924  44.470  12.613   8.250
 5344POPC   C3B14925  44.463  12.663   7.950
 5344POPC   C4B14926  44.512  12.656   7.650
 5345POPC   NC314927  12.072   8.162   9.450
 5345POPC   PO414928  12.121   8.226   9.150
 5345POPC   GL114929  12.064   8.168   8.850
 5345POPC   GL214930  11.965   8.275   8.850
 5345POPC   C1A14931  12.065   8.194   8.550
 5345POPC   D2A14932  12.102   8.217   8.250
 5345POPC   C3A14933  12.095   8.167   7.950
 5345POPC   C4A14934  12.072   8.231   7.650
 5345POPC   C1B14935  11.937   8.334   8.550
 5345POPC   C2B14936  11.889   8.360   8.250
 5345POPC   C3B14937  11.859   8.406   7.950
 5345POPC   C4B14938  11.918   8.345   7.650
 5346POPC   NC314939  16.756   8.963   9.450
 5346POPC   PO414940  16.689   8.964   9.150
 5346POPC   GL114941  16.697   9.012   8.850
 5346POPC   GL214942  16.638   8.872   8.850
 5346POPC   C1A14943  16.753   8.972   8.550
 5346POPC   D2A14944  16.732   9.014   8.250
 5346POPC   C3A14945  16.706   8.951   7.950
 5346POPC   C4A14946  16.709   8.968   7.650
 5346POPC   C1B14947  16.496   8.782   8.550
 5346POPC   C2B14948  16.536   8.825   8.250
 5346POPC   C3B14949  16.580   8.814   7.950
 5346POPC   C4B14950  16.538   8.810   7.650
 5347POPC   NC314951  22.948  31.441   9.450
 5347POPC   PO414952  22.939  31.489   9.150
 5347POPC   GL114953  22.923  31.447   8.850
 5347POPC   GL214954  23.016  31.540   8.850
 5347POPC   C1A14955  22.930  31.485   8.550
 5347POPC   D2A14956  22.977  31.431   8.250
 5347POPC   C3A14957  22.972  31.506   7.950
 5347POPC   C4A14958  22.957  31.483   7.650
 5347POPC   C1B14959  23.183  31.510   8.550
 5347POPC   C2B14960  23.143  31.571   8.250
 5347POPC   C3B14961  23.193  31.501   7.950
 5347POPC   C4B14962  23.171  31.568   7.650
 5348POPC   NC314963   8.950  29.929   9.450
 5348POPC   PO414964   9.022  29.931   9.150
 5348POPC   GL114965   8.975  29.903   8.850
 5348POPC   GL214966   8.947  29.817   8.850
 5348POPC   C1A14967   8.957  29.871   8.550
 5348POPC   D2A14968   8.993  29.947   8.250
 5348POPC   C3A14969   8.929  29.955   7.950
 5348POPC   C4A14970   8.991  29.919   7.650
 5348POPC   C1B14971   8.820  29.736   8.550
 5348POPC   C2B14972   8.873  29.688   8.250
 5348POPC   C3B14973   8.819  29.731   7.950
 5348POPC   C4B14974   8.831  29.677   7.650
 5349POPC   NC314975   5.862  38.500   9.450
 5349POPC   PO414976   5.900  38.488   9.150
 5349POPC   GL114977   5.859  38.482   8.850
 5349POPC   GL214978   5.896  38.604   8.850
 5349POPC   C1A14979   5.856  38.469   8.550
 5349POPC   D2A14980   5.907  38.460   8.250
 5349POPC   C3A14981   5.904  38.473   7.950
 5349POPC   C4A14982   5.857  38.413   7.650
 5349POPC   C1B14983   6.001  38.636   8.550
 5349POPC   C2B14984   5.959  38.639   8.250
 5349POPC   C3B14985   5.962  38.720   7.950
 5349POPC   C4B14986   6.005  38.650   7.650
 5350POPC   NC314987  12.074  13.637   9.450
 5350POPC   PO414988  12.094  13.673   9.150
 5350POPC   GL114989  12.027  13.588   8.850
 5350POPC   GL214990  12.004  13.758   8.850
 5350POPC   C1A14991  12.043  13.665   8.550
 5350POPC   D2A14992  12.106  13.602   8.250
 5350POPC   C3A14993  12.078  13.631   7.950
 5350POPC   C4A14994  12.102  13.598   7.650
 5350POPC   C1B14995  11.967  13.810   8.550
 5350POPC   C2B14996  11.944  13.790   8.250
 5350POPC   C3B14997  11.915  13.790   7.950
 5350POPC   C4B14998  11.896  13.829   7.650
 5351POPC   NC314999   1.988   5.044   9.450
 5351POPC   PO415000   1.961   5.047   9.150
 5351POPC   GL115001   1.945   5.084   8.850
 5351POPC   GL215002   2.019   5.036   8.850
 5351POPC   C1A15003   2.011   5.116   8.550
 5351POPC   D2A15004   1.953   5.056   8.250
 5351POPC   C3A15005   2.034   5.143   7.950
 5351POPC   C4A15006   1.945   5.085   7.650
 5351POPC   C1B15007   2.081   4.850   8.550
 5351POPC   C2B15008   2.078   4.856   8.250
 5351POPC   C3B15009   2.129   4.861   7.950
 5351POPC   C4B15010   2.138   4.909   7.650
 5352POPC   NC315011  42.359  30.675   9.450
 5352POPC   PO415012  42.384  30.713   9.150
 5352POPC   GL115013  42.310  30.655   8.850
 5352POPC   GL215014  42.260  30.688   8.850
 5352POPC   C1A15015  42.363  30.684   8.550
 5352POPC   D2A15016  42.383  30.712   8.250
 5352POPC   C3A15017  42.325  30.713   7.950
 5352POPC   C4A15018  42.290  30.678   7.650
 5352POPC   C1B15019  42.098  30.678   8.550
 5352POPC   C2B15020  42.074  30.725   8.250
 5352POPC   C3B15021  42.129  30.713   7.950
 5352POPC   C4B15022  42.065  30.704   7.650
 5353POPC   NC315023  12.840   4.357   9.450
 5353POPC   PO415024  12.840   4.344   9.150
 5353POPC   GL115025  12.869   4.319   8.850
 5353POPC   GL215026  12.982   4.375   8.850
 5353POPC   C1A15027  12.870   4.304   8.550
 5353POPC   D2A15028  12.806   4.289   8.250
 5353POPC   C3A15029  12.831   4.307   7.950
 5353POPC   C4A15030  12.822   4.302   7.650
 5353POPC   C1B15031  13.080   4.411   8.550
 5353POPC   C2B15032  13.092   4.406   8.250
 5353POPC   C3B15033  13.065   4.404   7.950
 5353POPC   C4B15034  13.096   4.365   7.650
 5354POPC   NC315035   1.218  23.703   9.450
 5354POPC   PO415036   1.228  23.753   9.150
 5354POPC   GL115037   1.263  23.665   8.850
 5354POPC   GL215038   1.127  23.629   8.850
 5354POPC   C1A15039   1.172  23.727   8.550
 5354POPC   D2A15040   1.251  23.716   8.250
 5354POPC   C3A15041   1.198  23.702   7.950
 5354POPC   C4A15042   1.177  23.690   7.650
 5354POPC   C1B15043   1.021  23.568   8.550
 5354POPC   C2B15044   1.005  23.539   8.250
 5354POPC   C3B15045   1.007  23.600   7.950
 5354POPC   C4B15046   0.958  23.571   7.650
 5355POPC   NC315047  33.765  19.843   9.450
 5355POPC   PO415048  33.819  19.873   9.150
 5355POPC   GL115049  33.813  19.851   8.850
 5355POPC   GL215050  33.742  19.974   8.850
 5355POPC   C1A15051  33.766  19.800   8.550
 5355POPC   D2A15052  33.765  19.882   8.250
 5355POPC   C3A15053  33.782  19.880   7.950
 5355POPC   C4A15054  33.789  19.865   7.650
 5355POPC   C1B15055  33.807  20.049   8.550
 5355POPC   C2B15056  33.733  20.131   8.250
 5355POPC   C3B15057  33.781  20.062   7.950
 5355POPC   C4B15058  33.759  20.103   7.650
 5356POPC   NC315059   1.955  10.549   9.450
 5356POPC   PO415060   2.034  10.487   9.150
 5356POPC   GL115061   1.961  10.477   8.850
 5356POPC   GL215062   1.971  10.668   8.850
 5356POPC   C1A15063   2.038  10.489   8.550
 5356POPC   D2A15064   1.994  10.565   8.250
 5356POPC   C3A15065   1.962  10.522   7.950
 5356POPC   C4A15066   2.032  10.546   7.650
 5356POPC   C1B15067   1.933  10.741   8.550
 5356POPC   C2B15068   1.971  10.798   8.250
 5356POPC   C3B15069   1.968  10.726   7.950
 5356POPC   C4B15070   1.955  10.776   7.650
 5357POPC   NC315071  22.171  17.518   9.450
 5357POPC   PO415072  22.195  17.529   9.150
 5357POPC   GL115073  22.152  17.489   8.850
 5357POPC   GL215074  22.092  17.434   8.850
 5357POPC   C1A15075  22.112  17.515   8.550
 5357POPC   D2A15076  22.172  17.474   8.250
 5357POPC   C3A15077  22.145  17.483   7.950
 5357POPC   C4A15078  22.158  17.536   7.650
 5357POPC   C1B15079  21.875  17.399   8.550
 5357POPC   C2B15080  21.928  17.411   8.250
 5357POPC   C3B15081  21.895  17.413   7.950
 5357POPC   C4B15082  21.911  17.472   7.650
 5358POPC   NC315083  29.149  19.048   9.450
 5358POPC   PO415084  29.116  19.012   9.150
 5358POPC   GL115085  29.127  19.100   8.850
 5358POPC   GL215086  29.202  19.094   8.850
 5358POPC   C1A15087  29.179  19.011   8.550
 5358POPC   D2A15088  29.110  19.029   8.250
 5358POPC   C3A15089  29.102  19.044   7.950
 5358POPC   C4A15090  29.110  19.015   7.650
 5358POPC   C1B15091  29.389  19.165   8.550
 5358POPC   C2B15092  29.395  19.156   8.250
 5358POPC   C3B15093  29.317  19.199   7.950
 5358POPC   C4B15094  29.314  19.185   7.650
 5359POPC   NC315095  29.104  28.347   9.450
 5359POPC   PO415096  29.132  28.371   9.150
 5359POPC   GL115097  29.159  28.418   8.850
 5359POPC   GL215098  29.198  28.201   8.850
 5359POPC   C1A15099  29.167  28.381   8.550
 5359POPC   D2A15100  29.119  28.319   8.250
 5359POPC   C3A15101  29.134  28.394   7.950
 5359POPC   C4A15102  29.161  28.411   7.650
 5359POPC   C1B15103  29.218  28.148   8.550
 5359POPC   C2B15104  29.210  28.100   8.250
 5359POPC   C3B15105  29.207  28.103   7.950
 5359POPC   C4B15106  29.175  28.123   7.650
 5360POPC   NC315107  22.155   2.777   9.450
 5360POPC   PO415108  22.115   2.804   9.150
 5360POPC   GL115109  22.169   2.800   8.850
 5360POPC   GL215110  22.004   2.762   8.850
 5360POPC   C1A15111  22.164   2.800   8.550
 5360POPC   D2A15112  22.144   2.781   8.250
 5360POPC   C3A15113  22.152   2.762   7.950
 5360POPC   C4A15114  22.204   2.728   7.650
 5360POPC   C1B15115  21.893   2.733   8.550
 5360POPC   C2B15116  21.896   2.737   8.250
 5360POPC   C3B15117  21.923   2.745   7.950
 5360POPC   C4B15118  21.938   2.806   7.650
 5361POPC   NC315119  36.117  41.514   9.450
 5361POPC   PO415120  36.177  41.590   9.150
 5361POPC   GL115121  36.128  41.521   8.850
 5361POPC   GL215122  36.074  41.427   8.850
 5361POPC   C1A15123  36.119  41.580   8.550
 5361POPC   D2A15124  36.177  41.596   8.250
 5361POPC   C3A15125  36.116  41.529   7.950
 5361POPC   C4A15126  36.135  41.577   7.650
 5361POPC   C1B15127  35.944  41.372   8.550
 5361POPC   C2B15128  36.002  41.368   8.250
 5361POPC   C3B15129  35.985  41.410   7.950
 5361POPC   C4B15130  35.965  41.364   7.650
 5362POPC   NC315131  30.725  43.863   9.450
 5362POPC   PO415132  30.675  43.887   9.150
 5362POPC   GL115133  30.695  43.933   8.850
 5362POPC   GL215134  30.836  43.788   8.850
 5362POPC   C1A15135  30.656  43.935   8.550
 5362POPC   D2A15136  30.710  43.860   8.250
 5362POPC   C3A15137  30.729  43.934   7.950
 5362POPC   C4A15138  30.657  43.893   7.650
 5362POPC   C1B15139  30.906  43.737   8.550
 5362POPC   C2B15140  30.847  43.764   8.250
 5362POPC   C3B15141  30.899  43.724   7.950
 5362POPC   C4B15142  30.857  43.703   7.650
 5363POPC   NC315143   3.588  27.594   9.450
 5363POPC   PO415144   3.544  27.614   9.150
 5363POPC   GL115145   3.528  27.589   8.850
 5363POPC   GL215146   3.608  27.509   8.850
 5363POPC   C1A15147   3.538  27.563   8.550
 5363POPC   D2A15148   3.522  27.625   8.250
 5363POPC   C3A15149   3.495  27.633   7.950
 5363POPC   C4A15150   3.501  27.598   7.650
 5363POPC   C1B15151   3.629  27.355   8.550
 5363POPC   C2B15152   3.653  27.390   8.250
 5363POPC   C3B15153   3.609  27.314   7.950
 5363POPC   C4B15154   3.655  27.309   7.650
 5364POPC   NC315155  43.923  39.189   9.450
 5364POPC   PO415156  43.852  39.194   9.150
 5364POPC   GL115157  43.895  39.273   8.850
 5364POPC   GL215158  43.980  39.084   8.850
 5364POPC   C1A15159  43.889  39.246   8.550
 5364POPC   D2A15160  43.845  39.239   8.250
 5364POPC   C3A15161  43.933  39.197   7.950
 5364POPC   C4A15162  43.849  39.196   7.650
 5364POPC   C1B15163  43.966  38.986   8.550
 5364POPC   C2B15164  43.953  39.023   8.250
 5364POPC   C3B15165  44.022  38.993   7.950
 5364POPC   C4B15166  43.935  38.993   7.650
 5365POPC   NC315167  37.676  15.197   9.450
 5365POPC   PO415168  37.630  15.193   9.150
 5365POPC   GL115169  37.678  15.200   8.850
 5365POPC   GL215170  37.736  15.078   8.850
 5365POPC   C1A15171  37.696  15.172   8.550
 5365POPC   D2A15172  37.669  15.138   8.250
 5365POPC   C3A15173  37.675  15.207   7.950
 5365POPC   C4A15174  37.647  15.156   7.650
 5365POPC   C1B15175  37.857  15.041   8.550
 5365POPC   C2B15176  37.918  14.992   8.250
 5365POPC   C3B15177  37.827  15.069   7.950
 5365POPC   C4B15178  37.911  15.001   7.650
 5366POPC   NC315179  22.931  29.963   9.450
 5366POPC   PO415180  22.911  29.877   9.150
 5366POPC   GL115181  22.922  29.885   8.850
 5366POPC   GL215182  22.951  29.747   8.850
 5366POPC   C1A15183  22.978  29.876   8.550
 5366POPC   D2A15184  22.955  29.920   8.250
 5366POPC   C3A15185  22.932  29.911   7.950
 5366POPC   C4A15186  22.943  29.942   7.650
 5366POPC   C1B15187  22.922  29.653   8.550
 5366POPC   C2B15188  22.912  29.660   8.250
 5366POPC   C3B15189  22.978  29.717   7.950
 5366POPC   C4B15190  22.997  29.628   7.650
 5367POPC   NC315191  42.311   9.757   9.450
 5367POPC   PO415192  42.291   9.704   9.150
 5367POPC   GL115193  42.306   9.739   8.850
 5367POPC   GL215194  42.307   9.860   8.850
 5367POPC   C1A15195  42.326   9.796   8.550
 5367POPC   D2A15196  42.337   9.737   8.250
 5367POPC   C3A15197  42.363   9.740   7.950
 5367POPC   C4A15198  42.299   9.700   7.650
 5367POPC   C1B15199  42.225   9.950   8.550
 5367POPC   C2B15200  42.253   9.966   8.250
 5367POPC   C3B15201  42.259   9.952   7.950
 5367POPC   C4B15202  42.276  10.019   7.650
 5368POPC   NC315203  22.982  26.777   9.450
 5368POPC   PO415204  22.957  26.814   9.150
 5368POPC   GL115205  22.949  26.857   8.850
 5368POPC   GL215206  23.042  26.965   8.850
 5368POPC   C1A15207  22.944  26.821   8.550
 5368POPC   D2A15208  22.956  26.767   8.250
 5368POPC   C3A15209  22.936  26.855   7.950
 5368POPC   C4A15210  22.909  26.856   7.650
 5368POPC   C1B15211  23.090  27.045   8.550
 5368POPC   C2B15212  23.063  27.013   8.250
 5368POPC   C3B15213  23.070  26.993   7.950
 5368POPC   C4B15214  23.087  27.083   7.650
 5369POPC   NC315215   5.888  25.304   9.450
 5369POPC   PO415216   5.897  25.282   9.150
 5369POPC   GL115217   5.902  25.280   8.850
 5369POPC   GL215218   5.903  25.342   8.850
 5369POPC   C1A15219   5.907  25.312   8.550
 5369POPC   D2A15220   5.846  25.304   8.250
 5369POPC   C3A15221   5.877  25.246   7.950
 5369POPC   C4A15222   5.883  25.272   7.650
 5369POPC   C1B15223   5.858  25.543   8.550
 5369POPC   C2B15224   5.833  25.472   8.250
 5369POPC   C3B15225   5.895  25.507   7.950
 5369POPC   C4B15226   5.869  25.535   7.650
 5370POPC   NC315227   2.007  29.891   9.450
 5370POPC   PO415228   2.009  29.919   9.150
 5370POPC   GL115229   1.950  29.966   8.850
 5370POPC   GL215230   1.978  29.849   8.850
 5370POPC   C1A15231   1.957  29.950   8.550
 5370POPC   D2A15232   2.002  29.954   8.250
 5370POPC   C3A15233   2.001  29.910   7.950
 5370POPC   C4A15234   2.039  29.908   7.650
 5370POPC   C1B15235   2.078  29.727   8.550
 5370POPC   C2B15236   2.111  29.638   8.250
 5370POPC   C3B15237   2.075  29.645   7.950
 5370POPC   C4B15238   2.103  29.638   7.650
 5371POPC   NC315239  39.271   6.655   9.450
 5371POPC   PO415240  39.279   6.688   9.150
 5371POPC   GL115241  39.267   6.649   8.850
 5371POPC   GL215242  39.272   6.531   8.850
 5371POPC   C1A15243  39.262   6.664   8.550
 5371POPC   D2A15244  39.246   6.613   8.250
 5371POPC   C3A15245  39.255   6.628   7.950
 5371POPC   C4A15246  39.271   6.664   7.650
 5371POPC   C1B15247  39.374   6.510   8.550
 5371POPC   C2B15248  39.417   6.487   8.250
 5371POPC   C3B15249  39.452   6.459   7.950
 5371POPC   C4B15250  39.353   6.478   7.650
 5372POPC   NC315251  12.078  31.495   9.450
 5372POPC   PO415252  12.034  31.467   9.150
 5372POPC   GL115253  12.058  31.496   8.850
 5372POPC   GL215254  11.974  31.614   8.850
 5372POPC   C1A15255  12.039  31.454   8.550
 5372POPC   D2A15256  12.042  31.496   8.250
 5372POPC   C3A15257  12.093  31.481   7.950
 5372POPC   C4A15258  12.080  31.429   7.650
 5372POPC   C1B15259  11.925  31.698   8.550
 5372POPC   C2B15260  11.943  31.724   8.250
 5372POPC   C3B15261  11.981  31.666   7.950
 5372POPC   C4B15262  11.943  31.720   7.650
 5373POPC   NC315263  38.489  19.823   9.450
 5373POPC   PO415264  38.480  19.804   9.150
 5373POPC   GL115265  38.468  19.807   8.850
 5373POPC   GL215266  38.344  19.796   8.850
 5373POPC   C1A15267  38.481  19.861   8.550
 5373POPC   D2A15268  38.436  19.789   8.250
 5373POPC   C3A15269  38.439  19.828   7.950
 5373POPC   C4A15270  38.490  19.798   7.650
 5373POPC   C1B15271  38.193  19.786   8.550
 5373POPC   C2B15272  38.232  19.773   8.250
 5373POPC   C3B15273  38.193  19.725   7.950
 5373POPC   C4B15274  38.208  19.774   7.650
 5374POPC   NC315275  27.613  29.894   9.450
 5374POPC   PO415276  27.556  29.969   9.150
 5374POPC   GL115277  27.549  29.871   8.850
 5374POPC   GL215278  27.507  29.935   8.850
 5374POPC   C1A15279  27.603  29.896   8.550
 5374POPC   D2A15280  27.628  29.933   8.250
 5374POPC   C3A15281  27.627  29.884   7.950
 5374POPC   C4A15282  27.568  29.939   7.650
 5374POPC   C1B15283  27.361  29.935   8.550
 5374POPC   C2B15284  27.365  29.959   8.250
 5374POPC   C3B15285  27.339  29.899   7.950
 5374POPC   C4B15286  27.303  29.880   7.650
 5375POPC   NC315287  41.599  19.023   9.450
 5375POPC   PO415288  41.529  19.039   9.150
 5375POPC   GL115289  41.555  19.032   8.850
 5375POPC   GL215290  41.498  18.938   8.850
 5375POPC   C1A15291  41.596  19.018   8.550
 5375POPC   D2A15292  41.600  19.039   8.250
 5375POPC   C3A15293  41.566  19.092   7.950
 5375POPC   C4A15294  41.570  19.051   7.650
 5375POPC   C1B15295  41.506  18.873   8.550
 5375POPC   C2B15296  41.498  18.861   8.250
 5375POPC   C3B15297  41.456  18.807   7.950
 5375POPC   C4B15298  41.436  18.820   7.650
 5376POPC   NC315299   1.193  37.724   9.450
 5376POPC   PO415300   1.172  37.657   9.150
 5376POPC   GL115301   1.259  37.669   8.850
 5376POPC   GL215302   1.312  37.726   8.850
 5376POPC   C1A15303   1.177  37.680   8.550
 5376POPC   D2A15304   1.195  37.661   8.250
 5376POPC   C3A15305   1.256  37.701   7.950
 5376POPC   C4A15306   1.235  37.718   7.650
 5376POPC   C1B15307   1.481  37.651   8.550
 5376POPC   C2B15308   1.414  37.660   8.250
 5376POPC   C3B15309   1.472  37.689   7.950
 5376POPC   C4B15310   1.481  37.690   7.650
 5377POPC   NC315311   0.442  26.060   9.450
 5377POPC   PO415312   0.459  26.053   9.150
 5377POPC   GL115313   0.423  26.057   8.850
 5377POPC   GL215314   0.565  26.097   8.850
 5377POPC   C1A15315   0.442  26.047   8.550
 5377POPC   D2A15316   0.426  26.023   8.250
 5377POPC   C3A15317   0.473  25.992   7.950
 5377POPC   C4A15318   0.438  26.034   7.650
 5377POPC   C1B15319   0.564  26.198   8.550
 5377POPC   C2B15320   0.610  26.265   8.250
 5377POPC   C3B15321   0.590  26.258   7.950
 5377POPC   C4B15322   0.601  26.189   7.650
 5378POPC   NC315323  26.063  34.545   9.450
 5378POPC   PO415324  26.034  34.610   9.150
 5378POPC   GL115325  26.012  34.551   8.850
 5378POPC   GL215326  26.168  34.473   8.850
 5378POPC   C1A15327  26.091  34.589   8.550
 5378POPC   D2A15328  26.067  34.592   8.250
 5378POPC   C3A15329  26.011  34.624   7.950
 5378POPC   C4A15330  26.024  34.606   7.650
 5378POPC   C1B15331  26.210  34.437   8.550
 5378POPC   C2B15332  26.193  34.372   8.250
 5378POPC   C3B15333  26.210  34.363   7.950
 5378POPC   C4B15334  26.188  34.380   7.650
 5379POPC   NC315335  10.556  30.700   9.450
 5379POPC   PO415336  10.499  30.740   9.150
 5379POPC   GL115337  10.559  30.710   8.850
 5379POPC   GL215338  10.586  30.563   8.850
 5379POPC   C1A15339  10.503  30.690   8.550
 5379POPC   D2A15340  10.479  30.676   8.250
 5379POPC   C3A15341  10.508  30.695   7.950
 5379POPC   C4A15342  10.548  30.717   7.650
 5379POPC   C1B15343  10.617  30.406   8.550
 5379POPC   C2B15344  10.529  30.497   8.250
 5379POPC   C3B15345  10.561  30.486   7.950
 5379POPC   C4B15346  10.550  30.497   7.650
 5380POPC   NC315347  15.151  11.329   9.450
 5380POPC   PO415348  15.201  11.284   9.150
 5380POPC   GL115349  15.194  11.277   8.850
 5380POPC   GL215350  15.024  11.266   8.850
 5380POPC   C1A15351  15.160  11.341   8.550
 5380POPC   D2A15352  15.130  11.314   8.250
 5380POPC   C3A15353  15.175  11.251   7.950
 5380POPC   C4A15354  15.146  11.306   7.650
 5380POPC   C1B15355  14.912  11.326   8.550
 5380POPC   C2B15356  14.960  11.322   8.250
 5380POPC   C3B15357  14.980  11.319   7.950
 5380POPC   C4B15358  14.921  11.299   7.650
 5381POPC   NC315359  12.040   3.493   9.450
 5381POPC   PO415360  12.034   3.502   9.150
 5381POPC   GL115361  12.027   3.505   8.850
 5381POPC   GL215362  12.071   3.377   8.850
 5381POPC   C1A15363  12.056   3.535   8.550
 5381POPC   D2A15364  12.092   3.583   8.250
 5381POPC   C3A15365  12.115   3.495   7.950
 5381POPC   C4A15366  12.049   3.557   7.650
 5381POPC   C1B15367  12.096   3.262   8.550
 5381POPC   C2B15368  12.103   3.265   8.250
 5381POPC   C3B15369  12.124   3.294   7.950
 5381POPC   C4B15370  12.095   3.328   7.650
 5382POPC   NC315371  22.897   8.217   9.450
 5382POPC   PO415372  22.931   8.187   9.150
 5382POPC   GL115373  22.936   8.180   8.850
 5382POPC   GL215374  22.834   8.225   8.850
 5382POPC   C1A15375  22.903   8.240   8.550
 5382POPC   D2A15376  22.935   8.171   8.250
 5382POPC   C3A15377  22.969   8.153   7.950
 5382POPC   C4A15378  22.893   8.225   7.650
 5382POPC   C1B15379  22.681   8.298   8.550
 5382POPC   C2B15380  22.706   8.261   8.250
 5382POPC   C3B15381  22.660   8.249   7.950
 5382POPC   C4B15382  22.740   8.229   7.650
 5383POPC   NC315383  31.501  22.943   9.450
 5383POPC   PO415384  31.470  22.925   9.150
 5383POPC   GL115385  31.487  22.901   8.850
 5383POPC   GL215386  31.569  22.995   8.850
 5383POPC   C1A15387  31.456  22.940   8.550
 5383POPC   D2A15388  31.465  22.984   8.250
 5383POPC   C3A15389  31.478  22.894   7.950
 5383POPC   C4A15390  31.474  22.948   7.650
 5383POPC   C1B15391  31.730  23.039   8.550
 5383POPC   C2B15392  31.679  23.015   8.250
 5383POPC   C3B15393  31.748  23.043   7.950
 5383POPC   C4B15394  31.701  22.957   7.650
 5384POPC   NC315395  19.016  21.430   9.450
 5384POPC   PO415396  19.105  21.360   9.150
 5384POPC   GL115397  19.093  21.375   8.850
 5384POPC   GL215398  18.993  21.301   8.850
 5384POPC   C1A15399  19.048  21.366   8.550
 5384POPC   D2A15400  19.059  21.349   8.250
 5384POPC   C3A15401  19.044  21.393   7.950
 5384POPC   C4A15402  19.072  21.385   7.650
 5384POPC   C1B15403  19.007  21.127   8.550
 5384POPC   C2B15404  18.960  21.158   8.250
 5384POPC   C3B15405  19.028  21.152   7.950
 5384POPC   C4B15406  19.022  21.163   7.650
 5385POPC   NC315407  26.049   3.550   9.450
 5385POPC   PO415408  26.057   3.531   9.150
 5385POPC   GL115409  26.088   3.583   8.850
 5385POPC   GL215410  25.884   3.554   8.850
 5385POPC   C1A15411  26.014   3.561   8.550
 5385POPC   D2A15412  26.088   3.535   8.250
 5385POPC   C3A15413  26.003   3.512   7.950
 5385POPC   C4A15414  26.028   3.500   7.650
 5385POPC   C1B15415  25.772   3.623   8.550
 5385POPC   C2B15416  25.792   3.667   8.250
 5385POPC   C3B15417  25.802   3.677   7.950
 5385POPC   C4B15418  25.780   3.658   7.650
 5386POPC   NC315419  11.252   1.980   9.450
 5386POPC   PO415420  11.297   1.994   9.150
 5386POPC   GL115421  11.323   1.996   8.850
 5386POPC   GL215422  11.297   2.157   8.850
 5386POPC   C1A15423  11.251   2.032   8.550
 5386POPC   D2A15424  11.301   2.022   8.250
 5386POPC   C3A15425  11.339   2.006   7.950
 5386POPC   C4A15426  11.324   1.941   7.650
 5386POPC   C1B15427  11.266   2.272   8.550
 5386POPC   C2B15428  11.266   2.205   8.250
 5386POPC   C3B15429  11.236   2.205   7.950
 5386POPC   C4B15430  11.229   2.229   7.650
 5387POPC   NC315431   4.356  10.511   9.450
 5387POPC   PO415432   4.300  10.485   9.150
 5387POPC   GL115433   4.345  10.478   8.850
 5387POPC   GL215434   4.254  10.407   8.850
 5387POPC   C1A15435   4.344  10.523   8.550
 5387POPC   D2A15436   4.271  10.528   8.250
 5387POPC   C3A15437   4.314  10.562   7.950
 5387POPC   C4A15438   4.276  10.568   7.650
 5387POPC   C1B15439   4.266  10.251   8.550
 5387POPC   C2B15440   4.263  10.251   8.250
 5387POPC   C3B15441   4.207  10.241   7.950
 5387POPC   C4B15442   4.206  10.244   7.650
 5388POPC   NC315443  12.881  29.183   9.450
 5388POPC   PO415444  12.826  29.136   9.150
 5388POPC   GL115445  12.852  29.124   8.850
 5388POPC   GL215446  12.846  29.256   8.850
 5388POPC   C1A15447  12.814  29.179   8.550
 5388POPC   D2A15448  12.874  29.116   8.250
 5388POPC   C3A15449  12.828  29.181   7.950
 5388POPC   C4A15450  12.839  29.158   7.650
 5388POPC   C1B15451  12.840  29.425   8.550
 5388POPC   C2B15452  12.833  29.444   8.250
 5388POPC   C3B15453  12.820  29.374   7.950
 5388POPC   C4B15454  12.856  29.387   7.650
 5389POPC   NC315455  43.131  29.951   9.450
 5389POPC   PO415456  43.155  29.921   9.150
 5389POPC   GL115457  43.116  29.895   8.850
 5389POPC   GL215458  42.997  30.053   8.850
 5389POPC   C1A15459  43.075  29.925   8.550
 5389POPC   D2A15460  43.156  29.893   8.250
 5389POPC   C3A15461  43.158  29.962   7.950
 5389POPC   C4A15462  43.067  29.904   7.650
 5389POPC   C1B15463  42.948  30.142   8.550
 5389POPC   C2B15464  42.919  30.072   8.250
 5389POPC   C3B15465  42.898  30.088   7.950
 5389POPC   C4B15466  42.954  30.110   7.650
 5390POPC   NC315467   8.236  44.637   9.450
 5390POPC   PO415468   8.177  44.662   9.150
 5390POPC   GL115469   8.244  44.643   8.850
 5390POPC   GL215470   8.349  44.585   8.850
 5390POPC   C1A15471   8.203  44.707   8.550
 5390POPC   D2A15472   8.246  44.678   8.250
 5390POPC   C3A15473   8.195  44.623   7.950
 5390POPC   C4A15474   8.177  44.699   7.650
 5390POPC   C1B15475   8.405  44.591   8.550
 5390POPC   C2B15476   8.389  44.533   8.250
 5390POPC   C3B15477   8.404  44.533   7.950
 5390POPC   C4B15478   8.406  44.613   7.650
 5391POPC   NC315479  26.045   5.100   9.450
 5391POPC   PO415480  26.048   5.052   9.150
 5391POPC   GL115481  25.998   5.097   8.850
 5391POPC   GL215482  25.949   4.938   8.850
 5391POPC   C1A15483  26.006   5.062   8.550
 5391POPC   D2A15484  26.073   5.075   8.250
 5391POPC   C3A15485  26.004   5.115   7.950
 5391POPC   C4A15486  26.043   5.077   7.650
 5391POPC   C1B15487  25.940   4.850   8.550
 5391POPC   C2B15488  25.954   4.903   8.250
 5391POPC   C3B15489  25.917   4.838   7.950
 5391POPC   C4B15490  25.912   4.844   7.650
 5392POPC   NC315491  43.846  22.131   9.450
 5392POPC   PO415492  43.897  22.160   9.150
 5392POPC   GL115493  43.841  22.153   8.850
 5392POPC   GL215494  43.883  22.244   8.850
 5392POPC   C1A15495  43.924  22.212   8.550
 5392POPC   D2A15496  43.914  22.117   8.250
 5392POPC   C3A15497  43.849  22.131   7.950
 5392POPC   C4A15498  43.907  22.136   7.650
 5392POPC   C1B15499  43.831  22.445   8.550
 5392POPC   C2B15500  43.823  22.394   8.250
 5392POPC   C3B15501  43.832  22.391   7.950
 5392POPC   C4B15502  43.858  22.440   7.650
 5393POPC   NC315503  39.252  43.125   9.450
 5393POPC   PO415504  39.274  43.090   9.150
 5393POPC   GL115505  39.222  43.124   8.850
 5393POPC   GL215506  39.159  43.052   8.850
 5393POPC   C1A15507  39.241  43.102   8.550
 5393POPC   D2A15508  39.189  43.158   8.250
 5393POPC   C3A15509  39.191  43.111   7.950
 5393POPC   C4A15510  39.197  43.146   7.650
 5393POPC   C1B15511  39.031  42.968   8.550
 5393POPC   C2B15512  39.047  42.990   8.250
 5393POPC   C3B15513  39.025  43.004   7.950
 5393POPC   C4B15514  38.997  42.964   7.650
 5394POPC   NC315515  43.847   5.820   9.450
 5394POPC   PO415516  43.926   5.911   9.150
 5394POPC   GL115517  43.905   5.841   8.850
 5394POPC   GL215518  43.836   5.806   8.850
 5394POPC   C1A15519  43.907   5.827   8.550
 5394POPC   D2A15520  43.850   5.919   8.250
 5394POPC   C3A15521  43.871   5.855   7.950
 5394POPC   C4A15522  43.848   5.860   7.650
 5394POPC   C1B15523  43.720   5.665   8.550
 5394POPC   C2B15524  43.792   5.659   8.250
 5394POPC   C3B15525  43.724   5.670   7.950
 5394POPC   C4B15526  43.709   5.653   7.650
 5395POPC   NC315527  43.119  23.747   9.450
 5395POPC   PO415528  43.107  23.746   9.150
 5395POPC   GL115529  43.063  23.752   8.850
 5395POPC   GL215530  42.985  23.667   8.850
 5395POPC   C1A15531  43.072  23.674   8.550
 5395POPC   D2A15532  43.078  23.734   8.250
 5395POPC   C3A15533  43.145  23.764   7.950
 5395POPC   C4A15534  43.147  23.738   7.650
 5395POPC   C1B15535  42.894  23.545   8.550
 5395POPC   C2B15536  42.885  23.569   8.250
 5395POPC   C3B15537  42.930  23.594   7.950
 5395POPC   C4B15538  42.908  23.535   7.650
 5396POPC   NC315539   7.453  39.184   9.450
 5396POPC   PO415540   7.435  39.220   9.150
 5396POPC   GL115541   7.402  39.220   8.850
 5396POPC   GL215542   7.405  39.134   8.850
 5396POPC   C1A15543   7.387  39.188   8.550
 5396POPC   D2A15544   7.379  39.214   8.250
 5396POPC   C3A15545   7.399  39.269   7.950
 5396POPC   C4A15546   7.414  39.254   7.650
 5396POPC   C1B15547   7.371  39.019   8.550
 5396POPC   C2B15548   7.429  38.938   8.250
 5396POPC   C3B15549   7.360  39.019   7.950
 5396POPC   C4B15550   7.422  38.945   7.650
 5397POPC   NC315551  22.903  40.832   9.450
 5397POPC   PO415552  22.961  40.798   9.150
 5397POPC   GL115553  22.987  40.788   8.850
 5397POPC   GL215554  22.853  40.719   8.850
 5397POPC   C1A15555  22.932  40.821   8.550
 5397POPC   D2A15556  22.939  40.748   8.250
 5397POPC   C3A15557  22.956  40.776   7.950
 5397POPC   C4A15558  22.960  40.817   7.650
 5397POPC   C1B15559  22.749  40.639   8.550
 5397POPC   C2B15560  22.791  40.642   8.250
 5397POPC   C3B15561  22.734  40.602   7.950
 5397POPC   C4B15562  22.792  40.596   7.650
 5398POPC   NC315563  22.985  43.107   9.450
 5398POPC   PO415564  22.976  43.134   9.150
 5398POPC   GL115565  22.960  43.141   8.850
 5398POPC   GL215566  23.003  42.952   8.850
 5398POPC   C1A15567  22.958  43.138   8.550
 5398POPC   D2A15568  22.923  43.061   8.250
 5398POPC   C3A15569  22.941  43.074   7.950
 5398POPC   C4A15570  22.957  43.105   7.650
 5398POPC   C1B15571  23.082  42.916   8.550
 5398POPC   C2B15572  23.085  42.857   8.250
 5398POPC   C3B15573  23.064  42.846   7.950
 5398POPC   C4B15574  23.032  42.904   7.650
 5399POPC   NC315575  29.886  10.534   9.450
 5399POPC   PO415576  29.943  10.563   9.150
 5399POPC   GL115577  29.908  10.484   8.850
 5399POPC   GL215578  29.978  10.598   8.850
 5399POPC   C1A15579  29.877  10.526   8.550
 5399POPC   D2A15580  29.915  10.479   8.250
 5399POPC   C3A15581  29.919  10.487   7.950
 5399POPC   C4A15582  29.881  10.516   7.650
 5399POPC   C1B15583  30.115  10.688   8.550
 5399POPC   C2B15584  30.083  10.768   8.250
 5399POPC   C3B15585  30.102  10.743   7.950
 5399POPC   C4B15586  30.044  10.679   7.650
 5400POPC   NC315587  26.090  18.268   9.450
 5400POPC   PO415588  26.086  18.249   9.150
 5400POPC   GL115589  26.071  18.293   8.850
 5400POPC   GL215590  25.942  18.265   8.850
 5400POPC   C1A15591  26.003  18.306   8.550
 5400POPC   D2A15592  26.089  18.247   8.250
 5400POPC   C3A15593  26.048  18.326   7.950
 5400POPC   C4A15594  25.996  18.272   7.650
 5400POPC   C1B15595  25.781  18.289   8.550
 5400POPC   C2B15596  25.806  18.271   8.250
 5400POPC   C3B15597  25.824  18.213   7.950
 5400POPC   C4B15598  25.837  18.286   7.650
 5401POPC   NC315599  35.317  44.657   9.450
 5401POPC   PO415600  35.347  44.625   9.150
 5401POPC   GL115601  35.322  44.679   8.850
 5401POPC   GL215602  35.331  44.739   8.850
 5401POPC   C1A15603  35.392  44.704   8.550
 5401POPC   D2A15604  35.384  44.661   8.250
 5401POPC   C3A15605  35.326  44.670   7.950
 5401POPC   C4A15606  35.326  44.696   7.650
 5401POPC   C1B15607  35.353  44.947   8.550
 5401POPC   C2B15608  35.337  44.941   8.250
 5401POPC   C3B15609  35.277  44.900   7.950
 5401POPC   C4B15610  35.305  44.955   7.650
 5402POPC   NC315611  12.094  10.478   9.450
 5402POPC   PO415612  12.071  10.535   9.150
 5402POPC   GL115613  12.106  10.552   8.850
 5402POPC   GL215614  12.146  10.465   8.850
 5402POPC   C1A15615  12.048  10.554   8.550
 5402POPC   D2A15616  12.074  10.571   8.250
 5402POPC   C3A15617  12.080  10.556   7.950
 5402POPC   C4A15618  12.030  10.486   7.650
 5402POPC   C1B15619  12.327  10.399   8.550
 5402POPC   C2B15620  12.311  10.411   8.250
 5402POPC   C3B15621  12.267  10.406   7.950
 5402POPC   C4B15622  12.309  10.366   7.650
 5403POPC   NC315623  34.590  14.425   9.450
 5403POPC   PO415624  34.592  14.387   9.150
 5403POPC   GL115625  34.546  14.384   8.850
 5403POPC   GL215626  34.639  14.544   8.850
 5403POPC   C1A15627  34.575  14.362   8.550
 5403POPC   D2A15628  34.548  14.403   8.250
 5403POPC   C3A15629  34.583  14.446   7.950
 5403POPC   C4A15630  34.585  14.376   7.650
 5403POPC   C1B15631  34.641  14.599   8.550
 5403POPC   C2B15632  34.601  14.659   8.250
 5403POPC   C3B15633  34.627  14.628   7.950
 5403POPC   C4B15634  34.607  14.664   7.650
 5404POPC   NC315635  21.428  14.438   9.450
 5404POPC   PO415636  21.357  14.374   9.150
 5404POPC   GL115637  21.407  14.441   8.850
 5404POPC   GL215638  21.360  14.536   8.850
 5404POPC   C1A15639  21.345  14.383   8.550
 5404POPC   D2A15640  21.380  14.434   8.250
 5404POPC   C3A15641  21.353  14.402   7.950
 5404POPC   C4A15642  21.403  14.419   7.650
 5404POPC   C1B15643  21.220  14.669   8.550
 5404POPC   C2B15644  21.234  14.616   8.250
 5404POPC   C3B15645  21.308  14.630   7.950
 5404POPC   C4B15646  21.227  14.630   7.650
 5405POPC   NC315647  24.461   9.714   9.450
 5405POPC   PO415648  24.497   9.706   9.150
 5405POPC   GL115649  24.509   9.737   8.850
 5405POPC   GL215650  24.385   9.780   8.850
 5405POPC   C1A15651  24.484   9.787   8.550
 5405POPC   D2A15652  24.460   9.744   8.250
 5405POPC   C3A15653  24.511   9.744   7.950
 5405POPC   C4A15654  24.446   9.765   7.650
 5405POPC   C1B15655  24.273   9.796   8.550
 5405POPC   C2B15656  24.219   9.742   8.250
 5405POPC   C3B15657  24.270   9.777   7.950
 5405POPC   C4B15658  24.238   9.776   7.650
 5406POPC   NC315659  17.463  36.164   9.450
 5406POPC   PO415660  17.513  36.162   9.150
 5406POPC   GL115661  17.472  36.175   8.850
 5406POPC   GL215662  17.371  36.062   8.850
 5406POPC   C1A15663  17.498  36.114   8.550
 5406POPC   D2A15664  17.478  36.147   8.250
 5406POPC   C3A15665  17.490  36.137   7.950
 5406POPC   C4A15666  17.531  36.084   7.650
 5406POPC   C1B15667  17.278  35.999   8.550
 5406POPC   C2B15668  17.357  35.992   8.250
 5406POPC   C3B15669  17.313  35.994   7.950
 5406POPC   C4B15670  17.307  35.936   7.650
 5407POPC   NC315671  44.663  19.087   9.450
 5407POPC   PO415672  44.674  19.080   9.150
 5407POPC   GL115673  44.629  19.095   8.850
 5407POPC   GL215674  44.665  19.231   8.850
 5407POPC   C1A15675  44.635  19.099   8.550
 5407POPC   D2A15676  44.660  19.015   8.250
 5407POPC   C3A15677  44.686  19.012   7.950
 5407POPC   C4A15678  44.701  19.088   7.650
 5407POPC   C1B15679  44.690  19.310   8.550
 5407POPC   C2B15680  44.706  19.352   8.250
 5407POPC   C3B15681  44.630  19.346   7.950
 5407POPC   C4B15682  44.671  19.290   7.650
 5408POPC   NC315683  17.485   2.005   9.450
 5408POPC   PO415684  17.518   2.015   9.150
 5408POPC   GL115685  17.506   1.953   8.850
 5408POPC   GL215686  17.603   1.923   8.850
 5408POPC   C1A15687  17.485   1.995   8.550
 5408POPC   D2A15688  17.552   1.990   8.250
 5408POPC   C3A15689  17.515   1.960   7.950
 5408POPC   C4A15690  17.526   1.977   7.650
 5408POPC   C1B15691  17.578   1.779   8.550
 5408POPC   C2B15692  17.588   1.803   8.250
 5408POPC   C3B15693  17.572   1.739   7.950
 5408POPC   C4B15694  17.621   1.744   7.650
 5409POPC   NC315695  43.064  43.086   9.450
 5409POPC   PO415696  43.102  43.132   9.150
 5409POPC   GL115697  43.138  43.157   8.850
 5409POPC   GL215698  43.031  43.008   8.850
 5409POPC   C1A15699  43.122  43.086   8.550
 5409POPC   D2A15700  43.108  43.151   8.250
 5409POPC   C3A15701  43.112  43.125   7.950
 5409POPC   C4A15702  43.101  43.116   7.650
 5409POPC   C1B15703  42.939  43.036   8.550
 5409POPC   C2B15704  42.854  43.014   8.250
 5409POPC   C3B15705  42.851  43.040   7.950
 5409POPC   C4B15706  42.892  42.950   7.650
 5410POPC   NC315707  29.176  44.696   9.450
 5410POPC   PO415708  29.099  44.660   9.150
 5410POPC   GL115709  29.181  44.659   8.850
 5410POPC   GL215710  29.223  44.560   8.850
 5410POPC   C1A15711  29.114  44.659   8.550
 5410POPC   D2A15712  29.190  44.615   8.250
 5410POPC   C3A15713  29.130  44.702   7.950
 5410POPC   C4A15714  29.166  44.695   7.650
 5410POPC   C1B15715  29.337  44.492   8.550
 5410POPC   C2B15716  29.251  44.510   8.250
 5410POPC   C3B15717  29.284  44.425   7.950
 5410POPC   C4B15718  29.250  44.427   7.650
 5411POPC   NC315719   3.568  19.031   9.450
 5411POPC   PO415720   3.500  19.070   9.150
 5411POPC   GL115721   3.581  19.098   8.850
 5411POPC   GL215722   3.440  18.993   8.850
 5411POPC   C1A15723   3.572  19.061   8.550
 5411POPC   D2A15724   3.538  19.057   8.250
 5411POPC   C3A15725   3.581  19.062   7.950
 5411POPC   C4A15726   3.552  19.050   7.650
 5411POPC   C1B15727   3.425  18.862   8.550
 5411POPC   C2B15728   3.398  18.838   8.250
 5411POPC   C3B15729   3.367  18.836   7.950
 5411POPC   C4B15730   3.377  18.805   7.650
 5412POPC   NC315731  43.929   5.087   9.450
 5412POPC   PO415732  43.889   5.056   9.150
 5412POPC   GL115733  43.860   5.048   8.850
 5412POPC   GL215734  43.813   5.171   8.850
 5412POPC   C1A15735  43.924   5.114   8.550
 5412POPC   D2A15736  43.840   5.087   8.250
 5412POPC   C3A15737  43.926   5.143   7.950
 5412POPC   C4A15738  43.881   5.054   7.650
 5412POPC   C1B15739  43.792   5.338   8.550
 5412POPC   C2B15740  43.736   5.269   8.250
 5412POPC   C3B15741  43.755   5.343   7.950
 5412POPC   C4B15742  43.698   5.306   7.650
 5413POPC   NC315743  11.328   9.778   9.450
 5413POPC   PO415744  11.259   9.764   9.150
 5413POPC   GL115745  11.303   9.745   8.850
 5413POPC   GL215746  11.283   9.683   8.850
 5413POPC   C1A15747  11.319   9.749   8.550
 5413POPC   D2A15748  11.299   9.792   8.250
 5413POPC   C3A15749  11.314   9.765   7.950
 5413POPC   C4A15750  11.275   9.725   7.650
 5413POPC   C1B15751  11.234   9.518   8.550
 5413POPC   C2B15752  11.197   9.518   8.250
 5413POPC   C3B15753  11.213   9.540   7.950
 5413POPC   C4B15754  11.169   9.536   7.650
 5414POPC   NC315755  42.314  40.043   9.450
 5414POPC   PO415756  42.312  40.028   9.150
 5414POPC   GL115757  42.358  40.034   8.850
 5414POPC   GL215758  42.249  40.005   8.850
 5414POPC   C1A15759  42.356  39.967   8.550
 5414POPC   D2A15760  42.344  39.959   8.250
 5414POPC   C3A15761  42.354  40.028   7.950
 5414POPC   C4A15762  42.299  40.045   7.650
 5414POPC   C1B15763  42.091  39.897   8.550
 5414POPC   C2B15764  42.116  39.895   8.250
 5414POPC   C3B15765  42.125  39.902   7.950
 5414POPC   C4B15766  42.134  39.973   7.650
 5415POPC   NC315767  36.944  23.758   9.450
 5415POPC   PO415768  36.916  23.729   9.150
 5415POPC   GL115769  36.945  23.733   8.850
 5415POPC   GL215770  37.047  23.664   8.850
 5415POPC   C1A15771  36.947  23.690   8.550
 5415POPC   D2A15772  36.887  23.703   8.250
 5415POPC   C3A15773  36.936  23.696   7.950
 5415POPC   C4A15774  36.868  23.741   7.650
 5415POPC   C1B15775  37.112  23.697   8.550
 5415POPC   C2B15776  37.152  23.718   8.250
 5415POPC   C3B15777  37.175  23.627   7.950
 5415POPC   C4B15778  37.110  23.678   7.650
 5416POPC   NC315779   1.220  12.083   9.450
 5416POPC   PO415780   1.247  12.088   9.150
 5416POPC   GL115781   1.255  12.069   8.850
 5416POPC   GL215782   1.243  12.233   8.850
 5416POPC   C1A15783   1.258  12.100   8.550
 5416POPC   D2A15784   1.224  12.037   8.250
 5416POPC   C3A15785   1.230  12.070   7.950
 5416POPC   C4A15786   1.179  12.100   7.650
 5416POPC   C1B15787   1.318  12.285   8.550
 5416POPC   C2B15788   1.336  12.290   8.250
 5416POPC   C3B15789   1.315  12.314   7.950
 5416POPC   C4B15790   1.330  12.344   7.650
 5417POPC   NC315791   3.501  24.457   9.450
 5417POPC   PO415792   3.559  24.508   9.150
 5417POPC   GL115793   3.571  24.535   8.850
 5417POPC   GL215794   3.590  24.605   8.850
 5417POPC   C1A15795   3.509  24.461   8.550
 5417POPC   D2A15796   3.522  24.504   8.250
 5417POPC   C3A15797   3.497  24.440   7.950
 5417POPC   C4A15798   3.536  24.473   7.650
 5417POPC   C1B15799   3.504  24.752   8.550
 5417POPC   C2B15800   3.504  24.768   8.250
 5417POPC   C3B15801   3.565  24.711   7.950
 5417POPC   C4B15802   3.540  24.780   7.650
 5418POPC   NC315803  25.263  20.586   9.450
 5418POPC   PO415804  25.232  20.615   9.150
 5418POPC   GL115805  25.311  20.594   8.850
 5418POPC   GL215806  25.348  20.507   8.850
 5418POPC   C1A15807  25.286  20.617   8.550
 5418POPC   D2A15808  25.254  20.648   8.250
 5418POPC   C3A15809  25.234  20.636   7.950
 5418POPC   C4A15810  25.299  20.634   7.650
 5418POPC   C1B15811  25.298  20.338   8.550
 5418POPC   C2B15812  25.343  20.354   8.250
 5418POPC   C3B15813  25.364  20.353   7.950
 5418POPC   C4B15814  25.316  20.416   7.650
 5419POPC   NC315815  12.059  39.187   9.450
 5419POPC   PO415816  12.116  39.206   9.150
 5419POPC   GL115817  12.065  39.268   8.850
 5419POPC   GL215818  12.016  39.143   8.850
 5419POPC   C1A15819  12.036  39.260   8.550
 5419POPC   D2A15820  12.113  39.265   8.250
 5419POPC   C3A15821  12.037  39.183   7.950
 5419POPC   C4A15822  12.072  39.188   7.650
 5419POPC   C1B15823  12.034  39.010   8.550
 5419POPC   C2B15824  12.047  38.954   8.250
 5419POPC   C3B15825  12.012  38.954   7.950
 5419POPC   C4B15826  12.051  38.979   7.650
 5420POPC   NC315827  15.995   9.016   9.450
 5420POPC   PO415828  15.986   8.954   9.150
 5420POPC   GL115829  15.985   8.944   8.850
 5420POPC   GL215830  15.851   9.101   8.850
 5420POPC   C1A15831  15.988   8.983   8.550
 5420POPC   D2A15832  15.942   8.962   8.250
 5420POPC   C3A15833  15.949   8.933   7.950
 5420POPC   C4A15834  15.979   8.943   7.650
 5420POPC   C1B15835  15.741   9.127   8.550
 5420POPC   C2B15836  15.818   9.099   8.250
 5420POPC   C3B15837  15.789   9.162   7.950
 5420POPC   C4B15838  15.728   9.116   7.650
 5421POPC   NC315839  40.015  26.001   9.450
 5421POPC   PO415840  39.986  26.080   9.150
 5421POPC   GL115841  39.969  26.051   8.850
 5421POPC   GL215842  40.085  26.050   8.850
 5421POPC   C1A15843  40.014  26.078   8.550
 5421POPC   D2A15844  39.957  26.091   8.250
 5421POPC   C3A15845  40.041  26.086   7.950
 5421POPC   C4A15846  40.047  26.079   7.650
 5421POPC   C1B15847  40.233  26.017   8.550
 5421POPC   C2B15848  40.242  26.011   8.250
 5421POPC   C3B15849  40.216  26.060   7.950
 5421POPC   C4B15850  40.234  26.045   7.650
 5422POPC   NC315851  25.272  39.963   9.450
 5422POPC   PO415852  25.232  39.986   9.150
 5422POPC   GL115853  25.315  40.040   8.850
 5422POPC   GL215854  25.287  39.854   8.850
 5422POPC   C1A15855  25.280  39.975   8.550
 5422POPC   D2A15856  25.276  40.035   8.250
 5422POPC   C3A15857  25.276  39.980   7.950
 5422POPC   C4A15858  25.232  39.965   7.650
 5422POPC   C1B15859  25.209  39.762   8.550
 5422POPC   C2B15860  25.200  39.719   8.250
 5422POPC   C3B15861  25.204  39.781   7.950
 5422POPC   C4B15862  25.294  39.784   7.650
 5423POPC   NC315863  44.695  23.706   9.450
 5423POPC   PO415864  44.649  23.692   9.150
 5423POPC   GL115865  44.711  23.681   8.850
 5423POPC   GL215866  44.513  23.804   8.850
 5423POPC   C1A15867  44.690  23.739   8.550
 5423POPC   D2A15868  44.651  23.755   8.250
 5423POPC   C3A15869  44.646  23.752   7.950
 5423POPC   C4A15870  44.638  23.708   7.650
 5423POPC   C1B15871  44.401  23.761   8.550
 5423POPC   C2B15872  44.390  23.781   8.250
 5423POPC   C3B15873  44.406  23.761   7.950
 5423POPC   C4B15874  44.464  23.842   7.650
 5424POPC   NC315875   2.740   6.661   9.450
 5424POPC   PO415876   2.766   6.633   9.150
 5424POPC   GL115877   2.807   6.691   8.850
 5424POPC   GL215878   2.653   6.568   8.850
 5424POPC   C1A15879   2.772   6.627   8.550
 5424POPC   D2A15880   2.785   6.672   8.250
 5424POPC   C3A15881   2.804   6.679   7.950
 5424POPC   C4A15882   2.771   6.607   7.650
 5424POPC   C1B15883   2.594   6.501   8.550
 5424POPC   C2B15884   2.519   6.478   8.250
 5424POPC   C3B15885   2.561   6.554   7.950
 5424POPC   C4B15886   2.552   6.555   7.650
 5425POPC   NC315887   7.385  13.674   9.450
 5425POPC   PO415888   7.373  13.617   9.150
 5425POPC   GL115889   7.446  13.637   8.850
 5425POPC   GL215890   7.531  13.680   8.850
 5425POPC   C1A15891   7.421  13.602   8.550
 5425POPC   D2A15892   7.460  13.584   8.250
 5425POPC   C3A15893   7.416  13.595   7.950
 5425POPC   C4A15894   7.371  13.628   7.650
 5425POPC   C1B15895   7.693  13.784   8.550
 5425POPC   C2B15896   7.652  13.777   8.250
 5425POPC   C3B15897   7.620  13.741   7.950
 5425POPC   C4B15898   7.603  13.718   7.650
 5426POPC   NC315899  22.197  26.839   9.450
 5426POPC   PO415900  22.197  26.792   9.150
 5426POPC   GL115901  22.175  26.817   8.850
 5426POPC   GL215902  22.034  26.717   8.850
 5426POPC   C1A15903  22.173  26.796   8.550
 5426POPC   D2A15904  22.145  26.793   8.250
 5426POPC   C3A15905  22.144  26.809   7.950
 5426POPC   C4A15906  22.197  26.810   7.650
 5426POPC   C1B15907  21.985  26.742   8.550
 5426POPC   C2B15908  21.933  26.702   8.250
 5426POPC   C3B15909  21.947  26.675   7.950
 5426POPC   C4B15910  21.956  26.649   7.650
 5427POPC   NC315911  30.687  19.065   9.450
 5427POPC   PO415912  30.732  19.027   9.150
 5427POPC   GL115913  30.706  19.049   8.850
 5427POPC   GL215914  30.535  19.108   8.850
 5427POPC   C1A15915  30.707  19.036   8.550
 5427POPC   D2A15916  30.679  19.082   8.250
 5427POPC   C3A15917  30.720  19.045   7.950
 5427POPC   C4A15918  30.743  19.080   7.650
 5427POPC   C1B15919  30.436  19.065   8.550
 5427POPC   C2B15920  30.434  19.088   8.250
 5427POPC   C3B15921  30.469  19.125   7.950
 5427POPC   C4B15922  30.410  19.046   7.650
 5428POPC   NC315923   7.435   8.995   9.450
 5428POPC   PO415924   7.444   8.931   9.150
 5428POPC   GL115925   7.423   8.955   8.850
 5428POPC   GL215926   7.495   8.901   8.850
 5428POPC   C1A15927   7.435   9.010   8.550
 5428POPC   D2A15928   7.418   8.963   8.250
 5428POPC   C3A15929   7.446   8.938   7.950
 5428POPC   C4A15930   7.392   8.953   7.650
 5428POPC   C1B15931   7.629   8.833   8.550
 5428POPC   C2B15932   7.599   8.779   8.250
 5428POPC   C3B15933   7.625   8.765   7.950
 5428POPC   C4B15934   7.572   8.822   7.650
 5429POPC   NC315935  38.492  24.511   9.450
 5429POPC   PO415936  38.416  24.472   9.150
 5429POPC   GL115937  38.451  24.495   8.850
 5429POPC   GL215938  38.551  24.519   8.850
 5429POPC   C1A15939  38.436  24.483   8.550
 5429POPC   D2A15940  38.430  24.459   8.250
 5429POPC   C3A15941  38.498  24.444   7.950
 5429POPC   C4A15942  38.497  24.536   7.650
 5429POPC   C1B15943  38.727  24.561   8.550
 5429POPC   C2B15944  38.705  24.587   8.250
 5429POPC   C3B15945  38.648  24.565   7.950
 5429POPC   C4B15946  38.721  24.576   7.650
 5430POPC   NC315947   5.056  27.561   9.450
 5430POPC   PO415948   5.116  27.569   9.150
 5430POPC   GL115949   5.107  27.585   8.850
 5430POPC   GL215950   4.928  27.624   8.850
 5430POPC   C1A15951   5.077  27.625   8.550
 5430POPC   D2A15952   5.048  27.551   8.250
 5430POPC   C3A15953   5.143  27.573   7.950
 5430POPC   C4A15954   5.107  27.614   7.650
 5430POPC   C1B15955   4.892  27.656   8.550
 5430POPC   C2B15956   4.831  27.679   8.250
 5430POPC   C3B15957   4.829  27.622   7.950
 5430POPC   C4B15958   4.826  27.660   7.650
 5431POPC   NC315959  23.751   2.033   9.450
 5431POPC   PO415960  23.723   2.007   9.150
 5431POPC   GL115961  23.743   2.030   8.850
 5431POPC   GL215962  23.729   1.867   8.850
 5431POPC   C1A15963  23.696   1.997   8.550
 5431POPC   D2A15964  23.755   1.994   8.250
 5431POPC   C3A15965  23.689   2.036   7.950
 5431POPC   C4A15966  23.664   2.029   7.650
 5431POPC   C1B15967  23.698   1.740   8.550
 5431POPC   C2B15968  23.638   1.737   8.250
 5431POPC   C3B15969  23.638   1.753   7.950
 5431POPC   C4B15970  23.608   1.768   7.650
 5432POPC   NC315971  34.557  38.468   9.450
 5432POPC   PO415972  34.573  38.415   9.150
 5432POPC   GL115973  34.584  38.426   8.850
 5432POPC   GL215974  34.634  38.401   8.850
 5432POPC   C1A15975  34.561  38.478   8.550
 5432POPC   D2A15976  34.562  38.495   8.250
 5432POPC   C3A15977  34.560  38.482   7.950
 5432POPC   C4A15978  34.546  38.482   7.650
 5432POPC   C1B15979  34.736  38.257   8.550
 5432POPC   C2B15980  34.686  38.263   8.250
 5432POPC   C3B15981  34.720  38.275   7.950
 5432POPC   C4B15982  34.712  38.210   7.650
 5433POPC   NC315983  12.031  36.902   9.450
 5433POPC   PO415984  12.046  36.902   9.150
 5433POPC   GL115985  12.075  36.933   8.850
 5433POPC   GL215986  12.134  36.987   8.850
 5433POPC   C1A15987  12.089  36.874   8.550
 5433POPC   D2A15988  12.043  36.865   8.250
 5433POPC   C3A15989  12.084  36.931   7.950
 5433POPC   C4A15990  12.028  36.938   7.650
 5433POPC   C1B15991  12.140  37.200   8.550
 5433POPC   C2B15992  12.061  37.131   8.250
 5433POPC   C3B15993  12.068  37.196   7.950
 5433POPC   C4B15994  12.065  37.140   7.650
 5434POPC   NC315995  40.040  35.361   9.450
 5434POPC   PO415996  40.055  35.364   9.150
 5434POPC   GL115997  40.015  35.400   8.850
 5434POPC   GL215998  40.091  35.428   8.850
 5434POPC   C1A15999  39.975  35.316   8.550
 5434POPC   D2A16000  39.985  35.303   8.250
 5434POPC   C3A16001  39.972  35.383   7.950
 5434POPC   C4A16002  39.976  35.362   7.650
 5434POPC   C1B16003  40.201  35.451   8.550
 5434POPC   C2B16004  40.234  35.511   8.250
 5434POPC   C3B16005  40.204  35.515   7.950
 5434POPC   C4B16006  40.221  35.498   7.650
 5435POPC   NC316007  27.620   8.234   9.450
 5435POPC   PO416008  27.584   8.159   9.150
 5435POPC   GL116009  27.629   8.238   8.850
 5435POPC   GL216010  27.436   8.130   8.850
 5435POPC   C1A16011  27.554   8.193   8.550
 5435POPC   D2A16012  27.599   8.174   8.250
 5435POPC   C3A16013  27.569   8.178   7.950
 5435POPC   C4A16014  27.577   8.200   7.650
 5435POPC   C1B16015  27.301   8.133   8.550
 5435POPC   C2B16016  27.317   8.170   8.250
 5435POPC   C3B16017  27.341   8.148   7.950
 5435POPC   C4B16018  27.369   8.183   7.650
 5436POPC   NC316019   5.821   7.455   9.450
 5436POPC   PO416020   5.875   7.470   9.150
 5436POPC   GL116021   5.893   7.405   8.850
 5436POPC   GL216022   5.768   7.352   8.850
 5436POPC   C1A16023   5.902   7.462   8.550
 5436POPC   D2A16024   5.838   7.456   8.250
 5436POPC   C3A16025   5.846   7.459   7.950
 5436POPC   C4A16026   5.858   7.450   7.650
 5436POPC   C1B16027   5.705   7.258   8.550
 5436POPC   C2B16028   5.649   7.234   8.250
 5436POPC   C3B16029   5.678   7.204   7.950
 5436POPC   C4B16030   5.677   7.239   7.650
 5437POPC   NC316031   1.962   7.466   9.450
 5437POPC   PO416032   1.982   7.449   9.150
 5437POPC   GL116033   1.976   7.452   8.850
 5437POPC   GL216034   1.933   7.283   8.850
 5437POPC   C1A16035   1.992   7.451   8.550
 5437POPC   D2A16036   2.002   7.409   8.250
 5437POPC   C3A16037   1.977   7.384   7.950
 5437POPC   C4A16038   2.004   7.459   7.650
 5437POPC   C1B16039   1.842   7.218   8.550
 5437POPC   C2B16040   1.871   7.164   8.250
 5437POPC   C3B16041   1.855   7.258   7.950
 5437POPC   C4B16042   1.828   7.253   7.650
 5438POPC   NC316043  39.999   5.890   9.450
 5438POPC   PO416044  39.967   5.841   9.150
 5438POPC   GL116045  40.056   5.882   8.850
 5438POPC   GL216046  39.851   5.817   8.850
 5438POPC   C1A16047  39.993   5.833   8.550
 5438POPC   D2A16048  39.987   5.918   8.250
 5438POPC   C3A16049  39.980   5.821   7.950
 5438POPC   C4A16050  40.051   5.851   7.650
 5438POPC   C1B16051  39.765   5.856   8.550
 5438POPC   C2B16052  39.763   5.805   8.250
 5438POPC   C3B16053  39.796   5.836   7.950
 5438POPC   C4B16054  39.723   5.801   7.650
 5439POPC   NC316055  24.461  36.097   9.450
 5439POPC   PO416056  24.451  36.142   9.150
 5439POPC   GL116057  24.464  36.082   8.850
 5439POPC   GL216058  24.632  36.199   8.850
 5439POPC   C1A16059  24.536  36.131   8.550
 5439POPC   D2A16060  24.526  36.120   8.250
 5439POPC   C3A16061  24.486  36.132   7.950
 5439POPC   C4A16062  24.447  36.114   7.650
 5439POPC   C1B16063  24.733  36.212   8.550
 5439POPC   C2B16064  24.715  36.214   8.250
 5439POPC   C3B16065  24.738  36.216   7.950
 5439POPC   C4B16066  24.736  36.284   7.650
 5440POPC   NC316067  44.616  29.964   9.450
 5440POPC   PO416068  44.681  29.880   9.150
 5440POPC   GL116069  44.639  29.884   8.850
 5440POPC   GL216070  44.695  29.826   8.850
 5440POPC   C1A16071  44.677  29.967   8.550
 5440POPC   D2A16072  44.684  29.964   8.250
 5440POPC   C3A16073  44.690  29.877   7.950
 5440POPC   C4A16074  44.706  29.873   7.650
 5440POPC   C1B16075  44.656  29.627   8.550
 5440POPC   C2B16076  44.651  29.649   8.250
 5440POPC   C3B16077  44.678  29.686   7.950
 5440POPC   C4B16078  44.674  29.628   7.650
 5441POPC   NC316079  42.357   8.929   9.450
 5441POPC   PO416080  42.360   9.019   9.150
 5441POPC   GL116081  42.350   8.936   8.850
 5441POPC   GL216082  42.229   8.821   8.850
 5441POPC   C1A16083  42.340   8.960   8.550
 5441POPC   D2A16084  42.383   8.963   8.250
 5441POPC   C3A16085  42.323   8.924   7.950
 5441POPC   C4A16086  42.315   8.971   7.650
 5441POPC   C1B16087  42.247   8.706   8.550
 5441POPC   C2B16088  42.210   8.772   8.250
 5441POPC   C3B16089  42.241   8.755   7.950
 5441POPC   C4B16090  42.234   8.793   7.650
 5442POPC   NC316091  21.346  27.642   9.450
 5442POPC   PO416092  21.418  27.573   9.150
 5442POPC   GL116093  21.384  27.602   8.850
 5442POPC   GL216094  21.278  27.538   8.850
 5442POPC   C1A16095  21.395  27.598   8.550
 5442POPC   D2A16096  21.424  27.556   8.250
 5442POPC   C3A16097  21.356  27.546   7.950
 5442POPC   C4A16098  21.368  27.549   7.650
 5442POPC   C1B16099  21.123  27.566   8.550
 5442POPC   C2B16100  21.126  27.492   8.250
 5442POPC   C3B16101  21.138  27.577   7.950
 5442POPC   C4B16102  21.151  27.548   7.650
 5443POPC   NC316103  32.207  40.814   9.450
 5443POPC   PO416104  32.264  40.785   9.150
 5443POPC   GL116105  32.240  40.736   8.850
 5443POPC   GL216106  32.336  40.732   8.850
 5443POPC   C1A16107  32.227  40.775   8.550
 5443POPC   D2A16108  32.250  40.751   8.250
 5443POPC   C3A16109  32.257  40.787   7.950
 5443POPC   C4A16110  32.296  40.750   7.650
 5443POPC   C1B16111  32.457  40.672   8.550
 5443POPC   C2B16112  32.480  40.691   8.250
 5443POPC   C3B16113  32.491  40.646   7.950
 5443POPC   C4B16114  32.493  40.685   7.650
 5444POPC   NC316115  11.291  26.866   9.450
 5444POPC   PO416116  11.344  26.809   9.150
 5444POPC   GL116117  11.253  26.820   8.850
 5444POPC   GL216118  11.427  26.874   8.850
 5444POPC   C1A16119  11.261  26.858   8.550
 5444POPC   D2A16120  11.261  26.819   8.250
 5444POPC   C3A16121  11.306  26.848   7.950
 5444POPC   C4A16122  11.338  26.857   7.650
 5444POPC   C1B16123  11.459  26.983   8.550
 5444POPC   C2B16124  11.519  26.919   8.250
 5444POPC   C3B16125  11.547  26.989   7.950
 5444POPC   C4B16126  11.513  26.974   7.650
 5445POPC   NC316127   5.854  29.929   9.450
 5445POPC   PO416128   5.836  29.970   9.150
 5445POPC   GL116129   5.915  29.898   8.850
 5445POPC   GL216130   5.934  29.803   8.850
 5445POPC   C1A16131   5.902  29.892   8.550
 5445POPC   D2A16132   5.914  29.958   8.250
 5445POPC   C3A16133   5.860  29.938   7.950
 5445POPC   C4A16134   5.841  29.962   7.650
 5445POPC   C1B16135   6.063  29.749   8.550
 5445POPC   C2B16136   6.022  29.773   8.250
 5445POPC   C3B16137   6.039  29.784   7.950
 5445POPC   C4B16138   6.067  29.715   7.650
 5446POPC   NC316139  35.335  36.937   9.450
 5446POPC   PO416140  35.383  36.885   9.150
 5446POPC   GL116141  35.384  36.863   8.850
 5446POPC   GL216142  35.387  37.012   8.850
 5446POPC   C1A16143  35.307  36.860   8.550
 5446POPC   D2A16144  35.344  36.873   8.250
 5446POPC   C3A16145  35.360  36.869   7.950
 5446POPC   C4A16146  35.353  36.858   7.650
 5446POPC   C1B16147  35.335  37.194   8.550
 5446POPC   C2B16148  35.315  37.185   8.250
 5446POPC   C3B16149  35.325  37.122   7.950
 5446POPC   C4B16150  35.411  37.113   7.650
 5447POPC   NC316151  39.987  24.531   9.450
 5447POPC   PO416152  40.051  24.490   9.150
 5447POPC   GL116153  40.033  24.533   8.850
 5447POPC   GL216154  40.010  24.578   8.850
 5447POPC   C1A16155  40.031  24.527   8.550
 5447POPC   D2A16156  40.022  24.528   8.250
 5447POPC   C3A16157  40.016  24.532   7.950
 5447POPC   C4A16158  40.042  24.490   7.650
 5447POPC   C1B16159  39.917  24.687   8.550
 5447POPC   C2B16160  39.953  24.711   8.250
 5447POPC   C3B16161  39.928  24.708   7.950
 5447POPC   C4B16162  39.900  24.720   7.650
 5448POPC   NC316163   4.268  15.205   9.450
 5448POPC   PO416164   4.282  15.197   9.150
 5448POPC   GL116165   4.284  15.192   8.850
 5448POPC   GL216166   4.234  15.241   8.850
 5448POPC   C1A16167   4.346  15.199   8.550
 5448POPC   D2A16168   4.361  15.170   8.250
 5448POPC   C3A16169   4.331  15.226   7.950
 5448POPC   C4A16170   4.347  15.166   7.650
 5448POPC   C1B16171   4.100  15.382   8.550
 5448POPC   C2B16172   4.169  15.382   8.250
 5448POPC   C3B16173   4.170  15.324   7.950
 5448POPC   C4B16174   4.100  15.380   7.650
 5449POPC   NC316175  21.401  40.039   9.450
 5449POPC   PO416176  21.383  40.021   9.150
 5449POPC   GL116177  21.396  40.018   8.850
 5449POPC   GL216178  21.428  40.128   8.850
 5449POPC   C1A16179  21.379  39.996   8.550
 5449POPC   D2A16180  21.341  40.052   8.250
 5449POPC   C3A16181  21.375  39.988   7.950
 5449POPC   C4A16182  21.428  39.964   7.650
 5449POPC   C1B16183  21.433  40.259   8.550
 5449POPC   C2B16184  21.438  40.295   8.250
 5449POPC   C3B16185  21.374  40.265   7.950
 5449POPC   C4B16186  21.436  40.265   7.650
 5450POPC   NC316187  41.587  23.722   9.450
 5450POPC   PO416188  41.600  23.742   9.150
 5450POPC   GL116189  41.574  23.691   8.850
 5450POPC   GL216190  41.613  23.843   8.850
 5450POPC   C1A16191  41.560  23.729   8.550
 5450POPC   D2A16192  41.605  23.664   8.250
 5450POPC   C3A16193  41.528  23.731   7.950
 5450POPC   C4A16194  41.527  23.737   7.650
 5450POPC   C1B16195  41.645  23.926   8.550
 5450POPC   C2B16196  41.626  24.001   8.250
 5450POPC   C3B16197  41.662  23.968   7.950
 5450POPC   C4B16198  41.661  23.924   7.650
 5451POPC   NC316199  36.085  17.552   9.450
 5451POPC   PO416200  36.112  17.493   9.150
 5451POPC   GL116201  36.117  17.467   8.850
 5451POPC   GL216202  36.062  17.409   8.850
 5451POPC   C1A16203  36.089  17.542   8.550
 5451POPC   D2A16204  36.130  17.474   8.250
 5451POPC   C3A16205  36.127  17.468   7.950
 5451POPC   C4A16206  36.174  17.486   7.650
 5451POPC   C1B16207  35.935  17.370   8.550
 5451POPC   C2B16208  35.915  17.355   8.250
 5451POPC   C3B16209  35.924  17.336   7.950
 5451POPC   C4B16210  35.947  17.341   7.650
 5452POPC   NC316211  35.358  15.133   9.450
 5452POPC   PO416212  35.370  15.189   9.150
 5452POPC   GL116213  35.342  15.156   8.850
 5452POPC   GL216214  35.446  15.199   8.850
 5452POPC   C1A16215  35.351  15.211   8.550
 5452POPC   D2A16216  35.381  15.157   8.250
 5452POPC   C3A16217  35.319  15.211   7.950
 5452POPC   C4A16218  35.353  15.213   7.650
 5452POPC   C1B16219  35.618  15.176   8.550
 5452POPC   C2B16220  35.627  15.150   8.250
 5452POPC   C3B16221  35.581  15.177   7.950
 5452POPC   C4B16222  35.569  15.156   7.650
 5453POPC   NC316223  35.342  43.118   9.450
 5453POPC   PO416224  35.304  43.115   9.150
 5453POPC   GL116225  35.303  43.139   8.850
 5453POPC   GL216226  35.390  43.234   8.850
 5453POPC   C1A16227  35.392  43.156   8.550
 5453POPC   D2A16228  35.385  43.096   8.250
 5453POPC   C3A16229  35.366  43.117   7.950
 5453POPC   C4A16230  35.349  43.137   7.650
 5453POPC   C1B16231  35.304  43.358   8.550
 5453POPC   C2B16232  35.342  43.367   8.250
 5453POPC   C3B16233  35.379  43.314   7.950
 5453POPC   C4B16234  35.325  43.387   7.650
 5454POPC   NC316235  35.334   8.945   9.450
 5454POPC   PO416236  35.401   8.928   9.150
 5454POPC   GL116237  35.324   9.012   8.850
 5454POPC   GL216238  35.194   8.918   8.850
 5454POPC   C1A16239  35.343   8.943   8.550
 5454POPC   D2A16240  35.320   8.944   8.250
 5454POPC   C3A16241  35.312   9.010   7.950
 5454POPC   C4A16242  35.358   8.935   7.650
 5454POPC   C1B16243  35.149   8.932   8.550
 5454POPC   C2B16244  35.098   8.930   8.250
 5454POPC   C3B16245  35.066   8.979   7.950
 5454POPC   C4B16246  35.107   8.949   7.650
 5455POPC   NC316247   1.985  36.939   9.450
 5455POPC   PO416248   2.017  36.925   9.150
 5455POPC   GL116249   1.955  36.924   8.850
 5455POPC   GL216250   1.961  37.052   8.850
 5455POPC   C1A16251   1.966  36.939   8.550
 5455POPC   D2A16252   1.973  36.947   8.250
 5455POPC   C3A16253   2.024  36.915   7.950
 5455POPC   C4A16254   1.941  36.909   7.650
 5455POPC   C1B16255   2.026  37.129   8.550
 5455POPC   C2B16256   2.020  37.116   8.250
 5455POPC   C3B16257   1.986  37.171   7.950
 5455POPC   C4B16258   2.017  37.114   7.650
 5456POPC   NC316259  19.080  38.442   9.450
 5456POPC   PO416260  19.077  38.424   9.150
 5456POPC   GL116261  19.108  38.423   8.850
 5456POPC   GL216262  19.117  38.358   8.850
 5456POPC   C1A16263  19.065  38.449   8.550
 5456POPC   D2A16264  19.068  38.410   8.250
 5456POPC   C3A16265  19.042  38.462   7.950
 5456POPC   C4A16266  19.053  38.424   7.650
 5456POPC   C1B16267  19.222  38.239   8.550
 5456POPC   C2B16268  19.214  38.256   8.250
 5456POPC   C3B16269  19.276  38.276   7.950
 5456POPC   C4B16270  19.235  38.250   7.650
 5457POPC   NC316271  11.273  40.750   9.450
 5457POPC   PO416272  11.295  40.810   9.150
 5457POPC   GL116273  11.265  40.749   8.850
 5457POPC   GL216274  11.252  40.925   8.850
 5457POPC   C1A16275  11.274  40.756   8.550
 5457POPC   D2A16276  11.293  40.798   8.250
 5457POPC   C3A16277  11.261  40.744   7.950
 5457POPC   C4A16278  11.276  40.830   7.650
 5457POPC   C1B16279  11.169  41.035   8.550
 5457POPC   C2B16280  11.174  41.006   8.250
 5457POPC   C3B16281  11.183  41.027   7.950
 5457POPC   C4B16282  11.211  41.023   7.650
 5458POPC   NC316283  10.526   5.840   9.450
 5458POPC   PO416284  10.477   5.907   9.150
 5458POPC   GL116285  10.524   5.829   8.850
 5458POPC   GL216286  10.397   5.838   8.850
 5458POPC   C1A16287  10.509   5.876   8.550
 5458POPC   D2A16288  10.552   5.859   8.250
 5458POPC   C3A16289  10.563   5.906   7.950
 5458POPC   C4A16290  10.508   5.827   7.650
 5458POPC   C1B16291  10.258   5.912   8.550
 5458POPC   C2B16292  10.296   5.841   8.250
 5458POPC   C3B16293  10.312   5.922   7.950
 5458POPC   C4B16294  10.287   5.842   7.650
 5459POPC   NC316295  15.177   4.288   9.450
 5459POPC   PO416296  15.176   4.353   9.150
 5459POPC   GL116297  15.223   4.272   8.850
 5459POPC   GL216298  15.103   4.264   8.850
 5459POPC   C1A16299  15.225   4.315   8.550
 5459POPC   D2A16300  15.192   4.331   8.250
 5459POPC   C3A16301  15.201   4.298   7.950
 5459POPC   C4A16302  15.193   4.272   7.650
 5459POPC   C1B16303  14.911   4.247   8.550
 5459POPC   C2B16304  14.967   4.220   8.250
 5459POPC   C3B16305  14.982   4.196   7.950
 5459POPC   C4B16306  14.947   4.214   7.650
 5460POPC   NC316307   2.777  43.155   9.450
 5460POPC   PO416308   2.773  43.086   9.150
 5460POPC   GL116309   2.765  43.084   8.850
 5460POPC   GL216310   2.750  43.228   8.850
 5460POPC   C1A16311   2.749  43.105   8.550
 5460POPC   D2A16312   2.775  43.088   8.250
 5460POPC   C3A16313   2.773  43.136   7.950
 5460POPC   C4A16314   2.796  43.098   7.650
 5460POPC   C1B16315   2.775  43.372   8.550
 5460POPC   C2B16316   2.721  43.394   8.250
 5460POPC   C3B16317   2.774  43.346   7.950
 5460POPC   C4B16318   2.734  43.361   7.650
 5461POPC   NC316319  34.561   8.971   9.450
 5461POPC   PO416320  34.551   8.951   9.150
 5461POPC   GL116321  34.549   8.962   8.850
 5461POPC   GL216322  34.505   8.840   8.850
 5461POPC   C1A16323  34.562   8.939   8.550
 5461POPC   D2A16324  34.597   9.001   8.250
 5461POPC   C3A16325  34.532   8.996   7.950
 5461POPC   C4A16326  34.538   9.010   7.650
 5461POPC   C1B16327  34.554   8.683   8.550
 5461POPC   C2B16328  34.564   8.696   8.250
 5461POPC   C3B16329  34.501   8.703   7.950
 5461POPC   C4B16330  34.497   8.750   7.650
 5462POPC   NC316331   4.276  30.666   9.450
 5462POPC   PO416332   4.302  30.692   9.150
 5462POPC   GL116333   4.345  30.726   8.850
 5462POPC   GL216334   4.238  30.765   8.850
 5462POPC   C1A16335   4.316  30.732   8.550
 5462POPC   D2A16336   4.329  30.664   8.250
 5462POPC   C3A16337   4.318  30.701   7.950
 5462POPC   C4A16338   4.283  30.696   7.650
 5462POPC   C1B16339   4.118  30.905   8.550
 5462POPC   C2B16340   4.172  30.868   8.250
 5462POPC   C3B16341   4.118  30.853   7.950
 5462POPC   C4B16342   4.178  30.865   7.650
 5463POPC   NC316343   1.211  15.950   9.450
 5463POPC   PO416344   1.217  15.989   9.150
 5463POPC   GL116345   1.178  15.925   8.850
 5463POPC   GL216346   1.149  16.077   8.850
 5463POPC   C1A16347   1.228  15.931   8.550
 5463POPC   D2A16348   1.244  15.973   8.250
 5463POPC   C3A16349   1.232  15.972   7.950
 5463POPC   C4A16350   1.188  15.942   7.650
 5463POPC   C1B16351   1.077  16.204   8.550
 5463POPC   C2B16352   1.123  16.174   8.250
 5463POPC   C3B16353   1.080  16.216   7.950
 5463POPC   C4B16354   1.102  16.217   7.650
 5464POPC   NC316355  26.848  19.837   9.450
 5464POPC   PO416356  26.859  19.828   9.150
 5464POPC   GL116357  26.830  19.849   8.850
 5464POPC   GL216358  26.964  19.955   8.850
 5464POPC   C1A16359  26.818  19.805   8.550
 5464POPC   D2A16360  26.799  19.880   8.250
 5464POPC   C3A16361  26.795  19.861   7.950
 5464POPC   C4A16362  26.830  19.819   7.650
 5464POPC   C1B16363  26.965  19.970   8.550
 5464POPC   C2B16364  27.056  19.967   8.250
 5464POPC   C3B16365  26.998  19.964   7.950
 5464POPC   C4B16366  27.056  20.025   7.650
 5465POPC   NC316367  22.120  19.873   9.450
 5465POPC   PO416368  22.150  19.813   9.150
 5465POPC   GL116369  22.136  19.787   8.850
 5465POPC   GL216370  22.145  19.738   8.850
 5465POPC   C1A16371  22.133  19.831   8.550
 5465POPC   D2A16372  22.124  19.873   8.250
 5465POPC   C3A16373  22.145  19.852   7.950
 5465POPC   C4A16374  22.144  19.798   7.650
 5465POPC   C1B16375  22.029  19.579   8.550
 5465POPC   C2B16376  22.114  19.651   8.250
 5465POPC   C3B16377  22.033  19.579   7.950
 5465POPC   C4B16378  22.063  19.641   7.650
 5466POPC   NC316379   1.999  11.303   9.450
 5466POPC   PO416380   1.987  11.299   9.150
 5466POPC   GL116381   1.950  11.298   8.850
 5466POPC   GL216382   1.947  11.411   8.850
 5466POPC   C1A16383   1.959  11.322   8.550
 5466POPC   D2A16384   1.960  11.335   8.250
 5466POPC   C3A16385   1.942  11.306   7.950
 5466POPC   C4A16386   1.974  11.306   7.650
 5466POPC   C1B16387   1.897  11.570   8.550
 5466POPC   C2B16388   1.853  11.506   8.250
 5466POPC   C3B16389   1.910  11.485   7.950
 5466POPC   C4B16390   1.922  11.517   7.650
 5467POPC   NC316391  36.941  26.840   9.450
 5467POPC   PO416392  36.876  26.847   9.150
 5467POPC   GL116393  36.939  26.795   8.850
 5467POPC   GL216394  36.990  26.853   8.850
 5467POPC   C1A16395  36.886  26.775   8.550
 5467POPC   D2A16396  36.907  26.847   8.250
 5467POPC   C3A16397  36.888  26.832   7.950
 5467POPC   C4A16398  36.883  26.835   7.650
 5467POPC   C1B16399  37.115  26.926   8.550
 5467POPC   C2B16400  37.096  26.946   8.250
 5467POPC   C3B16401  37.093  27.020   7.950
 5467POPC   C4B16402  37.107  27.010   7.650
 5468POPC   NC316403  13.608  19.044   9.450
 5468POPC   PO416404  13.614  19.100   9.150
 5468POPC   GL116405  13.668  19.048   8.850
 5468POPC   GL216406  13.704  19.180   8.850
 5468POPC   C1A16407  13.676  19.081   8.550
 5468POPC   D2A16408  13.627  19.021   8.250
 5468POPC   C3A16409  13.618  19.099   7.950
 5468POPC   C4A16410  13.677  19.030   7.650
 5468POPC   C1B16411  13.812  19.166   8.550
 5468POPC   C2B16412  13.871  19.190   8.250
 5468POPC   C3B16413  13.838  19.195   7.950
 5468POPC   C4B16414  13.867  19.174   7.650
 5469POPC   NC316415  34.604  35.346   9.450
 5469POPC   PO416416  34.582  35.353   9.150
 5469POPC   GL116417  34.616  35.315   8.850
 5469POPC   GL216418  34.705  35.224   8.850
 5469POPC   C1A16419  34.598  35.333   8.550
 5469POPC   D2A16420  34.598  35.362   8.250
 5469POPC   C3A16421  34.549  35.354   7.950
 5469POPC   C4A16422  34.606  35.315   7.650
 5469POPC   C1B16423  34.698  35.127   8.550
 5469POPC   C2B16424  34.735  35.209   8.250
 5469POPC   C3B16425  34.722  35.171   7.950
 5469POPC   C4B16426  34.718  35.115   7.650
 5470POPC   NC316427  43.133   3.525   9.450
 5470POPC   PO416428  43.081   3.502   9.150
 5470POPC   GL116429  43.104   3.517   8.850
 5470POPC   GL216430  42.975   3.534   8.850
 5470POPC   C1A16431  43.108   3.553   8.550
 5470POPC   D2A16432  43.113   3.547   8.250
 5470POPC   C3A16433  43.150   3.581   7.950
 5470POPC   C4A16434  43.109   3.558   7.650
 5470POPC   C1B16435  42.879   3.479   8.550
 5470POPC   C2B16436  42.903   3.529   8.250
 5470POPC   C3B16437  42.825   3.545   7.950
 5470POPC   C4B16438  42.889   3.545   7.650
 5471POPC   NC316439   8.978   5.874   9.450
 5471POPC   PO416440   9.008   5.898   9.150
 5471POPC   GL116441   8.981   5.881   8.850
 5471POPC   GL216442   9.040   5.765   8.850
 5471POPC   C1A16443   9.019   5.821   8.550
 5471POPC   D2A16444   8.925   5.907   8.250
 5471POPC   C3A16445   8.927   5.910   7.950
 5471POPC   C4A16446   8.977   5.840   7.650
 5471POPC   C1B16447   9.111   5.680   8.550
 5471POPC   C2B16448   9.129   5.675   8.250
 5471POPC   C3B16449   9.105   5.641   7.950
 5471POPC   C4B16450   9.156   5.693   7.650
 5472POPC   NC316451   1.952  20.582   9.450
 5472POPC   PO416452   1.958  20.641   9.150
 5472POPC   GL116453   2.007  20.655   8.850
 5472POPC   GL216454   2.004  20.478   8.850
 5472POPC   C1A16455   2.022  20.577   8.550
 5472POPC   D2A16456   1.977  20.572   8.250
 5472POPC   C3A16457   1.961  20.612   7.950
 5472POPC   C4A16458   1.958  20.650   7.650
 5472POPC   C1B16459   1.993  20.376   8.550
 5472POPC   C2B16460   2.017  20.386   8.250
 5472POPC   C3B16461   1.999  20.382   7.950
 5472POPC   C4B16462   2.020  20.402   7.650
 5473POPC   NC316463  11.332  15.209   9.450
 5473POPC   PO416464  11.275  15.182   9.150
 5473POPC   GL116465  11.326  15.136   8.850
 5473POPC   GL216466  11.456  15.072   8.850
 5473POPC   C1A16467  11.324  15.174   8.550
 5473POPC   D2A16468  11.312  15.189   8.250
 5473POPC   C3A16469  11.276  15.199   7.950
 5473POPC   C4A16470  11.259  15.186   7.650
 5473POPC   C1B16471  11.487  15.077   8.550
 5473POPC   C2B16472  11.533  15.045   8.250
 5473POPC   C3B16473  11.553  15.076   7.950
 5473POPC   C4B16474  11.487  15.079   7.650
 5474POPC   NC316475  19.075  19.808   9.450
 5474POPC   PO416476  19.102  19.817   9.150
 5474POPC   GL116477  19.106  19.871   8.850
 5474POPC   GL216478  19.072  20.006   8.850
 5474POPC   C1A16479  19.101  19.821   8.550
 5474POPC   D2A16480  19.088  19.787   8.250
 5474POPC   C3A16481  19.107  19.884   7.950
 5474POPC   C4A16482  19.084  19.882   7.650
 5474POPC   C1B16483  19.081  20.103   8.550
 5474POPC   C2B16484  19.090  20.048   8.250
 5474POPC   C3B16485  19.085  20.120   7.950
 5474POPC   C4B16486  19.028  20.055   7.650
 5475POPC   NC316487   7.387  31.505   9.450
 5475POPC   PO416488   7.372  31.455   9.150
 5475POPC   GL116489   7.422  31.513   8.850
 5475POPC   GL216490   7.465  31.396   8.850
 5475POPC   C1A16491   7.457  31.478   8.550
 5475POPC   D2A16492   7.455  31.517   8.250
 5475POPC   C3A16493   7.388  31.516   7.950
 5475POPC   C4A16494   7.410  31.486   7.650
 5475POPC   C1B16495   7.428  31.211   8.550
 5475POPC   C2B16496   7.483  31.267   8.250
 5475POPC   C3B16497   7.480  31.250   7.950
 5475POPC   C4B16498   7.423  31.178   7.650
 5476POPC   NC316499   3.567  36.120   9.450
 5476POPC   PO416500   3.520  36.149   9.150
 5476POPC   GL116501   3.555  36.134   8.850
 5476POPC   GL216502   3.401  36.114   8.850
 5476POPC   C1A16503   3.560  36.100   8.550
 5476POPC   D2A16504   3.583  36.169   8.250
 5476POPC   C3A16505   3.493  36.095   7.950
 5476POPC   C4A16506   3.523  36.154   7.650
 5476POPC   C1B16507   3.267  36.230   8.550
 5476POPC   C2B16508   3.324  36.235   8.250
 5476POPC   C3B16509   3.299  36.225   7.950
 5476POPC   C4B16510   3.270  36.211   7.650
 5477POPC   NC316511  12.085  29.139   9.450
 5477POPC   PO416512  12.030  29.190   9.150
 5477POPC   GL116513  12.030  29.149   8.850
 5477POPC   GL216514  11.931  29.126   8.850
 5477POPC   C1A16515  12.103  29.123   8.550
 5477POPC   D2A16516  12.045  29.096   8.250
 5477POPC   C3A16517  12.066  29.111   7.950
 5477POPC   C4A16518  12.066  29.179   7.650
 5477POPC   C1B16519  11.893  29.045   8.550
 5477POPC   C2B16520  11.861  29.016   8.250
 5477POPC   C3B16521  11.852  29.076   7.950
 5477POPC   C4B16522  11.832  29.050   7.650
 5478POPC   NC316523  39.264  19.826   9.450
 5478POPC   PO416524  39.279  19.839   9.150
 5478POPC   GL116525  39.182  19.826   8.850
 5478POPC   GL216526  39.329  19.772   8.850
 5478POPC   C1A16527  39.248  19.882   8.550
 5478POPC   D2A16528  39.227  19.801   8.250
 5478POPC   C3A16529  39.220  19.869   7.950
 5478POPC   C4A16530  39.244  19.847   7.650
 5478POPC   C1B16531  39.450  19.707   8.550
 5478POPC   C2B16532  39.409  19.685   8.250
 5478POPC   C3B16533  39.480  19.696   7.950
 5478POPC   C4B16534  39.401  19.658   7.650
 5479POPC   NC316535  12.820  41.534   9.450
 5479POPC   PO416536  12.897  41.517   9.150
 5479POPC   GL116537  12.869  41.595   8.850
 5479POPC   GL216538  12.733  41.498   8.850
 5479POPC   C1A16539  12.805  41.577   8.550
 5479POPC   D2A16540  12.860  41.573   8.250
 5479POPC   C3A16541  12.814  41.510   7.950
 5479POPC   C4A16542  12.846  41.575   7.650
 5479POPC   C1B16543  12.607  41.464   8.550
 5479POPC   C2B16544  12.566  41.524   8.250
 5479POPC   C3B16545  12.589  41.477   7.950
 5479POPC   C4B16546  12.630  41.444   7.650
 5480POPC   NC316547   2.013  42.324   9.450
 5480POPC   PO416548   1.965  42.303   9.150
 5480POPC   GL116549   2.020  42.381   8.850
 5480POPC   GL216550   1.925  42.405   8.850
 5480POPC   C1A16551   1.959  42.369   8.550
 5480POPC   D2A16552   1.948  42.368   8.250
 5480POPC   C3A16553   1.990  42.354   7.950
 5480POPC   C4A16554   1.995  42.376   7.650
 5480POPC   C1B16555   1.957  42.584   8.550
 5480POPC   C2B16556   1.889  42.558   8.250
 5480POPC   C3B16557   1.897  42.578   7.950
 5480POPC   C4B16558   1.881  42.537   7.650
 5481POPC   NC316559  43.876  34.579   9.450
 5481POPC   PO416560  43.860  34.590   9.150
 5481POPC   GL116561  43.894  34.624   8.850
 5481POPC   GL216562  43.821  34.634   8.850
 5481POPC   C1A16563  43.911  34.542   8.550
 5481POPC   D2A16564  43.861  34.610   8.250
 5481POPC   C3A16565  43.895  34.563   7.950
 5481POPC   C4A16566  43.930  34.571   7.650
 5481POPC   C1B16567  43.747  34.808   8.550
 5481POPC   C2B16568  43.769  34.805   8.250
 5481POPC   C3B16569  43.740  34.738   7.950
 5481POPC   C4B16570  43.702  34.811   7.650
 5482POPC   NC316571  19.801  38.428   9.450
 5482POPC   PO416572  19.804  38.413   9.150
 5482POPC   GL116573  19.863  38.469   8.850
 5482POPC   GL216574  19.723  38.476   8.850
 5482POPC   C1A16575  19.827  38.466   8.550
 5482POPC   D2A16576  19.861  38.424   8.250
 5482POPC   C3A16577  19.820  38.413   7.950
 5482POPC   C4A16578  19.799  38.501   7.650
 5482POPC   C1B16579  19.651  38.562   8.550
 5482POPC   C2B16580  19.636  38.566   8.250
 5482POPC   C3B16581  19.601  38.587   7.950
 5482POPC   C4B16582  19.633  38.553   7.650
 5483POPC   NC316583  32.287  34.526   9.450
 5483POPC   PO416584  32.282  34.572   9.150
 5483POPC   GL116585  32.289  34.545   8.850
 5483POPC   GL216586  32.125  34.711   8.850
 5483POPC   C1A16587  32.296  34.535   8.550
 5483POPC   D2A16588  32.245  34.575   8.250
 5483POPC   C3A16589  32.232  34.529   7.950
 5483POPC   C4A16590  32.293  34.545   7.650
 5483POPC   C1B16591  32.072  34.712   8.550
 5483POPC   C2B16592  32.104  34.712   8.250
 5483POPC   C3B16593  32.038  34.765   7.950
 5483POPC   C4B16594  32.078  34.792   7.650
 5484POPC   NC316595  19.857  43.094   9.450
 5484POPC   PO416596  19.786  43.142   9.150
 5484POPC   GL116597  19.837  43.065   8.850
 5484POPC   GL216598  19.816  43.037   8.850
 5484POPC   C1A16599  19.856  43.129   8.550
 5484POPC   D2A16600  19.865  43.064   8.250
 5484POPC   C3A16601  19.801  43.083   7.950
 5484POPC   C4A16602  19.802  43.131   7.650
 5484POPC   C1B16603  19.738  42.846   8.550
 5484POPC   C2B16604  19.760  42.877   8.250
 5484POPC   C3B16605  19.721  42.936   7.950
 5484POPC   C4B16606  19.726  42.891   7.650
 5485POPC   NC316607  43.886  36.080   9.450
 5485POPC   PO416608  43.899  36.111   9.150
 5485POPC   GL116609  43.911  36.167   8.850
 5485POPC   GL216610  43.943  36.005   8.850
 5485POPC   C1A16611  43.922  36.123   8.550
 5485POPC   D2A16612  43.871  36.120   8.250
 5485POPC   C3A16613  43.895  36.087   7.950
 5485POPC   C4A16614  43.913  36.175   7.650
 5485POPC   C1B16615  43.981  35.911   8.550
 5485POPC   C2B16616  43.948  35.834   8.250
 5485POPC   C3B16617  43.924  35.833   7.950
 5485POPC   C4B16618  43.969  35.890   7.650
 5486POPC   NC316619  15.962  14.428   9.450
 5486POPC   PO416620  15.925  14.436   9.150
 5486POPC   GL116621  15.932  14.365   8.850
 5486POPC   GL216622  16.100  14.400   8.850
 5486POPC   C1A16623  15.936  14.440   8.550
 5486POPC   D2A16624  15.925  14.402   8.250
 5486POPC   C3A16625  15.928  14.410   7.950
 5486POPC   C4A16626  15.930  14.395   7.650
 5486POPC   C1B16627  16.235  14.413   8.550
 5486POPC   C2B16628  16.163  14.376   8.250
 5486POPC   C3B16629  16.195  14.381   7.950
 5486POPC   C4B16630  16.219  14.368   7.650
 5487POPC   NC316631  42.351  11.310   9.450
 5487POPC   PO416632  42.341  11.254   9.150
 5487POPC   GL116633  42.378  11.320   8.850
 5487POPC   GL216634  42.278  11.425   8.850
 5487POPC   C1A16635  42.307  11.266   8.550
 5487POPC   D2A16636  42.361  11.338   8.250
 5487POPC   C3A16637  42.334  11.347   7.950
 5487POPC   C4A16638  42.334  11.287   7.650
 5487POPC   C1B16639  42.177  11.467   8.550
 5487POPC   C2B16640  42.106  11.429   8.250
 5487POPC   C3B16641  42.176  11.457   7.950
 5487POPC   C4B16642  42.160  11.482   7.650
 5488POPC   NC316643  25.233   0.444   9.450
 5488POPC   PO416644  25.232   0.398   9.150
 5488POPC   GL116645  25.227   0.426   8.850
 5488POPC   GL216646  25.212   0.345   8.850
 5488POPC   C1A16647  25.274   0.392   8.550
 5488POPC   D2A16648  25.235   0.388   8.250
 5488POPC   C3A16649  25.239   0.449   7.950
 5488POPC   C4A16650  25.223   0.400   7.650
 5488POPC   C1B16651  25.031   0.251   8.550
 5488POPC   C2B16652  25.081   0.322   8.250
 5488POPC   C3B16653  25.068   0.315   7.950
 5488POPC   C4B16654  25.044   0.236   7.650
 5489POPC   NC316655  39.976  16.697   9.450
 5489POPC   PO416656  39.965  16.697   9.150
 5489POPC   GL116657  40.018  16.696   8.850
 5489POPC   GL216658  40.122  16.711   8.850
 5489POPC   C1A16659  39.994  16.742   8.550
 5489POPC   D2A16660  39.976  16.773   8.250
 5489POPC   C3A16661  40.032  16.757   7.950
 5489POPC   C4A16662  40.012  16.686   7.650
 5489POPC   C1B16663  40.223  16.674   8.550
 5489POPC   C2B16664  40.263  16.654   8.250
 5489POPC   C3B16665  40.269  16.623   7.950
 5489POPC   C4B16666  40.202  16.649   7.650
 5490POPC   NC316667   0.483  38.447   9.450
 5490POPC   PO416668   0.401  38.451   9.150
 5490POPC   GL116669   0.449  38.484   8.850
 5490POPC   GL216670   0.361  38.352   8.850
 5490POPC   C1A16671   0.461  38.419   8.550
 5490POPC   D2A16672   0.428  38.464   8.250
 5490POPC   C3A16673   0.471  38.437   7.950
 5490POPC   C4A16674   0.470  38.462   7.650
 5490POPC   C1B16675   0.382  38.276   8.550
 5490POPC   C2B16676   0.332  38.256   8.250
 5490POPC   C3B16677   0.346  38.206   7.950
 5490POPC   C4B16678   0.320  38.241   7.650
 5491POPC   NC316679  37.635  39.257   9.450
 5491POPC   PO416680  37.726  39.262   9.150
 5491POPC   GL116681  37.699  39.216   8.850
 5491POPC   GL216682  37.795  39.318   8.850
 5491POPC   C1A16683  37.641  39.190   8.550
 5491POPC   D2A16684  37.711  39.207   8.250
 5491POPC   C3A16685  37.670  39.270   7.950
 5491POPC   C4A16686  37.630  39.207   7.650
 5491POPC   C1B16687  37.824  39.394   8.550
 5491POPC   C2B16688  37.870  39.418   8.250
 5491POPC   C3B16689  37.787  39.425   7.950
 5491POPC   C4B16690  37.848  39.430   7.650
 5492POPC   NC316691  18.260  18.254   9.450
 5492POPC   PO416692  18.316  18.313   9.150
 5492POPC   GL116693  18.315  18.286   8.850
 5492POPC   GL216694  18.163  18.198   8.850
 5492POPC   C1A16695  18.309  18.327   8.550
 5492POPC   D2A16696  18.256  18.275   8.250
 5492POPC   C3A16697  18.243  18.260   7.950
 5492POPC   C4A16698  18.299  18.314   7.650
 5492POPC   C1B16699  18.018  18.202   8.550
 5492POPC   C2B16700  18.049  18.214   8.250
 5492POPC   C3B16701  18.021  18.163   7.950
 5492POPC   C4B16702  18.003  18.201   7.650
 5493POPC   NC316703  34.571   9.715   9.450
 5493POPC   PO416704  34.597   9.703   9.150
 5493POPC   GL116705  34.553   9.779   8.850
 5493POPC   GL216706  34.507   9.593   8.850
 5493POPC   C1A16707  34.584   9.720   8.550
 5493POPC   D2A16708  34.559   9.744   8.250
 5493POPC   C3A16709  34.565   9.725   7.950
 5493POPC   C4A16710  34.552   9.774   7.650
 5493POPC   C1B16711  34.510   9.536   8.550
 5493POPC   C2B16712  34.456   9.540   8.250
 5493POPC   C3B16713  34.532   9.479   7.950
 5493POPC   C4B16714  34.541   9.533   7.650
 5494POPC   NC316715  11.311   7.467   9.450
 5494POPC   PO416716  11.267   7.435   9.150
 5494POPC   GL116717  11.255   7.437   8.850
 5494POPC   GL216718  11.313   7.523   8.850
 5494POPC   C1A16719  11.298   7.400   8.550
 5494POPC   D2A16720  11.331   7.386   8.250
 5494POPC   C3A16721  11.282   7.409   7.950
 5494POPC   C4A16722  11.302   7.418   7.650
 5494POPC   C1B16723  11.328   7.624   8.550
 5494POPC   C2B16724  11.275   7.682   8.250
 5494POPC   C3B16725  11.287   7.635   7.950
 5494POPC   C4B16726  11.298   7.670   7.650
 5495POPC   NC316727  15.162   6.676   9.450
 5495POPC   PO416728  15.157   6.614   9.150
 5495POPC   GL116729  15.185   6.684   8.850
 5495POPC   GL216730  15.264   6.630   8.850
 5495POPC   C1A16731  15.194   6.668   8.550
 5495POPC   D2A16732  15.159   6.677   8.250
 5495POPC   C3A16733  15.185   6.672   7.950
 5495POPC   C4A16734  15.145   6.598   7.650
 5495POPC   C1B16735  15.388   6.565   8.550
 5495POPC   C2B16736  15.415   6.480   8.250
 5495POPC   C3B16737  15.432   6.549   7.950
 5495POPC   C4B16738  15.358   6.555   7.650
 5496POPC   NC316739  23.716  42.320   9.450
 5496POPC   PO416740  23.711  42.315   9.150
 5496POPC   GL116741  23.741  42.326   8.850
 5496POPC   GL216742  23.749  42.485   8.850
 5496POPC   C1A16743  23.725  42.306   8.550
 5496POPC   D2A16744  23.697  42.296   8.250
 5496POPC   C3A16745  23.755  42.368   7.950
 5496POPC   C4A16746  23.678  42.339   7.650
 5496POPC   C1B16747  23.835  42.536   8.550
 5496POPC   C2B16748  23.855  42.516   8.250
 5496POPC   C3B16749  23.826  42.547   7.950
 5496POPC   C4B16750  23.780  42.598   7.650
 5497POPC   NC316751  30.695  30.711   9.450
 5497POPC   PO416752  30.718  30.690   9.150
 5497POPC   GL116753  30.650  30.690   8.850
 5497POPC   GL216754  30.801  30.737   8.850
 5497POPC   C1A16755  30.709  30.661   8.550
 5497POPC   D2A16756  30.735  30.668   8.250
 5497POPC   C3A16757  30.667  30.703   7.950
 5497POPC   C4A16758  30.715  30.667   7.650
 5497POPC   C1B16759  30.871  30.849   8.550
 5497POPC   C2B16760  30.868  30.854   8.250
 5497POPC   C3B16761  30.922  30.888   7.950
 5497POPC   C4B16762  30.887  30.864   7.650
 5498POPC   NC316763   2.744  14.413   9.450
 5498POPC   PO416764   2.717  14.396   9.150
 5498POPC   GL116765   2.774  14.418   8.850
 5498POPC   GL216766   2.660  14.526   8.850
 5498POPC   C1A16767   2.727  14.430   8.550
 5498POPC   D2A16768   2.771  14.408   8.250
 5498POPC   C3A16769   2.783  14.426   7.950
 5498POPC   C4A16770   2.740  14.390   7.650
 5498POPC   C1B16771   2.598  14.576   8.550
 5498POPC   C2B16772   2.604  14.569   8.250
 5498POPC   C3B16773   2.568  14.553   7.950
 5498POPC   C4B16774   2.575  14.560   7.650
 5499POPC   NC316775  28.390   4.324   9.450
 5499POPC   PO416776  28.381   4.359   9.150
 5499POPC   GL116777  28.336   4.277   8.850
 5499POPC   GL216778  28.531   4.331   8.850
 5499POPC   C1A16779  28.402   4.331   8.550
 5499POPC   D2A16780  28.328   4.305   8.250
 5499POPC   C3A16781  28.414   4.281   7.950
 5499POPC   C4A16782  28.339   4.304   7.650
 5499POPC   C1B16783  28.575   4.315   8.550
 5499POPC   C2B16784  28.616   4.246   8.250
 5499POPC   C3B16785  28.637   4.247   7.950
 5499POPC   C4B16786  28.589   4.278   7.650
 5500POPC   NC316787  19.054  25.277   9.450
 5500POPC   PO416788  19.050  25.216   9.150
 5500POPC   GL116789  19.028  25.239   8.850
 5500POPC   GL216790  18.943  25.215   8.850
 5500POPC   C1A16791  19.092  25.220   8.550
 5500POPC   D2A16792  19.031  25.243   8.250
 5500POPC   C3A16793  19.099  25.263   7.950
 5500POPC   C4A16794  19.078  25.253   7.650
 5500POPC   C1B16795  18.901  25.098   8.550
 5500POPC   C2B16796  18.920  25.045   8.250
 5500POPC   C3B16797  18.863  25.128   7.950
 5500POPC   C4B16798  18.912  25.111   7.650
 5501POPC   NC316799  24.497   8.197   9.450
 5501POPC   PO416800  24.532   8.243   9.150
 5501POPC   GL116801  24.461   8.166   8.850
 5501POPC   GL216802  24.481   8.104   8.850
 5501POPC   C1A16803  24.472   8.149   8.550
 5501POPC   D2A16804  24.441   8.195   8.250
 5501POPC   C3A16805  24.501   8.202   7.950
 5501POPC   C4A16806  24.481   8.226   7.650
 5501POPC   C1B16807  24.530   7.897   8.550
 5501POPC   C2B16808  24.441   7.990   8.250
 5501POPC   C3B16809  24.459   7.956   7.950
 5501POPC   C4B16810  24.523   7.953   7.650
 5502POPC   NC316811  20.606   2.743   9.450
 5502POPC   PO416812  20.651   2.779   9.150
 5502POPC   GL116813  20.592   2.747   8.850
 5502POPC   GL216814  20.644   2.901   8.850
 5502POPC   C1A16815  20.643   2.784   8.550
 5502POPC   D2A16816  20.647   2.795   8.250
 5502POPC   C3A16817  20.660   2.740   7.950
 5502POPC   C4A16818  20.575   2.729   7.650
 5502POPC   C1B16819  20.705   2.958   8.550
 5502POPC   C2B16820  20.751   2.980   8.250
 5502POPC   C3B16821  20.719   2.944   7.950
 5502POPC   C4B16822  20.733   2.950   7.650
 5503POPC   NC316823   2.812  20.637   9.450
 5503POPC   PO416824   2.766  20.624   9.150
 5503POPC   GL116825   2.755  20.639   8.850
 5503POPC   GL216826   2.746  20.516   8.850
 5503POPC   C1A16827   2.775  20.623   8.550
 5503POPC   D2A16828   2.742  20.572   8.250
 5503POPC   C3A16829   2.786  20.608   7.950
 5503POPC   C4A16830   2.716  20.658   7.650
 5503POPC   C1B16831   2.792  20.409   8.550
 5503POPC   C2B16832   2.772  20.390   8.250
 5503POPC   C3B16833   2.790  20.373   7.950
 5503POPC   C4B16834   2.833  20.412   7.650
 5504POPC   NC316835  12.061  42.374   9.450
 5504POPC   PO416836  12.101  42.329   9.150
 5504POPC   GL116837  12.079  42.318   8.850
 5504POPC   GL216838  11.940  42.416   8.850
 5504POPC   C1A16839  12.087  42.366   8.550
 5504POPC   D2A16840  12.097  42.373   8.250
 5504POPC   C3A16841  12.101  42.375   7.950
 5504POPC   C4A16842  12.108  42.331   7.650
 5504POPC   C1B16843  11.802  42.391   8.550
 5504POPC   C2B16844  11.824  42.373   8.250
 5504POPC   C3B16845  11.799  42.459   7.950
 5504POPC   C4B16846  11.815  42.442   7.650
 5505POPC   NC316847  12.814  38.484   9.450
 5505POPC   PO416848  12.816  38.470   9.150
 5505POPC   GL116849  12.833  38.493   8.850
 5505POPC   GL216850  12.819  38.594   8.850
 5505POPC   C1A16851  12.804  38.498   8.550
 5505POPC   D2A16852  12.845  38.455   8.250
 5505POPC   C3A16853  12.816  38.408   7.950
 5505POPC   C4A16854  12.852  38.407   7.650
 5505POPC   C1B16855  12.811  38.645   8.550
 5505POPC   C2B16856  12.765  38.741   8.250
 5505POPC   C3B16857  12.728  38.649   7.950
 5505POPC   C4B16858  12.735  38.734   7.650
 5506POPC   NC316859  36.933  30.694   9.450
 5506POPC   PO416860  36.946  30.718   9.150
 5506POPC   GL116861  36.941  30.722   8.850
 5506POPC   GL216862  37.045  30.739   8.850
 5506POPC   C1A16863  36.940  30.662   8.550
 5506POPC   D2A16864  36.864  30.673   8.250
 5506POPC   C3A16865  36.879  30.687   7.950
 5506POPC   C4A16866  36.908  30.722   7.650
 5506POPC   C1B16867  37.184  30.762   8.550
 5506POPC   C2B16868  37.153  30.747   8.250
 5506POPC   C3B16869  37.148  30.764   7.950
 5506POPC   C4B16870  37.111  30.716   7.650
 5507POPC   NC316871  18.303   1.186   9.450
 5507POPC   PO416872  18.295   1.220   9.150
 5507POPC   GL116873  18.262   1.235   8.850
 5507POPC   GL216874  18.225   1.306   8.850
 5507POPC   C1A16875  18.287   1.183   8.550
 5507POPC   D2A16876  18.280   1.221   8.250
 5507POPC   C3A16877  18.331   1.219   7.950
 5507POPC   C4A16878  18.285   1.201   7.650
 5507POPC   C1B16879  18.119   1.361   8.550
 5507POPC   C2B16880  18.118   1.318   8.250
 5507POPC   C3B16881  18.128   1.388   7.950
 5507POPC   C4B16882  18.074   1.399   7.650
 5508POPC   NC316883  29.150  39.980   9.450
 5508POPC   PO416884  29.191  40.037   9.150
 5508POPC   GL116885  29.181  39.991   8.850
 5508POPC   GL216886  29.277  40.051   8.850
 5508POPC   C1A16887  29.174  39.964   8.550
 5508POPC   D2A16888  29.187  39.974   8.250
 5508POPC   C3A16889  29.179  40.011   7.950
 5508POPC   C4A16890  29.167  39.998   7.650
 5508POPC   C1B16891  29.370  40.163   8.550
 5508POPC   C2B16892  29.392  40.117   8.250
 5508POPC   C3B16893  29.379  40.163   7.950
 5508POPC   C4B16894  29.395  40.158   7.650
 5509POPC   NC316895  16.740  34.570   9.450
 5509POPC   PO416896  16.722  34.572   9.150
 5509POPC   GL116897  16.702  34.570   8.850
 5509POPC   GL216898  16.705  34.469   8.850
 5509POPC   C1A16899  16.740  34.531   8.550
 5509POPC   D2A16900  16.712  34.567   8.250
 5509POPC   C3A16901  16.760  34.534   7.950
 5509POPC   C4A16902  16.698  34.584   7.650
 5509POPC   C1B16903  16.597  34.401   8.550
 5509POPC   C2B16904  16.571  34.368   8.250
 5509POPC   C3B16905  16.608  34.343   7.950
 5509POPC   C4B16906  16.592  34.358   7.650
 5510POPC   NC316907   5.119  38.495   9.450
 5510POPC   PO416908   5.116  38.431   9.150
 5510POPC   GL116909   5.071  38.439   8.850
 5510POPC   GL216910   4.972  38.501   8.850
 5510POPC   C1A16911   5.088  38.497   8.550
 5510POPC   D2A16912   5.133  38.420   8.250
 5510POPC   C3A16913   5.106  38.412   7.950
 5510POPC   C4A16914   5.095  38.448   7.650
 5510POPC   C1B16915   4.907  38.622   8.550
 5510POPC   C2B16916   4.862  38.584   8.250
 5510POPC   C3B16917   4.912  38.618   7.950
 5510POPC   C4B16918   4.899  38.564   7.650
 5511POPC   NC316919  43.102  18.245   9.450
 5511POPC   PO416920  43.125  18.279   9.150
 5511POPC   GL116921  43.151  18.269   8.850
 5511POPC   GL216922  43.056  18.432   8.850
 5511POPC   C1A16923  43.063  18.236   8.550
 5511POPC   D2A16924  43.158  18.295   8.250
 5511POPC   C3A16925  43.121  18.275   7.950
 5511POPC   C4A16926  43.086  18.236   7.650
 5511POPC   C1B16927  43.067  18.495   8.550
 5511POPC   C2B16928  43.036  18.531   8.250
 5511POPC   C3B16929  42.985  18.523   7.950
 5511POPC   C4B16930  43.020  18.504   7.650
 5512POPC   NC316931  31.477  11.333   9.450
 5512POPC   PO416932  31.450  11.321   9.150
 5512POPC   GL116933  31.466  11.321   8.850
 5512POPC   GL216934  31.371  11.395   8.850
 5512POPC   C1A16935  31.500  11.343   8.550
 5512POPC   D2A16936  31.488  11.280   8.250
 5512POPC   C3A16937  31.495  11.295   7.950
 5512POPC   C4A16938  31.493  11.331   7.650
 5512POPC   C1B16939  31.368  11.486   8.550
 5512POPC   C2B16940  31.308  11.519   8.250
 5512POPC   C3B16941  31.365  11.498   7.950
 5512POPC   C4B16942  31.352  11.521   7.650
 5513POPC   NC316943  20.603   3.520   9.450
 5513POPC   PO416944  20.625   3.573   9.150
 5513POPC   GL116945  20.648   3.566   8.850
 5513POPC   GL216946  20.546   3.603   8.850
 5513POPC   C1A16947  20.633   3.555   8.550
 5513POPC   D2A16948  20.625   3.531   8.250
 5513POPC   C3A16949  20.619   3.546   7.950
 5513POPC   C4A16950  20.644   3.523   7.650
 5513POPC   C1B16951  20.387   3.703   8.550
 5513POPC   C2B16952  20.426   3.698   8.250
 5513POPC   C3B16953  20.396   3.672   7.950
 5513POPC   C4B16954  20.472   3.671   7.650
 5514POPC   NC316955   6.683  25.290   9.450
 5514POPC   PO416956   6.675  25.283   9.150
 5514POPC   GL116957   6.674  25.273   8.850
 5514POPC   GL216958   6.609  25.131   8.850
 5514POPC   C1A16959   6.605  25.217   8.550
 5514POPC   D2A16960   6.617  25.247   8.250
 5514POPC   C3A16961   6.693  25.245   7.950
 5514POPC   C4A16962   6.609  25.262   7.650
 5514POPC   C1B16963   6.467  25.070   8.550
 5514POPC   C2B16964   6.510  25.047   8.250
 5514POPC   C3B16965   6.470  25.043   7.950
 5514POPC   C4B16966   6.480  25.120   7.650
 5515POPC   NC316967  13.591   3.553   9.450
 5515POPC   PO416968  13.655   3.522   9.150
 5515POPC   GL116969  13.634   3.558   8.850
 5515POPC   GL216970  13.568   3.430   8.850
 5515POPC   C1A16971  13.669   3.524   8.550
 5515POPC   D2A16972  13.582   3.531   8.250
 5515POPC   C3A16973  13.616   3.568   7.950
 5515POPC   C4A16974  13.603   3.542   7.650
 5515POPC   C1B16975  13.365   3.436   8.550
 5515POPC   C2B16976  13.387   3.430   8.250
 5515POPC   C3B16977  13.425   3.458   7.950
 5515POPC   C4B16978  13.369   3.392   7.650
 5516POPC   NC316979  20.581   8.228   9.450
 5516POPC   PO416980  20.653   8.232   9.150
 5516POPC   GL116981  20.616   8.164   8.850
 5516POPC   GL216982  20.556   8.122   8.850
 5516POPC   C1A16983  20.608   8.177   8.550
 5516POPC   D2A16984  20.656   8.197   8.250
 5516POPC   C3A16985  20.655   8.212   7.950
 5516POPC   C4A16986  20.579   8.178   7.650
 5516POPC   C1B16987  20.567   7.964   8.550
 5516POPC   C2B16988  20.575   7.915   8.250
 5516POPC   C3B16989  20.596   7.904   7.950
 5516POPC   C4B16990  20.583   7.932   7.650
 5517POPC   NC316991  22.124  25.315   9.450
 5517POPC   PO416992  22.117  25.314   9.150
 5517POPC   GL116993  22.180  25.261   8.850
 5517POPC   GL216994  22.261  25.154   8.850
 5517POPC   C1A16995  22.129  25.300   8.550
 5517POPC   D2A16996  22.191  25.311   8.250
 5517POPC   C3A16997  22.119  25.247   7.950
 5517POPC   C4A16998  22.207  25.275   7.650
 5517POPC   C1B16999  22.264  25.040   8.550
 5517POPC   C2B17000  22.234  25.046   8.250
 5517POPC   C3B17001  22.286  25.033   7.950
 5517POPC   C4B17002  22.271  25.056   7.650
 5518POPC   NC317003  39.246  18.281   9.450
 5518POPC   PO417004  39.272  18.277   9.150
 5518POPC   GL117005  39.241  18.317   8.850
 5518POPC   GL217006  39.280  18.433   8.850
 5518POPC   C1A17007  39.184  18.248   8.550
 5518POPC   D2A17008  39.220  18.332   8.250
 5518POPC   C3A17009  39.195  18.276   7.950
 5518POPC   C4A17010  39.224  18.250   7.650
 5518POPC   C1B17011  39.316  18.524   8.550
 5518POPC   C2B17012  39.271  18.498   8.250
 5518POPC   C3B17013  39.280  18.572   7.950
 5518POPC   C4B17014  39.276  18.573   7.650
 5519POPC   NC317015  14.389  29.121   9.450
 5519POPC   PO417016  14.389  29.195   9.150
 5519POPC   GL117017  14.388  29.149   8.850
 5519POPC   GL217018  14.261  29.090   8.850
 5519POPC   C1A17019  14.394  29.165   8.550
 5519POPC   D2A17020  14.452  29.161   8.250
 5519POPC   C3A17021  14.394  29.140   7.950
 5519POPC   C4A17022  14.427  29.133   7.650
 5519POPC   C1B17023  14.144  29.015   8.550
 5519POPC   C2B17024  14.216  29.055   8.250
 5519POPC   C3B17025  14.156  28.989   7.950
 5519POPC   C4B17026  14.182  29.025   7.650
 5520POPC   NC317027   9.704  33.036   9.450
 5520POPC   PO417028   9.763  33.048   9.150
 5520POPC   GL117029   9.711  33.060   8.850
 5520POPC   GL217030   9.747  33.162   8.850
 5520POPC   C1A17031   9.749  32.976   8.550
 5520POPC   D2A17032   9.785  33.053   8.250
 5520POPC   C3A17033   9.754  33.035   7.950
 5520POPC   C4A17034   9.701  33.020   7.650
 5520POPC   C1B17035   9.642  33.273   8.550
 5520POPC   C2B17036   9.668  33.280   8.250
 5520POPC   C3B17037   9.693  33.275   7.950
 5520POPC   C4B17038   9.626  33.291   7.650
 5521POPC   NC317039   5.071  39.213   9.450
 5521POPC   PO417040   5.072  39.262   9.150
 5521POPC   GL117041   5.104  39.263   8.850
 5521POPC   GL217042   5.158  39.335   8.850
 5521POPC   C1A17043   5.106  39.221   8.550
 5521POPC   D2A17044   5.142  39.215   8.250
 5521POPC   C3A17045   5.110  39.217   7.950
 5521POPC   C4A17046   5.112  39.205   7.650
 5521POPC   C1B17047   5.205  39.511   8.550
 5521POPC   C2B17048   5.203  39.436   8.250
 5521POPC   C3B17049   5.182  39.467   7.950
 5521POPC   C4B17050   5.148  39.490   7.650
 5522POPC   NC317051   4.352  19.106   9.450
 5522POPC   PO417052   4.318  19.023   9.150
 5522POPC   GL117053   4.310  19.057   8.850
 5522POPC   GL217054   4.194  19.112   8.850
 5522POPC   C1A17055   4.313  19.084   8.550
 5522POPC   D2A17056   4.354  19.038   8.250
 5522POPC   C3A17057   4.329  19.076   7.950
 5522POPC   C4A17058   4.344  19.048   7.650
 5522POPC   C1B17059   4.125  19.249   8.550
 5522POPC   C2B17060   4.113  19.198   8.250
 5522POPC   C3B17061   4.128  19.179   7.950
 5522POPC   C4B17062   4.106  19.216   7.650
 5523POPC   NC317063  12.888  23.746   9.450
 5523POPC   PO417064  12.889  23.702   9.150
 5523POPC   GL117065  12.889  23.683   8.850
 5523POPC   GL217066  12.748  23.671   8.850
 5523POPC   C1A17067  12.822  23.731   8.550
 5523POPC   D2A17068  12.822  23.677   8.250
 5523POPC   C3A17069  12.831  23.752   7.950
 5523POPC   C4A17070  12.861  23.674   7.650
 5523POPC   C1B17071  12.637  23.613   8.550
 5523POPC   C2B17072  12.575  23.625   8.250
 5523POPC   C3B17073  12.648  23.663   7.950
 5523POPC   C4B17074  12.576  23.645   7.650
 5524POPC   NC317075  43.923  33.815   9.450
 5524POPC   PO417076  43.879  33.803   9.150
 5524POPC   GL117077  43.850  33.782   8.850
 5524POPC   GL217078  43.944  33.689   8.850
 5524POPC   C1A17079  43.870  33.808   8.550
 5524POPC   D2A17080  43.893  33.789   8.250
 5524POPC   C3A17081  43.858  33.831   7.950
 5524POPC   C4A17082  43.867  33.771   7.650
 5524POPC   C1B17083  44.122  33.625   8.550
 5524POPC   C2B17084  44.116  33.627   8.250
 5524POPC   C3B17085  44.046  33.655   7.950
 5524POPC   C4B17086  44.101  33.590   7.650
 5525POPC   NC317087  40.744  14.401   9.450
 5525POPC   PO417088  40.803  14.366   9.150
 5525POPC   GL117089  40.773  14.391   8.850
 5525POPC   GL217090  40.808  14.321   8.850
 5525POPC   C1A17091  40.775  14.443   8.550
 5525POPC   D2A17092  40.767  14.356   8.250
 5525POPC   C3A17093  40.743  14.378   7.950
 5525POPC   C4A17094  40.737  14.387   7.650
 5525POPC   C1B17095  40.719  14.190   8.550
 5525POPC   C2B17096  40.761  14.154   8.250
 5525POPC   C3B17097  40.781  14.143   7.950
 5525POPC   C4B17098  40.713  14.175   7.650
 5526POPC   NC317099  43.143  22.164   9.450
 5526POPC   PO417100  43.131  22.206   9.150
 5526POPC   GL117101  43.145  22.208   8.850
 5526POPC   GL217102  43.238  22.278   8.850
 5526POPC   C1A17103  43.097  22.183   8.550
 5526POPC   D2A17104  43.105  22.212   8.250
 5526POPC   C3A17105  43.082  22.184   7.950
 5526POPC   C4A17106  43.080  22.176   7.650
 5526POPC   C1B17107  43.317  22.341   8.550
 5526POPC   C2B17108  43.256  22.307   8.250
 5526POPC   C3B17109  43.345  22.326   7.950
 5526POPC   C4B17110  43.346  22.276   7.650
 5527POPC   NC317111  15.989  31.423   9.450
 5527POPC   PO417112  15.946  31.457   9.150
 5527POPC   GL117113  15.970  31.454   8.850
 5527POPC   GL217114  16.091  31.544   8.850
 5527POPC   C1A17115  15.990  31.436   8.550
 5527POPC   D2A17116  15.940  31.483   8.250
 5527POPC   C3A17117  15.958  31.437   7.950
 5527POPC   C4A17118  15.932  31.496   7.650
 5527POPC   C1B17119  16.223  31.559   8.550
 5527POPC   C2B17120  16.210  31.542   8.250
 5527POPC   C3B17121  16.231  31.550   7.950
 5527POPC   C4B17122  16.189  31.602   7.650
 5528POPC   NC317123  22.977  38.467   9.450
 5528POPC   PO417124  22.930  38.413   9.150
 5528POPC   GL117125  22.902  38.474   8.850
 5528POPC   GL217126  22.766  38.446   8.850
 5528POPC   C1A17127  22.920  38.483   8.550
 5528POPC   D2A17128  22.945  38.428   8.250
 5528POPC   C3A17129  22.947  38.468   7.950
 5528POPC   C4A17130  22.960  38.468   7.650
 5528POPC   C1B17131  22.641  38.434   8.550
 5528POPC   C2B17132  22.700  38.460   8.250
 5528POPC   C3B17133  22.684  38.404   7.950
 5528POPC   C4B17134  22.646  38.424   7.650
 5529POPC   NC317135  43.132   6.643   9.450
 5529POPC   PO417136  43.092   6.674   9.150
 5529POPC   GL117137  43.116   6.664   8.850
 5529POPC   GL217138  43.189   6.641   8.850
 5529POPC   C1A17139  43.108   6.676   8.550
 5529POPC   D2A17140  43.068   6.624   8.250
 5529POPC   C3A17141  43.136   6.690   7.950
 5529POPC   C4A17142  43.158   6.668   7.650
 5529POPC   C1B17143  43.354   6.665   8.550
 5529POPC   C2B17144  43.344   6.692   8.250
 5529POPC   C3B17145  43.349   6.634   7.950
 5529POPC   C4B17146  43.355   6.622   7.650
 5530POPC   NC317147   1.222  19.838   9.450
 5530POPC   PO417148   1.214  19.785   9.150
 5530POPC   GL117149   1.204  19.796   8.850
 5530POPC   GL217150   1.091  19.731   8.850
 5530POPC   C1A17151   1.215  19.800   8.550
 5530POPC   D2A17152   1.244  19.800   8.250
 5530POPC   C3A17153   1.195  19.787   7.950
 5530POPC   C4A17154   1.225  19.831   7.650
 5530POPC   C1B17155   1.031  19.721   8.550
 5530POPC   C2B17156   1.040  19.708   8.250
 5530POPC   C3B17157   1.016  19.748   7.950
 5530POPC   C4B17158   1.035  19.698   7.650
 5531POPC   NC317159   9.747  33.816   9.450
 5531POPC   PO417160   9.754  33.829   9.150
 5531POPC   GL117161   9.771  33.844   8.850
 5531POPC   GL217162   9.649  33.687   8.850
 5531POPC   C1A17163   9.727  33.783   8.550
 5531POPC   D2A17164   9.781  33.776   8.250
 5531POPC   C3A17165   9.703  33.827   7.950
 5531POPC   C4A17166   9.794  33.787   7.650
 5531POPC   C1B17167   9.615  33.647   8.550
 5531POPC   C2B17168   9.549  33.604   8.250
 5531POPC   C3B17169   9.543  33.615   7.950
 5531POPC   C4B17170   9.524  33.595   7.650
 5532POPC   NC317171  27.560   0.404   9.450
 5532POPC   PO417172  27.637   0.433   9.150
 5532POPC   GL117173  27.560   0.446   8.850
 5532POPC   GL217174  27.505   0.437   8.850
 5532POPC   C1A17175  27.566   0.479   8.550
 5532POPC   D2A17176  27.608   0.415   8.250
 5532POPC   C3A17177  27.562   0.435   7.950
 5532POPC   C4A17178  27.595   0.457   7.650
 5532POPC   C1B17179  27.308   0.440   8.550
 5532POPC   C2B17180  27.353   0.456   8.250
 5532POPC   C3B17181  27.323   0.444   7.950
 5532POPC   C4B17182  27.332   0.507   7.650
 5533POPC   NC317183  23.673   6.643   9.450
 5533POPC   PO417184  23.729   6.620   9.150
 5533POPC   GL117185  23.738   6.678   8.850
 5533POPC   GL217186  23.797   6.716   8.850
 5533POPC   C1A17187  23.707   6.684   8.550
 5533POPC   D2A17188  23.678   6.690   8.250
 5533POPC   C3A17189  23.733   6.680   7.950
 5533POPC   C4A17190  23.730   6.695   7.650
 5533POPC   C1B17191  23.839   6.882   8.550
 5533POPC   C2B17192  23.835   6.880   8.250
 5533POPC   C3B17193  23.883   6.830   7.950
 5533POPC   C4B17194  23.854   6.830   7.650
 5534POPC   NC317195  12.100  19.792   9.450
 5534POPC   PO417196  12.102  19.811   9.150
 5534POPC   GL117197  12.103  19.873   8.850
 5534POPC   GL217198  12.236  19.870   8.850
 5534POPC   C1A17199  12.041  19.823   8.550
 5534POPC   D2A17200  12.058  19.828   8.250
 5534POPC   C3A17201  12.039  19.787   7.950
 5534POPC   C4A17202  12.120  19.796   7.650
 5534POPC   C1B17203  12.349  19.940   8.550
 5534POPC   C2B17204  12.292  19.966   8.250
 5534POPC   C3B17205  12.311  19.945   7.950
 5534POPC   C4B17206  12.312  19.894   7.650
 5535POPC   NC317207  40.018  30.678   9.450
 5535POPC   PO417208  39.967  30.726   9.150
 5535POPC   GL117209  40.005  30.717   8.850
 5535POPC   GL217210  40.127  30.720   8.850
 5535POPC   C1A17211  40.024  30.662   8.550
 5535POPC   D2A17212  40.037  30.674   8.250
 5535POPC   C3A17213  40.035  30.713   7.950
 5535POPC   C4A17214  39.981  30.669   7.650
 5535POPC   C1B17215  40.257  30.781   8.550
 5535POPC   C2B17216  40.286  30.741   8.250
 5535POPC   C3B17217  40.239  30.778   7.950
 5535POPC   C4B17218  40.218  30.744   7.650
 5536POPC   NC317219  21.397  29.144   9.450
 5536POPC   PO417220  21.363  29.165   9.150
 5536POPC   GL117221  21.346  29.131   8.850
 5536POPC   GL217222  21.457  29.190   8.850
 5536POPC   C1A17223  21.353  29.165   8.550
 5536POPC   D2A17224  21.354  29.177   8.250
 5536POPC   C3A17225  21.403  29.131   7.950
 5536POPC   C4A17226  21.361  29.147   7.650
 5536POPC   C1B17227  21.625  29.329   8.550
 5536POPC   C2B17228  21.566  29.300   8.250
 5536POPC   C3B17229  21.537  29.296   7.950
 5536POPC   C4B17230  21.597  29.301   7.650
 5537POPC   NC317231  32.979  12.856   9.450
 5537POPC   PO417232  33.039  12.860   9.150
 5537POPC   GL117233  32.998  12.837   8.850
 5537POPC   GL217234  33.069  12.782   8.850
 5537POPC   C1A17235  33.039  12.833   8.550
 5537POPC   D2A17236  33.051  12.841   8.250
 5537POPC   C3A17237  33.040  12.856   7.950
 5537POPC   C4A17238  33.070  12.839   7.650
 5537POPC   C1B17239  33.148  12.645   8.550
 5537POPC   C2B17240  33.120  12.670   8.250
 5537POPC   C3B17241  33.099  12.669   7.950
 5537POPC   C4B17242  33.152  12.648   7.650
 5538POPC   NC317243  20.592  20.609   9.450
 5538POPC   PO417244  20.567  20.568   9.150
 5538POPC   GL117245  20.648  20.649   8.850
 5538POPC   GL217246  20.630  20.757   8.850
 5538POPC   C1A17247  20.621  20.568   8.550
 5538POPC   D2A17248  20.652  20.582   8.250
 5538POPC   C3A17249  20.606  20.655   7.950
 5538POPC   C4A17250  20.655  20.645   7.650
 5538POPC   C1B17251  20.607  20.857   8.550
 5538POPC   C2B17252  20.626  20.872   8.250
 5538POPC   C3B17253  20.642  20.872   7.950
 5538POPC   C4B17254  20.589  20.841   7.650
 5539POPC   NC317255  29.191  20.623   9.450
 5539POPC   PO417256  29.118  20.564   9.150
 5539POPC   GL117257  29.108  20.624   8.850
 5539POPC   GL217258  29.288  20.659   8.850
 5539POPC   C1A17259  29.178  20.592   8.550
 5539POPC   D2A17260  29.122  20.642   8.250
 5539POPC   C3A17261  29.118  20.644   7.950
 5539POPC   C4A17262  29.123  20.647   7.650
 5539POPC   C1B17263  29.423  20.671   8.550
 5539POPC   C2B17264  29.376  20.666   8.250
 5539POPC   C3B17265  29.365  20.737   7.950
 5539POPC   C4B17266  29.397  20.686   7.650
 5540POPC   NC317267  40.738  19.836   9.450
 5540POPC   PO417268  40.811  19.811   9.150
 5540POPC   GL117269  40.775  19.871   8.850
 5540POPC   GL217270  40.892  19.710   8.850
 5540POPC   C1A17271  40.829  19.876   8.550
 5540POPC   D2A17272  40.760  19.849   8.250
 5540POPC   C3A17273  40.741  19.864   7.950
 5540POPC   C4A17274  40.792  19.787   7.650
 5540POPC   C1B17275  40.906  19.671   8.550
 5540POPC   C2B17276  40.955  19.617   8.250
 5540POPC   C3B17277  40.927  19.587   7.950
 5540POPC   C4B17278  40.886  19.596   7.650
 5541POPC   NC317279  15.923  36.111   9.450
 5541POPC   PO417280  15.985  36.112   9.150
 5541POPC   GL117281  15.906  36.142   8.850
 5541POPC   GL217282  15.923  36.226   8.850
 5541POPC   C1A17283  15.962  36.113   8.550
 5541POPC   D2A17284  15.992  36.173   8.250
 5541POPC   C3A17285  15.926  36.134   7.950
 5541POPC   C4A17286  15.958  36.113   7.650
 5541POPC   C1B17287  15.995  36.401   8.550
 5541POPC   C2B17288  15.932  36.342   8.250
 5541POPC   C3B17289  15.960  36.357   7.950
 5541POPC   C4B17290  16.009  36.408   7.650
 5542POPC   NC317291   0.412  11.264   9.450
 5542POPC   PO417292   0.415  11.282   9.150
 5542POPC   GL117293   0.402  11.291   8.850
 5542POPC   GL217294   0.282  11.272   8.850
 5542POPC   C1A17295   0.438  11.253   8.550
 5542POPC   D2A17296   0.393  11.272   8.250
 5542POPC   C3A17297   0.415  11.328   7.950
 5542POPC   C4A17298   0.438  11.305   7.650
 5542POPC   C1B17299   0.223  11.272   8.550
 5542POPC   C2B17300   0.171  11.278   8.250
 5542POPC   C3B17301   0.190  11.255   7.950
 5542POPC   C4B17302   0.149  11.238   7.650
 5543POPC   NC317303  41.545  43.895   9.450
 5543POPC   PO417304  41.535  43.842   9.150
 5543POPC   GL117305  41.581  43.915   8.850
 5543POPC   GL217306  41.452  43.828   8.850
 5543POPC   C1A17307  41.513  43.917   8.550
 5543POPC   D2A17308  41.587  43.858   8.250
 5543POPC   C3A17309  41.547  43.934   7.950
 5543POPC   C4A17310  41.576  43.897   7.650
 5543POPC   C1B17311  41.363  43.782   8.550
 5543POPC   C2B17312  41.325  43.840   8.250
 5543POPC   C3B17313  41.355  43.763   7.950
 5543POPC   C4B17314  41.281  43.846   7.650
 5544POPC   NC317315  43.086   5.093   9.450
 5544POPC   PO417316  43.152   5.132   9.150
 5544POPC   GL117317  43.067   5.097   8.850
 5544POPC   GL217318  42.966   5.016   8.850
 5544POPC   C1A17319  43.108   5.086   8.550
 5544POPC   D2A17320  43.104   5.082   8.250
 5544POPC   C3A17321  43.100   5.133   7.950
 5544POPC   C4A17322  43.142   5.138   7.650
 5544POPC   C1B17323  42.851   5.011   8.550
 5544POPC   C2B17324  42.829   5.052   8.250
 5544POPC   C3B17325  42.875   5.039   7.950
 5544POPC   C4B17326  42.832   5.041   7.650
 5545POPC   NC317327  17.512  29.167   9.450
 5545POPC   PO417328  17.464  29.107   9.150
 5545POPC   GL117329  17.547  29.117   8.850
 5545POPC   GL217330  17.661  29.178   8.850
 5545POPC   C1A17331  17.543  29.149   8.550
 5545POPC   D2A17332  17.541  29.192   8.250
 5545POPC   C3A17333  17.535  29.162   7.950
 5545POPC   C4A17334  17.471  29.169   7.650
 5545POPC   C1B17335  17.726  29.192   8.550
 5545POPC   C2B17336  17.741  29.188   8.250
 5545POPC   C3B17337  17.793  29.234   7.950
 5545POPC   C4B17338  17.714  29.212   7.650
 5546POPC   NC317339  32.216  41.540   9.450
 5546POPC   PO417340  32.219  41.509   9.150
 5546POPC   GL117341  32.199  41.512   8.850
 5546POPC   GL217342  32.334  41.491   8.850
 5546POPC   C1A17343  32.280  41.551   8.550
 5546POPC   D2A17344  32.263  41.575   8.250
 5546POPC   C3A17345  32.254  41.518   7.950
 5546POPC   C4A17346  32.298  41.566   7.650
 5546POPC   C1B17347  32.483  41.516   8.550
 5546POPC   C2B17348  32.448  41.503   8.250
 5546POPC   C3B17349  32.524  41.559   7.950
 5546POPC   C4B17350  32.463  41.482   7.650
 5547POPC   NC317351  29.968  27.636   9.450
 5547POPC   PO417352  29.947  27.639   9.150
 5547POPC   GL117353  29.912  27.610   8.850
 5547POPC   GL217354  29.860  27.455   8.850
 5547POPC   C1A17355  29.948  27.557   8.550
 5547POPC   D2A17356  29.932  27.641   8.250
 5547POPC   C3A17357  29.911  27.557   7.950
 5547POPC   C4A17358  29.930  27.576   7.650
 5547POPC   C1B17359  29.779  27.393   8.550
 5547POPC   C2B17360  29.763  27.372   8.250
 5547POPC   C3B17361  29.730  27.411   7.950
 5547POPC   C4B17362  29.736  27.348   7.650
 5548POPC   NC317363  30.695  34.526   9.450
 5548POPC   PO417364  30.726  34.602   9.150
 5548POPC   GL117365  30.722  34.542   8.850
 5548POPC   GL217366  30.598  34.684   8.850
 5548POPC   C1A17367  30.692  34.583   8.550
 5548POPC   D2A17368  30.724  34.548   8.250
 5548POPC   C3A17369  30.723  34.545   7.950
 5548POPC   C4A17370  30.676  34.552   7.650
 5548POPC   C1B17371  30.486  34.738   8.550
 5548POPC   C2B17372  30.512  34.791   8.250
 5548POPC   C3B17373  30.491  34.808   7.950
 5548POPC   C4B17374  30.521  34.756   7.650
 5549POPC   NC317375  12.033  11.314   9.450
 5549POPC   PO417376  12.040  11.271   9.150
 5549POPC   GL117377  12.113  11.328   8.850
 5549POPC   GL217378  12.135  11.133   8.850
 5549POPC   C1A17379  12.121  11.291   8.550
 5549POPC   D2A17380  12.114  11.314   8.250
 5549POPC   C3A17381  12.067  11.276   7.950
 5549POPC   C4A17382  12.120  11.309   7.650
 5549POPC   C1B17383  12.082  11.041   8.550
 5549POPC   C2B17384  12.165  11.062   8.250
 5549POPC   C3B17385  12.081  11.006   7.950
 5549POPC   C4B17386  12.169  11.087   7.650
 5550POPC   NC317387   5.118  26.821   9.450
 5550POPC   PO417388   5.052  26.820   9.150
 5550POPC   GL117389   5.057  26.857   8.850
 5550POPC   GL217390   4.969  26.762   8.850
 5550POPC   C1A17391   5.085  26.830   8.550
 5550POPC   D2A17392   5.074  26.856   8.250
 5550POPC   C3A17393   5.106  26.862   7.950
 5550POPC   C4A17394   5.118  26.828   7.650
 5550POPC   C1B17395   4.830  26.767   8.550
 5550POPC   C2B17396   4.890  26.752   8.250
 5550POPC   C3B17397   4.874  26.763   7.950
 5550POPC   C4B17398   4.836  26.703   7.650
 5551POPC   NC317399   9.785   7.413   9.450
 5551POPC   PO417400   9.756   7.412   9.150
 5551POPC   GL117401   9.721   7.465   8.850
 5551POPC   GL217402   9.653   7.501   8.850
 5551POPC   C1A17403   9.767   7.442   8.550
 5551POPC   D2A17404   9.796   7.417   8.250
 5551POPC   C3A17405   9.717   7.404   7.950
 5551POPC   C4A17406   9.737   7.406   7.650
 5551POPC   C1B17407   9.491   7.515   8.550
 5551POPC   C2B17408   9.466   7.467   8.250
 5551POPC   C3B17409   9.543   7.528   7.950
 5551POPC   C4B17410   9.480   7.506   7.650
 5552POPC   NC317411  16.685  20.590   9.450
 5552POPC   PO417412  16.751  20.637   9.150
 5552POPC   GL117413  16.697  20.581   8.850
 5552POPC   GL217414  16.857  20.651   8.850
 5552POPC   C1A17415  16.777  20.652   8.550
 5552POPC   D2A17416  16.749  20.588   8.250
 5552POPC   C3A17417  16.758  20.622   7.950
 5552POPC   C4A17418  16.719  20.659   7.650
 5552POPC   C1B17419  17.009  20.658   8.550
 5552POPC   C2B17420  16.951  20.620   8.250
 5552POPC   C3B17421  16.966  20.628   7.950
 5552POPC   C4B17422  16.959  20.650   7.650
 5553POPC   NC317423  19.014  22.176   9.450
 5553POPC   PO417424  19.098  22.135   9.150
 5553POPC   GL117425  19.074  22.201   8.850
 5553POPC   GL217426  19.049  22.000   8.850
 5553POPC   C1A17427  19.076  22.171   8.550
 5553POPC   D2A17428  19.100  22.195   8.250
 5553POPC   C3A17429  19.036  22.132   7.950
 5553POPC   C4A17430  19.072  22.128   7.650
 5553POPC   C1B17431  19.056  21.890   8.550
 5553POPC   C2B17432  19.013  21.929   8.250
 5553POPC   C3B17433  19.029  21.923   7.950
 5553POPC   C4B17434  19.071  21.950   7.650
 5554POPC   NC317435   7.470  37.671   9.450
 5554POPC   PO417436   7.384  37.652   9.150
 5554POPC   GL117437   7.449  37.665   8.850
 5554POPC   GL217438   7.499  37.570   8.850
 5554POPC   C1A17439   7.452  37.696   8.550
 5554POPC   D2A17440   7.430  37.725   8.250
 5554POPC   C3A17441   7.435  37.670   7.950
 5554POPC   C4A17442   7.384  37.687   7.650
 5554POPC   C1B17443   7.546  37.408   8.550
 5554POPC   C2B17444   7.511  37.482   8.250
 5554POPC   C3B17445   7.549  37.458   7.950
 5554POPC   C4B17446   7.521  37.409   7.650
 5555POPC   NC317447  25.281   8.150   9.450
 5555POPC   PO417448  25.299   8.234   9.150
 5555POPC   GL117449  25.289   8.189   8.850
 5555POPC   GL217450  25.334   8.165   8.850
 5555POPC   C1A17451  25.308   8.242   8.550
 5555POPC   D2A17452  25.262   8.150   8.250
 5555POPC   C3A17453  25.277   8.201   7.950
 5555POPC   C4A17454  25.314   8.217   7.650
 5555POPC   C1B17455  25.499   8.045   8.550
 5555POPC   C2B17456  25.467   8.066   8.250
 5555POPC   C3B17457  25.453   8.097   7.950
 5555POPC   C4B17458  25.449   8.073   7.650
 5556POPC   NC317459  43.088   9.792   9.450
 5556POPC   PO417460  43.080   9.755   9.150
 5556POPC   GL117461  43.099   9.742   8.850
 5556POPC   GL217462  42.955   9.731   8.850
 5556POPC   C1A17463  43.147   9.756   8.550
 5556POPC   D2A17464  43.132   9.704   8.250
 5556POPC   C3A17465  43.112   9.791   7.950
 5556POPC   C4A17466  43.108   9.710   7.650
 5556POPC   C1B17467  42.863   9.753   8.550
 5556POPC   C2B17468  42.854   9.694   8.250
 5556POPC   C3B17469  42.858   9.747   7.950
 5556POPC   C4B17470  42.826   9.742   7.650
 5557POPC   NC317471  40.019  15.956   9.450
 5557POPC   PO417472  40.039  15.986   9.150
 5557POPC   GL117473  40.013  15.983   8.850
 5557POPC   GL217474  39.934  15.874   8.850
 5557POPC   C1A17475  39.977  15.949   8.550
 5557POPC   D2A17476  40.026  15.980   8.250
 5557POPC   C3A17477  40.000  15.910   7.950
 5557POPC   C4A17478  40.047  15.913   7.650
 5557POPC   C1B17479  39.718  15.871   8.550
 5557POPC   C2B17480  39.778  15.876   8.250
 5557POPC   C3B17481  39.742  15.901   7.950
 5557POPC   C4B17482  39.759  15.883   7.650
 5558POPC   NC317483  29.962   8.216   9.450
 5558POPC   PO417484  29.961   8.243   9.150
 5558POPC   GL117485  29.964   8.173   8.850
 5558POPC   GL217486  29.928   8.051   8.850
 5558POPC   C1A17487  29.884   8.238   8.550
 5558POPC   D2A17488  29.933   8.199   8.250
 5558POPC   C3A17489  29.872   8.214   7.950
 5558POPC   C4A17490  29.957   8.203   7.650
 5558POPC   C1B17491  29.929   7.907   8.550
 5558POPC   C2B17492  29.922   7.929   8.250
 5558POPC   C3B17493  29.846   7.958   7.950
 5558POPC   C4B17494  29.924   7.995   7.650
 5559POPC   NC317495  41.574  15.974   9.450
 5559POPC   PO417496  41.596  15.906   9.150
 5559POPC   GL117497  41.511  16.001   8.850
 5559POPC   GL217498  41.479  16.012   8.850
 5559POPC   C1A17499  41.525  15.954   8.550
 5559POPC   D2A17500  41.595  15.981   8.250
 5559POPC   C3A17501  41.596  15.987   7.950
 5559POPC   C4A17502  41.543  15.948   7.650
 5559POPC   C1B17503  41.422  16.177   8.550
 5559POPC   C2B17504  41.453  16.152   8.250
 5559POPC   C3B17505  41.373  16.176   7.950
 5559POPC   C4B17506  41.448  16.182   7.650
 5560POPC   NC317507   4.324  32.976   9.450
 5560POPC   PO417508   4.326  33.007   9.150
 5560POPC   GL117509   4.341  33.031   8.850
 5560POPC   GL217510   4.309  32.927   8.850
 5560POPC   C1A17511   4.313  33.055   8.550
 5560POPC   D2A17512   4.332  32.993   8.250
 5560POPC   C3A17513   4.355  33.072   7.950
 5560POPC   C4A17514   4.309  33.050   7.650
 5560POPC   C1B17515   4.425  32.820   8.550
 5560POPC   C2B17516   4.418  32.815   8.250
 5560POPC   C3B17517   4.419  32.776   7.950
 5560POPC   C4B17518   4.368  32.790   7.650
 5561POPC   NC317519   5.843   6.626   9.450
 5561POPC   PO417520   5.853   6.637   9.150
 5561POPC   GL117521   5.902   6.656   8.850
 5561POPC   GL217522   5.829   6.541   8.850
 5561POPC   C1A17523   5.841   6.690   8.550
 5561POPC   D2A17524   5.858   6.667   8.250
 5561POPC   C3A17525   5.905   6.639   7.950
 5561POPC   C4A17526   5.880   6.627   7.650
 5561POPC   C1B17527   5.775   6.474   8.550
 5561POPC   C2B17528   5.724   6.463   8.250
 5561POPC   C3B17529   5.734   6.469   7.950
 5561POPC   C4B17530   5.762   6.395   7.650
 5562POPC   NC317531  18.243   8.195   9.450
 5562POPC   PO417532  18.329   8.176   9.150
 5562POPC   GL117533  18.270   8.233   8.850
 5562POPC   GL217534  18.122   8.231   8.850
 5562POPC   C1A17535  18.233   8.151   8.550
 5562POPC   D2A17536  18.317   8.206   8.250
 5562POPC   C3A17537  18.282   8.205   7.950
 5562POPC   C4A17538  18.259   8.203   7.650
 5562POPC   C1B17539  18.047   8.232   8.550
 5562POPC   C2B17540  18.023   8.245   8.250
 5562POPC   C3B17541  18.036   8.153   7.950
 5562POPC   C4B17542  18.016   8.188   7.650
 5563POPC   NC317543   5.850  35.388   9.450
 5563POPC   PO417544   5.852  35.358   9.150
 5563POPC   GL117545   5.865  35.338   8.850
 5563POPC   GL217546   5.917  35.475   8.850
 5563POPC   C1A17547   5.862  35.384   8.550
 5563POPC   D2A17548   5.840  35.353   8.250
 5563POPC   C3A17549   5.889  35.310   7.950
 5563POPC   C4A17550   5.879  35.313   7.650
 5563POPC   C1B17551   5.903  35.598   8.550
 5563POPC   C2B17552   5.935  35.608   8.250
 5563POPC   C3B17553   5.865  35.649   7.950
 5563POPC   C4B17554   5.925  35.562   7.650
 5564POPC   NC317555  19.829   9.766   9.450
 5564POPC   PO417556  19.869   9.750   9.150
 5564POPC   GL117557  19.850   9.743   8.850
 5564POPC   GL217558  19.713   9.731   8.850
 5564POPC   C1A17559  19.852   9.773   8.550
 5564POPC   D2A17560  19.851   9.756   8.250
 5564POPC   C3A17561  19.866   9.727   7.950
 5564POPC   C4A17562  19.801   9.798   7.650
 5564POPC   C1B17563  19.632   9.630   8.550
 5564POPC   C2B17564  19.622   9.667   8.250
 5564POPC   C3B17565  19.559   9.654   7.950
 5564POPC   C4B17566  19.611   9.695   7.650
 5565POPC   NC317567  25.995  12.803   9.450
 5565POPC   PO417568  26.073  12.838   9.150
 5565POPC   GL117569  26.087  12.898   8.850
 5565POPC   GL217570  26.163  12.919   8.850
 5565POPC   C1A17571  26.058  12.872   8.550
 5565POPC   D2A17572  26.040  12.810   8.250
 5565POPC   C3A17573  26.070  12.874   7.950
 5565POPC   C4A17574  26.025  12.814   7.650
 5565POPC   C1B17575  26.255  12.889   8.550
 5565POPC   C2B17576  26.296  12.954   8.250
 5565POPC   C3B17577  26.255  12.918   7.950
 5565POPC   C4B17578  26.294  12.945   7.650
 5566POPC   NC317579  14.438   3.565   9.450
 5566POPC   PO417580  14.406   3.493   9.150
 5566POPC   GL117581  14.421   3.567   8.850
 5566POPC   GL217582  14.264   3.590   8.850
 5566POPC   C1A17583  14.432   3.493   8.550
 5566POPC   D2A17584  14.402   3.516   8.250
 5566POPC   C3A17585  14.382   3.518   7.950
 5566POPC   C4A17586  14.356   3.581   7.650
 5566POPC   C1B17587  14.220   3.664   8.550
 5566POPC   C2B17588  14.256   3.668   8.250
 5566POPC   C3B17589  14.262   3.679   7.950
 5566POPC   C4B17590  14.214   3.695   7.650
 5567POPC   NC317591  32.276  13.612   9.450
 5567POPC   PO417592  32.223  13.603   9.150
 5567POPC   GL117593  32.286  13.664   8.850
 5567POPC   GL217594  32.111  13.581   8.850
 5567POPC   C1A17595  32.294  13.655   8.550
 5567POPC   D2A17596  32.268  13.612   8.250
 5567POPC   C3A17597  32.218  13.672   7.950
 5567POPC   C4A17598  32.272  13.590   7.650
 5567POPC   C1B17599  32.040  13.469   8.550
 5567POPC   C2B17600  32.105  13.474   8.250
 5567POPC   C3B17601  32.080  13.484   7.950
 5567POPC   C4B17602  32.075  13.436   7.650
 5568POPC   NC317603  17.499  36.874   9.450
 5568POPC   PO417604  17.495  36.860   9.150
 5568POPC   GL117605  17.510  36.889   8.850
 5568POPC   GL217606  17.407  36.881   8.850
 5568POPC   C1A17607  17.543  36.918   8.550
 5568POPC   D2A17608  17.549  36.877   8.250
 5568POPC   C3A17609  17.516  36.916   7.950
 5568POPC   C4A17610  17.458  36.892   7.650
 5568POPC   C1B17611  17.237  36.838   8.550
 5568POPC   C2B17612  17.305  36.845   8.250
 5568POPC   C3B17613  17.288  36.823   7.950
 5568POPC   C4B17614  17.256  36.837   7.650
 5569POPC   NC317615  12.037  33.830   9.450
 5569POPC   PO417616  12.028  33.831   9.150
 5569POPC   GL117617  12.048  33.830   8.850
 5569POPC   GL217618  12.151  33.890   8.850
 5569POPC   C1A17619  12.049  33.845   8.550
 5569POPC   D2A17620  12.059  33.790   8.250
 5569POPC   C3A17621  12.099  33.815   7.950
 5569POPC   C4A17622  12.098  33.789   7.650
 5569POPC   C1B17623  12.140  34.044   8.550
 5569POPC   C2B17624  12.183  34.045   8.250
 5569POPC   C3B17625  12.158  34.015   7.950
 5569POPC   C4B17626  12.120  33.986   7.650
 5570POPC   NC317627   2.015   1.243   9.450
 5570POPC   PO417628   2.039   1.191   9.150
 5570POPC   GL117629   2.020   1.188   8.850
 5570POPC   GL217630   2.093   1.322   8.850
 5570POPC   C1A17631   1.989   1.246   8.550
 5570POPC   D2A17632   1.958   1.241   8.250
 5570POPC   C3A17633   2.007   1.208   7.950
 5570POPC   C4A17634   2.033   1.173   7.650
 5570POPC   C1B17635   2.223   1.390   8.550
 5570POPC   C2B17636   2.197   1.334   8.250
 5570POPC   C3B17637   2.170   1.411   7.950
 5570POPC   C4B17638   2.224   1.389   7.650
 5571POPC   NC317639  39.257  22.987   9.450
 5571POPC   PO417640  39.229  22.913   9.150
 5571POPC   GL117641  39.212  22.944   8.850
 5571POPC   GL217642  39.296  23.072   8.850
 5571POPC   C1A17643  39.270  22.904   8.550
 5571POPC   D2A17644  39.214  22.948   8.250
 5571POPC   C3A17645  39.260  22.973   7.950
 5571POPC   C4A17646  39.215  22.956   7.650
 5571POPC   C1B17647  39.414  23.137   8.550
 5571POPC   C2B17648  39.338  23.187   8.250
 5571POPC   C3B17649  39.374  23.178   7.950
 5571POPC   C4B17650  39.405  23.147   7.650
 5572POPC   NC317651  32.219  23.672   9.450
 5572POPC   PO417652  32.228  23.668   9.150
 5572POPC   GL117653  32.266  23.716   8.850
 5572POPC   GL217654  32.132  23.748   8.850
 5572POPC   C1A17655  32.290  23.723   8.550
 5572POPC   D2A17656  32.253  23.732   8.250
 5572POPC   C3A17657  32.230  23.681   7.950
 5572POPC   C4A17658  32.278  23.743   7.650
 5572POPC   C1B17659  32.067  23.822   8.550
 5572POPC   C2B17660  32.050  23.833   8.250
 5572POPC   C3B17661  32.001  23.843   7.950
 5572POPC   C4B17662  31.972  23.792   7.650
 5573POPC   NC317663   4.317   5.070   9.450
 5573POPC   PO417664   4.326   5.103   9.150
 5573POPC   GL117665   4.344   5.055   8.850
 5573POPC   GL217666   4.370   5.167   8.850
 5573POPC   C1A17667   4.280   5.107   8.550
 5573POPC   D2A17668   4.286   5.082   8.250
 5573POPC   C3A17669   4.309   5.111   7.950
 5573POPC   C4A17670   4.353   5.125   7.650
 5573POPC   C1B17671   4.494   5.277   8.550
 5573POPC   C2B17672   4.527   5.235   8.250
 5573POPC   C3B17673   4.429   5.318   7.950
 5573POPC   C4B17674   4.513   5.263   7.650
 5574POPC   NC317675   5.880  31.520   9.450
 5574POPC   PO417676   5.914  31.489   9.150
 5574POPC   GL117677   5.820  31.464   8.850
 5574POPC   GL217678   5.938  31.555   8.850
 5574POPC   C1A17679   5.833  31.470   8.550
 5574POPC   D2A17680   5.860  31.474   8.250
 5574POPC   C3A17681   5.830  31.454   7.950
 5574POPC   C4A17682   5.830  31.492   7.650
 5574POPC   C1B17683   6.105  31.590   8.550
 5574POPC   C2B17684   6.093  31.610   8.250
 5574POPC   C3B17685   6.044  31.640   7.950
 5574POPC   C4B17686   6.093  31.620   7.650
 5575POPC   NC317687  19.055   1.187   9.450
 5575POPC   PO417688  19.057   1.205   9.150
 5575POPC   GL117689  19.029   1.197   8.850
 5575POPC   GL217690  19.098   1.361   8.850
 5575POPC   C1A17691  19.060   1.191   8.550
 5575POPC   D2A17692  19.012   1.246   8.250
 5575POPC   C3A17693  19.044   1.201   7.950
 5575POPC   C4A17694  19.106   1.183   7.650
 5575POPC   C1B17695  19.153   1.457   8.550
 5575POPC   C2B17696  19.162   1.411   8.250
 5575POPC   C3B17697  19.150   1.427   7.950
 5575POPC   C4B17698  19.207   1.426   7.650
 5576POPC   NC317699  24.539  11.347   9.450
 5576POPC   PO417700  24.527  11.250   9.150
 5576POPC   GL117701  24.445  11.282   8.850
 5576POPC   GL217702  24.495  11.404   8.850
 5576POPC   C1A17703  24.498  11.289   8.550
 5576POPC   D2A17704  24.488  11.349   8.250
 5576POPC   C3A17705  24.463  11.283   7.950
 5576POPC   C4A17706  24.473  11.266   7.650
 5576POPC   C1B17707  24.508  11.533   8.550
 5576POPC   C2B17708  24.538  11.543   8.250
 5576POPC   C3B17709  24.542  11.502   7.950
 5576POPC   C4B17710  24.550  11.541   7.650
 5577POPC   NC317711  18.289   8.930   9.450
 5577POPC   PO417712  18.320   9.020   9.150
 5577POPC   GL117713  18.252   9.020   8.850
 5577POPC   GL217714  18.177   9.115   8.850
 5577POPC   C1A17715  18.280   9.020   8.550
 5577POPC   D2A17716  18.315   8.957   8.250
 5577POPC   C3A17717  18.246   8.960   7.950
 5577POPC   C4A17718  18.275   8.947   7.650
 5577POPC   C1B17719  18.153   9.150   8.550
 5577POPC   C2B17720  18.146   9.161   8.250
 5577POPC   C3B17721  18.170   9.216   7.950
 5577POPC   C4B17722  18.155   9.177   7.650
 5578POPC   NC317723  30.712  12.061   9.450
 5578POPC   PO417724  30.721  12.109   9.150
 5578POPC   GL117725  30.702  12.080   8.850
 5578POPC   GL217726  30.578  12.113   8.850
 5578POPC   C1A17727  30.707  12.062   8.550
 5578POPC   D2A17728  30.673  12.103   8.250
 5578POPC   C3A17729  30.665  12.034   7.950
 5578POPC   C4A17730  30.654  12.033   7.650
 5578POPC   C1B17731  30.454  12.135   8.550
 5578POPC   C2B17732  30.488  12.104   8.250
 5578POPC   C3B17733  30.422  12.057   7.950
 5578POPC   C4B17734  30.410  12.106   7.650
 5579POPC   NC317735   7.429   4.361   9.450
 5579POPC   PO417736   7.470   4.287   9.150
 5579POPC   GL117737   7.404   4.330   8.850
 5579POPC   GL217738   7.472   4.185   8.850
 5579POPC   C1A17739   7.372   4.367   8.550
 5579POPC   D2A17740   7.461   4.349   8.250
 5579POPC   C3A17741   7.413   4.355   7.950
 5579POPC   C4A17742   7.400   4.279   7.650
 5579POPC   C1B17743   7.460   4.044   8.550
 5579POPC   C2B17744   7.479   4.060   8.250
 5579POPC   C3B17745   7.542   4.104   7.950
 5579POPC   C4B17746   7.450   4.039   7.650
 5580POPC   NC317747  22.185  26.075   9.450
 5580POPC   PO417748  22.207  26.040   9.150
 5580POPC   GL117749  22.129  26.007   8.850
 5580POPC   GL217750  22.118  26.167   8.850
 5580POPC   C1A17751  22.184  26.059   8.550
 5580POPC   D2A17752  22.178  26.015   8.250
 5580POPC   C3A17753  22.143  26.052   7.950
 5580POPC   C4A17754  22.189  25.997   7.650
 5580POPC   C1B17755  22.058  26.321   8.550
 5580POPC   C2B17756  22.052  26.235   8.250
 5580POPC   C3B17757  22.075  26.251   7.950
 5580POPC   C4B17758  22.092  26.286   7.650
 5581POPC   NC317759  19.025  40.045   9.450
 5581POPC   PO417760  19.037  39.984   9.150
 5581POPC   GL117761  19.046  39.989   8.850
 5581POPC   GL217762  19.146  39.987   8.850
 5581POPC   C1A17763  19.075  40.047   8.550
 5581POPC   D2A17764  19.015  40.002   8.250
 5581POPC   C3A17765  19.098  40.054   7.950
 5581POPC   C4A17766  19.064  40.051   7.650
 5581POPC   C1B17767  19.326  40.083   8.550
 5581POPC   C2B17768  19.282  40.074   8.250
 5581POPC   C3B17769  19.259  40.061   7.950
 5581POPC   C4B17770  19.277  40.069   7.650
 5582POPC   NC317771  11.332  32.285   9.450
 5582POPC   PO417772  11.261  32.277   9.150
 5582POPC   GL117773  11.336  32.297   8.850
 5582POPC   GL217774  11.450  32.260   8.850
 5582POPC   C1A17775  11.325  32.276   8.550
 5582POPC   D2A17776  11.259  32.211   8.250
 5582POPC   C3A17777  11.255  32.210   7.950
 5582POPC   C4A17778  11.252  32.241   7.650
 5582POPC   C1B17779  11.506  32.175   8.550
 5582POPC   C2B17780  11.588  32.226   8.250
 5582POPC   C3B17781  11.507  32.233   7.950
 5582POPC   C4B17782  11.531  32.258   7.650
 5583POPC   NC317783  33.027  33.045   9.450
 5583POPC   PO417784  32.986  33.001   9.150
 5583POPC   GL117785  33.031  32.998   8.850
 5583POPC   GL217786  32.864  33.009   8.850
 5583POPC   C1A17787  33.028  33.023   8.550
 5583POPC   D2A17788  33.019  33.044   8.250
 5583POPC   C3A17789  32.988  33.021   7.950
 5583POPC   C4A17790  33.035  33.045   7.650
 5583POPC   C1B17791  32.850  32.891   8.550
 5583POPC   C2B17792  32.757  32.955   8.250
 5583POPC   C3B17793  32.821  32.951   7.950
 5583POPC   C4B17794  32.782  32.920   7.650
 5584POPC   NC317795   2.009   0.415   9.450
 5584POPC   PO417796   2.008   0.415   9.150
 5584POPC   GL117797   2.017   0.478   8.850
 5584POPC   GL217798   2.101   0.337   8.850
 5584POPC   C1A17799   2.035   0.441   8.550
 5584POPC   D2A17800   2.012   0.402   8.250
 5584POPC   C3A17801   1.968   0.440   7.950
 5584POPC   C4A17802   1.949   0.403   7.650
 5584POPC   C1B17803   2.179   0.226   8.550
 5584POPC   C2B17804   2.172   0.269   8.250
 5584POPC   C3B17805   2.162   0.296   7.950
 5584POPC   C4B17806   2.136   0.250   7.650
 5585POPC   NC317807  37.706  17.500   9.450
 5585POPC   PO417808  37.661  17.466   9.150
 5585POPC   GL117809  37.713  17.474   8.850
 5585POPC   GL217810  37.694  17.380   8.850
 5585POPC   C1A17811  37.648  17.493   8.550
 5585POPC   D2A17812  37.709  17.490   8.250
 5585POPC   C3A17813  37.726  17.552   7.950
 5585POPC   C4A17814  37.638  17.520   7.650
 5585POPC   C1B17815  37.655  17.295   8.550
 5585POPC   C2B17816  37.641  17.222   8.250
 5585POPC   C3B17817  37.645  17.226   7.950
 5585POPC   C4B17818  37.653  17.255   7.650
 5586POPC   NC317819  17.534  25.260   9.450
 5586POPC   PO417820  17.459  25.279   9.150
 5586POPC   GL117821  17.527  25.237   8.850
 5586POPC   GL217822  17.600  25.231   8.850
 5586POPC   C1A17823  17.463  25.299   8.550
 5586POPC   D2A17824  17.484  25.231   8.250
 5586POPC   C3A17825  17.526  25.286   7.950
 5586POPC   C4A17826  17.540  25.225   7.650
 5586POPC   C1B17827  17.722  25.278   8.550
 5586POPC   C2B17828  17.724  25.310   8.250
 5586POPC   C3B17829  17.753  25.308   7.950
 5586POPC   C4B17830  17.710  25.304   7.650
 5587POPC   NC317831  12.057  15.133   9.450
 5587POPC   PO417832  12.087  15.187   9.150
 5587POPC   GL117833  12.074  15.151   8.850
 5587POPC   GL217834  11.985  15.061   8.850
 5587POPC   C1A17835  12.026  15.206   8.550
 5587POPC   D2A17836  12.030  15.219   8.250
 5587POPC   C3A17837  12.092  15.193   7.950
 5587POPC   C4A17838  12.115  15.189   7.650
 5587POPC   C1B17839  11.909  14.974   8.550
 5587POPC   C2B17840  11.922  15.021   8.250
 5587POPC   C3B17841  11.900  14.941   7.950
 5587POPC   C4B17842  11.968  14.970   7.650
 5588POPC   NC317843  42.362  22.931   9.450
 5588POPC   PO417844  42.346  22.944   9.150
 5588POPC   GL117845  42.292  22.920   8.850
 5588POPC   GL217846  42.243  22.929   8.850
 5588POPC   C1A17847  42.347  22.890   8.550
 5588POPC   D2A17848  42.341  22.950   8.250
 5588POPC   C3A17849  42.289  22.929   7.950
 5588POPC   C4A17850  42.376  22.912   7.650
 5588POPC   C1B17851  42.058  22.981   8.550
 5588POPC   C2B17852  42.087  22.952   8.250
 5588POPC   C3B17853  42.071  22.936   7.950
 5588POPC   C4B17854  42.135  22.994   7.650
 5589POPC   NC317855   2.783  26.849   9.450
 5589POPC   PO417856   2.716  26.859   9.150
 5589POPC   GL117857   2.761  26.789   8.850
 5589POPC   GL217858   2.795  26.955   8.850
 5589POPC   C1A17859   2.775  26.794   8.550
 5589POPC   D2A17860   2.794  26.797   8.250
 5589POPC   C3A17861   2.758  26.796   7.950
 5589POPC   C4A17862   2.759  26.792   7.650
 5589POPC   C1B17863   2.867  27.081   8.550
 5589POPC   C2B17864   2.887  27.071   8.250
 5589POPC   C3B17865   2.904  27.038   7.950
 5589POPC   C4B17866   2.839  27.088   7.650
 5590POPC   NC317867  38.468   5.840   9.450
 5590POPC   PO417868  38.491   5.847   9.150
 5590POPC   GL117869  38.474   5.887   8.850
 5590POPC   GL217870  38.604   5.922   8.850
 5590POPC   C1A17871  38.425   5.872   8.550
 5590POPC   D2A17872  38.501   5.846   8.250
 5590POPC   C3A17873  38.415   5.905   7.950
 5590POPC   C4A17874  38.472   5.831   7.650
 5590POPC   C1B17875  38.647   5.993   8.550
 5590POPC   C2B17876  38.622   6.055   8.250
 5590POPC   C3B17877  38.655   5.992   7.950
 5590POPC   C4B17878  38.666   5.994   7.650
 5591POPC   NC317879   9.021  33.759   9.450
 5591POPC   PO417880   8.992  33.797   9.150
 5591POPC   GL117881   8.955  33.753   8.850
 5591POPC   GL217882   9.020  33.872   8.850
 5591POPC   C1A17883   8.993  33.808   8.550
 5591POPC   D2A17884   8.955  33.824   8.250
 5591POPC   C3A17885   8.988  33.758   7.950
 5591POPC   C4A17886   8.998  33.784   7.650
 5591POPC   C1B17887   9.201  34.005   8.550
 5591POPC   C2B17888   9.159  33.954   8.250
 5591POPC   C3B17889   9.212  33.991   7.950
 5591POPC   C4B17890   9.176  33.928   7.650
 5592POPC   NC317891  28.328  43.098   9.450
 5592POPC   PO417892  28.385  43.085   9.150
 5592POPC   GL117893  28.350  43.117   8.850
 5592POPC   GL217894  28.361  43.270   8.850
 5592POPC   C1A17895  28.369  43.081   8.550
 5592POPC   D2A17896  28.332  43.088   8.250
 5592POPC   C3A17897  28.351  43.062   7.950
 5592POPC   C4A17898  28.344  43.110   7.650
 5592POPC   C1B17899  28.329  43.382   8.550
 5592POPC   C2B17900  28.319  43.337   8.250
 5592POPC   C3B17901  28.314  43.378   7.950
 5592POPC   C4B17902  28.313  43.337   7.650
 5593POPC   NC317903  30.726  39.270   9.450
 5593POPC   PO417904  30.688  39.208   9.150
 5593POPC   GL117905  30.710  39.194   8.850
 5593POPC   GL217906  30.616  39.344   8.850
 5593POPC   C1A17907  30.696  39.229   8.550
 5593POPC   D2A17908  30.732  39.252   8.250
 5593POPC   C3A17909  30.671  39.262   7.950
 5593POPC   C4A17910  30.686  39.187   7.650
 5593POPC   C1B17911  30.627  39.473   8.550
 5593POPC   C2B17912  30.609  39.424   8.250
 5593POPC   C3B17913  30.587  39.477   7.950
 5593POPC   C4B17914  30.572  39.457   7.650
 5594POPC   NC317915   1.218  24.508   9.450
 5594POPC   PO417916   1.233  24.533   9.150
 5594POPC   GL117917   1.212  24.461   8.850
 5594POPC   GL217918   1.070  24.439   8.850
 5594POPC   C1A17919   1.212  24.518   8.550
 5594POPC   D2A17920   1.219  24.461   8.250
 5594POPC   C3A17921   1.230  24.441   7.950
 5594POPC   C4A17922   1.175  24.456   7.650
 5594POPC   C1B17923   0.975  24.377   8.550
 5594POPC   C2B17924   0.995  24.318   8.250
 5594POPC   C3B17925   1.066  24.337   7.950
 5594POPC   C4B17926   1.011  24.340   7.650
 5595POPC   NC317927  36.928  32.214   9.450
 5595POPC   PO417928  36.910  32.246   9.150
 5595POPC   GL117929  36.894  32.227   8.850
 5595POPC   GL217930  37.042  32.282   8.850
 5595POPC   C1A17931  36.923  32.232   8.550
 5595POPC   D2A17932  36.892  32.206   8.250
 5595POPC   C3A17933  36.911  32.266   7.950
 5595POPC   C4A17934  36.886  32.201   7.650
 5595POPC   C1B17935  37.187  32.241   8.550
 5595POPC   C2B17936  37.179  32.266   8.250
 5595POPC   C3B17937  37.133  32.333   7.950
 5595POPC   C4B17938  37.180  32.331   7.650
 5596POPC   NC317939  41.606   8.947   9.450
 5596POPC   PO417940  41.528   8.925   9.150
 5596POPC   GL117941  41.568   8.934   8.850
 5596POPC   GL217942  41.441   8.958   8.850
 5596POPC   C1A17943  41.564   8.996   8.550
 5596POPC   D2A17944  41.586   8.991   8.250
 5596POPC   C3A17945  41.522   8.928   7.950
 5596POPC   C4A17946  41.587   8.986   7.650
 5596POPC   C1B17947  41.350   8.918   8.550
 5596POPC   C2B17948  41.294   8.916   8.250
 5596POPC   C3B17949  41.293   8.979   7.950
 5596POPC   C4B17950  41.309   8.999   7.650
 5597POPC   NC317951  14.368  37.661   9.450
 5597POPC   PO417952  14.400  37.636   9.150
 5597POPC   GL117953  14.399  37.642   8.850
 5597POPC   GL217954  14.312  37.809   8.850
 5597POPC   C1A17955  14.428  37.689   8.550
 5597POPC   D2A17956  14.409  37.642   8.250
 5597POPC   C3A17957  14.389  37.686   7.950
 5597POPC   C4A17958  14.379  37.676   7.650
 5597POPC   C1B17959  14.328  37.946   8.550
 5597POPC   C2B17960  14.245  37.904   8.250
 5597POPC   C3B17961  14.324  37.873   7.950
 5597POPC   C4B17962  14.253  37.850   7.650
 5598POPC   NC317963  19.856  30.652   9.450
 5598POPC   PO417964  19.836  30.728   9.150
 5598POPC   GL117965  19.844  30.651   8.850
 5598POPC   GL217966  19.937  30.645   8.850
 5598POPC   C1A17967  19.837  30.706   8.550
 5598POPC   D2A17968  19.818  30.686   8.250
 5598POPC   C3A17969  19.829  30.670   7.950
 5598POPC   C4A17970  19.851  30.708   7.650
 5598POPC   C1B17971  20.042  30.552   8.550
 5598POPC   C2B17972  19.998  30.574   8.250
 5598POPC   C3B17973  20.040  30.529   7.950
 5598POPC   C4B17974  20.026  30.597   7.650
 5599POPC   NC317975  26.007  35.361   9.450
 5599POPC   PO417976  26.012  35.340   9.150
 5599POPC   GL117977  26.030  35.364   8.850
 5599POPC   GL217978  26.154  35.253   8.850
 5599POPC   C1A17979  26.072  35.313   8.550
 5599POPC   D2A17980  26.009  35.329   8.250
 5599POPC   C3A17981  26.038  35.379   7.950
 5599POPC   C4A17982  26.063  35.344   7.650
 5599POPC   C1B17983  26.239  35.139   8.550
 5599POPC   C2B17984  26.215  35.203   8.250
 5599POPC   C3B17985  26.187  35.203   7.950
 5599POPC   C4B17986  26.268  35.215   7.650
 5600POPC   NC317987  13.638  27.546   9.450
 5600POPC   PO417988  13.649  27.630   9.150
 5600POPC   GL117989  13.658  27.636   8.850
 5600POPC   GL217990  13.704  27.690   8.850
 5600POPC   C1A17991  13.643  27.557   8.550
 5600POPC   D2A17992  13.606  27.556   8.250
 5600POPC   C3A17993  13.586  27.577   7.950
 5600POPC   C4A17994  13.615  27.598   7.650
 5600POPC   C1B17995  13.769  27.833   8.550
 5600POPC   C2B17996  13.796  27.835   8.250
 5600POPC   C3B17997  13.741  27.767   7.950
 5600POPC   C4B17998  13.795  27.746   7.650
 5601POPC   NC317999  20.566  21.429   9.450
 5601POPC   PO418000  20.560  21.430   9.150
 5601POPC   GL118001  20.591  21.398   8.850
 5601POPC   GL218002  20.711  21.246   8.850
 5601POPC   C1A18003  20.581  21.347   8.550
 5601POPC   D2A18004  20.591  21.350   8.250
 5601POPC   C3A18005  20.639  21.341   7.950
 5601POPC   C4A18006  20.626  21.347   7.650
 5601POPC   C1B18007  20.778  21.161   8.550
 5601POPC   C2B18008  20.705  21.125   8.250
 5601POPC   C3B18009  20.763  21.135   7.950
 5601POPC   C4B18010  20.715  21.155   7.650
 5602POPC   NC318011   1.208  21.341   9.450
 5602POPC   PO418012   1.173  21.387   9.150
 5602POPC   GL118013   1.194  21.413   8.850
 5602POPC   GL218014   1.214  21.512   8.850
 5602POPC   C1A18015   1.252  21.419   8.550
 5602POPC   D2A18016   1.196  21.435   8.250
 5602POPC   C3A18017   1.245  21.336   7.950
 5602POPC   C4A18018   1.244  21.358   7.650
 5602POPC   C1B18019   1.336  21.592   8.550
 5602POPC   C2B18020   1.311  21.666   8.250
 5602POPC   C3B18021   1.332  21.595   7.950
 5602POPC   C4B18022   1.296  21.668   7.650
 5603POPC   NC318023   5.128   9.018   9.450
 5603POPC   PO418024   5.062   8.953   9.150
 5603POPC   GL118025   5.103   8.941   8.850
 5603POPC   GL218026   5.212   9.018   8.850
 5603POPC   C1A18027   5.051   8.997   8.550
 5603POPC   D2A18028   5.075   8.949   8.250
 5603POPC   C3A18029   5.062   8.999   7.950
 5603POPC   C4A18030   5.096   8.972   7.650
 5603POPC   C1B18031   5.298   9.107   8.550
 5603POPC   C2B18032   5.222   9.137   8.250
 5603POPC   C3B18033   5.227   9.148   7.950
 5603POPC   C4B18034   5.226   9.184   7.650
 5604POPC   NC318035   1.254  27.575   9.450
 5604POPC   PO418036   1.170  27.642   9.150
 5604POPC   GL118037   1.233  27.553   8.850
 5604POPC   GL218038   1.132  27.517   8.850
 5604POPC   C1A18039   1.215  27.562   8.550
 5604POPC   D2A18040   1.207  27.564   8.250
 5604POPC   C3A18041   1.223  27.558   7.950
 5604POPC   C4A18042   1.236  27.573   7.650
 5604POPC   C1B18043   1.070  27.383   8.550
 5604POPC   C2B18044   1.068  27.382   8.250
 5604POPC   C3B18045   1.085  27.355   7.950
 5604POPC   C4B18046   1.138  27.347   7.650
 5605POPC   NC318047  29.160  34.592   9.450
 5605POPC   PO418048  29.107  34.533   9.150
 5605POPC   GL118049  29.147  34.610   8.850
 5605POPC   GL218050  29.009  34.629   8.850
 5605POPC   C1A18051  29.111  34.569   8.550
 5605POPC   D2A18052  29.138  34.576   8.250
 5605POPC   C3A18053  29.164  34.549   7.950
 5605POPC   C4A18054  29.111  34.541   7.650
 5605POPC   C1B18055  28.920  34.572   8.550
 5605POPC   C2B18056  28.915  34.583   8.250
 5605POPC   C3B18057  28.875  34.624   7.950
 5605POPC   C4B18058  28.905  34.566   7.650
 5606POPC   NC318059   1.987  36.104   9.450
 5606POPC   PO418060   1.952  36.086   9.150
 5606POPC   GL118061   1.993  36.078   8.850
 5606POPC   GL218062   1.924  36.188   8.850
 5606POPC   C1A18063   1.942  36.148   8.550
 5606POPC   D2A18064   2.004  36.082   8.250
 5606POPC   C3A18065   2.028  36.094   7.950
 5606POPC   C4A18066   2.024  36.126   7.650
 5606POPC   C1B18067   1.764  36.284   8.550
 5606POPC   C2B18068   1.733  36.216   8.250
 5606POPC   C3B18069   1.733  36.274   7.950
 5606POPC   C4B18070   1.741  36.266   7.650
 5607POPC   NC318071   1.258  36.942   9.450
 5607POPC   PO418072   1.261  36.953   9.150
 5607POPC   GL118073   1.230  36.922   8.850
 5607POPC   GL218074   1.191  36.996   8.850
 5607POPC   C1A18075   1.251  36.914   8.550
 5607POPC   D2A18076   1.226  36.904   8.250
 5607POPC   C3A18077   1.248  36.926   7.950
 5607POPC   C4A18078   1.257  36.933   7.650
 5607POPC   C1B18079   1.270  37.171   8.550
 5607POPC   C2B18080   1.279  37.130   8.250
 5607POPC   C3B18081   1.225  37.118   7.950
 5607POPC   C4B18082   1.225  37.154   7.650
 5608POPC   NC318083  22.888  26.032   9.450
 5608POPC   PO418084  22.950  26.011   9.150
 5608POPC   GL118085  22.895  26.025   8.850
 5608POPC   GL218086  23.004  26.178   8.850
 5608POPC   C1A18087  22.923  26.029   8.550
 5608POPC   D2A18088  22.972  26.055   8.250
 5608POPC   C3A18089  22.905  26.090   7.950
 5608POPC   C4A18090  22.905  25.995   7.650
 5608POPC   C1B18091  23.066  26.221   8.550
 5608POPC   C2B18092  23.083  26.284   8.250
 5608POPC   C3B18093  23.053  26.265   7.950
 5608POPC   C4B18094  23.097  26.197   7.650
 5609POPC   NC318095   9.733   9.745   9.450
 5609POPC   PO418096   9.721   9.722   9.150
 5609POPC   GL118097   9.791   9.740   8.850
 5609POPC   GL218098   9.717   9.906   8.850
 5609POPC   C1A18099   9.756   9.769   8.550
 5609POPC   D2A18100   9.715   9.742   8.250
 5609POPC   C3A18101   9.761   9.791   7.950
 5609POPC   C4A18102   9.719   9.767   7.650
 5609POPC   C1B18103   9.704   9.965   8.550
 5609POPC   C2B18104   9.713  10.039   8.250
 5609POPC   C3B18105   9.732   9.971   7.950
 5609POPC   C4B18106   9.726   9.966   7.650
 5610POPC   NC318107  40.788  17.468   9.450
 5610POPC   PO418108  40.783  17.489   9.150
 5610POPC   GL118109  40.807  17.536   8.850
 5610POPC   GL218110  40.881  17.658   8.850
 5610POPC   C1A18111  40.774  17.530   8.550
 5610POPC   D2A18112  40.804  17.474   8.250
 5610POPC   C3A18113  40.785  17.548   7.950
 5610POPC   C4A18114  40.751  17.461   7.650
 5610POPC   C1B18115  40.895  17.772   8.550
 5610POPC   C2B18116  40.882  17.746   8.250
 5610POPC   C3B18117  40.938  17.680   7.950
 5610POPC   C4B18118  40.934  17.727   7.650
 5611POPC   NC318119  10.527  20.606   9.450
 5611POPC   PO418120  10.546  20.587   9.150
 5611POPC   GL118121  10.518  20.621   8.850
 5611POPC   GL218122  10.610  20.648   8.850
 5611POPC   C1A18123  10.544  20.585   8.550
 5611POPC   D2A18124  10.539  20.620   8.250
 5611POPC   C3A18125  10.517  20.574   7.950
 5611POPC   C4A18126  10.568  20.594   7.650
 5611POPC   C1B18127  10.788  20.619   8.550
 5611POPC   C2B18128  10.731  20.627   8.250
 5611POPC   C3B18129  10.794  20.627   7.950
 5611POPC   C4B18130  10.736  20.669   7.650
 5612POPC   NC318131   0.486  14.390   9.450
 5612POPC   PO418132   0.401  14.451   9.150
 5612POPC   GL118133   0.449  14.355   8.850
 5612POPC   GL218134   0.471  14.275   8.850
 5612POPC   C1A18135   0.408  14.360   8.550
 5612POPC   D2A18136   0.473  14.392   8.250
 5612POPC   C3A18137   0.480  14.361   7.950
 5612POPC   C4A18138   0.449  14.436   7.650
 5612POPC   C1B18139   0.515  14.144   8.550
 5612POPC   C2B18140   0.566  14.188   8.250
 5612POPC   C3B18141   0.570  14.137   7.950
 5612POPC   C4B18142   0.564  14.229   7.650
 5613POPC   NC318143  31.470   9.756   9.450
 5613POPC   PO418144  31.431   9.748   9.150
 5613POPC   GL118145  31.485   9.705   8.850
 5613POPC   GL218146  31.638   9.742   8.850
 5613POPC   C1A18147  31.521   9.720   8.550
 5613POPC   D2A18148  31.448   9.700   8.250
 5613POPC   C3A18149  31.473   9.778   7.950
 5613POPC   C4A18150  31.432   9.742   7.650
 5613POPC   C1B18151  31.696   9.754   8.550
 5613POPC   C2B18152  31.687   9.693   8.250
 5613POPC   C3B18153  31.673   9.680   7.950
 5613POPC   C4B18154  31.706   9.762   7.650
 5614POPC   NC318155  15.922   6.662   9.450
 5614POPC   PO418156  16.002   6.623   9.150
 5614POPC   GL118157  15.936   6.647   8.850
 5614POPC   GL218158  15.884   6.525   8.850
 5614POPC   C1A18159  15.918   6.652   8.550
 5614POPC   D2A18160  16.000   6.612   8.250
 5614POPC   C3A18161  15.914   6.663   7.950
 5614POPC   C4A18162  16.003   6.671   7.650
 5614POPC   C1B18163  15.770   6.463   8.550
 5614POPC   C2B18164  15.823   6.492   8.250
 5614POPC   C3B18165  15.799   6.453   7.950
 5614POPC   C4B18166  15.741   6.475   7.650
 5615POPC   NC318167  29.881  22.983   9.450
 5615POPC   PO418168  29.898  22.951   9.150
 5615POPC   GL118169  29.960  22.892   8.850
 5615POPC   GL218170  29.884  23.058   8.850
 5615POPC   C1A18171  29.878  22.960   8.550
 5615POPC   D2A18172  29.930  22.943   8.250
 5615POPC   C3A18173  29.954  22.902   7.950
 5615POPC   C4A18174  29.913  22.986   7.650
 5615POPC   C1B18175  29.758  23.111   8.550
 5615POPC   C2B18176  29.727  23.128   8.250
 5615POPC   C3B18177  29.808  23.170   7.950
 5615POPC   C4B18178  29.716  23.170   7.650
 5616POPC   NC318179  22.915  21.363   9.450
 5616POPC   PO418180  22.923  21.407   9.150
 5616POPC   GL118181  22.914  21.360   8.850
 5616POPC   GL218182  23.042  21.501   8.850
 5616POPC   C1A18183  22.962  21.401   8.550
 5616POPC   D2A18184  22.889  21.429   8.250
 5616POPC   C3A18185  22.937  21.391   7.950
 5616POPC   C4A18186  22.948  21.337   7.650
 5616POPC   C1B18187  23.101  21.506   8.550
 5616POPC   C2B18188  23.130  21.502   8.250
 5616POPC   C3B18189  23.165  21.564   7.950
 5616POPC   C4B18190  23.110  21.532   7.650
 5617POPC   NC318191  31.477  31.456   9.450
 5617POPC   PO418192  31.463  31.460   9.150
 5617POPC   GL118193  31.508  31.483   8.850
 5617POPC   GL218194  31.368  31.332   8.850
 5617POPC   C1A18195  31.478  31.519   8.550
 5617POPC   D2A18196  31.517  31.424   8.250
 5617POPC   C3A18197  31.504  31.472   7.950
 5617POPC   C4A18198  31.511  31.500   7.650
 5617POPC   C1B18199  31.328  31.251   8.550
 5617POPC   C2B18200  31.271  31.307   8.250
 5617POPC   C3B18201  31.265  31.255   7.950
 5617POPC   C4B18202  31.324  31.303   7.650
 5618POPC   NC318203  19.870   3.536   9.450
 5618POPC   PO418204  19.874   3.515   9.150
 5618POPC   GL118205  19.814   3.563   8.850
 5618POPC   GL218206  19.764   3.683   8.850
 5618POPC   C1A18207  19.883   3.497   8.550
 5618POPC   D2A18208  19.786   3.590   8.250
 5618POPC   C3A18209  19.876   3.590   7.950
 5618POPC   C4A18210  19.853   3.495   7.650
 5618POPC   C1B18211  19.705   3.796   8.550
 5618POPC   C2B18212  19.668   3.783   8.250
 5618POPC   C3B18213  19.676   3.727   7.950
 5618POPC   C4B18214  19.721   3.743   7.650
 5619POPC   NC318215  20.627  18.292   9.450
 5619POPC   PO418216  20.609  18.286   9.150
 5619POPC   GL118217  20.577  18.324   8.850
 5619POPC   GL218218  20.601  18.118   8.850
 5619POPC   C1A18219  20.642  18.260   8.550
 5619POPC   D2A18220  20.599  18.260   8.250
 5619POPC   C3A18221  20.628  18.256   7.950
 5619POPC   C4A18222  20.579  18.323   7.650
 5619POPC   C1B18223  20.608  18.075   8.550
 5619POPC   C2B18224  20.590  18.008   8.250
 5619POPC   C3B18225  20.575  18.081   7.950
 5619POPC   C4B18226  20.545  17.995   7.650
 5620POPC   NC318227   2.806  10.498   9.450
 5620POPC   PO418228   2.812  10.501   9.150
 5620POPC   GL118229   2.720  10.513   8.850
 5620POPC   GL218230   2.659  10.582   8.850
 5620POPC   C1A18231   2.726  10.489   8.550
 5620POPC   D2A18232   2.720  10.477   8.250
 5620POPC   C3A18233   2.789  10.513   7.950
 5620POPC   C4A18234   2.765  10.497   7.650
 5620POPC   C1B18235   2.574  10.629   8.550
 5620POPC   C2B18236   2.505  10.654   8.250
 5620POPC   C3B18237   2.535  10.657   7.950
 5620POPC   C4B18238   2.514  10.680   7.650
 5621POPC   NC318239   4.364  18.295   9.450
 5621POPC   PO418240   4.283  18.308   9.150
 5621POPC   GL118241   4.349  18.279   8.850
 5621POPC   GL218242   4.221  18.270   8.850
 5621POPC   C1A18243   4.352  18.286   8.550
 5621POPC   D2A18244   4.289  18.318   8.250
 5621POPC   C3A18245   4.285  18.274   7.950
 5621POPC   C4A18246   4.310  18.316   7.650
 5621POPC   C1B18247   4.031  18.332   8.550
 5621POPC   C2B18248   4.087  18.299   8.250
 5621POPC   C3B18249   4.083  18.295   7.950
 5621POPC   C4B18250   4.075  18.320   7.650
 5622POPC   NC318251  41.585   4.358   9.450
 5622POPC   PO418252  41.583   4.329   9.150
 5622POPC   GL118253  41.574   4.321   8.850
 5622POPC   GL218254  41.430   4.270   8.850
 5622POPC   C1A18255  41.604   4.290   8.550
 5622POPC   D2A18256  41.591   4.353   8.250
 5622POPC   C3A18257  41.521   4.366   7.950
 5622POPC   C4A18258  41.576   4.318   7.650
 5622POPC   C1B18259  41.395   4.134   8.550
 5622POPC   C2B18260  41.415   4.138   8.250
 5622POPC   C3B18261  41.408   4.178   7.950
 5622POPC   C4B18262  41.350   4.150   7.650
 5623POPC   NC318263   8.191  38.431   9.450
 5623POPC   PO418264   8.234  38.472   9.150
 5623POPC   GL118265   8.228  38.498   8.850
 5623POPC   GL218266   8.163  38.574   8.850
 5623POPC   C1A18267   8.167  38.418   8.550
 5623POPC   D2A18268   8.235  38.432   8.250
 5623POPC   C3A18269   8.157  38.473   7.950
 5623POPC   C4A18270   8.177  38.498   7.650
 5623POPC   C1B18271   8.051  38.644   8.550
 5623POPC   C2B18272   8.082  38.707   8.250
 5623POPC   C3B18273   8.095  38.652   7.950
 5623POPC   C4B18274   8.042  38.635   7.650
 5624POPC   NC318275  21.364  11.330   9.450
 5624POPC   PO418276  21.342  11.284   9.150
 5624POPC   GL118277  21.392  11.287   8.850
 5624POPC   GL218278  21.362  11.467   8.850
 5624POPC   C1A18279  21.381  11.280   8.550
 5624POPC   D2A18280  21.359  11.260   8.250
 5624POPC   C3A18281  21.383  11.316   7.950
 5624POPC   C4A18282  21.338  11.347   7.650
 5624POPC   C1B18283  21.274  11.587   8.550
 5624POPC   C2B18284  21.282  11.576   8.250
 5624POPC   C3B18285  21.292  11.528   7.950
 5624POPC   C4B18286  21.334  11.549   7.650
 5625POPC   NC318287  22.960  39.983   9.450
 5625POPC   PO418288  22.982  40.015   9.150
 5625POPC   GL118289  22.902  39.980   8.850
 5625POPC   GL218290  22.874  39.876   8.850
 5625POPC   C1A18291  22.977  40.009   8.550
 5625POPC   D2A18292  22.954  39.983   8.250
 5625POPC   C3A18293  22.979  40.027   7.950
 5625POPC   C4A18294  22.895  40.035   7.650
 5625POPC   C1B18295  22.883  39.779   8.550
 5625POPC   C2B18296  22.935  39.765   8.250
 5625POPC   C3B18297  22.867  39.748   7.950
 5625POPC   C4B18298  22.911  39.771   7.650
 5626POPC   NC318299   9.705  31.465   9.450
 5626POPC   PO418300   9.775  31.432   9.150
 5626POPC   GL118301   9.776  31.435   8.850
 5626POPC   GL218302   9.582  31.450   8.850
 5626POPC   C1A18303   9.711  31.488   8.550
 5626POPC   D2A18304   9.711  31.493   8.250
 5626POPC   C3A18305   9.752  31.522   7.950
 5626POPC   C4A18306   9.741  31.439   7.650
 5626POPC   C1B18307   9.466  31.533   8.550
 5626POPC   C2B18308   9.483  31.489   8.250
 5626POPC   C3B18309   9.494  31.495   7.950
 5626POPC   C4B18310   9.468  31.492   7.650
 5627POPC   NC318311  39.961  10.562   9.450
 5627POPC   PO418312  39.970  10.522   9.150
 5627POPC   GL118313  40.029  10.557   8.850
 5627POPC   GL218314  40.076  10.650   8.850
 5627POPC   C1A18315  40.033  10.561   8.550
 5627POPC   D2A18316  40.005  10.550   8.250
 5627POPC   C3A18317  39.978  10.513   7.950
 5627POPC   C4A18318  39.975  10.539   7.650
 5627POPC   C1B18319  40.219  10.675   8.550
 5627POPC   C2B18320  40.141  10.724   8.250
 5627POPC   C3B18321  40.197  10.719   7.950
 5627POPC   C4B18322  40.205  10.708   7.650
 5628POPC   NC318323  24.461   4.351   9.450
 5628POPC   PO418324  24.505   4.286   9.150
 5628POPC   GL118325  24.516   4.307   8.850
 5628POPC   GL218326  24.389   4.162   8.850
 5628POPC   C1A18327  24.479   4.311   8.550
 5628POPC   D2A18328  24.467   4.367   8.250
 5628POPC   C3A18329  24.500   4.282   7.950
 5628POPC   C4A18330  24.481   4.298   7.650
 5628POPC   C1B18331  24.357   4.105   8.550
 5628POPC   C2B18332  24.365   4.058   8.250
 5628POPC   C3B18333  24.428   4.041   7.950
 5628POPC   C4B18334  24.381   4.114   7.650
 5629POPC   NC318335  32.229  36.881   9.450
 5629POPC   PO418336  32.293  36.857   9.150
 5629POPC   GL118337  32.254  36.865   8.850
 5629POPC   GL218338  32.177  36.984   8.850
 5629POPC   C1A18339  32.289  36.895   8.550
 5629POPC   D2A18340  32.276  36.921   8.250
 5629POPC   C3A18341  32.233  36.872   7.950
 5629POPC   C4A18342  32.252  36.906   7.650
 5629POPC   C1B18343  32.188  37.119   8.550
 5629POPC   C2B18344  32.168  37.149   8.250
 5629POPC   C3B18345  32.172  37.190   7.950
 5629POPC   C4B18346  32.151  37.182   7.650
 5630POPC   NC318347  30.669  10.571   9.450
 5630POPC   PO418348  30.679  10.521   9.150
 5630POPC   GL118349  30.715  10.492   8.850
 5630POPC   GL218350  30.604  10.663   8.850
 5630POPC   C1A18351  30.742  10.501   8.550
 5630POPC   D2A18352  30.709  10.502   8.250
 5630POPC   C3A18353  30.650  10.518   7.950
 5630POPC   C4A18354  30.736  10.564   7.650
 5630POPC   C1B18355  30.532  10.674   8.550
 5630POPC   C2B18356  30.521  10.689   8.250
 5630POPC   C3B18357  30.509  10.750   7.950
 5630POPC   C4B18358  30.511  10.773   7.650
 5631POPC   NC318359   5.135  15.217   9.450
 5631POPC   PO418360   5.090  15.143   9.150
 5631POPC   GL118361   5.051  15.213   8.850
 5631POPC   GL218362   4.933  15.218   8.850
 5631POPC   C1A18363   5.047  15.154   8.550
 5631POPC   D2A18364   5.098  15.219   8.250
 5631POPC   C3A18365   5.117  15.181   7.950
 5631POPC   C4A18366   5.119  15.135   7.650
 5631POPC   C1B18367   4.802  15.258   8.550
 5631POPC   C2B18368   4.889  15.169   8.250
 5631POPC   C3B18369   4.846  15.259   7.950
 5631POPC   C4B18370   4.860  15.206   7.650
 5632POPC   NC318371   7.426  26.796   9.450
 5632POPC   PO418372   7.446  26.808   9.150
 5632POPC   GL118373   7.372  26.780   8.850
 5632POPC   GL218374   7.531  26.762   8.850
 5632POPC   C1A18375   7.420  26.866   8.550
 5632POPC   D2A18376   7.448  26.853   8.250
 5632POPC   C3A18377   7.469  26.820   7.950
 5632POPC   C4A18378   7.433  26.786   7.650
 5632POPC   C1B18379   7.592  26.620   8.550
 5632POPC   C2B18380   7.532  26.629   8.250
 5632POPC   C3B18381   7.542  26.570   7.950
 5632POPC   C4B18382   7.603  26.562   7.650
 5633POPC   NC318383   8.975  32.288   9.450
 5633POPC   PO418384   8.976  32.212   9.150
 5633POPC   GL118385   8.969  32.274   8.850
 5633POPC   GL218386   8.879  32.171   8.850
 5633POPC   C1A18387   8.955  32.278   8.550
 5633POPC   D2A18388   8.996  32.241   8.250
 5633POPC   C3A18389   8.937  32.278   7.950
 5633POPC   C4A18390   8.999  32.203   7.650
 5633POPC   C1B18391   8.757  32.084   8.550
 5633POPC   C2B18392   8.827  32.048   8.250
 5633POPC   C3B18393   8.771  32.077   7.950
 5633POPC   C4B18394   8.804  32.119   7.650
 5634POPC   NC318395  31.468  39.261   9.450
 5634POPC   PO418396  31.465  39.257   9.150
 5634POPC   GL118397  31.432  39.222   8.850
 5634POPC   GL218398  31.515  39.310   8.850
 5634POPC   C1A18399  31.489  39.207   8.550
 5634POPC   D2A18400  31.488  39.182   8.250
 5634POPC   C3A18401  31.447  39.233   7.950
 5634POPC   C4A18402  31.456  39.254   7.650
 5634POPC   C1B18403  31.528  39.504   8.550
 5634POPC   C2B18404  31.524  39.495   8.250
 5634POPC   C3B18405  31.557  39.516   7.950
 5634POPC   C4B18406  31.565  39.506   7.650
 5635POPC   NC318407   9.713   5.870   9.450
 5635POPC   PO418408   9.727   5.865   9.150
 5635POPC   GL118409   9.780   5.877   8.850
 5635POPC   GL218410   9.672   6.005   8.850
 5635POPC   C1A18411   9.733   5.860   8.550
 5635POPC   D2A18412   9.775   5.919   8.250
 5635POPC   C3A18413   9.723   5.900   7.950
 5635POPC   C4A18414   9.708   5.889   7.650
 5635POPC   C1B18415   9.601   6.075   8.550
 5635POPC   C2B18416   9.523   5.997   8.250
 5635POPC   C3B18417   9.582   6.051   7.950
 5635POPC   C4B18418   9.540   6.004   7.650
 5636POPC   NC318419  27.594  31.492   9.450
 5636POPC   PO418420  27.575  31.484   9.150
 5636POPC   GL118421  27.629  31.448   8.850
 5636POPC   GL218422  27.625  31.625   8.850
 5636POPC   C1A18423  27.629  31.442   8.550
 5636POPC   D2A18424  27.640  31.455   8.250
 5636POPC   C3A18425  27.598  31.511   7.950
 5636POPC   C4A18426  27.557  31.498   7.650
 5636POPC   C1B18427  27.531  31.693   8.550
 5636POPC   C2B18428  27.574  31.727   8.250
 5636POPC   C3B18429  27.611  31.748   7.950
 5636POPC   C4B18430  27.584  31.691   7.650
 5637POPC   NC318431   5.069   5.823   9.450
 5637POPC   PO418432   5.049   5.915   9.150
 5637POPC   GL118433   5.053   5.870   8.850
 5637POPC   GL218434   5.236   5.878   8.850
 5637POPC   C1A18435   5.051   5.876   8.550
 5637POPC   D2A18436   5.082   5.873   8.250
 5637POPC   C3A18437   5.117   5.838   7.950
 5637POPC   C4A18438   5.097   5.834   7.650
 5637POPC   C1B18439   5.285   6.018   8.550
 5637POPC   C2B18440   5.324   5.984   8.250
 5637POPC   C3B18441   5.340   5.929   7.950
 5637POPC   C4B18442   5.319   5.955   7.650
 5638POPC   NC318443   2.776  32.247   9.450
 5638POPC   PO418444   2.812  32.285   9.150
 5638POPC   GL118445   2.761  32.233   8.850
 5638POPC   GL218446   2.840  32.295   8.850
 5638POPC   C1A18447   2.805  32.274   8.550
 5638POPC   D2A18448   2.726  32.202   8.250
 5638POPC   C3A18449   2.779  32.203   7.950
 5638POPC   C4A18450   2.769  32.272   7.650
 5638POPC   C1B18451   3.040  32.347   8.550
 5638POPC   C2B18452   2.970  32.366   8.250
 5638POPC   C3B18453   2.994  32.292   7.950
 5638POPC   C4B18454   3.030  32.339   7.650
 5639POPC   NC318455  38.463  39.217   9.450
 5639POPC   PO418456  38.433  39.220   9.150
 5639POPC   GL118457  38.449  39.206   8.850
 5639POPC   GL218458  38.431  39.088   8.850
 5639POPC   C1A18459  38.499  39.193   8.550
 5639POPC   D2A18460  38.504  39.251   8.250
 5639POPC   C3A18461  38.454  39.260   7.950
 5639POPC   C4A18462  38.501  39.223   7.650
 5639POPC   C1B18463  38.522  38.940   8.550
 5639POPC   C2B18464  38.469  38.988   8.250
 5639POPC   C3B18465  38.491  38.939   7.950
 5639POPC   C4B18466  38.457  38.939   7.650
 5640POPC   NC318467  22.196  36.883   9.450
 5640POPC   PO418468  22.208  36.941   9.150
 5640POPC   GL118469  22.122  36.859   8.850
 5640POPC   GL218470  22.311  36.851   8.850
 5640POPC   C1A18471  22.131  36.897   8.550
 5640POPC   D2A18472  22.154  36.860   8.250
 5640POPC   C3A18473  22.209  36.951   7.950
 5640POPC   C4A18474  22.205  36.923   7.650
 5640POPC   C1B18475  22.352  36.788   8.550
 5640POPC   C2B18476  22.365  36.790   8.250
 5640POPC   C3B18477  22.442  36.791   7.950
 5640POPC   C4B18478  22.408  36.803   7.650
 5641POPC   NC318479  26.044  43.856   9.450
 5641POPC   PO418480  26.081  43.856   9.150
 5641POPC   GL118481  26.025  43.899   8.850
 5641POPC   GL218482  26.110  43.799   8.850
 5641POPC   C1A18483  26.087  43.864   8.550
 5641POPC   D2A18484  26.038  43.854   8.250
 5641POPC   C3A18485  26.033  43.857   7.950
 5641POPC   C4A18486  25.992  43.853   7.650
 5641POPC   C1B18487  26.214  43.679   8.550
 5641POPC   C2B18488  26.197  43.688   8.250
 5641POPC   C3B18489  26.200  43.684   7.950
 5641POPC   C4B18490  26.235  43.737   7.650
 5642POPC   NC318491  10.523   0.476   9.450
 5642POPC   PO418492  10.556   0.396   9.150
 5642POPC   GL118493  10.552   0.396   8.850
 5642POPC   GL218494  10.630   0.568   8.850
 5642POPC   C1A18495  10.566   0.409   8.550
 5642POPC   D2A18496  10.515   0.464   8.250
 5642POPC   C3A18497  10.508   0.392   7.950
 5642POPC   C4A18498  10.561   0.418   7.650
 5642POPC   C1B18499  10.735   0.596   8.550
 5642POPC   C2B18500  10.675   0.575   8.250
 5642POPC   C3B18501  10.730   0.594   7.950
 5642POPC   C4B18502  10.681   0.581   7.650
 5643POPC   NC318503  42.363  29.163   9.450
 5643POPC   PO418504  42.328  29.132   9.150
 5643POPC   GL118505  42.352  29.131   8.850
 5643POPC   GL218506  42.463  29.168   8.850
 5643POPC   C1A18507  42.324  29.158   8.550
 5643POPC   D2A18508  42.378  29.106   8.250
 5643POPC   C3A18509  42.318  29.179   7.950
 5643POPC   C4A18510  42.317  29.159   7.650
 5643POPC   C1B18511  42.574  29.310   8.550
 5643POPC   C2B18512  42.537  29.255   8.250
 5643POPC   C3B18513  42.501  29.275   7.950
 5643POPC   C4B18514  42.519  29.235   7.650
 5644POPC   NC318515   8.931  37.680   9.450
 5644POPC   PO418516   8.974  37.711   9.150
 5644POPC   GL118517   8.975  37.637   8.850
 5644POPC   GL218518   9.008  37.809   8.850
 5644POPC   C1A18519   8.962  37.724   8.550
 5644POPC   D2A18520   8.994  37.648   8.250
 5644POPC   C3A18521   8.963  37.683   7.950
 5644POPC   C4A18522   8.998  37.644   7.650
 5644POPC   C1B18523   9.138  37.821   8.550
 5644POPC   C2B18524   9.150  37.879   8.250
 5644POPC   C3B18525   9.112  37.867   7.950
 5644POPC   C4B18526   9.135  37.899   7.650
 5645POPC   NC318527  40.048  44.654   9.450
 5645POPC   PO418528  40.027  44.628   9.150
 5645POPC   GL118529  39.974  44.666   8.850
 5645POPC   GL218530  39.914  44.715   8.850
 5645POPC   C1A18531  39.987  44.655   8.550
 5645POPC   D2A18532  40.002  44.708   8.250
 5645POPC   C3A18533  39.964  44.628   7.950
 5645POPC   C4A18534  40.029  44.660   7.650
 5645POPC   C1B18535  39.791  44.709   8.550
 5645POPC   C2B18536  39.722  44.695   8.250
 5645POPC   C3B18537  39.796  44.724   7.950
 5645POPC   C4B18538  39.768  44.703   7.650
 5646POPC   NC318539   7.382  36.111   9.450
 5646POPC   PO418540   7.454  36.084   9.150
 5646POPC   GL118541   7.444  36.169   8.850
 5646POPC   GL218542   7.520  36.200   8.850
 5646POPC   C1A18543   7.463  36.111   8.550
 5646POPC   D2A18544   7.378  36.085   8.250
 5646POPC   C3A18545   7.434  36.112   7.950
 5646POPC   C4A18546   7.446  36.159   7.650
 5646POPC   C1B18547   7.668  36.239   8.550
 5646POPC   C2B18548   7.640  36.211   8.250
 5646POPC   C3B18549   7.694  36.179   7.950
 5646POPC   C4B18550   7.685  36.235   7.650
 5647POPC   NC318551  24.475  32.227   9.450
 5647POPC   PO418552  24.521  32.266   9.150
 5647POPC   GL118553  24.484  32.273   8.850
 5647POPC   GL218554  24.558  32.103   8.850
 5647POPC   C1A18555  24.495  32.262   8.550
 5647POPC   D2A18556  24.478  32.287   8.250
 5647POPC   C3A18557  24.453  32.283   7.950
 5647POPC   C4A18558  24.506  32.244   7.650
 5647POPC   C1B18559  24.678  32.039   8.550
 5647POPC   C2B18560  24.618  32.022   8.250
 5647POPC   C3B18561  24.590  32.025   7.950
 5647POPC   C4B18562  24.643  32.033   7.650
 5648POPC   NC318563  10.555  43.068   9.450
 5648POPC   PO418564  10.538  43.062   9.150
 5648POPC   GL118565  10.566  43.079   8.850
 5648POPC   GL218566  10.519  43.236   8.850
 5648POPC   C1A18567  10.496  43.119   8.550
 5648POPC   D2A18568  10.564  43.119   8.250
 5648POPC   C3A18569  10.562  43.081   7.950
 5648POPC   C4A18570  10.484  43.119   7.650
 5648POPC   C1B18571  10.504  43.394   8.550
 5648POPC   C2B18572  10.498  43.359   8.250
 5648POPC   C3B18573  10.509  43.307   7.950
 5648POPC   C4B18574  10.498  43.306   7.650
 5649POPC   NC318575  10.480  36.129   9.450
 5649POPC   PO418576  10.529  36.158   9.150
 5649POPC   GL118577  10.552  36.107   8.850
 5649POPC   GL218578  10.539  36.037   8.850
 5649POPC   C1A18579  10.537  36.161   8.550
 5649POPC   D2A18580  10.496  36.170   8.250
 5649POPC   C3A18581  10.484  36.090   7.950
 5649POPC   C4A18582  10.573  36.119   7.650
 5649POPC   C1B18583  10.631  35.893   8.550
 5649POPC   C2B18584  10.640  35.892   8.250
 5649POPC   C3B18585  10.615  35.867   7.950
 5649POPC   C4B18586  10.611  35.921   7.650
 5650POPC   NC318587  22.117  15.993   9.450
 5650POPC   PO418588  22.212  16.000   9.150
 5650POPC   GL118589  22.186  15.929   8.850
 5650POPC   GL218590  22.093  16.052   8.850
 5650POPC   C1A18591  22.144  15.968   8.550
 5650POPC   D2A18592  22.128  16.002   8.250
 5650POPC   C3A18593  22.191  15.932   7.950
 5650POPC   C4A18594  22.116  15.936   7.650
 5650POPC   C1B18595  22.024  16.161   8.550
 5650POPC   C2B18596  21.993  16.180   8.250
 5650POPC   C3B18597  21.992  16.221   7.950
 5650POPC   C4B18598  22.048  16.190   7.650
 5651POPC   NC318599  36.953  21.401   9.450
 5651POPC   PO418600  36.902  21.397   9.150
 5651POPC   GL118601  36.882  21.353   8.850
 5651POPC   GL218602  36.842  21.297   8.850
 5651POPC   C1A18603  36.943  21.373   8.550
 5651POPC   D2A18604  36.907  21.356   8.250
 5651POPC   C3A18605  36.909  21.417   7.950
 5651POPC   C4A18606  36.877  21.402   7.650
 5651POPC   C1B18607  36.658  21.220   8.550
 5651POPC   C2B18608  36.748  21.246   8.250
 5651POPC   C3B18609  36.660  21.214   7.950
 5651POPC   C4B18610  36.669  21.276   7.650
 5652POPC   NC318611   8.954  12.081   9.450
 5652POPC   PO418612   8.995  12.096   9.150
 5652POPC   GL118613   8.975  12.080   8.850
 5652POPC   GL218614   8.937  12.234   8.850
 5652POPC   C1A18615   8.967  12.075   8.550
 5652POPC   D2A18616   8.987  12.108   8.250
 5652POPC   C3A18617   8.931  12.126   7.950
 5652POPC   C4A18618   9.012  12.064   7.650
 5652POPC   C1B18619   8.975  12.288   8.550
 5652POPC   C2B18620   8.977  12.360   8.250
 5652POPC   C3B18621   9.013  12.282   7.950
 5652POPC   C4B18622   8.964  12.321   7.650
 5653POPC   NC318623  26.790   1.945   9.450
 5653POPC   PO418624  26.841   1.975   9.150
 5653POPC   GL118625  26.780   1.955   8.850
 5653POPC   GL218626  26.761   1.860   8.850
 5653POPC   C1A18627  26.798   2.038   8.550
 5653POPC   D2A18628  26.841   1.941   8.250
 5653POPC   C3A18629  26.772   1.987   7.950
 5653POPC   C4A18630  26.795   2.002   7.650
 5653POPC   C1B18631  26.719   1.818   8.550
 5653POPC   C2B18632  26.675   1.759   8.250
 5653POPC   C3B18633  26.682   1.777   7.950
 5653POPC   C4B18634  26.678   1.740   7.650
 5654POPC   NC318635  19.818  18.268   9.450
 5654POPC   PO418636  19.840  18.298   9.150
 5654POPC   GL118637  19.865  18.258   8.850
 5654POPC   GL218638  19.883  18.365   8.850
 5654POPC   C1A18639  19.880  18.296   8.550
 5654POPC   D2A18640  19.868  18.249   8.250
 5654POPC   C3A18641  19.867  18.318   7.950
 5654POPC   C4A18642  19.798  18.291   7.650
 5654POPC   C1B18643  19.928  18.490   8.550
 5654POPC   C2B18644  19.948  18.459   8.250
 5654POPC   C3B18645  19.940  18.493   7.950
 5654POPC   C4B18646  19.900  18.509   7.650
 5655POPC   NC318647  12.125   6.684   9.450
 5655POPC   PO418648  12.073   6.632   9.150
 5655POPC   GL118649  12.043   6.679   8.850
 5655POPC   GL218650  12.250   6.647   8.850
 5655POPC   C1A18651  12.067   6.649   8.550
 5655POPC   D2A18652  12.058   6.630   8.250
 5655POPC   C3A18653  12.075   6.661   7.950
 5655POPC   C4A18654  12.124   6.661   7.650
 5655POPC   C1B18655  12.343   6.678   8.550
 5655POPC   C2B18656  12.282   6.666   8.250
 5655POPC   C3B18657  12.290   6.621   7.950
 5655POPC   C4B18658  12.361   6.615   7.650
 5656POPC   NC318659  26.049  41.520   9.450
 5656POPC   PO418660  25.996  41.518   9.150
 5656POPC   GL118661  26.002  41.592   8.850
 5656POPC   GL218662  26.169  41.624   8.850
 5656POPC   C1A18663  26.041  41.602   8.550
 5656POPC   D2A18664  26.006  41.512   8.250
 5656POPC   C3A18665  26.021  41.570   7.950
 5656POPC   C4A18666  26.085  41.591   7.650
 5656POPC   C1B18667  26.300  41.655   8.550
 5656POPC   C2B18668  26.303  41.686   8.250
 5656POPC   C3B18669  26.247  41.669   7.950
 5656POPC   C4B18670  26.276  41.630   7.650
 5657POPC   NC318671   4.348  37.666   9.450
 5657POPC   PO418672   4.307  37.671   9.150
 5657POPC   GL118673   4.356  37.669   8.850
 5657POPC   GL218674   4.203  37.635   8.850
 5657POPC   C1A18675   4.289  37.708   8.550
 5657POPC   D2A18676   4.344  37.644   8.250
 5657POPC   C3A18677   4.275  37.722   7.950
 5657POPC   C4A18678   4.288  37.702   7.650
 5657POPC   C1B18679   4.039  37.541   8.550
 5657POPC   C2B18680   4.119  37.622   8.250
 5657POPC   C3B18681   4.128  37.562   7.950
 5657POPC   C4B18682   4.096  37.609   7.650
 5658POPC   NC318683   3.557   3.585   9.450
 5658POPC   PO418684   3.497   3.575   9.150
 5658POPC   GL118685   3.525   3.582   8.850
 5658POPC   GL218686   3.443   3.469   8.850
 5658POPC   C1A18687   3.570   3.545   8.550
 5658POPC   D2A18688   3.513   3.558   8.250
 5658POPC   C3A18689   3.509   3.546   7.950
 5658POPC   C4A18690   3.565   3.554   7.650
 5658POPC   C1B18691   3.385   3.341   8.550
 5658POPC   C2B18692   3.411   3.289   8.250
 5658POPC   C3B18693   3.411   3.299   7.950
 5658POPC   C4B18694   3.380   3.377   7.650
 5659POPC   NC318695  28.343  26.803   9.450
 5659POPC   PO418696  28.359  26.812   9.150
 5659POPC   GL118697  28.339  26.846   8.850
 5659POPC   GL218698  28.528  26.881   8.850
 5659POPC   C1A18699  28.372  26.786   8.550
 5659POPC   D2A18700  28.364  26.835   8.250
 5659POPC   C3A18701  28.378  26.773   7.950
 5659POPC   C4A18702  28.393  26.843   7.650
 5659POPC   C1B18703  28.555  26.936   8.550
 5659POPC   C2B18704  28.604  26.891   8.250
 5659POPC   C3B18705  28.600  26.934   7.950
 5659POPC   C4B18706  28.558  26.950   7.650
 5660POPC   NC318707  26.082  26.815   9.450
 5660POPC   PO418708  26.043  26.847   9.150
 5660POPC   GL118709  26.015  26.779   8.850
 5660POPC   GL218710  25.959  26.676   8.850
 5660POPC   C1A18711  26.030  26.829   8.550
 5660POPC   D2A18712  26.067  26.827   8.250
 5660POPC   C3A18713  25.998  26.840   7.950
 5660POPC   C4A18714  26.050  26.767   7.650
 5660POPC   C1B18715  25.969  26.626   8.550
 5660POPC   C2B18716  25.880  26.592   8.250
 5660POPC   C3B18717  25.945  26.558   7.950
 5660POPC   C4B18718  25.913  26.627   7.650
 5661POPC   NC318719  10.554  39.228   9.450
 5661POPC   PO418720  10.520  39.227   9.150
 5661POPC   GL118721  10.516  39.190   8.850
 5661POPC   GL218722  10.571  39.361   8.850
 5661POPC   C1A18723  10.511  39.279   8.550
 5661POPC   D2A18724  10.483  39.197   8.250
 5661POPC   C3A18725  10.509  39.203   7.950
 5661POPC   C4A18726  10.556  39.269   7.650
 5661POPC   C1B18727  10.504  39.496   8.550
 5661POPC   C2B18728  10.551  39.454   8.250
 5661POPC   C3B18729  10.519  39.496   7.950
 5661POPC   C4B18730  10.578  39.526   7.650
 5662POPC   NC318731  30.672  22.190   9.450
 5662POPC   PO418732  30.674  22.175   9.150
 5662POPC   GL118733  30.670  22.183   8.850
 5662POPC   GL218734  30.566  22.188   8.850
 5662POPC   C1A18735  30.733  22.137   8.550
 5662POPC   D2A18736  30.723  22.176   8.250
 5662POPC   C3A18737  30.687  22.189   7.950
 5662POPC   C4A18738  30.714  22.162   7.650
 5662POPC   C1B18739  30.434  22.091   8.550
 5662POPC   C2B18740  30.445  22.107   8.250
 5662POPC   C3B18741  30.428  22.131   7.950
 5662POPC   C4B18742  30.398  22.127   7.650
 5663POPC   NC318743   2.755  33.069   9.450
 5663POPC   PO418744   2.784  33.018   9.150
 5663POPC   GL118745   2.747  32.991   8.850
 5663POPC   GL218746   2.843  33.095   8.850
 5663POPC   C1A18747   2.770  32.995   8.550
 5663POPC   D2A18748   2.763  33.004   8.250
 5663POPC   C3A18749   2.761  33.003   7.950
 5663POPC   C4A18750   2.737  33.010   7.650
 5663POPC   C1B18751   2.822  33.281   8.550
 5663POPC   C2B18752   2.857  33.252   8.250
 5663POPC   C3B18753   2.863  33.230   7.950
 5663POPC   C4B18754   2.841  33.308   7.650
 5664POPC   NC318755  24.440  13.579   9.450
 5664POPC   PO418756  24.450  13.649   9.150
 5664POPC   GL118757  24.478  13.657   8.850
 5664POPC   GL218758  24.578  13.720   8.850
 5664POPC   C1A18759  24.492  13.666   8.550
 5664POPC   D2A18760  24.477  13.640   8.250
 5664POPC   C3A18761  24.468  13.579   7.950
 5664POPC   C4A18762  24.532  13.635   7.650
 5664POPC   C1B18763  24.546  13.815   8.550
 5664POPC   C2B18764  24.571  13.823   8.250
 5664POPC   C3B18765  24.606  13.882   7.950
 5664POPC   C4B18766  24.540  13.825   7.650
 5665POPC   NC318767  19.804  43.887   9.450
 5665POPC   PO418768  19.796  43.878   9.150
 5665POPC   GL118769  19.819  43.846   8.850
 5665POPC   GL218770  19.754  43.755   8.850
 5665POPC   C1A18771  19.879  43.922   8.550
 5665POPC   D2A18772  19.801  43.861   8.250
 5665POPC   C3A18773  19.881  43.917   7.950
 5665POPC   C4A18774  19.841  43.887   7.650
 5665POPC   C1B18775  19.656  43.695   8.550
 5665POPC   C2B18776  19.623  43.736   8.250
 5665POPC   C3B18777  19.686  43.676   7.950
 5665POPC   C4B18778  19.697  43.736   7.650
 5666POPC   NC318779   4.281  34.541   9.450
 5666POPC   PO418780   4.348  34.581   9.150
 5666POPC   GL118781   4.311  34.557   8.850
 5666POPC   GL218782   4.464  34.660   8.850
 5666POPC   C1A18783   4.313  34.597   8.550
 5666POPC   D2A18784   4.298  34.576   8.250
 5666POPC   C3A18785   4.292  34.616   7.950
 5666POPC   C4A18786   4.331  34.585   7.650
 5666POPC   C1B18787   4.569  34.740   8.550
 5666POPC   C2B18788   4.531  34.664   8.250
 5666POPC   C3B18789   4.578  34.659   7.950
 5666POPC   C4B18790   4.562  34.734   7.650
 5667POPC   NC318791   5.138  35.366   9.450
 5667POPC   PO418792   5.129  35.318   9.150
 5667POPC   GL118793   5.095  35.348   8.850
 5667POPC   GL218794   5.241  35.369   8.850
 5667POPC   C1A18795   5.129  35.326   8.550
 5667POPC   D2A18796   5.103  35.393   8.250
 5667POPC   C3A18797   5.135  35.351   7.950
 5667POPC   C4A18798   5.089  35.372   7.650
 5667POPC   C1B18799   5.369  35.456   8.550
 5667POPC   C2B18800   5.315  35.469   8.250
 5667POPC   C3B18801   5.339  35.382   7.950
 5667POPC   C4B18802   5.303  35.465   7.650
 5668POPC   NC318803  37.726  12.834   9.450
 5668POPC   PO418804  37.630  12.852   9.150
 5668POPC   GL118805  37.725  12.832   8.850
 5668POPC   GL218806  37.686  12.738   8.850
 5668POPC   C1A18807  37.679  12.882   8.550
 5668POPC   D2A18808  37.695  12.835   8.250
 5668POPC   C3A18809  37.637  12.890   7.950
 5668POPC   C4A18810  37.692  12.891   7.650
 5668POPC   C1B18811  37.755  12.624   8.550
 5668POPC   C2B18812  37.753  12.557   8.250
 5668POPC   C3B18813  37.751  12.584   7.950
 5668POPC   C4B18814  37.691  12.628   7.650
 5669POPC   NC318815   1.201  19.074   9.450
 5669POPC   PO418816   1.177  19.062   9.150
 5669POPC   GL118817   1.242  19.052   8.850
 5669POPC   GL218818   1.078  19.071   8.850
 5669POPC   C1A18819   1.192  19.075   8.550
 5669POPC   D2A18820   1.165  19.035   8.250
 5669POPC   C3A18821   1.202  19.092   7.950
 5669POPC   C4A18822   1.242  19.064   7.650
 5669POPC   C1B18823   0.973  19.045   8.550
 5669POPC   C2B18824   0.984  19.008   8.250
 5669POPC   C3B18825   0.987  19.075   7.950
 5669POPC   C4B18826   0.944  19.029   7.650
 5670POPC   NC318827  37.662  35.385   9.450
 5670POPC   PO418828  37.668  35.344   9.150
 5670POPC   GL118829  37.657  35.331   8.850
 5670POPC   GL218830  37.609  35.275   8.850
 5670POPC   C1A18831  37.721  35.308   8.550
 5670POPC   D2A18832  37.694  35.341   8.250
 5670POPC   C3A18833  37.721  35.355   7.950
 5670POPC   C4A18834  37.638  35.321   7.650
 5670POPC   C1B18835  37.465  35.257   8.550
 5670POPC   C2B18836  37.461  35.239   8.250
 5670POPC   C3B18837  37.518  35.176   7.950
 5670POPC   C4B18838  37.462  35.169   7.650
 5671POPC   NC318839  13.616   2.024   9.450
 5671POPC   PO418840  13.653   1.969   9.150
 5671POPC   GL118841  13.622   2.013   8.850
 5671POPC   GL218842  13.514   2.082   8.850
 5671POPC   C1A18843  13.592   1.976   8.550
 5671POPC   D2A18844  13.585   1.990   8.250
 5671POPC   C3A18845  13.605   2.033   7.950
 5671POPC   C4A18846  13.621   2.034   7.650
 5671POPC   C1B18847  13.381   2.065   8.550
 5671POPC   C2B18848  13.415   2.074   8.250
 5671POPC   C3B18849  13.437   2.089   7.950
 5671POPC   C4B18850  13.416   2.051   7.650
 5672POPC   NC318851  29.872  33.822   9.450
 5672POPC   PO418852  29.873  33.762   9.150
 5672POPC   GL118853  29.969  33.775   8.850
 5672POPC   GL218854  29.978  33.718   8.850
 5672POPC   C1A18855  29.967  33.795   8.550
 5672POPC   D2A18856  29.934  33.755   8.250
 5672POPC   C3A18857  29.947  33.771   7.950
 5672POPC   C4A18858  29.881  33.842   7.650
 5672POPC   C1B18859  30.001  33.602   8.550
 5672POPC   C2B18860  30.016  33.542   8.250
 5672POPC   C3B18861  30.005  33.592   7.950
 5672POPC   C4B18862  29.949  33.560   7.650
 5673POPC   NC318863  16.744  38.426   9.450
 5673POPC   PO418864  16.729  38.460   9.150
 5673POPC   GL118865  16.715  38.440   8.850
 5673POPC   GL218866  16.723  38.546   8.850
 5673POPC   C1A18867  16.756  38.414   8.550
 5673POPC   D2A18868  16.776  38.504   8.250
 5673POPC   C3A18869  16.711  38.424   7.950
 5673POPC   C4A18870  16.712  38.496   7.650
 5673POPC   C1B18871  16.696  38.707   8.550
 5673POPC   C2B18872  16.762  38.707   8.250
 5673POPC   C3B18873  16.776  38.682   7.950
 5673POPC   C4B18874  16.724  38.657   7.650
 5674POPC   NC318875  11.281  39.224   9.450
 5674POPC   PO418876  11.335  39.206   9.150
 5674POPC   GL118877  11.341  39.198   8.850
 5674POPC   GL218878  11.344  39.148   8.850
 5674POPC   C1A18879  11.283  39.257   8.550
 5674POPC   D2A18880  11.287  39.248   8.250
 5674POPC   C3A18881  11.255  39.238   7.950
 5674POPC   C4A18882  11.341  39.210   7.650
 5674POPC   C1B18883  11.472  39.047   8.550
 5674POPC   C2B18884  11.447  39.050   8.250
 5674POPC   C3B18885  11.411  38.985   7.950
 5674POPC   C4B18886  11.466  39.015   7.650
 5675POPC   NC318887  28.340  36.115   9.450
 5675POPC   PO418888  28.402  36.133   9.150
 5675POPC   GL118889  28.380  36.143   8.850
 5675POPC   GL218890  28.195  36.105   8.850
 5675POPC   C1A18891  28.392  36.078   8.550
 5675POPC   D2A18892  28.332  36.131   8.250
 5675POPC   C3A18893  28.355  36.129   7.950
 5675POPC   C4A18894  28.331  36.137   7.650
 5675POPC   C1B18895  28.108  36.088   8.550
 5675POPC   C2B18896  28.112  36.113   8.250
 5675POPC   C3B18897  28.080  36.160   7.950
 5675POPC   C4B18898  28.110  36.090   7.650
 5676POPC   NC318899  35.320  19.090   9.450
 5676POPC   PO418900  35.385  19.045   9.150
 5676POPC   GL118901  35.334  19.039   8.850
 5676POPC   GL218902  35.417  19.160   8.850
 5676POPC   C1A18903  35.346  19.097   8.550
 5676POPC   D2A18904  35.362  19.074   8.250
 5676POPC   C3A18905  35.357  19.063   7.950
 5676POPC   C4A18906  35.304  19.062   7.650
 5676POPC   C1B18907  35.535  19.189   8.550
 5676POPC   C2B18908  35.531  19.180   8.250
 5676POPC   C3B18909  35.573  19.182   7.950
 5676POPC   C4B18910  35.556  19.203   7.650
 5677POPC   NC318911  25.277  11.285   9.450
 5677POPC   PO418912  25.246  11.271   9.150
 5677POPC   GL118913  25.293  11.349   8.850
 5677POPC   GL218914  25.289  11.377   8.850
 5677POPC   C1A18915  25.282  11.315   8.550
 5677POPC   D2A18916  25.242  11.344   8.250
 5677POPC   C3A18917  25.287  11.343   7.950
 5677POPC   C4A18918  25.245  11.269   7.650
 5677POPC   C1B18919  25.273  11.558   8.550
 5677POPC   C2B18920  25.325  11.572   8.250
 5677POPC   C3B18921  25.256  11.576   7.950
 5677POPC   C4B18922  25.341  11.535   7.650
 5678POPC   NC318923   9.014  11.287   9.450
 5678POPC   PO418924   8.932  11.305   9.150
 5678POPC   GL118925   8.991  11.280   8.850
 5678POPC   GL218926   8.980  11.395   8.850
 5678POPC   C1A18927   9.003  11.280   8.550
 5678POPC   D2A18928   9.007  11.346   8.250
 5678POPC   C3A18929   8.998  11.349   7.950
 5678POPC   C4A18930   9.019  11.349   7.650
 5678POPC   C1B18931   9.019  11.547   8.550
 5678POPC   C2B18932   9.077  11.566   8.250
 5678POPC   C3B18933   8.985  11.570   7.950
 5678POPC   C4B18934   9.037  11.564   7.650
 5679POPC   NC318935  17.521  33.042   9.450
 5679POPC   PO418936  17.480  33.010   9.150
 5679POPC   GL118937  17.482  33.049   8.850
 5679POPC   GL218938  17.498  33.186   8.850
 5679POPC   C1A18939  17.503  33.062   8.550
 5679POPC   D2A18940  17.483  32.999   8.250
 5679POPC   C3A18941  17.486  33.020   7.950
 5679POPC   C4A18942  17.520  33.014   7.650
 5679POPC   C1B18943  17.414  33.254   8.550
 5679POPC   C2B18944  17.434  33.233   8.250
 5679POPC   C3B18945  17.441  33.225   7.950
 5679POPC   C4B18946  17.454  33.290   7.650
 5680POPC   NC318947  38.466  44.618   9.450
 5680POPC   PO418948  38.412  44.704   9.150
 5680POPC   GL118949  38.434  44.675   8.850
 5680POPC   GL218950  38.606  44.688   8.850
 5680POPC   C1A18951  38.439  44.627   8.550
 5680POPC   D2A18952  38.419  44.688   8.250
 5680POPC   C3A18953  38.433  44.660   7.950
 5680POPC   C4A18954  38.424  44.679   7.650
 5680POPC   C1B18955  38.638  44.783   8.550
 5680POPC   C2B18956  38.683  44.804   8.250
 5680POPC   C3B18957  38.628  44.743   7.950
 5680POPC   C4B18958  38.717  44.804   7.650
 5681POPC   NC318959  18.281  40.734   9.450
 5681POPC   PO418960  18.243  40.763   9.150
 5681POPC   GL118961  18.266  40.824   8.850
 5681POPC   GL218962  18.208  40.855   8.850
 5681POPC   C1A18963  18.310  40.760   8.550
 5681POPC   D2A18964  18.290  40.743   8.250
 5681POPC   C3A18965  18.242  40.807   7.950
 5681POPC   C4A18966  18.294  40.791   7.650
 5681POPC   C1B18967  18.184  40.938   8.550
 5681POPC   C2B18968  18.128  41.023   8.250
 5681POPC   C3B18969  18.117  40.951   7.950
 5681POPC   C4B18970  18.184  40.978   7.650
 5682POPC   NC318971   8.231  30.721   9.450
 5682POPC   PO418972   8.227  30.685   9.150
 5682POPC   GL118973   8.198  30.658   8.850
 5682POPC   GL218974   8.131  30.613   8.850
 5682POPC   C1A18975   8.233  30.690   8.550
 5682POPC   D2A18976   8.235  30.740   8.250
 5682POPC   C3A18977   8.189  30.702   7.950
 5682POPC   C4A18978   8.176  30.741   7.650
 5682POPC   C1B18979   8.161  30.486   8.550
 5682POPC   C2B18980   8.094  30.478   8.250
 5682POPC   C3B18981   8.171  30.442   7.950
 5682POPC   C4B18982   8.143  30.478   7.650
 5683POPC   NC318983  40.782  39.964   9.450
 5683POPC   PO418984  40.752  39.975   9.150
 5683POPC   GL118985  40.816  39.988   8.850
 5683POPC   GL218986  40.717  40.107   8.850
 5683POPC   C1A18987  40.793  40.011   8.550
 5683POPC   D2A18988  40.764  39.993   8.250
 5683POPC   C3A18989  40.792  40.016   7.950
 5683POPC   C4A18990  40.802  40.038   7.650
 5683POPC   C1B18991  40.590  40.169   8.550
 5683POPC   C2B18992  40.597  40.136   8.250
 5683POPC   C3B18993  40.575  40.194   7.950
 5683POPC   C4B18994  40.595  40.173   7.650
 5684POPC   NC318995  19.812  29.892   9.450
 5684POPC   PO418996  19.848  29.892   9.150
 5684POPC   GL118997  19.791  29.909   8.850
 5684POPC   GL218998  19.943  29.886   8.850
 5684POPC   C1A18999  19.795  29.942   8.550
 5684POPC   D2A19000  19.796  29.933   8.250
 5684POPC   C3A19001  19.881  29.905   7.950
 5684POPC   C4A19002  19.853  29.935   7.650
 5684POPC   C1B19003  20.087  29.808   8.550
 5684POPC   C2B19004  20.075  29.846   8.250
 5684POPC   C3B19005  20.078  29.857   7.950
 5684POPC   C4B19006  20.090  29.894   7.650
 5685POPC   NC319007  16.003  10.554   9.450
 5685POPC   PO419008  15.987  10.490   9.150
 5685POPC   GL119009  15.951  10.554   8.850
 5685POPC   GL219010  16.033  10.419   8.850
 5685POPC   C1A19011  15.972  10.502   8.550
 5685POPC   D2A19012  15.913  10.560   8.250
 5685POPC   C3A19013  15.947  10.571   7.950
 5685POPC   C4A19014  15.991  10.493   7.650
 5685POPC   C1B19015  16.178  10.434   8.550
 5685POPC   C2B19016  16.114  10.340   8.250
 5685POPC   C3B19017  16.163  10.344   7.950
 5685POPC   C4B19018  16.146  10.348   7.650
 5686POPC   NC319019  43.923  30.674   9.450
 5686POPC   PO419020  43.912  30.681   9.150
 5686POPC   GL119021  43.879  30.727   8.850
 5686POPC   GL219022  43.739  30.594   8.850
 5686POPC   C1A19023  43.860  30.741   8.550
 5686POPC   D2A19024  43.896  30.677   8.250
 5686POPC   C3A19025  43.873  30.648   7.950
 5686POPC   C4A19026  43.845  30.733   7.650
 5686POPC   C1B19027  43.708  30.518   8.550
 5686POPC   C2B19028  43.712  30.587   8.250
 5686POPC   C3B19029  43.657  30.591   7.950
 5686POPC   C4B19030  43.661  30.602   7.650
 5687POPC   NC319031  15.131   3.537   9.450
 5687POPC   PO419032  15.173   3.501   9.150
 5687POPC   GL119033  15.193   3.502   8.850
 5687POPC   GL219034  15.133   3.666   8.850
 5687POPC   C1A19035  15.154   3.578   8.550
 5687POPC   D2A19036  15.223   3.532   8.250
 5687POPC   C3A19037  15.201   3.574   7.950
 5687POPC   C4A19038  15.170   3.496   7.650
 5687POPC   C1B19039  15.043   3.692   8.550
 5687POPC   C2B19040  15.032   3.734   8.250
 5687POPC   C3B19041  15.039   3.693   7.950
 5687POPC   C4B19042  14.995   3.740   7.650
 5688POPC   NC319043  40.000  27.618   9.450
 5688POPC   PO419044  40.045  27.580   9.150
 5688POPC   GL119045  40.017  27.610   8.850
 5688POPC   GL219046  39.930  27.724   8.850
 5688POPC   C1A19047  40.038  27.545   8.550
 5688POPC   D2A19048  40.034  27.552   8.250
 5688POPC   C3A19049  39.977  27.635   7.950
 5688POPC   C4A19050  40.008  27.632   7.650
 5688POPC   C1B19051  39.897  27.742   8.550
 5688POPC   C2B19052  39.853  27.797   8.250
 5688POPC   C3B19053  39.854  27.775   7.950
 5688POPC   C4B19054  39.858  27.751   7.650
 5689POPC   NC319055  35.341  38.463   9.450
 5689POPC   PO419056  35.316  38.411   9.150
 5689POPC   GL119057  35.334  38.493   8.850
 5689POPC   GL219058  35.384  38.326   8.850
 5689POPC   C1A19059  35.337  38.503   8.550
 5689POPC   D2A19060  35.330  38.479   8.250
 5689POPC   C3A19061  35.307  38.480   7.950
 5689POPC   C4A19062  35.361  38.441   7.650
 5689POPC   C1B19063  35.390  38.168   8.550
 5689POPC   C2B19064  35.389  38.234   8.250
 5689POPC   C3B19065  35.376  38.189   7.950
 5689POPC   C4B19066  35.330  38.236   7.650
 5690POPC   NC319067  19.015   7.408   9.450
 5690POPC   PO419068  19.052   7.385   9.150
 5690POPC   GL119069  19.104   7.465   8.850
 5690POPC   GL219070  18.946   7.478   8.850
 5690POPC   C1A19071  19.107   7.420   8.550
 5690POPC   D2A19072  19.072   7.373   8.250
 5690POPC   C3A19073  19.084   7.431   7.950
 5690POPC   C4A19074  19.039   7.394   7.650
 5690POPC   C1B19075  18.884   7.531   8.550
 5690POPC   C2B19076  18.856   7.561   8.250
 5690POPC   C3B19077  18.823   7.610   7.950
 5690POPC   C4B19078  18.841   7.531   7.650
 5691POPC   NC319079  30.673  25.301   9.450
 5691POPC   PO419080  30.723  25.280   9.150
 5691POPC   GL119081  30.655  25.290   8.850
 5691POPC   GL219082  30.816  25.299   8.850
 5691POPC   C1A19083  30.722  25.296   8.550
 5691POPC   D2A19084  30.654  25.309   8.250
 5691POPC   C3A19085  30.685  25.241   7.950
 5691POPC   C4A19086  30.694  25.286   7.650
 5691POPC   C1B19087  30.897  25.303   8.550
 5691POPC   C2B19088  30.967  25.293   8.250
 5691POPC   C3B19089  30.901  25.356   7.950
 5691POPC   C4B19090  30.959  25.354   7.650
 5692POPC   NC319091  43.853  37.653   9.450
 5692POPC   PO419092  43.926  37.709   9.150
 5692POPC   GL119093  43.914  37.703   8.850
 5692POPC   GL219094  43.870  37.833   8.850
 5692POPC   C1A19095  43.886  37.712   8.550
 5692POPC   D2A19096  43.904  37.643   8.250
 5692POPC   C3A19097  43.867  37.682   7.950
 5692POPC   C4A19098  43.910  37.719   7.650
 5692POPC   C1B19099  43.732  37.915   8.550
 5692POPC   C2B19100  43.803  37.888   8.250
 5692POPC   C3B19101  43.789  37.884   7.950
 5692POPC   C4B19102  43.753  37.888   7.650
 5693POPC   NC319103   2.763  35.376   9.450
 5693POPC   PO419104   2.716  35.348   9.150
 5693POPC   GL119105   2.745  35.337   8.850
 5693POPC   GL219106   2.697  35.247   8.850
 5693POPC   C1A19107   2.786  35.309   8.550
 5693POPC   D2A19108   2.786  35.401   8.250
 5693POPC   C3A19109   2.787  35.373   7.950
 5693POPC   C4A19110   2.773  35.345   7.650
 5693POPC   C1B19111   2.524  35.261   8.550
 5693POPC   C2B19112   2.581  35.267   8.250
 5693POPC   C3B19113   2.522  35.264   7.950
 5693POPC   C4B19114   2.596  35.256   7.650
 5694POPC   NC319115  39.256  24.458   9.450
 5694POPC   PO419116  39.209  24.531   9.150
 5694POPC   GL119117  39.209  24.529   8.850
 5694POPC   GL219118  39.283  24.406   8.850
 5694POPC   C1A19119  39.247  24.490   8.550
 5694POPC   D2A19120  39.196  24.521   8.250
 5694POPC   C3A19121  39.260  24.474   7.950
 5694POPC   C4A19122  39.185  24.449   7.650
 5694POPC   C1B19123  39.321  24.200   8.550
 5694POPC   C2B19124  39.271  24.206   8.250
 5694POPC   C3B19125  39.255  24.220   7.950
 5694POPC   C4B19126  39.263  24.278   7.650
 5695POPC   NC319127  25.299  32.236   9.450
 5695POPC   PO419128  25.264  32.275   9.150
 5695POPC   GL119129  25.237  32.243   8.850
 5695POPC   GL219130  25.302  32.365   8.850
 5695POPC   C1A19131  25.254  32.282   8.550
 5695POPC   D2A19132  25.285  32.243   8.250
 5695POPC   C3A19133  25.257  32.210   7.950
 5695POPC   C4A19134  25.290  32.288   7.650
 5695POPC   C1B19135  25.377  32.417   8.550
 5695POPC   C2B19136  25.468  32.405   8.250
 5695POPC   C3B19137  25.440  32.484   7.950
 5695POPC   C4B19138  25.425  32.479   7.650
 5696POPC   NC319139  34.558  41.540   9.450
 5696POPC   PO419140  34.607  41.517   9.150
 5696POPC   GL119141  34.562  41.533   8.850
 5696POPC   GL219142  34.635  41.639   8.850
 5696POPC   C1A19143  34.539  41.530   8.550
 5696POPC   D2A19144  34.579  41.555   8.250
 5696POPC   C3A19145  34.577  41.526   7.950
 5696POPC   C4A19146  34.532  41.573   7.650
 5696POPC   C1B19147  34.665  41.799   8.550
 5696POPC   C2B19148  34.706  41.814   8.250
 5696POPC   C3B19149  34.712  41.784   7.950
 5696POPC   C4B19150  34.729  41.805   7.650
 5697POPC   NC319151   7.408  29.188   9.450
 5697POPC   PO419152   7.397  29.184   9.150
 5697POPC   GL119153   7.413  29.191   8.850
 5697POPC   GL219154   7.476  29.032   8.850
 5697POPC   C1A19155   7.399  29.120   8.550
 5697POPC   D2A19156   7.380  29.130   8.250
 5697POPC   C3A19157   7.453  29.190   7.950
 5697POPC   C4A19158   7.397  29.098   7.650
 5697POPC   C1B19159   7.545  28.965   8.550
 5697POPC   C2B19160   7.478  28.928   8.250
 5697POPC   C3B19161   7.555  28.872   7.950
 5697POPC   C4B19162   7.507  28.963   7.650
 5698POPC   NC319163  16.720  19.054   9.450
 5698POPC   PO419164  16.776  19.033   9.150
 5698POPC   GL119165  16.725  19.099   8.850
 5698POPC   GL219166  16.692  18.889   8.850
 5698POPC   C1A19167  16.766  19.044   8.550
 5698POPC   D2A19168  16.767  19.064   8.250
 5698POPC   C3A19169  16.709  19.097   7.950
 5698POPC   C4A19170  16.763  19.061   7.650
 5698POPC   C1B19171  16.721  18.804   8.550
 5698POPC   C2B19172  16.768  18.833   8.250
 5698POPC   C3B19173  16.756  18.852   7.950
 5698POPC   C4B19174  16.768  18.839   7.650
 5699POPC   NC319175  22.180  37.659   9.450
 5699POPC   PO419176  22.158  37.670   9.150
 5699POPC   GL119177  22.117  37.633   8.850
 5699POPC   GL219178  22.322  37.771   8.850
 5699POPC   C1A19179  22.116  37.689   8.550
 5699POPC   D2A19180  22.137  37.720   8.250
 5699POPC   C3A19181  22.207  37.677   7.950
 5699POPC   C4A19182  22.126  37.661   7.650
 5699POPC   C1B19183  22.384  37.786   8.550
 5699POPC   C2B19184  22.383  37.818   8.250
 5699POPC   C3B19185  22.366  37.753   7.950
 5699POPC   C4B19186  22.378  37.782   7.650
 5700POPC   NC319187  38.406  40.758   9.450
 5700POPC   PO419188  38.462  40.756   9.150
 5700POPC   GL119189  38.472  40.754   8.850
 5700POPC   GL219190  38.485  40.644   8.850
 5700POPC   C1A19191  38.439  40.771   8.550
 5700POPC   D2A19192  38.418  40.770   8.250
 5700POPC   C3A19193  38.480  40.747   7.950
 5700POPC   C4A19194  38.492  40.736   7.650
 5700POPC   C1B19195  38.424  40.528   8.550
 5700POPC   C2B19196  38.495  40.505   8.250
 5700POPC   C3B19197  38.436  40.540   7.950
 5700POPC   C4B19198  38.444  40.514   7.650
 5701POPC   NC319199  44.667  12.046   9.450
 5701POPC   PO419200  44.703  12.092   9.150
 5701POPC   GL119201  44.643  12.098   8.850
 5701POPC   GL219202  44.710  12.159   8.850
 5701POPC   C1A19203  44.691  12.101   8.550
 5701POPC   D2A19204  44.672  12.053   8.250
 5701POPC   C3A19205  44.663  12.046   7.950
 5701POPC   C4A19206  44.633  12.098   7.650
 5701POPC   C1B19207  44.722  12.299   8.550
 5701POPC   C2B19208  44.771  12.345   8.250
 5701POPC   C3B19209  44.707  12.268   7.950
 5701POPC   C4B19210  44.751  12.277   7.650
 5702POPC   NC319211  33.066  11.259   9.450
 5702POPC   PO419212  33.067  11.294   9.150
 5702POPC   GL119213  32.994  11.274   8.850
 5702POPC   GL219214  33.122  11.452   8.850
 5702POPC   C1A19215  33.043  11.347   8.550
 5702POPC   D2A19216  32.995  11.335   8.250
 5702POPC   C3A19217  33.040  11.290   7.950
 5702POPC   C4A19218  33.052  11.273   7.650
 5702POPC   C1B19219  33.176  11.491   8.550
 5702POPC   C2B19220  33.161  11.558   8.250
 5702POPC   C3B19221  33.115  11.478   7.950
 5702POPC   C4B19222  33.138  11.545   7.650
 5703POPC   NC319223  38.446  32.240   9.450
 5703POPC   PO419224  38.424  32.286   9.150
 5703POPC   GL119225  38.497  32.206   8.850
 5703POPC   GL219226  38.591  32.174   8.850
 5703POPC   C1A19227  38.501  32.199   8.550
 5703POPC   D2A19228  38.463  32.294   8.250
 5703POPC   C3A19229  38.444  32.225   7.950
 5703POPC   C4A19230  38.464  32.211   7.650
 5703POPC   C1B19231  38.748  32.191   8.550
 5703POPC   C2B19232  38.728  32.153   8.250
 5703POPC   C3B19233  38.738  32.212   7.950
 5703POPC   C4B19234  38.671  32.183   7.650
 5704POPC   NC319235  23.760  19.881   9.450
 5704POPC   PO419236  23.711  19.817   9.150
 5704POPC   GL119237  23.749  19.824   8.850
 5704POPC   GL219238  23.549  19.838   8.850
 5704POPC   C1A19239  23.744  19.839   8.550
 5704POPC   D2A19240  23.728  19.796   8.250
 5704POPC   C3A19241  23.689  19.788   7.950
 5704POPC   C4A19242  23.710  19.787   7.650
 5704POPC   C1B19243  23.482  19.700   8.550
 5704POPC   C2B19244  23.448  19.725   8.250
 5704POPC   C3B19245  23.481  19.751   7.950
 5704POPC   C4B19246  23.442  19.793   7.650
 5705POPC   NC319247  12.867  35.396   9.450
 5705POPC   PO419248  12.818  35.395   9.150
 5705POPC   GL119249  12.836  35.353   8.850
 5705POPC   GL219250  13.015  35.369   8.850
 5705POPC   C1A19251  12.857  35.380   8.550
 5705POPC   D2A19252  12.881  35.343   8.250
 5705POPC   C3A19253  12.877  35.357   7.950
 5705POPC   C4A19254  12.819  35.379   7.650
 5705POPC   C1B19255  13.063  35.270   8.550
 5705POPC   C2B19256  13.140  35.303   8.250
 5705POPC   C3B19257  13.135  35.295   7.950
 5705POPC   C4B19258  13.071  35.334   7.650
 5706POPC   NC319259  14.444  28.351   9.450
 5706POPC   PO419260  14.354  28.343   9.150
 5706POPC   GL119261  14.371  28.372   8.850
 5706POPC   GL219262  14.423  28.223   8.850
 5706POPC   C1A19263  14.426  28.357   8.550
 5706POPC   D2A19264  14.364  28.354   8.250
 5706POPC   C3A19265  14.405  28.406   7.950
 5706POPC   C4A19266  14.425  28.347   7.650
 5706POPC   C1B19267  14.371  28.126   8.550
 5706POPC   C2B19268  14.405  28.130   8.250
 5706POPC   C3B19269  14.337  28.154   7.950
 5706POPC   C4B19270  14.406  28.124   7.650
 5707POPC   NC319271  38.492   8.166   9.450
 5707POPC   PO419272  38.463   8.246   9.150
 5707POPC   GL119273  38.464   8.163   8.850
 5707POPC   GL219274  38.299   8.190   8.850
 5707POPC   C1A19275  38.455   8.178   8.550
 5707POPC   D2A19276  38.435   8.197   8.250
 5707POPC   C3A19277  38.421   8.215   7.950
 5707POPC   C4A19278  38.436   8.148   7.650
 5707POPC   C1B19279  38.167   8.215   8.550
 5707POPC   C2B19280  38.240   8.151   8.250
 5707POPC   C3B19281  38.220   8.189   7.950
 5707POPC   C4B19282  38.180   8.183   7.650
 5708POPC   NC319283  34.537   8.191   9.450
 5708POPC   PO419284  34.551   8.220   9.150
 5708POPC   GL119285  34.541   8.149   8.850
 5708POPC   GL219286  34.465   8.170   8.850
 5708POPC   C1A19287  34.568   8.163   8.550
 5708POPC   D2A19288  34.555   8.170   8.250
 5708POPC   C3A19289  34.549   8.203   7.950
 5708POPC   C4A19290  34.546   8.229   7.650
 5708POPC   C1B19291  34.402   8.071   8.550
 5708POPC   C2B19292  34.413   8.070   8.250
 5708POPC   C3B19293  34.359   8.055   7.950
 5708POPC   C4B19294  34.344   8.030   7.650
 5709POPC   NC319295  27.563   5.043   9.450
 5709POPC   PO419296  27.563   5.135   9.150
 5709POPC   GL119297  27.633   5.107   8.850
 5709POPC   GL219298  27.563   5.248   8.850
 5709POPC   C1A19299  27.573   5.135   8.550
 5709POPC   D2A19300  27.550   5.095   8.250
 5709POPC   C3A19301  27.614   5.136   7.950
 5709POPC   C4A19302  27.550   5.137   7.650
 5709POPC   C1B19303  27.512   5.345   8.550
 5709POPC   C2B19304  27.527   5.378   8.250
 5709POPC   C3B19305  27.501   5.288   7.950
 5709POPC   C4B19306  27.580   5.329   7.650
 5710POPC   NC319307  42.361  31.460   9.450
 5710POPC   PO419308  42.357  31.436   9.150
 5710POPC   GL119309  42.310  31.488   8.850
 5710POPC   GL219310  42.445  31.601   8.850
 5710POPC   C1A19311  42.355  31.490   8.550
 5710POPC   D2A19312  42.378  31.437   8.250
 5710POPC   C3A19313  42.288  31.457   7.950
 5710POPC   C4A19314  42.342  31.507   7.650
 5710POPC   C1B19315  42.514  31.656   8.550
 5710POPC   C2B19316  42.511  31.597   8.250
 5710POPC   C3B19317  42.477  31.640   7.950
 5710POPC   C4B19318  42.488  31.607   7.650
 5711POPC   NC319319  40.815  12.119   9.450
 5711POPC   PO419320  40.815  12.039   9.150
 5711POPC   GL119321  40.784  12.030   8.850
 5711POPC   GL219322  40.675  12.193   8.850
 5711POPC   C1A19323  40.777  12.105   8.550
 5711POPC   D2A19324  40.819  12.123   8.250
 5711POPC   C3A19325  40.829  12.125   7.950
 5711POPC   C4A19326  40.786  12.029   7.650
 5711POPC   C1B19327  40.651  12.241   8.550
 5711POPC   C2B19328  40.634  12.326   8.250
 5711POPC   C3B19329  40.655  12.332   7.950
 5711POPC   C4B19330  40.649  12.294   7.650
 5712POPC   NC319331  29.956  25.250   9.450
 5712POPC   PO419332  29.918  25.223   9.150
 5712POPC   GL119333  29.886  25.301   8.850
 5712POPC   GL219334  29.978  25.376   8.850
 5712POPC   C1A19335  29.967  25.263   8.550
 5712POPC   D2A19336  29.881  25.258   8.250
 5712POPC   C3A19337  29.875  25.232   7.950
 5712POPC   C4A19338  29.953  25.264   7.650
 5712POPC   C1B19339  29.982  25.462   8.550
 5712POPC   C2B19340  30.029  25.488   8.250
 5712POPC   C3B19341  30.053  25.489   7.950
 5712POPC   C4B19342  30.064  25.457   7.650
 5713POPC   NC319343  35.315  14.362   9.450
 5713POPC   PO419344  35.350  14.365   9.150
 5713POPC   GL119345  35.336  14.429   8.850
 5713POPC   GL219346  35.273  14.490   8.850
 5713POPC   C1A19347  35.379  14.369   8.550
 5713POPC   D2A19348  35.354  14.411   8.250
 5713POPC   C3A19349  35.328  14.443   7.950
 5713POPC   C4A19350  35.367  14.453   7.650
 5713POPC   C1B19351  35.152  14.502   8.550
 5713POPC   C2B19352  35.134  14.546   8.250
 5713POPC   C3B19353  35.178  14.518   7.950
 5713POPC   C4B19354  35.162  14.479   7.650
 5714POPC   NC319355  20.630  27.585   9.450
 5714POPC   PO419356  20.599  27.613   9.150
 5714POPC   GL119357  20.659  27.616   8.850
 5714POPC   GL219358  20.735  27.652   8.850
 5714POPC   C1A19359  20.633  27.623   8.550
 5714POPC   D2A19360  20.657  27.611   8.250
 5714POPC   C3A19361  20.625  27.597   7.950
 5714POPC   C4A19362  20.606  27.582   7.650
 5714POPC   C1B19363  20.820  27.778   8.550
 5714POPC   C2B19364  20.845  27.698   8.250
 5714POPC   C3B19365  20.856  27.697   7.950
 5714POPC   C4B19366  20.845  27.760   7.650
 5715POPC   NC319367  41.566  10.512   9.450
 5715POPC   PO419368  41.533  10.564   9.150
 5715POPC   GL119369  41.582  10.564   8.850
 5715POPC   GL219370  41.579  10.460   8.850
 5715POPC   C1A19371  41.592  10.524   8.550
 5715POPC   D2A19372  41.576  10.515   8.250
 5715POPC   C3A19373  41.536  10.514   7.950
 5715POPC   C4A19374  41.597  10.506   7.650
 5715POPC   C1B19375  41.672  10.364   8.550
 5715POPC   C2B19376  41.688  10.269   8.250
 5715POPC   C3B19377  41.731  10.350   7.950
 5715POPC   C4B19378  41.700  10.274   7.650
 5716POPC   NC319379   0.445  43.070   9.450
 5716POPC   PO419380   0.427  43.095   9.150
 5716POPC   GL119381   0.421  43.106   8.850
 5716POPC   GL219382   0.294  43.074   8.850
 5716POPC   C1A19383   0.437  43.088   8.550
 5716POPC   D2A19384   0.436  43.130   8.250
 5716POPC   C3A19385   0.410  43.141   7.950
 5716POPC   C4A19386   0.442  43.112   7.650
 5716POPC   C1B19387   0.184  42.985   8.550
 5716POPC   C2B19388   0.191  42.921   8.250
 5716POPC   C3B19389   0.265  43.016   7.950
 5716POPC   C4B19390   0.256  42.964   7.650
 5717POPC   NC319391  36.923  29.872   9.450
 5717POPC   PO419392  36.930  29.909   9.150
 5717POPC   GL119393  36.935  29.881   8.850
 5717POPC   GL219394  36.785  29.879   8.850
 5717POPC   C1A19395  36.897  29.929   8.550
 5717POPC   D2A19396  36.873  29.897   8.250
 5717POPC   C3A19397  36.928  29.960   7.950
 5717POPC   C4A19398  36.858  29.924   7.650
 5717POPC   C1B19399  36.689  29.816   8.550
 5717POPC   C2B19400  36.656  29.875   8.250
 5717POPC   C3B19401  36.693  29.880   7.950
 5717POPC   C4B19402  36.614  29.889   7.650
 5718POPC   NC319403   5.095  33.070   9.450
 5718POPC   PO419404   5.130  33.067   9.150
 5718POPC   GL119405   5.137  33.031   8.850
 5718POPC   GL219406   5.004  33.041   8.850
 5718POPC   C1A19407   5.095  33.055   8.550
 5718POPC   D2A19408   5.076  33.011   8.250
 5718POPC   C3A19409   5.097  33.024   7.950
 5718POPC   C4A19410   5.054  33.064   7.650
 5718POPC   C1B19411   4.889  33.046   8.550
 5718POPC   C2B19412   4.811  33.122   8.250
 5718POPC   C3B19413   4.869  33.128   7.950
 5718POPC   C4B19414   4.853  33.064   7.650
 5719POPC   NC319415  13.665  10.502   9.450
 5719POPC   PO419416  13.589  10.500   9.150
 5719POPC   GL119417  13.595  10.546   8.850
 5719POPC   GL219418  13.741  10.446   8.850
 5719POPC   C1A19419  13.600  10.550   8.550
 5719POPC   D2A19420  13.676  10.509   8.250
 5719POPC   C3A19421  13.603  10.476   7.950
 5719POPC   C4A19422  13.641  10.529   7.650
 5719POPC   C1B19423  13.860  10.339   8.550
 5719POPC   C2B19424  13.795  10.353   8.250
 5719POPC   C3B19425  13.859  10.334   7.950
 5719POPC   C4B19426  13.858  10.361   7.650
 5720POPC   NC319427  22.958  39.259   9.450
 5720POPC   PO419428  22.904  39.222   9.150
 5720POPC   GL119429  22.898  39.252   8.850
 5720POPC   GL219430  22.846  39.165   8.850
 5720POPC   C1A19431  22.926  39.222   8.550
 5720POPC   D2A19432  22.905  39.201   8.250
 5720POPC   C3A19433  22.961  39.210   7.950
 5720POPC   C4A19434  22.889  39.263   7.650
 5720POPC   C1B19435  22.687  39.078   8.550
 5720POPC   C2B19436  22.702  39.114   8.250
 5720POPC   C3B19437  22.774  39.054   7.950
 5720POPC   C4B19438  22.774  39.101   7.650
 5721POPC   NC319439   2.812  33.838   9.450
 5721POPC   PO419440   2.769  33.794   9.150
 5721POPC   GL119441   2.739  33.779   8.850
 5721POPC   GL219442   2.876  33.883   8.850
 5721POPC   C1A19443   2.730  33.828   8.550
 5721POPC   D2A19444   2.763  33.800   8.250
 5721POPC   C3A19445   2.809  33.754   7.950
 5721POPC   C4A19446   2.729  33.762   7.650
 5721POPC   C1B19447   2.918  33.990   8.550
 5721POPC   C2B19448   2.965  34.004   8.250
 5721POPC   C3B19449   2.973  33.943   7.950
 5721POPC   C4B19450   2.904  34.006   7.650
 5722POPC   NC319451  36.864  39.187   9.450
 5722POPC   PO419452  36.888  39.277   9.150
 5722POPC   GL119453  36.893  39.188   8.850
 5722POPC   GL219454  37.046  39.292   8.850
 5722POPC   C1A19455  36.920  39.245   8.550
 5722POPC   D2A19456  36.948  39.194   8.250
 5722POPC   C3A19457  36.909  39.272   7.950
 5722POPC   C4A19458  36.927  39.205   7.650
 5722POPC   C1B19459  37.112  39.330   8.550
 5722POPC   C2B19460  37.098  39.379   8.250
 5722POPC   C3B19461  37.157  39.392   7.950
 5722POPC   C4B19462  37.062  39.334   7.650
 5723POPC   NC319463  32.246  19.797   9.450
 5723POPC   PO419464  32.248  19.854   9.150
 5723POPC   GL119465  32.264  19.826   8.850
 5723POPC   GL219466  32.212  19.683   8.850
 5723POPC   C1A19467  32.255  19.866   8.550
 5723POPC   D2A19468  32.282  19.866   8.250
 5723POPC   C3A19469  32.208  19.836   7.950
 5723POPC   C4A19470  32.263  19.878   7.650
 5723POPC   C1B19471  32.197  19.545   8.550
 5723POPC   C2B19472  32.239  19.552   8.250
 5723POPC   C3B19473  32.260  19.551   7.950
 5723POPC   C4B19474  32.181  19.562   7.650
 5724POPC   NC319475  20.647  19.867   9.450
 5724POPC   PO419476  20.583  19.868   9.150
 5724POPC   GL119477  20.563  19.817   8.850
 5724POPC   GL219478  20.709  19.936   8.850
 5724POPC   C1A19479  20.577  19.786   8.550
 5724POPC   D2A19480  20.622  19.853   8.250
 5724POPC   C3A19481  20.576  19.856   7.950
 5724POPC   C4A19482  20.621  19.880   7.650
 5724POPC   C1B19483  20.795  20.032   8.550
 5724POPC   C2B19484  20.785  20.008   8.250
 5724POPC   C3B19485  20.775  20.061   7.950
 5724POPC   C4B19486  20.756  19.988   7.650
 5725POPC   NC319487  14.370  22.899   9.450
 5725POPC   PO419488  14.443  22.955   9.150
 5725POPC   GL119489  14.406  22.919   8.850
 5725POPC   GL219490  14.304  22.842   8.850
 5725POPC   C1A19491  14.445  22.917   8.550
 5725POPC   D2A19492  14.396  22.970   8.250
 5725POPC   C3A19493  14.360  22.956   7.950
 5725POPC   C4A19494  14.418  22.913   7.650
 5725POPC   C1B19495  14.200  22.800   8.550
 5725POPC   C2B19496  14.190  22.812   8.250
 5725POPC   C3B19497  14.251  22.724   7.950
 5725POPC   C4B19498  14.221  22.809   7.650
 5726POPC   NC319499  43.129  41.514   9.450
 5726POPC   PO419500  43.131  41.534   9.150
 5726POPC   GL119501  43.113  41.551   8.850
 5726POPC   GL219502  43.063  41.465   8.850
 5726POPC   C1A19503  43.137  41.521   8.550
 5726POPC   D2A19504  43.067  41.605   8.250
 5726POPC   C3A19505  43.097  41.519   7.950
 5726POPC   C4A19506  43.104  41.509   7.650
 5726POPC   C1B19507  43.101  41.363   8.550
 5726POPC   C2B19508  43.106  41.318   8.250
 5726POPC   C3B19509  43.035  41.307   7.950
 5726POPC   C4B19510  43.062  41.286   7.650
 5727POPC   NC319511  22.149  12.869   9.450
 5727POPC   PO419512  22.142  12.846   9.150
 5727POPC   GL119513  22.153  12.824   8.850
 5727POPC   GL219514  22.182  13.000   8.850
 5727POPC   C1A19515  22.131  12.842   8.550
 5727POPC   D2A19516  22.164  12.836   8.250
 5727POPC   C3A19517  22.140  12.839   7.950
 5727POPC   C4A19518  22.140  12.826   7.650
 5727POPC   C1B19519  22.135  13.123   8.550
 5727POPC   C2B19520  22.118  13.110   8.250
 5727POPC   C3B19521  22.153  13.083   7.950
 5727POPC   C4B19522  22.178  13.146   7.650
 5728POPC   NC319523  22.127  40.794   9.450
 5728POPC   PO419524  22.168  40.820   9.150
 5728POPC   GL119525  22.192  40.831   8.850
 5728POPC   GL219526  22.072  40.821   8.850
 5728POPC   C1A19527  22.125  40.818   8.550
 5728POPC   D2A19528  22.166  40.739   8.250
 5728POPC   C3A19529  22.183  40.829   7.950
 5728POPC   C4A19530  22.204  40.829   7.650
 5728POPC   C1B19531  21.961  40.822   8.550
 5728POPC   C2B19532  21.902  40.794   8.250
 5728POPC   C3B19533  21.945  40.856   7.950
 5728POPC   C4B19534  21.957  40.798   7.650
 5729POPC   NC319535  37.646  16.771   9.450
 5729POPC   PO419536  37.699  16.686   9.150
 5729POPC   GL119537  37.710  16.731   8.850
 5729POPC   GL219538  37.653  16.809   8.850
 5729POPC   C1A19539  37.654  16.699   8.550
 5729POPC   D2A19540  37.719  16.779   8.250
 5729POPC   C3A19541  37.726  16.728   7.950
 5729POPC   C4A19542  37.724  16.707   7.650
 5729POPC   C1B19543  37.659  17.006   8.550
 5729POPC   C2B19544  37.601  17.002   8.250
 5729POPC   C3B19545  37.582  16.945   7.950
 5729POPC   C4B19546  37.648  16.975   7.650
 5730POPC   NC319547  12.039  41.596   9.450
 5730POPC   PO419548  12.038  41.568   9.150
 5730POPC   GL119549  12.057  41.541   8.850
 5730POPC   GL219550  12.006  41.510   8.850
 5730POPC   C1A19551  12.040  41.521   8.550
 5730POPC   D2A19552  12.027  41.560   8.250
 5730POPC   C3A19553  12.033  41.601   7.950
 5730POPC   C4A19554  12.051  41.517   7.650
 5730POPC   C1B19555  11.870  41.476   8.550
 5730POPC   C2B19556  11.874  41.507   8.250
 5730POPC   C3B19557  11.838  41.506   7.950
 5730POPC   C4B19558  11.878  41.433   7.650
 5731POPC   NC319559  27.577  42.326   9.450
 5731POPC   PO419560  27.624  42.384   9.150
 5731POPC   GL119561  27.591  42.305   8.850
 5731POPC   GL219562  27.470  42.244   8.850
 5731POPC   C1A19563  27.603  42.380   8.550
 5731POPC   D2A19564  27.570  42.363   8.250
 5731POPC   C3A19565  27.589  42.298   7.950
 5731POPC   C4A19566  27.569  42.382   7.650
 5731POPC   C1B19567  27.473  42.144   8.550
 5731POPC   C2B19568  27.435  42.180   8.250
 5731POPC   C3B19569  27.477  42.099   7.950
 5731POPC   C4B19570  27.422  42.165   7.650
 5732POPC   NC319571   1.972  28.365   9.450
 5732POPC   PO419572   1.965  28.414   9.150
 5732POPC   GL119573   2.012  28.381   8.850
 5732POPC   GL219574   2.113  28.279   8.850
 5732POPC   C1A19575   1.967  28.383   8.550
 5732POPC   D2A19576   1.969  28.385   8.250
 5732POPC   C3A19577   2.001  28.394   7.950
 5732POPC   C4A19578   1.976  28.320   7.650
 5732POPC   C1B19579   2.234  28.197   8.550
 5732POPC   C2B19580   2.149  28.235   8.250
 5732POPC   C3B19581   2.218  28.230   7.950
 5732POPC   C4B19582   2.155  28.169   7.650
 5733POPC   NC319583  11.345   5.141   9.450
 5733POPC   PO419584  11.269   5.060   9.150
 5733POPC   GL119585  11.261   5.139   8.850
 5733POPC   GL219586  11.209   5.014   8.850
 5733POPC   C1A19587  11.257   5.112   8.550
 5733POPC   D2A19588  11.252   5.132   8.250
 5733POPC   C3A19589  11.288   5.136   7.950
 5733POPC   C4A19590  11.290   5.073   7.650
 5733POPC   C1B19591  11.100   4.866   8.550
 5733POPC   C2B19592  11.136   4.860   8.250
 5733POPC   C3B19593  11.101   4.877   7.950
 5733POPC   C4B19594  11.102   4.892   7.650
 5734POPC   NC319595  22.897  25.245   9.450
 5734POPC   PO419596  22.980  25.270   9.150
 5734POPC   GL119597  22.929  25.312   8.850
 5734POPC   GL219598  22.993  25.340   8.850
 5734POPC   C1A19599  22.905  25.226   8.550
 5734POPC   D2A19600  22.981  25.239   8.250
 5734POPC   C3A19601  22.916  25.278   7.950
 5734POPC   C4A19602  22.898  25.266   7.650
 5734POPC   C1B19603  22.929  25.489   8.550
 5734POPC   C2B19604  22.952  25.524   8.250
 5734POPC   C3B19605  23.025  25.480   7.950
 5734POPC   C4B19606  22.990  25.464   7.650
 5735POPC   NC319607  33.006  24.504   9.450
 5735POPC   PO419608  33.039  24.456   9.150
 5735POPC   GL119609  33.020  24.452   8.850
 5735POPC   GL219610  33.158  24.490   8.850
 5735POPC   C1A19611  33.067  24.511   8.550
 5735POPC   D2A19612  33.004  24.518   8.250
 5735POPC   C3A19613  32.986  24.458   7.950
 5735POPC   C4A19614  33.065  24.518   7.650
 5735POPC   C1B19615  33.296  24.499   8.550
 5735POPC   C2B19616  33.264  24.549   8.250
 5735POPC   C3B19617  33.294  24.579   7.950
 5735POPC   C4B19618  33.257  24.552   7.650
 5736POPC   NC319619  39.990  36.087   9.450
 5736POPC   PO419620  39.994  36.082   9.150
 5736POPC   GL119621  40.020  36.126   8.850
 5736POPC   GL219622  39.910  36.144   8.850
 5736POPC   C1A19623  39.982  36.092   8.550
 5736POPC   D2A19624  39.967  36.124   8.250
 5736POPC   C3A19625  39.969  36.175   7.950
 5736POPC   C4A19626  39.981  36.114   7.650
 5736POPC   C1B19627  39.811  36.168   8.550
 5736POPC   C2B19628  39.814  36.169   8.250
 5736POPC   C3B19629  39.745  36.207   7.950
 5736POPC   C4B19630  39.805  36.215   7.650
 5737POPC   NC319631  29.189  33.766   9.450
 5737POPC   PO419632  29.109  33.789   9.150
 5737POPC   GL119633  29.097  33.802   8.850
 5737POPC   GL219634  29.096  33.742   8.850
 5737POPC   C1A19635  29.156  33.790   8.550
 5737POPC   D2A19636  29.176  33.784   8.250
 5737POPC   C3A19637  29.186  33.809   7.950
 5737POPC   C4A19638  29.133  33.757   7.650
 5737POPC   C1B19639  28.992  33.580   8.550
 5737POPC   C2B19640  29.027  33.626   8.250
 5737POPC   C3B19641  29.019  33.599   7.950
 5737POPC   C4B19642  28.986  33.584   7.650
 5738POPC   NC319643   3.509   8.233   9.450
 5738POPC   PO419644   3.496   8.215   9.150
 5738POPC   GL119645   3.572   8.195   8.850
 5738POPC   GL219646   3.492   8.063   8.850
 5738POPC   C1A19647   3.581   8.213   8.550
 5738POPC   D2A19648   3.542   8.174   8.250
 5738POPC   C3A19649   3.574   8.153   7.950
 5738POPC   C4A19650   3.504   8.225   7.650
 5738POPC   C1B19651   3.542   7.967   8.550
 5738POPC   C2B19652   3.490   7.959   8.250
 5738POPC   C3B19653   3.482   7.944   7.950
 5738POPC   C4B19654   3.549   7.921   7.650
 5739POPC   NC319655  38.448  42.376   9.450
 5739POPC   PO419656  38.414  42.380   9.150
 5739POPC   GL119657  38.494  42.356   8.850
 5739POPC   GL219658  38.567  42.272   8.850
 5739POPC   C1A19659  38.447  42.333   8.550
 5739POPC   D2A19660  38.471  42.326   8.250
 5739POPC   C3A19661  38.422  42.319   7.950
 5739POPC   C4A19662  38.460  42.348   7.650
 5739POPC   C1B19663  38.552  42.097   8.550
 5739POPC   C2B19664  38.593  42.130   8.250
 5739POPC   C3B19665  38.616  42.130   7.950
 5739POPC   C4B19666  38.628  42.134   7.650
 5740POPC   NC319667  15.147  17.458   9.450
 5740POPC   PO419668  15.216  17.494   9.150
 5740POPC   GL119669  15.145  17.548   8.850
 5740POPC   GL219670  15.138  17.342   8.850
 5740POPC   C1A19671  15.155  17.479   8.550
 5740POPC   D2A19672  15.148  17.477   8.250
 5740POPC   C3A19673  15.174  17.505   7.950
 5740POPC   C4A19674  15.188  17.466   7.650
 5740POPC   C1B19675  15.210  17.234   8.550
 5740POPC   C2B19676  15.209  17.225   8.250
 5740POPC   C3B19677  15.183  17.232   7.950
 5740POPC   C4B19678  15.133  17.254   7.650
 5741POPC   NC319679  31.486  24.486   9.450
 5741POPC   PO419680  31.520  24.500   9.150
 5741POPC   GL119681  31.513  24.485   8.850
 5741POPC   GL219682  31.568  24.518   8.850
 5741POPC   C1A19683  31.446  24.493   8.550
 5741POPC   D2A19684  31.490  24.454   8.250
 5741POPC   C3A19685  31.455  24.515   7.950
 5741POPC   C4A19686  31.475  24.483   7.650
 5741POPC   C1B19687  31.747  24.453   8.550
 5741POPC   C2B19688  31.734  24.466   8.250
 5741POPC   C3B19689  31.714  24.467   7.950
 5741POPC   C4B19690  31.687  24.464   7.650
 5742POPC   NC319691  10.507  40.742   9.450
 5742POPC   PO419692  10.551  40.778   9.150
 5742POPC   GL119693  10.483  40.782   8.850
 5742POPC   GL219694  10.574  40.713   8.850
 5742POPC   C1A19695  10.556  40.782   8.550
 5742POPC   D2A19696  10.504  40.748   8.250
 5742POPC   C3A19697  10.549  40.770   7.950
 5742POPC   C4A19698  10.499  40.805   7.650
 5742POPC   C1B19699  10.675  40.652   8.550
 5742POPC   C2B19700  10.715  40.663   8.250
 5742POPC   C3B19701  10.670  40.622   7.950
 5742POPC   C4B19702  10.682  40.651   7.650
 5743POPC   NC319703  10.534  11.294   9.450
 5743POPC   PO419704  10.519  11.269   9.150
 5743POPC   GL119705  10.509  11.259   8.850
 5743POPC   GL219706  10.366  11.320   8.850
 5743POPC   C1A19707  10.571  11.317   8.550
 5743POPC   D2A19708  10.493  11.339   8.250
 5743POPC   C3A19709  10.510  11.316   7.950
 5743POPC   C4A19710  10.571  11.278   7.650
 5743POPC   C1B19711  10.332  11.428   8.550
 5743POPC   C2B19712  10.257  11.437   8.250
 5743POPC   C3B19713  10.321  11.385   7.950
 5743POPC   C4B19714  10.277  11.405   7.650
 5744POPC   NC319715  41.541  44.629   9.450
 5744POPC   PO419716  41.517  44.699   9.150
 5744POPC   GL119717  41.567  44.667   8.850
 5744POPC   GL219718  41.637  44.653   8.850
 5744POPC   C1A19719  41.608  44.700   8.550
 5744POPC   D2A19720  41.554  44.646   8.250
 5744POPC   C3A19721  41.588  44.689   7.950
 5744POPC   C4A19722  41.566  44.674   7.650
 5744POPC   C1B19723  41.843  44.693   8.550
 5744POPC   C2B19724  41.840  44.693   8.250
 5744POPC   C3B19725  41.803  44.689   7.950
 5744POPC   C4B19726  41.825  44.709   7.650
 5745POPC   NC319727  12.032   5.905   9.450
 5745POPC   PO419728  12.118   5.846   9.150
 5745POPC   GL119729  12.100   5.892   8.850
 5745POPC   GL219730  12.135   5.819   8.850
 5745POPC   C1A19731  12.068   5.842   8.550
 5745POPC   D2A19732  12.035   5.882   8.250
 5745POPC   C3A19733  12.029   5.907   7.950
 5745POPC   C4A19734  12.092   5.870   7.650
 5745POPC   C1B19735  12.277   5.721   8.550
 5745POPC   C2B19736  12.211   5.725   8.250
 5745POPC   C3B19737  12.228   5.687   7.950
 5745POPC   C4B19738  12.298   5.711   7.650
 5746POPC   NC319739  15.216   8.191   9.450
 5746POPC   PO419740  15.172   8.205   9.150
 5746POPC   GL119741  15.221   8.246   8.850
 5746POPC   GL219742  15.071   8.243   8.850
 5746POPC   C1A19743  15.197   8.229   8.550
 5746POPC   D2A19744  15.205   8.198   8.250
 5746POPC   C3A19745  15.187   8.192   7.950
 5746POPC   C4A19746  15.210   8.196   7.650
 5746POPC   C1B19747  14.901   8.173   8.550
 5746POPC   C2B19748  14.935   8.210   8.250
 5746POPC   C3B19749  14.912   8.267   7.950
 5746POPC   C4B19750  14.912   8.192   7.650
 5747POPC   NC319751   9.012  24.491   9.450
 5747POPC   PO419752   8.989  24.514   9.150
 5747POPC   GL119753   8.950  24.471   8.850
 5747POPC   GL219754   8.924  24.585   8.850
 5747POPC   C1A19755   8.949  24.491   8.550
 5747POPC   D2A19756   8.979  24.454   8.250
 5747POPC   C3A19757   8.961  24.508   7.950
 5747POPC   C4A19758   8.930  24.484   7.650
 5747POPC   C1B19759   8.828  24.694   8.550
 5747POPC   C2B19760   8.877  24.746   8.250
 5747POPC   C3B19761   8.813  24.714   7.950
 5747POPC   C4B19762   8.849  24.694   7.650
 5748POPC   NC319763  32.233  21.432   9.450
 5748POPC   PO419764  32.288  21.384   9.150
 5748POPC   GL119765  32.234  21.399   8.850
 5748POPC   GL219766  32.315  21.333   8.850
 5748POPC   C1A19767  32.252  21.418   8.550
 5748POPC   D2A19768  32.267  21.378   8.250
 5748POPC   C3A19769  32.236  21.362   7.950
 5748POPC   C4A19770  32.285  21.349   7.650
 5748POPC   C1B19771  32.380  21.175   8.550
 5748POPC   C2B19772  32.376  21.173   8.250
 5748POPC   C3B19773  32.417  21.197   7.950
 5748POPC   C4B19774  32.397  21.174   7.650
 5749POPC   NC319775  31.459  22.206   9.450
 5749POPC   PO419776  31.469  22.162   9.150
 5749POPC   GL119777  31.484  22.173   8.850
 5749POPC   GL219778  31.627  22.092   8.850
 5749POPC   C1A19779  31.468  22.132   8.550
 5749POPC   D2A19780  31.510  22.120   8.250
 5749POPC   C3A19781  31.444  22.154   7.950
 5749POPC   C4A19782  31.471  22.210   7.650
 5749POPC   C1B19783  31.730  22.149   8.550
 5749POPC   C2B19784  31.757  22.152   8.250
 5749POPC   C3B19785  31.670  22.101   7.950
 5749POPC   C4B19786  31.766  22.112   7.650
 5750POPC   NC319787  29.929  12.046   9.450
 5750POPC   PO419788  29.889  12.084   9.150
 5750POPC   GL119789  29.903  12.030   8.850
 5750POPC   GL219790  29.781  12.206   8.850
 5750POPC   C1A19791  29.888  12.113   8.550
 5750POPC   D2A19792  29.907  12.072   8.250
 5750POPC   C3A19793  29.917  12.125   7.950
 5750POPC   C4A19794  29.907  12.052   7.650
 5750POPC   C1B19795  29.760  12.238   8.550
 5750POPC   C2B19796  29.756  12.226   8.250
 5750POPC   C3B19797  29.690  12.217   7.950
 5750POPC   C4B19798  29.738  12.294   7.650
 5751POPC   NC319799  38.503  21.398   9.450
 5751POPC   PO419800  38.491  21.412   9.150
 5751POPC   GL119801  38.477  21.360   8.850
 5751POPC   GL219802  38.494  21.227   8.850
 5751POPC   C1A19803  38.482  21.406   8.550
 5751POPC   D2A19804  38.431  21.347   8.250
 5751POPC   C3A19805  38.465  21.411   7.950
 5751POPC   C4A19806  38.419  21.432   7.650
 5751POPC   C1B19807  38.497  21.166   8.550
 5751POPC   C2B19808  38.530  21.097   8.250
 5751POPC   C3B19809  38.507  21.138   7.950
 5751POPC   C4B19810  38.522  21.111   7.650
 5752POPC   NC319811  36.945  19.815   9.450
 5752POPC   PO419812  36.876  19.829   9.150
 5752POPC   GL119813  36.938  19.825   8.850
 5752POPC   GL219814  36.993  19.724   8.850
 5752POPC   C1A19815  36.877  19.813   8.550
 5752POPC   D2A19816  36.890  19.793   8.250
 5752POPC   C3A19817  36.882  19.820   7.950
 5752POPC   C4A19818  36.951  19.816   7.650
 5752POPC   C1B19819  37.087  19.630   8.550
 5752POPC   C2B19820  37.063  19.708   8.250
 5752POPC   C3B19821  37.063  19.702   7.950
 5752POPC   C4B19822  37.148  19.629   7.650
 5753POPC   NC319823  43.882  26.831   9.450
 5753POPC   PO419824  43.865  26.835   9.150
 5753POPC   GL119825  43.910  26.783   8.850
 5753POPC   GL219826  43.939  26.718   8.850
 5753POPC   C1A19827  43.920  26.801   8.550
 5753POPC   D2A19828  43.933  26.852   8.250
 5753POPC   C3A19829  43.926  26.802   7.950
 5753POPC   C4A19830  43.891  26.867   7.650
 5753POPC   C1B19831  43.951  26.605   8.550
 5753POPC   C2B19832  43.917  26.568   8.250
 5753POPC   C3B19833  43.937  26.589   7.950
 5753POPC   C4B19834  43.907  26.594   7.650
 5754POPC   NC319835  41.555  25.258   9.450
 5754POPC   PO419836  41.512  25.231   9.150
 5754POPC   GL119837  41.607  25.275   8.850
 5754POPC   GL219838  41.678  25.334   8.850
 5754POPC   C1A19839  41.608  25.234   8.550
 5754POPC   D2A19840  41.510  25.251   8.250
 5754POPC   C3A19841  41.557  25.239   7.950
 5754POPC   C4A19842  41.563  25.219   7.650
 5754POPC   C1B19843  41.810  25.350   8.550
 5754POPC   C2B19844  41.817  25.385   8.250
 5754POPC   C3B19845  41.809  25.359   7.950
 5754POPC   C4B19846  41.800  25.362   7.650
 5755POPC   NC319847  32.206  17.504   9.450
 5755POPC   PO419848  32.287  17.517   9.150
 5755POPC   GL119849  32.281  17.516   8.850
 5755POPC   GL219850  32.280  17.405   8.850
 5755POPC   C1A19851  32.240  17.534   8.550
 5755POPC   D2A19852  32.243  17.464   8.250
 5755POPC   C3A19853  32.212  17.555   7.950
 5755POPC   C4A19854  32.264  17.464   7.650
 5755POPC   C1B19855  32.229  17.275   8.550
 5755POPC   C2B19856  32.319  17.269   8.250
 5755POPC   C3B19857  32.298  17.239   7.950
 5755POPC   C4B19858  32.249  17.220   7.650
 5756POPC   NC319859  44.624  36.940   9.450
 5756POPC   PO419860  44.659  36.919   9.150
 5756POPC   GL119861  44.711  36.940   8.850
 5756POPC   GL219862  44.768  36.780   8.850
 5756POPC   C1A19863  44.637  36.862   8.550
 5756POPC   D2A19864  44.615  36.920   8.250
 5756POPC   C3A19865  44.680  36.943   7.950
 5756POPC   C4A19866  44.704  36.886   7.650
 5756POPC   C1B19867  44.804  36.733   8.550
 5756POPC   C2B19868  44.809  36.693   8.250
 5756POPC   C3B19869  44.846  36.682   7.950
 5756POPC   C4B19870  44.848  36.703   7.650
 5757POPC   NC319871  34.533   2.769   9.450
 5757POPC   PO419872  34.542   2.792   9.150
 5757POPC   GL119873  34.551   2.751   8.850
 5757POPC   GL219874  34.443   2.744   8.850
 5757POPC   C1A19875  34.547   2.800   8.550
 5757POPC   D2A19876  34.620   2.804   8.250
 5757POPC   C3A19877  34.565   2.774   7.950
 5757POPC   C4A19878  34.550   2.735   7.650
 5757POPC   C1B19879  34.361   2.701   8.550
 5757POPC   C2B19880  34.377   2.700   8.250
 5757POPC   C3B19881  34.359   2.713   7.950
 5757POPC   C4B19882  34.301   2.730   7.650
 5758POPC   NC319883  40.822  43.146   9.450
 5758POPC   PO419884  40.822  43.080   9.150
 5758POPC   GL119885  40.799  43.105   8.850
 5758POPC   GL219886  40.907  43.087   8.850
 5758POPC   C1A19887  40.767  43.142   8.550
 5758POPC   D2A19888  40.818  43.095   8.250
 5758POPC   C3A19889  40.740  43.141   7.950
 5758POPC   C4A19890  40.746  43.105   7.650
 5758POPC   C1B19891  41.004  43.121   8.550
 5758POPC   C2B19892  41.001  43.096   8.250
 5758POPC   C3B19893  41.024  43.100   7.950
 5758POPC   C4B19894  41.049  43.132   7.650
 5759POPC   NC319895  41.535  20.636   9.450
 5759POPC   PO419896  41.589  20.638   9.150
 5759POPC   GL119897  41.529  20.616   8.850
 5759POPC   GL219898  41.506  20.549   8.850
 5759POPC   C1A19899  41.594  20.599   8.550
 5759POPC   D2A19900  41.516  20.587   8.250
 5759POPC   C3A19901  41.589  20.601   7.950
 5759POPC   C4A19902  41.591  20.592   7.650
 5759POPC   C1B19903  41.383  20.477   8.550
 5759POPC   C2B19904  41.309  20.491   8.250
 5759POPC   C3B19905  41.404  20.457   7.950
 5759POPC   C4B19906  41.399  20.462   7.650
 5760POPC   NC319907  10.499   7.401   9.450
 5760POPC   PO419908  10.572   7.381   9.150
 5760POPC   GL119909  10.484   7.416   8.850
 5760POPC   GL219910  10.409   7.519   8.850
 5760POPC   C1A19911  10.503   7.430   8.550
 5760POPC   D2A19912  10.486   7.388   8.250
 5760POPC   C3A19913  10.490   7.381   7.950
 5760POPC   C4A19914  10.510   7.418   7.650
 5760POPC   C1B19915  10.379   7.564   8.550
 5760POPC   C2B19916  10.347   7.608   8.250
 5760POPC   C3B19917  10.385   7.619   7.950
 5760POPC   C4B19918  10.377   7.615   7.650
 5761POPC   NC319919   6.658  19.789   9.450
 5761POPC   PO419920   6.610  19.872   9.150
 5761POPC   GL119921   6.622  19.810   8.850
 5761POPC   GL219922   6.537  19.798   8.850
 5761POPC   C1A19923   6.680  19.864   8.550
 5761POPC   D2A19924   6.683  19.869   8.250
 5761POPC   C3A19925   6.662  19.838   7.950
 5761POPC   C4A19926   6.600  19.867   7.650
 5761POPC   C1B19927   6.398  19.846   8.550
 5761POPC   C2B19928   6.360  19.810   8.250
 5761POPC   C3B19929   6.425  19.851   7.950
 5761POPC   C4B19930   6.404  19.900   7.650
 5762POPC   NC319931   1.958  13.653   9.450
 5762POPC   PO419932   2.029  13.625   9.150
 5762POPC   GL119933   2.028  13.582   8.850
 5762POPC   GL219934   1.850  13.667   8.850
 5762POPC   C1A19935   2.039  13.598   8.550
 5762POPC   D2A19936   2.032  13.608   8.250
 5762POPC   C3A19937   2.034  13.668   7.950
 5762POPC   C4A19938   1.958  13.612   7.650
 5762POPC   C1B19939   1.777  13.694   8.550
 5762POPC   C2B19940   1.748  13.647   8.250
 5762POPC   C3B19941   1.730  13.721   7.950
 5762POPC   C4B19942   1.727  13.715   7.650
 5763POPC   NC319943  39.217  12.882   9.450
 5763POPC   PO419944  39.269  12.804   9.150
 5763POPC   GL119945  39.196  12.856   8.850
 5763POPC   GL219946  39.130  12.832   8.850
 5763POPC   C1A19947  39.237  12.857   8.550
 5763POPC   D2A19948  39.215  12.858   8.250
 5763POPC   C3A19949  39.231  12.892   7.950
 5763POPC   C4A19950  39.215  12.855   7.650
 5763POPC   C1B19951  38.940  12.800   8.550
 5763POPC   C2B19952  38.999  12.757   8.250
 5763POPC   C3B19953  39.034  12.780   7.950
 5763POPC   C4B19954  38.983  12.826   7.650
 5764POPC   NC319955  36.169   5.884   9.450
 5764POPC   PO419956  36.153   5.829   9.150
 5764POPC   GL119957  36.099   5.865   8.850
 5764POPC   GL219958  35.973   5.821   8.850
 5764POPC   C1A19959  36.130   5.868   8.550
 5764POPC   D2A19960  36.081   5.852   8.250
 5764POPC   C3A19961  36.162   5.892   7.950
 5764POPC   C4A19962  36.140   5.825   7.650
 5764POPC   C1B19963  35.852   5.778   8.550
 5764POPC   C2B19964  35.844   5.845   8.250
 5764POPC   C3B19965  35.893   5.857   7.950
 5764POPC   C4B19966  35.852   5.784   7.650
 5765POPC   NC319967  29.104  29.158   9.450
 5765POPC   PO419968  29.173  29.189   9.150
 5765POPC   GL119969  29.116  29.138   8.850
 5765POPC   GL219970  29.023  29.244   8.850
 5765POPC   C1A19971  29.138  29.138   8.550
 5765POPC   D2A19972  29.117  29.148   8.250
 5765POPC   C3A19973  29.184  29.121   7.950
 5765POPC   C4A19974  29.112  29.177   7.650
 5765POPC   C1B19975  29.027  29.365   8.550
 5765POPC   C2B19976  29.014  29.359   8.250
 5765POPC   C3B19977  29.033  29.362   7.950
 5765POPC   C4B19978  29.025  29.299   7.650
 5766POPC   NC319979  39.204  34.531   9.450
 5766POPC   PO419980  39.259  34.551   9.150
 5766POPC   GL119981  39.277  34.586   8.850
 5766POPC   GL219982  39.226  34.470   8.850
 5766POPC   C1A19983  39.197  34.589   8.550
 5766POPC   D2A19984  39.239  34.596   8.250
 5766POPC   C3A19985  39.181  34.543   7.950
 5766POPC   C4A19986  39.200  34.573   7.650
 5766POPC   C1B19987  39.168  34.280   8.550
 5766POPC   C2B19988  39.201  34.345   8.250
 5766POPC   C3B19989  39.239  34.347   7.950
 5766POPC   C4B19990  39.252  34.318   7.650
 5767POPC   NC319991  40.030  40.018   9.450
 5767POPC   PO419992  40.010  39.972   9.150
 5767POPC   GL119993  40.008  40.011   8.850
 5767POPC   GL219994  40.126  40.091   8.850
 5767POPC   C1A19995  39.969  39.982   8.550
 5767POPC   D2A19996  39.958  39.969   8.250
 5767POPC   C3A19997  40.024  40.020   7.950
 5767POPC   C4A19998  39.979  39.985   7.650
 5767POPC   C1B19999  40.206  40.103   8.550
 5767POPC   C2B20000  40.224  40.078   8.250
 5767POPC   C3B20001  40.194  40.081   7.950
 5767POPC   C4B20002  40.197  40.071   7.650
 5768POPC   NC320003  19.858  25.283   9.450
 5768POPC   PO420004  19.834  25.266   9.150
 5768POPC   GL120005  19.842  25.256   8.850
 5768POPC   GL220006  19.896  25.386   8.850
 5768POPC   C1A20007  19.872  25.228   8.550
 5768POPC   D2A20008  19.867  25.252   8.250
 5768POPC   C3A20009  19.817  25.254   7.950
 5768POPC   C4A20010  19.809  25.235   7.650
 5768POPC   C1B20011  19.816  25.556   8.550
 5768POPC   C2B20012  19.863  25.544   8.250
 5768POPC   C3B20013  19.900  25.500   7.950
 5768POPC   C4B20014  19.895  25.525   7.650
 5769POPC   NC320015   2.032  31.489   9.450
 5769POPC   PO420016   1.966  31.469   9.150
 5769POPC   GL120017   2.030  31.482   8.850
 5769POPC   GL220018   1.990  31.547   8.850
 5769POPC   C1A20019   2.004  31.433   8.550
 5769POPC   D2A20020   1.948  31.504   8.250
 5769POPC   C3A20021   2.035  31.449   7.950
 5769POPC   C4A20022   1.972  31.489   7.650
 5769POPC   C1B20023   2.039  31.675   8.550
 5769POPC   C2B20024   1.985  31.705   8.250
 5769POPC   C3B20025   2.078  31.696   7.950
 5769POPC   C4B20026   2.050  31.680   7.650
 5770POPC   NC320027  36.138   9.792   9.450
 5770POPC   PO420028  36.176   9.759   9.150
 5770POPC   GL120029  36.115   9.711   8.850
 5770POPC   GL220030  36.099   9.610   8.850
 5770POPC   C1A20031  36.124   9.786   8.550
 5770POPC   D2A20032  36.079   9.752   8.250
 5770POPC   C3A20033  36.122   9.745   7.950
 5770POPC   C4A20034  36.095   9.740   7.650
 5770POPC   C1B20035  36.039   9.547   8.550
 5770POPC   C2B20036  36.058   9.510   8.250
 5770POPC   C3B20037  36.097   9.520   7.950
 5770POPC   C4B20038  36.058   9.474   7.650
 5771POPC   NC320039  44.627  17.520   9.450
 5771POPC   PO420040  44.660  17.521   9.150
 5771POPC   GL120041  44.616  17.546   8.850
 5771POPC   GL220042  44.640  17.362   8.850
 5771POPC   C1A20043  44.686  17.487   8.550
 5771POPC   D2A20044  44.649  17.527   8.250
 5771POPC   C3A20045  44.667  17.465   7.950
 5771POPC   C4A20046  44.700  17.553   7.650
 5771POPC   C1B20047  44.719  17.290   8.550
 5771POPC   C2B20048  44.690  17.297   8.250
 5771POPC   C3B20049  44.715  17.242   7.950
 5771POPC   C4B20050  44.650  17.226   7.650
 5772POPC   NC320051  23.725  21.356   9.450
 5772POPC   PO420052  23.665  21.372   9.150
 5772POPC   GL120053  23.747  21.366   8.850
 5772POPC   GL220054  23.857  21.377   8.850
 5772POPC   C1A20055  23.684  21.410   8.550
 5772POPC   D2A20056  23.696  21.383   8.250
 5772POPC   C3A20057  23.683  21.398   7.950
 5772POPC   C4A20058  23.731  21.418   7.650
 5772POPC   C1B20059  23.933  21.343   8.550
 5772POPC   C2B20060  23.906  21.364   8.250
 5772POPC   C3B20061  23.940  21.299   7.950
 5772POPC   C4B20062  23.993  21.345   7.650
 5773POPC   NC320063  24.536  18.254   9.450
 5773POPC   PO420064  24.452  18.301   9.150
 5773POPC   GL120065  24.474  18.294   8.850
 5773POPC   GL220066  24.373  18.375   8.850
 5773POPC   C1A20067  24.495  18.234   8.550
 5773POPC   D2A20068  24.456  18.304   8.250
 5773POPC   C3A20069  24.524  18.281   7.950
 5773POPC   C4A20070  24.462  18.305   7.650
 5773POPC   C1B20071  24.314  18.353   8.550
 5773POPC   C2B20072  24.224  18.420   8.250
 5773POPC   C3B20073  24.219  18.365   7.950
 5773POPC   C4B20074  24.270  18.371   7.650
 5774POPC   NC320075  29.883  34.556   9.450
 5774POPC   PO420076  29.892  34.606   9.150
 5774POPC   GL120077  29.896  34.572   8.850
 5774POPC   GL220078  29.821  34.519   8.850
 5774POPC   C1A20079  29.907  34.545   8.550
 5774POPC   D2A20080  29.912  34.565   8.250
 5774POPC   C3A20081  29.918  34.620   7.950
 5774POPC   C4A20082  29.885  34.586   7.650
 5774POPC   C1B20083  29.789  34.411   8.550
 5774POPC   C2B20084  29.719  34.376   8.250
 5774POPC   C3B20085  29.767  34.422   7.950
 5774POPC   C4B20086  29.777  34.350   7.650
 5775POPC   NC320087  17.459  19.796   9.450
 5775POPC   PO420088  17.496  19.785   9.150
 5775POPC   GL120089  17.485  19.828   8.850
 5775POPC   GL220090  17.435  19.816   8.850
 5775POPC   C1A20091  17.539  19.859   8.550
 5775POPC   D2A20092  17.489  19.809   8.250
 5775POPC   C3A20093  17.511  19.859   7.950
 5775POPC   C4A20094  17.542  19.821   7.650
 5775POPC   C1B20095  17.237  19.748   8.550
 5775POPC   C2B20096  17.294  19.743   8.250
 5775POPC   C3B20097  17.225  19.772   7.950
 5775POPC   C4B20098  17.235  19.727   7.650
 5776POPC   NC320099  22.923  17.547   9.450
 5776POPC   PO420100  22.954  17.478   9.150
 5776POPC   GL120101  22.960  17.468   8.850
 5776POPC   GL220102  22.814  17.385   8.850
 5776POPC   C1A20103  22.901  17.493   8.550
 5776POPC   D2A20104  22.893  17.470   8.250
 5776POPC   C3A20105  22.903  17.550   7.950
 5776POPC   C4A20106  22.960  17.502   7.650
 5776POPC   C1B20107  22.734  17.346   8.550
 5776POPC   C2B20108  22.798  17.345   8.250
 5776POPC   C3B20109  22.759  17.326   7.950
 5776POPC   C4B20110  22.795  17.283   7.650
 5777POPC   NC320111  43.843   9.784   9.450
 5777POPC   PO420112  43.853   9.786   9.150
 5777POPC   GL120113  43.840   9.773   8.850
 5777POPC   GL220114  44.009   9.688   8.850
 5777POPC   C1A20115  43.844   9.779   8.550
 5777POPC   D2A20116  43.906   9.746   8.250
 5777POPC   C3A20117  43.927   9.731   7.950
 5777POPC   C4A20118  43.899   9.746   7.650
 5777POPC   C1B20119  44.136   9.660   8.550
 5777POPC   C2B20120  44.122   9.687   8.250
 5777POPC   C3B20121  44.081   9.709   7.950
 5777POPC   C4B20122  44.083   9.673   7.650
 5778POPC   NC320123   5.077  23.685   9.450
 5778POPC   PO420124   5.104  23.678   9.150
 5778POPC   GL120125   5.056  23.755   8.850
 5778POPC   GL220126   5.155  23.805   8.850
 5778POPC   C1A20127   5.141  23.729   8.550
 5778POPC   D2A20128   5.100  23.691   8.250
 5778POPC   C3A20129   5.104  23.740   7.950
 5778POPC   C4A20130   5.135  23.685   7.650
 5778POPC   C1B20131   5.184  23.981   8.550
 5778POPC   C2B20132   5.181  23.978   8.250
 5778POPC   C3B20133   5.153  23.967   7.950
 5778POPC   C4B20134   5.145  23.949   7.650
 5779POPC   NC320135  37.692  19.790   9.450
 5779POPC   PO420136  37.707  19.819   9.150
 5779POPC   GL120137  37.635  19.858   8.850
 5779POPC   GL220138  37.781  19.736   8.850
 5779POPC   C1A20139  37.721  19.832   8.550
 5779POPC   D2A20140  37.674  19.848   8.250
 5779POPC   C3A20141  37.714  19.813   7.950
 5779POPC   C4A20142  37.722  19.869   7.650
 5779POPC   C1B20143  37.751  19.593   8.550
 5779POPC   C2B20144  37.760  19.592   8.250
 5779POPC   C3B20145  37.751  19.630   7.950
 5779POPC   C4B20146  37.815  19.624   7.650
 5780POPC   NC320147  19.853  17.505   9.450
 5780POPC   PO420148  19.789  17.480   9.150
 5780POPC   GL120149  19.869  17.519   8.850
 5780POPC   GL220150  19.812  17.391   8.850
 5780POPC   C1A20151  19.860  17.502   8.550
 5780POPC   D2A20152  19.845  17.520   8.250
 5780POPC   C3A20153  19.809  17.517   7.950
 5780POPC   C4A20154  19.830  17.504   7.650
 5780POPC   C1B20155  19.820  17.298   8.550
 5780POPC   C2B20156  19.856  17.235   8.250
 5780POPC   C3B20157  19.820  17.260   7.950
 5780POPC   C4B20158  19.846  17.241   7.650
 5781POPC   NC320159  33.767   1.242   9.450
 5781POPC   PO420160  33.750   1.219   9.150
 5781POPC   GL120161  33.839   1.187   8.850
 5781POPC   GL220162  33.637   1.195   8.850
 5781POPC   C1A20163  33.837   1.182   8.550
 5781POPC   D2A20164  33.761   1.213   8.250
 5781POPC   C3A20165  33.824   1.217   7.950
 5781POPC   C4A20166  33.837   1.261   7.650
 5781POPC   C1B20167  33.590   1.133   8.550
 5781POPC   C2B20168  33.536   1.154   8.250
 5781POPC   C3B20169  33.542   1.165   7.950
 5781POPC   C4B20170  33.526   1.184   7.650
 5782POPC   NC320171   1.943  16.691   9.450
 5782POPC   PO420172   2.025  16.732   9.150
 5782POPC   GL120173   2.036  16.773   8.850
 5782POPC   GL220174   1.935  16.886   8.850
 5782POPC   C1A20175   2.031  16.771   8.550
 5782POPC   D2A20176   1.963  16.764   8.250
 5782POPC   C3A20177   1.952  16.752   7.950
 5782POPC   C4A20178   2.023  16.737   7.650
 5782POPC   C1B20179   1.869  16.951   8.550
 5782POPC   C2B20180   1.826  16.939   8.250
 5782POPC   C3B20181   1.860  16.942   7.950
 5782POPC   C4B20182   1.907  16.898   7.650
 5783POPC   NC320183  12.070  25.999   9.450
 5783POPC   PO420184  12.094  25.997   9.150
 5783POPC   GL120185  12.118  26.054   8.850
 5783POPC   GL220186  11.972  26.091   8.850
 5783POPC   C1A20187  12.099  26.008   8.550
 5783POPC   D2A20188  12.033  26.019   8.250
 5783POPC   C3A20189  12.047  26.041   7.950
 5783POPC   C4A20190  12.113  26.054   7.650
 5783POPC   C1B20191  11.848  26.149   8.550
 5783POPC   C2B20192  11.827  26.173   8.250
 5783POPC   C3B20193  11.894  26.184   7.950
 5783POPC   C4B20194  11.864  26.138   7.650
 5784POPC   NC320195  29.112  39.194   9.450
 5784POPC   PO420196  29.116  39.224   9.150
 5784POPC   GL120197  29.127  39.277   8.850
 5784POPC   GL220198  29.206  39.366   8.850
 5784POPC   C1A20199  29.117  39.248   8.550
 5784POPC   D2A20200  29.153  39.204   8.250
 5784POPC   C3A20201  29.142  39.250   7.950
 5784POPC   C4A20202  29.159  39.184   7.650
 5784POPC   C1B20203  29.193  39.483   8.550
 5784POPC   C2B20204  29.230  39.523   8.250
 5784POPC   C3B20205  29.148  39.439   7.950
 5784POPC   C4B20206  29.172  39.513   7.650
 5785POPC   NC320207  10.538  21.411   9.450
 5785POPC   PO420208  10.540  21.376   9.150
 5785POPC   GL120209  10.519  21.345   8.850
 5785POPC   GL220210  10.576  21.296   8.850
 5785POPC   C1A20211  10.563  21.421   8.550
 5785POPC   D2A20212  10.561  21.397   8.250
 5785POPC   C3A20213  10.567  21.433   7.950
 5785POPC   C4A20214  10.527  21.420   7.650
 5785POPC   C1B20215  10.726  21.176   8.550
 5785POPC   C2B20216  10.738  21.248   8.250
 5785POPC   C3B20217  10.711  21.248   7.950
 5785POPC   C4B20218  10.676  21.254   7.650
 5786POPC   NC320219   5.834  26.861   9.450
 5786POPC   PO420220   5.918  26.802   9.150
 5786POPC   GL120221   5.905  26.837   8.850
 5786POPC   GL220222   5.747  26.962   8.850
 5786POPC   C1A20223   5.915  26.771   8.550
 5786POPC   D2A20224   5.857  26.795   8.250
 5786POPC   C3A20225   5.910  26.844   7.950
 5786POPC   C4A20226   5.886  26.816   7.650
 5786POPC   C1B20227   5.710  26.965   8.550
 5786POPC   C2B20228   5.762  27.048   8.250
 5786POPC   C3B20229   5.760  27.044   7.950
 5786POPC   C4B20230   5.713  27.018   7.650
 5787POPC   NC320231  26.855  18.302   9.450
 5787POPC   PO420232  26.832  18.264   9.150
 5787POPC   GL120233  26.806  18.322   8.850
 5787POPC   GL220234  26.738  18.303   8.850
 5787POPC   C1A20235  26.842  18.258   8.550
 5787POPC   D2A20236  26.860  18.237   8.250
 5787POPC   C3A20237  26.826  18.253   7.950
 5787POPC   C4A20238  26.853  18.265   7.650
 5787POPC   C1B20239  26.528  18.330   8.550
 5787POPC   C2B20240  26.583  18.360   8.250
 5787POPC   C3B20241  26.546  18.344   7.950
 5787POPC   C4B20242  26.549  18.347   7.650
 5788POPC   NC320243  27.575  19.092   9.450
 5788POPC   PO420244  27.630  19.066   9.150
 5788POPC   GL120245  27.598  19.039   8.850
 5788POPC   GL220246  27.681  19.167   8.850
 5788POPC   C1A20247  27.590  19.099   8.550
 5788POPC   D2A20248  27.628  19.028   8.250
 5788POPC   C3A20249  27.563  19.034   7.950
 5788POPC   C4A20250  27.591  19.036   7.650
 5788POPC   C1B20251  27.841  19.205   8.550
 5788POPC   C2B20252  27.772  19.223   8.250
 5788POPC   C3B20253  27.804  19.140   7.950
 5788POPC   C4B20254  27.817  19.164   7.650
 5789POPC   NC320255   4.352   8.945   9.450
 5789POPC   PO420256   4.269   8.933   9.150
 5789POPC   GL120257   4.314   8.943   8.850
 5789POPC   GL220258   4.442   8.851   8.850
 5789POPC   C1A20259   4.320   8.950   8.550
 5789POPC   D2A20260   4.349   9.021   8.250
 5789POPC   C3A20261   4.325   8.994   7.950
 5789POPC   C4A20262   4.337   9.005   7.650
 5789POPC   C1B20263   4.525   8.809   8.550
 5789POPC   C2B20264   4.476   8.781   8.250
 5789POPC   C3B20265   4.526   8.783   7.950
 5789POPC   C4B20266   4.476   8.738   7.650
 5790POPC   NC320267  37.662  29.937   9.450
 5790POPC   PO420268  37.699  29.942   9.150
 5790POPC   GL120269  37.688  29.961   8.850
 5790POPC   GL220270  37.551  29.989   8.850
 5790POPC   C1A20271  37.674  29.921   8.550
 5790POPC   D2A20272  37.697  29.896   8.250
 5790POPC   C3A20273  37.710  29.962   7.950
 5790POPC   C4A20274  37.661  29.901   7.650
 5790POPC   C1B20275  37.470  30.134   8.550
 5790POPC   C2B20276  37.534  30.138   8.250
 5790POPC   C3B20277  37.523  30.138   7.950
 5790POPC   C4B20278  37.534  30.072   7.650
 5791POPC   NC320279   4.318   3.568   9.450
 5791POPC   PO420280   4.280   3.550   9.150
 5791POPC   GL120281   4.366   3.508   8.850
 5791POPC   GL220282   4.307   3.712   8.850
 5791POPC   C1A20283   4.331   3.524   8.550
 5791POPC   D2A20284   4.317   3.590   8.250
 5791POPC   C3A20285   4.281   3.578   7.950
 5791POPC   C4A20286   4.351   3.496   7.650
 5791POPC   C1B20287   4.311   3.745   8.550
 5791POPC   C2B20288   4.272   3.831   8.250
 5791POPC   C3B20289   4.263   3.784   7.950
 5791POPC   C4B20290   4.319   3.756   7.650
 5792POPC   NC320291   2.731  36.146   9.450
 5792POPC   PO420292   2.720  36.140   9.150
 5792POPC   GL120293   2.725  36.098   8.850
 5792POPC   GL220294   2.922  36.066   8.850
 5792POPC   C1A20295   2.723  36.082   8.550
 5792POPC   D2A20296   2.736  36.170   8.250
 5792POPC   C3A20297   2.800  36.095   7.950
 5792POPC   C4A20298   2.783  36.092   7.650
 5792POPC   C1B20299   3.001  36.068   8.550
 5792POPC   C2B20300   2.993  35.980   8.250
 5792POPC   C3B20301   3.033  35.981   7.950
 5792POPC   C4B20302   2.975  36.033   7.650
 5793POPC   NC320303  21.337  28.383   9.450
 5793POPC   PO420304  21.429  28.379   9.150
 5793POPC   GL120305  21.389  28.364   8.850
 5793POPC   GL220306  21.354  28.219   8.850
 5793POPC   C1A20307  21.363  28.342   8.550
 5793POPC   D2A20308  21.411  28.340   8.250
 5793POPC   C3A20309  21.378  28.389   7.950
 5793POPC   C4A20310  21.381  28.365   7.650
 5793POPC   C1B20311  21.340  28.094   8.550
 5793POPC   C2B20312  21.311  28.151   8.250
 5793POPC   C3B20313  21.283  28.105   7.950
 5793POPC   C4B20314  21.345  28.132   7.650
 5794POPC   NC320315  22.129  11.304   9.450
 5794POPC   PO420316  22.188  11.300   9.150
 5794POPC   GL120317  22.148  11.310   8.850
 5794POPC   GL220318  22.180  11.401   8.850
 5794POPC   C1A20319  22.161  11.274   8.550
 5794POPC   D2A20320  22.147  11.295   8.250
 5794POPC   C3A20321  22.165  11.282   7.950
 5794POPC   C4A20322  22.164  11.316   7.650
 5794POPC   C1B20323  22.142  11.590   8.550
 5794POPC   C2B20324  22.163  11.537   8.250
 5794POPC   C3B20325  22.218  11.589   7.950
 5794POPC   C4B20326  22.153  11.539   7.650
 5795POPC   NC320327   8.974  36.923   9.450
 5795POPC   PO420328   8.944  36.927   9.150
 5795POPC   GL120329   8.942  36.933   8.850
 5795POPC   GL220330   9.081  36.945   8.850
 5795POPC   C1A20331   9.013  36.908   8.550
 5795POPC   D2A20332   8.947  36.924   8.250
 5795POPC   C3A20333   9.020  36.953   7.950
 5795POPC   C4A20334   8.984  36.933   7.650
 5795POPC   C1B20335   9.218  36.929   8.550
 5795POPC   C2B20336   9.233  36.930   8.250
 5795POPC   C3B20337   9.218  36.982   7.950
 5795POPC   C4B20338   9.214  36.935   7.650
 5796POPC   NC320339  39.208  21.397   9.450
 5796POPC   PO420340  39.227  21.417   9.150
 5796POPC   GL120341  39.184  21.390   8.850
 5796POPC   GL220342  39.334  21.372   8.850
 5796POPC   C1A20343  39.188  21.398   8.550
 5796POPC   D2A20344  39.197  21.396   8.250
 5796POPC   C3A20345  39.245  21.381   7.950
 5796POPC   C4A20346  39.243  21.386   7.650
 5796POPC   C1B20347  39.459  21.324   8.550
 5796POPC   C2B20348  39.455  21.300   8.250
 5796POPC   C3B20349  39.459  21.227   7.950
 5796POPC   C4B20350  39.487  21.307   7.650
 5797POPC   NC320351  44.622  42.331   9.450
 5797POPC   PO420352  44.668  42.351   9.150
 5797POPC   GL120353  44.649  42.319   8.850
 5797POPC   GL220354  44.543  42.442   8.850
 5797POPC   C1A20355  44.693  42.287   8.550
 5797POPC   D2A20356  44.683  42.343   8.250
 5797POPC   C3A20357  44.651  42.352   7.950
 5797POPC   C4A20358  44.677  42.377   7.650
 5797POPC   C1B20359  44.502  42.574   8.550
 5797POPC   C2B20360  44.493  42.504   8.250
 5797POPC   C3B20361  44.473  42.582   7.950
 5797POPC   C4B20362  44.544  42.581   7.650
 5798POPC   NC320363  35.401   6.654   9.450
 5798POPC   PO420364  35.365   6.627   9.150
 5798POPC   GL120365  35.316   6.634   8.850
 5798POPC   GL220366  35.200   6.551   8.850
 5798POPC   C1A20367  35.340   6.610   8.550
 5798POPC   D2A20368  35.319   6.675   8.250
 5798POPC   C3A20369  35.329   6.690   7.950
 5798POPC   C4A20370  35.341   6.628   7.650
 5798POPC   C1B20371  35.114   6.504   8.550
 5798POPC   C2B20372  35.092   6.555   8.250
 5798POPC   C3B20373  35.126   6.528   7.950
 5798POPC   C4B20374  35.135   6.461   7.650
 5799POPC   NC320375  28.373  39.977   9.450
 5799POPC   PO420376  28.351  40.037   9.150
 5799POPC   GL120377  28.336  40.009   8.850
 5799POPC   GL220378  28.494  40.035   8.850
 5799POPC   C1A20379  28.365  39.959   8.550
 5799POPC   D2A20380  28.356  40.033   8.250
 5799POPC   C3A20381  28.327  40.047   7.950
 5799POPC   C4A20382  28.354  39.997   7.650
 5799POPC   C1B20383  28.547  40.092   8.550
 5799POPC   C2B20384  28.544  40.093   8.250
 5799POPC   C3B20385  28.609  40.181   7.950
 5799POPC   C4B20386  28.609  40.091   7.650
 5800POPC   NC320387  10.526  43.855   9.450
 5800POPC   PO420388  10.486  43.862   9.150
 5800POPC   GL120389  10.549  43.902   8.850
 5800POPC   GL220390  10.515  43.977   8.850
 5800POPC   C1A20391  10.490  43.863   8.550
 5800POPC   D2A20392  10.522  43.883   8.250
 5800POPC   C3A20393  10.571  43.837   7.950
 5800POPC   C4A20394  10.504  43.915   7.650
 5800POPC   C1B20395  10.468  44.169   8.550
 5800POPC   C2B20396  10.415  44.104   8.250
 5800POPC   C3B20397  10.474  44.170   7.950
 5800POPC   C4B20398  10.466  44.099   7.650
 5801POPC   NC320399  26.819  44.669   9.450
 5801POPC   PO420400  26.809  44.709   9.150
 5801POPC   GL120401  26.786  44.662   8.850
 5801POPC   GL220402  26.788  44.533   8.850
 5801POPC   C1A20403  26.858  44.683   8.550
 5801POPC   D2A20404  26.836  44.704   8.250
 5801POPC   C3A20405  26.815  44.631   7.950
 5801POPC   C4A20406  26.800  44.682   7.650
 5801POPC   C1B20407  26.718  44.431   8.550
 5801POPC   C2B20408  26.719  44.471   8.250
 5801POPC   C3B20409  26.730  44.400   7.950
 5801POPC   C4B20410  26.699  44.492   7.650
 5802POPC   NC320411  20.639   1.198   9.450
 5802POPC   PO420412  20.659   1.210   9.150
 5802POPC   GL120413  20.635   1.202   8.850
 5802POPC   GL220414  20.489   1.091   8.850
 5802POPC   C1A20415  20.590   1.166   8.550
 5802POPC   D2A20416  20.611   1.223   8.250
 5802POPC   C3A20417  20.586   1.235   7.950
 5802POPC   C4A20418  20.642   1.228   7.650
 5802POPC   C1B20419  20.386   1.080   8.550
 5802POPC   C2B20420  20.439   1.008   8.250
 5802POPC   C3B20421  20.375   1.030   7.950
 5802POPC   C4B20422  20.418   1.012   7.650
 5803POPC   NC320423  43.091  12.082   9.450
 5803POPC   PO420424  43.119  12.080   9.150
 5803POPC   GL120425  43.071  12.086   8.850
 5803POPC   GL220426  43.284  12.102   8.850
 5803POPC   C1A20427  43.121  12.034   8.550
 5803POPC   D2A20428  43.138  12.087   8.250
 5803POPC   C3A20429  43.116  12.052   7.950
 5803POPC   C4A20430  43.066  12.055   7.650
 5803POPC   C1B20431  43.407  12.101   8.550
 5803POPC   C2B20432  43.364  12.090   8.250
 5803POPC   C3B20433  43.338  12.105   7.950
 5803POPC   C4B20434  43.352  12.105   7.650
 5804POPC   NC320435   5.105   8.199   9.450
 5804POPC   PO420436   5.097   8.245   9.150
 5804POPC   GL120437   5.105   8.213   8.850
 5804POPC   GL220438   5.185   8.175   8.850
 5804POPC   C1A20439   5.056   8.229   8.550
 5804POPC   D2A20440   5.043   8.167   8.250
 5804POPC   C3A20441   5.111   8.236   7.950
 5804POPC   C4A20442   5.044   8.147   7.650
 5804POPC   C1B20443   5.386   8.155   8.550
 5804POPC   C2B20444   5.389   8.203   8.250
 5804POPC   C3B20445   5.387   8.192   7.950
 5804POPC   C4B20446   5.296   8.161   7.650
 5805POPC   NC320447  26.835   2.770   9.450
 5805POPC   PO420448  26.839   2.733   9.150
 5805POPC   GL120449  26.793   2.807   8.850
 5805POPC   GL220450  26.661   2.857   8.850
 5805POPC   C1A20451  26.842   2.799   8.550
 5805POPC   D2A20452  26.857   2.809   8.250
 5805POPC   C3A20453  26.866   2.737   7.950
 5805POPC   C4A20454  26.803   2.716   7.650
 5805POPC   C1B20455  26.570   2.801   8.550
 5805POPC   C2B20456  26.568   2.893   8.250
 5805POPC   C3B20457  26.632   2.802   7.950
 5805POPC   C4B20458  26.551   2.819   7.650
 5806POPC   NC320459  10.501  23.721   9.450
 5806POPC   PO420460  10.518  23.744   9.150
 5806POPC   GL120461  10.525  23.740   8.850
 5806POPC   GL220462  10.662  23.638   8.850
 5806POPC   C1A20463  10.570  23.688   8.550
 5806POPC   D2A20464  10.525  23.672   8.250
 5806POPC   C3A20465  10.479  23.763   7.950
 5806POPC   C4A20466  10.515  23.664   7.650
 5806POPC   C1B20467  10.741  23.639   8.550
 5806POPC   C2B20468  10.739  23.639   8.250
 5806POPC   C3B20469  10.740  23.655   7.950
 5806POPC   C4B20470  10.761  23.662   7.650
 5807POPC   NC320471   5.881  21.358   9.450
 5807POPC   PO420472   5.843  21.391   9.150
 5807POPC   GL120473   5.820  21.404   8.850
 5807POPC   GL220474   5.943  21.275   8.850
 5807POPC   C1A20475   5.846  21.399   8.550
 5807POPC   D2A20476   5.911  21.393   8.250
 5807POPC   C3A20477   5.847  21.396   7.950
 5807POPC   C4A20478   5.839  21.417   7.650
 5807POPC   C1B20479   5.935  21.155   8.550
 5807POPC   C2B20480   5.932  21.175   8.250
 5807POPC   C3B20481   5.967  21.182   7.950
 5807POPC   C4B20482   6.009  21.184   7.650
 5808POPC   NC320483  43.129  42.350   9.450
 5808POPC   PO420484  43.125  42.323   9.150
 5808POPC   GL120485  43.106  42.373   8.850
 5808POPC   GL220486  43.223  42.358   8.850
 5808POPC   C1A20487  43.133  42.333   8.550
 5808POPC   D2A20488  43.108  42.315   8.250
 5808POPC   C3A20489  43.072  42.316   7.950
 5808POPC   C4A20490  43.065  42.307   7.650
 5808POPC   C1B20491  43.402  42.256   8.550
 5808POPC   C2B20492  43.349  42.326   8.250
 5808POPC   C3B20493  43.341  42.351   7.950
 5808POPC   C4B20494  43.332  42.320   7.650
 5809POPC   NC320495  44.641   7.413   9.450
 5809POPC   PO420496  44.665   7.451   9.150
 5809POPC   GL120497  44.663   7.377   8.850
 5809POPC   GL220498  44.657   7.340   8.850
 5809POPC   C1A20499  44.650   7.389   8.550
 5809POPC   D2A20500  44.634   7.467   8.250
 5809POPC   C3A20501  44.672   7.448   7.950
 5809POPC   C4A20502  44.690   7.408   7.650
 5809POPC   C1B20503  44.705   7.128   8.550
 5809POPC   C2B20504  44.704   7.140   8.250
 5809POPC   C3B20505  44.736   7.170   7.950
 5809POPC   C4B20506  44.732   7.142   7.650
 5810POPC   NC320507  35.379  27.564   9.450
 5810POPC   PO420508  35.320  27.570   9.150
 5810POPC   GL120509  35.310  27.551   8.850
 5810POPC   GL220510  35.354  27.726   8.850
 5810POPC   C1A20511  35.363  27.592   8.550
 5810POPC   D2A20512  35.312  27.612   8.250
 5810POPC   C3A20513  35.306  27.616   7.950
 5810POPC   C4A20514  35.401  27.642   7.650
 5810POPC   C1B20515  35.415  27.873   8.550
 5810POPC   C2B20516  35.367  27.826   8.250
 5810POPC   C3B20517  35.388  27.873   7.950
 5810POPC   C4B20518  35.465  27.833   7.650
 5811POPC   NC320519  17.527  29.875   9.450
 5811POPC   PO420520  17.520  29.934   9.150
 5811POPC   GL120521  17.497  29.958   8.850
 5811POPC   GL220522  17.361  29.903   8.850
 5811POPC   C1A20523  17.460  29.969   8.550
 5811POPC   D2A20524  17.543  29.955   8.250
 5811POPC   C3A20525  17.471  29.911   7.950
 5811POPC   C4A20526  17.554  29.932   7.650
 5811POPC   C1B20527  17.233  29.988   8.550
 5811POPC   C2B20528  17.277  29.937   8.250
 5811POPC   C3B20529  17.289  29.901   7.950
 5811POPC   C4B20530  17.266  29.977   7.650
 5812POPC   NC320531  17.459  19.043   9.450
 5812POPC   PO420532  17.491  19.035   9.150
 5812POPC   GL120533  17.504  19.063   8.850
 5812POPC   GL220534  17.594  19.128   8.850
 5812POPC   C1A20535  17.489  19.087   8.550
 5812POPC   D2A20536  17.532  19.080   8.250
 5812POPC   C3A20537  17.465  19.021   7.950
 5812POPC   C4A20538  17.473  19.032   7.650
 5812POPC   C1B20539  17.733  19.228   8.550
 5812POPC   C2B20540  17.750  19.187   8.250
 5812POPC   C3B20541  17.744  19.196   7.950
 5812POPC   C4B20542  17.713  19.179   7.650
 5813POPC   NC320543  19.088   5.866   9.450
 5813POPC   PO420544  19.040   5.860   9.150
 5813POPC   GL120545  19.035   5.895   8.850
 5813POPC   GL220546  19.176   5.858   8.850
 5813POPC   C1A20547  19.036   5.843   8.550
 5813POPC   D2A20548  19.078   5.847   8.250
 5813POPC   C3A20549  19.059   5.848   7.950
 5813POPC   C4A20550  19.097   5.857   7.650
 5813POPC   C1B20551  19.264   5.901   8.550
 5813POPC   C2B20552  19.260   5.841   8.250
 5813POPC   C3B20553  19.299   5.849   7.950
 5813POPC   C4B20554  19.290   5.863   7.650
 5814POPC   NC320555  30.675  32.994   9.450
 5814POPC   PO420556  30.659  32.988   9.150
 5814POPC   GL120557  30.733  33.009   8.850
 5814POPC   GL220558  30.759  33.154   8.850
 5814POPC   C1A20559  30.718  33.007   8.550
 5814POPC   D2A20560  30.655  33.073   8.250
 5814POPC   C3A20561  30.697  33.011   7.950
 5814POPC   C4A20562  30.689  32.998   7.650
 5814POPC   C1B20563  30.833  33.213   8.550
 5814POPC   C2B20564  30.834  33.260   8.250
 5814POPC   C3B20565  30.813  33.215   7.950
 5814POPC   C4B20566  30.844  33.205   7.650
 5815POPC   NC320567  31.513   8.216   9.450
 5815POPC   PO420568  31.513   8.229   9.150
 5815POPC   GL120569  31.450   8.212   8.850
 5815POPC   GL220570  31.596   8.197   8.850
 5815POPC   C1A20571  31.521   8.229   8.550
 5815POPC   D2A20572  31.489   8.215   8.250
 5815POPC   C3A20573  31.459   8.169   7.950
 5815POPC   C4A20574  31.438   8.188   7.650
 5815POPC   C1B20575  31.738   8.308   8.550
 5815POPC   C2B20576  31.703   8.244   8.250
 5815POPC   C3B20577  31.654   8.277   7.950
 5815POPC   C4B20578  31.730   8.329   7.650
 5816POPC   NC320579   7.470   5.091   9.450
 5816POPC   PO420580   7.453   5.058   9.150
 5816POPC   GL120581   7.381   5.064   8.850
 5816POPC   GL220582   7.400   4.958   8.850
 5816POPC   C1A20583   7.398   5.128   8.550
 5816POPC   D2A20584   7.396   5.129   8.250
 5816POPC   C3A20585   7.444   5.114   7.950
 5816POPC   C4A20586   7.373   5.140   7.650
 5816POPC   C1B20587   7.341   4.897   8.550
 5816POPC   C2B20588   7.373   4.843   8.250
 5816POPC   C3B20589   7.393   4.841   7.950
 5816POPC   C4B20590   7.388   4.858   7.650
 5817POPC   NC320591   1.167   7.396   9.450
 5817POPC   PO420592   1.217   7.418   9.150
 5817POPC   GL120593   1.218   7.374   8.850
 5817POPC   GL220594   1.273   7.540   8.850
 5817POPC   C1A20595   1.226   7.403   8.550
 5817POPC   D2A20596   1.199   7.447   8.250
 5817POPC   C3A20597   1.194   7.464   7.950
 5817POPC   C4A20598   1.208   7.414   7.650
 5817POPC   C1B20599   1.400   7.584   8.550
 5817POPC   C2B20600   1.337   7.599   8.250
 5817POPC   C3B20601   1.332   7.563   7.950
 5817POPC   C4B20602   1.388   7.585   7.650
 5818POPC   NC320603  24.526  17.536   9.450
 5818POPC   PO420604  24.488  17.527   9.150
 5818POPC   GL120605  24.478  17.556   8.850
 5818POPC   GL220606  24.395  17.573   8.850
 5818POPC   C1A20607  24.528  17.528   8.550
 5818POPC   D2A20608  24.529  17.550   8.250
 5818POPC   C3A20609  24.465  17.468   7.950
 5818POPC   C4A20610  24.470  17.538   7.650
 5818POPC   C1B20611  24.258  17.611   8.550
 5818POPC   C2B20612  24.250  17.586   8.250
 5818POPC   C3B20613  24.257  17.515   7.950
 5818POPC   C4B20614  24.281  17.557   7.650
 5819POPC   NC320615  22.176  18.240   9.450
 5819POPC   PO420616  22.155  18.288   9.150
 5819POPC   GL120617  22.170  18.271   8.850
 5819POPC   GL220618  22.321  18.352   8.850
 5819POPC   C1A20619  22.171  18.283   8.550
 5819POPC   D2A20620  22.140  18.255   8.250
 5819POPC   C3A20621  22.198  18.269   7.950
 5819POPC   C4A20622  22.141  18.295   7.650
 5819POPC   C1B20623  22.369  18.399   8.550
 5819POPC   C2B20624  22.395  18.424   8.250
 5819POPC   C3B20625  22.361  18.384   7.950
 5819POPC   C4B20626  22.443  18.349   7.650
 5820POPC   NC320627   1.171  38.438   9.450
 5820POPC   PO420628   1.203  38.415   9.150
 5820POPC   GL120629   1.219  38.494   8.850
 5820POPC   GL220630   1.284  38.410   8.850
 5820POPC   C1A20631   1.210  38.415   8.550
 5820POPC   D2A20632   1.204  38.439   8.250
 5820POPC   C3A20633   1.167  38.480   7.950
 5820POPC   C4A20634   1.202  38.407   7.650
 5820POPC   C1B20635   1.395  38.298   8.550
 5820POPC   C2B20636   1.399  38.348   8.250
 5820POPC   C3B20637   1.461  38.347   7.950
 5820POPC   C4B20638   1.476  38.336   7.650
 5821POPC   NC320639  40.023   5.112   9.450
 5821POPC   PO420640  40.049   5.095   9.150
 5821POPC   GL120641  40.047   5.088   8.850
 5821POPC   GL220642  40.103   5.130   8.850
 5821POPC   C1A20643  39.972   5.088   8.550
 5821POPC   D2A20644  39.980   5.059   8.250
 5821POPC   C3A20645  40.022   5.136   7.950
 5821POPC   C4A20646  39.969   5.121   7.650
 5821POPC   C1B20647  40.255   5.252   8.550
 5821POPC   C2B20648  40.205   5.216   8.250
 5821POPC   C3B20649  40.243   5.272   7.950
 5821POPC   C4B20650  40.221   5.184   7.650
 5822POPC   NC320651  32.298  32.209   9.450
 5822POPC   PO420652  32.288  32.282   9.150
 5822POPC   GL120653  32.278  32.203   8.850
 5822POPC   GL220654  32.394  32.307   8.850
 5822POPC   C1A20655  32.211  32.275   8.550
 5822POPC   D2A20656  32.204  32.231   8.250
 5822POPC   C3A20657  32.223  32.260   7.950
 5822POPC   C4A20658  32.242  32.208   7.650
 5822POPC   C1B20659  32.512  32.262   8.550
 5822POPC   C2B20660  32.488  32.328   8.250
 5822POPC   C3B20661  32.492  32.333   7.950
 5822POPC   C4B20662  32.464  32.346   7.650
 5823POPC   NC320663   6.672  36.114   9.450
 5823POPC   PO420664   6.610  36.099   9.150
 5823POPC   GL120665   6.670  36.158   8.850
 5823POPC   GL220666   6.586  36.083   8.850
 5823POPC   C1A20667   6.641  36.105   8.550
 5823POPC   D2A20668   6.659  36.175   8.250
 5823POPC   C3A20669   6.616  36.150   7.950
 5823POPC   C4A20670   6.629  36.147   7.650
 5823POPC   C1B20671   6.409  35.925   8.550
 5823POPC   C2B20672   6.426  35.984   8.250
 5823POPC   C3B20673   6.464  35.943   7.950
 5823POPC   C4B20674   6.445  35.952   7.650
 5824POPC   NC320675  37.643  38.435   9.450
 5824POPC   PO420676  37.677  38.502   9.150
 5824POPC   GL120677  37.661  38.461   8.850
 5824POPC   GL220678  37.621  38.377   8.850
 5824POPC   C1A20679  37.723  38.451   8.550
 5824POPC   D2A20680  37.721  38.468   8.250
 5824POPC   C3A20681  37.635  38.465   7.950
 5824POPC   C4A20682  37.711  38.480   7.650
 5824POPC   C1B20683  37.623  38.206   8.550
 5824POPC   C2B20684  37.640  38.224   8.250
 5824POPC   C3B20685  37.653  38.188   7.950
 5824POPC   C4B20686  37.635  38.248   7.650
 5825POPC   NC320687  44.670   8.149   9.450
 5825POPC   PO420688  44.663   8.240   9.150
 5825POPC   GL120689  44.645   8.206   8.850
 5825POPC   GL220690  44.537   8.077   8.850
 5825POPC   C1A20691  44.617   8.245   8.550
 5825POPC   D2A20692  44.640   8.206   8.250
 5825POPC   C3A20693  44.689   8.192   7.950
 5825POPC   C4A20694  44.641   8.165   7.650
 5825POPC   C1B20695  44.446   8.061   8.550
 5825POPC   C2B20696  44.478   8.017   8.250
 5825POPC   C3B20697  44.449   8.073   7.950
 5825POPC   C4B20698  44.487   8.044   7.650
 5826POPC   NC320699  31.432  25.255   9.450
 5826POPC   PO420700  31.455  25.234   9.150
 5826POPC   GL120701  31.425  25.265   8.850
 5826POPC   GL220702  31.424  25.139   8.850
 5826POPC   C1A20703  31.479  25.228   8.550
 5826POPC   D2A20704  31.457  25.289   8.250
 5826POPC   C3A20705  31.430  25.257   7.950
 5826POPC   C4A20706  31.458  25.274   7.650
 5826POPC   C1B20707  31.344  25.096   8.550
 5826POPC   C2B20708  31.332  25.079   8.250
 5826POPC   C3B20709  31.335  25.060   7.950
 5826POPC   C4B20710  31.305  25.102   7.650
 5827POPC   NC320711   6.655  32.201   9.450
 5827POPC   PO420712   6.634  32.280   9.150
 5827POPC   GL120713   6.670  32.240   8.850
 5827POPC   GL220714   6.567  32.369   8.850
 5827POPC   C1A20715   6.643  32.231   8.550
 5827POPC   D2A20716   6.691  32.213   8.250
 5827POPC   C3A20717   6.629  32.239   7.950
 5827POPC   C4A20718   6.627  32.200   7.650
 5827POPC   C1B20719   6.429  32.473   8.550
 5827POPC   C2B20720   6.474  32.391   8.250
 5827POPC   C3B20721   6.468  32.437   7.950
 5827POPC   C4B20722   6.463  32.390   7.650
 5828POPC   NC320723  22.943  42.341   9.450
 5828POPC   PO420724  22.922  42.308   9.150
 5828POPC   GL120725  22.956  42.351   8.850
 5828POPC   GL220726  22.851  42.348   8.850
 5828POPC   C1A20727  22.897  42.322   8.550
 5828POPC   D2A20728  22.947  42.286   8.250
 5828POPC   C3A20729  22.903  42.289   7.950
 5828POPC   C4A20730  22.893  42.370   7.650
 5828POPC   C1B20731  22.741  42.411   8.550
 5828POPC   C2B20732  22.664  42.433   8.250
 5828POPC   C3B20733  22.713  42.439   7.950
 5828POPC   C4B20734  22.729  42.386   7.650
 5829POPC   NC320735  15.163  33.002   9.450
 5829POPC   PO420736  15.153  33.062   9.150
 5829POPC   GL120737  15.207  33.021   8.850
 5829POPC   GL220738  15.062  32.946   8.850
 5829POPC   C1A20739  15.193  33.045   8.550
 5829POPC   D2A20740  15.177  33.049   8.250
 5829POPC   C3A20741  15.219  32.992   7.950
 5829POPC   C4A20742  15.130  33.051   7.650
 5829POPC   C1B20743  14.900  32.939   8.550
 5829POPC   C2B20744  14.983  32.974   8.250
 5829POPC   C3B20745  14.976  32.930   7.950
 5829POPC   C4B20746  14.953  32.941   7.650
 5830POPC   NC320747   6.657  38.476   9.450
 5830POPC   PO420748   6.628  38.463   9.150
 5830POPC   GL120749   6.664  38.417   8.850
 5830POPC   GL220750   6.738  38.406   8.850
 5830POPC   C1A20751   6.612  38.485   8.550
 5830POPC   D2A20752   6.659  38.464   8.250
 5830POPC   C3A20753   6.607  38.436   7.950
 5830POPC   C4A20754   6.694  38.421   7.650
 5830POPC   C1B20755   6.942  38.478   8.550
 5830POPC   C2B20756   6.919  38.424   8.250
 5830POPC   C3B20757   6.933  38.420   7.950
 5830POPC   C4B20758   6.862  38.418   7.650
 5831POPC   NC320759  23.709  27.572   9.450
 5831POPC   PO420760  23.736  27.630   9.150
 5831POPC   GL120761  23.693  27.607   8.850
 5831POPC   GL220762  23.591  27.551   8.850
 5831POPC   C1A20763  23.717  27.629   8.550
 5831POPC   D2A20764  23.686  27.638   8.250
 5831POPC   C3A20765  23.728  27.585   7.950
 5831POPC   C4A20766  23.707  27.558   7.650
 5831POPC   C1B20767  23.459  27.580   8.550
 5831POPC   C2B20768  23.504  27.587   8.250
 5831POPC   C3B20769  23.502  27.585   7.950
 5831POPC   C4B20770  23.499  27.581   7.650
 5832POPC   NC320771  22.191   4.352   9.450
 5832POPC   PO420772  22.114   4.317   9.150
 5832POPC   GL120773  22.205   4.323   8.850
 5832POPC   GL220774  22.104   4.179   8.850
 5832POPC   C1A20775  22.167   4.349   8.550
 5832POPC   D2A20776  22.193   4.302   8.250
 5832POPC   C3A20777  22.132   4.295   7.950
 5832POPC   C4A20778  22.156   4.290   7.650
 5832POPC   C1B20779  22.029   4.125   8.550
 5832POPC   C2B20780  22.055   4.062   8.250
 5832POPC   C3B20781  22.051   4.126   7.950
 5832POPC   C4B20782  22.040   4.106   7.650
 5833POPC   NC320783  40.783  26.819   9.450
 5833POPC   PO420784  40.815  26.865   9.150
 5833POPC   GL120785  40.742  26.770   8.850
 5833POPC   GL220786  40.860  26.723   8.850
 5833POPC   C1A20787  40.770  26.858   8.550
 5833POPC   D2A20788  40.753  26.787   8.250
 5833POPC   C3A20789  40.734  26.793   7.950
 5833POPC   C4A20790  40.776  26.802   7.650
 5833POPC   C1B20791  41.052  26.768   8.550
 5833POPC   C2B20792  40.998  26.748   8.250
 5833POPC   C3B20793  41.022  26.684   7.950
 5833POPC   C4B20794  41.001  26.735   7.650
 5834POPC   NC320795   8.967  33.015   9.450
 5834POPC   PO420796   9.002  32.996   9.150
 5834POPC   GL120797   9.004  33.058   8.850
 5834POPC   GL220798   9.040  33.024   8.850
 5834POPC   C1A20799   9.011  33.015   8.550
 5834POPC   D2A20800   8.998  33.062   8.250
 5834POPC   C3A20801   9.007  33.058   7.950
 5834POPC   C4A20802   8.930  33.010   7.650
 5834POPC   C1B20803   9.192  32.954   8.550
 5834POPC   C2B20804   9.216  32.880   8.250
 5834POPC   C3B20805   9.222  32.899   7.950
 5834POPC   C4B20806   9.162  32.890   7.650
 5835POPC   NC320807  36.908  13.660   9.450
 5835POPC   PO420808  36.855  13.654   9.150
 5835POPC   GL120809  36.920  13.637   8.850
 5835POPC   GL220810  36.767  13.570   8.850
 5835POPC   C1A20811  36.946  13.612   8.550
 5835POPC   D2A20812  36.885  13.654   8.250
 5835POPC   C3A20813  36.856  13.586   7.950
 5835POPC   C4A20814  36.951  13.632   7.650
 5835POPC   C1B20815  36.711  13.449   8.550
 5835POPC   C2B20816  36.644  13.458   8.250
 5835POPC   C3B20817  36.710  13.459   7.950
 5835POPC   C4B20818  36.704  13.489   7.650
 5836POPC   NC320819  22.191  22.179   9.450
 5836POPC   PO420820  22.208  22.116   9.150
 5836POPC   GL120821  22.139  22.118   8.850
 5836POPC   GL220822  22.296  22.102   8.850
 5836POPC   C1A20823  22.128  22.197   8.550
 5836POPC   D2A20824  22.191  22.185   8.250
 5836POPC   C3A20825  22.212  22.138   7.950
 5836POPC   C4A20826  22.133  22.197   7.650
 5836POPC   C1B20827  22.378  22.020   8.550
 5836POPC   C2B20828  22.393  22.058   8.250
 5836POPC   C3B20829  22.340  22.027   7.950
 5836POPC   C4B20830  22.346  22.017   7.650
 5837POPC   NC320831  34.584   6.615   9.450
 5837POPC   PO420832  34.609   6.674   9.150
 5837POPC   GL120833  34.589   6.684   8.850
 5837POPC   GL220834  34.734   6.618   8.850
 5837POPC   C1A20835  34.566   6.600   8.550
 5837POPC   D2A20836  34.565   6.642   8.250
 5837POPC   C3A20837  34.590   6.628   7.950
 5837POPC   C4A20838  34.593   6.613   7.650
 5837POPC   C1B20839  34.798   6.577   8.550
 5837POPC   C2B20840  34.847   6.619   8.250
 5837POPC   C3B20841  34.833   6.570   7.950
 5837POPC   C4B20842  34.779   6.588   7.650
 5838POPC   NC320843  19.815  37.725   9.450
 5838POPC   PO420844  19.872  37.658   9.150
 5838POPC   GL120845  19.864  37.636   8.850
 5838POPC   GL220846  19.748  37.772   8.850
 5838POPC   C1A20847  19.818  37.677   8.550
 5838POPC   D2A20848  19.854  37.721   8.250
 5838POPC   C3A20849  19.797  37.630   7.950
 5838POPC   C4A20850  19.818  37.721   7.650
 5838POPC   C1B20851  19.619  37.742   8.550
 5838POPC   C2B20852  19.582  37.771   8.250
 5838POPC   C3B20853  19.637  37.797   7.950
 5838POPC   C4B20854  19.615  37.829   7.650
 5839POPC   NC320855  27.599  29.194   9.450
 5839POPC   PO420856  27.570  29.122   9.150
 5839POPC   GL120857  27.583  29.154   8.850
 5839POPC   GL220858  27.647  29.257   8.850
 5839POPC   C1A20859  27.596  29.117   8.550
 5839POPC   D2A20860  27.626  29.130   8.250
 5839POPC   C3A20861  27.559  29.117   7.950
 5839POPC   C4A20862  27.621  29.160   7.650
 5839POPC   C1B20863  27.774  29.301   8.550
 5839POPC   C2B20864  27.774  29.385   8.250
 5839POPC   C3B20865  27.732  29.392   7.950
 5839POPC   C4B20866  27.697  29.303   7.650
 5840POPC   NC320867  43.117   1.229   9.450
 5840POPC   PO420868  43.113   1.245   9.150
 5840POPC   GL120869  43.102   1.222   8.850
 5840POPC   GL220870  43.096   1.126   8.850
 5840POPC   C1A20871  43.085   1.210   8.550
 5840POPC   D2A20872  43.068   1.169   8.250
 5840POPC   C3A20873  43.063   1.231   7.950
 5840POPC   C4A20874  43.126   1.233   7.650
 5840POPC   C1B20875  43.008   0.967   8.550
 5840POPC   C2B20876  43.052   1.009   8.250
 5840POPC   C3B20877  43.071   0.991   7.950
 5840POPC   C4B20878  43.010   0.979   7.650
 5841POPC   NC320879   2.033  43.892   9.450
 5841POPC   PO420880   2.007  43.893   9.150
 5841POPC   GL120881   2.031  43.893   8.850
 5841POPC   GL220882   2.021  43.733   8.850
 5841POPC   C1A20883   2.016  43.898   8.550
 5841POPC   D2A20884   2.018  43.837   8.250
 5841POPC   C3A20885   1.993  43.921   7.950
 5841POPC   C4A20886   1.980  43.908   7.650
 5841POPC   C1B20887   1.967  43.668   8.550
 5841POPC   C2B20888   1.977  43.607   8.250
 5841POPC   C3B20889   2.004  43.664   7.950
 5841POPC   C4B20890   2.047  43.602   7.650
 5842POPC   NC320891  43.074  15.188   9.450
 5842POPC   PO420892  43.148  15.217   9.150
 5842POPC   GL120893  43.113  15.226   8.850
 5842POPC   GL220894  43.031  15.113   8.850
 5842POPC   C1A20895  43.061  15.228   8.550
 5842POPC   D2A20896  43.138  15.190   8.250
 5842POPC   C3A20897  43.113  15.139   7.950
 5842POPC   C4A20898  43.152  15.217   7.650
 5842POPC   C1B20899  42.844  15.096   8.550
 5842POPC   C2B20900  42.857  15.095   8.250
 5842POPC   C3B20901  42.869  15.097   7.950
 5842POPC   C4B20902  42.836  15.089   7.650
 5843POPC   NC320903   1.210   9.705   9.450
 5843POPC   PO420904   1.190   9.775   9.150
 5843POPC   GL120905   1.205   9.710   8.850
 5843POPC   GL220906   1.191   9.913   8.850
 5843POPC   C1A20907   1.194   9.776   8.550
 5843POPC   D2A20908   1.187   9.792   8.250
 5843POPC   C3A20909   1.188   9.721   7.950
 5843POPC   C4A20910   1.244   9.703   7.650
 5843POPC   C1B20911   1.238   9.972   8.550
 5843POPC   C2B20912   1.155  10.007   8.250
 5843POPC   C3B20913   1.174  10.026   7.950
 5843POPC   C4B20914   1.183   9.987   7.650
 5844POPC   NC320915   5.905   4.306   9.450
 5844POPC   PO420916   5.866   4.365   9.150
 5844POPC   GL120917   5.896   4.344   8.850
 5844POPC   GL220918   5.729   4.202   8.850
 5844POPC   C1A20919   5.842   4.274   8.550
 5844POPC   D2A20920   5.856   4.326   8.250
 5844POPC   C3A20921   5.878   4.277   7.950
 5844POPC   C4A20922   5.919   4.277   7.650
 5844POPC   C1B20923   5.686   4.114   8.550
 5844POPC   C2B20924   5.718   4.130   8.250
 5844POPC   C3B20925   5.655   4.162   7.950
 5844POPC   C4B20926   5.697   4.151   7.650
 5845POPC   NC320927  28.407  43.845   9.450
 5845POPC   PO420928  28.412  43.900   9.150
 5845POPC   GL120929  28.368  43.843   8.850
 5845POPC   GL220930  28.473  43.953   8.850
 5845POPC   C1A20931  28.410  43.861   8.550
 5845POPC   D2A20932  28.400  43.875   8.250
 5845POPC   C3A20933  28.345  43.910   7.950
 5845POPC   C4A20934  28.331  43.896   7.650
 5845POPC   C1B20935  28.559  43.982   8.550
 5845POPC   C2B20936  28.634  43.967   8.250
 5845POPC   C3B20937  28.635  43.990   7.950
 5845POPC   C4B20938  28.586  44.003   7.650
 5846POPC   NC320939  21.379   8.940   9.450
 5846POPC   PO420940  21.339   9.002   9.150
 5846POPC   GL120941  21.418   9.009   8.850
 5846POPC   GL220942  21.361   8.849   8.850
 5846POPC   C1A20943  21.388   8.958   8.550
 5846POPC   D2A20944  21.360   8.924   8.250
 5846POPC   C3A20945  21.390   8.981   7.950
 5846POPC   C4A20946  21.410   8.952   7.650
 5846POPC   C1B20947  21.380   8.765   8.550
 5846POPC   C2B20948  21.361   8.674   8.250
 5846POPC   C3B20949  21.373   8.719   7.950
 5846POPC   C4B20950  21.358   8.686   7.650
 5847POPC   NC320951   1.172  26.808   9.450
 5847POPC   PO420952   1.184  26.786   9.150
 5847POPC   GL120953   1.252  26.787   8.850
 5847POPC   GL220954   1.092  26.700   8.850
 5847POPC   C1A20955   1.190  26.839   8.550
 5847POPC   D2A20956   1.255  26.834   8.250
 5847POPC   C3A20957   1.242  26.783   7.950
 5847POPC   C4A20958   1.186  26.815   7.650
 5847POPC   C1B20959   1.063  26.604   8.550
 5847POPC   C2B20960   1.092  26.676   8.250
 5847POPC   C3B20961   1.090  26.601   7.950
 5847POPC   C4B20962   1.086  26.632   7.650
 5848POPC   NC320963  43.154  31.498   9.450
 5848POPC   PO420964  43.132  31.496   9.150
 5848POPC   GL120965  43.154  31.424   8.850
 5848POPC   GL220966  43.176  31.542   8.850
 5848POPC   C1A20967  43.142  31.475   8.550
 5848POPC   D2A20968  43.126  31.435   8.250
 5848POPC   C3A20969  43.103  31.434   7.950
 5848POPC   C4A20970  43.097  31.504   7.650
 5848POPC   C1B20971  43.284  31.670   8.550
 5848POPC   C2B20972  43.264  31.729   8.250
 5848POPC   C3B20973  43.249  31.675   7.950
 5848POPC   C4B20974  43.226  31.655   7.650
 5849POPC   NC320975  22.181   5.846   9.450
 5849POPC   PO420976  22.170   5.827   9.150
 5849POPC   GL120977  22.191   5.896   8.850
 5849POPC   GL220978  22.151   5.772   8.850
 5849POPC   C1A20979  22.173   5.870   8.550
 5849POPC   D2A20980  22.154   5.822   8.250
 5849POPC   C3A20981  22.150   5.822   7.950
 5849POPC   C4A20982  22.153   5.905   7.650
 5849POPC   C1B20983  22.237   5.585   8.550
 5849POPC   C2B20984  22.262   5.593   8.250
 5849POPC   C3B20985  22.199   5.618   7.950
 5849POPC   C4B20986  22.228   5.641   7.650
 5850POPC   NC320987  43.120  16.751   9.450
 5850POPC   PO420988  43.155  16.768   9.150
 5850POPC   GL120989  43.103  16.745   8.850
 5850POPC   GL220990  43.191  16.818   8.850
 5850POPC   C1A20991  43.105  16.727   8.550
 5850POPC   D2A20992  43.148  16.757   8.250
 5850POPC   C3A20993  43.127  16.711   7.950
 5850POPC   C4A20994  43.088  16.733   7.650
 5850POPC   C1B20995  43.244  16.937   8.550
 5850POPC   C2B20996  43.251  16.909   8.250
 5850POPC   C3B20997  43.214  16.926   7.950
 5850POPC   C4B20998  43.250  16.918   7.650
 5851POPC   NC320999  34.541  15.206   9.450
 5851POPC   PO421000  34.563  15.193   9.150
 5851POPC   GL121001  34.623  15.133   8.850
 5851POPC   GL221002  34.654  15.251   8.850
 5851POPC   C1A21003  34.599  15.137   8.550
 5851POPC   D2A21004  34.545  15.225   8.250
 5851POPC   C3A21005  34.581  15.148   7.950
 5851POPC   C4A21006  34.561  15.193   7.650
 5851POPC   C1B21007  34.775  15.252   8.550
 5851POPC   C2B21008  34.826  15.292   8.250
 5851POPC   C3B21009  34.753  15.275   7.950
 5851POPC   C4B21010  34.839  15.328   7.650
 5852POPC   NC321011  15.194  40.037   9.450
 5852POPC   PO421012  15.143  40.050   9.150
 5852POPC   GL121013  15.189  40.001   8.850
 5852POPC   GL221014  15.155  39.931   8.850
 5852POPC   C1A21015  15.151  39.967   8.550
 5852POPC   D2A21016  15.153  39.973   8.250
 5852POPC   C3A21017  15.163  40.011   7.950
 5852POPC   C4A21018  15.215  40.047   7.650
 5852POPC   C1B21019  15.221  39.759   8.550
 5852POPC   C2B21020  15.170  39.713   8.250
 5852POPC   C3B21021  15.197  39.739   7.950
 5852POPC   C4B21022  15.214  39.745   7.650
 5853POPC   NC321023  10.539  24.443   9.450
 5853POPC   PO421024  10.522  24.475   9.150
 5853POPC   GL121025  10.509  24.493   8.850
 5853POPC   GL221026  10.542  24.372   8.850
 5853POPC   C1A21027  10.513  24.453   8.550
 5853POPC   D2A21028  10.558  24.518   8.250
 5853POPC   C3A21029  10.499  24.467   7.950
 5853POPC   C4A21030  10.481  24.495   7.650
 5853POPC   C1B21031  10.480  24.245   8.550
 5853POPC   C2B21032  10.457  24.287   8.250
 5853POPC   C3B21033  10.505  24.218   7.950
 5853POPC   C4B21034  10.544  24.217   7.650
 5854POPC   NC321035  18.243   2.812   9.450
 5854POPC   PO421036  18.272   2.783   9.150
 5854POPC   GL121037  18.314   2.717   8.850
 5854POPC   GL221038  18.354   2.606   8.850
 5854POPC   C1A21039  18.285   2.805   8.550
 5854POPC   D2A21040  18.325   2.779   8.250
 5854POPC   C3A21041  18.292   2.755   7.950
 5854POPC   C4A21042  18.324   2.797   7.650
 5854POPC   C1B21043  18.400   2.548   8.550
 5854POPC   C2B21044  18.350   2.515   8.250
 5854POPC   C3B21045  18.367   2.559   7.950
 5854POPC   C4B21046  18.328   2.552   7.650
 5855POPC   NC321047  44.616  37.694   9.450
 5855POPC   PO421048  44.691  37.710   9.150
 5855POPC   GL121049  44.653  37.712   8.850
 5855POPC   GL221050  44.777  37.762   8.850
 5855POPC   C1A21051  44.671  37.706   8.550
 5855POPC   D2A21052  44.614  37.644   8.250
 5855POPC   C3A21053  44.678  37.717   7.950
 5855POPC   C4A21054  44.666  37.668   7.650
 5855POPC   C1B21055  44.867  37.836   8.550
 5855POPC   C2B21056  44.886  37.893   8.250
 5855POPC   C3B21057  44.805  37.816   7.950
 5855POPC   C4B21058  44.835  37.811   7.650
 5856POPC   NC321059  35.388  22.897   9.450
 5856POPC   PO421060  35.325  22.958   9.150
 5856POPC   GL121061  35.374  22.940   8.850
 5856POPC   GL221062  35.303  22.848   8.850
 5856POPC   C1A21063  35.331  22.901   8.550
 5856POPC   D2A21064  35.315  22.898   8.250
 5856POPC   C3A21065  35.338  22.902   7.950
 5856POPC   C4A21066  35.305  22.902   7.650
 5856POPC   C1B21067  35.255  22.739   8.550
 5856POPC   C2B21068  35.295  22.659   8.250
 5856POPC   C3B21069  35.288  22.743   7.950
 5856POPC   C4B21070  35.239  22.741   7.650
 5857POPC   NC321071  11.347  21.367   9.450
 5857POPC   PO421072  11.265  21.368   9.150
 5857POPC   GL121073  11.347  21.428   8.850
 5857POPC   GL221074  11.309  21.545   8.850
 5857POPC   C1A21075  11.288  21.416   8.550
 5857POPC   D2A21076  11.256  21.427   8.250
 5857POPC   C3A21077  11.338  21.389   7.950
 5857POPC   C4A21078  11.254  21.391   7.650
 5857POPC   C1B21079  11.305  21.609   8.550
 5857POPC   C2B21080  11.300  21.633   8.250
 5857POPC   C3B21081  11.334  21.585   7.950
 5857POPC   C4B21082  11.297  21.654   7.650
 5858POPC   NC321083  39.990   6.673   9.450
 5858POPC   PO421084  40.048   6.681   9.150
 5858POPC   GL121085  40.010   6.621   8.850
 5858POPC   GL221086  39.872   6.654   8.850
 5858POPC   C1A21087  39.988   6.626   8.550
 5858POPC   D2A21088  40.039   6.624   8.250
 5858POPC   C3A21089  40.005   6.665   7.950
 5858POPC   C4A21090  39.979   6.683   7.650
 5858POPC   C1B21091  39.793   6.582   8.550
 5858POPC   C2B21092  39.776   6.546   8.250
 5858POPC   C3B21093  39.760   6.572   7.950
 5858POPC   C4B21094  39.722   6.577   7.650
 5859POPC   NC321095  26.842  10.567   9.450
 5859POPC   PO421096  26.805  10.485   9.150
 5859POPC   GL121097  26.790  10.508   8.850
 5859POPC   GL221098  26.758  10.386   8.850
 5859POPC   C1A21099  26.861  10.508   8.550
 5859POPC   D2A21100  26.852  10.568   8.250
 5859POPC   C3A21101  26.863  10.513   7.950
 5859POPC   C4A21102  26.789  10.536   7.650
 5859POPC   C1B21103  26.692  10.323   8.550
 5859POPC   C2B21104  26.781  10.237   8.250
 5859POPC   C3B21105  26.703  10.269   7.950
 5859POPC   C4B21106  26.765  10.308   7.650
 5860POPC   NC321107  30.684  12.893   9.450
 5860POPC   PO421108  30.676  12.879   9.150
 5860POPC   GL121109  30.739  12.826   8.850
 5860POPC   GL221110  30.597  12.902   8.850
 5860POPC   C1A21111  30.663  12.871   8.550
 5860POPC   D2A21112  30.704  12.812   8.250
 5860POPC   C3A21113  30.709  12.826   7.950
 5860POPC   C4A21114  30.711  12.870   7.650
 5860POPC   C1B21115  30.497  13.001   8.550
 5860POPC   C2B21116  30.472  13.025   8.250
 5860POPC   C3B21117  30.482  12.958   7.950
 5860POPC   C4B21118  30.481  13.035   7.650
 5861POPC   NC321119  20.641   2.004   9.450
 5861POPC   PO421120  20.569   1.987   9.150
 5861POPC   GL121121  20.601   2.024   8.850
 5861POPC   GL221122  20.725   2.029   8.850
 5861POPC   C1A21123  20.624   1.949   8.550
 5861POPC   D2A21124  20.581   2.022   8.250
 5861POPC   C3A21125  20.574   2.008   7.950
 5861POPC   C4A21126  20.653   1.987   7.650
 5861POPC   C1B21127  20.797   2.138   8.550
 5861POPC   C2B21128  20.873   2.133   8.250
 5861POPC   C3B21129  20.803   2.143   7.950
 5861POPC   C4B21130  20.783   2.080   7.650
 5862POPC   NC321131  35.340  43.921   9.450
 5862POPC   PO421132  35.320  43.869   9.150
 5862POPC   GL121133  35.318  43.887   8.850
 5862POPC   GL221134  35.375  43.804   8.850
 5862POPC   C1A21135  35.398  43.915   8.550
 5862POPC   D2A21136  35.331  43.853   8.250
 5862POPC   C3A21137  35.365  43.837   7.950
 5862POPC   C4A21138  35.366  43.853   7.650
 5862POPC   C1B21139  35.353  43.608   8.550
 5862POPC   C2B21140  35.301  43.670   8.250
 5862POPC   C3B21141  35.337  43.663   7.950
 5862POPC   C4B21142  35.301  43.673   7.650
 5863POPC   NC321143   0.418   8.953   9.450
 5863POPC   PO421144   0.473   8.950   9.150
 5863POPC   GL121145   0.415   8.935   8.850
 5863POPC   GL221146   0.595   8.966   8.850
 5863POPC   C1A21147   0.439   9.004   8.550
 5863POPC   D2A21148   0.469   8.966   8.250
 5863POPC   C3A21149   0.393   8.989   7.950
 5863POPC   C4A21150   0.403   8.964   7.650
 5863POPC   C1B21151   0.687   8.869   8.550
 5863POPC   C2B21152   0.712   8.903   8.250
 5863POPC   C3B21153   0.706   8.871   7.950
 5863POPC   C4B21154   0.689   8.909   7.650
 5864POPC   NC321155   1.217  26.004   9.450
 5864POPC   PO421156   1.249  26.069   9.150
 5864POPC   GL121157   1.257  26.027   8.850
 5864POPC   GL221158   1.092  25.979   8.850
 5864POPC   C1A21159   1.216  26.009   8.550
 5864POPC   D2A21160   1.235  26.079   8.250
 5864POPC   C3A21161   1.207  26.053   7.950
 5864POPC   C4A21162   1.192  26.058   7.650
 5864POPC   C1B21163   0.939  25.961   8.550
 5864POPC   C2B21164   0.930  25.952   8.250
 5864POPC   C3B21165   0.964  25.982   7.950
 5864POPC   C4B21166   1.015  25.995   7.650
 5865POPC   NC321167  12.869  26.055   9.450
 5865POPC   PO421168  12.891  26.074   9.150
 5865POPC   GL121169  12.893  26.069   8.850
 5865POPC   GL221170  12.817  25.881   8.850
 5865POPC   C1A21171  12.861  26.039   8.550
 5865POPC   D2A21172  12.812  26.044   8.250
 5865POPC   C3A21173  12.848  26.053   7.950
 5865POPC   C4A21174  12.854  26.058   7.650
 5865POPC   C1B21175  12.846  25.833   8.550
 5865POPC   C2B21176  12.791  25.755   8.250
 5865POPC   C3B21177  12.811  25.818   7.950
 5865POPC   C4B21178  12.843  25.811   7.650
 5866POPC   NC321179  36.874  14.389   9.450
 5866POPC   PO421180  36.936  14.444   9.150
 5866POPC   GL121181  36.884  14.401   8.850
 5866POPC   GL221182  36.967  14.328   8.850
 5866POPC   C1A21183  36.875  14.364   8.550
 5866POPC   D2A21184  36.936  14.419   8.250
 5866POPC   C3A21185  36.870  14.360   7.950
 5866POPC   C4A21186  36.925  14.372   7.650
 5866POPC   C1B21187  37.009  14.158   8.550
 5866POPC   C2B21188  36.976  14.134   8.250
 5866POPC   C3B21189  36.989  14.154   7.950
 5866POPC   C4B21190  36.957  14.206   7.650
 5867POPC   NC321191  13.588   5.048   9.450
 5867POPC   PO421192  13.632   5.096   9.150
 5867POPC   GL121193  13.659   5.059   8.850
 5867POPC   GL221194  13.546   5.144   8.850
 5867POPC   C1A21195  13.604   5.121   8.550
 5867POPC   D2A21196  13.665   5.119   8.250
 5867POPC   C3A21197  13.673   5.098   7.950
 5867POPC   C4A21198  13.609   5.045   7.650
 5867POPC   C1B21199  13.426   5.240   8.550
 5867POPC   C2B21200  13.384   5.209   8.250
 5867POPC   C3B21201  13.408   5.235   7.950
 5867POPC   C4B21202  13.392   5.265   7.650
 5868POPC   NC321203  20.577  43.916   9.450
 5868POPC   PO421204  20.573  43.892   9.150
 5868POPC   GL121205  20.573  43.928   8.850
 5868POPC   GL221206  20.634  43.712   8.850
 5868POPC   C1A21207  20.598  43.887   8.550
 5868POPC   D2A21208  20.632  43.877   8.250
 5868POPC   C3A21209  20.630  43.880   7.950
 5868POPC   C4A21210  20.570  43.876   7.650
 5868POPC   C1B21211  20.591  43.654   8.550
 5868POPC   C2B21212  20.611  43.594   8.250
 5868POPC   C3B21213  20.636  43.619   7.950
 5868POPC   C4B21214  20.607  43.619   7.650
 5869POPC   NC321215  29.165  10.509   9.450
 5869POPC   PO421216  29.130  10.539   9.150
 5869POPC   GL121217  29.152  10.483   8.850
 5869POPC   GL221218  29.247  10.428   8.850
 5869POPC   C1A21219  29.146  10.488   8.550
 5869POPC   D2A21220  29.187  10.509   8.250
 5869POPC   C3A21221  29.162  10.545   7.950
 5869POPC   C4A21222  29.162  10.483   7.650
 5869POPC   C1B21223  29.267  10.299   8.550
 5869POPC   C2B21224  29.234  10.320   8.250
 5869POPC   C3B21225  29.311  10.272   7.950
 5869POPC   C4B21226  29.238  10.354   7.650
 5870POPC   NC321227  27.565  38.480   9.450
 5870POPC   PO421228  27.594  38.496   9.150
 5870POPC   GL121229  27.584  38.500   8.850
 5870POPC   GL221230  27.507  38.533   8.850
 5870POPC   C1A21231  27.578  38.496   8.550
 5870POPC   D2A21232  27.602  38.472   8.250
 5870POPC   C3A21233  27.582  38.454   7.950
 5870POPC   C4A21234  27.547  38.456   7.650
 5870POPC   C1B21235  27.402  38.675   8.550
 5870POPC   C2B21236  27.388  38.672   8.250
 5870POPC   C3B21237  27.443  38.654   7.950
 5870POPC   C4B21238  27.436  38.691   7.650
 5871POPC   NC321239  23.713  40.733   9.450
 5871POPC   PO421240  23.731  40.759   9.150
 5871POPC   GL121241  23.688  40.753   8.850
 5871POPC   GL221242  23.759  40.840   8.850
 5871POPC   C1A21243  23.671  40.784   8.550
 5871POPC   D2A21244  23.697  40.796   8.250
 5871POPC   C3A21245  23.717  40.815   7.950
 5871POPC   C4A21246  23.708  40.826   7.650
 5871POPC   C1B21247  23.847  40.990   8.550
 5871POPC   C2B21248  23.849  40.928   8.250
 5871POPC   C3B21249  23.839  40.997   7.950
 5871POPC   C4B21250  23.881  40.948   7.650
 5872POPC   NC321251  29.886  12.833   9.450
 5872POPC   PO421252  29.923  12.831   9.150
 5872POPC   GL121253  29.916  12.871   8.850
 5872POPC   GL221254  29.826  12.916   8.850
 5872POPC   C1A21255  29.964  12.846   8.550
 5872POPC   D2A21256  29.959  12.844   8.250
 5872POPC   C3A21257  29.876  12.847   7.950
 5872POPC   C4A21258  29.969  12.865   7.650
 5872POPC   C1B21259  29.696  13.031   8.550
 5872POPC   C2B21260  29.759  13.068   8.250
 5872POPC   C3B21261  29.716  13.065   7.950
 5872POPC   C4B21262  29.696  13.034   7.650
 5873POPC   NC321263  17.531  41.581   9.450
 5873POPC   PO421264  17.548  41.522   9.150
 5873POPC   GL121265  17.531  41.559   8.850
 5873POPC   GL221266  17.476  41.412   8.850
 5873POPC   C1A21267  17.486  41.595   8.550
 5873POPC   D2A21268  17.491  41.530   8.250
 5873POPC   C3A21269  17.531  41.608   7.950
 5873POPC   C4A21270  17.460  41.530   7.650
 5873POPC   C1B21271  17.395  41.329   8.550
 5873POPC   C2B21272  17.414  41.347   8.250
 5873POPC   C3B21273  17.456  41.342   7.950
 5873POPC   C4B21274  17.458  41.297   7.650
 5874POPC   NC321275   1.260   8.968   9.450
 5874POPC   PO421276   1.231   8.992   9.150
 5874POPC   GL121277   1.205   8.940   8.850
 5874POPC   GL221278   1.301   8.886   8.850
 5874POPC   C1A21279   1.170   8.988   8.550
 5874POPC   D2A21280   1.202   8.929   8.250
 5874POPC   C3A21281   1.218   8.976   7.950
 5874POPC   C4A21282   1.183   9.005   7.650
 5874POPC   C1B21283   1.478   8.920   8.550
 5874POPC   C2B21284   1.451   8.847   8.250
 5874POPC   C3B21285   1.441   8.900   7.950
 5874POPC   C4B21286   1.432   8.858   7.650
 5875POPC   NC321287  39.253  28.361   9.450
 5875POPC   PO421288  39.222  28.345   9.150
 5875POPC   GL121289  39.271  28.332   8.850
 5875POPC   GL221290  39.247  28.438   8.850
 5875POPC   C1A21291  39.264  28.400   8.550
 5875POPC   D2A21292  39.233  28.328   8.250
 5875POPC   C3A21293  39.210  28.327   7.950
 5875POPC   C4A21294  39.216  28.327   7.650
 5875POPC   C1B21295  39.322  28.614   8.550
 5875POPC   C2B21296  39.313  28.574   8.250
 5875POPC   C3B21297  39.298  28.563   7.950
 5875POPC   C4B21298  39.304  28.570   7.650
 5876POPC   NC321299  39.281  10.517   9.450
 5876POPC   PO421300  39.254  10.525   9.150
 5876POPC   GL121301  39.192  10.528   8.850
 5876POPC   GL221302  39.337  10.538   8.850
 5876POPC   C1A21303  39.254  10.514   8.550
 5876POPC   D2A21304  39.246  10.536   8.250
 5876POPC   C3A21305  39.241  10.474   7.950
 5876POPC   C4A21306  39.230  10.548   7.650
 5876POPC   C1B21307  39.444  10.477   8.550
 5876POPC   C2B21308  39.450  10.423   8.250
 5876POPC   C3B21309  39.465  10.476   7.950
 5876POPC   C4B21310  39.460  10.469   7.650
 5877POPC   NC321311  37.687  41.590   9.450
 5877POPC   PO421312  37.720  41.565   9.150
 5877POPC   GL121313  37.718  41.549   8.850
 5877POPC   GL221314  37.647  41.655   8.850
 5877POPC   C1A21315  37.673  41.589   8.550
 5877POPC   D2A21316  37.699  41.579   8.250
 5877POPC   C3A21317  37.706  41.540   7.950
 5877POPC   C4A21318  37.672  41.546   7.650
 5877POPC   C1B21319  37.650  41.802   8.550
 5877POPC   C2B21320  37.651  41.787   8.250
 5877POPC   C3B21321  37.650  41.824   7.950
 5877POPC   C4B21322  37.636  41.789   7.650
 5878POPC   NC321323   0.393  22.165   9.450
 5878POPC   PO421324   0.391  22.181   9.150
 5878POPC   GL121325   0.455  22.199   8.850
 5878POPC   GL221326   0.315  22.153   8.850
 5878POPC   C1A21327   0.443  22.203   8.550
 5878POPC   D2A21328   0.411  22.158   8.250
 5878POPC   C3A21329   0.471  22.122   7.950
 5878POPC   C4A21330   0.423  22.205   7.650
 5878POPC   C1B21331   0.221  22.285   8.550
 5878POPC   C2B21332   0.202  22.260   8.250
 5878POPC   C3B21333   0.151  22.284   7.950
 5878POPC   C4B21334   0.195  22.243   7.650
 5879POPC   NC321335   3.527   2.780   9.450
 5879POPC   PO421336   3.536   2.799   9.150
 5879POPC   GL121337   3.529   2.760   8.850
 5879POPC   GL221338   3.554   2.681   8.850
 5879POPC   C1A21339   3.553   2.744   8.550
 5879POPC   D2A21340   3.500   2.808   8.250
 5879POPC   C3A21341   3.573   2.762   7.950
 5879POPC   C4A21342   3.497   2.719   7.650
 5879POPC   C1B21343   3.513   2.558   8.550
 5879POPC   C2B21344   3.503   2.478   8.250
 5879POPC   C3B21345   3.539   2.498   7.950
 5879POPC   C4B21346   3.487   2.567   7.650
 5880POPC   NC321347  13.640   8.218   9.450
 5880POPC   PO421348  13.663   8.176   9.150
 5880POPC   GL121349  13.640   8.242   8.850
 5880POPC   GL221350  13.742   8.178   8.850
 5880POPC   C1A21351  13.676   8.230   8.550
 5880POPC   D2A21352  13.601   8.151   8.250
 5880POPC   C3A21353  13.623   8.226   7.950
 5880POPC   C4A21354  13.636   8.156   7.650
 5880POPC   C1B21355  13.882   8.052   8.550
 5880POPC   C2B21356  13.867   8.056   8.250
 5880POPC   C3B21357  13.887   8.095   7.950
 5880POPC   C4B21358  13.876   8.087   7.650
 5881POPC   NC321359  22.194   0.466   9.450
 5881POPC   PO421360  22.164   0.403   9.150
 5881POPC   GL121361  22.183   0.459   8.850
 5881POPC   GL221362  22.269   0.480   8.850
 5881POPC   C1A21363  22.202   0.411   8.550
 5881POPC   D2A21364  22.186   0.435   8.250
 5881POPC   C3A21365  22.145   0.427   7.950
 5881POPC   C4A21366  22.120   0.388   7.650
 5881POPC   C1B21367  22.404   0.505   8.550
 5881POPC   C2B21368  22.373   0.488   8.250
 5881POPC   C3B21369  22.421   0.514   7.950
 5881POPC   C4B21370  22.448   0.529   7.650
 5882POPC   NC321371  15.132  19.083   9.450
 5882POPC   PO421372  15.168  19.052   9.150
 5882POPC   GL121373  15.227  19.023   8.850
 5882POPC   GL221374  15.277  18.997   8.850
 5882POPC   C1A21375  15.133  19.026   8.550
 5882POPC   D2A21376  15.223  19.049   8.250
 5882POPC   C3A21377  15.185  19.032   7.950
 5882POPC   C4A21378  15.157  19.016   7.650
 5882POPC   C1B21379  15.312  18.858   8.550
 5882POPC   C2B21380  15.329  18.818   8.250
 5882POPC   C3B21381  15.312  18.867   7.950
 5882POPC   C4B21382  15.362  18.901   7.650
 5883POPC   NC321383  14.399  19.878   9.450
 5883POPC   PO421384  14.440  19.830   9.150
 5883POPC   GL121385  14.449  19.823   8.850
 5883POPC   GL221386  14.406  19.992   8.850
 5883POPC   C1A21387  14.407  19.828   8.550
 5883POPC   D2A21388  14.384  19.798   8.250
 5883POPC   C3A21389  14.407  19.790   7.950
 5883POPC   C4A21390  14.360  19.819   7.650
 5883POPC   C1B21391  14.341  20.120   8.550
 5883POPC   C2B21392  14.338  20.049   8.250
 5883POPC   C3B21393  14.372  20.038   7.950
 5883POPC   C4B21394  14.361  20.051   7.650
 5884POPC   NC321395  37.682  30.713   9.450
 5884POPC   PO421396  37.632  30.731   9.150
 5884POPC   GL121397  37.660  30.695   8.850
 5884POPC   GL221398  37.775  30.755   8.850
 5884POPC   C1A21399  37.727  30.705   8.550
 5884POPC   D2A21400  37.638  30.725   8.250
 5884POPC   C3A21401  37.633  30.668   7.950
 5884POPC   C4A21402  37.650  30.653   7.650
 5884POPC   C1B21403  37.880  30.768   8.550
 5884POPC   C2B21404  37.913  30.791   8.250
 5884POPC   C3B21405  37.883  30.772   7.950
 5884POPC   C4B21406  37.948  30.770   7.650
 5885POPC   NC321407  13.637  34.611   9.450
 5885POPC   PO421408  13.650  34.607   9.150
 5885POPC   GL121409  13.597  34.587   8.850
 5885POPC   GL221410  13.530  34.519   8.850
 5885POPC   C1A21411  13.615  34.610   8.550
 5885POPC   D2A21412  13.640  34.601   8.250
 5885POPC   C3A21413  13.580  34.563   7.950
 5885POPC   C4A21414  13.610  34.542   7.650
 5885POPC   C1B21415  13.425  34.459   8.550
 5885POPC   C2B21416  13.385  34.473   8.250
 5885POPC   C3B21417  13.412  34.433   7.950
 5885POPC   C4B21418  13.408  34.419   7.650
 5886POPC   NC321419  16.712  21.347   9.450
 5886POPC   PO421420  16.709  21.399   9.150
 5886POPC   GL121421  16.715  21.389   8.850
 5886POPC   GL221422  16.715  21.294   8.850
 5886POPC   C1A21423  16.721  21.366   8.550
 5886POPC   D2A21424  16.765  21.387   8.250
 5886POPC   C3A21425  16.691  21.405   7.950
 5886POPC   C4A21426  16.780  21.425   7.650
 5886POPC   C1B21427  16.589  21.197   8.550
 5886POPC   C2B21428  16.666  21.118   8.250
 5886POPC   C3B21429  16.612  21.112   7.950
 5886POPC   C4B21430  16.627  21.137   7.650
 5887POPC   NC321431   9.753  23.745   9.450
 5887POPC   PO421432   9.728  23.669   9.150
 5887POPC   GL121433   9.751  23.690   8.850
 5887POPC   GL221434   9.681  23.563   8.850
 5887POPC   C1A21435   9.766  23.710   8.550
 5887POPC   D2A21436   9.783  23.716   8.250
 5887POPC   C3A21437   9.785  23.739   7.950
 5887POPC   C4A21438   9.733  23.761   7.650
 5887POPC   C1B21439   9.638  23.473   8.550
 5887POPC   C2B21440   9.717  23.514   8.250
 5887POPC   C3B21441   9.730  23.498   7.950
 5887POPC   C4B21442   9.725  23.491   7.650
 5888POPC   NC321443  34.626  36.933   9.450
 5888POPC   PO421444  34.574  36.871   9.150
 5888POPC   GL121445  34.533  36.923   8.850
 5888POPC   GL221446  34.512  36.992   8.850
 5888POPC   C1A21447  34.616  36.921   8.550
 5888POPC   D2A21448  34.567  36.944   8.250
 5888POPC   C3A21449  34.529  36.905   7.950
 5888POPC   C4A21450  34.574  36.888   7.650
 5888POPC   C1B21451  34.508  37.159   8.550
 5888POPC   C2B21452  34.467  37.108   8.250
 5888POPC   C3B21453  34.493  37.149   7.950
 5888POPC   C4B21454  34.451  37.173   7.650
 5889POPC   NC321455  36.176  37.635   9.450
 5889POPC   PO421456  36.117  37.665   9.150
 5889POPC   GL121457  36.122  37.666   8.850
 5889POPC   GL221458  36.163  37.832   8.850
 5889POPC   C1A21459  36.079  37.725   8.550
 5889POPC   D2A21460  36.122  37.702   8.250
 5889POPC   C3A21461  36.123  37.678   7.950
 5889POPC   C4A21462  36.175  37.643   7.650
 5889POPC   C1B21463  36.157  37.920   8.550
 5889POPC   C2B21464  36.165  37.903   8.250
 5889POPC   C3B21465  36.249  37.875   7.950
 5889POPC   C4B21466  36.229  37.925   7.650
 5890POPC   NC321467  22.931   6.597   9.450
 5890POPC   PO421468  22.937   6.628   9.150
 5890POPC   GL121469  22.930   6.626   8.850
 5890POPC   GL221470  22.976   6.737   8.850
 5890POPC   C1A21471  22.910   6.652   8.550
 5890POPC   D2A21472  22.906   6.682   8.250
 5890POPC   C3A21473  22.933   6.678   7.950
 5890POPC   C4A21474  22.916   6.631   7.650
 5890POPC   C1B21475  22.947   6.854   8.550
 5890POPC   C2B21476  23.031   6.920   8.250
 5890POPC   C3B21477  23.035   6.886   7.950
 5890POPC   C4B21478  23.007   6.844   7.650
 5891POPC   NC321479  41.513  22.958   9.450
 5891POPC   PO421480  41.524  22.975   9.150
 5891POPC   GL121481  41.548  22.929   8.850
 5891POPC   GL221482  41.554  23.056   8.850
 5891POPC   C1A21483  41.519  22.973   8.550
 5891POPC   D2A21484  41.535  22.900   8.250
 5891POPC   C3A21485  41.531  22.941   7.950
 5891POPC   C4A21486  41.567  22.911   7.650
 5891POPC   C1B21487  41.582  23.162   8.550
 5891POPC   C2B21488  41.570  23.214   8.250
 5891POPC   C3B21489  41.544  23.187   7.950
 5891POPC   C4B21490  41.553  23.192   7.650
 5892POPC   NC321491  20.568  29.118   9.450
 5892POPC   PO421492  20.610  29.183   9.150
 5892POPC   GL121493  20.619  29.164   8.850
 5892POPC   GL221494  20.760  29.077   8.850
 5892POPC   C1A21495  20.615  29.178   8.550
 5892POPC   D2A21496  20.595  29.146   8.250
 5892POPC   C3A21497  20.643  29.137   7.950
 5892POPC   C4A21498  20.654  29.163   7.650
 5892POPC   C1B21499  20.894  29.041   8.550
 5892POPC   C2B21500  20.817  29.053   8.250
 5892POPC   C3B21501  20.825  29.140   7.950
 5892POPC   C4B21502  20.836  29.139   7.650
 5893POPC   NC321503  19.827   4.270   9.450
 5893POPC   PO421504  19.813   4.329   9.150
 5893POPC   GL121505  19.814   4.282   8.850
 5893POPC   GL221506  19.796   4.463   8.850
 5893POPC   C1A21507  19.793   4.327   8.550
 5893POPC   D2A21508  19.815   4.340   8.250
 5893POPC   C3A21509  19.806   4.283   7.950
 5893POPC   C4A21510  19.880   4.359   7.650
 5893POPC   C1B21511  19.670   4.487   8.550
 5893POPC   C2B21512  19.723   4.492   8.250
 5893POPC   C3B21513  19.719   4.542   7.950
 5893POPC   C4B21514  19.662   4.520   7.650
 5894POPC   NC321515  44.630  18.310   9.450
 5894POPC   PO421516  44.680  18.327   9.150
 5894POPC   GL121517  44.711  18.251   8.850
 5894POPC   GL221518  44.725  18.203   8.850
 5894POPC   C1A21519  44.661  18.304   8.550
 5894POPC   D2A21520  44.640  18.331   8.250
 5894POPC   C3A21521  44.686  18.285   7.950
 5894POPC   C4A21522  44.618  18.314   7.650
 5894POPC   C1B21523  44.813  18.092   8.550
 5894POPC   C2B21524  44.775  18.082   8.250
 5894POPC   C3B21525  44.841  18.107   7.950
 5894POPC   C4B21526  44.795  18.089   7.650
 5895POPC   NC321527   3.579  28.352   9.450
 5895POPC   PO421528   3.543  28.333   9.150
 5895POPC   GL121529   3.493  28.346   8.850
 5895POPC   GL221530   3.543  28.537   8.850
 5895POPC   C1A21531   3.561  28.377   8.550
 5895POPC   D2A21532   3.522  28.357   8.250
 5895POPC   C3A21533   3.530  28.412   7.950
 5895POPC   C4A21534   3.512  28.326   7.650
 5895POPC   C1B21535   3.523  28.599   8.550
 5895POPC   C2B21536   3.467  28.573   8.250
 5895POPC   C3B21537   3.470  28.659   7.950
 5895POPC   C4B21538   3.501  28.607   7.650
 5896POPC   NC321539   6.631   8.170   9.450
 5896POPC   PO421540   6.649   8.152   9.150
 5896POPC   GL121541   6.597   8.158   8.850
 5896POPC   GL221542   6.604   8.279   8.850
 5896POPC   C1A21543   6.682   8.224   8.550
 5896POPC   D2A21544   6.649   8.216   8.250
 5896POPC   C3A21545   6.688   8.151   7.950
 5896POPC   C4A21546   6.667   8.175   7.650
 5896POPC   C1B21547   6.481   8.356   8.550
 5896POPC   C2B21548   6.466   8.378   8.250
 5896POPC   C3B21549   6.536   8.408   7.950
 5896POPC   C4B21550   6.451   8.395   7.650
 5897POPC   NC321551  34.538  36.162   9.450
 5897POPC   PO421552  34.623  36.160   9.150
 5897POPC   GL121553  34.553  36.124   8.850
 5897POPC   GL221554  34.607  36.197   8.850
 5897POPC   C1A21555  34.559  36.090   8.550
 5897POPC   D2A21556  34.563  36.177   8.250
 5897POPC   C3A21557  34.564  36.147   7.950
 5897POPC   C4A21558  34.560  36.119   7.650
 5897POPC   C1B21559  34.651  36.415   8.550
 5897POPC   C2B21560  34.640  36.401   8.250
 5897POPC   C3B21561  34.692  36.378   7.950
 5897POPC   C4B21562  34.642  36.319   7.650
 5898POPC   NC321563  31.465   0.486   9.450
 5898POPC   PO421564  31.521   0.460   9.150
 5898POPC   GL121565  31.507   0.435   8.850
 5898POPC   GL221566  31.388   0.448   8.850
 5898POPC   C1A21567  31.433   0.479   8.550
 5898POPC   D2A21568  31.423   0.432   8.250
 5898POPC   C3A21569  31.459   0.470   7.950
 5898POPC   C4A21570  31.450   0.477   7.650
 5898POPC   C1B21571  31.189   0.439   8.550
 5898POPC   C2B21572  31.270   0.452   8.250
 5898POPC   C3B21573  31.174   0.510   7.950
 5898POPC   C4B21574  31.181   0.468   7.650
 5899POPC   NC321575  40.754  32.199   9.450
 5899POPC   PO421576  40.797  32.202   9.150
 5899POPC   GL121577  40.826  32.246   8.850
 5899POPC   GL221578  40.701  32.235   8.850
 5899POPC   C1A21579  40.785  32.237   8.550
 5899POPC   D2A21580  40.779  32.255   8.250
 5899POPC   C3A21581  40.794  32.232   7.950
 5899POPC   C4A21582  40.769  32.271   7.650
 5899POPC   C1B21583  40.549  32.185   8.550
 5899POPC   C2B21584  40.494  32.154   8.250
 5899POPC   C3B21585  40.544  32.225   7.950
 5899POPC   C4B21586  40.548  32.233   7.650
 5900POPC   NC321587   9.707  43.152   9.450
 5900POPC   PO421588   9.713  43.136   9.150
 5900POPC   GL121589   9.780  43.144   8.850
 5900POPC   GL221590   9.660  42.962   8.850
 5900POPC   C1A21591   9.709  43.132   8.550
 5900POPC   D2A21592   9.784  43.143   8.250
 5900POPC   C3A21593   9.705  43.097   7.950
 5900POPC   C4A21594   9.769  43.138   7.650
 5900POPC   C1B21595   9.659  42.937   8.550
 5900POPC   C2B21596   9.579  42.914   8.250
 5900POPC   C3B21597   9.631  42.892   7.950
 5900POPC   C4B21598   9.619  42.941   7.650
 5901POPC   NC321599  38.470  30.729   9.450
 5901POPC   PO421600  38.439  30.724   9.150
 5901POPC   GL121601  38.445  30.662   8.850
 5901POPC   GL221602  38.559  30.768   8.850
 5901POPC   C1A21603  38.412  30.723   8.550
 5901POPC   D2A21604  38.451  30.691   8.250
 5901POPC   C3A21605  38.470  30.740   7.950
 5901POPC   C4A21606  38.410  30.685   7.650
 5901POPC   C1B21607  38.654  30.855   8.550
 5901POPC   C2B21608  38.665  30.824   8.250
 5901POPC   C3B21609  38.642  30.897   7.950
 5901POPC   C4B21610  38.619  30.818   7.650
 5902POPC   NC321611  16.731  30.688   9.450
 5902POPC   PO421612  16.770  30.721   9.150
 5902POPC   GL121613  16.713  30.699   8.850
 5902POPC   GL221614  16.759  30.763   8.850
 5902POPC   C1A21615  16.690  30.688   8.550
 5902POPC   D2A21616  16.721  30.686   8.250
 5902POPC   C3A21617  16.689  30.650   7.950
 5902POPC   C4A21618  16.773  30.715   7.650
 5902POPC   C1B21619  16.819  30.880   8.550
 5902POPC   C2B21620  16.793  30.958   8.250
 5902POPC   C3B21621  16.850  30.881   7.950
 5902POPC   C4B21622  16.814  30.968   7.650
 5903POPC   NC321623   8.949   1.216   9.450
 5903POPC   PO421624   8.960   1.197   9.150
 5903POPC   GL121625   8.930   1.222   8.850
 5903POPC   GL221626   8.985   1.053   8.850
 5903POPC   C1A21627   8.959   1.251   8.550
 5903POPC   D2A21628   8.949   1.189   8.250
 5903POPC   C3A21629   8.923   1.187   7.950
 5903POPC   C4A21630   9.006   1.194   7.650
 5903POPC   C1B21631   8.942   1.016   8.550
 5903POPC   C2B21632   8.892   0.971   8.250
 5903POPC   C3B21633   8.861   0.957   7.950
 5903POPC   C4B21634   8.916   1.022   7.650
 5904POPC   NC321635  13.588  33.791   9.450
 5904POPC   PO421636  13.591  33.806   9.150
 5904POPC   GL121637  13.650  33.762   8.850
 5904POPC   GL221638  13.733  33.702   8.850
 5904POPC   C1A21639  13.647  33.847   8.550
 5904POPC   D2A21640  13.604  33.767   8.250
 5904POPC   C3A21641  13.609  33.787   7.950
 5904POPC   C4A21642  13.613  33.841   7.650
 5904POPC   C1B21643  13.815  33.640   8.550
 5904POPC   C2B21644  13.788  33.551   8.250
 5904POPC   C3B21645  13.806  33.629   7.950
 5904POPC   C4B21646  13.820  33.640   7.650
 5905POPC   NC321647  37.692  33.752   9.450
 5905POPC   PO421648  37.649  33.760   9.150
 5905POPC   GL121649  37.712  33.755   8.850
 5905POPC   GL221650  37.650  33.890   8.850
 5905POPC   C1A21651  37.651  33.809   8.550
 5905POPC   D2A21652  37.640  33.810   8.250
 5905POPC   C3A21653  37.696  33.783   7.950
 5905POPC   C4A21654  37.692  33.785   7.650
 5905POPC   C1B21655  37.529  33.957   8.550
 5905POPC   C2B21656  37.509  34.032   8.250
 5905POPC   C3B21657  37.532  34.052   7.950
 5905POPC   C4B21658  37.530  33.999   7.650
 5906POPC   NC321659  13.592   7.401   9.450
 5906POPC   PO421660  13.621   7.371   9.150
 5906POPC   GL121661  13.611   7.433   8.850
 5906POPC   GL221662  13.687   7.505   8.850
 5906POPC   C1A21663  13.661   7.371   8.550
 5906POPC   D2A21664  13.588   7.419   8.250
 5906POPC   C3A21665  13.637   7.433   7.950
 5906POPC   C4A21666  13.618   7.388   7.650
 5906POPC   C1B21667  13.806   7.597   8.550
 5906POPC   C2B21668  13.723   7.644   8.250
 5906POPC   C3B21669  13.804   7.665   7.950
 5906POPC   C4B21670  13.727   7.625   7.650
 5907POPC   NC321671  12.856  22.888   9.450
 5907POPC   PO421672  12.806  22.974   9.150
 5907POPC   GL121673  12.890  22.917   8.850
 5907POPC   GL221674  12.702  22.907   8.850
 5907POPC   C1A21675  12.868  22.947   8.550
 5907POPC   D2A21676  12.898  22.899   8.250
 5907POPC   C3A21677  12.877  22.888   7.950
 5907POPC   C4A21678  12.888  22.953   7.650
 5907POPC   C1B21679  12.588  22.989   8.550
 5907POPC   C2B21680  12.588  23.007   8.250
 5907POPC   C3B21681  12.599  22.978   7.950
 5907POPC   C4B21682  12.563  22.990   7.650
 5908POPC   NC321683  39.237  32.215   9.450
 5908POPC   PO421684  39.272  32.250   9.150
 5908POPC   GL121685  39.193  32.263   8.850
 5908POPC   GL221686  39.083  32.343   8.850
 5908POPC   C1A21687  39.224  32.231   8.550
 5908POPC   D2A21688  39.280  32.258   8.250
 5908POPC   C3A21689  39.248  32.293   7.950
 5908POPC   C4A21690  39.188  32.264   7.650
 5908POPC   C1B21691  39.030  32.414   8.550
 5908POPC   C2B21692  39.037  32.427   8.250
 5908POPC   C3B21693  39.042  32.401   7.950
 5908POPC   C4B21694  39.014  32.413   7.650
 5909POPC   NC321695  38.467  35.327   9.450
 5909POPC   PO421696  38.463  35.359   9.150
 5909POPC   GL121697  38.479  35.378   8.850
 5909POPC   GL221698  38.421  35.485   8.850
 5909POPC   C1A21699  38.426  35.330   8.550
 5909POPC   D2A21700  38.472  35.365   8.250
 5909POPC   C3A21701  38.463  35.302   7.950
 5909POPC   C4A21702  38.481  35.353   7.650
 5909POPC   C1B21703  38.274  35.549   8.550
 5909POPC   C2B21704  38.315  35.569   8.250
 5909POPC   C3B21705  38.276  35.571   7.950
 5909POPC   C4B21706  38.359  35.600   7.650
 5910POPC   NC321707  40.035   9.008   9.450
 5910POPC   PO421708  40.044   8.958   9.150
 5910POPC   GL121709  40.031   8.982   8.850
 5910POPC   GL221710  39.996   8.840   8.850
 5910POPC   C1A21711  40.028   8.984   8.550
 5910POPC   D2A21712  39.998   8.925   8.250
 5910POPC   C3A21713  39.992   8.927   7.950
 5910POPC   C4A21714  40.017   8.924   7.650
 5910POPC   C1B21715  39.955   8.726   8.550
 5910POPC   C2B21716  39.905   8.781   8.250
 5910POPC   C3B21717  39.860   8.773   7.950
 5910POPC   C4B21718  39.882   8.733   7.650
 5911POPC   NC321719  33.794  22.920   9.450
 5911POPC   PO421720  33.822  22.979   9.150
 5911POPC   GL121721  33.800  22.949   8.850
 5911POPC   GL221722  33.850  22.773   8.850
 5911POPC   C1A21723  33.821  22.949   8.550
 5911POPC   D2A21724  33.825  22.965   8.250
 5911POPC   C3A21725  33.756  22.944   7.950
 5911POPC   C4A21726  33.790  22.922   7.650
 5911POPC   C1B21727  33.900  22.666   8.550
 5911POPC   C2B21728  33.860  22.731   8.250
 5911POPC   C3B21729  33.870  22.700   7.950
 5911POPC   C4B21730  33.889  22.690   7.650
 5912POPC   NC321731   3.584  15.141   9.450
 5912POPC   PO421732   3.530  15.164   9.150
 5912POPC   GL121733   3.509  15.205   8.850
 5912POPC   GL221734   3.432  15.237   8.850
 5912POPC   C1A21735   3.529  15.163   8.550
 5912POPC   D2A21736   3.504  15.173   8.250
 5912POPC   C3A21737   3.531  15.207   7.950
 5912POPC   C4A21738   3.583  15.191   7.650
 5912POPC   C1B21739   3.369  15.337   8.550
 5912POPC   C2B21740   3.424  15.342   8.250
 5912POPC   C3B21741   3.344  15.359   7.950
 5912POPC   C4B21742   3.383  15.339   7.650
 5913POPC   NC321743  27.613   3.588   9.450
 5913POPC   PO421744  27.559   3.508   9.150
 5913POPC   GL121745  27.616   3.546   8.850
 5913POPC   GL221746  27.530   3.443   8.850
 5913POPC   C1A21747  27.578   3.549   8.550
 5913POPC   D2A21748  27.569   3.522   8.250
 5913POPC   C3A21749  27.586   3.565   7.950
 5913POPC   C4A21750  27.613   3.586   7.650
 5913POPC   C1B21751  27.462   3.297   8.550
 5913POPC   C2B21752  27.469   3.349   8.250
 5913POPC   C3B21753  27.470   3.282   7.950
 5913POPC   C4B21754  27.502   3.364   7.650
 5914POPC   NC321755  15.919   5.075   9.450
 5914POPC   PO421756  15.936   5.080   9.150
 5914POPC   GL121757  15.961   5.142   8.850
 5914POPC   GL221758  15.834   5.090   8.850
 5914POPC   C1A21759  15.912   5.134   8.550
 5914POPC   D2A21760  15.912   5.117   8.250
 5914POPC   C3A21761  15.984   5.128   7.950
 5914POPC   C4A21762  15.945   5.140   7.650
 5914POPC   C1B21763  15.721   5.111   8.550
 5914POPC   C2B21764  15.736   5.167   8.250
 5914POPC   C3B21765  15.752   5.165   7.950
 5914POPC   C4B21766  15.705   5.164   7.650
 5915POPC   NC321767   5.883  33.763   9.450
 5915POPC   PO421768   5.912  33.834   9.150
 5915POPC   GL121769   5.917  33.801   8.850
 5915POPC   GL221770   5.925  33.688   8.850
 5915POPC   C1A21771   5.856  33.840   8.550
 5915POPC   D2A21772   5.893  33.836   8.250
 5915POPC   C3A21773   5.900  33.779   7.950
 5915POPC   C4A21774   5.823  33.847   7.650
 5915POPC   C1B21775   6.020  33.653   8.550
 5915POPC   C2B21776   6.059  33.581   8.250
 5915POPC   C3B21777   6.020  33.611   7.950
 5915POPC   C4B21778   6.071  33.646   7.650
 5916POPC   NC321779  13.605  21.411   9.450
 5916POPC   PO421780  13.620  21.385   9.150
 5916POPC   GL121781  13.590  21.435   8.850
 5916POPC   GL221782  13.645  21.229   8.850
 5916POPC   C1A21783  13.623  21.363   8.550
 5916POPC   D2A21784  13.581  21.392   8.250
 5916POPC   C3A21785  13.648  21.379   7.950
 5916POPC   C4A21786  13.605  21.358   7.650
 5916POPC   C1B21787  13.533  21.163   8.550
 5916POPC   C2B21788  13.604  21.120   8.250
 5916POPC   C3B21789  13.604  21.160   7.950
 5916POPC   C4B21790  13.582  21.160   7.650
 5917POPC   NC321791  22.927  15.130   9.450
 5917POPC   PO421792  22.891  15.168   9.150
 5917POPC   GL121793  22.980  15.198   8.850
 5917POPC   GL221794  23.106  15.169   8.850
 5917POPC   C1A21795  22.921  15.192   8.550
 5917POPC   D2A21796  22.910  15.176   8.250
 5917POPC   C3A21797  22.943  15.154   7.950
 5917POPC   C4A21798  22.938  15.205   7.650
 5917POPC   C1B21799  23.148  15.235   8.550
 5917POPC   C2B21800  23.194  15.243   8.250
 5917POPC   C3B21801  23.137  15.233   7.950
 5917POPC   C4B21802  23.147  15.257   7.650
 5918POPC   NC321803  19.880   8.160   9.450
 5918POPC   PO421804  19.883   8.150   9.150
 5918POPC   GL121805  19.857   8.152   8.850
 5918POPC   GL221806  19.759   8.231   8.850
 5918POPC   C1A21807  19.866   8.204   8.550
 5918POPC   D2A21808  19.847   8.214   8.250
 5918POPC   C3A21809  19.850   8.242   7.950
 5918POPC   C4A21810  19.858   8.176   7.650
 5918POPC   C1B21811  19.619   8.308   8.550
 5918POPC   C2B21812  19.571   8.290   8.250
 5918POPC   C3B21813  19.567   8.256   7.950
 5918POPC   C4B21814  19.582   8.314   7.650
 5919POPC   NC321815   2.785   5.894   9.450
 5919POPC   PO421816   2.779   5.849   9.150
 5919POPC   GL121817   2.785   5.829   8.850
 5919POPC   GL221818   2.819   5.765   8.850
 5919POPC   C1A21819   2.725   5.899   8.550
 5919POPC   D2A21820   2.767   5.827   8.250
 5919POPC   C3A21821   2.771   5.874   7.950
 5919POPC   C4A21822   2.749   5.836   7.650
 5919POPC   C1B21823   2.832   5.684   8.550
 5919POPC   C2B21824   2.852   5.686   8.250
 5919POPC   C3B21825   2.837   5.596   7.950
 5919POPC   C4B21826   2.820   5.594   7.650
 5920POPC   NC321827  12.080  36.168   9.450
 5920POPC   PO421828  12.113  36.130   9.150
 5920POPC   GL121829  12.034  36.141   8.850
 5920POPC   GL221830  11.982  36.150   8.850
 5920POPC   C1A21831  12.083  36.134   8.550
 5920POPC   D2A21832  12.102  36.092   8.250
 5920POPC   C3A21833  12.116  36.131   7.950
 5920POPC   C4A21834  12.115  36.085   7.650
 5920POPC   C1B21835  11.874  36.168   8.550
 5920POPC   C2B21836  11.793  36.144   8.250
 5920POPC   C3B21837  11.854  36.145   7.950
 5920POPC   C4B21838  11.812  36.171   7.650
 5921POPC   NC321839  26.050   1.186   9.450
 5921POPC   PO421840  26.062   1.254   9.150
 5921POPC   GL121841  26.078   1.237   8.850
 5921POPC   GL221842  26.000   1.146   8.850
 5921POPC   C1A21843  25.995   1.233   8.550
 5921POPC   D2A21844  26.011   1.189   8.250
 5921POPC   C3A21845  26.004   1.208   7.950
 5921POPC   C4A21846  26.083   1.257   7.650
 5921POPC   C1B21847  25.905   1.009   8.550
 5921POPC   C2B21848  25.858   0.978   8.250
 5921POPC   C3B21849  25.868   0.988   7.950
 5921POPC   C4B21850  25.904   0.999   7.650
 5922POPC   NC321851  37.673  32.990   9.450
 5922POPC   PO421852  37.685  33.066   9.150
 5922POPC   GL121853  37.724  33.016   8.850
 5922POPC   GL221854  37.662  33.177   8.850
 5922POPC   C1A21855  37.660  32.990   8.550
 5922POPC   D2A21856  37.692  32.992   8.250
 5922POPC   C3A21857  37.714  33.029   7.950
 5922POPC   C4A21858  37.691  32.987   7.650
 5922POPC   C1B21859  37.564  33.257   8.550
 5922POPC   C2B21860  37.553  33.266   8.250
 5922POPC   C3B21861  37.545  33.254   7.950
 5922POPC   C4B21862  37.530  33.282   7.650
 5923POPC   NC321863  33.782  13.643   9.450
 5923POPC   PO421864  33.760  13.648   9.150
 5923POPC   GL121865  33.845  13.625   8.850
 5923POPC   GL221866  33.811  13.512   8.850
 5923POPC   C1A21867  33.850  13.599   8.550
 5923POPC   D2A21868  33.824  13.658   8.250
 5923POPC   C3A21869  33.815  13.630   7.950
 5923POPC   C4A21870  33.771  13.619   7.650
 5923POPC   C1B21871  33.768  13.426   8.550
 5923POPC   C2B21872  33.703  13.366   8.250
 5923POPC   C3B21873  33.700  13.421   7.950
 5923POPC   C4B21874  33.761  13.424   7.650
 5924POPC   NC321875  19.095  10.513   9.450
 5924POPC   PO421876  19.090  10.554   9.150
 5924POPC   GL121877  19.057  10.518   8.850
 5924POPC   GL221878  18.951  10.608   8.850
 5924POPC   C1A21879  19.088  10.485   8.550
 5924POPC   D2A21880  19.080  10.569   8.250
 5924POPC   C3A21881  19.017  10.532   7.950
 5924POPC   C4A21882  19.104  10.492   7.650
 5924POPC   C1B21883  18.905  10.681   8.550
 5924POPC   C2B21884  18.863  10.724   8.250
 5924POPC   C3B21885  18.886  10.679   7.950
 5924POPC   C4B21886  18.843  10.632   7.650
 5925POPC   NC321887  16.701  32.994   9.450
 5925POPC   PO421888  16.730  33.009   9.150
 5925POPC   GL121889  16.723  32.980   8.850
 5925POPC   GL221890  16.853  33.117   8.850
 5925POPC   C1A21891  16.701  33.005   8.550
 5925POPC   D2A21892  16.729  33.007   8.250
 5925POPC   C3A21893  16.719  32.980   7.950
 5925POPC   C4A21894  16.779  33.025   7.650
 5925POPC   C1B21895  16.974  33.134   8.550
 5925POPC   C2B21896  16.930  33.129   8.250
 5925POPC   C3B21897  16.957  33.142   7.950
 5925POPC   C4B21898  16.924  33.199   7.650
 5926POPC   NC321899  26.809   4.289   9.450
 5926POPC   PO421900  26.770   4.365   9.150
 5926POPC   GL121901  26.836   4.300   8.850
 5926POPC   GL221902  26.978   4.314   8.850
 5926POPC   C1A21903  26.843   4.351   8.550
 5926POPC   D2A21904  26.844   4.323   8.250
 5926POPC   C3A21905  26.783   4.354   7.950
 5926POPC   C4A21906  26.865   4.277   7.650
 5926POPC   C1B21907  27.056   4.355   8.550
 5926POPC   C2B21908  27.032   4.370   8.250
 5926POPC   C3B21909  27.066   4.346   7.950
 5926POPC   C4B21910  27.021   4.423   7.650
 5927POPC   NC321911  10.517  36.909   9.450
 5927POPC   PO421912  10.489  36.905   9.150
 5927POPC   GL121913  10.550  36.903   8.850
 5927POPC   GL221914  10.626  37.017   8.850
 5927POPC   C1A21915  10.477  36.857   8.550
 5927POPC   D2A21916  10.564  36.884   8.250
 5927POPC   C3A21917  10.544  36.948   7.950
 5927POPC   C4A21918  10.547  36.897   7.650
 5927POPC   C1B21919  10.736  37.110   8.550
 5927POPC   C2B21920  10.703  37.096   8.250
 5927POPC   C3B21921  10.702  37.071   7.950
 5927POPC   C4B21922  10.682  37.100   7.650
 5928POPC   NC321923   8.207   9.014   9.450
 5928POPC   PO421924   8.195   8.999   9.150
 5928POPC   GL121925   8.215   8.957   8.850
 5928POPC   GL221926   8.267   8.878   8.850
 5928POPC   C1A21927   8.199   8.945   8.550
 5928POPC   D2A21928   8.170   8.977   8.250
 5928POPC   C3A21929   8.201   9.018   7.950
 5928POPC   C4A21930   8.186   8.995   7.650
 5928POPC   C1B21931   8.392   8.858   8.550
 5928POPC   C2B21932   8.416   8.891   8.250
 5928POPC   C3B21933   8.404   8.872   7.950
 5928POPC   C4B21934   8.381   8.896   7.650
 5929POPC   NC321935  11.263  22.162   9.450
 5929POPC   PO421936  11.336  22.144   9.150
 5929POPC   GL121937  11.274  22.170   8.850
 5929POPC   GL221938  11.429  22.095   8.850
 5929POPC   C1A21939  11.266  22.152   8.550
 5929POPC   D2A21940  11.288  22.175   8.250
 5929POPC   C3A21941  11.253  22.128   7.950
 5929POPC   C4A21942  11.343  22.141   7.650
 5929POPC   C1B21943  11.471  22.057   8.550
 5929POPC   C2B21944  11.462  22.037   8.250
 5929POPC   C3B21945  11.550  22.030   7.950
 5929POPC   C4B21946  11.521  22.032   7.650
 5930POPC   NC321947   3.525  16.765   9.450
 5930POPC   PO421948   3.536  16.752   9.150
 5930POPC   GL121949   3.517  16.764   8.850
 5930POPC   GL221950   3.599  16.848   8.850
 5930POPC   C1A21951   3.553  16.684   8.550
 5930POPC   D2A21952   3.533  16.684   8.250
 5930POPC   C3A21953   3.564  16.729   7.950
 5930POPC   C4A21954   3.579  16.684   7.650
 5930POPC   C1B21955   3.551  16.981   8.550
 5930POPC   C2B21956   3.576  16.986   8.250
 5930POPC   C3B21957   3.559  16.978   7.950
 5930POPC   C4B21958   3.553  16.986   7.650
 5931POPC   NC321959  14.377  21.398   9.450
 5931POPC   PO421960  14.421  21.362   9.150
 5931POPC   GL121961  14.364  21.373   8.850
 5931POPC   GL221962  14.306  21.342   8.850
 5931POPC   C1A21963  14.354  21.343   8.550
 5931POPC   D2A21964  14.439  21.365   8.250
 5931POPC   C3A21965  14.405  21.423   7.950
 5931POPC   C4A21966  14.436  21.374   7.650
 5931POPC   C1B21967  14.258  21.217   8.550
 5931POPC   C2B21968  14.215  21.236   8.250
 5931POPC   C3B21969  14.196  21.174   7.950
 5931POPC   C4B21970  14.280  21.251   7.650
 5932POPC   NC321971  12.848  15.977   9.450
 5932POPC   PO421972  12.875  15.995   9.150
 5932POPC   GL121973  12.815  15.969   8.850
 5932POPC   GL221974  12.940  15.875   8.850
 5932POPC   C1A21975  12.892  15.956   8.550
 5932POPC   D2A21976  12.880  15.914   8.250
 5932POPC   C3A21977  12.877  15.978   7.950
 5932POPC   C4A21978  12.808  15.999   7.650
 5932POPC   C1B21979  12.998  15.710   8.550
 5932POPC   C2B21980  12.991  15.757   8.250
 5932POPC   C3B21981  12.987  15.693   7.950
 5932POPC   C4B21982  12.980  15.713   7.650
 5933POPC   NC321983  15.177  29.921   9.450
 5933POPC   PO421984  15.139  29.931   9.150
 5933POPC   GL121985  15.224  29.872   8.850
 5933POPC   GL221986  15.106  29.967   8.850
 5933POPC   C1A21987  15.143  29.942   8.550
 5933POPC   D2A21988  15.225  29.908   8.250
 5933POPC   C3A21989  15.151  29.872   7.950
 5933POPC   C4A21990  15.147  29.923   7.650
 5933POPC   C1B21991  14.991  30.141   8.550
 5933POPC   C2B21992  15.024  30.103   8.250
 5933POPC   C3B21993  15.011  30.101   7.950
 5933POPC   C4B21994  15.047  30.077   7.650
 5934POPC   NC321995  16.747  26.861   9.450
 5934POPC   PO421996  16.744  26.856   9.150
 5934POPC   GL121997  16.717  26.808   8.850
 5934POPC   GL221998  16.620  26.716   8.850
 5934POPC   C1A21999  16.725  26.853   8.550
 5934POPC   D2A22000  16.696  26.839   8.250
 5934POPC   C3A22001  16.766  26.866   7.950
 5934POPC   C4A22002  16.778  26.769   7.650
 5934POPC   C1B22003  16.484  26.680   8.550
 5934POPC   C2B22004  16.539  26.702   8.250
 5934POPC   C3B22005  16.533  26.708   7.950
 5934POPC   C4B22006  16.547  26.641   7.650
 5935POPC   NC322007  41.552  36.892   9.450
 5935POPC   PO422008  41.602  36.897   9.150
 5935POPC   GL122009  41.530  36.951   8.850
 5935POPC   GL222010  41.450  36.884   8.850
 5935POPC   C1A22011  41.596  36.928   8.550
 5935POPC   D2A22012  41.538  36.877   8.250
 5935POPC   C3A22013  41.608  36.877   7.950
 5935POPC   C4A22014  41.535  36.896   7.650
 5935POPC   C1B22015  41.323  36.816   8.550
 5935POPC   C2B22016  41.318  36.879   8.250
 5935POPC   C3B22017  41.313  36.871   7.950
 5935POPC   C4B22018  41.317  36.869   7.650
 5936POPC   NC322019   8.201   0.402   9.450
 5936POPC   PO422020   8.185   0.460   9.150
 5936POPC   GL122021   8.182   0.455   8.850
 5936POPC   GL222022   8.283   0.381   8.850
 5936POPC   C1A22023   8.190   0.448   8.550
 5936POPC   D2A22024   8.201   0.412   8.250
 5936POPC   C3A22025   8.206   0.400   7.950
 5936POPC   C4A22026   8.184   0.448   7.650
 5936POPC   C1B22027   8.398   0.429   8.550
 5936POPC   C2B22028   8.425   0.356   8.250
 5936POPC   C3B22029   8.397   0.418   7.950
 5936POPC   C4B22030   8.428   0.433   7.650
 5937POPC   NC322031  28.416   5.859   9.450
 5937POPC   PO422032  28.327   5.890   9.150
 5937POPC   GL122033  28.326   5.897   8.850
 5937POPC   GL222034  28.472   5.801   8.850
 5937POPC   C1A22035  28.396   5.846   8.550
 5937POPC   D2A22036  28.382   5.898   8.250
 5937POPC   C3A22037  28.409   5.908   7.950
 5937POPC   C4A22038  28.405   5.879   7.650
 5937POPC   C1B22039  28.560   5.747   8.550
 5937POPC   C2B22040  28.641   5.821   8.250
 5937POPC   C3B22041  28.598   5.794   7.950
 5937POPC   C4B22042  28.628   5.820   7.650
 5938POPC   NC322043  32.268  22.154   9.450
 5938POPC   PO422044  32.215  22.208   9.150
 5938POPC   GL122045  32.236  22.211   8.850
 5938POPC   GL222046  32.124  22.253   8.850
 5938POPC   C1A22047  32.296  22.149   8.550
 5938POPC   D2A22048  32.231  22.123   8.250
 5938POPC   C3A22049  32.234  22.185   7.950
 5938POPC   C4A22050  32.203  22.170   7.650
 5938POPC   C1B22051  32.082  22.288   8.550
 5938POPC   C2B22052  32.011  22.283   8.250
 5938POPC   C3B22053  32.053  22.318   7.950
 5938POPC   C4B22054  32.066  22.294   7.650
 5939POPC   NC322055  22.208  31.491   9.450
 5939POPC   PO422056  22.126  31.434   9.150
 5939POPC   GL122057  22.160  31.452   8.850
 5939POPC   GL222058  22.076  31.438   8.850
 5939POPC   C1A22059  22.199  31.513   8.550
 5939POPC   D2A22060  22.132  31.460   8.250
 5939POPC   C3A22061  22.208  31.447   7.950
 5939POPC   C4A22062  22.171  31.495   7.650
 5939POPC   C1B22063  21.961  31.284   8.550
 5939POPC   C2B22064  21.998  31.337   8.250
 5939POPC   C3B22065  21.918  31.353   7.950
 5939POPC   C4B22066  21.983  31.328   7.650
 5940POPC   NC322067   4.360  28.419   9.450
 5940POPC   PO422068   4.322  28.332   9.150
 5940POPC   GL122069   4.273  28.407   8.850
 5940POPC   GL222070   4.280  28.202   8.850
 5940POPC   C1A22071   4.332  28.348   8.550
 5940POPC   D2A22072   4.278  28.343   8.250
 5940POPC   C3A22073   4.312  28.322   7.950
 5940POPC   C4A22074   4.343  28.393   7.650
 5940POPC   C1B22075   4.210  28.134   8.550
 5940POPC   C2B22076   4.236  28.177   8.250
 5940POPC   C3B22077   4.250  28.132   7.950
 5940POPC   C4B22078   4.189  28.123   7.650
 5941POPC   NC322079   2.734  19.880   9.450
 5941POPC   PO422080   2.735  19.850   9.150
 5941POPC   GL122081   2.751  19.873   8.850
 5941POPC   GL222082   2.700  19.689   8.850
 5941POPC   C1A22083   2.782  19.828   8.550
 5941POPC   D2A22084   2.801  19.865   8.250
 5941POPC   C3A22085   2.749  19.852   7.950
 5941POPC   C4A22086   2.783  19.862   7.650
 5941POPC   C1B22087   2.620  19.605   8.550
 5941POPC   C2B22088   2.618  19.617   8.250
 5941POPC   C3B22089   2.567  19.685   7.950
 5941POPC   C4B22090   2.563  19.595   7.650
 5942POPC   NC322091  15.960  25.293   9.450
 5942POPC   PO422092  15.986  25.244   9.150
 5942POPC   GL122093  15.914  25.257   8.850
 5942POPC   GL222094  16.024  25.264   8.850
 5942POPC   C1A22095  15.961  25.261   8.550
 5942POPC   D2A22096  15.917  25.240   8.250
 5942POPC   C3A22097  15.982  25.286   7.950
 5942POPC   C4A22098  15.996  25.297   7.650
 5942POPC   C1B22099  16.195  25.152   8.550
 5942POPC   C2B22100  16.188  25.165   8.250
 5942POPC   C3B22101  16.175  25.176   7.950
 5942POPC   C4B22102  16.229  25.170   7.650
 5943POPC   NC322103  10.538  38.502   9.450
 5943POPC   PO422104  10.564  38.462   9.150
 5943POPC   GL122105  10.491  38.498   8.850
 5943POPC   GL222106  10.677  38.417   8.850
 5943POPC   C1A22107  10.481  38.435   8.550
 5943POPC   D2A22108  10.554  38.438   8.250
 5943POPC   C3A22109  10.484  38.413   7.950
 5943POPC   C4A22110  10.501  38.429   7.650
 5943POPC   C1B22111  10.797  38.358   8.550
 5943POPC   C2B22112  10.786  38.416   8.250
 5943POPC   C3B22113  10.729  38.416   7.950
 5943POPC   C4B22114  10.720  38.423   7.650
 5944POPC   NC322115   8.179  20.609   9.450
 5944POPC   PO422116   8.233  20.628   9.150
 5944POPC   GL122117   8.171  20.643   8.850
 5944POPC   GL222118   8.320  20.593   8.850
 5944POPC   C1A22119   8.157  20.647   8.550
 5944POPC   D2A22120   8.226  20.581   8.250
 5944POPC   C3A22121   8.218  20.603   7.950
 5944POPC   C4A22122   8.228  20.611   7.650
 5944POPC   C1B22123   8.399  20.580   8.550
 5944POPC   C2B22124   8.483  20.568   8.250
 5944POPC   C3B22125   8.465  20.615   7.950
 5944POPC   C4B22126   8.454  20.563   7.650
 5945POPC   NC322127  19.875  44.640   9.450
 5945POPC   PO422128  19.880  44.649   9.150
 5945POPC   GL122129  19.875  44.693   8.850
 5945POPC   GL222130  19.916  44.718   8.850
 5945POPC   C1A22131  19.823  44.696   8.550
 5945POPC   D2A22132  19.798  44.677   8.250
 5945POPC   C3A22133  19.870  44.698   7.950
 5945POPC   C4A22134  19.804  44.684   7.650
 5945POPC   C1B22135  20.073  44.762   8.550
 5945POPC   C2B22136  20.082  44.774   8.250
 5945POPC   C3B22137  20.082  44.758   7.950
 5945POPC   C4B22138  20.067  44.841   7.650
 5946POPC   NC322139  26.802  33.763   9.450
 5946POPC   PO422140  26.853  33.830   9.150
 5946POPC   GL122141  26.788  33.839   8.850
 5946POPC   GL222142  26.762  33.894   8.850
 5946POPC   C1A22143  26.785  33.807   8.550
 5946POPC   D2A22144  26.774  33.787   8.250
 5946POPC   C3A22145  26.862  33.798   7.950
 5946POPC   C4A22146  26.815  33.794   7.650
 5946POPC   C1B22147  26.646  34.007   8.550
 5946POPC   C2B22148  26.615  33.964   8.250
 5946POPC   C3B22149  26.706  33.974   7.950
 5946POPC   C4B22150  26.710  34.024   7.650
 5947POPC   NC322151  19.870   1.947   9.450
 5947POPC   PO422152  19.834   1.998   9.150
 5947POPC   GL122153  19.787   1.956   8.850
 5947POPC   GL222154  19.972   1.964   8.850
 5947POPC   C1A22155  19.851   1.961   8.550
 5947POPC   D2A22156  19.880   2.006   8.250
 5947POPC   C3A22157  19.843   1.978   7.950
 5947POPC   C4A22158  19.882   2.000   7.650
 5947POPC   C1B22159  20.065   1.901   8.550
 5947POPC   C2B22160  20.119   1.884   8.250
 5947POPC   C3B22161  20.078   1.961   7.950
 5947POPC   C4B22162  20.034   1.901   7.650
 5948POPC   NC322163  30.702  40.827   9.450
 5948POPC   PO422164  30.744  40.782   9.150
 5948POPC   GL122165  30.675  40.819   8.850
 5948POPC   GL222166  30.612  40.858   8.850
 5948POPC   C1A22167  30.669  40.801   8.550
 5948POPC   D2A22168  30.660  40.803   8.250
 5948POPC   C3A22169  30.724  40.808   7.950
 5948POPC   C4A22170  30.743  40.814   7.650
 5948POPC   C1B22171  30.589  41.061   8.550
 5948POPC   C2B22172  30.578  41.038   8.250
 5948POPC   C3B22173  30.597  40.991   7.950
 5948POPC   C4B22174  30.596  41.021   7.650
 5949POPC   NC322175  29.964  18.316   9.450
 5949POPC   PO422176  29.958  18.236   9.150
 5949POPC   GL122177  29.906  18.326   8.850
 5949POPC   GL222178  29.961  18.138   8.850
 5949POPC   C1A22179  29.947  18.267   8.550
 5949POPC   D2A22180  29.907  18.247   8.250
 5949POPC   C3A22181  29.958  18.244   7.950
 5949POPC   C4A22182  29.931  18.332   7.650
 5949POPC   C1B22183  29.957  18.015   8.550
 5949POPC   C2B22184  30.028  18.075   8.250
 5949POPC   C3B22185  30.033  18.081   7.950
 5949POPC   C4B22186  30.014  18.092   7.650
 5950POPC   NC322187  34.589  11.301   9.450
 5950POPC   PO422188  34.578  11.329   9.150
 5950POPC   GL122189  34.600  11.327   8.850
 5950POPC   GL222190  34.734  11.264   8.850
 5950POPC   C1A22191  34.588  11.275   8.550
 5950POPC   D2A22192  34.570  11.282   8.250
 5950POPC   C3A22193  34.553  11.306   7.950
 5950POPC   C4A22194  34.610  11.339   7.650
 5950POPC   C1B22195  34.783  11.212   8.550
 5950POPC   C2B22196  34.867  11.278   8.250
 5950POPC   C3B22197  34.853  11.241   7.950
 5950POPC   C4B22198  34.815  11.201   7.650
 5951POPC   NC322199  17.488  37.712   9.450
 5951POPC   PO422200  17.542  37.672   9.150
 5951POPC   GL122201  17.482  37.726   8.850
 5951POPC   GL222202  17.655  37.580   8.850
 5951POPC   C1A22203  17.508  37.670   8.550
 5951POPC   D2A22204  17.465  37.700   8.250
 5951POPC   C3A22205  17.491  37.728   7.950
 5951POPC   C4A22206  17.477  37.647   7.650
 5951POPC   C1B22207  17.694  37.529   8.550
 5951POPC   C2B22208  17.739  37.592   8.250
 5951POPC   C3B22209  17.717  37.559   7.950
 5951POPC   C4B22210  17.691  37.572   7.650
 5952POPC   NC322211  44.682  26.821   9.450
 5952POPC   PO422212  44.645  26.864   9.150
 5952POPC   GL122213  44.668  26.854   8.850
 5952POPC   GL222214  44.738  26.939   8.850
 5952POPC   C1A22215  44.658  26.834   8.550
 5952POPC   D2A22216  44.674  26.833   8.250
 5952POPC   C3A22217  44.672  26.796   7.950
 5952POPC   C4A22218  44.631  26.841   7.650
 5952POPC   C1B22219  44.803  26.995   8.550
 5952POPC   C2B22220  44.758  27.045   8.250
 5952POPC   C3B22221  44.835  27.024   7.950
 5952POPC   C4B22222  44.813  27.067   7.650
 5953POPC   NC322223  31.433  20.569   9.450
 5953POPC   PO422224  31.484  20.626   9.150
 5953POPC   GL122225  31.510  20.636   8.850
 5953POPC   GL222226  31.599  20.683   8.850
 5953POPC   C1A22227  31.462  20.636   8.550
 5953POPC   D2A22228  31.424  20.612   8.250
 5953POPC   C3A22229  31.471  20.614   7.950
 5953POPC   C4A22230  31.480  20.638   7.650
 5953POPC   C1B22231  31.706  20.661   8.550
 5953POPC   C2B22232  31.690  20.656   8.250
 5953POPC   C3B22233  31.669  20.670   7.950
 5953POPC   C4B22234  31.742  20.682   7.650
 5954POPC   NC322235  12.851  17.534   9.450
 5954POPC   PO422236  12.811  17.490   9.150
 5954POPC   GL122237  12.865  17.512   8.850
 5954POPC   GL222238  12.965  17.524   8.850
 5954POPC   C1A22239  12.827  17.494   8.550
 5954POPC   D2A22240  12.808  17.497   8.250
 5954POPC   C3A22241  12.891  17.522   7.950
 5954POPC   C4A22242  12.875  17.476   7.650
 5954POPC   C1B22243  13.126  17.542   8.550
 5954POPC   C2B22244  13.130  17.576   8.250
 5954POPC   C3B22245  13.067  17.598   7.950
 5954POPC   C4B22246  13.112  17.627   7.650
 5955POPC   NC322247  30.670   0.414   9.450
 5955POPC   PO422248  30.698   0.412   9.150
 5955POPC   GL122249  30.674   0.388   8.850
 5955POPC   GL222250  30.637   0.370   8.850
 5955POPC   C1A22251  30.715   0.442   8.550
 5955POPC   D2A22252  30.714   0.429   8.250
 5955POPC   C3A22253  30.670   0.412   7.950
 5955POPC   C4A22254  30.709   0.411   7.650
 5955POPC   C1B22255  30.455   0.261   8.550
 5955POPC   C2B22256  30.434   0.283   8.250
 5955POPC   C3B22257  30.467   0.310   7.950
 5955POPC   C4B22258  30.517   0.296   7.650
 5956POPC   NC322259  33.785  18.316   9.450
 5956POPC   PO422260  33.831  18.252   9.150
 5956POPC   GL122261  33.839  18.270   8.850
 5956POPC   GL222262  33.891  18.381   8.850
 5956POPC   C1A22263  33.818  18.264   8.550
 5956POPC   D2A22264  33.843  18.261   8.250
 5956POPC   C3A22265  33.823  18.286   7.950
 5956POPC   C4A22266  33.796  18.256   7.650
 5956POPC   C1B22267  34.018  18.414   8.550
 5956POPC   C2B22268  34.000  18.425   8.250
 5956POPC   C3B22269  34.002  18.449   7.950
 5956POPC   C4B22270  33.998  18.393   7.650
 5957POPC   NC322271   8.217  28.386   9.450
 5957POPC   PO422272   8.186  28.408   9.150
 5957POPC   GL122273   8.235  28.343   8.850
 5957POPC   GL222274   8.357  28.366   8.850
 5957POPC   C1A22275   8.151  28.325   8.550
 5957POPC   D2A22276   8.198  28.418   8.250
 5957POPC   C3A22277   8.165  28.387   7.950
 5957POPC   C4A22278   8.219  28.394   7.650
 5957POPC   C1B22279   8.394  28.327   8.550
 5957POPC   C2B22280   8.459  28.265   8.250
 5957POPC   C3B22281   8.464  28.286   7.950
 5957POPC   C4B22282   8.390  28.313   7.650
 5958POPC   NC322283  44.655   4.300   9.450
 5958POPC   PO422284  44.667   4.312   9.150
 5958POPC   GL122285  44.692   4.343   8.850
 5958POPC   GL222286  44.592   4.458   8.850
 5958POPC   C1A22287  44.703   4.296   8.550
 5958POPC   D2A22288  44.622   4.330   8.250
 5958POPC   C3A22289  44.645   4.362   7.950
 5958POPC   C4A22290  44.657   4.332   7.650
 5958POPC   C1B22291  44.542   4.533   8.550
 5958POPC   C2B22292  44.545   4.505   8.250
 5958POPC   C3B22293  44.522   4.480   7.950
 5958POPC   C4B22294  44.466   4.540   7.650
 5959POPC   NC322295  31.464  10.544   9.450
 5959POPC   PO422296  31.515  10.561   9.150
 5959POPC   GL122297  31.453  10.568   8.850
 5959POPC   GL222298  31.637  10.608   8.850
 5959POPC   C1A22299  31.440  10.515   8.550
 5959POPC   D2A22300  31.499  10.527   8.250
 5959POPC   C3A22301  31.447  10.563   7.950
 5959POPC   C4A22302  31.440  10.506   7.650
 5959POPC   C1B22303  31.694  10.616   8.550
 5959POPC   C2B22304  31.686  10.653   8.250
 5959POPC   C3B22305  31.694  10.621   7.950
 5959POPC   C4B22306  31.743  10.647   7.650
 5960POPC   NC322307   7.372  19.795   9.450
 5960POPC   PO422308   7.395  19.785   9.150
 5960POPC   GL122309   7.416  19.819   8.850
 5960POPC   GL222310   7.418  19.706   8.850
 5960POPC   C1A22311   7.468  19.810   8.550
 5960POPC   D2A22312   7.396  19.785   8.250
 5960POPC   C3A22313   7.413  19.811   7.950
 5960POPC   C4A22314   7.433  19.843   7.650
 5960POPC   C1B22315   7.491  19.583   8.550
 5960POPC   C2B22316   7.508  19.632   8.250
 5960POPC   C3B22317   7.476  19.563   7.950
 5960POPC   C4B22318   7.454  19.592   7.650
 5961POPC   NC322319   8.198  37.720   9.450
 5961POPC   PO422320   8.177  37.662   9.150
 5961POPC   GL122321   8.207  37.668   8.850
 5961POPC   GL222322   8.279  37.767   8.850
 5961POPC   C1A22323   8.173  37.690   8.550
 5961POPC   D2A22324   8.237  37.635   8.250
 5961POPC   C3A22325   8.210  37.650   7.950
 5961POPC   C4A22326   8.230  37.716   7.650
 5961POPC   C1B22327   8.395  37.804   8.550
 5961POPC   C2B22328   8.380  37.841   8.250
 5961POPC   C3B22329   8.443  37.822   7.950
 5961POPC   C4B22330   8.374  37.821   7.650
 5962POPC   NC322331  36.119  20.640   9.450
 5962POPC   PO422332  36.166  20.621   9.150
 5962POPC   GL122333  36.087  20.600   8.850
 5962POPC   GL222334  35.982  20.630   8.850
 5962POPC   C1A22335  36.102  20.609   8.550
 5962POPC   D2A22336  36.093  20.646   8.250
 5962POPC   C3A22337  36.085  20.645   7.950
 5962POPC   C4A22338  36.149  20.603   7.650
 5962POPC   C1B22339  35.888  20.595   8.550
 5962POPC   C2B22340  35.917  20.611   8.250
 5962POPC   C3B22341  35.894  20.626   7.950
 5962POPC   C4B22342  35.842  20.673   7.650
 5963POPC   NC322343  31.513   8.968   9.450
 5963POPC   PO422344  31.466   8.997   9.150
 5963POPC   GL122345  31.466   8.989   8.850
 5963POPC   GL222346  31.585   8.944   8.850
 5963POPC   C1A22347  31.456   8.978   8.550
 5963POPC   D2A22348  31.522   8.963   8.250
 5963POPC   C3A22349  31.475   9.022   7.950
 5963POPC   C4A22350  31.495   8.992   7.650
 5963POPC   C1B22351  31.693   8.832   8.550
 5963POPC   C2B22352  31.659   8.816   8.250
 5963POPC   C3B22353  31.658   8.858   7.950
 5963POPC   C4B22354  31.662   8.871   7.650
 5964POPC   NC322355  43.884  14.452   9.450
 5964POPC   PO422356  43.891  14.375   9.150
 5964POPC   GL122357  43.899  14.426   8.850
 5964POPC   GL222358  43.872  14.291   8.850
 5964POPC   C1A22359  43.873  14.384   8.550
 5964POPC   D2A22360  43.869  14.447   8.250
 5964POPC   C3A22361  43.852  14.431   7.950
 5964POPC   C4A22362  43.915  14.363   7.650
 5964POPC   C1B22363  43.870  14.192   8.550
 5964POPC   C2B22364  43.887  14.181   8.250
 5964POPC   C3B22365  43.897  14.151   7.950
 5964POPC   C4B22366  43.938  14.117   7.650
 5965POPC   NC322367  42.373  37.693   9.450
 5965POPC   PO422368  42.333  37.679   9.150
 5965POPC   GL122369  42.328  37.704   8.850
 5965POPC   GL222370  42.431  37.694   8.850
 5965POPC   C1A22371  42.292  37.689   8.550
 5965POPC   D2A22372  42.297  37.724   8.250
 5965POPC   C3A22373  42.382  37.676   7.950
 5965POPC   C4A22374  42.314  37.680   7.650
 5965POPC   C1B22375  42.523  37.748   8.550
 5965POPC   C2B22376  42.610  37.780   8.250
 5965POPC   C3B22377  42.588  37.818   7.950
 5965POPC   C4B22378  42.541  37.768   7.650
 5966POPC   NC322379   8.971  28.370   9.450
 5966POPC   PO422380   8.929  28.323   9.150
 5966POPC   GL122381   8.965  28.367   8.850
 5966POPC   GL222382   8.879  28.340   8.850
 5966POPC   C1A22383   8.942  28.414   8.550
 5966POPC   D2A22384   8.961  28.324   8.250
 5966POPC   C3A22385   9.010  28.359   7.950
 5966POPC   C4A22386   8.939  28.342   7.650
 5966POPC   C1B22387   8.710  28.300   8.550
 5966POPC   C2B22388   8.729  28.267   8.250
 5966POPC   C3B22389   8.762  28.293   7.950
 5966POPC   C4B22390   8.781  28.336   7.650
 5967POPC   NC322391  21.379   5.821   9.450
 5967POPC   PO422392  21.356   5.892   9.150
 5967POPC   GL122393  21.392   5.888   8.850
 5967POPC   GL222394  21.432   5.806   8.850
 5967POPC   C1A22395  21.410   5.820   8.550
 5967POPC   D2A22396  21.411   5.888   8.250
 5967POPC   C3A22397  21.360   5.891   7.950
 5967POPC   C4A22398  21.395   5.855   7.650
 5967POPC   C1B22399  21.603   5.710   8.550
 5967POPC   C2B22400  21.526   5.687   8.250
 5967POPC   C3B22401  21.548   5.738   7.950
 5967POPC   C4B22402  21.542   5.727   7.650
 5968POPC   NC322403  32.980   6.640   9.450
 5968POPC   PO422404  33.022   6.628   9.150
 5968POPC   GL122405  33.039   6.622   8.850
 5968POPC   GL222406  33.193   6.677   8.850
 5968POPC   C1A22407  32.976   6.650   8.550
 5968POPC   D2A22408  32.989   6.658   8.250
 5968POPC   C3A22409  33.023   6.608   7.950
 5968POPC   C4A22410  32.983   6.684   7.650
 5968POPC   C1B22411  33.235   6.646   8.550
 5968POPC   C2B22412  33.257   6.666   8.250
 5968POPC   C3B22413  33.314   6.595   7.950
 5968POPC   C4B22414  33.284   6.615   7.650
 5969POPC   NC322415  32.252  39.223   9.450
 5969POPC   PO422416  32.226  39.197   9.150
 5969POPC   GL122417  32.246  39.232   8.850
 5969POPC   GL222418  32.285  39.330   8.850
 5969POPC   C1A22419  32.209  39.183   8.550
 5969POPC   D2A22420  32.251  39.228   8.250
 5969POPC   C3A22421  32.258  39.203   7.950
 5969POPC   C4A22422  32.294  39.275   7.650
 5969POPC   C1B22423  32.422  39.411   8.550
 5969POPC   C2B22424  32.420  39.457   8.250
 5969POPC   C3B22425  32.375  39.444   7.950
 5969POPC   C4B22426  32.392  39.444   7.650
 5970POPC   NC322427  40.770  40.757   9.450
 5970POPC   PO422428  40.738  40.825   9.150
 5970POPC   GL122429  40.771  40.820   8.850
 5970POPC   GL222430  40.865  40.729   8.850
 5970POPC   C1A22431  40.775  40.807   8.550
 5970POPC   D2A22432  40.812  40.745   8.250
 5970POPC   C3A22433  40.799  40.800   7.950
 5970POPC   C4A22434  40.762  40.804   7.650
 5970POPC   C1B22435  40.976  40.607   8.550
 5970POPC   C2B22436  40.987  40.626   8.250
 5970POPC   C3B22437  40.968  40.593   7.950
 5970POPC   C4B22438  40.959  40.597   7.650
 5971POPC   NC322439  12.070  15.932   9.450
 5971POPC   PO422440  12.057  15.989   9.150
 5971POPC   GL122441  12.084  15.991   8.850
 5971POPC   GL222442  12.022  15.802   8.850
 5971POPC   C1A22443  12.054  15.920   8.550
 5971POPC   D2A22444  12.092  15.939   8.250
 5971POPC   C3A22445  12.126  15.960   7.950
 5971POPC   C4A22446  12.066  15.960   7.650
 5971POPC   C1B22447  12.041  15.684   8.550
 5971POPC   C2B22448  12.003  15.740   8.250
 5971POPC   C3B22449  12.014  15.700   7.950
 5971POPC   C4B22450  12.075  15.686   7.650
 5972POPC   NC322451   2.018  38.442   9.450
 5972POPC   PO422452   1.964  38.502   9.150
 5972POPC   GL122453   2.024  38.411   8.850
 5972POPC   GL222454   1.935  38.548   8.850
 5972POPC   C1A22455   1.985  38.480   8.550
 5972POPC   D2A22456   2.025  38.412   8.250
 5972POPC   C3A22457   1.942  38.468   7.950
 5972POPC   C4A22458   1.968  38.429   7.650
 5972POPC   C1B22459   1.865  38.668   8.550
 5972POPC   C2B22460   1.849  38.678   8.250
 5972POPC   C3B22461   1.897  38.653   7.950
 5972POPC   C4B22462   1.889  38.703   7.650
 5973POPC   NC322463   1.196   3.558   9.450
 5973POPC   PO422464   1.218   3.537   9.150
 5973POPC   GL122465   1.181   3.522   8.850
 5973POPC   GL222466   1.094   3.507   8.850
 5973POPC   C1A22467   1.203   3.551   8.550
 5973POPC   D2A22468   1.179   3.507   8.250
 5973POPC   C3A22469   1.228   3.505   7.950
 5973POPC   C4A22470   1.213   3.545   7.650
 5973POPC   C1B22471   0.958   3.520   8.550
 5973POPC   C2B22472   1.000   3.534   8.250
 5973POPC   C3B22473   0.974   3.455   7.950
 5973POPC   C4B22474   0.976   3.451   7.650
 5974POPC   NC322475  29.113  40.782   9.450
 5974POPC   PO422476  29.120  40.794   9.150
 5974POPC   GL122477  29.180  40.828   8.850
 5974POPC   GL222478  29.268  40.827   8.850
 5974POPC   C1A22479  29.177  40.792   8.550
 5974POPC   D2A22480  29.150  40.832   8.250
 5974POPC   C3A22481  29.185  40.739   7.950
 5974POPC   C4A22482  29.131  40.777   7.650
 5974POPC   C1B22483  29.390  40.841   8.550
 5974POPC   C2B22484  29.401  40.856   8.250
 5974POPC   C3B22485  29.394  40.830   7.950
 5974POPC   C4B22486  29.380  40.871   7.650
 5975POPC   NC322487  18.290  41.567   9.450
 5975POPC   PO422488  18.306  41.510   9.150
 5975POPC   GL122489  18.297  41.552   8.850
 5975POPC   GL222490  18.113  41.581   8.850
 5975POPC   C1A22491  18.273  41.565   8.550
 5975POPC   D2A22492  18.322  41.581   8.250
 5975POPC   C3A22493  18.252  41.546   7.950
 5975POPC   C4A22494  18.283  41.595   7.650
 5975POPC   C1B22495  18.051  41.549   8.550
 5975POPC   C2B22496  18.056  41.580   8.250
 5975POPC   C3B22497  17.986  41.620   7.950
 5975POPC   C4B22498  18.012  41.572   7.650
 5976POPC   NC322499  36.101  38.455   9.450
 5976POPC   PO422500  36.166  38.464   9.150
 5976POPC   GL122501  36.095  38.425   8.850
 5976POPC   GL222502  36.099  38.357   8.850
 5976POPC   C1A22503  36.175  38.447   8.550
 5976POPC   D2A22504  36.088  38.447   8.250
 5976POPC   C3A22505  36.090  38.484   7.950
 5976POPC   C4A22506  36.154  38.485   7.650
 5976POPC   C1B22507  36.017  38.228   8.550
 5976POPC   C2B22508  35.966  38.238   8.250
 5976POPC   C3B22509  35.977  38.226   7.950
 5976POPC   C4B22510  35.975  38.227   7.650
 5977POPC   NC322511   5.115  22.143   9.450
 5977POPC   PO422512   5.043  22.209   9.150
 5977POPC   GL122513   5.121  22.174   8.850
 5977POPC   GL222514   5.049  22.051   8.850
 5977POPC   C1A22515   5.097  22.157   8.550
 5977POPC   D2A22516   5.054  22.147   8.250
 5977POPC   C3A22517   5.047  22.155   7.950
 5977POPC   C4A22518   5.110  22.172   7.650
 5977POPC   C1B22519   4.988  21.916   8.550
 5977POPC   C2B22520   4.921  21.994   8.250
 5977POPC   C3B22521   4.918  21.996   7.950
 5977POPC   C4B22522   4.976  22.008   7.650
 5978POPC   NC322523  44.673  15.959   9.450
 5978POPC   PO422524  44.628  15.990   9.150
 5978POPC   GL122525  44.711  15.969   8.850
 5978POPC   GL222526  44.800  15.928   8.850
 5978POPC   C1A22527  44.703  15.927   8.550
 5978POPC   D2A22528  44.634  15.957   8.250
 5978POPC   C3A22529  44.693  15.976   7.950
 5978POPC   C4A22530  44.673  16.001   7.650
 5978POPC   C1B22531  44.890  15.881   8.550
 5978POPC   C2B22532  44.876  15.875   8.250
 5978POPC   C3B22533  44.900  15.931   7.950
 5978POPC   C4B22534  44.926  15.884   7.650
 5979POPC   NC322535  36.881  15.152   9.450
 5979POPC   PO422536  36.933  15.228   9.150
 5979POPC   GL122537  36.865  15.144   8.850
 5979POPC   GL222538  36.777  15.216   8.850
 5979POPC   C1A22539  36.883  15.219   8.550
 5979POPC   D2A22540  36.855  15.203   8.250
 5979POPC   C3A22541  36.923  15.197   7.950
 5979POPC   C4A22542  36.856  15.220   7.650
 5979POPC   C1B22543  36.664  15.235   8.550
 5979POPC   C2B22544  36.648  15.242   8.250
 5979POPC   C3B22545  36.718  15.274   7.950
 5979POPC   C4B22546  36.660  15.333   7.650
 5980POPC   NC322547  18.241  30.694   9.450
 5980POPC   PO422548  18.286  30.712   9.150
 5980POPC   GL122549  18.246  30.694   8.850
 5980POPC   GL222550  18.347  30.837   8.850
 5980POPC   C1A22551  18.244  30.682   8.550
 5980POPC   D2A22552  18.331  30.727   8.250
 5980POPC   C3A22553  18.249  30.724   7.950
 5980POPC   C4A22554  18.283  30.732   7.650
 5980POPC   C1B22555  18.403  30.889   8.550
 5980POPC   C2B22556  18.455  30.899   8.250
 5980POPC   C3B22557  18.463  30.934   7.950
 5980POPC   C4B22558  18.415  30.918   7.650
 5981POPC   NC322559  18.297  43.849   9.450
 5981POPC   PO422560  18.316  43.925   9.150
 5981POPC   GL122561  18.280  43.862   8.850
 5981POPC   GL222562  18.408  43.806   8.850
 5981POPC   C1A22563  18.257  43.879   8.550
 5981POPC   D2A22564  18.241  43.844   8.250
 5981POPC   C3A22565  18.291  43.871   7.950
 5981POPC   C4A22566  18.330  43.926   7.650
 5981POPC   C1B22567  18.541  43.816   8.550
 5981POPC   C2B22568  18.568  43.786   8.250
 5981POPC   C3B22569  18.516  43.845   7.950
 5981POPC   C4B22570  18.541  43.830   7.650
 5982POPC   NC322571   1.989   4.278   9.450
 5982POPC   PO422572   2.033   4.295   9.150
 5982POPC   GL122573   1.942   4.286   8.850
 5982POPC   GL222574   2.062   4.226   8.850
 5982POPC   C1A22575   2.009   4.280   8.550
 5982POPC   D2A22576   1.966   4.365   8.250
 5982POPC   C3A22577   2.025   4.352   7.950
 5982POPC   C4A22578   1.955   4.308   7.650
 5982POPC   C1B22579   2.076   4.033   8.550
 5982POPC   C2B22580   2.075   4.068   8.250
 5982POPC   C3B22581   2.021   4.043   7.950
 5982POPC   C4B22582   2.046   4.073   7.650
 5983POPC   NC322583  23.671   0.420   9.450
 5983POPC   PO422584  23.689   0.482   9.150
 5983POPC   GL122585  23.724   0.391   8.850
 5983POPC   GL222586  23.886   0.428   8.850
 5983POPC   C1A22587  23.685   0.468   8.550
 5983POPC   D2A22588  23.736   0.443   8.250
 5983POPC   C3A22589  23.679   0.483   7.950
 5983POPC   C4A22590  23.717   0.417   7.650
 5983POPC   C1B22591  23.936   0.459   8.550
 5983POPC   C2B22592  23.919   0.451   8.250
 5983POPC   C3B22593  23.936   0.429   7.950
 5983POPC   C4B22594  23.978   0.405   7.650
 5984POPC   NC322595  24.529  39.270   9.450
 5984POPC   PO422596  24.514  39.209   9.150
 5984POPC   GL122597  24.440  39.238   8.850
 5984POPC   GL222598  24.485  39.062   8.850
 5984POPC   C1A22599  24.511  39.200   8.550
 5984POPC   D2A22600  24.503  39.241   8.250
 5984POPC   C3A22601  24.492  39.226   7.950
 5984POPC   C4A22602  24.502  39.215   7.650
 5984POPC   C1B22603  24.499  38.965   8.550
 5984POPC   C2B22604  24.499  39.019   8.250
 5984POPC   C3B22605  24.533  38.943   7.950
 5984POPC   C4B22606  24.491  38.956   7.650
 5985POPC   NC322607   8.219  32.993   9.450
 5985POPC   PO422608   8.227  32.991   9.150
 5985POPC   GL122609   8.219  32.976   8.850
 5985POPC   GL222610   8.094  33.154   8.850
 5985POPC   C1A22611   8.198  33.042   8.550
 5985POPC   D2A22612   8.178  33.009   8.250
 5985POPC   C3A22613   8.193  33.011   7.950
 5985POPC   C4A22614   8.207  33.006   7.650
 5985POPC   C1B22615   8.094  33.262   8.550
 5985POPC   C2B22616   8.045  33.217   8.250
 5985POPC   C3B22617   8.099  33.242   7.950
 5985POPC   C4B22618   8.122  33.210   7.650
 5986POPC   NC322619  37.685  42.316   9.450
 5986POPC   PO422620  37.725  42.329   9.150
 5986POPC   GL122621  37.687  42.346   8.850
 5986POPC   GL222622  37.793  42.381   8.850
 5986POPC   C1A22623  37.700  42.337   8.550
 5986POPC   D2A22624  37.686  42.304   8.250
 5986POPC   C3A22625  37.721  42.382   7.950
 5986POPC   C4A22626  37.664  42.336   7.650
 5986POPC   C1B22627  37.906  42.500   8.550
 5986POPC   C2B22628  37.900  42.543   8.250
 5986POPC   C3B22629  37.865  42.519   7.950
 5986POPC   C4B22630  37.856  42.498   7.650
 5987POPC   NC322631  34.604  21.403   9.450
 5987POPC   PO422632  34.615  21.405   9.150
 5987POPC   GL122633  34.589  21.341   8.850
 5987POPC   GL222634  34.685  21.508   8.850
 5987POPC   C1A22635  34.603  21.427   8.550
 5987POPC   D2A22636  34.610  21.379   8.250
 5987POPC   C3A22637  34.624  21.390   7.950
 5987POPC   C4A22638  34.586  21.369   7.650
 5987POPC   C1B22639  34.696  21.600   8.550
 5987POPC   C2B22640  34.717  21.545   8.250
 5987POPC   C3B22641  34.709  21.578   7.950
 5987POPC   C4B22642  34.727  21.621   7.650
 5988POPC   NC322643  44.689   5.138   9.450
 5988POPC   PO422644  44.616   5.044   9.150
 5988POPC   GL122645  44.668   5.108   8.850
 5988POPC   GL222646  44.521   5.148   8.850
 5988POPC   C1A22647  44.675   5.135   8.550
 5988POPC   D2A22648  44.696   5.141   8.250
 5988POPC   C3A22649  44.627   5.055   7.950
 5988POPC   C4A22650  44.649   5.096   7.650
 5988POPC   C1B22651  44.415   5.230   8.550
 5988POPC   C2B22652  44.427   5.196   8.250
 5988POPC   C3B22653  44.470   5.168   7.950
 5988POPC   C4B22654  44.447   5.164   7.650
 5989POPC   NC322655   1.957  27.633   9.450
 5989POPC   PO422656   1.966  27.557   9.150
 5989POPC   GL122657   1.987  27.576   8.850
 5989POPC   GL222658   2.162  27.593   8.850
 5989POPC   C1A22659   1.940  27.578   8.550
 5989POPC   D2A22660   1.945  27.574   8.250
 5989POPC   C3A22661   1.988  27.595   7.950
 5989POPC   C4A22662   2.023  27.628   7.650
 5989POPC   C1B22663   2.251  27.571   8.550
 5989POPC   C2B22664   2.285  27.624   8.250
 5989POPC   C3B22665   2.208  27.623   7.950
 5989POPC   C4B22666   2.240  27.641   7.650
 5990POPC   NC322667  33.009  32.265   9.450
 5990POPC   PO422668  33.022  32.292   9.150
 5990POPC   GL122669  32.981  32.298   8.850
 5990POPC   GL222670  33.012  32.363   8.850
 5990POPC   C1A22671  33.044  32.252   8.550
 5990POPC   D2A22672  33.061  32.224   8.250
 5990POPC   C3A22673  33.050  32.246   7.950
 5990POPC   C4A22674  32.979  32.275   7.650
 5990POPC   C1B22675  32.983  32.515   8.550
 5990POPC   C2B22676  32.977  32.464   8.250
 5990POPC   C3B22677  32.891  32.495   7.950
 5990POPC   C4B22678  32.968  32.490   7.650
 5991POPC   NC322679  32.235  33.010   9.450
 5991POPC   PO422680  32.254  33.015   9.150
 5991POPC   GL122681  32.294  33.043   8.850
 5991POPC   GL222682  32.399  33.107   8.850
 5991POPC   C1A22683  32.204  33.067   8.550
 5991POPC   D2A22684  32.291  33.061   8.250
 5991POPC   C3A22685  32.262  33.025   7.950
 5991POPC   C4A22686  32.271  32.990   7.650
 5991POPC   C1B22687  32.439  33.173   8.550
 5991POPC   C2B22688  32.517  33.136   8.250
 5991POPC   C3B22689  32.437  33.143   7.950
 5991POPC   C4B22690  32.491  33.139   7.650
 5992POPC   NC322691  26.818  36.855   9.450
 5992POPC   PO422692  26.795  36.928   9.150
 5992POPC   GL122693  26.818  36.863   8.850
 5992POPC   GL222694  26.952  36.974   8.850
 5992POPC   C1A22695  26.824  36.936   8.550
 5992POPC   D2A22696  26.794  36.945   8.250
 5992POPC   C3A22697  26.779  36.936   7.950
 5992POPC   C4A22698  26.834  36.888   7.650
 5992POPC   C1B22699  27.041  37.058   8.550
 5992POPC   C2B22700  27.026  37.087   8.250
 5992POPC   C3B22701  26.988  37.048   7.950
 5992POPC   C4B22702  26.987  37.022   7.650
 5993POPC   NC322703   1.180  39.278   9.450
 5993POPC   PO422704   1.219  39.258   9.150
 5993POPC   GL122705   1.236  39.279   8.850
 5993POPC   GL222706   1.276  39.108   8.850
 5993POPC   C1A22707   1.206  39.238   8.550
 5993POPC   D2A22708   1.226  39.217   8.250
 5993POPC   C3A22709   1.198  39.257   7.950
 5993POPC   C4A22710   1.165  39.202   7.650
 5993POPC   C1B22711   1.331  39.006   8.550
 5993POPC   C2B22712   1.348  39.040   8.250
 5993POPC   C3B22713   1.329  39.004   7.950
 5993POPC   C4B22714   1.317  39.012   7.650
 5994POPC   NC322715  10.523  41.542   9.450
 5994POPC   PO422716  10.560  41.525   9.150
 5994POPC   GL122717  10.526  41.590   8.850
 5994POPC   GL222718  10.601  41.627   8.850
 5994POPC   C1A22719  10.511  41.512   8.550
 5994POPC   D2A22720  10.501  41.578   8.250
 5994POPC   C3A22721  10.541  41.602   7.950
 5994POPC   C4A22722  10.477  41.567   7.650
 5994POPC   C1B22723  10.804  41.646   8.550
 5994POPC   C2B22724  10.758  41.634   8.250
 5994POPC   C3B22725  10.728  41.610   7.950
 5994POPC   C4B22726  10.718  41.676   7.650
 5995POPC   NC322727  14.365   5.836   9.450
 5995POPC   PO422728  14.408   5.879   9.150
 5995POPC   GL122729  14.369   5.898   8.850
 5995POPC   GL222730  14.498   5.905   8.850
 5995POPC   C1A22731  14.393   5.892   8.550
 5995POPC   D2A22732  14.365   5.851   8.250
 5995POPC   C3A22733  14.385   5.841   7.950
 5995POPC   C4A22734  14.405   5.874   7.650
 5995POPC   C1B22735  14.673   5.960   8.550
 5995POPC   C2B22736  14.644   5.954   8.250
 5995POPC   C3B22737  14.632   5.973   7.950
 5995POPC   C4B22738  14.644   5.996   7.650
 5996POPC   NC322739   2.761  31.471   9.450
 5996POPC   PO422740   2.784  31.513   9.150
 5996POPC   GL122741   2.800  31.440   8.850
 5996POPC   GL222742   2.682  31.523   8.850
 5996POPC   C1A22743   2.778  31.477   8.550
 5996POPC   D2A22744   2.751  31.478   8.250
 5996POPC   C3A22745   2.738  31.476   7.950
 5996POPC   C4A22746   2.805  31.435   7.650
 5996POPC   C1B22747   2.615  31.582   8.550
 5996POPC   C2B22748   2.565  31.588   8.250
 5996POPC   C3B22749   2.574  31.658   7.950
 5996POPC   C4B22750   2.528  31.650   7.650
 5997POPC   NC322751  19.011  29.171   9.450
 5997POPC   PO422752  19.049  29.139   9.150
 5997POPC   GL122753  19.027  29.133   8.850
 5997POPC   GL222754  19.121  29.085   8.850
 5997POPC   C1A22755  19.105  29.176   8.550
 5997POPC   D2A22756  19.025  29.120   8.250
 5997POPC   C3A22757  19.047  29.190   7.950
 5997POPC   C4A22758  19.053  29.147   7.650
 5997POPC   C1B22759  19.233  29.021   8.550
 5997POPC   C2B22760  19.252  29.029   8.250
 5997POPC   C3B22761  19.214  29.020   7.950
 5997POPC   C4B22762  19.274  29.034   7.650
 5998POPC   NC322763   3.496  43.112   9.450
 5998POPC   PO422764   3.583  43.063   9.150
 5998POPC   GL122765   3.515  43.159   8.850
 5998POPC   GL222766   3.388  43.017   8.850
 5998POPC   C1A22767   3.558  43.063   8.550
 5998POPC   D2A22768   3.518  43.139   8.250
 5998POPC   C3A22769   3.535  43.092   7.950
 5998POPC   C4A22770   3.541  43.070   7.650
 5998POPC   C1B22771   3.318  42.978   8.550
 5998POPC   C2B22772   3.313  42.973   8.250
 5998POPC   C3B22773   3.278  43.046   7.950
 5998POPC   C4B22774   3.314  42.987   7.650
 5999POPC   NC322775  21.411   7.394   9.450
 5999POPC   PO422776  21.396   7.469   9.150
 5999POPC   GL122777  21.434   7.390   8.850
 5999POPC   GL222778  21.297   7.486   8.850
 5999POPC   C1A22779  21.401   7.398   8.550
 5999POPC   D2A22780  21.365   7.421   8.250
 5999POPC   C3A22781  21.338   7.422   7.950
 5999POPC   C4A22782  21.354   7.382   7.650
 5999POPC   C1B22783  21.246   7.653   8.550
 5999POPC   C2B22784  21.235   7.656   8.250
 5999POPC   C3B22785  21.253   7.614   7.950
 5999POPC   C4B22786  21.291   7.648   7.650
 6000POPC   NC322787   7.403   3.510   9.450
 6000POPC   PO422788   7.420   3.571   9.150
 6000POPC   GL122789   7.413   3.551   8.850
 6000POPC   GL222790   7.254   3.591   8.850
 6000POPC   C1A22791   7.383   3.510   8.550
 6000POPC   D2A22792   7.443   3.509   8.250
 6000POPC   C3A22793   7.465   3.588   7.950
 6000POPC   C4A22794   7.424   3.533   7.650
 6000POPC   C1B22795   7.127   3.579   8.550
 6000POPC   C2B22796   7.147   3.555   8.250
 6000POPC   C3B22797   7.149   3.577   7.950
 6000POPC   C4B22798   7.165   3.580   7.650
 6001POPC   NC322799  23.721   1.165   9.450
 6001POPC   PO422800  23.750   1.238   9.150
 6001POPC   GL122801  23.672   1.197   8.850
 6001POPC   GL222802  23.596   1.264   8.850
 6001POPC   C1A22803  23.740   1.240   8.550
 6001POPC   D2A22804  23.686   1.251   8.250
 6001POPC   C3A22805  23.720   1.221   7.950
 6001POPC   C4A22806  23.750   1.236   7.650
 6001POPC   C1B22807  23.504   1.421   8.550
 6001POPC   C2B22808  23.554   1.420   8.250
 6001POPC   C3B22809  23.525   1.375   7.950
 6001POPC   C4B22810  23.571   1.379   7.650
 6002POPC   NC322811  18.326  36.902   9.450
 6002POPC   PO422812  18.292  36.927   9.150
 6002POPC   GL122813  18.236  36.902   8.850
 6002POPC   GL222814  18.377  37.019   8.850
 6002POPC   C1A22815  18.277  36.882   8.550
 6002POPC   D2A22816  18.279  36.895   8.250
 6002POPC   C3A22817  18.285  36.894   7.950
 6002POPC   C4A22818  18.244  36.864   7.650
 6002POPC   C1B22819  18.506  37.062   8.550
 6002POPC   C2B22820  18.449  37.083   8.250
 6002POPC   C3B22821  18.486  37.050   7.950
 6002POPC   C4B22822  18.416  37.105   7.650
 6003POPC   NC322823  20.658  22.921   9.450
 6003POPC   PO422824  20.614  22.892   9.150
 6003POPC   GL122825  20.563  22.985   8.850
 6003POPC   GL222826  20.719  22.921   8.850
 6003POPC   C1A22827  20.613  22.913   8.550
 6003POPC   D2A22828  20.598  22.924   8.250
 6003POPC   C3A22829  20.589  22.926   7.950
 6003POPC   C4A22830  20.568  22.981   7.650
 6003POPC   C1B22831  20.829  23.008   8.550
 6003POPC   C2B22832  20.839  23.019   8.250
 6003POPC   C3B22833  20.904  22.953   7.950
 6003POPC   C4B22834  20.821  23.011   7.650
 6004POPC   NC322835   7.425  33.071   9.450
 6004POPC   PO422836   7.445  33.029   9.150
 6004POPC   GL122837   7.414  33.034   8.850
 6004POPC   GL222838   7.329  33.122   8.850
 6004POPC   C1A22839   7.402  33.061   8.550
 6004POPC   D2A22840   7.466  32.988   8.250
 6004POPC   C3A22841   7.451  33.062   7.950
 6004POPC   C4A22842   7.455  33.051   7.650
 6004POPC   C1B22843   7.295  33.245   8.550
 6004POPC   C2B22844   7.330  33.297   8.250
 6004POPC   C3B22845   7.298  33.257   7.950
 6004POPC   C4B22846   7.318  33.224   7.650
 6005POPC   NC322847  26.846  12.809   9.450
 6005POPC   PO422848  26.861  12.861   9.150
 6005POPC   GL122849  26.840  12.896   8.850
 6005POPC   GL222850  26.822  12.737   8.850
 6005POPC   C1A22851  26.769  12.825   8.550
 6005POPC   D2A22852  26.820  12.839   8.250
 6005POPC   C3A22853  26.804  12.876   7.950
 6005POPC   C4A22854  26.850  12.822   7.650
 6005POPC   C1B22855  26.900  12.579   8.550
 6005POPC   C2B22856  26.952  12.593   8.250
 6005POPC   C3B22857  26.910  12.593   7.950
 6005POPC   C4B22858  26.874  12.583   7.650
 6006POPC   NC322859  16.748  39.963   9.450
 6006POPC   PO422860  16.717  40.044   9.150
 6006POPC   GL122861  16.739  40.039   8.850
 6006POPC   GL222862  16.671  39.904   8.850
 6006POPC   C1A22863  16.765  40.043   8.550
 6006POPC   D2A22864  16.706  39.988   8.250
 6006POPC   C3A22865  16.703  40.006   7.950
 6006POPC   C4A22866  16.750  40.012   7.650
 6006POPC   C1B22867  16.520  39.904   8.550
 6006POPC   C2B22868  16.566  39.839   8.250
 6006POPC   C3B22869  16.486  39.878   7.950
 6006POPC   C4B22870  16.582  39.823   7.650
 6007POPC   NC322871   2.718  28.413   9.450
 6007POPC   PO422872   2.724  28.345   9.150
 6007POPC   GL122873   2.737  28.340   8.850
 6007POPC   GL222874   2.820  28.217   8.850
 6007POPC   C1A22875   2.723  28.348   8.550
 6007POPC   D2A22876   2.740  28.343   8.250
 6007POPC   C3A22877   2.794  28.340   7.950
 6007POPC   C4A22878   2.787  28.392   7.650
 6007POPC   C1B22879   2.894  28.126   8.550
 6007POPC   C2B22880   2.848  28.197   8.250
 6007POPC   C3B22881   2.865  28.197   7.950
 6007POPC   C4B22882   2.903  28.179   7.650
 6008POPC   NC322883  16.683  25.265   9.450
 6008POPC   PO422884  16.723  25.219   9.150
 6008POPC   GL122885  16.701  25.290   8.850
 6008POPC   GL222886  16.864  25.314   8.850
 6008POPC   C1A22887  16.759  25.260   8.550
 6008POPC   D2A22888  16.773  25.293   8.250
 6008POPC   C3A22889  16.734  25.250   7.950
 6008POPC   C4A22890  16.709  25.244   7.650
 6008POPC   C1B22891  16.947  25.403   8.550
 6008POPC   C2B22892  16.910  25.383   8.250
 6008POPC   C3B22893  16.905  25.358   7.950
 6008POPC   C4B22894  16.985  25.431   7.650
 6009POPC   NC322895  12.104  16.682   9.450
 6009POPC   PO422896  12.118  16.760   9.150
 6009POPC   GL122897  12.033  16.727   8.850
 6009POPC   GL222898  12.137  16.761   8.850
 6009POPC   C1A22899  12.056  16.758   8.550
 6009POPC   D2A22900  12.091  16.703   8.250
 6009POPC   C3A22901  12.110  16.756   7.950
 6009POPC   C4A22902  12.030  16.727   7.650
 6009POPC   C1B22903  12.317  16.908   8.550
 6009POPC   C2B22904  12.279  16.927   8.250
 6009POPC   C3B22905  12.233  16.916   7.950
 6009POPC   C4B22906  12.221  16.926   7.650
 6010POPC   NC322907  25.261  39.267   9.450
 6010POPC   PO422908  25.246  39.190   9.150
 6010POPC   GL122909  25.263  39.194   8.850
 6010POPC   GL222910  25.103  39.183   8.850
 6010POPC   C1A22911  25.263  39.207   8.550
 6010POPC   D2A22912  25.261  39.251   8.250
 6010POPC   C3A22913  25.281  39.230   7.950
 6010POPC   C4A22914  25.293  39.279   7.650
 6010POPC   C1B22915  25.034  39.123   8.550
 6010POPC   C2B22916  25.021  39.186   8.250
 6010POPC   C3B22917  25.040  39.142   7.950
 6010POPC   C4B22918  25.064  39.207   7.650
 6011POPC   NC322919  36.113  29.905   9.450
 6011POPC   PO422920  36.130  29.934   9.150
 6011POPC   GL122921  36.117  29.939   8.850
 6011POPC   GL222922  36.081  30.067   8.850
 6011POPC   C1A22923  36.118  29.938   8.550
 6011POPC   D2A22924  36.150  29.887   8.250
 6011POPC   C3A22925  36.139  29.895   7.950
 6011POPC   C4A22926  36.130  29.966   7.650
 6011POPC   C1B22927  35.926  30.133   8.550
 6011POPC   C2B22928  35.960  30.111   8.250
 6011POPC   C3B22929  35.963  30.073   7.950
 6011POPC   C4B22930  35.970  30.148   7.650
 6012POPC   NC322931  12.821  36.939   9.450
 6012POPC   PO422932  12.887  36.927   9.150
 6012POPC   GL122933  12.818  36.916   8.850
 6012POPC   GL222934  12.715  36.801   8.850
 6012POPC   C1A22935  12.857  36.861   8.550
 6012POPC   D2A22936  12.836  36.897   8.250
 6012POPC   C3A22937  12.852  36.895   7.950
 6012POPC   C4A22938  12.816  36.890   7.650
 6012POPC   C1B22939  12.671  36.841   8.550
 6012POPC   C2B22940  12.660  36.841   8.250
 6012POPC   C3B22941  12.639  36.792   7.950
 6012POPC   C4B22942  12.623  36.831   7.650
 6013POPC   NC322943  36.095  32.293   9.450
 6013POPC   PO422944  36.107  32.287   9.150
 6013POPC   GL122945  36.175  32.257   8.850
 6013POPC   GL222946  36.285  32.228   8.850
 6013POPC   C1A22947  36.163  32.210   8.550
 6013POPC   D2A22948  36.080  32.290   8.250
 6013POPC   C3A22949  36.134  32.206   7.950
 6013POPC   C4A22950  36.092  32.295   7.650
 6013POPC   C1B22951  36.339  32.155   8.550
 6013POPC   C2B22952  36.394  32.196   8.250
 6013POPC   C3B22953  36.422  32.218   7.950
 6013POPC   C4B22954  36.414  32.165   7.650
 6014POPC   NC322955   6.607  22.191   9.450
 6014POPC   PO422956   6.678  22.165   9.150
 6014POPC   GL122957   6.636  22.159   8.850
 6014POPC   GL222958   6.669  22.226   8.850
 6014POPC   C1A22959   6.666  22.166   8.550
 6014POPC   D2A22960   6.659  22.190   8.250
 6014POPC   C3A22961   6.603  22.124   7.950
 6014POPC   C4A22962   6.619  22.169   7.650
 6014POPC   C1B22963   6.758  22.379   8.550
 6014POPC   C2B22964   6.741  22.416   8.250
 6014POPC   C3B22965   6.782  22.346   7.950
 6014POPC   C4B22966   6.788  22.400   7.650
 6015POPC   NC322967   3.586  12.814   9.450
 6015POPC   PO422968   3.533  12.804   9.150
 6015POPC   GL122969   3.506  12.870   8.850
 6015POPC   GL222970   3.532  12.783   8.850
 6015POPC   C1A22971   3.511  12.839   8.550
 6015POPC   D2A22972   3.506  12.839   8.250
 6015POPC   C3A22973   3.588  12.835   7.950
 6015POPC   C4A22974   3.534  12.829   7.650
 6015POPC   C1B22975   3.427  12.623   8.550
 6015POPC   C2B22976   3.447  12.630   8.250
 6015POPC   C3B22977   3.430  12.600   7.950
 6015POPC   C4B22978   3.413  12.597   7.650
 6016POPC   NC322979  20.583  44.701   9.450
 6016POPC   PO422980  20.573  44.664   9.150
 6016POPC   GL122981  20.579  44.630   8.850
 6016POPC   GL222982  20.676  44.546   8.850
 6016POPC   C1A22983  20.596  44.691   8.550
 6016POPC   D2A22984  20.651  44.710   8.250
 6016POPC   C3A22985  20.581  44.667   7.950
 6016POPC   C4A22986  20.629  44.684   7.650
 6016POPC   C1B22987  20.757  44.451   8.550
 6016POPC   C2B22988  20.736  44.522   8.250
 6016POPC   C3B22989  20.821  44.469   7.950
 6016POPC   C4B22990  20.779  44.468   7.650
 6017POPC   NC322991  44.620  19.811   9.450
 6017POPC   PO422992  44.661  19.833   9.150
 6017POPC   GL122993  44.617  19.834   8.850
 6017POPC   GL222994  44.523  19.816   8.850
 6017POPC   C1A22995  44.699  19.815   8.550
 6017POPC   D2A22996  44.695  19.840   8.250
 6017POPC   C3A22997  44.686  19.871   7.950
 6017POPC   C4A22998  44.668  19.804   7.650
 6017POPC   C1B22999  44.458  19.851   8.550
 6017POPC   C2B23000  44.451  19.870   8.250
 6017POPC   C3B23001  44.443  19.834   7.950
 6017POPC   C4B23002  44.462  19.828   7.650
 6018POPC   NC323003  20.579   9.016   9.450
 6018POPC   PO423004  20.653   8.943   9.150
 6018POPC   GL123005  20.573   8.942   8.850
 6018POPC   GL223006  20.599   8.904   8.850
 6018POPC   C1A23007  20.648   9.001   8.550
 6018POPC   D2A23008  20.573   9.008   8.250
 6018POPC   C3A23009  20.642   8.992   7.950
 6018POPC   C4A23010  20.626   8.958   7.650
 6018POPC   C1B23011  20.503   8.715   8.550
 6018POPC   C2B23012  20.543   8.769   8.250
 6018POPC   C3B23013  20.529   8.710   7.950
 6018POPC   C4B23014  20.535   8.723   7.650
 6019POPC   NC323015  32.978  14.448   9.450
 6019POPC   PO423016  32.975  14.438   9.150
 6019POPC   GL123017  33.052  14.411   8.850
 6019POPC   GL223018  33.170  14.349   8.850
 6019POPC   C1A23019  33.072  14.423   8.550
 6019POPC   D2A23020  33.028  14.426   8.250
 6019POPC   C3A23021  33.000  14.397   7.950
 6019POPC   C4A23022  33.060  14.372   7.650
 6019POPC   C1B23023  33.187  14.272   8.550
 6019POPC   C2B23024  33.206  14.217   8.250
 6019POPC   C3B23025  33.240  14.299   7.950
 6019POPC   C4B23026  33.222  14.279   7.650
 6020POPC   NC323027  13.670  12.861   9.450
 6020POPC   PO423028  13.655  12.895   9.150
 6020POPC   GL123029  13.618  12.850   8.850
 6020POPC   GL223030  13.702  12.792   8.850
 6020POPC   C1A23031  13.608  12.899   8.550
 6020POPC   D2A23032  13.604  12.888   8.250
 6020POPC   C3A23033  13.607  12.850   7.950
 6020POPC   C4A23034  13.641  12.884   7.650
 6020POPC   C1B23035  13.849  12.759   8.550
 6020POPC   C2B23036  13.840  12.789   8.250
 6020POPC   C3B23037  13.898  12.753   7.950
 6020POPC   C4B23038  13.821  12.796   7.650
 6021POPC   NC323039  40.011  43.915   9.450
 6021POPC   PO423040  39.980  43.836   9.150
 6021POPC   GL123041  40.014  43.851   8.850
 6021POPC   GL223042  40.145  43.846   8.850
 6021POPC   C1A23043  40.056  43.935   8.550
 6021POPC   D2A23044  39.994  43.898   8.250
 6021POPC   C3A23045  39.979  43.858   7.950
 6021POPC   C4A23046  40.027  43.846   7.650
 6021POPC   C1B23047  40.179  43.709   8.550
 6021POPC   C2B23048  40.142  43.720   8.250
 6021POPC   C3B23049  40.213  43.760   7.950
 6021POPC   C4B23050  40.179  43.741   7.650
 6022POPC   NC323051  14.453  12.851   9.450
 6022POPC   PO423052  14.393  12.868   9.150
 6022POPC   GL123053  14.396  12.866   8.850
 6022POPC   GL223054  14.301  12.983   8.850
 6022POPC   C1A23055  14.360  12.872   8.550
 6022POPC   D2A23056  14.415  12.898   8.250
 6022POPC   C3A23057  14.411  12.892   7.950
 6022POPC   C4A23058  14.363  12.831   7.650
 6022POPC   C1B23059  14.255  13.058   8.550
 6022POPC   C2B23060  14.198  13.028   8.250
 6022POPC   C3B23061  14.279  13.048   7.950
 6022POPC   C4B23062  14.213  12.986   7.650
 6023POPC   NC323063  20.631  11.349   9.450
 6023POPC   PO423064  20.650  11.330   9.150
 6023POPC   GL123065  20.568  11.279   8.850
 6023POPC   GL223066  20.556  11.166   8.850
 6023POPC   C1A23067  20.584  11.253   8.550
 6023POPC   D2A23068  20.621  11.293   8.250
 6023POPC   C3A23069  20.570  11.297   7.950
 6023POPC   C4A23070  20.628  11.294   7.650
 6023POPC   C1B23071  20.389  11.108   8.550
 6023POPC   C2B23072  20.384  11.167   8.250
 6023POPC   C3B23073  20.456  11.150   7.950
 6023POPC   C4B23074  20.387  11.103   7.650
 6024POPC   NC323075  20.595   7.390   9.450
 6024POPC   PO423076  20.610   7.392   9.150
 6024POPC   GL123077  20.627   7.424   8.850
 6024POPC   GL223078  20.610   7.507   8.850
 6024POPC   C1A23079  20.578   7.442   8.550
 6024POPC   D2A23080  20.572   7.451   8.250
 6024POPC   C3A23081  20.636   7.378   7.950
 6024POPC   C4A23082  20.575   7.440   7.650
 6024POPC   C1B23083  20.692   7.636   8.550
 6024POPC   C2B23084  20.679   7.707   8.250
 6024POPC   C3B23085  20.600   7.691   7.950
 6024POPC   C4B23086  20.611   7.687   7.650
 6025POPC   NC323087   3.524   1.164   9.450
 6025POPC   PO423088   3.525   1.221   9.150
 6025POPC   GL123089   3.499   1.234   8.850
 6025POPC   GL223090   3.708   1.169   8.850
 6025POPC   C1A23091   3.508   1.234   8.550
 6025POPC   D2A23092   3.569   1.224   8.250
 6025POPC   C3A23093   3.562   1.247   7.950
 6025POPC   C4A23094   3.527   1.179   7.650
 6025POPC   C1B23095   3.776   1.218   8.550
 6025POPC   C2B23096   3.803   1.227   8.250
 6025POPC   C3B23097   3.745   1.190   7.950
 6025POPC   C4B23098   3.805   1.173   7.650
 6026POPC   NC323099  38.442  40.022   9.450
 6026POPC   PO423100  38.441  40.034   9.150
 6026POPC   GL123101  38.438  39.988   8.850
 6026POPC   GL223102  38.567  39.873   8.850
 6026POPC   C1A23103  38.455  40.039   8.550
 6026POPC   D2A23104  38.476  39.975   8.250
 6026POPC   C3A23105  38.474  39.984   7.950
 6026POPC   C4A23106  38.406  39.980   7.650
 6026POPC   C1B23107  38.625  39.844   8.550
 6026POPC   C2B23108  38.602  39.871   8.250
 6026POPC   C3B23109  38.640  39.779   7.950
 6026POPC   C4B23110  38.646  39.821   7.650
 6027POPC   NC323111   0.391  19.102   9.450
 6027POPC   PO423112   0.430  19.093   9.150
 6027POPC   GL123113   0.457  19.080   8.850
 6027POPC   GL223114   0.580  19.130   8.850
 6027POPC   C1A23115   0.409  19.023   8.550
 6027POPC   D2A23116   0.419  19.013   8.250
 6027POPC   C3A23117   0.410  19.022   7.950
 6027POPC   C4A23118   0.422  19.020   7.650
 6027POPC   C1B23119   0.699  19.136   8.550
 6027POPC   C2B23120   0.701  19.149   8.250
 6027POPC   C3B23121   0.655  19.139   7.950
 6027POPC   C4B23122   0.640  19.163   7.650
 6028POPC   NC323123  16.682   2.720   9.450
 6028POPC   PO423124  16.713   2.734   9.150
 6028POPC   GL123125  16.770   2.778   8.850
 6028POPC   GL223126  16.705   2.851   8.850
 6028POPC   C1A23127  16.763   2.745   8.550
 6028POPC   D2A23128  16.749   2.754   8.250
 6028POPC   C3A23129  16.694   2.769   7.950
 6028POPC   C4A23130  16.761   2.793   7.650
 6028POPC   C1B23131  16.684   3.012   8.550
 6028POPC   C2B23132  16.714   3.047   8.250
 6028POPC   C3B23133  16.651   3.052   7.950
 6028POPC   C4B23134  16.681   2.975   7.650
 6029POPC   NC323135  44.644  38.484   9.450
 6029POPC   PO423136  44.652  38.423   9.150
 6029POPC   GL123137  44.686  38.414   8.850
 6029POPC   GL223138  44.632  38.324   8.850
 6029POPC   C1A23139  44.655  38.415   8.550
 6029POPC   D2A23140  44.706  38.460   8.250
 6029POPC   C3A23141  44.625  38.471   7.950
 6029POPC   C4A23142  44.708  38.447   7.650
 6029POPC   C1B23143  44.514  38.274   8.550
 6029POPC   C2B23144  44.522  38.217   8.250
 6029POPC   C3B23145  44.537  38.217   7.950
 6029POPC   C4B23146  44.497  38.270   7.650
 6030POPC   NC323147  36.874  34.593   9.450
 6030POPC   PO423148  36.860  34.543   9.150
 6030POPC   GL123149  36.951  34.573   8.850
 6030POPC   GL223150  36.968  34.673   8.850
 6030POPC   C1A23151  36.890  34.614   8.550
 6030POPC   D2A23152  36.930  34.571   8.250
 6030POPC   C3A23153  36.907  34.564   7.950
 6030POPC   C4A23154  36.919  34.549   7.650
 6030POPC   C1B23155  36.968  34.828   8.550
 6030POPC   C2B23156  36.953  34.778   8.250
 6030POPC   C3B23157  36.974  34.804   7.950
 6030POPC   C4B23158  36.930  34.863   7.650
 6031POPC   NC323159  11.323  31.462   9.450
 6031POPC   PO423160  11.320  31.489   9.150
 6031POPC   GL123161  11.279  31.511   8.850
 6031POPC   GL223162  11.296  31.394   8.850
 6031POPC   C1A23163  11.347  31.516   8.550
 6031POPC   D2A23164  11.289  31.466   8.250
 6031POPC   C3A23165  11.279  31.441   7.950
 6031POPC   C4A23166  11.306  31.477   7.650
 6031POPC   C1B23167  11.297  31.261   8.550
 6031POPC   C2B23168  11.286  31.271   8.250
 6031POPC   C3B23169  11.286  31.202   7.950
 6031POPC   C4B23170  11.318  31.177   7.650
 6032POPC   NC323171  33.765  39.278   9.450
 6032POPC   PO423172  33.814  39.242   9.150
 6032POPC   GL123173  33.764  39.236   8.850
 6032POPC   GL223174  33.670  39.271   8.850
 6032POPC   C1A23175  33.813  39.237   8.550
 6032POPC   D2A23176  33.757  39.276   8.250
 6032POPC   C3A23177  33.816  39.279   7.950
 6032POPC   C4A23178  33.813  39.183   7.650
 6032POPC   C1B23179  33.560  39.371   8.550
 6032POPC   C2B23180  33.594  39.318   8.250
 6032POPC   C3B23181  33.559  39.372   7.950
 6032POPC   C4B23182  33.569  39.331   7.650
 6033POPC   NC323183   9.796  39.278   9.450
 6033POPC   PO423184   9.712  39.187   9.150
 6033POPC   GL123185   9.775  39.223   8.850
 6033POPC   GL223186   9.800  39.296   8.850
 6033POPC   C1A23187   9.766  39.248   8.550
 6033POPC   D2A23188   9.783  39.245   8.250
 6033POPC   C3A23189   9.708  39.216   7.950
 6033POPC   C4A23190   9.763  39.245   7.650
 6033POPC   C1B23191   9.879  39.387   8.550
 6033POPC   C2B23192   9.904  39.451   8.250
 6033POPC   C3B23193   9.906  39.399   7.950
 6033POPC   C4B23194   9.889  39.441   7.650
 6034POPC   NC323195   4.350  44.675   9.450
 6034POPC   PO423196   4.362  44.665   9.150
 6034POPC   GL123197   4.353  44.631   8.850
 6034POPC   GL223198   4.163  44.641   8.850
 6034POPC   C1A23199   4.354  44.661   8.550
 6034POPC   D2A23200   4.337  44.696   8.250
 6034POPC   C3A23201   4.359  44.630   7.950
 6034POPC   C4A23202   4.298  44.677   7.650
 6034POPC   C1B23203   4.025  44.617   8.550
 6034POPC   C2B23204   4.074  44.671   8.250
 6034POPC   C3B23205   4.090  44.691   7.950
 6034POPC   C4B23206   4.114  44.672   7.650
 6035POPC   NC323207  18.246  32.294   9.450
 6035POPC   PO423208  18.298  32.252   9.150
 6035POPC   GL123209  18.265  32.213   8.850
 6035POPC   GL223210  18.231  32.384   8.850
 6035POPC   C1A23211  18.329  32.228   8.550
 6035POPC   D2A23212  18.276  32.216   8.250
 6035POPC   C3A23213  18.233  32.254   7.950
 6035POPC   C4A23214  18.251  32.203   7.650
 6035POPC   C1B23215  18.132  32.446   8.550
 6035POPC   C2B23216  18.167  32.408   8.250
 6035POPC   C3B23217  18.125  32.433   7.950
 6035POPC   C4B23218  18.168  32.407   7.650
 6036POPC   NC323219  11.302   6.692   9.450
 6036POPC   PO423220  11.334   6.643   9.150
 6036POPC   GL123221  11.327   6.669   8.850
 6036POPC   GL223222  11.197   6.709   8.850
 6036POPC   C1A23223  11.275   6.642   8.550
 6036POPC   D2A23224  11.344   6.678   8.250
 6036POPC   C3A23225  11.318   6.607   7.950
 6036POPC   C4A23226  11.341   6.602   7.650
 6036POPC   C1B23227  11.101   6.682   8.550
 6036POPC   C2B23228  11.052   6.709   8.250
 6036POPC   C3B23229  11.078   6.681   7.950
 6036POPC   C4B23230  11.052   6.748   7.650
 6037POPC   NC323231  36.858   0.451   9.450
 6037POPC   PO423232  36.883   0.404   9.150
 6037POPC   GL123233  36.865   0.390   8.850
 6037POPC   GL223234  36.812   0.429   8.850
 6037POPC   C1A23235  36.863   0.453   8.550
 6037POPC   D2A23236  36.859   0.463   8.250
 6037POPC   C3A23237  36.855   0.426   7.950
 6037POPC   C4A23238  36.888   0.486   7.650
 6037POPC   C1B23239  36.636   0.298   8.550
 6037POPC   C2B23240  36.631   0.333   8.250
 6037POPC   C3B23241  36.701   0.380   7.950
 6037POPC   C4B23242  36.691   0.304   7.650
 6038POPC   NC323243  30.690   7.436   9.450
 6038POPC   PO423244  30.716   7.470   9.150
 6038POPC   GL123245  30.724   7.403   8.850
 6038POPC   GL223246  30.824   7.497   8.850
 6038POPC   C1A23247  30.710   7.453   8.550
 6038POPC   D2A23248  30.664   7.391   8.250
 6038POPC   C3A23249  30.691   7.465   7.950
 6038POPC   C4A23250  30.713   7.463   7.650
 6038POPC   C1B23251  30.825   7.561   8.550
 6038POPC   C2B23252  30.898   7.625   8.250
 6038POPC   C3B23253  30.850   7.627   7.950
 6038POPC   C4B23254  30.907   7.569   7.650
 6039POPC   NC323255  32.231  38.425   9.450
 6039POPC   PO423256  32.209  38.442   9.150
 6039POPC   GL123257  32.242  38.427   8.850
 6039POPC   GL223258  32.134  38.390   8.850
 6039POPC   C1A23259  32.239  38.446   8.550
 6039POPC   D2A23260  32.279  38.472   8.250
 6039POPC   C3A23261  32.234  38.492   7.950
 6039POPC   C4A23262  32.240  38.470   7.650
 6039POPC   C1B23263  32.051  38.400   8.550
 6039POPC   C2B23264  32.030  38.402   8.250
 6039POPC   C3B23265  32.047  38.382   7.950
 6039POPC   C4B23266  32.015  38.374   7.650
 6040POPC   NC323267  19.786  40.774   9.450
 6040POPC   PO423268  19.793  40.766   9.150
 6040POPC   GL123269  19.790  40.733   8.850
 6040POPC   GL223270  19.751  40.671   8.850
 6040POPC   C1A23271  19.846  40.753   8.550
 6040POPC   D2A23272  19.859  40.826   8.250
 6040POPC   C3A23273  19.819  40.735   7.950
 6040POPC   C4A23274  19.853  40.786   7.650
 6040POPC   C1B23275  19.579  40.666   8.550
 6040POPC   C2B23276  19.595  40.641   8.250
 6040POPC   C3B23277  19.660  40.625   7.950
 6040POPC   C4B23278  19.674  40.655   7.650
 6041POPC   NC323279  30.680  43.090   9.450
 6041POPC   PO423280  30.716  43.125   9.150
 6041POPC   GL123281  30.719  43.096   8.850
 6041POPC   GL223282  30.585  43.138   8.850
 6041POPC   C1A23283  30.697  43.155   8.550
 6041POPC   D2A23284  30.681  43.112   8.250
 6041POPC   C3A23285  30.661  43.136   7.950
 6041POPC   C4A23286  30.724  43.126   7.650
 6041POPC   C1B23287  30.433  43.155   8.550
 6041POPC   C2B23288  30.448  43.155   8.250
 6041POPC   C3B23289  30.494  43.113   7.950
 6041POPC   C4B23290  30.441  43.143   7.650
 6042POPC   NC323291  21.394  13.644   9.450
 6042POPC   PO423292  21.387  13.616   9.150
 6042POPC   GL123293  21.339  13.657   8.850
 6042POPC   GL223294  21.311  13.568   8.850
 6042POPC   C1A23295  21.355  13.590   8.550
 6042POPC   D2A23296  21.347  13.613   8.250
 6042POPC   C3A23297  21.358  13.591   7.950
 6042POPC   C4A23298  21.351  13.608   7.650
 6042POPC   C1B23299  21.139  13.476   8.550
 6042POPC   C2B23300  21.212  13.521   8.250
 6042POPC   C3B23301  21.167  13.486   7.950
 6042POPC   C4B23302  21.199  13.495   7.650
 6043POPC   NC323303   1.206  12.881   9.450
 6043POPC   PO423304   1.201  12.852   9.150
 6043POPC   GL123305   1.246  12.818   8.850
 6043POPC   GL223306   1.226  12.687   8.850
 6043POPC   C1A23307   1.205  12.823   8.550
 6043POPC   D2A23308   1.179  12.860   8.250
 6043POPC   C3A23309   1.194  12.804   7.950
 6043POPC   C4A23310   1.179  12.805   7.650
 6043POPC   C1B23311   1.160  12.635   8.550
 6043POPC   C2B23312   1.163  12.589   8.250
 6043POPC   C3B23313   1.094  12.658   7.950
 6043POPC   C4B23314   1.094  12.616   7.650
 6044POPC   NC323315  15.204  18.268   9.450
 6044POPC   PO423316  15.174  18.319   9.150
 6044POPC   GL123317  15.226  18.248   8.850
 6044POPC   GL223318  15.125  18.376   8.850
 6044POPC   C1A23319  15.132  18.331   8.550
 6044POPC   D2A23320  15.147  18.274   8.250
 6044POPC   C3A23321  15.161  18.291   7.950
 6044POPC   C4A23322  15.183  18.299   7.650
 6044POPC   C1B23323  15.117  18.549   8.550
 6044POPC   C2B23324  15.106  18.499   8.250
 6044POPC   C3B23325  15.143  18.571   7.950
 6044POPC   C4B23326  15.090  18.536   7.650
 6045POPC   NC323327  25.253  10.526   9.450
 6045POPC   PO423328  25.230  10.474   9.150
 6045POPC   GL123329  25.251  10.499   8.850
 6045POPC   GL223330  25.101  10.552   8.850
 6045POPC   C1A23331  25.297  10.549   8.550
 6045POPC   D2A23332  25.264  10.515   8.250
 6045POPC   C3A23333  25.268  10.557   7.950
 6045POPC   C4A23334  25.253  10.538   7.650
 6045POPC   C1B23335  25.054  10.542   8.550
 6045POPC   C2B23336  25.018  10.606   8.250
 6045POPC   C3B23337  24.991  10.535   7.950
 6045POPC   C4B23338  25.004  10.611   7.650
 6046POPC   NC323339  43.096   0.447   9.450
 6046POPC   PO423340  43.142   0.431   9.150
 6046POPC   GL123341  43.133   0.415   8.850
 6046POPC   GL223342  43.170   0.491   8.850
 6046POPC   C1A23343  43.081   0.424   8.550
 6046POPC   D2A23344  43.130   0.465   8.250
 6046POPC   C3A23345  43.148   0.409   7.950
 6046POPC   C4A23346  43.062   0.409   7.650
 6046POPC   C1B23347  43.267   0.630   8.550
 6046POPC   C2B23348  43.254   0.619   8.250
 6046POPC   C3B23349  43.331   0.574   7.950
 6046POPC   C4B23350  43.288   0.607   7.650
 6047POPC   NC323351   9.769  13.637   9.450
 6047POPC   PO423352   9.702  13.653   9.150
 6047POPC   GL123353   9.754  13.588   8.850
 6047POPC   GL223354   9.740  13.530   8.850
 6047POPC   C1A23355   9.771  13.607   8.550
 6047POPC   D2A23356   9.738  13.600   8.250
 6047POPC   C3A23357   9.699  13.675   7.950
 6047POPC   C4A23358   9.766  13.635   7.650
 6047POPC   C1B23359   9.625  13.442   8.550
 6047POPC   C2B23360   9.667  13.378   8.250
 6047POPC   C3B23361   9.618  13.370   7.950
 6047POPC   C4B23362   9.683  13.355   7.650
 6048POPC   NC323363  40.007  38.444   9.450
 6048POPC   PO423364  39.958  38.443   9.150
 6048POPC   GL123365  40.055  38.406   8.850
 6048POPC   GL223366  39.908  38.400   8.850
 6048POPC   C1A23367  39.977  38.449   8.550
 6048POPC   D2A23368  40.004  38.426   8.250
 6048POPC   C3A23369  39.981  38.420   7.950
 6048POPC   C4A23370  39.986  38.474   7.650
 6048POPC   C1B23371  39.844  38.247   8.550
 6048POPC   C2B23372  39.798  38.284   8.250
 6048POPC   C3B23373  39.863  38.296   7.950
 6048POPC   C4B23374  39.808  38.242   7.650
 6049POPC   NC323375  34.585  16.758   9.450
 6049POPC   PO423376  34.603  16.780   9.150
 6049POPC   GL123377  34.563  16.720   8.850
 6049POPC   GL223378  34.706  16.757   8.850
 6049POPC   C1A23379  34.571  16.700   8.550
 6049POPC   D2A23380  34.579  16.742   8.250
 6049POPC   C3A23381  34.587  16.757   7.950
 6049POPC   C4A23382  34.554  16.723   7.650
 6049POPC   C1B23383  34.789  16.678   8.550
 6049POPC   C2B23384  34.783  16.694   8.250
 6049POPC   C3B23385  34.870  16.698   7.950
 6049POPC   C4B23386  34.873  16.662   7.650
 6050POPC   NC323387  43.109  35.317   9.450
 6050POPC   PO423388  43.147  35.314   9.150
 6050POPC   GL123389  43.155  35.401   8.850
 6050POPC   GL223390  43.103  35.261   8.850
 6050POPC   C1A23391  43.154  35.401   8.550
 6050POPC   D2A23392  43.151  35.396   8.250
 6050POPC   C3A23393  43.062  35.355   7.950
 6050POPC   C4A23394  43.105  35.381   7.650
 6050POPC   C1B23395  43.088  35.083   8.550
 6050POPC   C2B23396  43.086  35.120   8.250
 6050POPC   C3B23397  43.106  35.100   7.950
 6050POPC   C4B23398  43.106  35.125   7.650
 6051POPC   NC323399  26.828   0.448   9.450
 6051POPC   PO423400  26.781   0.447   9.150
 6051POPC   GL123401  26.826   0.422   8.850
 6051POPC   GL223402  26.926   0.561   8.850
 6051POPC   C1A23403  26.866   0.434   8.550
 6051POPC   D2A23404  26.819   0.392   8.250
 6051POPC   C3A23405  26.844   0.463   7.950
 6051POPC   C4A23406  26.784   0.419   7.650
 6051POPC   C1B23407  26.981   0.640   8.550
 6051POPC   C2B23408  26.975   0.659   8.250
 6051POPC   C3B23409  26.960   0.618   7.950
 6051POPC   C4B23410  26.938   0.591   7.650
 6052POPC   NC323411  41.565  31.471   9.450
 6052POPC   PO423412  41.595  31.433   9.150
 6052POPC   GL123413  41.552  31.458   8.850
 6052POPC   GL223414  41.558  31.570   8.850
 6052POPC   C1A23415  41.545  31.446   8.550
 6052POPC   D2A23416  41.563  31.480   8.250
 6052POPC   C3A23417  41.513  31.440   7.950
 6052POPC   C4A23418  41.563  31.456   7.650
 6052POPC   C1B23419  41.595  31.751   8.550
 6052POPC   C2B23420  41.629  31.734   8.250
 6052POPC   C3B23421  41.550  31.754   7.950
 6052POPC   C4B23422  41.595  31.671   7.650
 6053POPC   NC323423  43.127   2.788   9.450
 6053POPC   PO423424  43.102   2.803   9.150
 6053POPC   GL123425  43.106   2.772   8.850
 6053POPC   GL223426  43.079   2.844   8.850
 6053POPC   C1A23427  43.115   2.781   8.550
 6053POPC   D2A23428  43.083   2.777   8.250
 6053POPC   C3A23429  43.126   2.738   7.950
 6053POPC   C4A23430  43.118   2.722   7.650
 6053POPC   C1B23431  42.942   2.925   8.550
 6053POPC   C2B23432  42.993   2.958   8.250
 6053POPC   C3B23433  42.934   2.916   7.950
 6053POPC   C4B23434  42.995   2.928   7.650
 6054POPC   NC323435  44.637  31.481   9.450
 6054POPC   PO423436  44.630  31.438   9.150
 6054POPC   GL123437  44.693  31.493   8.850
 6054POPC   GL223438  44.754  31.400   8.850
 6054POPC   C1A23439  44.630  31.492   8.550
 6054POPC   D2A23440  44.690  31.458   8.250
 6054POPC   C3A23441  44.674  31.449   7.950
 6054POPC   C4A23442  44.694  31.434   7.650
 6054POPC   C1B23443  44.901  31.356   8.550
 6054POPC   C2B23444  44.860  31.374   8.250
 6054POPC   C3B23445  44.898  31.301   7.950
 6054POPC   C4B23446  44.915  31.369   7.650
 6055POPC   NC323447   1.971  15.209   9.450
 6055POPC   PO423448   1.995  15.141   9.150
 6055POPC   GL123449   2.010  15.223   8.850
 6055POPC   GL223450   2.109  15.289   8.850
 6055POPC   C1A23451   2.037  15.157   8.550
 6055POPC   D2A23452   1.972  15.130   8.250
 6055POPC   C3A23453   2.024  15.202   7.950
 6055POPC   C4A23454   2.000  15.202   7.650
 6055POPC   C1B23455   2.154  15.375   8.550
 6055POPC   C2B23456   2.171  15.290   8.250
 6055POPC   C3B23457   2.221  15.369   7.950
 6055POPC   C4B23458   2.219  15.346   7.650
 6056POPC   NC323459  15.952   2.038   9.450
 6056POPC   PO423460  15.946   2.005   9.150
 6056POPC   GL123461  15.985   2.013   8.850
 6056POPC   GL223462  15.849   2.003   8.850
 6056POPC   C1A23463  15.989   2.030   8.550
 6056POPC   D2A23464  15.934   1.990   8.250
 6056POPC   C3A23465  15.916   2.014   7.950
 6056POPC   C4A23466  15.992   1.973   7.650
 6056POPC   C1B23467  15.750   2.003   8.550
 6056POPC   C2B23468  15.659   1.978   8.250
 6056POPC   C3B23469  15.742   1.940   7.950
 6056POPC   C4B23470  15.682   2.013   7.650
 6057POPC   NC323471  20.580  19.101   9.450
 6057POPC   PO423472  20.623  19.023   9.150
 6057POPC   GL123473  20.593  19.077   8.850
 6057POPC   GL223474  20.595  19.155   8.850
 6057POPC   C1A23475  20.580  19.108   8.550
 6057POPC   D2A23476  20.637  19.075   8.250
 6057POPC   C3A23477  20.584  19.091   7.950
 6057POPC   C4A23478  20.658  19.100   7.650
 6057POPC   C1B23479  20.547  19.312   8.550
 6057POPC   C2B23480  20.533  19.269   8.250
 6057POPC   C3B23481  20.513  19.271   7.950
 6057POPC   C4B23482  20.516  19.292   7.650
 6058POPC   NC323483  22.971   0.419   9.450
 6058POPC   PO423484  22.935   0.467   9.150
 6058POPC   GL123485  22.949   0.479   8.850
 6058POPC   GL223486  23.016   0.359   8.850
 6058POPC   C1A23487  22.923   0.399   8.550
 6058POPC   D2A23488  22.891   0.455   8.250
 6058POPC   C3A23489  22.965   0.457   7.950
 6058POPC   C4A23490  22.926   0.396   7.650
 6058POPC   C1B23491  23.175   0.327   8.550
 6058POPC   C2B23492  23.163   0.309   8.250
 6058POPC   C3B23493  23.188   0.325   7.950
 6058POPC   C4B23494  23.118   0.300   7.650
 6059POPC   NC323495  15.142   9.776   9.450
 6059POPC   PO423496  15.160   9.748   9.150
 6059POPC   GL123497  15.138   9.776   8.850
 6059POPC   GL223498  15.063   9.651   8.850
 6059POPC   C1A23499  15.137   9.753   8.550
 6059POPC   D2A23500  15.156   9.783   8.250
 6059POPC   C3A23501  15.201   9.724   7.950
 6059POPC   C4A23502  15.172   9.768   7.650
 6059POPC   C1B23503  14.971   9.685   8.550
 6059POPC   C2B23504  14.946   9.608   8.250
 6059POPC   C3B23505  14.996   9.631   7.950
 6059POPC   C4B23506  14.978   9.678   7.650
 6060POPC   NC323507   2.774  34.569   9.450
 6060POPC   PO423508   2.810  34.529   9.150
 6060POPC   GL123509   2.722  34.615   8.850
 6060POPC   GL223510   2.687  34.579   8.850
 6060POPC   C1A23511   2.735  34.537   8.550
 6060POPC   D2A23512   2.742  34.581   8.250
 6060POPC   C3A23513   2.745  34.570   7.950
 6060POPC   C4A23514   2.814  34.527   7.650
 6060POPC   C1B23515   2.564  34.590   8.550
 6060POPC   C2B23516   2.530  34.566   8.250
 6060POPC   C3B23517   2.473  34.542   7.950
 6060POPC   C4B23518   2.538  34.611   7.650
 6061POPC   NC323519  44.686   6.630   9.450
 6061POPC   PO423520  44.688   6.621   9.150
 6061POPC   GL123521  44.701   6.677   8.850
 6061POPC   GL223522  44.654   6.527   8.850
 6061POPC   C1A23523  44.635   6.639   8.550
 6061POPC   D2A23524  44.667   6.629   8.250
 6061POPC   C3A23525  44.655   6.603   7.950
 6061POPC   C4A23526  44.671   6.651   7.650
 6061POPC   C1B23527  44.569   6.427   8.550
 6061POPC   C2B23528  44.510   6.447   8.250
 6061POPC   C3B23529  44.557   6.464   7.950
 6061POPC   C4B23530  44.569   6.389   7.650
 6062POPC   NC323531  10.478  16.705   9.450
 6062POPC   PO423532  10.540  16.744   9.150
 6062POPC   GL123533  10.507  16.730   8.850
 6062POPC   GL223534  10.469  16.692   8.850
 6062POPC   C1A23535  10.513  16.728   8.550
 6062POPC   D2A23536  10.532  16.753   8.250
 6062POPC   C3A23537  10.501  16.751   7.950
 6062POPC   C4A23538  10.490  16.758   7.650
 6062POPC   C1B23539  10.363  16.573   8.550
 6062POPC   C2B23540  10.279  16.591   8.250
 6062POPC   C3B23541  10.285  16.564   7.950
 6062POPC   C4B23542  10.367  16.582   7.650
 6063POPC   NC323543  41.543  13.627   9.450
 6063POPC   PO423544  41.545  13.657   9.150
 6063POPC   GL123545  41.599  13.631   8.850
 6063POPC   GL223546  41.408  13.589   8.850
 6063POPC   C1A23547  41.543  13.634   8.550
 6063POPC   D2A23548  41.582  13.635   8.250
 6063POPC   C3A23549  41.559  13.578   7.950
 6063POPC   C4A23550  41.550  13.677   7.650
 6063POPC   C1B23551  41.288  13.545   8.550
 6063POPC   C2B23552  41.323  13.524   8.250
 6063POPC   C3B23553  41.349  13.472   7.950
 6063POPC   C4B23554  41.364  13.468   7.650
 6064POPC   NC323555  34.575  30.686   9.450
 6064POPC   PO423556  34.529  30.693   9.150
 6064POPC   GL123557  34.618  30.660   8.850
 6064POPC   GL223558  34.492  30.598   8.850
 6064POPC   C1A23559  34.612  30.722   8.550
 6064POPC   D2A23560  34.543  30.651   8.250
 6064POPC   C3A23561  34.575  30.717   7.950
 6064POPC   C4A23562  34.551  30.689   7.650
 6064POPC   C1B23563  34.385  30.487   8.550
 6064POPC   C2B23564  34.420  30.472   8.250
 6064POPC   C3B23565  34.480  30.491   7.950
 6064POPC   C4B23566  34.425  30.456   7.650
 6065POPC   NC323567   1.962   8.940   9.450
 6065POPC   PO423568   1.943   8.981   9.150
 6065POPC   GL123569   1.942   8.942   8.850
 6065POPC   GL223570   1.987   8.862   8.850
 6065POPC   C1A23571   1.967   8.927   8.550
 6065POPC   D2A23572   1.981   8.988   8.250
 6065POPC   C3A23573   2.008   8.954   7.950
 6065POPC   C4A23574   1.966   8.949   7.650
 6065POPC   C1B23575   2.026   8.771   8.550
 6065POPC   C2B23576   2.096   8.718   8.250
 6065POPC   C3B23577   2.075   8.692   7.950
 6065POPC   C4B23578   2.059   8.768   7.650
 6066POPC   NC323579  18.235  10.494   9.450
 6066POPC   PO423580  18.330  10.523   9.150
 6066POPC   GL123581  18.298  10.565   8.850
 6066POPC   GL223582  18.264  10.421   8.850
 6066POPC   C1A23583  18.332  10.502   8.550
 6066POPC   D2A23584  18.302  10.507   8.250
 6066POPC   C3A23585  18.306  10.549   7.950
 6066POPC   C4A23586  18.271  10.476   7.650
 6066POPC   C1B23587  18.228  10.309   8.550
 6066POPC   C2B23588  18.219  10.291   8.250
 6066POPC   C3B23589  18.218  10.232   7.950
 6066POPC   C4B23590  18.227  10.302   7.650
 6067POPC   NC323591  36.151  23.737   9.450
 6067POPC   PO423592  36.108  23.756   9.150
 6067POPC   GL123593  36.145  23.742   8.850
 6067POPC   GL223594  35.996  23.640   8.850
 6067POPC   C1A23595  36.137  23.729   8.550
 6067POPC   D2A23596  36.156  23.695   8.250
 6067POPC   C3A23597  36.152  23.719   7.950
 6067POPC   C4A23598  36.135  23.741   7.650
 6067POPC   C1B23599  35.977  23.520   8.550
 6067POPC   C2B23600  35.913  23.530   8.250
 6067POPC   C3B23601  35.897  23.533   7.950
 6067POPC   C4B23602  35.908  23.512   7.650
 6068POPC   NC323603   5.090  29.156   9.450
 6068POPC   PO423604   5.110  29.118   9.150
 6068POPC   GL123605   5.120  29.099   8.850
 6068POPC   GL223606   5.022  29.048   8.850
 6068POPC   C1A23607   5.067  29.184   8.550
 6068POPC   D2A23608   5.123  29.169   8.250
 6068POPC   C3A23609   5.102  29.156   7.950
 6068POPC   C4A23610   5.125  29.179   7.650
 6068POPC   C1B23611   4.868  28.925   8.550
 6068POPC   C2B23612   4.901  28.955   8.250
 6068POPC   C3B23613   4.907  29.006   7.950
 6068POPC   C4B23614   4.879  29.017   7.650
 6069POPC   NC323615  14.450   6.672   9.450
 6069POPC   PO423616  14.356   6.694   9.150
 6069POPC   GL123617  14.406   6.690   8.850
 6069POPC   GL223618  14.515   6.646   8.850
 6069POPC   C1A23619  14.417   6.651   8.550
 6069POPC   D2A23620  14.430   6.609   8.250
 6069POPC   C3A23621  14.447   6.688   7.950
 6069POPC   C4A23622  14.354   6.689   7.650
 6069POPC   C1B23623  14.701   6.652   8.550
 6069POPC   C2B23624  14.621   6.619   8.250
 6069POPC   C3B23625  14.666   6.627   7.950
 6069POPC   C4B23626  14.609   6.651   7.650
 6070POPC   NC323627  12.874  12.081   9.450
 6070POPC   PO423628  12.856  12.082   9.150
 6070POPC   GL123629  12.886  12.051   8.850
 6070POPC   GL223630  12.934  12.074   8.850
 6070POPC   C1A23631  12.866  12.070   8.550
 6070POPC   D2A23632  12.832  12.110   8.250
 6070POPC   C3A23633  12.870  12.039   7.950
 6070POPC   C4A23634  12.832  12.077   7.650
 6070POPC   C1B23635  13.144  12.087   8.550
 6070POPC   C2B23636  13.114  12.077   8.250
 6070POPC   C3B23637  13.109  12.042   7.950
 6070POPC   C4B23638  13.074  12.033   7.650
 6071POPC   NC323639   5.064  20.564   9.450
 6071POPC   PO423640   5.115  20.581   9.150
 6071POPC   GL123641   5.118  20.655   8.850
 6071POPC   GL223642   5.152  20.513   8.850
 6071POPC   C1A23643   5.116  20.568   8.550
 6071POPC   D2A23644   5.136  20.575   8.250
 6071POPC   C3A23645   5.138  20.606   7.950
 6071POPC   C4A23646   5.085  20.652   7.650
 6071POPC   C1B23647   5.256  20.423   8.550
 6071POPC   C2B23648   5.241  20.467   8.250
 6071POPC   C3B23649   5.251  20.464   7.950
 6071POPC   C4B23650   5.322  20.502   7.650
 6072POPC   NC323651  23.751  29.955   9.450
 6072POPC   PO423652  23.720  29.933   9.150
 6072POPC   GL123653  23.739  29.877   8.850
 6072POPC   GL223654  23.578  29.896   8.850
 6072POPC   C1A23655  23.712  29.890   8.550
 6072POPC   D2A23656  23.688  29.895   8.250
 6072POPC   C3A23657  23.678  29.931   7.950
 6072POPC   C4A23658  23.732  29.944   7.650
 6072POPC   C1B23659  23.491  29.855   8.550
 6072POPC   C2B23660  23.529  29.770   8.250
 6072POPC   C3B23661  23.446  29.859   7.950
 6072POPC   C4B23662  23.509  29.831   7.650
 6073POPC   NC323663   6.659  22.910   9.450
 6073POPC   PO423664   6.667  22.912   9.150
 6073POPC   GL123665   6.595  22.892   8.850
 6073POPC   GL223666   6.784  22.864   8.850
 6073POPC   C1A23667   6.662  22.933   8.550
 6073POPC   D2A23668   6.607  22.914   8.250
 6073POPC   C3A23669   6.681  22.946   7.950
 6073POPC   C4A23670   6.677  22.914   7.650
 6073POPC   C1B23671   6.912  22.873   8.550
 6073POPC   C2B23672   6.896  22.830   8.250
 6073POPC   C3B23673   6.885  22.838   7.950
 6073POPC   C4B23674   6.902  22.898   7.650
 6074POPC   NC323675  38.413  31.448   9.450
 6074POPC   PO423676  38.421  31.439   9.150
 6074POPC   GL123677  38.505  31.424   8.850
 6074POPC   GL223678  38.567  31.618   8.850
 6074POPC   C1A23679  38.455  31.451   8.550
 6074POPC   D2A23680  38.422  31.522   8.250
 6074POPC   C3A23681  38.425  31.502   7.950
 6074POPC   C4A23682  38.490  31.483   7.650
 6074POPC   C1B23683  38.564  31.731   8.550
 6074POPC   C2B23684  38.534  31.665   8.250
 6074POPC   C3B23685  38.629  31.661   7.950
 6074POPC   C4B23686  38.562  31.735   7.650
 6075POPC   NC323687  33.840  14.398   9.450
 6075POPC   PO423688  33.802  14.379   9.150
 6075POPC   GL123689  33.844  14.411   8.850
 6075POPC   GL223690  33.839  14.527   8.850
 6075POPC   C1A23691  33.804  14.445   8.550
 6075POPC   D2A23692  33.842  14.438   8.250
 6075POPC   C3A23693  33.817  14.433   7.950
 6075POPC   C4A23694  33.758  14.440   7.650
 6075POPC   C1B23695  33.937  14.568   8.550
 6075POPC   C2B23696  33.937  14.622   8.250
 6075POPC   C3B23697  33.925  14.607   7.950
 6075POPC   C4B23698  33.968  14.591   7.650
 6076POPC   NC323699  21.412  41.522   9.450
 6076POPC   PO423700  21.357  41.596   9.150
 6076POPC   GL123701  21.345  41.575   8.850
 6076POPC   GL223702  21.504  41.592   8.850
 6076POPC   C1A23703  21.416  41.551   8.550
 6076POPC   D2A23704  21.343  41.582   8.250
 6076POPC   C3A23705  21.352  41.594   7.950
 6076POPC   C4A23706  21.354  41.527   7.650
 6076POPC   C1B23707  21.653  41.529   8.550
 6076POPC   C2B23708  21.633  41.538   8.250
 6076POPC   C3B23709  21.649  41.587   7.950
 6076POPC   C4B23710  21.651  41.586   7.650
 6077POPC   NC323711  36.901  44.651   9.450
 6077POPC   PO423712  36.910  44.688   9.150
 6077POPC   GL123713  36.921  44.688   8.850
 6077POPC   GL223714  36.993  44.753   8.850
 6077POPC   C1A23715  36.912  44.632   8.550
 6077POPC   D2A23716  36.861  44.690   8.250
 6077POPC   C3A23717  36.880  44.663   7.950
 6077POPC   C4A23718  36.893  44.642   7.650
 6077POPC   C1B23719  37.042  44.834   8.550
 6077POPC   C2B23720  37.122  44.849   8.250
 6077POPC   C3B23721  37.110  44.799   7.950
 6077POPC   C4B23722  37.102  44.820   7.650
 6078POPC   NC323723   6.683  35.329   9.450
 6078POPC   PO423724   6.604  35.332   9.150
 6078POPC   GL123725   6.648  35.303   8.850
 6078POPC   GL223726   6.568  35.204   8.850
 6078POPC   C1A23727   6.614  35.370   8.550
 6078POPC   D2A23728   6.653  35.343   8.250
 6078POPC   C3A23729   6.618  35.334   7.950
 6078POPC   C4A23730   6.630  35.387   7.650
 6078POPC   C1B23731   6.526  35.142   8.550
 6078POPC   C2B23732   6.484  35.154   8.250
 6078POPC   C3B23733   6.531  35.170   7.950
 6078POPC   C4B23734   6.521  35.131   7.650
 6079POPC   NC323735   9.725  12.878   9.450
 6079POPC   PO423736   9.780  12.872   9.150
 6079POPC   GL123737   9.711  12.844   8.850
 6079POPC   GL223738   9.788  12.690   8.850
 6079POPC   C1A23739   9.782  12.817   8.550
 6079POPC   D2A23740   9.731  12.890   8.250
 6079POPC   C3A23741   9.728  12.860   7.950
 6079POPC   C4A23742   9.771  12.853   7.650
 6079POPC   C1B23743   9.791  12.653   8.550
 6079POPC   C2B23744   9.807  12.600   8.250
 6079POPC   C3B23745   9.784  12.636   7.950
 6079POPC   C4B23746   9.790  12.594   7.650
 6080POPC   NC323747  39.254  39.259   9.450
 6080POPC   PO423748  39.271  39.209   9.150
 6080POPC   GL123749  39.212  39.246   8.850
 6080POPC   GL223750  39.155  39.151   8.850
 6080POPC   C1A23751  39.202  39.231   8.550
 6080POPC   D2A23752  39.231  39.261   8.250
 6080POPC   C3A23753  39.223  39.236   7.950
 6080POPC   C4A23754  39.242  39.250   7.650
 6080POPC   C1B23755  38.981  39.084   8.550
 6080POPC   C2B23756  38.989  39.127   8.250
 6080POPC   C3B23757  38.981  39.084   7.950
 6080POPC   C4B23758  38.965  39.119   7.650
 6081POPC   NC323759   6.659   4.346   9.450
 6081POPC   PO423760   6.607   4.284   9.150
 6081POPC   GL123761   6.643   4.270   8.850
 6081POPC   GL223762   6.663   4.471   8.850
 6081POPC   C1A23763   6.646   4.321   8.550
 6081POPC   D2A23764   6.639   4.341   8.250
 6081POPC   C3A23765   6.619   4.269   7.950
 6081POPC   C4A23766   6.681   4.347   7.650
 6081POPC   C1B23767   6.710   4.546   8.550
 6081POPC   C2B23768   6.732   4.508   8.250
 6081POPC   C3B23769   6.798   4.514   7.950
 6081POPC   C4B23770   6.722   4.562   7.650
 6082POPC   NC323771  19.854  29.142   9.450
 6082POPC   PO423772  19.857  29.128   9.150
 6082POPC   GL123773  19.817  29.128   8.850
 6082POPC   GL223774  19.709  29.088   8.850
 6082POPC   C1A23775  19.820  29.174   8.550
 6082POPC   D2A23776  19.823  29.114   8.250
 6082POPC   C3A23777  19.810  29.188   7.950
 6082POPC   C4A23778  19.873  29.182   7.650
 6082POPC   C1B23779  19.608  29.062   8.550
 6082POPC   C2B23780  19.643  29.108   8.250
 6082POPC   C3B23781  19.643  29.047   7.950
 6082POPC   C4B23782  19.610  29.101   7.650
 6083POPC   NC323783  16.694  35.323   9.450
 6083POPC   PO423784  16.730  35.341   9.150
 6083POPC   GL123785  16.773  35.367   8.850
 6083POPC   GL223786  16.621  35.310   8.850
 6083POPC   C1A23787  16.713  35.316   8.550
 6083POPC   D2A23788  16.759  35.357   8.250
 6083POPC   C3A23789  16.700  35.357   7.950
 6083POPC   C4A23790  16.727  35.317   7.650
 6083POPC   C1B23791  16.488  35.306   8.550
 6083POPC   C2B23792  16.525  35.314   8.250
 6083POPC   C3B23793  16.505  35.314   7.950
 6083POPC   C4B23794  16.507  35.300   7.650
 6084POPC   NC323795  14.359  13.663   9.450
 6084POPC   PO423796  14.371  13.590   9.150
 6084POPC   GL123797  14.408  13.649   8.850
 6084POPC   GL223798  14.298  13.684   8.850
 6084POPC   C1A23799  14.403  13.617   8.550
 6084POPC   D2A23800  14.381  13.598   8.250
 6084POPC   C3A23801  14.389  13.629   7.950
 6084POPC   C4A23802  14.411  13.659   7.650
 6084POPC   C1B23803  14.177  13.691   8.550
 6084POPC   C2B23804  14.108  13.609   8.250
 6084POPC   C3B23805  14.195  13.645   7.950
 6084POPC   C4B23806  14.137  13.642   7.650
 6085POPC   NC323807  12.862  12.816   9.450
 6085POPC   PO423808  12.806  12.898   9.150
 6085POPC   GL123809  12.873  12.803   8.850
 6085POPC   GL223810  12.765  12.847   8.850
 6085POPC   C1A23811  12.884  12.894   8.550
 6085POPC   D2A23812  12.813  12.878   8.250
 6085POPC   C3A23813  12.820  12.815   7.950
 6085POPC   C4A23814  12.812  12.899   7.650
 6085POPC   C1B23815  12.656  12.948   8.550
 6085POPC   C2B23816  12.649  12.922   8.250
 6085POPC   C3B23817  12.594  12.965   7.950
 6085POPC   C4B23818  12.656  12.932   7.650
 6086POPC   NC323819  37.700  10.521   9.450
 6086POPC   PO423820  37.658  10.509   9.150
 6086POPC   GL123821  37.660  10.561   8.850
 6086POPC   GL223822  37.808  10.646   8.850
 6086POPC   C1A23823  37.691  10.530   8.550
 6086POPC   D2A23824  37.658  10.549   8.250
 6086POPC   C3A23825  37.666  10.569   7.950
 6086POPC   C4A23826  37.728  10.508   7.650
 6086POPC   C1B23827  37.816  10.665   8.550
 6086POPC   C2B23828  37.836  10.666   8.250
 6086POPC   C3B23829  37.835  10.675   7.950
 6086POPC   C4B23830  37.856  10.686   7.650
 6087POPC   NC323831  34.526  12.118   9.450
 6087POPC   PO423832  34.581  12.093   9.150
 6087POPC   GL123833  34.602  12.126   8.850
 6087POPC   GL223834  34.451  12.145   8.850
 6087POPC   C1A23835  34.545  12.062   8.550
 6087POPC   D2A23836  34.616  12.090   8.250
 6087POPC   C3A23837  34.556  12.039   7.950
 6087POPC   C4A23838  34.580  12.082   7.650
 6087POPC   C1B23839  34.368  12.251   8.550
 6087POPC   C2B23840  34.417  12.243   8.250
 6087POPC   C3B23841  34.406  12.238   7.950
 6087POPC   C4B23842  34.397  12.263   7.650
 6088POPC   NC323843   5.847  24.482   9.450
 6088POPC   PO423844   5.874  24.495   9.150
 6088POPC   GL123845   5.822  24.529   8.850
 6088POPC   GL223846   5.908  24.340   8.850
 6088POPC   C1A23847   5.910  24.536   8.550
 6088POPC   D2A23848   5.848  24.521   8.250
 6088POPC   C3A23849   5.883  24.513   7.950
 6088POPC   C4A23850   5.888  24.524   7.650
 6088POPC   C1B23851   5.924  24.238   8.550
 6088POPC   C2B23852   5.897  24.222   8.250
 6088POPC   C3B23853   5.937  24.244   7.950
 6088POPC   C4B23854   5.974  24.235   7.650
 6089POPC   NC323855  28.329  36.901   9.450
 6089POPC   PO423856  28.368  36.920   9.150
 6089POPC   GL123857  28.384  36.887   8.850
 6089POPC   GL223858  28.286  36.952   8.850
 6089POPC   C1A23859  28.359  36.887   8.550
 6089POPC   D2A23860  28.330  36.936   8.250
 6089POPC   C3A23861  28.383  36.880   7.950
 6089POPC   C4A23862  28.319  36.934   7.650
 6089POPC   C1B23863  28.153  37.052   8.550
 6089POPC   C2B23864  28.131  37.004   8.250
 6089POPC   C3B23865  28.174  37.069   7.950
 6089POPC   C4B23866  28.167  36.986   7.650
 6090POPC   NC323867  19.077  26.023   9.450
 6090POPC   PO423868  19.080  26.021   9.150
 6090POPC   GL123869  19.099  25.993   8.850
 6090POPC   GL223870  18.947  25.907   8.850
 6090POPC   C1A23871  19.018  26.048   8.550
 6090POPC   D2A23872  19.103  25.999   8.250
 6090POPC   C3A23873  19.089  26.072   7.950
 6090POPC   C4A23874  19.094  26.030   7.650
 6090POPC   C1B23875  18.904  25.809   8.550
 6090POPC   C2B23876  18.968  25.824   8.250
 6090POPC   C3B23877  18.930  25.802   7.950
 6090POPC   C4B23878  18.907  25.821   7.650
 6091POPC   NC323879   1.188  34.612   9.450
 6091POPC   PO423880   1.251  34.590   9.150
 6091POPC   GL123881   1.262  34.559   8.850
 6091POPC   GL223882   1.159  34.633   8.850
 6091POPC   C1A23883   1.233  34.608   8.550
 6091POPC   D2A23884   1.177  34.546   8.250
 6091POPC   C3A23885   1.193  34.582   7.950
 6091POPC   C4A23886   1.250  34.527   7.650
 6091POPC   C1B23887   1.099  34.741   8.550
 6091POPC   C2B23888   1.053  34.766   8.250
 6091POPC   C3B23889   1.031  34.788   7.950
 6091POPC   C4B23890   1.091  34.797   7.650
 6092POPC   NC323891  13.666  23.669   9.450
 6092POPC   PO423892  13.647  23.742   9.150
 6092POPC   GL123893  13.634  23.704   8.850
 6092POPC   GL223894  13.517  23.828   8.850
 6092POPC   C1A23895  13.597  23.714   8.550
 6092POPC   D2A23896  13.614  23.751   8.250
 6092POPC   C3A23897  13.626  23.747   7.950
 6092POPC   C4A23898  13.640  23.682   7.650
 6092POPC   C1B23899  13.503  23.917   8.550
 6092POPC   C2B23900  13.555  23.929   8.250
 6092POPC   C3B23901  13.504  23.936   7.950
 6092POPC   C4B23902  13.468  23.910   7.650
 6093POPC   NC323903   9.769  22.907   9.450
 6093POPC   PO423904   9.716  22.922   9.150
 6093POPC   GL123905   9.748  22.892   8.850
 6093POPC   GL223906   9.816  22.913   8.850
 6093POPC   C1A23907   9.737  22.905   8.550
 6093POPC   D2A23908   9.700  22.909   8.250
 6093POPC   C3A23909   9.722  22.891   7.950
 6093POPC   C4A23910   9.755  22.940   7.650
 6093POPC   C1B23911   9.982  22.902   8.550
 6093POPC   C2B23912   9.988  22.816   8.250
 6093POPC   C3B23913   9.949  22.855   7.950
 6093POPC   C4B23914   9.963  22.856   7.650
 6094POPC   NC323915  40.797  15.137   9.450
 6094POPC   PO423916  40.792  15.151   9.150
 6094POPC   GL123917  40.745  15.219   8.850
 6094POPC   GL223918  40.900  15.182   8.850
 6094POPC   C1A23919  40.758  15.227   8.550
 6094POPC   D2A23920  40.792  15.167   8.250
 6094POPC   C3A23921  40.829  15.162   7.950
 6094POPC   C4A23922  40.789  15.177   7.650
 6094POPC   C1B23923  41.018  15.149   8.550
 6094POPC   C2B23924  41.052  15.118   8.250
 6094POPC   C3B23925  41.040  15.137   7.950
 6094POPC   C4B23926  41.066  15.169   7.650
 6095POPC   NC323927   8.222   9.740   9.450
 6095POPC   PO423928   8.233   9.776   9.150
 6095POPC   GL123929   8.217   9.760   8.850
 6095POPC   GL223930   8.127   9.845   8.850
 6095POPC   C1A23931   8.176   9.714   8.550
 6095POPC   D2A23932   8.161   9.765   8.250
 6095POPC   C3A23933   8.154   9.743   7.950
 6095POPC   C4A23934   8.152   9.725   7.650
 6095POPC   C1B23935   8.105  10.035   8.550
 6095POPC   C2B23936   8.170  10.035   8.250
 6095POPC   C3B23937   8.143   9.995   7.950
 6095POPC   C4B23938   8.144  10.002   7.650
 6096POPC   NC323939   1.166  18.251   9.450
 6096POPC   PO423940   1.205  18.329   9.150
 6096POPC   GL123941   1.249  18.243   8.850
 6096POPC   GL223942   1.308  18.295   8.850
 6096POPC   C1A23943   1.184  18.325   8.550
 6096POPC   D2A23944   1.231  18.330   8.250
 6096POPC   C3A23945   1.200  18.308   7.950
 6096POPC   C4A23946   1.254  18.259   7.650
 6096POPC   C1B23947   1.496  18.223   8.550
 6096POPC   C2B23948   1.439  18.274   8.250
 6096POPC   C3B23949   1.432  18.278   7.950
 6096POPC   C4B23950   1.441  18.231   7.650
 6097POPC   NC323951  39.969   8.202   9.450
 6097POPC   PO423952  40.015   8.158   9.150
 6097POPC   GL123953  39.998   8.240   8.850
 6097POPC   GL223954  39.931   8.112   8.850
 6097POPC   C1A23955  39.990   8.214   8.550
 6097POPC   D2A23956  40.027   8.229   8.250
 6097POPC   C3A23957  39.993   8.160   7.950
 6097POPC   C4A23958  40.005   8.181   7.650
 6097POPC   C1B23959  39.919   7.993   8.550
 6097POPC   C2B23960  39.880   7.944   8.250
 6097POPC   C3B23961  39.892   8.018   7.950
 6097POPC   C4B23962  39.860   8.004   7.650
 6098POPC   NC323963   3.493  38.420   9.450
 6098POPC   PO423964   3.547  38.449   9.150
 6098POPC   GL123965   3.531  38.477   8.850
 6098POPC   GL223966   3.574  38.394   8.850
 6098POPC   C1A23967   3.542  38.429   8.550
 6098POPC   D2A23968   3.516  38.473   8.250
 6098POPC   C3A23969   3.541  38.432   7.950
 6098POPC   C4A23970   3.586  38.424   7.650
 6098POPC   C1B23971   3.660  38.266   8.550
 6098POPC   C2B23972   3.651  38.213   8.250
 6098POPC   C3B23973   3.699  38.251   7.950
 6098POPC   C4B23974   3.629  38.211   7.650
 6099POPC   NC323975  29.177  11.295   9.450
 6099POPC   PO423976  29.135  11.309   9.150
 6099POPC   GL123977  29.131  11.321   8.850
 6099POPC   GL223978  29.198  11.365   8.850
 6099POPC   C1A23979  29.192  11.308   8.550
 6099POPC   D2A23980  29.116  11.302   8.250
 6099POPC   C3A23981  29.140  11.338   7.950
 6099POPC   C4A23982  29.134  11.317   7.650
 6099POPC   C1B23983  29.327  11.479   8.550
 6099POPC   C2B23984  29.322  11.474   8.250
 6099POPC   C3B23985  29.339  11.520   7.950
 6099POPC   C4B23986  29.259  11.460   7.650
 6100POPC   NC323987  26.086   5.853   9.450
 6100POPC   PO423988  26.017   5.877   9.150
 6100POPC   GL123989  26.053   5.884   8.850
 6100POPC   GL223990  25.972   5.783   8.850
 6100POPC   C1A23991  26.026   5.899   8.550
 6100POPC   D2A23992  26.014   5.823   8.250
 6100POPC   C3A23993  25.992   5.849   7.950
 6100POPC   C4A23994  26.053   5.898   7.650
 6100POPC   C1B23995  25.868   5.793   8.550
 6100POPC   C2B23996  25.866   5.721   8.250
 6100POPC   C3B23997  25.861   5.752   7.950
 6100POPC   C4B23998  25.848   5.705   7.650
 6101POPC   NC323999  40.806  20.618   9.450
 6101POPC   PO424000  40.793  20.654   9.150
 6101POPC   GL124001  40.787  20.561   8.850
 6101POPC   GL224002  40.699  20.481   8.850
 6101POPC   C1A24003  40.826  20.627   8.550
 6101POPC   D2A24004  40.802  20.632   8.250
 6101POPC   C3A24005  40.790  20.617   7.950
 6101POPC   C4A24006  40.815  20.579   7.650
 6101POPC   C1B24007  40.710  20.402   8.550
 6101POPC   C2B24008  40.668  20.386   8.250
 6101POPC   C3B24009  40.633  20.396   7.950
 6101POPC   C4B24010  40.670  20.424   7.650
 6102POPC   NC324011   2.035  21.387   9.450
 6102POPC   PO424012   2.030  21.391   9.150
 6102POPC   GL124013   1.995  21.374   8.850
 6102POPC   GL224014   2.117  21.420   8.850
 6102POPC   C1A24015   1.999  21.395   8.550
 6102POPC   D2A24016   1.942  21.388   8.250
 6102POPC   C3A24017   1.976  21.374   7.950
 6102POPC   C4A24018   1.972  21.398   7.650
 6102POPC   C1B24019   2.189  21.481   8.550
 6102POPC   C2B24020   2.243  21.467   8.250
 6102POPC   C3B24021   2.186  21.476   7.950
 6102POPC   C4B24022   2.196  21.408   7.650
 6103POPC   NC324023  26.062  39.268   9.450
 6103POPC   PO424024  26.038  39.265   9.150
 6103POPC   GL124025  26.009  39.235   8.850
 6103POPC   GL224026  26.094  39.110   8.850
 6103POPC   C1A24027  26.035  39.211   8.550
 6103POPC   D2A24028  26.049  39.226   8.250
 6103POPC   C3A24029  26.017  39.232   7.950
 6103POPC   C4A24030  26.048  39.214   7.650
 6103POPC   C1B24031  26.161  39.046   8.550
 6103POPC   C2B24032  26.214  39.061   8.250
 6103POPC   C3B24033  26.204  39.016   7.950
 6103POPC   C4B24034  26.140  39.017   7.650
 6104POPC   NC324035  43.860  21.381   9.450
 6104POPC   PO424036  43.846  21.376   9.150
 6104POPC   GL124037  43.857  21.353   8.850
 6104POPC   GL224038  43.910  21.238   8.850
 6104POPC   C1A24039  43.878  21.352   8.550
 6104POPC   D2A24040  43.859  21.359   8.250
 6104POPC   C3A24041  43.918  21.384   7.950
 6104POPC   C4A24042  43.914  21.368   7.650
 6104POPC   C1B24043  43.952  21.141   8.550
 6104POPC   C2B24044  43.885  21.111   8.250
 6104POPC   C3B24045  43.907  21.170   7.950
 6104POPC   C4B24046  43.965  21.126   7.650
 6105POPC   NC324047  37.633  44.634   9.450
 6105POPC   PO424048  37.716  44.682   9.150
 6105POPC   GL124049  37.665  44.698   8.850
 6105POPC   GL224050  37.734  44.569   8.850
 6105POPC   C1A24051  37.687  44.695   8.550
 6105POPC   D2A24052  37.707  44.656   8.250
 6105POPC   C3A24053  37.647  44.643   7.950
 6105POPC   C4A24054  37.662  44.641   7.650
 6105POPC   C1B24055  37.818  44.459   8.550
 6105POPC   C2B24056  37.881  44.469   8.250
 6105POPC   C3B24057  37.802  44.501   7.950
 6105POPC   C4B24058  37.855  44.442   7.650
 6106POPC   NC324059  23.682  13.622   9.450
 6106POPC   PO424060  23.705  13.632   9.150
 6106POPC   GL124061  23.728  13.624   8.850
 6106POPC   GL224062  23.746  13.775   8.850
 6106POPC   C1A24063  23.753  13.663   8.550
 6106POPC   D2A24064  23.707  13.671   8.250
 6106POPC   C3A24065  23.664  13.632   7.950
 6106POPC   C4A24066  23.691  13.673   7.650
 6106POPC   C1B24067  23.642  13.903   8.550
 6106POPC   C2B24068  23.649  13.881   8.250
 6106POPC   C3B24069  23.688  13.854   7.950
 6106POPC   C4B24070  23.660  13.923   7.650
 6107POPC   NC324071  38.437  11.346   9.450
 6107POPC   PO424072  38.423  11.253   9.150
 6107POPC   GL124073  38.407  11.262   8.850
 6107POPC   GL224074  38.333  11.262   8.850
 6107POPC   C1A24075  38.475  11.322   8.550
 6107POPC   D2A24076  38.421  11.276   8.250
 6107POPC   C3A24077  38.448  11.282   7.950
 6107POPC   C4A24078  38.467  11.292   7.650
 6107POPC   C1B24079  38.248  11.278   8.550
 6107POPC   C2B24080  38.225  11.240   8.250
 6107POPC   C3B24081  38.242  11.320   7.950
 6107POPC   C4B24082  38.246  11.275   7.650
 6108POPC   NC324083  29.929  29.879   9.450
 6108POPC   PO424084  29.961  29.952   9.150
 6108POPC   GL124085  29.951  29.929   8.850
 6108POPC   GL224086  30.055  29.950   8.850
 6108POPC   C1A24087  29.956  29.942   8.550
 6108POPC   D2A24088  29.965  29.894   8.250
 6108POPC   C3A24089  29.968  29.898   7.950
 6108POPC   C4A24090  29.912  29.888   7.650
 6108POPC   C1B24091  30.146  29.973   8.550
 6108POPC   C2B24092  30.122  29.928   8.250
 6108POPC   C3B24093  30.207  29.905   7.950
 6108POPC   C4B24094  30.180  29.940   7.650
 6109POPC   NC324095  39.184  44.689   9.450
 6109POPC   PO424096  39.251  44.620   9.150
 6109POPC   GL124097  39.270  44.635   8.850
 6109POPC   GL224098  39.226  44.816   8.850
 6109POPC   C1A24099  39.181  44.625   8.550
 6109POPC   D2A24100  39.190  44.675   8.250
 6109POPC   C3A24101  39.276  44.677   7.950
 6109POPC   C4A24102  39.192  44.701   7.650
 6109POPC   C1B24103  39.270  44.929   8.550
 6109POPC   C2B24104  39.313  44.880   8.250
 6109POPC   C3B24105  39.346  44.916   7.950
 6109POPC   C4B24106  39.273  44.887   7.650
 6110POPC   NC324107  34.599   1.209   9.450
 6110POPC   PO424108  34.584   1.208   9.150
 6110POPC   GL124109  34.558   1.232   8.850
 6110POPC   GL224110  34.734   1.248   8.850
 6110POPC   C1A24111  34.583   1.253   8.550
 6110POPC   D2A24112  34.604   1.220   8.250
 6110POPC   C3A24113  34.595   1.170   7.950
 6110POPC   C4A24114  34.547   1.223   7.650
 6110POPC   C1B24115  34.786   1.331   8.550
 6110POPC   C2B24116  34.811   1.316   8.250
 6110POPC   C3B24117  34.770   1.371   7.950
 6110POPC   C4B24118  34.752   1.334   7.650
 6111POPC   NC324119   3.588  22.198   9.450
 6111POPC   PO424120   3.560  22.130   9.150
 6111POPC   GL124121   3.519  22.143   8.850
 6111POPC   GL224122   3.638  22.029   8.850
 6111POPC   C1A24123   3.501  22.180   8.550
 6111POPC   D2A24124   3.585  22.113   8.250
 6111POPC   C3A24125   3.527  22.137   7.950
 6111POPC   C4A24126   3.496  22.148   7.650
 6111POPC   C1B24127   3.746  21.940   8.550
 6111POPC   C2B24128   3.756  21.964   8.250
 6111POPC   C3B24129   3.727  21.973   7.950
 6111POPC   C4B24130   3.706  21.954   7.650
 6112POPC   NC324131  10.539  31.426   9.450
 6112POPC   PO424132  10.524  31.492   9.150
 6112POPC   GL124133  10.482  31.459   8.850
 6112POPC   GL224134  10.593  31.398   8.850
 6112POPC   C1A24135  10.508  31.425   8.550
 6112POPC   D2A24136  10.555  31.479   8.250
 6112POPC   C3A24137  10.514  31.484   7.950
 6112POPC   C4A24138  10.571  31.512   7.650
 6112POPC   C1B24139  10.744  31.306   8.550
 6112POPC   C2B24140  10.727  31.341   8.250
 6112POPC   C3B24141  10.752  31.342   7.950
 6112POPC   C4B24142  10.738  31.359   7.650
 6113POPC   NC324143   5.874  29.191   9.450
 6113POPC   PO424144   5.871  29.178   9.150
 6113POPC   GL124145   5.857  29.149   8.850
 6113POPC   GL224146   5.890  29.291   8.850
 6113POPC   C1A24147   5.831  29.161   8.550
 6113POPC   D2A24148   5.896  29.146   8.250
 6113POPC   C3A24149   5.847  29.158   7.950
 6113POPC   C4A24150   5.877  29.185   7.650
 6113POPC   C1B24151   5.935  29.416   8.550
 6113POPC   C2B24152   5.950  29.369   8.250
 6113POPC   C3B24153   5.977  29.355   7.950
 6113POPC   C4B24154   5.953  29.366   7.650
 6114POPC   NC324155  43.837   2.028   9.450
 6114POPC   PO424156  43.870   2.022   9.150
 6114POPC   GL124157  43.842   2.008   8.850
 6114POPC   GL224158  43.836   1.886   8.850
 6114POPC   C1A24159  43.912   1.942   8.550
 6114POPC   D2A24160  43.911   2.009   8.250
 6114POPC   C3A24161  43.923   2.034   7.950
 6114POPC   C4A24162  43.889   1.958   7.650
 6114POPC   C1B24163  43.874   1.777   8.550
 6114POPC   C2B24164  43.858   1.732   8.250
 6114POPC   C3B24165  43.877   1.739   7.950
 6114POPC   C4B24166  43.802   1.770   7.650
 6115POPC   NC324167  30.689  29.161   9.450
 6115POPC   PO424168  30.744  29.169   9.150
 6115POPC   GL124169  30.739  29.156   8.850
 6115POPC   GL224170  30.592  29.204   8.850
 6115POPC   C1A24171  30.744  29.100   8.550
 6115POPC   D2A24172  30.709  29.109   8.250
 6115POPC   C3A24173  30.657  29.142   7.950
 6115POPC   C4A24174  30.706  29.193   7.650
 6115POPC   C1B24175  30.484  29.265   8.550
 6115POPC   C2B24176  30.549  29.281   8.250
 6115POPC   C3B24177  30.538  29.347   7.950
 6115POPC   C4B24178  30.514  29.329   7.650
 6116POPC   NC324179  15.977  19.878   9.450
 6116POPC   PO424180  15.933  19.831   9.150
 6116POPC   GL124181  15.924  19.834   8.850
 6116POPC   GL224182  16.088  19.786   8.850
 6116POPC   C1A24183  15.988  19.823   8.550
 6116POPC   D2A24184  15.943  19.855   8.250
 6116POPC   C3A24185  15.906  19.881   7.950
 6116POPC   C4A24186  15.927  19.847   7.650
 6116POPC   C1B24187  16.115  19.721   8.550
 6116POPC   C2B24188  16.127  19.688   8.250
 6116POPC   C3B24189  16.123  19.723   7.950
 6116POPC   C4B24190  16.205  19.671   7.650
 6117POPC   NC324191  44.674  16.742   9.450
 6117POPC   PO424192  44.684  16.701   9.150
 6117POPC   GL124193  44.659  16.773   8.850
 6117POPC   GL224194  44.718  16.616   8.850
 6117POPC   C1A24195  44.625  16.696   8.550
 6117POPC   D2A24196  44.640  16.692   8.250
 6117POPC   C3A24197  44.704  16.760   7.950
 6117POPC   C4A24198  44.694  16.732   7.650
 6117POPC   C1B24199  44.875  16.576   8.550
 6117POPC   C2B24200  44.870  16.592   8.250
 6117POPC   C3B24201  44.841  16.508   7.950
 6117POPC   C4B24202  44.845  16.532   7.650
 6118POPC   NC324203  33.036  31.516   9.450
 6118POPC   PO424204  32.999  31.488   9.150
 6118POPC   GL124205  33.018  31.502   8.850
 6118POPC   GL224206  32.921  31.546   8.850
 6118POPC   C1A24207  33.045  31.484   8.550
 6118POPC   D2A24208  32.983  31.504   8.250
 6118POPC   C3A24209  32.991  31.470   7.950
 6118POPC   C4A24210  32.991  31.447   7.650
 6118POPC   C1B24211  32.816  31.566   8.550
 6118POPC   C2B24212  32.800  31.611   8.250
 6118POPC   C3B24213  32.827  31.586   7.950
 6118POPC   C4B24214  32.805  31.556   7.650
 6119POPC   NC324215  30.719  44.689   9.450
 6119POPC   PO424216  30.740  44.633   9.150
 6119POPC   GL124217  30.657  44.637   8.850
 6119POPC   GL224218  30.769  44.548   8.850
 6119POPC   C1A24219  30.720  44.671   8.550
 6119POPC   D2A24220  30.726  44.672   8.250
 6119POPC   C3A24221  30.687  44.705   7.950
 6119POPC   C4A24222  30.733  44.648   7.650
 6119POPC   C1B24223  30.882  44.445   8.550
 6119POPC   C2B24224  30.911  44.493   8.250
 6119POPC   C3B24225  30.889  44.472   7.950
 6119POPC   C4B24226  30.863  44.453   7.650
 6120POPC   NC324227   0.405  37.633   9.450
 6120POPC   PO424228   0.469  37.713   9.150
 6120POPC   GL124229   0.462  37.665   8.850
 6120POPC   GL224230   0.459  37.832   8.850
 6120POPC   C1A24231   0.390  37.636   8.550
 6120POPC   D2A24232   0.399  37.638   8.250
 6120POPC   C3A24233   0.452  37.696   7.950
 6120POPC   C4A24234   0.479  37.729   7.650
 6120POPC   C1B24235   0.504  37.913   8.550
 6120POPC   C2B24236   0.551  37.876   8.250
 6120POPC   C3B24237   0.581  37.931   7.950
 6120POPC   C4B24238   0.510  37.895   7.650
 6121POPC   NC324239  31.475  40.817   9.450
 6121POPC   PO424240  31.472  40.751   9.150
 6121POPC   GL124241  31.511  40.793   8.850
 6121POPC   GL224242  31.514  40.933   8.850
 6121POPC   C1A24243  31.502  40.796   8.550
 6121POPC   D2A24244  31.520  40.736   8.250
 6121POPC   C3A24245  31.510  40.822   7.950
 6121POPC   C4A24246  31.508  40.817   7.650
 6121POPC   C1B24247  31.463  41.069   8.550
 6121POPC   C2B24248  31.421  41.082   8.250
 6121POPC   C3B24249  31.491  41.031   7.950
 6121POPC   C4B24250  31.454  40.992   7.650
 6122POPC   NC324251  36.145  39.971   9.450
 6122POPC   PO424252  36.124  40.037   9.150
 6122POPC   GL124253  36.137  40.029   8.850
 6122POPC   GL224254  36.173  39.890   8.850
 6122POPC   C1A24255  36.174  40.012   8.550
 6122POPC   D2A24256  36.123  40.029   8.250
 6122POPC   C3A24257  36.118  39.985   7.950
 6122POPC   C4A24258  36.081  39.995   7.650
 6122POPC   C1B24259  36.253  39.784   8.550
 6122POPC   C2B24260  36.324  39.814   8.250
 6122POPC   C3B24261  36.302  39.784   7.950
 6122POPC   C4B24262  36.271  39.847   7.650
 6123POPC   NC324263  31.503  16.756   9.450
 6123POPC   PO424264  31.520  16.716   9.150
 6123POPC   GL124265  31.423  16.751   8.850
 6123POPC   GL224266  31.525  16.874   8.850
 6123POPC   C1A24267  31.515  16.731   8.550
 6123POPC   D2A24268  31.490  16.720   8.250
 6123POPC   C3A24269  31.458  16.740   7.950
 6123POPC   C4A24270  31.497  16.711   7.650
 6123POPC   C1B24271  31.549  16.955   8.550
 6123POPC   C2B24272  31.544  17.006   8.250
 6123POPC   C3B24273  31.559  16.997   7.950
 6123POPC   C4B24274  31.496  16.939   7.650
 6124POPC   NC324275  22.190  40.007   9.450
 6124POPC   PO424276  22.116  40.051   9.150
 6124POPC   GL124277  22.144  40.050   8.850
 6124POPC   GL224278  22.241  40.044   8.850
 6124POPC   C1A24279  22.157  40.033   8.550
 6124POPC   D2A24280  22.189  39.994   8.250
 6124POPC   C3A24281  22.208  40.013   7.950
 6124POPC   C4A24282  22.158  39.983   7.650
 6124POPC   C1B24283  22.401  40.111   8.550
 6124POPC   C2B24284  22.449  40.108   8.250
 6124POPC   C3B24285  22.409  40.111   7.950
 6124POPC   C4B24286  22.365  40.114   7.650
 6125POPC   NC324287  32.235  31.504   9.450
 6125POPC   PO424288  32.278  31.430   9.150
 6125POPC   GL124289  32.219  31.453   8.850
 6125POPC   GL224290  32.194  31.576   8.850
 6125POPC   C1A24291  32.223  31.489   8.550
 6125POPC   D2A24292  32.293  31.453   8.250
 6125POPC   C3A24293  32.238  31.472   7.950
 6125POPC   C4A24294  32.291  31.508   7.650
 6125POPC   C1B24295  32.224  31.732   8.550
 6125POPC   C2B24296  32.278  31.740   8.250
 6125POPC   C3B24297  32.191  31.679   7.950
 6125POPC   C4B24298  32.271  31.762   7.650
 6126POPC   NC324299  19.088  23.746   9.450
 6126POPC   PO424300  19.009  23.683   9.150
 6126POPC   GL124301  19.088  23.744   8.850
 6126POPC   GL224302  19.110  23.632   8.850
 6126POPC   C1A24303  19.089  23.693   8.550
 6126POPC   D2A24304  19.043  23.690   8.250
 6126POPC   C3A24305  19.033  23.725   7.950
 6126POPC   C4A24306  19.052  23.713   7.650
 6126POPC   C1B24307  19.256  23.590   8.550
 6126POPC   C2B24308  19.220  23.511   8.250
 6126POPC   C3B24309  19.225  23.526   7.950
 6126POPC   C4B24310  19.226  23.551   7.650
 6127POPC   NC324311   9.705  36.089   9.450
 6127POPC   PO424312   9.753  36.132   9.150
 6127POPC   GL124313   9.744  36.130   8.850
 6127POPC   GL224314   9.644  36.102   8.850
 6127POPC   C1A24315   9.720  36.170   8.550
 6127POPC   D2A24316   9.775  36.100   8.250
 6127POPC   C3A24317   9.736  36.134   7.950
 6127POPC   C4A24318   9.712  36.170   7.650
 6127POPC   C1B24319   9.525  36.103   8.550
 6127POPC   C2B24320   9.455  36.145   8.250
 6127POPC   C3B24321   9.484  36.127   7.950
 6127POPC   C4B24322   9.511  36.165   7.650
 6128POPC   NC324323  19.042  41.586   9.450
 6128POPC   PO424324  19.044  41.570   9.150
 6128POPC   GL124325  19.075  41.528   8.850
 6128POPC   GL224326  19.223  41.560   8.850
 6128POPC   C1A24327  19.036  41.529   8.550
 6128POPC   D2A24328  19.070  41.569   8.250
 6128POPC   C3A24329  19.107  41.509   7.950
 6128POPC   C4A24330  19.069  41.529   7.650
 6128POPC   C1B24331  19.328  41.655   8.550
 6128POPC   C2B24332  19.300  41.583   8.250
 6128POPC   C3B24333  19.280  41.656   7.950
 6128POPC   C4B24334  19.343  41.581   7.650
 6129POPC   NC324335   0.443  26.783   9.450
 6129POPC   PO424336   0.447  26.812   9.150
 6129POPC   GL124337   0.409  26.814   8.850
 6129POPC   GL224338   0.521  26.826   8.850
 6129POPC   C1A24339   0.479  26.850   8.550
 6129POPC   D2A24340   0.465  26.834   8.250
 6129POPC   C3A24341   0.437  26.865   7.950
 6129POPC   C4A24342   0.478  26.828   7.650
 6129POPC   C1B24343   0.669  26.732   8.550
 6129POPC   C2B24344   0.709  26.772   8.250
 6129POPC   C3B24345   0.687  26.757   7.950
 6129POPC   C4B24346   0.647  26.797   7.650
 6130POPC   NC324347  11.305  10.572   9.450
 6130POPC   PO424348  11.266  10.524   9.150
 6130POPC   GL124349  11.305  10.573   8.850
 6130POPC   GL224350  11.448  10.477   8.850
 6130POPC   C1A24351  11.323  10.497   8.550
 6130POPC   D2A24352  11.317  10.549   8.250
 6130POPC   C3A24353  11.327  10.477   7.950
 6130POPC   C4A24354  11.322  10.540   7.650
 6130POPC   C1B24355  11.560  10.526   8.550
 6130POPC   C2B24356  11.503  10.509   8.250
 6130POPC   C3B24357  11.521  10.462   7.950
 6130POPC   C4B24358  11.558  10.518   7.650
 6131POPC   NC324359  39.259  40.823   9.450
 6131POPC   PO424360  39.280  40.793   9.150
 6131POPC   GL124361  39.235  40.756   8.850
 6131POPC   GL224362  39.316  40.878   8.850
 6131POPC   C1A24363  39.253  40.804   8.550
 6131POPC   D2A24364  39.198  40.777   8.250
 6131POPC   C3A24365  39.208  40.819   7.950
 6131POPC   C4A24366  39.260  40.824   7.650
 6131POPC   C1B24367  39.256  41.044   8.550
 6131POPC   C2B24368  39.319  41.061   8.250
 6131POPC   C3B24369  39.344  41.054   7.950
 6131POPC   C4B24370  39.291  40.973   7.650
 6132POPC   NC324371   9.780  35.354   9.450
 6132POPC   PO424372   9.751  35.382   9.150
 6132POPC   GL124373   9.772  35.363   8.850
 6132POPC   GL224374   9.614  35.347   8.850
 6132POPC   C1A24375   9.787  35.356   8.550
 6132POPC   D2A24376   9.788  35.304   8.250
 6132POPC   C3A24377   9.747  35.367   7.950
 6132POPC   C4A24378   9.757  35.320   7.650
 6132POPC   C1B24379   9.458  35.304   8.550
 6132POPC   C2B24380   9.543  35.380   8.250
 6132POPC   C3B24381   9.452  35.345   7.950
 6132POPC   C4B24382   9.499  35.382   7.650
 6133POPC   NC324383   8.984  27.627   9.450
 6133POPC   PO424384   8.937  27.625   9.150
 6133POPC   GL124385   9.020  27.642   8.850
 6133POPC   GL224386   9.123  27.578   8.850
 6133POPC   C1A24387   9.019  27.633   8.550
 6133POPC   D2A24388   9.018  27.592   8.250
 6133POPC   C3A24389   9.005  27.584   7.950
 6133POPC   C4A24390   8.967  27.564   7.650
 6133POPC   C1B24391   9.211  27.495   8.550
 6133POPC   C2B24392   9.163  27.455   8.250
 6133POPC   C3B24393   9.216  27.454   7.950
 6133POPC   C4B24394   9.236  27.440   7.650
 6134POPC   NC324395  33.833  33.796   9.450
 6134POPC   PO424396  33.832  33.841   9.150
 6134POPC   GL124397  33.790  33.834   8.850
 6134POPC   GL224398  33.737  33.922   8.850
 6134POPC   C1A24399  33.813  33.775   8.550
 6134POPC   D2A24400  33.841  33.770   8.250
 6134POPC   C3A24401  33.826  33.755   7.950
 6134POPC   C4A24402  33.815  33.800   7.650
 6134POPC   C1B24403  33.632  34.003   8.550
 6134POPC   C2B24404  33.573  33.952   8.250
 6134POPC   C3B24405  33.613  33.974   7.950
 6134POPC   C4B24406  33.575  34.010   7.650
 6135POPC   NC324407   1.988   6.645   9.450
 6135POPC   PO424408   1.998   6.603   9.150
 6135POPC   GL124409   1.995   6.687   8.850
 6135POPC   GL224410   1.976   6.493   8.850
 6135POPC   C1A24411   1.964   6.632   8.550
 6135POPC   D2A24412   1.945   6.656   8.250
 6135POPC   C3A24413   1.952   6.671   7.950
 6135POPC   C4A24414   1.957   6.650   7.650
 6135POPC   C1B24415   2.018   6.411   8.550
 6135POPC   C2B24416   2.003   6.354   8.250
 6135POPC   C3B24417   1.950   6.442   7.950
 6135POPC   C4B24418   1.959   6.350   7.650
 6136POPC   NC324419  36.099  35.360   9.450
 6136POPC   PO424420  36.110  35.304   9.150
 6136POPC   GL124421  36.168  35.387   8.850
 6136POPC   GL224422  36.020  35.250   8.850
 6136POPC   C1A24423  36.141  35.356   8.550
 6136POPC   D2A24424  36.125  35.377   8.250
 6136POPC   C3A24425  36.143  35.328   7.950
 6136POPC   C4A24426  36.172  35.309   7.650
 6136POPC   C1B24427  35.975  35.188   8.550
 6136POPC   C2B24428  36.014  35.143   8.250
 6136POPC   C3B24429  35.937  35.183   7.950
 6136POPC   C4B24430  35.973  35.159   7.650
 6137POPC   NC324431  37.632  37.728   9.450
 6137POPC   PO424432  37.698  37.647   9.150
 6137POPC   GL124433  37.678  37.655   8.850
 6137POPC   GL224434  37.830  37.719   8.850
 6137POPC   C1A24435  37.675  37.729   8.550
 6137POPC   D2A24436  37.672  37.690   8.250
 6137POPC   C3A24437  37.673  37.681   7.950
 6137POPC   C4A24438  37.668  37.641   7.650
 6137POPC   C1B24439  37.857  37.798   8.550
 6137POPC   C2B24440  37.926  37.771   8.250
 6137POPC   C3B24441  37.879  37.794   7.950
 6137POPC   C4B24442  37.906  37.751   7.650
 6138POPC   NC324443  32.296  40.011   9.450
 6138POPC   PO424444  32.289  39.962   9.150
 6138POPC   GL124445  32.264  40.005   8.850
 6138POPC   GL224446  32.100  39.972   8.850
 6138POPC   C1A24447  32.205  39.996   8.550
 6138POPC   D2A24448  32.256  40.037   8.250
 6138POPC   C3A24449  32.226  40.028   7.950
 6138POPC   C4A24450  32.203  40.023   7.650
 6138POPC   C1B24451  32.019  40.028   8.550
 6138POPC   C2B24452  32.014  40.055   8.250
 6138POPC   C3B24453  31.975  39.979   7.950
 6138POPC   C4B24454  31.988  40.069   7.650
 6139POPC   NC324455  22.935  27.561   9.450
 6139POPC   PO424456  22.984  27.598   9.150
 6139POPC   GL124457  22.920  27.574   8.850
 6139POPC   GL224458  22.875  27.674   8.850
 6139POPC   C1A24459  22.972  27.621   8.550
 6139POPC   D2A24460  22.914  27.561   8.250
 6139POPC   C3A24461  22.924  27.625   7.950
 6139POPC   C4A24462  22.912  27.593   7.650
 6139POPC   C1B24463  22.725  27.676   8.550
 6139POPC   C2B24464  22.733  27.738   8.250
 6139POPC   C3B24465  22.728  27.681   7.950
 6139POPC   C4B24466  22.736  27.722   7.650
 6140POPC   NC324467  27.607  26.866   9.450
 6140POPC   PO424468  27.615  26.791   9.150
 6140POPC   GL124469  27.551  26.810   8.850
 6140POPC   GL224470  27.447  26.867   8.850
 6140POPC   C1A24471  27.564  26.837   8.550
 6140POPC   D2A24472  27.582  26.836   8.250
 6140POPC   C3A24473  27.574  26.821   7.950
 6140POPC   C4A24474  27.608  26.861   7.650
 6140POPC   C1B24475  27.412  26.925   8.550
 6140POPC   C2B24476  27.351  26.959   8.250
 6140POPC   C3B24477  27.393  26.903   7.950
 6140POPC   C4B24478  27.335  26.878   7.650
 6141POPC   NC324479  18.315  38.426   9.450
 6141POPC   PO424480  18.332  38.484   9.150
 6141POPC   GL124481  18.321  38.457   8.850
 6141POPC   GL224482  18.448  38.431   8.850
 6141POPC   C1A24483  18.272  38.454   8.550
 6141POPC   D2A24484  18.280  38.448   8.250
 6141POPC   C3A24485  18.236  38.493   7.950
 6141POPC   C4A24486  18.235  38.433   7.650
 6141POPC   C1B24487  18.577  38.507   8.550
 6141POPC   C2B24488  18.493  38.462   8.250
 6141POPC   C3B24489  18.512  38.518   7.950
 6141POPC   C4B24490  18.564  38.539   7.650
 6142POPC   NC324491  14.437  40.033   9.450
 6142POPC   PO424492  14.380  39.983   9.150
 6142POPC   GL124493  14.417  40.053   8.850
 6142POPC   GL224494  14.487  40.037   8.850
 6142POPC   C1A24495  14.445  40.017   8.550
 6142POPC   D2A24496  14.366  39.961   8.250
 6142POPC   C3A24497  14.442  40.039   7.950
 6142POPC   C4A24498  14.361  39.976   7.650
 6142POPC   C1B24499  14.691  40.050   8.550
 6142POPC   C2B24500  14.634  40.121   8.250
 6142POPC   C3B24501  14.655  40.112   7.950
 6142POPC   C4B24502  14.639  40.048   7.650
 6143POPC   NC324503  37.698  21.361   9.450
 6143POPC   PO424504  37.729  21.388   9.150
 6143POPC   GL124505  37.688  21.379   8.850
 6143POPC   GL224506  37.785  21.321   8.850
 6143POPC   C1A24507  37.666  21.377   8.550
 6143POPC   D2A24508  37.666  21.432   8.250
 6143POPC   C3A24509  37.642  21.401   7.950
 6143POPC   C4A24510  37.692  21.342   7.650
 6143POPC   C1B24511  37.864  21.231   8.550
 6143POPC   C2B24512  37.858  21.249   8.250
 6143POPC   C3B24513  37.895  21.187   7.950
 6143POPC   C4B24514  37.852  21.238   7.650
 6144POPC   NC324515   3.500   5.049   9.450
 6144POPC   PO424516   3.554   5.043   9.150
 6144POPC   GL124517   3.506   5.101   8.850
 6144POPC   GL224518   3.586   5.002   8.850
 6144POPC   C1A24519   3.568   5.104   8.550
 6144POPC   D2A24520   3.581   5.049   8.250
 6144POPC   C3A24521   3.512   5.093   7.950
 6144POPC   C4A24522   3.500   5.116   7.650
 6144POPC   C1B24523   3.578   4.860   8.550
 6144POPC   C2B24524   3.567   4.883   8.250
 6144POPC   C3B24525   3.544   4.897   7.950
 6144POPC   C4B24526   3.628   4.866   7.650
 6145POPC   NC324527  24.451  34.531   9.450
 6145POPC   PO424528  24.516  34.593   9.150
 6145POPC   GL124529  24.480  34.590   8.850
 6145POPC   GL224530  24.387  34.608   8.850
 6145POPC   C1A24531  24.539  34.572   8.550
 6145POPC   D2A24532  24.475  34.610   8.250
 6145POPC   C3A24533  24.522  34.582   7.950
 6145POPC   C4A24534  24.472  34.560   7.650
 6145POPC   C1B24535  24.261  34.707   8.550
 6145POPC   C2B24536  24.287  34.722   8.250
 6145POPC   C3B24537  24.229  34.631   7.950
 6145POPC   C4B24538  24.229  34.706   7.650
 6146POPC   NC324539   7.459   2.028   9.450
 6146POPC   PO424540   7.406   1.951   9.150
 6146POPC   GL124541   7.464   2.028   8.850
 6146POPC   GL224542   7.259   1.901   8.850
 6146POPC   C1A24543   7.424   1.962   8.550
 6146POPC   D2A24544   7.422   1.966   8.250
 6146POPC   C3A24545   7.466   1.979   7.950
 6146POPC   C4A24546   7.448   1.988   7.650
 6146POPC   C1B24547   7.144   1.869   8.550
 6146POPC   C2B24548   7.203   1.843   8.250
 6146POPC   C3B24549   7.206   1.910   7.950
 6146POPC   C4B24550   7.240   1.921   7.650
 6147POPC   NC324551  12.805  33.776   9.450
 6147POPC   PO424552  12.896  33.809   9.150
 6147POPC   GL124553  12.858  33.791   8.850
 6147POPC   GL224554  12.723  33.818   8.850
 6147POPC   C1A24555  12.886  33.839   8.550
 6147POPC   D2A24556  12.848  33.782   8.250
 6147POPC   C3A24557  12.898  33.799   7.950
 6147POPC   C4A24558  12.855  33.816   7.650
 6147POPC   C1B24559  12.651  33.896   8.550
 6147POPC   C2B24560  12.611  33.875   8.250
 6147POPC   C3B24561  12.593  33.877   7.950
 6147POPC   C4B24562  12.632  33.902   7.650
 6148POPC   NC324563  13.599  39.194   9.450
 6148POPC   PO424564  13.600  39.234   9.150
 6148POPC   GL124565  13.612  39.252   8.850
 6148POPC   GL224566  13.576  39.341   8.850
 6148POPC   C1A24567  13.582  39.246   8.550
 6148POPC   D2A24568  13.623  39.211   8.250
 6148POPC   C3A24569  13.671  39.197   7.950
 6148POPC   C4A24570  13.666  39.274   7.650
 6148POPC   C1B24571  13.635  39.449   8.550
 6148POPC   C2B24572  13.647  39.431   8.250
 6148POPC   C3B24573  13.643  39.442   7.950
 6148POPC   C4B24574  13.653  39.448   7.650
 6149POPC   NC324575  12.871  33.055   9.450
 6149POPC   PO424576  12.821  33.058   9.150
 6149POPC   GL124577  12.813  33.003   8.850
 6149POPC   GL224578  12.756  33.084   8.850
 6149POPC   C1A24579  12.860  33.048   8.550
 6149POPC   D2A24580  12.865  33.072   8.250
 6149POPC   C3A24581  12.852  32.998   7.950
 6149POPC   C4A24582  12.892  32.994   7.650
 6149POPC   C1B24583  12.573  33.103   8.550
 6149POPC   C2B24584  12.587  33.058   8.250
 6149POPC   C3B24585  12.629  33.099   7.950
 6149POPC   C4B24586  12.635  33.122   7.650
 6150POPC   NC324587   2.724  25.311   9.450
 6150POPC   PO424588   2.716  25.279   9.150
 6150POPC   GL124589   2.814  25.299   8.850
 6150POPC   GL224590   2.856  25.380   8.850
 6150POPC   C1A24591   2.717  25.275   8.550
 6150POPC   D2A24592   2.766  25.295   8.250
 6150POPC   C3A24593   2.787  25.221   7.950
 6150POPC   C4A24594   2.748  25.222   7.650
 6150POPC   C1B24595   2.861  25.539   8.550
 6150POPC   C2B24596   2.880  25.462   8.250
 6150POPC   C3B24597   2.894  25.520   7.950
 6150POPC   C4B24598   2.884  25.446   7.650
 6151POPC   NC324599   2.812  18.262   9.450
 6151POPC   PO424600   2.724  18.244   9.150
 6151POPC   GL124601   2.789  18.313   8.850
 6151POPC   GL224602   2.770  18.134   8.850
 6151POPC   C1A24603   2.735  18.308   8.550
 6151POPC   D2A24604   2.718  18.321   8.250
 6151POPC   C3A24605   2.719  18.308   7.950
 6151POPC   C4A24606   2.794  18.294   7.650
 6151POPC   C1B24607   2.660  18.053   8.550
 6151POPC   C2B24608   2.706  18.065   8.250
 6151POPC   C3B24609   2.707  18.061   7.950
 6151POPC   C4B24610   2.737  18.068   7.650
 6152POPC   NC324611   4.310  24.466   9.450
 6152POPC   PO424612   4.291  24.481   9.150
 6152POPC   GL124613   4.320  24.505   8.850
 6152POPC   GL224614   4.246  24.358   8.850
 6152POPC   C1A24615   4.295  24.453   8.550
 6152POPC   D2A24616   4.277  24.505   8.250
 6152POPC   C3A24617   4.338  24.532   7.950
 6152POPC   C4A24618   4.295  24.505   7.650
 6152POPC   C1B24619   4.247  24.221   8.550
 6152POPC   C2B24620   4.162  24.282   8.250
 6152POPC   C3B24621   4.208  24.226   7.950
 6152POPC   C4B24622   4.156  24.253   7.650
 6153POPC   NC324623  36.157  42.360   9.450
 6153POPC   PO424624  36.141  42.380   9.150
 6153POPC   GL124625  36.101  42.375   8.850
 6153POPC   GL224626  36.162  42.173   8.850
 6153POPC   C1A24627  36.084  42.286   8.550
 6153POPC   D2A24628  36.127  42.381   8.250
 6153POPC   C3A24629  36.166  42.353   7.950
 6153POPC   C4A24630  36.167  42.353   7.650
 6153POPC   C1B24631  36.230  42.069   8.550
 6153POPC   C2B24632  36.216  42.132   8.250
 6153POPC   C3B24633  36.164  42.113   7.950
 6153POPC   C4B24634  36.240  42.071   7.650
 6154POPC   NC324635  19.875  10.535   9.450
 6154POPC   PO424636  19.874  10.565   9.150
 6154POPC   GL124637  19.804  10.511   8.850
 6154POPC   GL224638  19.722  10.474   8.850
 6154POPC   C1A24639  19.804  10.526   8.550
 6154POPC   D2A24640  19.825  10.541   8.250
 6154POPC   C3A24641  19.862  10.512   7.950
 6154POPC   C4A24642  19.840  10.574   7.650
 6154POPC   C1B24643  19.644  10.348   8.550
 6154POPC   C2B24644  19.618  10.333   8.250
 6154POPC   C3B24645  19.673  10.348   7.950
 6154POPC   C4B24646  19.671  10.353   7.650
 6155POPC   NC324647  42.304   6.627   9.450
 6155POPC   PO424648  42.344   6.598   9.150
 6155POPC   GL124649  42.305   6.617   8.850
 6155POPC   GL224650  42.216   6.720   8.850
 6155POPC   C1A24651  42.286   6.650   8.550
 6155POPC   D2A24652  42.338   6.606   8.250
 6155POPC   C3A24653  42.382   6.673   7.950
 6155POPC   C4A24654  42.364   6.634   7.650
 6155POPC   C1B24655  42.151   6.761   8.550
 6155POPC   C2B24656  42.116   6.767   8.250
 6155POPC   C3B24657  42.115   6.858   7.950
 6155POPC   C4B24658  42.184   6.795   7.650
 6156POPC   NC324659  19.036  40.733   9.450
 6156POPC   PO424660  19.025  40.786   9.150
 6156POPC   GL124661  19.063  40.832   8.850
 6156POPC   GL224662  18.933  40.809   8.850
 6156POPC   C1A24663  19.064  40.832   8.550
 6156POPC   D2A24664  19.078  40.815   8.250
 6156POPC   C3A24665  19.091  40.807   7.950
 6156POPC   C4A24666  19.034  40.813   7.650
 6156POPC   C1B24667  18.883  40.929   8.550
 6156POPC   C2B24668  18.859  40.870   8.250
 6156POPC   C3B24669  18.815  40.941   7.950
 6156POPC   C4B24670  18.814  40.880   7.650
 6157POPC   NC324671   1.219  41.547   9.450
 6157POPC   PO424672   1.225  41.556   9.150
 6157POPC   GL124673   1.222  41.538   8.850
 6157POPC   GL224674   1.125  41.662   8.850
 6157POPC   C1A24675   1.194  41.523   8.550
 6157POPC   D2A24676   1.165  41.548   8.250
 6157POPC   C3A24677   1.181  41.522   7.950
 6157POPC   C4A24678   1.169  41.564   7.650
 6157POPC   C1B24679   0.966  41.674   8.550
 6157POPC   C2B24680   1.018  41.684   8.250
 6157POPC   C3B24681   1.037  41.656   7.950
 6157POPC   C4B24682   0.995  41.667   7.650
 6158POPC   NC324683  42.293  14.452   9.450
 6158POPC   PO424684  42.318  14.433   9.150
 6158POPC   GL124685  42.347  14.441   8.850
 6158POPC   GL224686  42.235  14.340   8.850
 6158POPC   C1A24687  42.299  14.361   8.550
 6158POPC   D2A24688  42.350  14.401   8.250
 6158POPC   C3A24689  42.362  14.410   7.950
 6158POPC   C4A24690  42.379  14.356   7.650
 6158POPC   C1B24691  42.264  14.140   8.550
 6158POPC   C2B24692  42.254  14.222   8.250
 6158POPC   C3B24693  42.199  14.152   7.950
 6158POPC   C4B24694  42.198  14.146   7.650
 6159POPC   NC324695   4.359  22.198   9.450
 6159POPC   PO424696   4.357  22.173   9.150
 6159POPC   GL124697   4.353  22.211   8.850
 6159POPC   GL224698   4.239  22.138   8.850
 6159POPC   C1A24699   4.342  22.174   8.550
 6159POPC   D2A24700   4.326  22.193   8.250
 6159POPC   C3A24701   4.329  22.160   7.950
 6159POPC   C4A24702   4.359  22.156   7.650
 6159POPC   C1B24703   4.045  22.094   8.550
 6159POPC   C2B24704   4.113  22.056   8.250
 6159POPC   C3B24705   4.095  22.070   7.950
 6159POPC   C4B24706   4.108  22.108   7.650
 6160POPC   NC324707  31.506  43.147   9.450
 6160POPC   PO424708  31.480  43.082   9.150
 6160POPC   GL124709  31.478  43.149   8.850
 6160POPC   GL224710  31.369  43.142   8.850
 6160POPC   C1A24711  31.503  43.141   8.550
 6160POPC   D2A24712  31.517  43.097   8.250
 6160POPC   C3A24713  31.437  43.124   7.950
 6160POPC   C4A24714  31.494  43.083   7.650
 6160POPC   C1B24715  31.274  43.186   8.550
 6160POPC   C2B24716  31.214  43.230   8.250
 6160POPC   C3B24717  31.301  43.259   7.950
 6160POPC   C4B24718  31.297  43.238   7.650
 6161POPC   NC324719  43.881   9.014   9.450
 6161POPC   PO424720  43.935   8.959   9.150
 6161POPC   GL124721  43.878   8.961   8.850
 6161POPC   GL224722  43.772   9.070   8.850
 6161POPC   C1A24723  43.894   8.990   8.550
 6161POPC   D2A24724  43.889   8.990   8.250
 6161POPC   C3A24725  43.852   8.972   7.950
 6161POPC   C4A24726  43.843   8.987   7.650
 6161POPC   C1B24727  43.699   9.108   8.550
 6161POPC   C2B24728  43.653   9.045   8.250
 6161POPC   C3B24729  43.680   9.096   7.950
 6161POPC   C4B24730  43.707   9.035   7.650
 6162POPC   NC324731  33.042  19.017   9.450
 6162POPC   PO424732  32.998  19.072   9.150
 6162POPC   GL124733  33.027  19.086   8.850
 6162POPC   GL224734  33.128  18.918   8.850
 6162POPC   C1A24735  33.002  19.089   8.550
 6162POPC   D2A24736  32.994  19.072   8.250
 6162POPC   C3A24737  33.066  19.078   7.950
 6162POPC   C4A24738  33.066  19.058   7.650
 6162POPC   C1B24739  33.170  18.902   8.550
 6162POPC   C2B24740  33.139  18.835   8.250
 6162POPC   C3B24741  33.140  18.841   7.950
 6162POPC   C4B24742  33.140  18.894   7.650
 6163POPC   NC324743   8.205   5.911   9.450
 6163POPC   PO424744   8.171   5.849   9.150
 6163POPC   GL124745   8.228   5.862   8.850
 6163POPC   GL224746   8.267   5.742   8.850
 6163POPC   C1A24747   8.154   5.906   8.550
 6163POPC   D2A24748   8.176   5.869   8.250
 6163POPC   C3A24749   8.154   5.851   7.950
 6163POPC   C4A24750   8.208   5.865   7.650
 6163POPC   C1B24751   8.333   5.644   8.550
 6163POPC   C2B24752   8.321   5.690   8.250
 6163POPC   C3B24753   8.270   5.599   7.950
 6163POPC   C4B24754   8.302   5.695   7.650
 6164POPC   NC324755  41.562  34.560   9.450
 6164POPC   PO424756  41.557  34.611   9.150
 6164POPC   GL124757  41.581  34.559   8.850
 6164POPC   GL224758  41.656  34.481   8.850
 6164POPC   C1A24759  41.542  34.599   8.550
 6164POPC   D2A24760  41.537  34.585   8.250
 6164POPC   C3A24761  41.539  34.575   7.950
 6164POPC   C4A24762  41.528  34.574   7.650
 6164POPC   C1B24763  41.707  34.359   8.550
 6164POPC   C2B24764  41.694  34.342   8.250
 6164POPC   C3B24765  41.675  34.351   7.950
 6164POPC   C4B24766  41.690  34.360   7.650
 6165POPC   NC324767   1.966  12.850   9.450
 6165POPC   PO424768   1.979  12.840   9.150
 6165POPC   GL124769   1.965  12.818   8.850
 6165POPC   GL224770   2.115  12.832   8.850
 6165POPC   C1A24771   2.031  12.887   8.550
 6165POPC   D2A24772   1.996  12.864   8.250
 6165POPC   C3A24773   1.942  12.877   7.950
 6165POPC   C4A24774   2.022  12.896   7.650
 6165POPC   C1B24775   2.262  12.836   8.550
 6165POPC   C2B24776   2.232  12.853   8.250
 6165POPC   C3B24777   2.238  12.819   7.950
 6165POPC   C4B24778   2.230  12.886   7.650
 6166POPC   NC324779  31.455  33.795   9.450
 6166POPC   PO424780  31.496  33.777   9.150
 6166POPC   GL124781  31.432  33.806   8.850
 6166POPC   GL224782  31.406  33.720   8.850
 6166POPC   C1A24783  31.451  33.771   8.550
 6166POPC   D2A24784  31.487  33.775   8.250
 6166POPC   C3A24785  31.431  33.818   7.950
 6166POPC   C4A24786  31.437  33.849   7.650
 6166POPC   C1B24787  31.327  33.591   8.550
 6166POPC   C2B24788  31.319  33.557   8.250
 6166POPC   C3B24789  31.309  33.584   7.950
 6166POPC   C4B24790  31.306  33.632   7.650
 6167POPC   NC324791  12.874  29.958   9.450
 6167POPC   PO424792  12.824  29.955   9.150
 6167POPC   GL124793  12.882  29.891   8.850
 6167POPC   GL224794  12.837  30.072   8.850
 6167POPC   C1A24795  12.834  29.932   8.550
 6167POPC   D2A24796  12.815  29.892   8.250
 6167POPC   C3A24797  12.889  29.877   7.950
 6167POPC   C4A24798  12.833  29.918   7.650
 6167POPC   C1B24799  12.794  30.147   8.550
 6167POPC   C2B24800  12.704  30.180   8.250
 6167POPC   C3B24801  12.716  30.160   7.950
 6167POPC   C4B24802  12.704  30.129   7.650
 6168POPC   NC324803  19.882  21.410   9.450
 6168POPC   PO424804  19.814  21.404   9.150
 6168POPC   GL124805  19.858  21.431   8.850
 6168POPC   GL224806  19.842  21.232   8.850
 6168POPC   C1A24807  19.850  21.391   8.550
 6168POPC   D2A24808  19.856  21.363   8.250
 6168POPC   C3A24809  19.850  21.356   7.950
 6168POPC   C4A24810  19.884  21.369   7.650
 6168POPC   C1B24811  19.862  21.098   8.550
 6168POPC   C2B24812  19.909  21.163   8.250
 6168POPC   C3B24813  19.856  21.143   7.950
 6168POPC   C4B24814  19.848  21.157   7.650
 6169POPC   NC324815  40.017  37.647   9.450
 6169POPC   PO424816  40.036  37.704   9.150
 6169POPC   GL124817  39.989  37.658   8.850
 6169POPC   GL224818  40.085  37.642   8.850
 6169POPC   C1A24819  40.041  37.678   8.550
 6169POPC   D2A24820  39.972  37.720   8.250
 6169POPC   C3A24821  39.971  37.658   7.950
 6169POPC   C4A24822  39.968  37.679   7.650
 6169POPC   C1B24823  40.298  37.651   8.550
 6169POPC   C2B24824  40.294  37.620   8.250
 6169POPC   C3B24825  40.247  37.648   7.950
 6169POPC   C4B24826  40.236  37.587   7.650
 6170POPC   NC324827  39.215  12.050   9.450
 6170POPC   PO424828  39.256  12.086   9.150
 6170POPC   GL124829  39.255  12.046   8.850
 6170POPC   GL224830  39.350  12.156   8.850
 6170POPC   C1A24831  39.269  12.049   8.550
 6170POPC   D2A24832  39.222  12.096   8.250
 6170POPC   C3A24833  39.208  12.106   7.950
 6170POPC   C4A24834  39.209  12.113   7.650
 6170POPC   C1B24835  39.489  12.169   8.550
 6170POPC   C2B24836  39.422  12.254   8.250
 6170POPC   C3B24837  39.484  12.165   7.950
 6170POPC   C4B24838  39.450  12.216   7.650
 6171POPC   NC324839  10.480   8.162   9.450
 6171POPC   PO424840  10.480   8.196   9.150
 6171POPC   GL124841  10.531   8.180   8.850
 6171POPC   GL224842  10.545   8.272   8.850
 6171POPC   C1A24843  10.519   8.235   8.550
 6171POPC   D2A24844  10.528   8.198   8.250
 6171POPC   C3A24845  10.550   8.222   7.950
 6171POPC   C4A24846  10.507   8.155   7.650
 6171POPC   C1B24847  10.589   8.386   8.550
 6171POPC   C2B24848  10.685   8.459   8.250
 6171POPC   C3B24849  10.679   8.395   7.950
 6171POPC   C4B24850  10.675   8.430   7.650
 6172POPC   NC324851  32.241  20.630   9.450
 6172POPC   PO424852  32.199  20.586   9.150
 6172POPC   GL124853  32.291  20.637   8.850
 6172POPC   GL224854  32.367  20.555   8.850
 6172POPC   C1A24855  32.214  20.622   8.550
 6172POPC   D2A24856  32.260  20.627   8.250
 6172POPC   C3A24857  32.278  20.597   7.950
 6172POPC   C4A24858  32.285  20.658   7.650
 6172POPC   C1B24859  32.437  20.461   8.550
 6172POPC   C2B24860  32.502  20.525   8.250
 6172POPC   C3B24861  32.474  20.509   7.950
 6172POPC   C4B24862  32.481  20.502   7.650
 6173POPC   NC324863  36.890  17.466   9.450
 6173POPC   PO424864  36.912  17.475   9.150
 6173POPC   GL124865  36.910  17.510   8.850
 6173POPC   GL224866  36.943  17.607   8.850
 6173POPC   C1A24867  36.869  17.476   8.550
 6173POPC   D2A24868  36.917  17.540   8.250
 6173POPC   C3A24869  36.898  17.479   7.950
 6173POPC   C4A24870  36.907  17.520   7.650
 6173POPC   C1B24871  36.917  17.733   8.550
 6173POPC   C2B24872  36.854  17.729   8.250
 6173POPC   C3B24873  36.888  17.772   7.950
 6173POPC   C4B24874  36.918  17.709   7.650
 6174POPC   NC324875   1.962  35.397   9.450
 6174POPC   PO424876   1.998  35.394   9.150
 6174POPC   GL124877   1.940  35.361   8.850
 6174POPC   GL224878   1.971  35.468   8.850
 6174POPC   C1A24879   2.014  35.329   8.550
 6174POPC   D2A24880   1.943  35.366   8.250
 6174POPC   C3A24881   1.963  35.330   7.950
 6174POPC   C4A24882   2.023  35.332   7.650
 6174POPC   C1B24883   1.871  35.538   8.550
 6174POPC   C2B24884   1.855  35.594   8.250
 6174POPC   C3B24885   1.854  35.590   7.950
 6174POPC   C4B24886   1.877  35.600   7.650
 6175POPC   NC324887  30.745  31.504   9.450
 6175POPC   PO424888  30.716  31.509   9.150
 6175POPC   GL124889  30.720  31.441   8.850
 6175POPC   GL224890  30.741  31.394   8.850
 6175POPC   C1A24891  30.721  31.494   8.550
 6175POPC   D2A24892  30.720  31.498   8.250
 6175POPC   C3A24893  30.700  31.462   7.950
 6175POPC   C4A24894  30.715  31.424   7.650
 6175POPC   C1B24895  30.843  31.230   8.550
 6175POPC   C2B24896  30.814  31.215   8.250
 6175POPC   C3B24897  30.854  31.278   7.950
 6175POPC   C4B24898  30.792  31.224   7.650
 6176POPC   NC324899  15.153   8.928   9.450
 6176POPC   PO424900  15.150   8.998   9.150
 6176POPC   GL124901  15.196   8.973   8.850
 6176POPC   GL224902  15.048   8.975   8.850
 6176POPC   C1A24903  15.154   9.005   8.550
 6176POPC   D2A24904  15.228   8.962   8.250
 6176POPC   C3A24905  15.199   8.930   7.950
 6176POPC   C4A24906  15.199   9.022   7.650
 6176POPC   C1B24907  14.983   8.867   8.550
 6176POPC   C2B24908  14.905   8.881   8.250
 6176POPC   C3B24909  14.987   8.892   7.950
 6176POPC   C4B24910  14.932   8.897   7.650
 6177POPC   NC324911  43.862   3.564   9.450
 6177POPC   PO424912  43.903   3.504   9.150
 6177POPC   GL124913  43.878   3.540   8.850
 6177POPC   GL224914  44.022   3.435   8.850
 6177POPC   C1A24915  43.841   3.504   8.550
 6177POPC   D2A24916  43.842   3.531   8.250
 6177POPC   C3A24917  43.850   3.576   7.950
 6177POPC   C4A24918  43.853   3.561   7.650
 6177POPC   C1B24919  44.131   3.399   8.550
 6177POPC   C2B24920  44.132   3.429   8.250
 6177POPC   C3B24921  44.078   3.362   7.950
 6177POPC   C4B24922  44.076   3.352   7.650
 6178POPC   NC324923  42.335  35.352   9.450
 6178POPC   PO424924  42.330  35.344   9.150
 6178POPC   GL124925  42.370  35.327   8.850
 6178POPC   GL224926  42.330  35.206   8.850
 6178POPC   C1A24927  42.360  35.384   8.550
 6178POPC   D2A24928  42.287  35.351   8.250
 6178POPC   C3A24929  42.286  35.307   7.950
 6178POPC   C4A24930  42.313  35.398   7.650
 6178POPC   C1B24931  42.259  35.104   8.550
 6178POPC   C2B24932  42.283  35.133   8.250
 6178POPC   C3B24933  42.263  35.073   7.950
 6178POPC   C4B24934  42.282  35.153   7.650
 6179POPC   NC324935   7.428  36.857   9.450
 6179POPC   PO424936   7.460  36.903   9.150
 6179POPC   GL124937   7.375  36.899   8.850
 6179POPC   GL224938   7.558  36.863   8.850
 6179POPC   C1A24939   7.465  36.893   8.550
 6179POPC   D2A24940   7.414  36.902   8.250
 6179POPC   C3A24941   7.374  36.880   7.950
 6179POPC   C4A24942   7.387  36.873   7.650
 6179POPC   C1B24943   7.611  36.856   8.550
 6179POPC   C2B24944   7.702  36.812   8.250
 6179POPC   C3B24945   7.660  36.802   7.950
 6179POPC   C4B24946   7.613  36.822   7.650
 6180POPC   NC324947  21.428  42.310   9.450
 6180POPC   PO424948  21.406  42.294   9.150
 6180POPC   GL124949  21.342  42.330   8.850
 6180POPC   GL224950  21.300  42.278   8.850
 6180POPC   C1A24951  21.367  42.299   8.550
 6180POPC   D2A24952  21.347  42.359   8.250
 6180POPC   C3A24953  21.367  42.341   7.950
 6180POPC   C4A24954  21.408  42.345   7.650
 6180POPC   C1B24955  21.232  42.136   8.550
 6180POPC   C2B24956  21.213  42.206   8.250
 6180POPC   C3B24957  21.242  42.206   7.950
 6180POPC   C4B24958  21.244  42.125   7.650
 6181POPC   NC324959  13.640  37.697   9.450
 6181POPC   PO424960  13.649  37.670   9.150
 6181POPC   GL124961  13.618  37.656   8.850
 6181POPC   GL224962  13.779  37.783   8.850
 6181POPC   C1A24963  13.589  37.668   8.550
 6181POPC   D2A24964  13.636  37.688   8.250
 6181POPC   C3A24965  13.625  37.642   7.950
 6181POPC   C4A24966  13.588  37.716   7.650
 6181POPC   C1B24967  13.866  37.769   8.550
 6181POPC   C2B24968  13.854  37.826   8.250
 6181POPC   C3B24969  13.840  37.759   7.950
 6181POPC   C4B24970  13.819  37.831   7.650
 6182POPC   NC324971  12.838  19.803   9.450
 6182POPC   PO424972  12.881  19.849   9.150
 6182POPC   GL124973  12.805  19.858   8.850
 6182POPC   GL224974  12.874  19.939   8.850
 6182POPC   C1A24975  12.853  19.860   8.550
 6182POPC   D2A24976  12.811  19.804   8.250
 6182POPC   C3A24977  12.804  19.811   7.950
 6182POPC   C4A24978  12.862  19.825   7.650
 6182POPC   C1B24979  12.876  20.093   8.550
 6182POPC   C2B24980  12.837  20.080   8.250
 6182POPC   C3B24981  12.826  20.049   7.950
 6182POPC   C4B24982  12.840  20.071   7.650
 6183POPC   NC324983  33.074  17.479   9.450
 6183POPC   PO424984  33.014  17.554   9.150
 6183POPC   GL124985  33.021  17.470   8.850
 6183POPC   GL224986  32.978  17.604   8.850
 6183POPC   C1A24987  33.034  17.462   8.550
 6183POPC   D2A24988  33.074  17.487   8.250
 6183POPC   C3A24989  33.003  17.511   7.950
 6183POPC   C4A24990  33.011  17.521   7.650
 6183POPC   C1B24991  32.857  17.693   8.550
 6183POPC   C2B24992  32.871  17.665   8.250
 6183POPC   C3B24993  32.829  17.655   7.950
 6183POPC   C4B24994  32.880  17.684   7.650
 6184POPC   NC324995  15.918  22.204   9.450
 6184POPC   PO424996  15.976  22.133   9.150
 6184POPC   GL124997  15.977  22.142   8.850
 6184POPC   GL224998  15.846  22.233   8.850
 6184POPC   C1A24999  15.933  22.199   8.550
 6184POPC   D2A25000  15.999  22.148   8.250
 6184POPC   C3A25001  15.932  22.176   7.950
 6184POPC   C4A25002  15.958  22.194   7.650
 6184POPC   C1B25003  15.735  22.328   8.550
 6184POPC   C2B25004  15.728  22.362   8.250
 6184POPC   C3B25005  15.716  22.359   7.950
 6184POPC   C4B25006  15.733  22.297   7.650
 6185POPC   NC325007  21.429   2.003   9.450
 6185POPC   PO425008  21.376   2.024   9.150
 6185POPC   GL125009  21.431   2.015   8.850
 6185POPC   GL225010  21.502   2.060   8.850
 6185POPC   C1A25011  21.354   2.000   8.550
 6185POPC   D2A25012  21.414   1.945   8.250
 6185POPC   C3A25013  21.392   1.947   7.950
 6185POPC   C4A25014  21.375   1.955   7.650
 6185POPC   C1B25015  21.500   2.168   8.550
 6185POPC   C2B25016  21.557   2.153   8.250
 6185POPC   C3B25017  21.589   2.206   7.950
 6185POPC   C4B25018  21.589   2.161   7.650
 6186POPC   NC325019  40.004  28.349   9.450
 6186POPC   PO425020  39.998  28.375   9.150
 6186POPC   GL125021  40.032  28.325   8.850
 6186POPC   GL225022  40.063  28.493   8.850
 6186POPC   C1A25023  40.002  28.343   8.550
 6186POPC   D2A25024  39.988  28.396   8.250
 6186POPC   C3A25025  40.016  28.325   7.950
 6186POPC   C4A25026  39.989  28.372   7.650
 6186POPC   C1B25027  40.160  28.480   8.550
 6186POPC   C2B25028  40.239  28.558   8.250
 6186POPC   C3B25029  40.226  28.532   7.950
 6186POPC   C4B25030  40.213  28.563   7.650
 6187POPC   NC325031  43.118  15.978   9.450
 6187POPC   PO425032  43.096  15.914   9.150
 6187POPC   GL125033  43.100  15.983   8.850
 6187POPC   GL225034  43.190  16.026   8.850
 6187POPC   C1A25035  43.076  15.984   8.550
 6187POPC   D2A25036  43.083  15.948   8.250
 6187POPC   C3A25037  43.093  15.949   7.950
 6187POPC   C4A25038  43.108  16.005   7.650
 6187POPC   C1B25039  43.394  16.017   8.550
 6187POPC   C2B25040  43.383  15.986   8.250
 6187POPC   C3B25041  43.366  16.067   7.950
 6187POPC   C4B25042  43.356  16.015   7.650
 6188POPC   NC325043   8.975  38.417   9.450
 6188POPC   PO425044   8.930  38.408   9.150
 6188POPC   GL125045   9.016  38.490   8.850
 6188POPC   GL225046   8.864  38.461   8.850
 6188POPC   C1A25047   9.005  38.420   8.550
 6188POPC   D2A25048   8.980  38.446   8.250
 6188POPC   C3A25049   8.934  38.435   7.950
 6188POPC   C4A25050   8.923  38.470   7.650
 6188POPC   C1B25051   8.704  38.406   8.550
 6188POPC   C2B25052   8.718  38.407   8.250
 6188POPC   C3B25053   8.754  38.459   7.950
 6188POPC   C4B25054   8.732  38.439   7.650
 6189POPC   NC325055  42.360  23.733   9.450
 6189POPC   PO425056  42.286  23.673   9.150
 6189POPC   GL125057  42.287  23.675   8.850
 6189POPC   GL225058  42.293  23.866   8.850
 6189POPC   C1A25059  42.376  23.710   8.550
 6189POPC   D2A25060  42.287  23.672   8.250
 6189POPC   C3A25061  42.360  23.710   7.950
 6189POPC   C4A25062  42.295  23.695   7.650
 6189POPC   C1B25063  42.368  23.964   8.550
 6189POPC   C2B25064  42.298  23.954   8.250
 6189POPC   C3B25065  42.353  24.012   7.950
 6189POPC   C4B25066  42.362  23.953   7.650
 6190POPC   NC325067  26.035   1.958   9.450
 6190POPC   PO425068  26.083   2.032   9.150
 6190POPC   GL125069  26.068   2.030   8.850
 6190POPC   GL225070  26.060   2.112   8.850
 6190POPC   C1A25071  26.007   2.012   8.550
 6190POPC   D2A25072  26.052   2.013   8.250
 6190POPC   C3A25073  26.087   2.026   7.950
 6190POPC   C4A25074  26.091   1.942   7.650
 6190POPC   C1B25075  26.061   2.219   8.550
 6190POPC   C2B25076  26.069   2.237   8.250
 6190POPC   C3B25077  26.112   2.206   7.950
 6190POPC   C4B25078  26.110   2.221   7.650
 6191POPC   NC325079  42.292  43.078   9.450
 6191POPC   PO425080  42.379  43.157   9.150
 6191POPC   GL125081  42.371  43.123   8.850
 6191POPC   GL225082  42.218  43.120   8.850
 6191POPC   C1A25083  42.358  43.113   8.550
 6191POPC   D2A25084  42.320  43.160   8.250
 6191POPC   C3A25085  42.323  43.128   7.950
 6191POPC   C4A25086  42.356  43.072   7.650
 6191POPC   C1B25087  42.054  43.013   8.550
 6191POPC   C2B25088  42.145  42.995   8.250
 6191POPC   C3B25089  42.128  43.078   7.950
 6191POPC   C4B25090  42.090  43.063   7.650
 6192POPC   NC325091  33.814  34.579   9.450
 6192POPC   PO425092  33.836  34.597   9.150
 6192POPC   GL125093  33.757  34.539   8.850
 6192POPC   GL225094  33.783  34.454   8.850
 6192POPC   C1A25095  33.766  34.562   8.550
 6192POPC   D2A25096  33.837  34.595   8.250
 6192POPC   C3A25097  33.824  34.622   7.950
 6192POPC   C4A25098  33.845  34.587   7.650
 6192POPC   C1B25099  33.882  34.296   8.550
 6192POPC   C2B25100  33.842  34.332   8.250
 6192POPC   C3B25101  33.839  34.341   7.950
 6192POPC   C4B25102  33.903  34.340   7.650
 6193POPC   NC325103   8.202  21.402   9.450
 6193POPC   PO425104   8.225  21.386   9.150
 6193POPC   GL125105   8.235  21.376   8.850
 6193POPC   GL225106   8.127  21.427   8.850
 6193POPC   C1A25107   8.233  21.345   8.550
 6193POPC   D2A25108   8.226  21.410   8.250
 6193POPC   C3A25109   8.210  21.423   7.950
 6193POPC   C4A25110   8.196  21.357   7.650
 6193POPC   C1B25111   7.959  21.469   8.550
 6193POPC   C2B25112   7.937  21.498   8.250
 6193POPC   C3B25113   7.983  21.437   7.950
 6193POPC   C4B25114   7.981  21.465   7.650
 6194POPC   NC325115  35.396  40.804   9.450
 6194POPC   PO425116  35.385  40.790   9.150
 6194POPC   GL125117  35.313  40.824   8.850
 6194POPC   GL225118  35.413  40.640   8.850
 6194POPC   C1A25119  35.315  40.746   8.550
 6194POPC   D2A25120  35.373  40.827   8.250
 6194POPC   C3A25121  35.399  40.828   7.950
 6194POPC   C4A25122  35.362  40.796   7.650
 6194POPC   C1B25123  35.422  40.558   8.550
 6194POPC   C2B25124  35.463  40.579   8.250
 6194POPC   C3B25125  35.413  40.562   7.950
 6194POPC   C4B25126  35.441  40.532   7.650
 6195POPC   NC325127   6.622  28.414   9.450
 6195POPC   PO425128   6.693  28.417   9.150
 6195POPC   GL125129   6.623  28.371   8.850
 6195POPC   GL225130   6.669  28.503   8.850
 6195POPC   C1A25131   6.628  28.324   8.550
 6195POPC   D2A25132   6.656  28.348   8.250
 6195POPC   C3A25133   6.665  28.396   7.950
 6195POPC   C4A25134   6.643  28.392   7.650
 6195POPC   C1B25135   6.684  28.587   8.550
 6195POPC   C2B25136   6.710  28.570   8.250
 6195POPC   C3B25137   6.658  28.600   7.950
 6195POPC   C4B25138   6.701  28.610   7.650
 6196POPC   NC325139   9.780  20.592   9.450
 6196POPC   PO425140   9.740  20.629   9.150
 6196POPC   GL125141   9.796  20.564   8.850
 6196POPC   GL225142   9.844  20.497   8.850
 6196POPC   C1A25143   9.749  20.623   8.550
 6196POPC   D2A25144   9.758  20.636   8.250
 6196POPC   C3A25145   9.776  20.614   7.950
 6196POPC   C4A25146   9.733  20.577   7.650
 6196POPC   C1B25147   9.815  20.415   8.550
 6196POPC   C2B25148   9.834  20.384   8.250
 6196POPC   C3B25149   9.844  20.383   7.950
 6196POPC   C4B25150   9.864  20.378   7.650
 6197POPC   NC325151  12.064  30.714   9.450
 6197POPC   PO425152  12.050  30.696   9.150
 6197POPC   GL125153  12.029  30.726   8.850
 6197POPC   GL225154  11.905  30.713   8.850
 6197POPC   C1A25155  12.099  30.696   8.550
 6197POPC   D2A25156  12.081  30.669   8.250
 6197POPC   C3A25157  12.123  30.730   7.950
 6197POPC   C4A25158  12.099  30.723   7.650
 6197POPC   C1B25159  11.874  30.625   8.550
 6197POPC   C2B25160  11.793  30.684   8.250
 6197POPC   C3B25161  11.860  30.623   7.950
 6197POPC   C4B25162  11.874  30.637   7.650
 6198POPC   NC325163  43.841  15.998   9.450
 6198POPC   PO425164  43.849  15.932   9.150
 6198POPC   GL125165  43.874  15.920   8.850
 6198POPC   GL225166  44.000  15.856   8.850
 6198POPC   C1A25167  43.856  15.963   8.550
 6198POPC   D2A25168  43.843  15.932   8.250
 6198POPC   C3A25169  43.848  15.997   7.950
 6198POPC   C4A25170  43.886  15.913   7.650
 6198POPC   C1B25171  44.042  15.744   8.550
 6198POPC   C2B25172  44.019  15.771   8.250
 6198POPC   C3B25173  44.065  15.733   7.950
 6198POPC   C4B25174  44.011  15.708   7.650
 6199POPC   NC325175  40.764  24.494   9.450
 6199POPC   PO425176  40.798  24.527   9.150
 6199POPC   GL125177  40.807  24.481   8.850
 6199POPC   GL225178  40.758  24.620   8.850
 6199POPC   C1A25179  40.750  24.517   8.550
 6199POPC   D2A25180  40.748  24.466   8.250
 6199POPC   C3A25181  40.797  24.526   7.950
 6199POPC   C4A25182  40.828  24.487   7.650
 6199POPC   C1B25183  40.671  24.753   8.550
 6199POPC   C2B25184  40.661  24.736   8.250
 6199POPC   C3B25185  40.683  24.699   7.950
 6199POPC   C4B25186  40.643  24.727   7.650
 6200POPC   NC325187  18.275  37.706   9.450
 6200POPC   PO425188  18.239  37.670   9.150
 6200POPC   GL125189  18.262  37.703   8.850
 6200POPC   GL225190  18.282  37.601   8.850
 6200POPC   C1A25191  18.331  37.680   8.550
 6200POPC   D2A25192  18.316  37.706   8.250
 6200POPC   C3A25193  18.327  37.676   7.950
 6200POPC   C4A25194  18.316  37.675   7.650
 6200POPC   C1B25195  18.336  37.464   8.550
 6200POPC   C2B25196  18.305  37.462   8.250
 6200POPC   C3B25197  18.311  37.422   7.950
 6200POPC   C4B25198  18.354  37.458   7.650
 6201POPC   NC325199   8.227   6.681   9.450
 6201POPC   PO425200   8.153   6.654   9.150
 6201POPC   GL125201   8.179   6.691   8.850
 6201POPC   GL225202   8.239   6.726   8.850
 6201POPC   C1A25203   8.172   6.661   8.550
 6201POPC   D2A25204   8.230   6.634   8.250
 6201POPC   C3A25205   8.154   6.607   7.950
 6201POPC   C4A25206   8.186   6.632   7.650
 6201POPC   C1B25207   8.219   6.917   8.550
 6201POPC   C2B25208   8.174   6.882   8.250
 6201POPC   C3B25209   8.237   6.888   7.950
 6201POPC   C4B25210   8.189   6.868   7.650
 6202POPC   NC325211   9.763  22.145   9.450
 6202POPC   PO425212   9.765  22.124   9.150
 6202POPC   GL125213   9.745  22.112   8.850
 6202POPC   GL225214   9.689  22.021   8.850
 6202POPC   C1A25215   9.745  22.126   8.550
 6202POPC   D2A25216   9.779  22.115   8.250
 6202POPC   C3A25217   9.701  22.136   7.950
 6202POPC   C4A25218   9.798  22.146   7.650
 6202POPC   C1B25219   9.672  21.913   8.550
 6202POPC   C2B25220   9.689  21.905   8.250
 6202POPC   C3B25221   9.690  21.914   7.950
 6202POPC   C4B25222   9.680  21.882   7.650
 6203POPC   NC325223  39.219  39.973   9.450
 6203POPC   PO425224  39.207  39.989   9.150
 6203POPC   GL125225  39.273  40.028   8.850
 6203POPC   GL225226  39.273  39.863   8.850
 6203POPC   C1A25227  39.248  39.969   8.550
 6203POPC   D2A25228  39.248  40.034   8.250
 6203POPC   C3A25229  39.196  40.013   7.950
 6203POPC   C4A25230  39.251  40.013   7.650
 6203POPC   C1B25231  39.268  39.715   8.550
 6203POPC   C2B25232  39.261  39.768   8.250
 6203POPC   C3B25233  39.296  39.737   7.950
 6203POPC   C4B25234  39.307  39.744   7.650
 6204POPC   NC325235  26.023  30.703   9.450
 6204POPC   PO425236  26.025  30.719   9.150
 6204POPC   GL125237  25.999  30.664   8.850
 6204POPC   GL225238  25.910  30.571   8.850
 6204POPC   C1A25239  26.073  30.680   8.550
 6204POPC   D2A25240  26.059  30.679   8.250
 6204POPC   C3A25241  26.071  30.714   7.950
 6204POPC   C4A25242  26.067  30.678   7.650
 6204POPC   C1B25243  25.914  30.510   8.550
 6204POPC   C2B25244  25.832  30.482   8.250
 6204POPC   C3B25245  25.909  30.553   7.950
 6204POPC   C4B25246  25.871  30.545   7.650
 6205POPC   NC325247  14.361  29.933   9.450
 6205POPC   PO425248  14.402  29.925   9.150
 6205POPC   GL125249  14.388  29.938   8.850
 6205POPC   GL225250  14.392  30.074   8.850
 6205POPC   C1A25251  14.382  29.945   8.550
 6205POPC   D2A25252  14.433  29.910   8.250
 6205POPC   C3A25253  14.362  29.882   7.950
 6205POPC   C4A25254  14.402  29.961   7.650
 6205POPC   C1B25255  14.268  30.114   8.550
 6205POPC   C2B25256  14.257  30.109   8.250
 6205POPC   C3B25257  14.277  30.143   7.950
 6205POPC   C4B25258  14.289  30.144   7.650
 6206POPC   NC325259   8.930  30.687   9.450
 6206POPC   PO425260   9.021  30.651   9.150
 6206POPC   GL125261   9.009  30.725   8.850
 6206POPC   GL225262   8.915  30.769   8.850
 6206POPC   C1A25263   8.948  30.664   8.550
 6206POPC   D2A25264   8.987  30.675   8.250
 6206POPC   C3A25265   8.990  30.656   7.950
 6206POPC   C4A25266   8.950  30.739   7.650
 6206POPC   C1B25267   8.832  30.847   8.550
 6206POPC   C2B25268   8.829  30.870   8.250
 6206POPC   C3B25269   8.760  30.846   7.950
 6206POPC   C4B25270   8.757  30.831   7.650
 6207POPC   NC325271   0.409  20.630   9.450
 6207POPC   PO425272   0.431  20.642   9.150
 6207POPC   GL125273   0.460  20.659   8.850
 6207POPC   GL225274   0.457  20.752   8.850
 6207POPC   C1A25275   0.402  20.625   8.550
 6207POPC   D2A25276   0.487  20.598   8.250
 6207POPC   C3A25277   0.454  20.636   7.950
 6207POPC   C4A25278   0.485  20.624   7.650
 6207POPC   C1B25279   0.379  20.866   8.550
 6207POPC   C2B25280   0.400  20.872   8.250
 6207POPC   C3B25281   0.460  20.846   7.950
 6207POPC   C4B25282   0.383  20.899   7.650
 6208POPC   NC325283  11.332  14.412   9.450
 6208POPC   PO425284  11.279  14.415   9.150
 6208POPC   GL125285  11.346  14.409   8.850
 6208POPC   GL225286  11.282  14.529   8.850
 6208POPC   C1A25287  11.306  14.419   8.550
 6208POPC   D2A25288  11.270  14.411   8.250
 6208POPC   C3A25289  11.272  14.380   7.950
 6208POPC   C4A25290  11.261  14.393   7.650
 6208POPC   C1B25291  11.290  14.639   8.550
 6208POPC   C2B25292  11.254  14.638   8.250
 6208POPC   C3B25293  11.298  14.604   7.950
 6208POPC   C4B25294  11.311  14.642   7.650
 6209POPC   NC325295  23.734  36.873   9.450
 6209POPC   PO425296  23.681  36.940   9.150
 6209POPC   GL125297  23.670  36.932   8.850
 6209POPC   GL225298  23.555  36.909   8.850
 6209POPC   C1A25299  23.677  36.856   8.550
 6209POPC   D2A25300  23.734  36.889   8.250
 6209POPC   C3A25301  23.713  36.863   7.950
 6209POPC   C4A25302  23.729  36.924   7.650
 6209POPC   C1B25303  23.441  36.918   8.550
 6209POPC   C2B25304  23.447  36.862   8.250
 6209POPC   C3B25305  23.449  36.902   7.950
 6209POPC   C4B25306  23.430  36.882   7.650
 6210POPC   NC325307  40.021  15.130   9.450
 6210POPC   PO425308  40.025  15.193   9.150
 6210POPC   GL125309  39.974  15.222   8.850
 6210POPC   GL225310  40.103  15.179   8.850
 6210POPC   C1A25311  40.003  15.163   8.550
 6210POPC   D2A25312  39.964  15.154   8.250
 6210POPC   C3A25313  40.032  15.156   7.950
 6210POPC   C4A25314  39.976  15.139   7.650
 6210POPC   C1B25315  40.221  15.210   8.550
 6210POPC   C2B25316  40.287  15.155   8.250
 6210POPC   C3B25317  40.287  15.139   7.950
 6210POPC   C4B25318  40.295  15.155   7.650
 6211POPC   NC325319  37.642   8.151   9.450
 6211POPC   PO425320  37.697   8.216   9.150
 6211POPC   GL125321  37.647   8.217   8.850
 6211POPC   GL225322  37.781   8.278   8.850
 6211POPC   C1A25323  37.653   8.205   8.550
 6211POPC   D2A25324  37.691   8.161   8.250
 6211POPC   C3A25325  37.716   8.208   7.950
 6211POPC   C4A25326  37.656   8.180   7.650
 6211POPC   C1B25327  37.846   8.378   8.550
 6211POPC   C2B25328  37.919   8.356   8.250
 6211POPC   C3B25329  37.900   8.393   7.950
 6211POPC   C4B25330  37.912   8.396   7.650
 6212POPC   NC325331  27.602  43.916   9.450
 6212POPC   PO425332  27.612  43.867   9.150
 6212POPC   GL125333  27.543  43.872   8.850
 6212POPC   GL225334  27.681  43.936   8.850
 6212POPC   C1A25335  27.546  43.930   8.550
 6212POPC   D2A25336  27.602  43.930   8.250
 6212POPC   C3A25337  27.557  43.865   7.950
 6212POPC   C4A25338  27.552  43.861   7.650
 6212POPC   C1B25339  27.776  43.965   8.550
 6212POPC   C2B25340  27.787  44.016   8.250
 6212POPC   C3B25341  27.795  44.002   7.950
 6212POPC   C4B25342  27.818  44.006   7.650
 6213POPC   NC325343  25.241  29.880   9.450
 6213POPC   PO425344  25.233  29.930   9.150
 6213POPC   GL125345  25.239  29.909   8.850
 6213POPC   GL225346  25.337  29.846   8.850
 6213POPC   C1A25347  25.273  29.875   8.550
 6213POPC   D2A25348  25.233  29.965   8.250
 6213POPC   C3A25349  25.263  29.907   7.950
 6213POPC   C4A25350  25.251  29.970   7.650
 6213POPC   C1B25351  25.400  29.693   8.550
 6213POPC   C2B25352  25.402  29.684   8.250
 6213POPC   C3B25353  25.424  29.725   7.950
 6213POPC   C4B25354  25.406  29.704   7.650
 6214POPC   NC325355   8.938   8.923   9.450
 6214POPC   PO425356   8.987   8.942   9.150
 6214POPC   GL125357   9.005   9.007   8.850
 6214POPC   GL225358   8.975   8.868   8.850
 6214POPC   C1A25359   8.950   8.932   8.550
 6214POPC   D2A25360   8.986   8.972   8.250
 6214POPC   C3A25361   9.001   9.022   7.950
 6214POPC   C4A25362   8.950   8.923   7.650
 6214POPC   C1B25363   8.906   8.693   8.550
 6214POPC   C2B25364   8.965   8.772   8.250
 6214POPC   C3B25365   8.889   8.763   7.950
 6214POPC   C4B25366   8.955   8.728   7.650
 6215POPC   NC325367   6.596  23.741   9.450
 6215POPC   PO425368   6.650  23.721   9.150
 6215POPC   GL125369   6.692  23.695   8.850
 6215POPC   GL225370   6.510  23.780   8.850
 6215POPC   C1A25371   6.603  23.714   8.550
 6215POPC   D2A25372   6.661  23.744   8.250
 6215POPC   C3A25373   6.660  23.742   7.950
 6215POPC   C4A25374   6.693  23.755   7.650
 6215POPC   C1B25375   6.354  23.769   8.550
 6215POPC   C2B25376   6.422  23.799   8.250
 6215POPC   C3B25377   6.369  23.805   7.950
 6215POPC   C4B25378   6.401  23.754   7.650
 6216POPC   NC325379   5.913   1.968   9.450
 6216POPC   PO425380   5.868   1.964   9.150
 6216POPC   GL125381   5.897   1.941   8.850
 6216POPC   GL225382   5.991   1.995   8.850
 6216POPC   C1A25383   5.918   2.021   8.550
 6216POPC   D2A25384   5.879   1.972   8.250
 6216POPC   C3A25385   5.882   2.003   7.950
 6216POPC   C4A25386   5.919   1.945   7.650
 6216POPC   C1B25387   6.120   1.968   8.550
 6216POPC   C2B25388   6.059   1.946   8.250
 6216POPC   C3B25389   6.104   1.915   7.950
 6216POPC   C4B25390   6.083   1.962   7.650
 6217POPC   NC325391   4.308  26.019   9.450
 6217POPC   PO425392   4.294  26.078   9.150
 6217POPC   GL125393   4.329  26.040   8.850
 6217POPC   GL225394   4.403  26.154   8.850
 6217POPC   C1A25395   4.301  25.996   8.550
 6217POPC   D2A25396   4.294  26.021   8.250
 6217POPC   C3A25397   4.283  26.033   7.950
 6217POPC   C4A25398   4.282  26.011   7.650
 6217POPC   C1B25399   4.450  26.241   8.550
 6217POPC   C2B25400   4.463  26.250   8.250
 6217POPC   C3B25401   4.443  26.286   7.950
 6217POPC   C4B25402   4.485  26.217   7.650
 6218POPC   NC325403  29.127   6.598   9.450
 6218POPC   PO425404  29.106   6.629   9.150
 6218POPC   GL125405  29.187   6.643   8.850
 6218POPC   GL225406  29.061   6.572   8.850
 6218POPC   C1A25407  29.180   6.658   8.550
 6218POPC   D2A25408  29.111   6.597   8.250
 6218POPC   C3A25409  29.169   6.608   7.950
 6218POPC   C4A25410  29.177   6.604   7.650
 6218POPC   C1B25411  28.987   6.453   8.550
 6218POPC   C2B25412  28.960   6.538   8.250
 6218POPC   C3B25413  28.941   6.515   7.950
 6218POPC   C4B25414  28.960   6.538   7.650
 6219POPC   NC325415  23.726  31.493   9.450
 6219POPC   PO425416  23.750  31.514   9.150
 6219POPC   GL125417  23.707  31.446   8.850
 6219POPC   GL225418  23.739  31.551   8.850
 6219POPC   C1A25419  23.748  31.465   8.550
 6219POPC   D2A25420  23.749  31.475   8.250
 6219POPC   C3A25421  23.708  31.471   7.950
 6219POPC   C4A25422  23.747  31.491   7.650
 6219POPC   C1B25423  23.776  31.700   8.550
 6219POPC   C2B25424  23.837  31.669   8.250
 6219POPC   C3B25425  23.790  31.662   7.950
 6219POPC   C4B25426  23.786  31.732   7.650
 6220POPC   NC325427  28.360  32.289   9.450
 6220POPC   PO425428  28.357  32.220   9.150
 6220POPC   GL125429  28.415  32.224   8.850
 6220POPC   GL225430  28.255  32.257   8.850
 6220POPC   C1A25431  28.379  32.285   8.550
 6220POPC   D2A25432  28.375  32.207   8.250
 6220POPC   C3A25433  28.408  32.287   7.950
 6220POPC   C4A25434  28.341  32.268   7.650
 6220POPC   C1B25435  28.106  32.330   8.550
 6220POPC   C2B25436  28.119  32.332   8.250
 6220POPC   C3B25437  28.159  32.332   7.950
 6220POPC   C4B25438  28.155  32.346   7.650
 6221POPC   NC325439  16.722  19.850   9.450
 6221POPC   PO425440  16.778  19.803   9.150
 6221POPC   GL125441  16.701  19.838   8.850
 6221POPC   GL225442  16.660  19.998   8.850
 6221POPC   C1A25443  16.709  19.832   8.550
 6221POPC   D2A25444  16.732  19.813   8.250
 6221POPC   C3A25445  16.746  19.847   7.950
 6221POPC   C4A25446  16.717  19.834   7.650
 6221POPC   C1B25447  16.651  20.068   8.550
 6221POPC   C2B25448  16.698  20.077   8.250
 6221POPC   C3B25449  16.669  20.052   7.950
 6221POPC   C4B25450  16.695  20.101   7.650
 6222POPC   NC325451  19.853  22.190   9.450
 6222POPC   PO425452  19.845  22.201   9.150
 6222POPC   GL125453  19.813  22.175   8.850
 6222POPC   GL225454  19.849  22.231   8.850
 6222POPC   C1A25455  19.817  22.155   8.550
 6222POPC   D2A25456  19.809  22.135   8.250
 6222POPC   C3A25457  19.883  22.183   7.950
 6222POPC   C4A25458  19.850  22.157   7.650
 6222POPC   C1B25459  19.932  22.371   8.550
 6222POPC   C2B25460  19.951  22.398   8.250
 6222POPC   C3B25461  19.919  22.430   7.950
 6222POPC   C4B25462  19.966  22.371   7.650
 6223POPC   NC325463   1.173   0.409   9.450
 6223POPC   PO425464   1.192   0.464   9.150
 6223POPC   GL125465   1.193   0.390   8.850
 6223POPC   GL225466   1.295   0.474   8.850
 6223POPC   C1A25467   1.201   0.414   8.550
 6223POPC   D2A25468   1.219   0.477   8.250
 6223POPC   C3A25469   1.204   0.425   7.950
 6223POPC   C4A25470   1.172   0.480   7.650
 6223POPC   C1B25471   1.362   0.582   8.550
 6223POPC   C2B25472   1.447   0.631   8.250
 6223POPC   C3B25473   1.416   0.610   7.950
 6223POPC   C4B25474   1.456   0.600   7.650
 6224POPC   NC325475  23.759   4.352   9.450
 6224POPC   PO425476  23.695   4.332   9.150
 6224POPC   GL125477  23.759   4.285   8.850
 6224POPC   GL225478  23.776   4.426   8.850
 6224POPC   C1A25479  23.715   4.336   8.550
 6224POPC   D2A25480  23.746   4.339   8.250
 6224POPC   C3A25481  23.676   4.341   7.950
 6224POPC   C4A25482  23.665   4.361   7.650
 6224POPC   C1B25483  23.828   4.560   8.550
 6224POPC   C2B25484  23.824   4.486   8.250
 6224POPC   C3B25485  23.824   4.485   7.950
 6224POPC   C4B25486  23.855   4.543   7.650
 6225POPC   NC325487  33.832  36.950   9.450
 6225POPC   PO425488  33.815  36.928   9.150
 6225POPC   GL125489  33.774  36.936   8.850
 6225POPC   GL225490  33.888  37.008   8.850
 6225POPC   C1A25491  33.826  36.942   8.550
 6225POPC   D2A25492  33.768  36.868   8.250
 6225POPC   C3A25493  33.760  36.926   7.950
 6225POPC   C4A25494  33.840  36.896   7.650
 6225POPC   C1B25495  33.989  37.075   8.550
 6225POPC   C2B25496  34.018  37.050   8.250
 6225POPC   C3B25497  34.025  37.027   7.950
 6225POPC   C4B25498  34.024  37.090   7.650
 6226POPC   NC325499   8.993   5.082   9.450
 6226POPC   PO425500   8.996   5.102   9.150
 6226POPC   GL125501   8.962   5.142   8.850
 6226POPC   GL225502   8.827   5.041   8.850
 6226POPC   C1A25503   8.989   5.121   8.550
 6226POPC   D2A25504   8.925   5.113   8.250
 6226POPC   C3A25505   8.975   5.136   7.950
 6226POPC   C4A25506   8.946   5.112   7.650
 6226POPC   C1B25507   8.712   5.094   8.550
 6226POPC   C2B25508   8.688   5.042   8.250
 6226POPC   C3B25509   8.748   5.042   7.950
 6226POPC   C4B25510   8.722   5.037   7.650
 6227POPC   NC325511  22.210   8.942   9.450
 6227POPC   PO425512  22.116   8.942   9.150
 6227POPC   GL125513  22.145   8.986   8.850
 6227POPC   GL225514  22.147   8.834   8.850
 6227POPC   C1A25515  22.120   9.002   8.550
 6227POPC   D2A25516  22.207   9.009   8.250
 6227POPC   C3A25517  22.164   8.935   7.950
 6227POPC   C4A25518  22.121   8.949   7.650
 6227POPC   C1B25519  22.070   8.714   8.550
 6227POPC   C2B25520  22.084   8.692   8.250
 6227POPC   C3B25521  22.081   8.705   7.950
 6227POPC   C4B25522  22.123   8.747   7.650
 6228POPC   NC325523   4.342  36.873   9.450
 6228POPC   PO425524   4.351  36.909   9.150
 6228POPC   GL125525   4.269  36.897   8.850
 6228POPC   GL225526   4.445  36.966   8.850
 6228POPC   C1A25527   4.312  36.881   8.550
 6228POPC   D2A25528   4.333  36.895   8.250
 6228POPC   C3A25529   4.304  36.910   7.950
 6228POPC   C4A25530   4.309  36.901   7.650
 6228POPC   C1B25531   4.509  37.011   8.550
 6228POPC   C2B25532   4.598  36.996   8.250
 6228POPC   C3B25533   4.522  37.013   7.950
 6228POPC   C4B25534   4.530  36.937   7.650
 6229POPC   NC325535  28.386  38.460   9.450
 6229POPC   PO425536  28.355  38.493   9.150
 6229POPC   GL125537  28.399  38.491   8.850
 6229POPC   GL225538  28.222  38.449   8.850
 6229POPC   C1A25539  28.335  38.499   8.550
 6229POPC   D2A25540  28.368  38.425   8.250
 6229POPC   C3A25541  28.374  38.460   7.950
 6229POPC   C4A25542  28.385  38.446   7.650
 6229POPC   C1B25543  28.168  38.406   8.550
 6229POPC   C2B25544  28.135  38.452   8.250
 6229POPC   C3B25545  28.104  38.434   7.950
 6229POPC   C4B25546  28.118  38.450   7.650
 6230POPC   NC325547  37.642  23.672   9.450
 6230POPC   PO425548  37.696  23.757   9.150
 6230POPC   GL125549  37.709  23.696   8.850
 6230POPC   GL225550  37.773  23.746   8.850
 6230POPC   C1A25551  37.676  23.676   8.550
 6230POPC   D2A25552  37.724  23.687   8.250
 6230POPC   C3A25553  37.696  23.675   7.950
 6230POPC   C4A25554  37.633  23.707   7.650
 6230POPC   C1B25555  37.967  23.761   8.550
 6230POPC   C2B25556  37.907  23.737   8.250
 6230POPC   C3B25557  37.916  23.752   7.950
 6230POPC   C4B25558  37.894  23.689   7.650
 6231POPC   NC325559  39.975  14.391   9.450
 6231POPC   PO425560  40.045  14.423   9.150
 6231POPC   GL125561  40.016  14.440   8.850
 6231POPC   GL225562  40.152  14.490   8.850
 6231POPC   C1A25563  40.045  14.453   8.550
 6231POPC   D2A25564  40.016  14.452   8.250
 6231POPC   C3A25565  40.012  14.446   7.950
 6231POPC   C4A25566  40.035  14.380   7.650
 6231POPC   C1B25567  40.206  14.537   8.550
 6231POPC   C2B25568  40.261  14.478   8.250
 6231POPC   C3B25569  40.247  14.539   7.950
 6231POPC   C4B25570  40.198  14.525   7.650
 6232POPC   NC325571   5.114   1.998   9.450
 6232POPC   PO425572   5.088   1.964   9.150
 6232POPC   GL125573   5.114   1.948   8.850
 6232POPC   GL225574   4.940   2.015   8.850
 6232POPC   C1A25575   5.047   1.969   8.550
 6232POPC   D2A25576   5.078   2.021   8.250
 6232POPC   C3A25577   5.120   2.024   7.950
 6232POPC   C4A25578   5.081   1.956   7.650
 6232POPC   C1B25579   4.804   2.059   8.550
 6232POPC   C2B25580   4.847   2.015   8.250
 6232POPC   C3B25581   4.820   2.039   7.950
 6232POPC   C4B25582   4.853   2.047   7.650
 6233POPC   NC325583  33.760  41.555   9.450
 6233POPC   PO425584  33.788  41.553   9.150
 6233POPC   GL125585  33.769  41.578   8.850
 6233POPC   GL225586  33.717  41.703   8.850
 6233POPC   C1A25587  33.828  41.586   8.550
 6233POPC   D2A25588  33.810  41.579   8.250
 6233POPC   C3A25589  33.843  41.598   7.950
 6233POPC   C4A25590  33.754  41.529   7.650
 6233POPC   C1B25591  33.693  41.777   8.550
 6233POPC   C2B25592  33.725  41.751   8.250
 6233POPC   C3B25593  33.682  41.793   7.950
 6233POPC   C4B25594  33.684  41.809   7.650
 6234POPC   NC325595  31.477  36.129   9.450
 6234POPC   PO425596  31.487  36.162   9.150
 6234POPC   GL125597  31.443  36.112   8.850
 6234POPC   GL225598  31.328  36.131   8.850
 6234POPC   C1A25599  31.471  36.156   8.550
 6234POPC   D2A25600  31.489  36.169   8.250
 6234POPC   C3A25601  31.425  36.108   7.950
 6234POPC   C4A25602  31.496  36.126   7.650
 6234POPC   C1B25603  31.224  36.206   8.550
 6234POPC   C2B25604  31.227  36.222   8.250
 6234POPC   C3B25605  31.262  36.191   7.950
 6234POPC   C4B25606  31.199  36.145   7.650
 6235POPC   NC325607   7.426  33.812   9.450
 6235POPC   PO425608   7.441  33.819   9.150
 6235POPC   GL125609   7.410  33.751   8.850
 6235POPC   GL225610   7.364  33.877   8.850
 6235POPC   C1A25611   7.469  33.772   8.550
 6235POPC   D2A25612   7.453  33.848   8.250
 6235POPC   C3A25613   7.409  33.839   7.950
 6235POPC   C4A25614   7.398  33.756   7.650
 6235POPC   C1B25615   7.243  33.978   8.550
 6235POPC   C2B25616   7.200  33.899   8.250
 6235POPC   C3B25617   7.227  33.975   7.950
 6235POPC   C4B25618   7.238  33.904   7.650
 6236POPC   NC325619  16.752  27.618   9.450
 6236POPC   PO425620  16.697  27.577   9.150
 6236POPC   GL125621  16.759  27.594   8.850
 6236POPC   GL225622  16.585  27.693   8.850
 6236POPC   C1A25623  16.686  27.558   8.550
 6236POPC   D2A25624  16.737  27.611   8.250
 6236POPC   C3A25625  16.690  27.611   7.950
 6236POPC   C4A25626  16.737  27.563   7.650
 6236POPC   C1B25627  16.554  27.781   8.550
 6236POPC   C2B25628  16.575  27.764   8.250
 6236POPC   C3B25629  16.555  27.701   7.950
 6236POPC   C4B25630  16.520  27.776   7.650
 6237POPC   NC325631  34.608  15.991   9.450
 6237POPC   PO425632  34.610  15.934   9.150
 6237POPC   GL125633  34.616  15.959   8.850
 6237POPC   GL225634  34.695  15.948   8.850
 6237POPC   C1A25635  34.548  15.919   8.550
 6237POPC   D2A25636  34.543  15.942   8.250
 6237POPC   C3A25637  34.526  15.997   7.950
 6237POPC   C4A25638  34.602  15.918   7.650
 6237POPC   C1B25639  34.821  16.012   8.550
 6237POPC   C2B25640  34.790  16.000   8.250
 6237POPC   C3B25641  34.872  16.029   7.950
 6237POPC   C4B25642  34.835  15.983   7.650
 6238POPC   NC325643  11.273  38.494   9.450
 6238POPC   PO425644  11.313  38.418   9.150
 6238POPC   GL125645  11.302  38.488   8.850
 6238POPC   GL225646  11.291  38.332   8.850
 6238POPC   C1A25647  11.279  38.491   8.550
 6238POPC   D2A25648  11.287  38.422   8.250
 6238POPC   C3A25649  11.335  38.469   7.950
 6238POPC   C4A25650  11.343  38.499   7.650
 6238POPC   C1B25651  11.260  38.234   8.550
 6238POPC   C2B25652  11.312  38.172   8.250
 6238POPC   C3B25653  11.255  38.188   7.950
 6238POPC   C4B25654  11.283  38.245   7.650
 6239POPC   NC325655  43.089   8.221   9.450
 6239POPC   PO425656  43.094   8.154   9.150
 6239POPC   GL125657  43.140   8.208   8.850
 6239POPC   GL225658  43.157   8.331   8.850
 6239POPC   C1A25659  43.083   8.182   8.550
 6239POPC   D2A25660  43.097   8.171   8.250
 6239POPC   C3A25661  43.072   8.236   7.950
 6239POPC   C4A25662  43.128   8.172   7.650
 6239POPC   C1B25663  43.127   8.468   8.550
 6239POPC   C2B25664  43.136   8.423   8.250
 6239POPC   C3B25665  43.181   8.468   7.950
 6239POPC   C4B25666  43.146   8.436   7.650
 6240POPC   NC325667  36.113  22.942   9.450
 6240POPC   PO425668  36.079  22.950   9.150
 6240POPC   GL125669  36.090  22.981   8.850
 6240POPC   GL225670  36.049  23.010   8.850
 6240POPC   C1A25671  36.160  22.894   8.550
 6240POPC   D2A25672  36.134  22.982   8.250
 6240POPC   C3A25673  36.121  22.934   7.950
 6240POPC   C4A25674  36.165  22.904   7.650
 6240POPC   C1B25675  36.048  23.203   8.550
 6240POPC   C2B25676  36.035  23.176   8.250
 6240POPC   C3B25677  36.056  23.153   7.950
 6240POPC   C4B25678  36.066  23.152   7.650
 6241POPC   NC325679   3.514  32.988   9.450
 6241POPC   PO425680   3.545  33.007   9.150
 6241POPC   GL125681   3.500  33.028   8.850
 6241POPC   GL225682   3.469  33.083   8.850
 6241POPC   C1A25683   3.564  33.015   8.550
 6241POPC   D2A25684   3.584  33.069   8.250
 6241POPC   C3A25685   3.530  33.069   7.950
 6241POPC   C4A25686   3.570  33.062   7.650
 6241POPC   C1B25687   3.356  33.202   8.550
 6241POPC   C2B25688   3.395  33.244   8.250
 6241POPC   C3B25689   3.365  33.230   7.950
 6241POPC   C4B25690   3.377  33.231   7.650
 6242POPC   NC325691  42.289  13.593   9.450
 6242POPC   PO425692  42.310  13.610   9.150
 6242POPC   GL125693  42.313  13.585   8.850
 6242POPC   GL225694  42.441  13.713   8.850
 6242POPC   C1A25695  42.357  13.671   8.550
 6242POPC   D2A25696  42.316  13.578   8.250
 6242POPC   C3A25697  42.295  13.589   7.950
 6242POPC   C4A25698  42.360  13.601   7.650
 6242POPC   C1B25699  42.494  13.859   8.550
 6242POPC   C2B25700  42.540  13.825   8.250
 6242POPC   C3B25701  42.486  13.824   7.950
 6242POPC   C4B25702  42.510  13.836   7.650
 6243POPC   NC325703   8.200   3.584   9.450
 6243POPC   PO425704   8.217   3.575   9.150
 6243POPC   GL125705   8.245   3.557   8.850
 6243POPC   GL225706   8.356   3.537   8.850
 6243POPC   C1A25707   8.174   3.541   8.550
 6243POPC   D2A25708   8.241   3.530   8.250
 6243POPC   C3A25709   8.208   3.574   7.950
 6243POPC   C4A25710   8.210   3.571   7.650
 6243POPC   C1B25711   8.393   3.392   8.550
 6243POPC   C2B25712   8.411   3.454   8.250
 6243POPC   C3B25713   8.470   3.431   7.950
 6243POPC   C4B25714   8.473   3.453   7.650
 6244POPC   NC325715  11.312   3.554   9.450
 6244POPC   PO425716  11.324   3.559   9.150
 6244POPC   GL125717  11.254   3.533   8.850
 6244POPC   GL225718  11.337   3.708   8.850
 6244POPC   C1A25719  11.315   3.540   8.550
 6244POPC   D2A25720  11.302   3.528   8.250
 6244POPC   C3A25721  11.271   3.496   7.950
 6244POPC   C4A25722  11.312   3.551   7.650
 6244POPC   C1B25723  11.341   3.811   8.550
 6244POPC   C2B25724  11.427   3.809   8.250
 6244POPC   C3B25725  11.395   3.734   7.950
 6244POPC   C4B25726  11.398   3.786   7.650
 6245POPC   NC325727  42.298  19.048   9.450
 6245POPC   PO425728  42.329  19.075   9.150
 6245POPC   GL125729  42.303  19.042   8.850
 6245POPC   GL225730  42.392  18.940   8.850
 6245POPC   C1A25731  42.325  19.043   8.550
 6245POPC   D2A25732  42.365  19.072   8.250
 6245POPC   C3A25733  42.317  19.030   7.950
 6245POPC   C4A25734  42.289  19.012   7.650
 6245POPC   C1B25735  42.409  18.848   8.550
 6245POPC   C2B25736  42.422  18.796   8.250
 6245POPC   C3B25737  42.424  18.835   7.950
 6245POPC   C4B25738  42.388  18.859   7.650
 6246POPC   NC325739  13.620  26.069   9.450
 6246POPC   PO425740  13.582  26.053   9.150
 6246POPC   GL125741  13.633  26.057   8.850
 6246POPC   GL225742  13.459  26.117   8.850
 6246POPC   C1A25743  13.604  26.028   8.550
 6246POPC   D2A25744  13.662  26.008   8.250
 6246POPC   C3A25745  13.660  26.074   7.950
 6246POPC   C4A25746  13.586  26.071   7.650
 6246POPC   C1B25747  13.404  26.087   8.550
 6246POPC   C2B25748  13.412  26.129   8.250
 6246POPC   C3B25749  13.357  26.122   7.950
 6246POPC   C4B25750  13.351  26.100   7.650
 6247POPC   NC325751  21.372  15.178   9.450
 6247POPC   PO425752  21.425  15.135   9.150
 6247POPC   GL125753  21.351  15.228   8.850
 6247POPC   GL225754  21.318  15.298   8.850
 6247POPC   C1A25755  21.422  15.165   8.550
 6247POPC   D2A25756  21.394  15.150   8.250
 6247POPC   C3A25757  21.423  15.199   7.950
 6247POPC   C4A25758  21.430  15.147   7.650
 6247POPC   C1B25759  21.256  15.385   8.550
 6247POPC   C2B25760  21.281  15.422   8.250
 6247POPC   C3B25761  21.228  15.366   7.950
 6247POPC   C4B25762  21.231  15.336   7.650
 6248POPC   NC325763   5.881  12.126   9.450
 6248POPC   PO425764   5.873  12.089   9.150
 6248POPC   GL125765   5.838  12.120   8.850
 6248POPC   GL225766   5.770  12.061   8.850
 6248POPC   C1A25767   5.909  12.120   8.550
 6248POPC   D2A25768   5.833  12.101   8.250
 6248POPC   C3A25769   5.848  12.081   7.950
 6248POPC   C4A25770   5.824  12.060   7.650
 6248POPC   C1B25771   5.610  12.017   8.550
 6248POPC   C2B25772   5.604  12.031   8.250
 6248POPC   C3B25773   5.671  11.975   7.950
 6248POPC   C4B25774   5.602  11.992   7.650
 6249POPC   NC325775   6.667  14.393   9.450
 6249POPC   PO425776   6.657  14.416   9.150
 6249POPC   GL125777   6.659  14.406   8.850
 6249POPC   GL225778   6.614  14.235   8.850
 6249POPC   C1A25779   6.662  14.377   8.550
 6249POPC   D2A25780   6.599  14.432   8.250
 6249POPC   C3A25781   6.665  14.403   7.950
 6249POPC   C4A25782   6.655  14.433   7.650
 6249POPC   C1B25783   6.606  14.131   8.550
 6249POPC   C2B25784   6.620  14.192   8.250
 6249POPC   C3B25785   6.622  14.115   7.950
 6249POPC   C4B25786   6.643  14.193   7.650
 6250POPC   NC325787  32.228  12.853   9.450
 6250POPC   PO425788  32.249  12.847   9.150
 6250POPC   GL125789  32.224  12.841   8.850
 6250POPC   GL225790  32.374  12.923   8.850
 6250POPC   C1A25791  32.202  12.856   8.550
 6250POPC   D2A25792  32.280  12.894   8.250
 6250POPC   C3A25793  32.247  12.842   7.950
 6250POPC   C4A25794  32.235  12.874   7.650
 6250POPC   C1B25795  32.483  12.921   8.550
 6250POPC   C2B25796  32.436  12.973   8.250
 6250POPC   C3B25797  32.475  12.940   7.950
 6250POPC   C4B25798  32.478  12.936   7.650
 6251POPC   NC325799  42.324  41.536   9.450
 6251POPC   PO425800  42.295  41.560   9.150
 6251POPC   GL125801  42.326  41.599   8.850
 6251POPC   GL225802  42.235  41.651   8.850
 6251POPC   C1A25803  42.312  41.514   8.550
 6251POPC   D2A25804  42.364  41.526   8.250
 6251POPC   C3A25805  42.306  41.597   7.950
 6251POPC   C4A25806  42.349  41.602   7.650
 6251POPC   C1B25807  42.117  41.599   8.550
 6251POPC   C2B25808  42.098  41.614   8.250
 6251POPC   C3B25809  42.117  41.674   7.950
 6251POPC   C4B25810  42.097  41.634   7.650
 6252POPC   NC325811  42.308   2.015   9.450
 6252POPC   PO425812  42.300   2.016   9.150
 6252POPC   GL125813  42.331   2.029   8.850
 6252POPC   GL225814  42.416   1.851   8.850
 6252POPC   C1A25815  42.287   2.020   8.550
 6252POPC   D2A25816  42.325   2.026   8.250
 6252POPC   C3A25817  42.371   1.979   7.950
 6252POPC   C4A25818  42.300   2.031   7.650
 6252POPC   C1B25819  42.466   1.816   8.550
 6252POPC   C2B25820  42.415   1.771   8.250
 6252POPC   C3B25821  42.499   1.798   7.950
 6252POPC   C4B25822  42.497   1.804   7.650
 6253POPC   NC325823  43.851  18.325   9.450
 6253POPC   PO425824  43.932  18.258   9.150
 6253POPC   GL125825  43.876  18.304   8.850
 6253POPC   GL225826  44.047  18.342   8.850
 6253POPC   C1A25827  43.936  18.294   8.550
 6253POPC   D2A25828  43.922  18.248   8.250
 6253POPC   C3A25829  43.897  18.303   7.950
 6253POPC   C4A25830  43.846  18.254   7.650
 6253POPC   C1B25831  44.152  18.318   8.550
 6253POPC   C2B25832  44.137  18.266   8.250
 6253POPC   C3B25833  44.163  18.311   7.950
 6253POPC   C4B25834  44.102  18.266   7.650
 6254POPC   NC325835  39.193  19.022   9.450
 6254POPC   PO425836  39.241  19.083   9.150
 6254POPC   GL125837  39.217  19.018   8.850
 6254POPC   GL225838  39.363  19.076   8.850
 6254POPC   C1A25839  39.279  19.031   8.550
 6254POPC   D2A25840  39.192  19.107   8.250
 6254POPC   C3A25841  39.252  19.035   7.950
 6254POPC   C4A25842  39.244  19.092   7.650
 6254POPC   C1B25843  39.477  19.030   8.550
 6254POPC   C2B25844  39.498  19.083   8.250
 6254POPC   C3B25845  39.438  18.998   7.950
 6254POPC   C4B25846  39.437  19.022   7.650
 6255POPC   NC325847   1.228  20.611   9.450
 6255POPC   PO425848   1.209  20.625   9.150
 6255POPC   GL125849   1.212  20.594   8.850
 6255POPC   GL225850   1.282  20.678   8.850
 6255POPC   C1A25851   1.241  20.571   8.550
 6255POPC   D2A25852   1.203  20.615   8.250
 6255POPC   C3A25853   1.207  20.579   7.950
 6255POPC   C4A25854   1.207  20.660   7.650
 6255POPC   C1B25855   1.373  20.769   8.550
 6255POPC   C2B25856   1.420  20.824   8.250
 6255POPC   C3B25857   1.356  20.823   7.950
 6255POPC   C4B25858   1.352  20.809   7.650
 6256POPC   NC325859  36.931  40.831   9.450
 6256POPC   PO425860  36.869  40.830   9.150
 6256POPC   GL125861  36.868  40.742   8.850
 6256POPC   GL225862  36.884  40.684   8.850
 6256POPC   C1A25863  36.953  40.804   8.550
 6256POPC   D2A25864  36.877  40.809   8.250
 6256POPC   C3A25865  36.916  40.810   7.950
 6256POPC   C4A25866  36.908  40.754   7.650
 6256POPC   C1B25867  36.774  40.596   8.550
 6256POPC   C2B25868  36.831  40.517   8.250
 6256POPC   C3B25869  36.764  40.553   7.950
 6256POPC   C4B25870  36.765  40.574   7.650
 6257POPC   NC325871  37.655  14.401   9.450
 6257POPC   PO425872  37.677  14.439   9.150
 6257POPC   GL125873  37.680  14.412   8.850
 6257POPC   GL225874  37.713  14.278   8.850
 6257POPC   C1A25875  37.689  14.363   8.550
 6257POPC   D2A25876  37.724  14.443   8.250
 6257POPC   C3A25877  37.669  14.370   7.950
 6257POPC   C4A25878  37.692  14.434   7.650
 6257POPC   C1B25879  37.653  14.154   8.550
 6257POPC   C2B25880  37.671  14.107   8.250
 6257POPC   C3B25881  37.729  14.162   7.950
 6257POPC   C4B25882  37.671  14.173   7.650
 6258POPC   NC325883  22.149  30.651   9.450
 6258POPC   PO425884  22.139  30.739   9.150
 6258POPC   GL125885  22.146  30.662   8.850
 6258POPC   GL225886  22.262  30.587   8.850
 6258POPC   C1A25887  22.118  30.729   8.550
 6258POPC   D2A25888  22.120  30.714   8.250
 6258POPC   C3A25889  22.148  30.677   7.950
 6258POPC   C4A25890  22.121  30.733   7.650
 6258POPC   C1B25891  22.304  30.504   8.550
 6258POPC   C2B25892  22.237  30.457   8.250
 6258POPC   C3B25893  22.302  30.493   7.950
 6258POPC   C4B25894  22.303  30.506   7.650
 6259POPC   NC325895  43.155  14.424   9.450
 6259POPC   PO425896  43.066  14.429   9.150
 6259POPC   GL125897  43.123  14.435   8.850
 6259POPC   GL225898  43.157  14.284   8.850
 6259POPC   C1A25899  43.153  14.429   8.550
 6259POPC   D2A25900  43.123  14.447   8.250
 6259POPC   C3A25901  43.126  14.436   7.950
 6259POPC   C4A25902  43.103  14.366   7.650
 6259POPC   C1B25903  43.064  14.104   8.550
 6259POPC   C2B25904  43.153  14.168   8.250
 6259POPC   C3B25905  43.144  14.127   7.950
 6259POPC   C4B25906  43.094  14.144   7.650
 6260POPC   NC325907  12.083  28.364   9.450
 6260POPC   PO425908  12.066  28.397   9.150
 6260POPC   GL125909  12.107  28.394   8.850
 6260POPC   GL225910  12.134  28.465   8.850
 6260POPC   C1A25911  12.103  28.343   8.550
 6260POPC   D2A25912  12.032  28.355   8.250
 6260POPC   C3A25913  12.102  28.367   7.950
 6260POPC   C4A25914  12.118  28.372   7.650
 6260POPC   C1B25915  12.173  28.619   8.550
 6260POPC   C2B25916  12.210  28.545   8.250
 6260POPC   C3B25917  12.254  28.602   7.950
 6260POPC   C4B25918  12.223  28.569   7.650
 6261POPC   NC325919  33.057  33.812   9.450
 6261POPC   PO425920  33.033  33.811   9.150
 6261POPC   GL125921  33.004  33.834   8.850
 6261POPC   GL225922  33.027  33.911   8.850
 6261POPC   C1A25923  33.029  33.764   8.550
 6261POPC   D2A25924  33.060  33.843   8.250
 6261POPC   C3A25925  33.040  33.846   7.950
 6261POPC   C4A25926  33.066  33.785   7.650
 6261POPC   C1B25927  32.967  34.017   8.550
 6261POPC   C2B25928  32.978  34.042   8.250
 6261POPC   C3B25929  32.961  33.990   7.950
 6261POPC   C4B25930  32.924  34.014   7.650
 6262POPC   NC325931  40.784  26.079   9.450
 6262POPC   PO425932  40.828  26.090   9.150
 6262POPC   GL125933  40.742  26.028   8.850
 6262POPC   GL225934  40.884  26.022   8.850
 6262POPC   C1A25935  40.754  26.026   8.550
 6262POPC   D2A25936  40.795  26.056   8.250
 6262POPC   C3A25937  40.813  26.050   7.950
 6262POPC   C4A25938  40.745  26.057   7.650
 6262POPC   C1B25939  40.970  25.946   8.550
 6262POPC   C2B25940  40.951  25.942   8.250
 6262POPC   C3B25941  41.030  25.952   7.950
 6262POPC   C4B25942  41.007  25.884   7.650
 6263POPC   NC325943  19.828  22.936   9.450
 6263POPC   PO425944  19.825  22.888   9.150
 6263POPC   GL125945  19.810  22.915   8.850
 6263POPC   GL225946  19.746  22.950   8.850
 6263POPC   C1A25947  19.803  22.902   8.550
 6263POPC   D2A25948  19.843  22.893   8.250
 6263POPC   C3A25949  19.875  22.947   7.950
 6263POPC   C4A25950  19.786  22.907   7.650
 6263POPC   C1B25951  19.594  22.876   8.550
 6263POPC   C2B25952  19.586  22.906   8.250
 6263POPC   C3B25953  19.551  22.900   7.950
 6263POPC   C4B25954  19.568  22.854   7.650
 6264POPC   NC325955  10.507  34.573   9.450
 6264POPC   PO425956  10.557  34.621   9.150
 6264POPC   GL125957  10.553  34.556   8.850
 6264POPC   GL225958  10.498  34.495   8.850
 6264POPC   C1A25959  10.513  34.578   8.550
 6264POPC   D2A25960  10.486  34.549   8.250
 6264POPC   C3A25961  10.525  34.552   7.950
 6264POPC   C4A25962  10.503  34.529   7.650
 6264POPC   C1B25963  10.532  34.351   8.550
 6264POPC   C2B25964  10.530  34.299   8.250
 6264POPC   C3B25965  10.519  34.339   7.950
 6264POPC   C4B25966  10.542  34.363   7.650
 6265POPC   NC325967   5.844   3.565   9.450
 6265POPC   PO425968   5.830   3.581   9.150
 6265POPC   GL125969   5.874   3.562   8.850
 6265POPC   GL225970   5.805   3.527   8.850
 6265POPC   C1A25971   5.908   3.575   8.550
 6265POPC   D2A25972   5.860   3.531   8.250
 6265POPC   C3A25973   5.910   3.543   7.950
 6265POPC   C4A25974   5.820   3.551   7.650
 6265POPC   C1B25975   5.670   3.368   8.550
 6265POPC   C2B25976   5.650   3.437   8.250
 6265POPC   C3B25977   5.677   3.464   7.950
 6265POPC   C4B25978   5.690   3.437   7.650
 6266POPC   NC325979   2.731  21.396   9.450
 6266POPC   PO425980   2.779  21.345   9.150
 6266POPC   GL125981   2.786  21.415   8.850
 6266POPC   GL225982   2.814  21.304   8.850
 6266POPC   C1A25983   2.733  21.361   8.550
 6266POPC   D2A25984   2.746  21.385   8.250
 6266POPC   C3A25985   2.808  21.358   7.950
 6266POPC   C4A25986   2.797  21.391   7.650
 6266POPC   C1B25987   2.891  21.167   8.550
 6266POPC   C2B25988   2.891  21.152   8.250
 6266POPC   C3B25989   2.939  21.189   7.950
 6266POPC   C4B25990   2.933  21.188   7.650
 6267POPC   NC325991  34.571   0.425   9.450
 6267POPC   PO425992  34.608   0.394   9.150
 6267POPC   GL125993  34.550   0.476   8.850
 6267POPC   GL225994  34.437   0.426   8.850
 6267POPC   C1A25995  34.571   0.391   8.550
 6267POPC   D2A25996  34.580   0.403   8.250
 6267POPC   C3A25997  34.597   0.470   7.950
 6267POPC   C4A25998  34.557   0.406   7.650
 6267POPC   C1B25999  34.366   0.405   8.550
 6267POPC   C2B26000  34.362   0.479   8.250
 6267POPC   C3B26001  34.295   0.423   7.950
 6267POPC   C4B26002  34.365   0.484   7.650
 6268POPC   NC326003   1.944   8.238   9.450
 6268POPC   PO426004   1.983   8.179   9.150
 6268POPC   GL126005   1.964   8.211   8.850
 6268POPC   GL226006   2.049   8.138   8.850
 6268POPC   C1A26007   2.007   8.234   8.550
 6268POPC   D2A26008   2.016   8.170   8.250
 6268POPC   C3A26009   1.976   8.170   7.950
 6268POPC   C4A26010   2.007   8.150   7.650
 6268POPC   C1B26011   2.186   8.002   8.550
 6268POPC   C2B26012   2.164   8.097   8.250
 6268POPC   C3B26013   2.172   8.052   7.950
 6268POPC   C4B26014   2.237   8.050   7.650
 6269POPC   NC326015  19.831  19.017   9.450
 6269POPC   PO426016  19.814  19.085   9.150
 6269POPC   GL126017  19.835  19.066   8.850
 6269POPC   GL226018  19.738  18.966   8.850
 6269POPC   C1A26019  19.797  19.082   8.550
 6269POPC   D2A26020  19.830  19.012   8.250
 6269POPC   C3A26021  19.792  19.093   7.950
 6269POPC   C4A26022  19.832  19.056   7.650
 6269POPC   C1B26023  19.640  18.957   8.550
 6269POPC   C2B26024  19.653  18.938   8.250
 6269POPC   C3B26025  19.633  18.931   7.950
 6269POPC   C4B26026  19.591  18.939   7.650
 6270POPC   NC326027  43.854  38.466   9.450
 6270POPC   PO426028  43.846  38.450   9.150
 6270POPC   GL126029  43.838  38.408   8.850
 6270POPC   GL226030  43.942  38.598   8.850
 6270POPC   C1A26031  43.897  38.418   8.550
 6270POPC   D2A26032  43.878  38.463   8.250
 6270POPC   C3A26033  43.903  38.494   7.950
 6270POPC   C4A26034  43.914  38.421   7.650
 6270POPC   C1B26035  43.943  38.705   8.550
 6270POPC   C2B26036  43.999  38.650   8.250
 6270POPC   C3B26037  43.960  38.709   7.950
 6270POPC   C4B26038  44.003  38.693   7.650
 6271POPC   NC326039  22.124  16.766   9.450
 6271POPC   PO426040  22.168  16.751   9.150
 6271POPC   GL126041  22.172  16.748   8.850
 6271POPC   GL226042  22.055  16.763   8.850
 6271POPC   C1A26043  22.188  16.684   8.550
 6271POPC   D2A26044  22.200  16.735   8.250
 6271POPC   C3A26045  22.196  16.752   7.950
 6271POPC   C4A26046  22.196  16.697   7.650
 6271POPC   C1B26047  21.973  16.860   8.550
 6271POPC   C2B26048  21.978  16.901   8.250
 6271POPC   C3B26049  21.995  16.920   7.950
 6271POPC   C4B26050  21.991  16.894   7.650
 6272POPC   NC326051  15.163  33.806   9.450
 6272POPC   PO426052  15.200  33.753   9.150
 6272POPC   GL126053  15.218  33.824   8.850
 6272POPC   GL226054  15.275  33.781   8.850
 6272POPC   C1A26055  15.223  33.828   8.550
 6272POPC   D2A26056  15.199  33.760   8.250
 6272POPC   C3A26057  15.198  33.778   7.950
 6272POPC   C4A26058  15.219  33.844   7.650
 6272POPC   C1B26059  15.396  33.725   8.550
 6272POPC   C2B26060  15.380  33.729   8.250
 6272POPC   C3B26061  15.406  33.718   7.950
 6272POPC   C4B26062  15.426  33.731   7.650
 6273POPC   NC326063   9.733  41.541   9.450
 6273POPC   PO426064   9.788  41.569   9.150
 6273POPC   GL126065   9.724  41.594   8.850
 6273POPC   GL226066   9.915  41.559   8.850
 6273POPC   C1A26067   9.738  41.592   8.550
 6273POPC   D2A26068   9.729  41.527   8.250
 6273POPC   C3A26069   9.715  41.606   7.950
 6273POPC   C4A26070   9.798  41.582   7.650
 6273POPC   C1B26071  10.029  41.641   8.550
 6273POPC   C2B26072  10.005  41.585   8.250
 6273POPC   C3B26073   9.997  41.594   7.950
 6273POPC   C4B26074  10.032  41.609   7.650
 6274POPC   NC326075  36.905  36.952   9.450
 6274POPC   PO426076  36.889  36.864   9.150
 6274POPC   GL126077  36.873  36.905   8.850
 6274POPC   GL226078  36.754  36.904   8.850
 6274POPC   C1A26079  36.863  36.874   8.550
 6274POPC   D2A26080  36.879  36.885   8.250
 6274POPC   C3A26081  36.928  36.864   7.950
 6274POPC   C4A26082  36.935  36.854   7.650
 6274POPC   C1B26083  36.647  36.860   8.550
 6274POPC   C2B26084  36.689  36.834   8.250
 6274POPC   C3B26085  36.632  36.780   7.950
 6274POPC   C4B26086  36.629  36.847   7.650
 6275POPC   NC326087  41.593   5.892   9.450
 6275POPC   PO426088  41.592   5.905   9.150
 6275POPC   GL126089  41.558   5.871   8.850
 6275POPC   GL226090  41.440   5.804   8.850
 6275POPC   C1A26091  41.583   5.854   8.550
 6275POPC   D2A26092  41.525   5.826   8.250
 6275POPC   C3A26093  41.533   5.908   7.950
 6275POPC   C4A26094  41.573   5.825   7.650
 6275POPC   C1B26095  41.325   5.777   8.550
 6275POPC   C2B26096  41.310   5.815   8.250
 6275POPC   C3B26097  41.321   5.780   7.950
 6275POPC   C4B26098  41.341   5.845   7.650
 6276POPC   NC326099  43.089   1.960   9.450
 6276POPC   PO426100  43.100   1.976   9.150
 6276POPC   GL126101  43.071   2.023   8.850
 6276POPC   GL226102  43.102   2.072   8.850
 6276POPC   C1A26103  43.125   2.031   8.550
 6276POPC   D2A26104  43.095   2.037   8.250
 6276POPC   C3A26105  43.093   2.017   7.950
 6276POPC   C4A26106  43.075   1.942   7.650
 6276POPC   C1B26107  43.126   2.194   8.550
 6276POPC   C2B26108  43.200   2.201   8.250
 6276POPC   C3B26109  43.221   2.233   7.950
 6276POPC   C4B26110  43.169   2.196   7.650
 6277POPC   NC326111   2.790  30.675   9.450
 6277POPC   PO426112   2.770  30.743   9.150
 6277POPC   GL126113   2.719  30.716   8.850
 6277POPC   GL226114   2.714  30.776   8.850
 6277POPC   C1A26115   2.809  30.723   8.550
 6277POPC   D2A26116   2.807  30.737   8.250
 6277POPC   C3A26117   2.780  30.736   7.950
 6277POPC   C4A26118   2.737  30.703   7.650
 6277POPC   C1B26119   2.683  30.953   8.550
 6277POPC   C2B26120   2.677  30.952   8.250
 6277POPC   C3B26121   2.718  30.971   7.950
 6277POPC   C4B26122   2.713  30.913   7.650
 6278POPC   NC326123   9.731  24.497   9.450
 6278POPC   PO426124   9.784  24.461   9.150
 6278POPC   GL126125   9.700  24.461   8.850
 6278POPC   GL226126   9.688  24.648   8.850
 6278POPC   C1A26127   9.758  24.447   8.550
 6278POPC   D2A26128   9.706  24.452   8.250
 6278POPC   C3A26129   9.708  24.534   7.950
 6278POPC   C4A26130   9.708  24.469   7.650
 6278POPC   C1B26131   9.714  24.765   8.550
 6278POPC   C2B26132   9.669  24.725   8.250
 6278POPC   C3B26133   9.703  24.760   7.950
 6278POPC   C4B26134   9.716  24.697   7.650
 6279POPC   NC326135  42.354   4.356   9.450
 6279POPC   PO426136  42.381   4.314   9.150
 6279POPC   GL126137  42.318   4.327   8.850
 6279POPC   GL226138  42.197   4.345   8.850
 6279POPC   C1A26139  42.337   4.304   8.550
 6279POPC   D2A26140  42.285   4.354   8.250
 6279POPC   C3A26141  42.287   4.285   7.950
 6279POPC   C4A26142  42.350   4.274   7.650
 6279POPC   C1B26143  42.132   4.498   8.550
 6279POPC   C2B26144  42.153   4.415   8.250
 6279POPC   C3B26145  42.142   4.415   7.950
 6279POPC   C4B26146  42.117   4.422   7.650
 6280POPC   NC326147  44.614  33.030   9.450
 6280POPC   PO426148  44.624  33.060   9.150
 6280POPC   GL126149  44.613  33.071   8.850
 6280POPC   GL226150  44.814  33.126   8.850
 6280POPC   C1A26151  44.694  33.062   8.550
 6280POPC   D2A26152  44.685  32.977   8.250
 6280POPC   C3A26153  44.691  33.054   7.950
 6280POPC   C4A26154  44.707  32.976   7.650
 6280POPC   C1B26155  44.883  33.180   8.550
 6280POPC   C2B26156  44.863  33.152   8.250
 6280POPC   C3B26157  44.893  33.173   7.950
 6280POPC   C4B26158  44.921  33.140   7.650
 6281POPC   NC326159  22.971   4.270   9.450
 6281POPC   PO426160  22.926   4.316   9.150
 6281POPC   GL126161  22.961   4.338   8.850
 6281POPC   GL226162  23.028   4.332   8.850
 6281POPC   C1A26163  22.978   4.280   8.550
 6281POPC   D2A26164  22.986   4.330   8.250
 6281POPC   C3A26165  22.897   4.341   7.950
 6281POPC   C4A26166  22.947   4.314   7.650
 6281POPC   C1B26167  23.147   4.368   8.550
 6281POPC   C2B26168  23.224   4.417   8.250
 6281POPC   C3B26169  23.149   4.429   7.950
 6281POPC   C4B26170  23.211   4.360   7.650
 6282POPC   NC326171  40.786  33.832   9.450
 6282POPC   PO426172  40.758  33.843   9.150
 6282POPC   GL126173  40.800  33.811   8.850
 6282POPC   GL226174  40.826  33.704   8.850
 6282POPC   C1A26175  40.824  33.808   8.550
 6282POPC   D2A26176  40.796  33.798   8.250
 6282POPC   C3A26177  40.779  33.755   7.950
 6282POPC   C4A26178  40.824  33.786   7.650
 6282POPC   C1B26179  40.742  33.554   8.550
 6282POPC   C2B26180  40.773  33.537   8.250
 6282POPC   C3B26181  40.814  33.576   7.950
 6282POPC   C4B26182  40.818  33.563   7.650
 6283POPC   NC326183  15.169  37.725   9.450
 6283POPC   PO426184  15.146  37.681   9.150
 6283POPC   GL126185  15.141  37.673   8.850
 6283POPC   GL226186  15.091  37.589   8.850
 6283POPC   C1A26187  15.163  37.637   8.550
 6283POPC   D2A26188  15.205  37.724   8.250
 6283POPC   C3A26189  15.141  37.699   7.950
 6283POPC   C4A26190  15.160  37.698   7.650
 6283POPC   C1B26191  15.103  37.494   8.550
 6283POPC   C2B26192  15.105  37.489   8.250
 6283POPC   C3B26193  15.086  37.458   7.950
 6283POPC   C4B26194  15.031  37.434   7.650
 6284POPC   NC326195  16.733  40.796   9.450
 6284POPC   PO426196  16.727  40.802   9.150
 6284POPC   GL126197  16.756  40.745   8.850
 6284POPC   GL226198  16.656  40.753   8.850
 6284POPC   C1A26199  16.764  40.756   8.550
 6284POPC   D2A26200  16.765  40.795   8.250
 6284POPC   C3A26201  16.764  40.800   7.950
 6284POPC   C4A26202  16.689  40.734   7.650
 6284POPC   C1B26203  16.545  40.617   8.550
 6284POPC   C2B26204  16.535  40.575   8.250
 6284POPC   C3B26205  16.488  40.633   7.950
 6284POPC   C4B26206  16.558  40.613   7.650
 6285POPC   NC326207  18.238  43.096   9.450
 6285POPC   PO426208  18.311  43.079   9.150
 6285POPC   GL126209  18.284  43.068   8.850
 6285POPC   GL226210  18.292  43.207   8.850
 6285POPC   C1A26211  18.324  43.109   8.550
 6285POPC   D2A26212  18.306  43.081   8.250
 6285POPC   C3A26213  18.245  43.092   7.950
 6285POPC   C4A26214  18.325  43.111   7.650
 6285POPC   C1B26215  18.357  43.312   8.550
 6285POPC   C2B26216  18.347  43.352   8.250
 6285POPC   C3B26217  18.376  43.346   7.950
 6285POPC   C4B26218  18.413  43.356   7.650
 6286POPC   NC326219  20.572  10.539   9.450
 6286POPC   PO426220  20.575  10.475   9.150
 6286POPC   GL126221  20.641  10.545   8.850
 6286POPC   GL226222  20.616  10.447   8.850
 6286POPC   C1A26223  20.565  10.476   8.550
 6286POPC   D2A26224  20.562  10.480   8.250
 6286POPC   C3A26225  20.618  10.515   7.950
 6286POPC   C4A26226  20.641  10.543   7.650
 6286POPC   C1B26227  20.563  10.299   8.550
 6286POPC   C2B26228  20.545  10.240   8.250
 6286POPC   C3B26229  20.577  10.253   7.950
 6286POPC   C4B26230  20.551  10.239   7.650
 6287POPC   NC326231  36.095  27.572   9.450
 6287POPC   PO426232  36.165  27.619   9.150
 6287POPC   GL126233  36.097  27.619   8.850
 6287POPC   GL226234  36.252  27.624   8.850
 6287POPC   C1A26235  36.136  27.573   8.550
 6287POPC   D2A26236  36.096  27.622   8.250
 6287POPC   C3A26237  36.121  27.566   7.950
 6287POPC   C4A26238  36.090  27.564   7.650
 6287POPC   C1B26239  36.406  27.628   8.550
 6287POPC   C2B26240  36.413  27.590   8.250
 6287POPC   C3B26241  36.338  27.596   7.950
 6287POPC   C4B26242  36.404  27.600   7.650
 6288POPC   NC326243  25.254  35.317   9.450
 6288POPC   PO426244  25.300  35.386   9.150
 6288POPC   GL126245  25.280  35.387   8.850
 6288POPC   GL226246  25.318  35.502   8.850
 6288POPC   C1A26247  25.237  35.400   8.550
 6288POPC   D2A26248  25.278  35.317   8.250
 6288POPC   C3A26249  25.265  35.366   7.950
 6288POPC   C4A26250  25.284  35.309   7.650
 6288POPC   C1B26251  25.364  35.524   8.550
 6288POPC   C2B26252  25.403  35.555   8.250
 6288POPC   C3B26253  25.444  35.585   7.950
 6288POPC   C4B26254  25.463  35.511   7.650
 6289POPC   NC326255  33.004  43.891   9.450
 6289POPC   PO426256  33.061  43.870   9.150
 6289POPC   GL126257  33.052  43.873   8.850
 6289POPC   GL226258  32.971  43.834   8.850
 6289POPC   C1A26259  32.986  43.895   8.550
 6289POPC   D2A26260  33.028  43.841   8.250
 6289POPC   C3A26261  33.025  43.934   7.950
 6289POPC   C4A26262  32.989  43.843   7.650
 6289POPC   C1B26263  32.807  43.776   8.550
 6289POPC   C2B26264  32.780  43.758   8.250
 6289POPC   C3B26265  32.777  43.773   7.950
 6289POPC   C4B26266  32.833  43.701   7.650
 6290POPC   NC326267  32.976  36.149   9.450
 6290POPC   PO426268  33.073  36.107   9.150
 6290POPC   GL126269  33.000  36.122   8.850
 6290POPC   GL226270  33.012  36.021   8.850
 6290POPC   C1A26271  33.052  36.080   8.550
 6290POPC   D2A26272  33.028  36.123   8.250
 6290POPC   C3A26273  33.036  36.119   7.950
 6290POPC   C4A26274  33.022  36.134   7.650
 6290POPC   C1B26275  32.959  35.883   8.550
 6290POPC   C2B26276  32.955  35.862   8.250
 6290POPC   C3B26277  32.964  35.847   7.950
 6290POPC   C4B26278  32.980  35.850   7.650
 6291POPC   NC326279   8.194  36.903   9.450
 6291POPC   PO426280   8.175  36.941   9.150
 6291POPC   GL126281   8.224  36.859   8.850
 6291POPC   GL226282   8.314  36.785   8.850
 6291POPC   C1A26283   8.190  36.889   8.550
 6291POPC   D2A26284   8.178  36.882   8.250
 6291POPC   C3A26285   8.221  36.857   7.950
 6291POPC   C4A26286   8.211  36.932   7.650
 6291POPC   C1B26287   8.445  36.721   8.550
 6291POPC   C2B26288   8.408  36.719   8.250
 6291POPC   C3B26289   8.396  36.756   7.950
 6291POPC   C4B26290   8.373  36.759   7.650
 6292POPC   NC326291   0.476  15.177   9.450
 6292POPC   PO426292   0.445  15.194   9.150
 6292POPC   GL126293   0.479  15.180   8.850
 6292POPC   GL226294   0.345  15.107   8.850
 6292POPC   C1A26295   0.428  15.148   8.550
 6292POPC   D2A26296   0.415  15.202   8.250
 6292POPC   C3A26297   0.391  15.221   7.950
 6292POPC   C4A26298   0.391  15.191   7.650
 6292POPC   C1B26299   0.318  14.959   8.550
 6292POPC   C2B26300   0.317  14.942   8.250
 6292POPC   C3B26301   0.349  14.900   7.950
 6292POPC   C4B26302   0.325  14.904   7.650
 6293POPC   NC326303   6.623  26.815   9.450
 6293POPC   PO426304   6.628  26.803   9.150
 6293POPC   GL126305   6.671  26.844   8.850
 6293POPC   GL226306   6.544  26.907   8.850
 6293POPC   C1A26307   6.602  26.854   8.550
 6293POPC   D2A26308   6.618  26.829   8.250
 6293POPC   C3A26309   6.639  26.776   7.950
 6293POPC   C4A26310   6.676  26.774   7.650
 6293POPC   C1B26311   6.563  26.992   8.550
 6293POPC   C2B26312   6.469  27.072   8.250
 6293POPC   C3B26313   6.494  27.061   7.950
 6293POPC   C4B26314   6.471  27.049   7.650
 6294POPC   NC326315  22.147   9.705   9.450
 6294POPC   PO426316  22.191   9.754   9.150
 6294POPC   GL126317  22.166   9.706   8.850
 6294POPC   GL226318  22.086   9.657   8.850
 6294POPC   C1A26319  22.211   9.717   8.550
 6294POPC   D2A26320  22.209   9.752   8.250
 6294POPC   C3A26321  22.137   9.753   7.950
 6294POPC   C4A26322  22.119   9.774   7.650
 6294POPC   C1B26323  22.051   9.469   8.550
 6294POPC   C2B26324  22.039   9.478   8.250
 6294POPC   C3B26325  22.056   9.527   7.950
 6294POPC   C4B26326  22.119   9.530   7.650
 6295POPC   NC326327  16.687  29.911   9.450
 6295POPC   PO426328  16.767  29.949   9.150
 6295POPC   GL126329  16.702  29.905   8.850
 6295POPC   GL226330  16.567  29.838   8.850
 6295POPC   C1A26331  16.729  29.949   8.550
 6295POPC   D2A26332  16.691  29.874   8.250
 6295POPC   C3A26333  16.696  29.925   7.950
 6295POPC   C4A26334  16.686  29.889   7.650
 6295POPC   C1B26335  16.519  29.849   8.550
 6295POPC   C2B26336  16.488  29.809   8.250
 6295POPC   C3B26337  16.495  29.825   7.950
 6295POPC   C4B26338  16.506  29.869   7.650
 6296POPC   NC326339  36.111  32.983   9.450
 6296POPC   PO426340  36.145  32.999   9.150
 6296POPC   GL126341  36.125  32.989   8.850
 6296POPC   GL226342  36.080  33.149   8.850
 6296POPC   C1A26343  36.134  33.058   8.550
 6296POPC   D2A26344  36.113  32.992   8.250
 6296POPC   C3A26345  36.146  33.037   7.950
 6296POPC   C4A26346  36.134  32.991   7.650
 6296POPC   C1B26347  35.938  33.252   8.550
 6296POPC   C2B26348  35.971  33.165   8.250
 6296POPC   C3B26349  35.952  33.172   7.950
 6296POPC   C4B26350  35.929  33.183   7.650
 6297POPC   NC326351  39.220  25.274   9.450
 6297POPC   PO426352  39.263  25.249   9.150
 6297POPC   GL126353  39.276  25.245   8.850
 6297POPC   GL226354  39.105  25.236   8.850
 6297POPC   C1A26355  39.233  25.313   8.550
 6297POPC   D2A26356  39.258  25.217   8.250
 6297POPC   C3A26357  39.185  25.276   7.950
 6297POPC   C4A26358  39.278  25.249   7.650
 6297POPC   C1B26359  38.952  25.288   8.550
 6297POPC   C2B26360  38.936  25.234   8.250
 6297POPC   C3B26361  38.961  25.262   7.950
 6297POPC   C4B26362  38.981  25.310   7.650
 6298POPC   NC326363  32.227   8.243   9.450
 6298POPC   PO426364  32.244   8.219   9.150
 6298POPC   GL126365  32.237   8.197   8.850
 6298POPC   GL226366  32.262   8.098   8.850
 6298POPC   C1A26367  32.284   8.233   8.550
 6298POPC   D2A26368  32.211   8.148   8.250
 6298POPC   C3A26369  32.266   8.197   7.950
 6298POPC   C4A26370  32.232   8.154   7.650
 6298POPC   C1B26371  32.302   7.993   8.550
 6298POPC   C2B26372  32.336   7.992   8.250
 6298POPC   C3B26373  32.354   7.941   7.950
 6298POPC   C4B26374  32.282   7.978   7.650
 6299POPC   NC326375  41.557  32.977   9.450
 6299POPC   PO426376  41.565  33.070   9.150
 6299POPC   GL126377  41.524  33.023   8.850
 6299POPC   GL226378  41.661  33.115   8.850
 6299POPC   C1A26379  41.573  32.977   8.550
 6299POPC   D2A26380  41.510  33.016   8.250
 6299POPC   C3A26381  41.538  33.038   7.950
 6299POPC   C4A26382  41.550  33.013   7.650
 6299POPC   C1B26383  41.716  33.230   8.550
 6299POPC   C2B26384  41.652  33.205   8.250
 6299POPC   C3B26385  41.680  33.273   7.950
 6299POPC   C4B26386  41.681  33.193   7.650
 6300POPC   NC326387  21.401  43.894   9.450
 6300POPC   PO426388  21.342  43.888   9.150
 6300POPC   GL126389  21.405  43.850   8.850
 6300POPC   GL226390  21.496  43.871   8.850
 6300POPC   C1A26391  21.376  43.893   8.550
 6300POPC   D2A26392  21.381  43.859   8.250
 6300POPC   C3A26393  21.342  43.837   7.950
 6300POPC   C4A26394  21.349  43.842   7.650
 6300POPC   C1B26395  21.617  43.930   8.550
 6300POPC   C2B26396  21.653  43.925   8.250
 6300POPC   C3B26397  21.648  43.921   7.950
 6300POPC   C4B26398  21.670  43.938   7.650
 6301POPC   NC326399  41.572  22.170   9.450
 6301POPC   PO426400  41.580  22.186   9.150
 6301POPC   GL126401  41.514  22.174   8.850
 6301POPC   GL226402  41.463  22.201   8.850
 6301POPC   C1A26403  41.592  22.157   8.550
 6301POPC   D2A26404  41.531  22.202   8.250
 6301POPC   C3A26405  41.518  22.190   7.950
 6301POPC   C4A26406  41.590  22.138   7.650
 6301POPC   C1B26407  41.317  22.253   8.550
 6301POPC   C2B26408  41.279  22.235   8.250
 6301POPC   C3B26409  41.282  22.239   7.950
 6301POPC   C4B26410  41.347  22.223   7.650
 6302POPC   NC326411   5.089  32.251   9.450
 6302POPC   PO426412   5.052  32.257   9.150
 6302POPC   GL126413   5.072  32.205   8.850
 6302POPC   GL226414   5.137  32.120   8.850
 6302POPC   C1A26415   5.133  32.282   8.550
 6302POPC   D2A26416   5.081  32.238   8.250
 6302POPC   C3A26417   5.135  32.254   7.950
 6302POPC   C4A26418   5.043  32.248   7.650
 6302POPC   C1B26419   5.205  31.999   8.550
 6302POPC   C2B26420   5.138  32.010   8.250
 6302POPC   C3B26421   5.235  31.967   7.950
 6302POPC   C4B26422   5.214  32.048   7.650
 6303POPC   NC326423  35.385  34.537   9.450
 6303POPC   PO426424  35.395  34.538   9.150
 6303POPC   GL126425  35.341  34.593   8.850
 6303POPC   GL226426  35.280  34.405   8.850
 6303POPC   C1A26427  35.344  34.553   8.550
 6303POPC   D2A26428  35.366  34.608   8.250
 6303POPC   C3A26429  35.305  34.598   7.950
 6303POPC   C4A26430  35.325  34.535   7.650
 6303POPC   C1B26431  35.328  34.381   8.550
 6303POPC   C2B26432  35.313  34.337   8.250
 6303POPC   C3B26433  35.282  34.341   7.950
 6303POPC   C4B26434  35.287  34.337   7.650
 6304POPC   NC326435   2.778  26.017   9.450
 6304POPC   PO426436   2.781  26.073   9.150
 6304POPC   GL126437   2.743  26.091   8.850
 6304POPC   GL226438   2.672  26.148   8.850
 6304POPC   C1A26439   2.756  26.037   8.550
 6304POPC   D2A26440   2.776  26.064   8.250
 6304POPC   C3A26441   2.749  26.028   7.950
 6304POPC   C4A26442   2.729  26.070   7.650
 6304POPC   C1B26443   2.646  26.200   8.550
 6304POPC   C2B26444   2.657  26.260   8.250
 6304POPC   C3B26445   2.615  26.240   7.950
 6304POPC   C4B26446   2.588  26.262   7.650
 6305POPC   NC326447  41.524  41.553   9.450
 6305POPC   PO426448  41.535  41.549   9.150
 6305POPC   GL126449  41.588  41.520   8.850
 6305POPC   GL226450  41.695  41.552   8.850
 6305POPC   C1A26451  41.572  41.515   8.550
 6305POPC   D2A26452  41.522  41.595   8.250
 6305POPC   C3A26453  41.584  41.558   7.950
 6305POPC   C4A26454  41.605  41.573   7.650
 6305POPC   C1B26455  41.794  41.674   8.550
 6305POPC   C2B26456  41.797  41.686   8.250
 6305POPC   C3B26457  41.808  41.619   7.950
 6305POPC   C4B26458  41.830  41.646   7.650
 6306POPC   NC326459  10.529  22.160   9.450
 6306POPC   PO426460  10.505  22.179   9.150
 6306POPC   GL126461  10.484  22.165   8.850
 6306POPC   GL226462  10.397  22.121   8.850
 6306POPC   C1A26463  10.521  22.164   8.550
 6306POPC   D2A26464  10.475  22.112   8.250
 6306POPC   C3A26465  10.563  22.126   7.950
 6306POPC   C4A26466  10.495  22.163   7.650
 6306POPC   C1B26467  10.291  22.059   8.550
 6306POPC   C2B26468  10.288  22.035   8.250
 6306POPC   C3B26469  10.265  22.038   7.950
 6306POPC   C4B26470  10.336  22.084   7.650
 6307POPC   NC326471  42.315  40.777   9.450
 6307POPC   PO426472  42.328  40.773   9.150
 6307POPC   GL126473  42.371  40.825   8.850
 6307POPC   GL226474  42.310  40.883   8.850
 6307POPC   C1A26475  42.358  40.748   8.550
 6307POPC   D2A26476  42.300  40.757   8.250
 6307POPC   C3A26477  42.336  40.754   7.950
 6307POPC   C4A26478  42.290  40.809   7.650
 6307POPC   C1B26479  42.206  41.036   8.550
 6307POPC   C2B26480  42.214  40.963   8.250
 6307POPC   C3B26481  42.222  41.040   7.950
 6307POPC   C4B26482  42.216  40.966   7.650
 6308POPC   NC326483  29.925  22.170   9.450
 6308POPC   PO426484  29.941  22.131   9.150
 6308POPC   GL126485  29.930  22.196   8.850
 6308POPC   GL226486  29.756  22.200   8.850
 6308POPC   C1A26487  29.969  22.199   8.550
 6308POPC   D2A26488  29.925  22.168   8.250
 6308POPC   C3A26489  29.906  22.204   7.950
 6308POPC   C4A26490  29.887  22.141   7.650
 6308POPC   C1B26491  29.661  22.196   8.550
 6308POPC   C2B26492  29.703  22.273   8.250
 6308POPC   C3B26493  29.690  22.244   7.950
 6308POPC   C4B26494  29.648  22.227   7.650
 6309POPC   NC326495  44.705   2.744   9.450
 6309POPC   PO426496  44.623   2.746   9.150
 6309POPC   GL126497  44.636   2.789   8.850
 6309POPC   GL226498  44.786   2.780   8.850
 6309POPC   C1A26499  44.640   2.793   8.550
 6309POPC   D2A26500  44.688   2.750   8.250
 6309POPC   C3A26501  44.699   2.800   7.950
 6309POPC   C4A26502  44.671   2.797   7.650
 6309POPC   C1B26503  44.892   2.777   8.550
 6309POPC   C2B26504  44.922   2.828   8.250
 6309POPC   C3B26505  44.908   2.832   7.950
 6309POPC   C4B26506  44.862   2.759   7.650
 6310POPC   NC326507  16.711  39.264   9.450
 6310POPC   PO426508  16.688  39.235   9.150
 6310POPC   GL126509  16.707  39.213   8.850
 6310POPC   GL226510  16.685  39.312   8.850
 6310POPC   C1A26511  16.689  39.232   8.550
 6310POPC   D2A26512  16.728  39.261   8.250
 6310POPC   C3A26513  16.719  39.213   7.950
 6310POPC   C4A26514  16.754  39.239   7.650
 6310POPC   C1B26515  16.591  39.376   8.550
 6310POPC   C2B26516  16.596  39.357   8.250
 6310POPC   C3B26517  16.547  39.384   7.950
 6310POPC   C4B26518  16.566  39.376   7.650
 6311POPC   NC326519   1.975  23.667   9.450
 6311POPC   PO426520   2.032  23.754   9.150
 6311POPC   GL126521   1.998  23.746   8.850
 6311POPC   GL226522   2.080  23.596   8.850
 6311POPC   C1A26523   1.968  23.758   8.550
 6311POPC   D2A26524   2.007  23.726   8.250
 6311POPC   C3A26525   2.011  23.694   7.950
 6311POPC   C4A26526   2.036  23.694   7.650
 6311POPC   C1B26527   2.138  23.511   8.550
 6311POPC   C2B26528   2.162  23.544   8.250
 6311POPC   C3B26529   2.116  23.541   7.950
 6311POPC   C4B26530   2.114  23.525   7.650
 6312POPC   NC326531  28.333   8.238   9.450
 6312POPC   PO426532  28.336   8.148   9.150
 6312POPC   GL126533  28.336   8.193   8.850
 6312POPC   GL226534  28.429   8.324   8.850
 6312POPC   C1A26535  28.350   8.176   8.550
 6312POPC   D2A26536  28.395   8.179   8.250
 6312POPC   C3A26537  28.390   8.173   7.950
 6312POPC   C4A26538  28.371   8.174   7.650
 6312POPC   C1B26539  28.486   8.364   8.550
 6312POPC   C2B26540  28.506   8.404   8.250
 6312POPC   C3B26541  28.478   8.435   7.950
 6312POPC   C4B26542  28.479   8.354   7.650
 6313POPC   NC326543   3.548   8.953   9.450
 6313POPC   PO426544   3.525   8.926   9.150
 6313POPC   GL126545   3.571   8.992   8.850
 6313POPC   GL226546   3.580   9.077   8.850
 6313POPC   C1A26547   3.509   8.955   8.550
 6313POPC   D2A26548   3.571   8.997   8.250
 6313POPC   C3A26549   3.494   8.979   7.950
 6313POPC   C4A26550   3.553   8.967   7.650
 6313POPC   C1B26551   3.574   9.249   8.550
 6313POPC   C2B26552   3.606   9.185   8.250
 6313POPC   C3B26553   3.593   9.254   7.950
 6313POPC   C4B26554   3.620   9.264   7.650
 6314POPC   NC326555   4.277  17.493   9.450
 6314POPC   PO426556   4.335  17.544   9.150
 6314POPC   GL126557   4.333  17.478   8.850
 6314POPC   GL226558   4.409  17.568   8.850
 6314POPC   C1A26559   4.334  17.554   8.550
 6314POPC   D2A26560   4.271  17.541   8.250
 6314POPC   C3A26561   4.350  17.480   7.950
 6314POPC   C4A26562   4.346  17.488   7.650
 6314POPC   C1B26563   4.547  17.662   8.550
 6314POPC   C2B26564   4.586  17.591   8.250
 6314POPC   C3B26565   4.548  17.617   7.950
 6314POPC   C4B26566   4.575  17.633   7.650
 6315POPC   NC326567  24.455  12.095   9.450
 6315POPC   PO426568  24.536  12.031   9.150
 6315POPC   GL126569  24.487  12.079   8.850
 6315POPC   GL226570  24.414  11.976   8.850
 6315POPC   C1A26571  24.496  12.059   8.550
 6315POPC   D2A26572  24.534  12.059   8.250
 6315POPC   C3A26573  24.478  12.074   7.950
 6315POPC   C4A26574  24.462  12.070   7.650
 6315POPC   C1B26575  24.413  11.857   8.550
 6315POPC   C2B26576  24.416  11.893   8.250
 6315POPC   C3B26577  24.354  11.873   7.950
 6315POPC   C4B26578  24.395  11.896   7.650
 6316POPC   NC326579  20.632  29.884   9.450
 6316POPC   PO426580  20.562  29.940   9.150
 6316POPC   GL126581  20.571  29.893   8.850
 6316POPC   GL226582  20.535  29.998   8.850
 6316POPC   C1A26583  20.581  29.872   8.550
 6316POPC   D2A26584  20.657  29.964   8.250
 6316POPC   C3A26585  20.656  29.951   7.950
 6316POPC   C4A26586  20.658  29.939   7.650
 6316POPC   C1B26587  20.390  30.146   8.550
 6316POPC   C2B26588  20.448  30.133   8.250
 6316POPC   C3B26589  20.475  30.055   7.950
 6316POPC   C4B26590  20.466  30.116   7.650
 6317POPC   NC326591  26.866   3.524   9.450
 6317POPC   PO426592  26.831   3.573   9.150
 6317POPC   GL126593  26.817   3.528   8.850
 6317POPC   GL226594  26.929   3.564   8.850
 6317POPC   C1A26595  26.831   3.546   8.550
 6317POPC   D2A26596  26.827   3.541   8.250
 6317POPC   C3A26597  26.800   3.573   7.950
 6317POPC   C4A26598  26.828   3.512   7.650
 6317POPC   C1B26599  26.986   3.622   8.550
 6317POPC   C2B26600  27.014   3.678   8.250
 6317POPC   C3B26601  27.061   3.652   7.950
 6317POPC   C4B26602  26.995   3.634   7.650
 6318POPC   NC326603  43.075  39.989   9.450
 6318POPC   PO426604  43.084  40.010   9.150
 6318POPC   GL126605  43.062  40.015   8.850
 6318POPC   GL226606  43.088  40.102   8.850
 6318POPC   C1A26607  43.134  39.996   8.550
 6318POPC   D2A26608  43.067  39.992   8.250
 6318POPC   C3A26609  43.085  40.022   7.950
 6318POPC   C4A26610  43.070  39.977   7.650
 6318POPC   C1B26611  43.116  40.273   8.550
 6318POPC   C2B26612  43.171  40.275   8.250
 6318POPC   C3B26613  43.132  40.214   7.950
 6318POPC   C4B26614  43.171  40.248   7.650
 6319POPC   NC326615  44.627  22.154   9.450
 6319POPC   PO426616  44.649  22.207   9.150
 6319POPC   GL126617  44.614  22.173   8.850
 6319POPC   GL226618  44.701  22.211   8.850
 6319POPC   C1A26619  44.655  22.149   8.550
 6319POPC   D2A26620  44.654  22.168   8.250
 6319POPC   C3A26621  44.621  22.170   7.950
 6319POPC   C4A26622  44.647  22.208   7.650
 6319POPC   C1B26623  44.800  22.395   8.550
 6319POPC   C2B26624  44.802  22.336   8.250
 6319POPC   C3B26625  44.785  22.333   7.950
 6319POPC   C4B26626  44.863  22.314   7.650
 6320POPC   NC326627  31.447   7.417   9.450
 6320POPC   PO426628  31.474   7.407   9.150
 6320POPC   GL126629  31.507   7.421   8.850
 6320POPC   GL226630  31.473   7.593   8.850
 6320POPC   C1A26631  31.440   7.445   8.550
 6320POPC   D2A26632  31.483   7.430   8.250
 6320POPC   C3A26633  31.432   7.387   7.950
 6320POPC   C4A26634  31.508   7.430   7.650
 6320POPC   C1B26635  31.483   7.718   8.550
 6320POPC   C2B26636  31.523   7.648   8.250
 6320POPC   C3B26637  31.486   7.686   7.950
 6320POPC   C4B26638  31.438   7.690   7.650
 6321POPC   NC326639  30.698  38.460   9.450
 6321POPC   PO426640  30.737  38.435   9.150
 6321POPC   GL126641  30.655  38.500   8.850
 6321POPC   GL226642  30.804  38.405   8.850
 6321POPC   C1A26643  30.666  38.479   8.550
 6321POPC   D2A26644  30.703  38.466   8.250
 6321POPC   C3A26645  30.676  38.444   7.950
 6321POPC   C4A26646  30.711  38.468   7.650
 6321POPC   C1B26647  30.901  38.411   8.550
 6321POPC   C2B26648  30.965  38.447   8.250
 6321POPC   C3B26649  30.926  38.462   7.950
 6321POPC   C4B26650  30.930  38.393   7.650
 6322POPC   NC326651  19.025  28.356   9.450
 6322POPC   PO426652  19.019  28.419   9.150
 6322POPC   GL126653  19.099  28.341   8.850
 6322POPC   GL226654  19.084  28.475   8.850
 6322POPC   C1A26655  19.081  28.391   8.550
 6322POPC   D2A26656  19.101  28.344   8.250
 6322POPC   C3A26657  19.065  28.356   7.950
 6322POPC   C4A26658  19.096  28.359   7.650
 6322POPC   C1B26659  19.093  28.568   8.550
 6322POPC   C2B26660  19.108  28.602   8.250
 6322POPC   C3B26661  19.178  28.586   7.950
 6322POPC   C4B26662  19.161  28.591   7.650
 6323POPC   NC326663  27.625  33.829   9.450
 6323POPC   PO426664  27.609  33.781   9.150
 6323POPC   GL126665  27.552  33.779   8.850
 6323POPC   GL226666  27.639  33.717   8.850
 6323POPC   C1A26667  27.636  33.800   8.550
 6323POPC   D2A26668  27.554  33.760   8.250
 6323POPC   C3A26669  27.628  33.846   7.950
 6323POPC   C4A26670  27.630  33.792   7.650
 6323POPC   C1B26671  27.692  33.616   8.550
 6323POPC   C2B26672  27.749  33.596   8.250
 6323POPC   C3B26673  27.694  33.594   7.950
 6323POPC   C4B26674  27.727  33.565   7.650
 6324POPC   NC326675  22.889  22.162   9.450
 6324POPC   PO426676  22.969  22.172   9.150
 6324POPC   GL126677  22.937  22.176   8.850
 6324POPC   GL226678  23.074  22.133   8.850
 6324POPC   C1A26679  22.933  22.209   8.550
 6324POPC   D2A26680  22.935  22.171   8.250
 6324POPC   C3A26681  22.912  22.192   7.950
 6324POPC   C4A26682  22.897  22.142   7.650
 6324POPC   C1B26683  23.197  22.140   8.550
 6324POPC   C2B26684  23.210  22.097   8.250
 6324POPC   C3B26685  23.232  22.095   7.950
 6324POPC   C4B26686  23.219  22.102   7.650
 6325POPC   NC326687  11.262  39.977   9.450
 6325POPC   PO426688  11.276  40.028   9.150
 6325POPC   GL126689  11.329  39.966   8.850
 6325POPC   GL226690  11.289  40.090   8.850
 6325POPC   C1A26691  11.307  39.969   8.550
 6325POPC   D2A26692  11.343  40.046   8.250
 6325POPC   C3A26693  11.281  40.019   7.950
 6325POPC   C4A26694  11.317  39.959   7.650
 6325POPC   C1B26695  11.206  40.272   8.550
 6325POPC   C2B26696  11.209  40.251   8.250
 6325POPC   C3B26697  11.270  40.280   7.950
 6325POPC   C4B26698  11.219  40.236   7.650
 6326POPC   NC326699  38.480  29.945   9.450
 6326POPC   PO426700  38.482  29.930   9.150
 6326POPC   GL126701  38.473  29.916   8.850
 6326POPC   GL226702  38.481  29.779   8.850
 6326POPC   C1A26703  38.493  29.908   8.550
 6326POPC   D2A26704  38.409  29.920   8.250
 6326POPC   C3A26705  38.414  29.905   7.950
 6326POPC   C4A26706  38.437  29.876   7.650
 6326POPC   C1B26707  38.411  29.719   8.550
 6326POPC   C2B26708  38.463  29.660   8.250
 6326POPC   C3B26709  38.405  29.660   7.950
 6326POPC   C4B26710  38.427  29.645   7.650
 6327POPC   NC326711  25.252  41.608   9.450
 6327POPC   PO426712  25.311  41.545   9.150
 6327POPC   GL126713  25.303  41.532   8.850
 6327POPC   GL226714  25.231  41.426   8.850
 6327POPC   C1A26715  25.297  41.583   8.550
 6327POPC   D2A26716  25.223  41.573   8.250
 6327POPC   C3A26717  25.241  41.537   7.950
 6327POPC   C4A26718  25.264  41.548   7.650
 6327POPC   C1B26719  25.248  41.296   8.550
 6327POPC   C2B26720  25.327  41.324   8.250
 6327POPC   C3B26721  25.333  41.293   7.950
 6327POPC   C4B26722  25.300  41.299   7.650
 6328POPC   NC326723   4.356  19.857   9.450
 6328POPC   PO426724   4.275  19.817   9.150
 6328POPC   GL126725   4.313  19.790   8.850
 6328POPC   GL226726   4.265  19.718   8.850
 6328POPC   C1A26727   4.349  19.863   8.550
 6328POPC   D2A26728   4.295  19.839   8.250
 6328POPC   C3A26729   4.357  19.802   7.950
 6328POPC   C4A26730   4.333  19.839   7.650
 6328POPC   C1B26731   4.139  19.606   8.550
 6328POPC   C2B26732   4.179  19.572   8.250
 6328POPC   C3B26733   4.186  19.637   7.950
 6328POPC   C4B26734   4.173  19.580   7.650
 6329POPC   NC326735   1.204  28.325   9.450
 6329POPC   PO426736   1.174  28.373   9.150
 6329POPC   GL126737   1.181  28.397   8.850
 6329POPC   GL226738   1.310  28.346   8.850
 6329POPC   C1A26739   1.236  28.397   8.550
 6329POPC   D2A26740   1.175  28.340   8.250
 6329POPC   C3A26741   1.218  28.382   7.950
 6329POPC   C4A26742   1.215  28.391   7.650
 6329POPC   C1B26743   1.502  28.324   8.550
 6329POPC   C2B26744   1.431  28.352   8.250
 6329POPC   C3B26745   1.492  28.357   7.950
 6329POPC   C4B26746   1.453  28.320   7.650
 6330POPC   NC326747  10.553  29.885   9.450
 6330POPC   PO426748  10.548  29.935   9.150
 6330POPC   GL126749  10.482  29.934   8.850
 6330POPC   GL226750  10.598  29.860   8.850
 6330POPC   C1A26751  10.542  29.936   8.550
 6330POPC   D2A26752  10.476  29.925   8.250
 6330POPC   C3A26753  10.489  29.916   7.950
 6330POPC   C4A26754  10.569  29.949   7.650
 6330POPC   C1B26755  10.634  29.677   8.550
 6330POPC   C2B26756  10.652  29.695   8.250
 6330POPC   C3B26757  10.656  29.753   7.950
 6330POPC   C4B26758  10.637  29.713   7.650
 6331POPC   NC326759  36.870  24.515   9.450
 6331POPC   PO426760  36.858  24.533   9.150
 6331POPC   GL126761  36.930  24.473   8.850
 6331POPC   GL226762  37.065  24.408   8.850
 6331POPC   C1A26763  36.885  24.459   8.550
 6331POPC   D2A26764  36.921  24.523   8.250
 6331POPC   C3A26765  36.886  24.528   7.950
 6331POPC   C4A26766  36.875  24.461   7.650
 6331POPC   C1B26767  37.117  24.411   8.550
 6331POPC   C2B26768  37.138  24.375   8.250
 6331POPC   C3B26769  37.168  24.347   7.950
 6331POPC   C4B26770  37.090  24.352   7.650
 6332POPC   NC326771  22.938  13.650   9.450
 6332POPC   PO426772  22.907  13.638   9.150
 6332POPC   GL126773  22.908  13.646   8.850
 6332POPC   GL226774  22.913  13.515   8.850
 6332POPC   C1A26775  22.976  13.668   8.550
 6332POPC   D2A26776  22.928  13.607   8.250
 6332POPC   C3A26777  22.945  13.647   7.950
 6332POPC   C4A26778  22.891  13.593   7.650
 6332POPC   C1B26779  22.852  13.413   8.550
 6332POPC   C2B26780  22.835  13.405   8.250
 6332POPC   C3B26781  22.896  13.403   7.950
 6332POPC   C4B26782  22.859  13.378   7.650
 6333POPC   NC326783  43.841  35.391   9.450
 6333POPC   PO426784  43.903  35.340   9.150
 6333POPC   GL126785  43.895  35.395   8.850
 6333POPC   GL226786  43.810  35.457   8.850
 6333POPC   C1A26787  43.923  35.369   8.550
 6333POPC   D2A26788  43.902  35.319   8.250
 6333POPC   C3A26789  43.857  35.357   7.950
 6333POPC   C4A26790  43.868  35.361   7.650
 6333POPC   C1B26791  43.627  35.449   8.550
 6333POPC   C2B26792  43.706  35.439   8.250
 6333POPC   C3B26793  43.697  35.434   7.950
 6333POPC   C4B26794  43.624  35.517   7.650
 6334POPC   NC326795  27.600  10.497   9.450
 6334POPC   PO426796  27.551  10.520   9.150
 6334POPC   GL126797  27.552  10.504   8.850
 6334POPC   GL226798  27.639  10.593   8.850
 6334POPC   C1A26799  27.593  10.531   8.550
 6334POPC   D2A26800  27.635  10.484   8.250
 6334POPC   C3A26801  27.544  10.526   7.950
 6334POPC   C4A26802  27.563  10.494   7.650
 6334POPC   C1B26803  27.678  10.775   8.550
 6334POPC   C2B26804  27.665  10.746   8.250
 6334POPC   C3B26805  27.704  10.725   7.950
 6334POPC   C4B26806  27.634  10.801   7.650
 6335POPC   NC326807   9.771   2.748   9.450
 6335POPC   PO426808   9.707   2.808   9.150
 6335POPC   GL126809   9.756   2.738   8.850
 6335POPC   GL226810   9.752   2.866   8.850
 6335POPC   C1A26811   9.771   2.770   8.550
 6335POPC   D2A26812   9.724   2.813   8.250
 6335POPC   C3A26813   9.789   2.771   7.950
 6335POPC   C4A26814   9.781   2.779   7.650
 6335POPC   C1B26815   9.661   3.049   8.550
 6335POPC   C2B26816   9.662   2.971   8.250
 6335POPC   C3B26817   9.618   3.051   7.950
 6335POPC   C4B26818   9.666   2.987   7.650
 6336POPC   NC326819  36.863  19.085   9.450
 6336POPC   PO426820  36.917  19.063   9.150
 6336POPC   GL126821  36.903  19.038   8.850
 6336POPC   GL226822  37.012  18.970   8.850
 6336POPC   C1A26823  36.875  19.014   8.550
 6336POPC   D2A26824  36.883  19.090   8.250
 6336POPC   C3A26825  36.945  19.031   7.950
 6336POPC   C4A26826  36.937  19.051   7.650
 6336POPC   C1B26827  37.041  18.832   8.550
 6336POPC   C2B26828  37.020  18.860   8.250
 6336POPC   C3B26829  37.104  18.904   7.950
 6336POPC   C4B26830  37.030  18.899   7.650
 6337POPC   NC326831   5.048  34.606   9.450
 6337POPC   PO426832   5.089  34.555   9.150
 6337POPC   GL126833   5.052  34.600   8.850
 6337POPC   GL226834   5.064  34.689   8.850
 6337POPC   C1A26835   5.063  34.620   8.550
 6337POPC   D2A26836   5.131  34.536   8.250
 6337POPC   C3A26837   5.133  34.584   7.950
 6337POPC   C4A26838   5.102  34.626   7.650
 6337POPC   C1B26839   5.000  34.779   8.550
 6337POPC   C2B26840   4.937  34.800   8.250
 6337POPC   C3B26841   5.019  34.822   7.950
 6337POPC   C4B26842   4.959  34.821   7.650
 6338POPC   NC326843  36.902  16.723   9.450
 6338POPC   PO426844  36.924  16.759   9.150
 6338POPC   GL126845  36.856  16.710   8.850
 6338POPC   GL226846  36.830  16.682   8.850
 6338POPC   C1A26847  36.939  16.714   8.550
 6338POPC   D2A26848  36.916  16.702   8.250
 6338POPC   C3A26849  36.943  16.757   7.950
 6338POPC   C4A26850  36.939  16.778   7.650
 6338POPC   C1B26851  36.717  16.546   8.550
 6338POPC   C2B26852  36.688  16.514   8.250
 6338POPC   C3B26853  36.748  16.543   7.950
 6338POPC   C4B26854  36.690  16.594   7.650
 6339POPC   NC326855  42.341  25.291   9.450
 6339POPC   PO426856  42.361  25.308   9.150
 6339POPC   GL126857  42.359  25.304   8.850
 6339POPC   GL226858  42.335  25.111   8.850
 6339POPC   C1A26859  42.316  25.289   8.550
 6339POPC   D2A26860  42.384  25.255   8.250
 6339POPC   C3A26861  42.368  25.252   7.950
 6339POPC   C4A26862  42.355  25.311   7.650
 6339POPC   C1B26863  42.396  24.967   8.550
 6339POPC   C2B26864  42.370  24.971   8.250
 6339POPC   C3B26865  42.360  25.038   7.950
 6339POPC   C4B26866  42.339  25.009   7.650
 6340POPC   NC326867  18.328  42.378   9.450
 6340POPC   PO426868  18.233  42.354   9.150
 6340POPC   GL126869  18.318  42.367   8.850
 6340POPC   GL226870  18.269  42.459   8.850
 6340POPC   C1A26871  18.284  42.299   8.550
 6340POPC   D2A26872  18.299  42.318   8.250
 6340POPC   C3A26873  18.234  42.302   7.950
 6340POPC   C4A26874  18.292  42.370   7.650
 6340POPC   C1B26875  18.243  42.619   8.550
 6340POPC   C2B26876  18.264  42.605   8.250
 6340POPC   C3B26877  18.324  42.633   7.950
 6340POPC   C4B26878  18.332  42.621   7.650
 6341POPC   NC326879  15.969  33.838   9.450
 6341POPC   PO426880  15.912  33.828   9.150
 6341POPC   GL126881  15.932  33.797   8.850
 6341POPC   GL226882  15.807  33.802   8.850
 6341POPC   C1A26883  15.917  33.777   8.550
 6341POPC   D2A26884  15.954  33.776   8.250
 6341POPC   C3A26885  15.964  33.811   7.950
 6341POPC   C4A26886  15.939  33.799   7.650
 6341POPC   C1B26887  15.704  33.881   8.550
 6341POPC   C2B26888  15.666  33.819   8.250
 6341POPC   C3B26889  15.729  33.810   7.950
 6341POPC   C4B26890  15.675  33.900   7.650
 6342POPC   NC326891  35.323  36.101   9.450
 6342POPC   PO426892  35.385  36.135   9.150
 6342POPC   GL126893  35.379  36.080   8.850
 6342POPC   GL226894  35.266  36.086   8.850
 6342POPC   C1A26895  35.357  36.161   8.550
 6342POPC   D2A26896  35.396  36.164   8.250
 6342POPC   C3A26897  35.390  36.165   7.950
 6342POPC   C4A26898  35.373  36.172   7.650
 6342POPC   C1B26899  35.182  35.949   8.550
 6342POPC   C2B26900  35.108  35.987   8.250
 6342POPC   C3B26901  35.137  35.954   7.950
 6342POPC   C4B26902  35.188  36.012   7.650
 6343POPC   NC326903  24.444  16.699   9.450
 6343POPC   PO426904  24.507  16.722   9.150
 6343POPC   GL126905  24.539  16.685   8.850
 6343POPC   GL226906  24.578  16.571   8.850
 6343POPC   C1A26907  24.535  16.695   8.550
 6343POPC   D2A26908  24.450  16.743   8.250
 6343POPC   C3A26909  24.455  16.685   7.950
 6343POPC   C4A26910  24.534  16.751   7.650
 6343POPC   C1B26911  24.547  16.460   8.550
 6343POPC   C2B26912  24.568  16.501   8.250
 6343POPC   C3B26913  24.538  16.488   7.950
 6343POPC   C4B26914  24.532  16.463   7.650
 6344POPC   NC326915  30.719   8.171   9.450
 6344POPC   PO426916  30.651   8.189   9.150
 6344POPC   GL126917  30.691   8.148   8.850
 6344POPC   GL226918  30.799   8.294   8.850
 6344POPC   C1A26919  30.731   8.246   8.550
 6344POPC   D2A26920  30.688   8.169   8.250
 6344POPC   C3A26921  30.690   8.235   7.950
 6344POPC   C4A26922  30.746   8.173   7.650
 6344POPC   C1B26923  30.812   8.449   8.550
 6344POPC   C2B26924  30.811   8.433   8.250
 6344POPC   C3B26925  30.836   8.423   7.950
 6344POPC   C4B26926  30.815   8.430   7.650
 6345POPC   NC326927  43.867  16.771   9.450
 6345POPC   PO426928  43.924  16.723   9.150
 6345POPC   GL126929  43.928  16.709   8.850
 6345POPC   GL226930  43.965  16.872   8.850
 6345POPC   C1A26931  43.929  16.760   8.550
 6345POPC   D2A26932  43.867  16.751   8.250
 6345POPC   C3A26933  43.896  16.757   7.950
 6345POPC   C4A26934  43.918  16.739   7.650
 6345POPC   C1B26935  43.991  16.951   8.550
 6345POPC   C2B26936  43.937  16.927   8.250
 6345POPC   C3B26937  43.919  17.014   7.950
 6345POPC   C4B26938  43.962  17.006   7.650
 6346POPC   NC326939  17.508  30.741   9.450
 6346POPC   PO426940  17.553  30.681   9.150
 6346POPC   GL126941  17.495  30.678   8.850
 6346POPC   GL226942  17.623  30.596   8.850
 6346POPC   C1A26943  17.495  30.665   8.550
 6346POPC   D2A26944  17.477  30.744   8.250
 6346POPC   C3A26945  17.468  30.709   7.950
 6346POPC   C4A26946  17.545  30.684   7.650
 6346POPC   C1B26947  17.752  30.530   8.550
 6346POPC   C2B26948  17.698  30.507   8.250
 6346POPC   C3B26949  17.755  30.599   7.950
 6346POPC   C4B26950  17.734  30.537   7.650
 6347POPC   NC326951  12.051  27.641   9.450
 6347POPC   PO426952  12.073  27.565   9.150
 6347POPC   GL126953  12.092  27.546   8.850
 6347POPC   GL226954  12.110  27.507   8.850
 6347POPC   C1A26955  12.081  27.636   8.550
 6347POPC   D2A26956  12.046  27.635   8.250
 6347POPC   C3A26957  12.063  27.629   7.950
 6347POPC   C4A26958  12.033  27.608   7.650
 6347POPC   C1B26959  12.024  27.385   8.550
 6347POPC   C2B26960  12.062  27.321   8.250
 6347POPC   C3B26961  12.086  27.298   7.950
 6347POPC   C4B26962  12.050  27.343   7.650
 6348POPC   NC326963  33.010   7.464   9.450
 6348POPC   PO426964  33.020   7.399   9.150
 6348POPC   GL126965  33.069   7.442   8.850
 6348POPC   GL226966  32.984   7.553   8.850
 6348POPC   C1A26967  33.032   7.424   8.550
 6348POPC   D2A26968  32.986   7.465   8.250
 6348POPC   C3A26969  33.053   7.458   7.950
 6348POPC   C4A26970  33.039   7.424   7.650
 6348POPC   C1B26971  32.988   7.660   8.550
 6348POPC   C2B26972  32.985   7.650   8.250
 6348POPC   C3B26973  32.970   7.631   7.950
 6348POPC   C4B26974  32.972   7.649   7.650
 6349POPC   NC326975  10.533   2.729   9.450
 6349POPC   PO426976  10.515   2.764   9.150
 6349POPC   GL126977  10.572   2.772   8.850
 6349POPC   GL226978  10.486   2.886   8.850
 6349POPC   C1A26979  10.532   2.782   8.550
 6349POPC   D2A26980  10.556   2.806   8.250
 6349POPC   C3A26981  10.527   2.760   7.950
 6349POPC   C4A26982  10.522   2.741   7.650
 6349POPC   C1B26983  10.501   3.006   8.550
 6349POPC   C2B26984  10.434   2.979   8.250
 6349POPC   C3B26985  10.413   2.964   7.950
 6349POPC   C4B26986  10.488   3.003   7.650
 6350POPC   NC326987   8.947  25.263   9.450
 6350POPC   PO426988   9.011  25.278   9.150
 6350POPC   GL126989   9.000  25.280   8.850
 6350POPC   GL226990   8.929  25.354   8.850
 6350POPC   C1A26991   8.991  25.280   8.550
 6350POPC   D2A26992   8.986  25.295   8.250
 6350POPC   C3A26993   8.968  25.239   7.950
 6350POPC   C4A26994   8.987  25.236   7.650
 6350POPC   C1B26995   8.848  25.439   8.550
 6350POPC   C2B26996   8.850  25.500   8.250
 6350POPC   C3B26997   8.827  25.456   7.950
 6350POPC   C4B26998   8.869  25.505   7.650
 6351POPC   NC326999  42.378  26.008   9.450
 6351POPC   PO427000  42.356  26.059   9.150
 6351POPC   GL127001  42.381  26.036   8.850
 6351POPC   GL227002  42.474  26.128   8.850
 6351POPC   C1A27003  42.311  26.080   8.550
 6351POPC   D2A27004  42.343  26.042   8.250
 6351POPC   C3A27005  42.330  26.045   7.950
 6351POPC   C4A27006  42.341  26.051   7.650
 6351POPC   C1B27007  42.555  26.125   8.550
 6351POPC   C2B27008  42.576  26.164   8.250
 6351POPC   C3B27009  42.542  26.181   7.950
 6351POPC   C4B27010  42.540  26.211   7.650
 6352POPC   NC327011  42.333  22.170   9.450
 6352POPC   PO427012  42.366  22.132   9.150
 6352POPC   GL127013  42.360  22.157   8.850
 6352POPC   GL227014  42.347  22.257   8.850
 6352POPC   C1A27015  42.329  22.162   8.550
 6352POPC   D2A27016  42.350  22.150   8.250
 6352POPC   C3A27017  42.343  22.141   7.950
 6352POPC   C4A27018  42.331  22.149   7.650
 6352POPC   C1B27019  42.365  22.432   8.550
 6352POPC   C2B27020  42.376  22.418   8.250
 6352POPC   C3B27021  42.401  22.378   7.950
 6352POPC   C4B27022  42.329  22.450   7.650
 6353POPC   NC327023  36.169  12.099   9.450
 6353POPC   PO427024  36.098  12.084   9.150
 6353POPC   GL127025  36.171  12.053   8.850
 6353POPC   GL227026  36.223  12.019   8.850
 6353POPC   C1A27027  36.176  12.030   8.550
 6353POPC   D2A27028  36.098  12.114   8.250
 6353POPC   C3A27029  36.132  12.119   7.950
 6353POPC   C4A27030  36.165  12.047   7.650
 6353POPC   C1B27031  36.368  11.908   8.550
 6353POPC   C2B27032  36.278  11.899   8.250
 6353POPC   C3B27033  36.324  11.962   7.950
 6353POPC   C4B27034  36.355  11.900   7.650
 6354POPC   NC327035   6.612  12.082   9.450
 6354POPC   PO427036   6.607  12.090   9.150
 6354POPC   GL127037   6.679  12.036   8.850
 6354POPC   GL227038   6.729  12.198   8.850
 6354POPC   C1A27039   6.614  12.045   8.550
 6354POPC   D2A27040   6.614  12.038   8.250
 6354POPC   C3A27041   6.693  12.113   7.950
 6354POPC   C4A27042   6.616  12.058   7.650
 6354POPC   C1B27043   6.834  12.256   8.550
 6354POPC   C2B27044   6.821  12.193   8.250
 6354POPC   C3B27045   6.877  12.275   7.950
 6354POPC   C4B27046   6.817  12.272   7.650
 6355POPC   NC327047  23.752  26.047   9.450
 6355POPC   PO427048  23.682  26.043   9.150
 6355POPC   GL127049  23.674  26.011   8.850
 6355POPC   GL227050  23.799  25.916   8.850
 6355POPC   C1A27051  23.728  26.084   8.550
 6355POPC   D2A27052  23.712  26.088   8.250
 6355POPC   C3A27053  23.758  26.030   7.950
 6355POPC   C4A27054  23.729  26.048   7.650
 6355POPC   C1B27055  23.851  25.823   8.550
 6355POPC   C2B27056  23.913  25.848   8.250
 6355POPC   C3B27057  23.862  25.862   7.950
 6355POPC   C4B27058  23.872  25.857   7.650
 6356POPC   NC327059  18.318  17.546   9.450
 6356POPC   PO427060  18.317  17.508   9.150
 6356POPC   GL127061  18.288  17.523   8.850
 6356POPC   GL227062  18.315  17.657   8.850
 6356POPC   C1A27063  18.256  17.479   8.550
 6356POPC   D2A27064  18.264  17.477   8.250
 6356POPC   C3A27065  18.273  17.556   7.950
 6356POPC   C4A27066  18.298  17.514   7.650
 6356POPC   C1B27067  18.326  17.805   8.550
 6356POPC   C2B27068  18.244  17.789   8.250
 6356POPC   C3B27069  18.266  17.767   7.950
 6356POPC   C4B27070  18.262  17.798   7.650
 6357POPC   NC327071  14.397  36.137   9.450
 6357POPC   PO427072  14.428  36.156   9.150
 6357POPC   GL127073  14.357  36.125   8.850
 6357POPC   GL227074  14.490  36.153   8.850
 6357POPC   C1A27075  14.386  36.158   8.550
 6357POPC   D2A27076  14.395  36.156   8.250
 6357POPC   C3A27077  14.358  36.111   7.950
 6357POPC   C4A27078  14.440  36.168   7.650
 6357POPC   C1B27079  14.598  36.200   8.550
 6357POPC   C2B27080  14.656  36.176   8.250
 6357POPC   C3B27081  14.674  36.215   7.950
 6357POPC   C4B27082  14.639  36.238   7.650
 6358POPC   NC327083  42.344  44.643   9.450
 6358POPC   PO427084  42.369  44.624   9.150
 6358POPC   GL127085  42.347  44.654   8.850
 6358POPC   GL227086  42.196  44.608   8.850
 6358POPC   C1A27087  42.329  44.661   8.550
 6358POPC   D2A27088  42.318  44.707   8.250
 6358POPC   C3A27089  42.368  44.664   7.950
 6358POPC   C4A27090  42.307  44.660   7.650
 6358POPC   C1B27091  42.113  44.513   8.550
 6358POPC   C2B27092  42.146  44.555   8.250
 6358POPC   C3B27093  42.170  44.569   7.950
 6358POPC   C4B27094  42.171  44.497   7.650
 6359POPC   NC327095  15.202  25.219   9.450
 6359POPC   PO427096  15.138  25.217   9.150
 6359POPC   GL127097  15.187  25.237   8.850
 6359POPC   GL227098  15.208  25.334   8.850
 6359POPC   C1A27099  15.187  25.270   8.550
 6359POPC   D2A27100  15.181  25.299   8.250
 6359POPC   C3A27101  15.158  25.224   7.950
 6359POPC   C4A27102  15.132  25.300   7.650
 6359POPC   C1B27103  15.276  25.510   8.550
 6359POPC   C2B27104  15.257  25.471   8.250
 6359POPC   C3B27105  15.288  25.500   7.950
 6359POPC   C4B27106  15.258  25.536   7.650
 6360POPC   NC327107  36.115   6.621   9.450
 6360POPC   PO427108  36.115   6.616   9.150
 6360POPC   GL127109  36.141   6.672   8.850
 6360POPC   GL227110  36.194   6.612   8.850
 6360POPC   C1A27111  36.164   6.687   8.550
 6360POPC   D2A27112  36.158   6.667   8.250
 6360POPC   C3A27113  36.152   6.677   7.950
 6360POPC   C4A27114  36.126   6.647   7.650
 6360POPC   C1B27115  36.349   6.564   8.550
 6360POPC   C2B27116  36.368   6.503   8.250
 6360POPC   C3B27117  36.334   6.571   7.950
 6360POPC   C4B27118  36.374   6.578   7.650
 6361POPC   NC327119  28.371  33.800   9.450
 6361POPC   PO427120  28.392  33.758   9.150
 6361POPC   GL127121  28.329  33.841   8.850
 6361POPC   GL227122  28.452  33.909   8.850
 6361POPC   C1A27123  28.327  33.765   8.550
 6361POPC   D2A27124  28.375  33.832   8.250
 6361POPC   C3A27125  28.369  33.757   7.950
 6361POPC   C4A27126  28.368  33.803   7.650
 6361POPC   C1B27127  28.554  33.969   8.550
 6361POPC   C2B27128  28.552  33.977   8.250
 6361POPC   C3B27129  28.506  33.987   7.950
 6361POPC   C4B27130  28.532  33.992   7.650
 6362POPC   NC327131  34.594  13.674   9.450
 6362POPC   PO427132  34.615  13.609   9.150
 6362POPC   GL127133  34.620  13.658   8.850
 6362POPC   GL227134  34.509  13.545   8.850
 6362POPC   C1A27135  34.593  13.654   8.550
 6362POPC   D2A27136  34.585  13.607   8.250
 6362POPC   C3A27137  34.575  13.630   7.950
 6362POPC   C4A27138  34.603  13.630   7.650
 6362POPC   C1B27139  34.433  13.438   8.550
 6362POPC   C2B27140  34.440  13.398   8.250
 6362POPC   C3B27141  34.437  13.363   7.950
 6362POPC   C4B27142  34.499  13.435   7.650
 6363POPC   NC327143  15.148  35.385   9.450
 6363POPC   PO427144  15.174  35.343   9.150
 6363POPC   GL127145  15.208  35.388   8.850
 6363POPC   GL227146  15.325  35.354   8.850
 6363POPC   C1A27147  15.178  35.384   8.550
 6363POPC   D2A27148  15.130  35.369   8.250
 6363POPC   C3A27149  15.154  35.374   7.950
 6363POPC   C4A27150  15.160  35.398   7.650
 6363POPC   C1B27151  15.388  35.440   8.550
 6363POPC   C2B27152  15.373  35.411   8.250
 6363POPC   C3B27153  15.424  35.462   7.950
 6363POPC   C4B27154  15.454  35.384   7.650
 6364POPC   NC327155   5.051  15.923   9.450
 6364POPC   PO427156   5.045  15.988   9.150
 6364POPC   GL127157   5.048  15.957   8.850
 6364POPC   GL227158   5.178  16.063   8.850
 6364POPC   C1A27159   5.126  15.960   8.550
 6364POPC   D2A27160   5.124  15.995   8.250
 6364POPC   C3A27161   5.045  15.999   7.950
 6364POPC   C4A27162   5.100  16.002   7.650
 6364POPC   C1B27163   5.172  16.150   8.550
 6364POPC   C2B27164   5.176  16.176   8.250
 6364POPC   C3B27165   5.163  16.182   7.950
 6364POPC   C4B27166   5.217  16.225   7.650
 6365POPC   NC327167  15.908  11.259   9.450
 6365POPC   PO427168  15.982  11.306   9.150
 6365POPC   GL127169  15.977  11.333   8.850
 6365POPC   GL227170  15.948  11.433   8.850
 6365POPC   C1A27171  15.912  11.283   8.550
 6365POPC   D2A27172  15.945  11.263   8.250
 6365POPC   C3A27173  15.906  11.278   7.950
 6365POPC   C4A27174  15.964  11.271   7.650
 6365POPC   C1B27175  16.040  11.584   8.550
 6365POPC   C2B27176  16.007  11.581   8.250
 6365POPC   C3B27177  16.000  11.551   7.950
 6365POPC   C4B27178  16.042  11.512   7.650
 6366POPC   NC327179  29.095  42.384   9.450
 6366POPC   PO427180  29.161  42.376   9.150
 6366POPC   GL127181  29.189  42.338   8.850
 6366POPC   GL227182  29.300  42.299   8.850
 6366POPC   C1A27183  29.153  42.325   8.550
 6366POPC   D2A27184  29.166  42.382   8.250
 6366POPC   C3A27185  29.117  42.376   7.950
 6366POPC   C4A27186  29.149  42.357   7.650
 6366POPC   C1B27187  29.429  42.212   8.550
 6366POPC   C2B27188  29.377  42.239   8.250
 6366POPC   C3B27189  29.391  42.298   7.950
 6366POPC   C4B27190  29.425  42.275   7.650
 6367POPC   NC327191  33.751   2.020   9.450
 6367POPC   PO427192  33.817   1.988   9.150
 6367POPC   GL127193  33.844   1.975   8.850
 6367POPC   GL227194  33.858   2.068   8.850
 6367POPC   C1A27195  33.827   1.995   8.550
 6367POPC   D2A27196  33.764   2.013   8.250
 6367POPC   C3A27197  33.837   1.955   7.950
 6367POPC   C4A27198  33.777   1.990   7.650
 6367POPC   C1B27199  33.778   2.214   8.550
 6367POPC   C2B27200  33.816   2.273   8.250
 6367POPC   C3B27201  33.806   2.270   7.950
 6367POPC   C4B27202  33.833   2.266   7.650
 6368POPC   NC327203  17.518  40.746   9.450
 6368POPC   PO427204  17.507  40.753   9.150
 6368POPC   GL127205  17.555  40.758   8.850
 6368POPC   GL227206  17.489  40.713   8.850
 6368POPC   C1A27207  17.549  40.788   8.550
 6368POPC   D2A27208  17.524  40.819   8.250
 6368POPC   C3A27209  17.467  40.826   7.950
 6368POPC   C4A27210  17.487  40.786   7.650
 6368POPC   C1B27211  17.417  40.553   8.550
 6368POPC   C2B27212  17.423  40.545   8.250
 6368POPC   C3B27213  17.442  40.564   7.950
 6368POPC   C4B27214  17.379  40.583   7.650
 6369POPC   NC327215   9.786   1.257   9.450
 6369POPC   PO427216   9.712   1.245   9.150
 6369POPC   GL127217   9.744   1.179   8.850
 6369POPC   GL227218   9.831   1.276   8.850
 6369POPC   C1A27219   9.724   1.248   8.550
 6369POPC   D2A27220   9.764   1.172   8.250
 6369POPC   C3A27221   9.719   1.172   7.950
 6369POPC   C4A27222   9.789   1.255   7.650
 6369POPC   C1B27223   9.936   1.422   8.550
 6369POPC   C2B27224   9.881   1.351   8.250
 6369POPC   C3B27225   9.904   1.357   7.950
 6369POPC   C4B27226   9.918   1.380   7.650
 6370POPC   NC327227  12.835   2.810   9.450
 6370POPC   PO427228  12.807   2.778   9.150
 6370POPC   GL127229  12.900   2.734   8.850
 6370POPC   GL227230  12.724   2.632   8.850
 6370POPC   C1A27231  12.867   2.727   8.550
 6370POPC   D2A27232  12.900   2.756   8.250
 6370POPC   C3A27233  12.874   2.728   7.950
 6370POPC   C4A27234  12.853   2.722   7.650
 6370POPC   C1B27235  12.651   2.598   8.550
 6370POPC   C2B27236  12.702   2.604   8.250
 6370POPC   C3B27237  12.660   2.638   7.950
 6370POPC   C4B27238  12.656   2.605   7.650
 6371POPC   NC327239  43.075  30.714   9.450
 6371POPC   PO427240  43.104  30.722   9.150
 6371POPC   GL127241  43.105  30.741   8.850
 6371POPC   GL227242  43.073  30.819   8.850
 6371POPC   C1A27243  43.068  30.676   8.550
 6371POPC   D2A27244  43.111  30.658   8.250
 6371POPC   C3A27245  43.156  30.744   7.950
 6371POPC   C4A27246  43.109  30.665   7.650
 6371POPC   C1B27247  42.905  30.846   8.550
 6371POPC   C2B27248  42.976  30.918   8.250
 6371POPC   C3B27249  42.903  30.877   7.950
 6371POPC   C4B27250  42.934  30.857   7.650
 6372POPC   NC327251  19.864  16.738   9.450
 6372POPC   PO427252  19.877  16.751   9.150
 6372POPC   GL127253  19.864  16.689   8.850
 6372POPC   GL227254  19.719  16.626   8.850
 6372POPC   C1A27255  19.841  16.682   8.550
 6372POPC   D2A27256  19.796  16.702   8.250
 6372POPC   C3A27257  19.823  16.694   7.950
 6372POPC   C4A27258  19.867  16.766   7.650
 6372POPC   C1B27259  19.607  16.610   8.550
 6372POPC   C2B27260  19.640  16.560   8.250
 6372POPC   C3B27261  19.671  16.554   7.950
 6372POPC   C4B27262  19.652  16.558   7.650
 6373POPC   NC327263   8.943  36.176   9.450
 6373POPC   PO427264   8.955  36.099   9.150
 6373POPC   GL127265   8.958  36.087   8.850
 6373POPC   GL227266   8.866  36.049   8.850
 6373POPC   C1A27267   9.008  36.104   8.550
 6373POPC   D2A27268   8.943  36.115   8.250
 6373POPC   C3A27269   8.982  36.093   7.950
 6373POPC   C4A27270   8.924  36.139   7.650
 6373POPC   C1B27271   8.758  35.965   8.550
 6373POPC   C2B27272   8.799  36.044   8.250
 6373POPC   C3B27273   8.753  36.015   7.950
 6373POPC   C4B27274   8.782  36.042   7.650
 6374POPC   NC327275  33.791  24.508   9.450
 6374POPC   PO427276  33.759  24.524   9.150
 6374POPC   GL127277  33.776  24.482   8.850
 6374POPC   GL227278  33.855  24.380   8.850
 6374POPC   C1A27279  33.790  24.465   8.550
 6374POPC   D2A27280  33.772  24.452   8.250
 6374POPC   C3A27281  33.754  24.529   7.950
 6374POPC   C4A27282  33.764  24.513   7.650
 6374POPC   C1B27283  33.891  24.314   8.550
 6374POPC   C2B27284  33.957  24.248   8.250
 6374POPC   C3B27285  33.896  24.246   7.950
 6374POPC   C4B27286  33.906  24.229   7.650
 6375POPC   NC327287  43.129  26.777   9.450
 6375POPC   PO427288  43.082  26.780   9.150
 6375POPC   GL127289  43.125  26.863   8.850
 6375POPC   GL227290  43.277  26.804   8.850
 6375POPC   C1A27291  43.062  26.864   8.550
 6375POPC   D2A27292  43.078  26.770   8.250
 6375POPC   C3A27293  43.086  26.823   7.950
 6375POPC   C4A27294  43.116  26.839   7.650
 6375POPC   C1B27295  43.346  26.748   8.550
 6375POPC   C2B27296  43.309  26.703   8.250
 6375POPC   C3B27297  43.394  26.689   7.950
 6375POPC   C4B27298  43.380  26.774   7.650
 6376POPC   NC327299  15.998  27.629   9.450
 6376POPC   PO427300  15.945  27.544   9.150
 6376POPC   GL127301  15.928  27.595   8.850
 6376POPC   GL227302  16.093  27.545   8.850
 6376POPC   C1A27303  15.992  27.547   8.550
 6376POPC   D2A27304  15.990  27.561   8.250
 6376POPC   C3A27305  15.927  27.544   7.950
 6376POPC   C4A27306  15.978  27.597   7.650
 6376POPC   C1B27307  16.191  27.440   8.550
 6376POPC   C2B27308  16.170  27.503   8.250
 6376POPC   C3B27309  16.126  27.484   7.950
 6376POPC   C4B27310  16.218  27.504   7.650
 6377POPC   NC327311  14.420   8.238   9.450
 6377POPC   PO427312  14.450   8.228   9.150
 6377POPC   GL127313  14.405   8.190   8.850
 6377POPC   GL227314  14.471   8.122   8.850
 6377POPC   C1A27315  14.423   8.159   8.550
 6377POPC   D2A27316  14.354   8.154   8.250
 6377POPC   C3A27317  14.405   8.245   7.950
 6377POPC   C4A27318  14.412   8.174   7.650
 6377POPC   C1B27319  14.589   8.114   8.550
 6377POPC   C2B27320  14.626   8.061   8.250
 6377POPC   C3B27321  14.648   8.108   7.950
 6377POPC   C4B27322  14.656   8.058   7.650
 6378POPC   NC327323  38.431  33.827   9.450
 6378POPC   PO427324  38.431  33.756   9.150
 6378POPC   GL127325  38.430  33.827   8.850
 6378POPC   GL227326  38.326  33.795   8.850
 6378POPC   C1A27327  38.467  33.778   8.550
 6378POPC   D2A27328  38.417  33.796   8.250
 6378POPC   C3A27329  38.490  33.822   7.950
 6378POPC   C4A27330  38.498  33.760   7.650
 6378POPC   C1B27331  38.192  33.816   8.550
 6378POPC   C2B27332  38.248  33.734   8.250
 6378POPC   C3B27333  38.174  33.745   7.950
 6378POPC   C4B27334  38.237  33.745   7.650
 6379POPC   NC327335  43.100  34.579   9.450
 6379POPC   PO427336  43.133  34.531   9.150
 6379POPC   GL127337  43.063  34.624   8.850
 6379POPC   GL227338  43.207  34.608   8.850
 6379POPC   C1A27339  43.144  34.622   8.550
 6379POPC   D2A27340  43.121  34.591   8.250
 6379POPC   C3A27341  43.160  34.528   7.950
 6379POPC   C4A27342  43.064  34.558   7.650
 6379POPC   C1B27343  43.375  34.655   8.550
 6379POPC   C2B27344  43.407  34.634   8.250
 6379POPC   C3B27345  43.340  34.599   7.950
 6379POPC   C4B27346  43.359  34.609   7.650
 6380POPC   NC327347  29.933  40.002   9.450
 6380POPC   PO427348  29.892  39.986   9.150
 6380POPC   GL127349  29.892  39.977   8.850
 6380POPC   GL227350  29.991  40.083   8.850
 6380POPC   C1A27351  29.938  40.054   8.550
 6380POPC   D2A27352  29.886  40.053   8.250
 6380POPC   C3A27353  29.952  40.007   7.950
 6380POPC   C4A27354  29.891  40.053   7.650
 6380POPC   C1B27355  30.185  40.139   8.550
 6380POPC   C2B27356  30.144  40.065   8.250
 6380POPC   C3B27357  30.141  40.074   7.950
 6380POPC   C4B27358  30.154  40.136   7.650
 6381POPC   NC327359  44.677  22.934   9.450
 6381POPC   PO427360  44.706  22.974   9.150
 6381POPC   GL127361  44.675  22.919   8.850
 6381POPC   GL227362  44.660  22.830   8.850
 6381POPC   C1A27363  44.617  22.914   8.550
 6381POPC   D2A27364  44.627  22.903   8.250
 6381POPC   C3A27365  44.645  22.919   7.950
 6381POPC   C4A27366  44.711  22.888   7.650
 6381POPC   C1B27367  44.629  22.705   8.550
 6381POPC   C2B27368  44.603  22.741   8.250
 6381POPC   C3B27369  44.624  22.665   7.950
 6381POPC   C4B27370  44.631  22.727   7.650
 6382POPC   NC327371  36.941   8.236   9.450
 6382POPC   PO427372  36.875   8.197   9.150
 6382POPC   GL127373  36.928   8.236   8.850
 6382POPC   GL227374  36.985   8.339   8.850
 6382POPC   C1A27375  36.902   8.148   8.550
 6382POPC   D2A27376  36.889   8.235   8.250
 6382POPC   C3A27377  36.902   8.238   7.950
 6382POPC   C4A27378  36.886   8.205   7.650
 6382POPC   C1B27379  37.027   8.387   8.550
 6382POPC   C2B27380  37.066   8.451   8.250
 6382POPC   C3B27381  37.015   8.380   7.950
 6382POPC   C4B27382  37.011   8.416   7.650
 6383POPC   NC327383  10.510  12.884   9.450
 6383POPC   PO427384  10.546  12.815   9.150
 6383POPC   GL127385  10.512  12.825   8.850
 6383POPC   GL227386  10.395  12.872   8.850
 6383POPC   C1A27387  10.565  12.810   8.550
 6383POPC   D2A27388  10.532  12.849   8.250
 6383POPC   C3A27389  10.475  12.891   7.950
 6383POPC   C4A27390  10.489  12.805   7.650
 6383POPC   C1B27391  10.256  12.949   8.550
 6383POPC   C2B27392  10.285  12.869   8.250
 6383POPC   C3B27393  10.285  12.891   7.950
 6383POPC   C4B27394  10.323  12.874   7.650
 6384POPC   NC327395  41.568  32.285   9.450
 6384POPC   PO427396  41.522  32.281   9.150
 6384POPC   GL127397  41.592  32.287   8.850
 6384POPC   GL227398  41.669  32.187   8.850
 6384POPC   C1A27399  41.553  32.246   8.550
 6384POPC   D2A27400  41.566  32.277   8.250
 6384POPC   C3A27401  41.527  32.285   7.950
 6384POPC   C4A27402  41.560  32.216   7.650
 6384POPC   C1B27403  41.804  32.206   8.550
 6384POPC   C2B27404  41.819  32.169   8.250
 6384POPC   C3B27405  41.846  32.204   7.950
 6384POPC   C4B27406  41.851  32.224   7.650
 6385POPC   NC327407   7.421  38.497   9.450
 6385POPC   PO427408   7.463  38.501   9.150
 6385POPC   GL127409   7.465  38.447   8.850
 6385POPC   GL227410   7.505  38.384   8.850
 6385POPC   C1A27411   7.434  38.493   8.550
 6385POPC   D2A27412   7.428  38.428   8.250
 6385POPC   C3A27413   7.447  38.442   7.950
 6385POPC   C4A27414   7.423  38.439   7.650
 6385POPC   C1B27415   7.659  38.385   8.550
 6385POPC   C2B27416   7.668  38.386   8.250
 6385POPC   C3B27417   7.651  38.322   7.950
 6385POPC   C4B27418   7.615  38.383   7.650
 6386POPC   NC327419  31.477  37.701   9.450
 6386POPC   PO427420  31.471  37.647   9.150
 6386POPC   GL127421  31.519  37.678   8.850
 6386POPC   GL227422  31.438  37.754   8.850
 6386POPC   C1A27423  31.427  37.710   8.550
 6386POPC   D2A27424  31.440  37.630   8.250
 6386POPC   C3A27425  31.479  37.635   7.950
 6386POPC   C4A27426  31.477  37.649   7.650
 6386POPC   C1B27427  31.426  37.894   8.550
 6386POPC   C2B27428  31.369  37.910   8.250
 6386POPC   C3B27429  31.435  37.875   7.950
 6386POPC   C4B27430  31.421  37.873   7.650
 6387POPC   NC327431  15.190  26.087   9.450
 6387POPC   PO427432  15.228  26.042   9.150
 6387POPC   GL127433  15.138  26.056   8.850
 6387POPC   GL227434  15.232  25.968   8.850
 6387POPC   C1A27435  15.195  26.003   8.550
 6387POPC   D2A27436  15.196  26.005   8.250
 6387POPC   C3A27437  15.225  26.024   7.950
 6387POPC   C4A27438  15.175  26.006   7.650
 6387POPC   C1B27439  15.223  25.756   8.550
 6387POPC   C2B27440  15.289  25.768   8.250
 6387POPC   C3B27441  15.254  25.776   7.950
 6387POPC   C4B27442  15.280  25.776   7.650
 6388POPC   NC327443  41.543  17.520   9.450
 6388POPC   PO427444  41.588  17.546   9.150
 6388POPC   GL127445  41.577  17.534   8.850
 6388POPC   GL227446  41.515  17.467   8.850
 6388POPC   C1A27447  41.554  17.546   8.550
 6388POPC   D2A27448  41.537  17.531   8.250
 6388POPC   C3A27449  41.563  17.528   7.950
 6388POPC   C4A27450  41.604  17.474   7.650
 6388POPC   C1B27451  41.405  17.335   8.550
 6388POPC   C2B27452  41.417  17.371   8.250
 6388POPC   C3B27453  41.335  17.326   7.950
 6388POPC   C4B27454  41.378  17.307   7.650
 6389POPC   NC327455  24.480   0.407   9.450
 6389POPC   PO427456  24.526   0.443   9.150
 6389POPC   GL127457  24.491   0.392   8.850
 6389POPC   GL227458  24.404   0.563   8.850
 6389POPC   C1A27459  24.447   0.410   8.550
 6389POPC   D2A27460  24.499   0.487   8.250
 6389POPC   C3A27461  24.506   0.429   7.950
 6389POPC   C4A27462  24.518   0.463   7.650
 6389POPC   C1B27463  24.412   0.647   8.550
 6389POPC   C2B27464  24.434   0.638   8.250
 6389POPC   C3B27465  24.432   0.676   7.950
 6389POPC   C4B27466  24.404   0.703   7.650
 6390POPC   NC327467  21.418  43.088   9.450
 6390POPC   PO427468  21.388  43.114   9.150
 6390POPC   GL127469  21.359  43.061   8.850
 6390POPC   GL227470  21.284  42.986   8.850
 6390POPC   C1A27471  21.390  43.093   8.550
 6390POPC   D2A27472  21.424  43.143   8.250
 6390POPC   C3A27473  21.432  43.148   7.950
 6390POPC   C4A27474  21.414  43.104   7.650
 6390POPC   C1B27475  21.204  42.975   8.550
 6390POPC   C2B27476  21.162  42.897   8.250
 6390POPC   C3B27477  21.213  42.993   7.950
 6390POPC   C4B27478  21.194  42.961   7.650
 6391POPC   NC327479  13.613  36.169   9.450
 6391POPC   PO427480  13.634  36.078   9.150
 6391POPC   GL127481  13.635  36.098   8.850
 6391POPC   GL227482  13.612  36.288   8.850
 6391POPC   C1A27483  13.629  36.085   8.550
 6391POPC   D2A27484  13.644  36.127   8.250
 6391POPC   C3A27485  13.659  36.093   7.950
 6391POPC   C4A27486  13.670  36.114   7.650
 6391POPC   C1B27487  13.711  36.334   8.550
 6391POPC   C2B27488  13.659  36.387   8.250
 6391POPC   C3B27489  13.656  36.368   7.950
 6391POPC   C4B27490  13.724  36.387   7.650
 6392POPC   NC327491  29.888  38.451   9.450
 6392POPC   PO427492  29.871  38.422   9.150
 6392POPC   GL127493  29.922  38.466   8.850
 6392POPC   GL227494  29.892  38.343   8.850
 6392POPC   C1A27495  29.917  38.492   8.550
 6392POPC   D2A27496  29.904  38.447   8.250
 6392POPC   C3A27497  29.880  38.431   7.950
 6392POPC   C4A27498  29.911  38.485   7.650
 6392POPC   C1B27499  29.911  38.186   8.550
 6392POPC   C2B27500  29.908  38.184   8.250
 6392POPC   C3B27501  29.881  38.235   7.950
 6392POPC   C4B27502  29.879  38.229   7.650
 6393POPC   NC327503  33.004   1.202   9.450
 6393POPC   PO427504  33.000   1.178   9.150
 6393POPC   GL127505  32.977   1.201   8.850
 6393POPC   GL227506  32.888   1.276   8.850
 6393POPC   C1A27507  33.054   1.201   8.550
 6393POPC   D2A27508  33.059   1.214   8.250
 6393POPC   C3A27509  33.054   1.216   7.950
 6393POPC   C4A27510  33.019   1.239   7.650
 6393POPC   C1B27511  32.742   1.298   8.550
 6393POPC   C2B27512  32.818   1.333   8.250
 6393POPC   C3B27513  32.791   1.263   7.950
 6393POPC   C4B27514  32.752   1.338   7.650
 6394POPC   NC327515   2.728  11.308   9.450
 6394POPC   PO427516   2.771  11.302   9.150
 6394POPC   GL127517   2.785  11.345   8.850
 6394POPC   GL227518   2.628  11.295   8.850
 6394POPC   C1A27519   2.777  11.349   8.550
 6394POPC   D2A27520   2.742  11.302   8.250
 6394POPC   C3A27521   2.718  11.262   7.950
 6394POPC   C4A27522   2.751  11.308   7.650
 6394POPC   C1B27523   2.556  11.212   8.550
 6394POPC   C2B27524   2.569  11.224   8.250
 6394POPC   C3B27525   2.521  11.250   7.950
 6394POPC   C4B27526   2.495  11.230   7.650
 6395POPC   NC327527   2.781  37.709   9.450
 6395POPC   PO427528   2.733  37.685   9.150
 6395POPC   GL127529   2.766  37.649   8.850
 6395POPC   GL227530   2.762  37.761   8.850
 6395POPC   C1A27531   2.736  37.705   8.550
 6395POPC   D2A27532   2.790  37.710   8.250
 6395POPC   C3A27533   2.798  37.714   7.950
 6395POPC   C4A27534   2.806  37.649   7.650
 6395POPC   C1B27535   2.655  37.880   8.550
 6395POPC   C2B27536   2.655  37.958   8.250
 6395POPC   C3B27537   2.662  37.898   7.950
 6395POPC   C4B27538   2.627  37.861   7.650
 6396POPC   NC327539  42.368   0.408   9.450
 6396POPC   PO427540  42.295   0.431   9.150
 6396POPC   GL127541  42.357   0.478   8.850
 6396POPC   GL227542  42.448   0.471   8.850
 6396POPC   C1A27543  42.358   0.431   8.550
 6396POPC   D2A27544  42.291   0.451   8.250
 6396POPC   C3A27545  42.363   0.469   7.950
 6396POPC   C4A27546  42.337   0.470   7.650
 6396POPC   C1B27547  42.549   0.574   8.550
 6396POPC   C2B27548  42.519   0.649   8.250
 6396POPC   C3B27549  42.503   0.638   7.950
 6396POPC   C4B27550  42.523   0.586   7.650
 6397POPC   NC327551  39.241  14.420   9.450
 6397POPC   PO427552  39.203  14.379   9.150
 6397POPC   GL127553  39.250  14.386   8.850
 6397POPC   GL227554  39.128  14.490   8.850
 6397POPC   C1A27555  39.247  14.359   8.550
 6397POPC   D2A27556  39.241  14.443   8.250
 6397POPC   C3A27557  39.222  14.354   7.950
 6397POPC   C4A27558  39.223  14.441   7.650
 6397POPC   C1B27559  39.006  14.567   8.550
 6397POPC   C2B27560  39.026  14.603   8.250
 6397POPC   C3B27561  39.057  14.529   7.950
 6397POPC   C4B27562  39.051  14.569   7.650
 6398POPC   NC327563  25.993  42.321   9.450
 6398POPC   PO427564  26.055  42.369   9.150
 6398POPC   GL127565  25.992  42.325   8.850
 6398POPC   GL227566  26.079  42.238   8.850
 6398POPC   C1A27567  26.050  42.329   8.550
 6398POPC   D2A27568  26.070  42.352   8.250
 6398POPC   C3A27569  26.055  42.312   7.950
 6398POPC   C4A27570  26.060  42.314   7.650
 6398POPC   C1B27571  26.196  42.152   8.550
 6398POPC   C2B27572  26.157  42.149   8.250
 6398POPC   C3B27573  26.150  42.138   7.950
 6398POPC   C4B27574  26.199  42.137   7.650
 6399POPC   NC327575   9.741  39.982   9.450
 6399POPC   PO427576   9.750  39.961   9.150
 6399POPC   GL127577   9.763  39.993   8.850
 6399POPC   GL227578   9.733  39.905   8.850
 6399POPC   C1A27579   9.738  39.986   8.550
 6399POPC   D2A27580   9.785  40.037   8.250
 6399POPC   C3A27581   9.721  39.989   7.950
 6399POPC   C4A27582   9.795  40.021   7.650
 6399POPC   C1B27583   9.651  39.809   8.550
 6399POPC   C2B27584   9.644  39.789   8.250
 6399POPC   C3B27585   9.676  39.813   7.950
 6399POPC   C4B27586   9.670  39.780   7.650
 6400POPC   NC327587  25.289  17.457   9.450
 6400POPC   PO427588  25.313  17.495   9.150
 6400POPC   GL127589  25.252  17.551   8.850
 6400POPC   GL227590  25.139  17.506   8.850
 6400POPC   C1A27591  25.259  17.536   8.550
 6400POPC   D2A27592  25.257  17.517   8.250
 6400POPC   C3A27593  25.309  17.554   7.950
 6400POPC   C4A27594  25.297  17.496   7.650
 6400POPC   C1B27595  24.985  17.598   8.550
 6400POPC   C2B27596  25.010  17.636   8.250
 6400POPC   C3B27597  25.000  17.640   7.950
 6400POPC   C4B27598  25.035  17.596   7.650
 6401POPC   NC327599  15.991  40.043   9.450
 6401POPC   PO427600  15.942  40.053   9.150
 6401POPC   GL127601  15.917  40.050   8.850
 6401POPC   GL227602  15.873  40.152   8.850
 6401POPC   C1A27603  15.980  39.968   8.550
 6401POPC   D2A27604  15.990  39.965   8.250
 6401POPC   C3A27605  15.951  40.033   7.950
 6401POPC   C4A27606  15.982  40.018   7.650
 6401POPC   C1B27607  15.823  40.194   8.550
 6401POPC   C2B27608  15.807  40.250   8.250
 6401POPC   C3B27609  15.791  40.160   7.950
 6401POPC   C4B27610  15.798  40.211   7.650
 6402POPC   NC327611   5.075  24.462   9.450
 6402POPC   PO427612   5.114  24.465   9.150
 6402POPC   GL127613   5.095  24.442   8.850
 6402POPC   GL227614   5.003  24.597   8.850
 6402POPC   C1A27615   5.138  24.482   8.550
 6402POPC   D2A27616   5.086  24.486   8.250
 6402POPC   C3A27617   5.100  24.518   7.950
 6402POPC   C4A27618   5.143  24.520   7.650
 6402POPC   C1B27619   4.956  24.699   8.550
 6402POPC   C2B27620   4.927  24.663   8.250
 6402POPC   C3B27621   4.984  24.665   7.950
 6402POPC   C4B27622   4.952  24.714   7.650
 6403POPC   NC327623  40.000  22.155   9.450
 6403POPC   PO427624  39.963  22.181   9.150
 6403POPC   GL127625  40.016  22.209   8.850
 6403POPC   GL227626  39.903  22.249   8.850
 6403POPC   C1A27627  39.970  22.179   8.550
 6403POPC   D2A27628  40.030  22.137   8.250
 6403POPC   C3A27629  40.036  22.212   7.950
 6403POPC   C4A27630  39.977  22.202   7.650
 6403POPC   C1B27631  39.753  22.212   8.550
 6403POPC   C2B27632  39.789  22.263   8.250
 6403POPC   C3B27633  39.757  22.266   7.950
 6403POPC   C4B27634  39.791  22.284   7.650
 6404POPC   NC327635  13.627  38.493   9.450
 6404POPC   PO427636  13.598  38.425   9.150
 6404POPC   GL127637  13.617  38.420   8.850
 6404POPC   GL227638  13.553  38.453   8.850
 6404POPC   C1A27639  13.664  38.493   8.550
 6404POPC   D2A27640  13.597  38.471   8.250
 6404POPC   C3A27641  13.677  38.491   7.950
 6404POPC   C4A27642  13.585  38.480   7.650
 6404POPC   C1B27643  13.349  38.493   8.550
 6404POPC   C2B27644  13.393  38.489   8.250
 6404POPC   C3B27645  13.394  38.517   7.950
 6404POPC   C4B27646  13.402  38.497   7.650
 6405POPC   NC327647  10.552  22.964   9.450
 6405POPC   PO427648  10.482  22.987   9.150
 6405POPC   GL127649  10.496  22.952   8.850
 6405POPC   GL227650  10.503  22.790   8.850
 6405POPC   C1A27651  10.505  22.899   8.550
 6405POPC   D2A27652  10.538  22.937   8.250
 6405POPC   C3A27653  10.570  22.974   7.950
 6405POPC   C4A27654  10.506  22.987   7.650
 6405POPC   C1B27655  10.424  22.664   8.550
 6405POPC   C2B27656  10.395  22.654   8.250
 6405POPC   C3B27657  10.415  22.679   7.950
 6405POPC   C4B27658  10.431  22.711   7.650
 6406POPC   NC327659   2.735  19.042   9.450
 6406POPC   PO427660   2.741  19.062   9.150
 6406POPC   GL127661   2.811  19.061   8.850
 6406POPC   GL227662   2.659  19.096   8.850
 6406POPC   C1A27663   2.724  19.075   8.550
 6406POPC   D2A27664   2.738  19.085   8.250
 6406POPC   C3A27665   2.785  19.079   7.950
 6406POPC   C4A27666   2.734  19.072   7.650
 6406POPC   C1B27667   2.518  19.209   8.550
 6406POPC   C2B27668   2.557  19.176   8.250
 6406POPC   C3B27669   2.515  19.153   7.950
 6406POPC   C4B27670   2.569  19.202   7.650
 6407POPC   NC327671   5.141   2.792   9.450
 6407POPC   PO427672   5.100   2.799   9.150
 6407POPC   GL127673   5.046   2.788   8.850
 6407POPC   GL227674   5.145   2.673   8.850
 6407POPC   C1A27675   5.107   2.721   8.550
 6407POPC   D2A27676   5.089   2.722   8.250
 6407POPC   C3A27677   5.088   2.784   7.950
 6407POPC   C4A27678   5.130   2.717   7.650
 6407POPC   C1B27679   5.165   2.480   8.550
 6407POPC   C2B27680   5.216   2.503   8.250
 6407POPC   C3B27681   5.187   2.562   7.950
 6407POPC   C4B27682   5.137   2.497   7.650
 6408POPC   NC327683  19.883  25.996   9.450
 6408POPC   PO427684  19.795  26.014   9.150
 6408POPC   GL127685  19.868  26.027   8.850
 6408POPC   GL227686  19.911  26.163   8.850
 6408POPC   C1A27687  19.805  26.084   8.550
 6408POPC   D2A27688  19.793  25.995   8.250
 6408POPC   C3A27689  19.793  26.044   7.950
 6408POPC   C4A27690  19.828  26.079   7.650
 6408POPC   C1B27691  19.889  26.306   8.550
 6408POPC   C2B27692  19.891  26.298   8.250
 6408POPC   C3B27693  19.893  26.300   7.950
 6408POPC   C4B27694  19.915  26.238   7.650
 6409POPC   NC327695  11.263  28.324   9.450
 6409POPC   PO427696  11.287  28.390   9.150
 6409POPC   GL127697  11.291  28.362   8.850
 6409POPC   GL227698  11.254  28.289   8.850
 6409POPC   C1A27699  11.274  28.399   8.550
 6409POPC   D2A27700  11.337  28.340   8.250
 6409POPC   C3A27701  11.329  28.406   7.950
 6409POPC   C4A27702  11.323  28.326   7.650
 6409POPC   C1B27703  11.130  28.180   8.550
 6409POPC   C2B27704  11.126  28.112   8.250
 6409POPC   C3B27705  11.128  28.144   7.950
 6409POPC   C4B27706  11.150  28.181   7.650
 6410POPC   NC327707   9.798   0.441   9.450
 6410POPC   PO427708   9.748   0.482   9.150
 6410POPC   GL127709   9.724   0.444   8.850
 6410POPC   GL227710   9.852   0.379   8.850
 6410POPC   C1A27711   9.723   0.396   8.550
 6410POPC   D2A27712   9.734   0.389   8.250
 6410POPC   C3A27713   9.733   0.408   7.950
 6410POPC   C4A27714   9.723   0.395   7.650
 6410POPC   C1B27715   9.873   0.269   8.550
 6410POPC   C2B27716   9.936   0.255   8.250
 6410POPC   C3B27717   9.861   0.187   7.950
 6410POPC   C4B27718   9.892   0.198   7.650
 6411POPC   NC327719  15.964  38.482   9.450
 6411POPC   PO427720  15.976  38.429   9.150
 6411POPC   GL127721  15.980  38.414   8.850
 6411POPC   GL227722  15.790  38.461   8.850
 6411POPC   C1A27723  15.915  38.431   8.550
 6411POPC   D2A27724  15.961  38.449   8.250
 6411POPC   C3A27725  15.942  38.445   7.950
 6411POPC   C4A27726  15.965  38.425   7.650
 6411POPC   C1B27727  15.659  38.448   8.550
 6411POPC   C2B27728  15.741  38.448   8.250
 6411POPC   C3B27729  15.709  38.459   7.950
 6411POPC   C4B27730  15.748  38.448   7.650
 6412POPC   NC327731  30.658  24.464   9.450
 6412POPC   PO427732  30.656  24.518   9.150
 6412POPC   GL127733  30.660  24.505   8.850
 6412POPC   GL227734  30.641  24.606   8.850
 6412POPC   C1A27735  30.673  24.484   8.550
 6412POPC   D2A27736  30.724  24.517   8.250
 6412POPC   C3A27737  30.694  24.451   7.950
 6412POPC   C4A27738  30.706  24.443   7.650
 6412POPC   C1B27739  30.520  24.653   8.550
 6412POPC   C2B27740  30.509  24.625   8.250
 6412POPC   C3B27741  30.496  24.668   7.950
 6412POPC   C4B27742  30.529  24.597   7.650
 6413POPC   NC327743  26.853  42.313   9.450
 6413POPC   PO427744  26.769  42.337   9.150
 6413POPC   GL127745  26.804  42.369   8.850
 6413POPC   GL227746  26.895  42.388   8.850
 6413POPC   C1A27747  26.862  42.375   8.550
 6413POPC   D2A27748  26.846  42.317   8.250
 6413POPC   C3A27749  26.768  42.338   7.950
 6413POPC   C4A27750  26.798  42.382   7.650
 6413POPC   C1B27751  26.998  42.438   8.550
 6413POPC   C2B27752  27.016  42.473   8.250
 6413POPC   C3B27753  26.997  42.507   7.950
 6413POPC   C4B27754  26.994  42.478   7.650
 6414POPC   NC327755  17.468  21.392   9.450
 6414POPC   PO427756  17.533  21.360   9.150
 6414POPC   GL127757  17.537  21.338   8.850
 6414POPC   GL227758  17.365  21.410   8.850
 6414POPC   C1A27759  17.493  21.432   8.550
 6414POPC   D2A27760  17.545  21.343   8.250
 6414POPC   C3A27761  17.515  21.363   7.950
 6414POPC   C4A27762  17.549  21.379   7.650
 6414POPC   C1B27763  17.292  21.535   8.550
 6414POPC   C2B27764  17.255  21.550   8.250
 6414POPC   C3B27765  17.297  21.550   7.950
 6414POPC   C4B27766  17.340  21.486   7.650
 6415POPC   NC327767  24.525  28.379   9.450
 6415POPC   PO427768  24.514  28.411   9.150
 6415POPC   GL127769  24.447  28.385   8.850
 6415POPC   GL227770  24.526  28.447   8.850
 6415POPC   C1A27771  24.502  28.326   8.550
 6415POPC   D2A27772  24.466  28.405   8.250
 6415POPC   C3A27773  24.495  28.386   7.950
 6415POPC   C4A27774  24.490  28.400   7.650
 6415POPC   C1B27775  24.612  28.610   8.550
 6415POPC   C2B27776  24.601  28.633   8.250
 6415POPC   C3B27777  24.592  28.601   7.950
 6415POPC   C4B27778  24.566  28.578   7.650
 6416POPC   NC327779  40.022  33.030   9.450
 6416POPC   PO427780  39.979  33.006   9.150
 6416POPC   GL127781  39.959  32.988   8.850
 6416POPC   GL227782  40.006  33.109   8.850
 6416POPC   C1A27783  39.965  33.025   8.550
 6416POPC   D2A27784  39.969  33.051   8.250
 6416POPC   C3A27785  39.967  33.047   7.950
 6416POPC   C4A27786  39.990  33.004   7.650
 6416POPC   C1B27787  39.987  33.238   8.550
 6416POPC   C2B27788  39.924  33.285   8.250
 6416POPC   C3B27789  39.951  33.302   7.950
 6416POPC   C4B27790  39.908  33.301   7.650
 6417POPC   NC327791   1.233  17.508   9.450
 6417POPC   PO427792   1.224  17.545   9.150
 6417POPC   GL127793   1.183  17.489   8.850
 6417POPC   GL227794   1.237  17.367   8.850
 6417POPC   C1A27795   1.169  17.534   8.550
 6417POPC   D2A27796   1.220  17.553   8.250
 6417POPC   C3A27797   1.169  17.477   7.950
 6417POPC   C4A27798   1.209  17.466   7.650
 6417POPC   C1B27799   1.290  17.255   8.550
 6417POPC   C2B27800   1.233  17.284   8.250
 6417POPC   C3B27801   1.251  17.278   7.950
 6417POPC   C4B27802   1.254  17.297   7.650
 6418POPC   NC327803   7.397   2.787   9.450
 6418POPC   PO427804   7.420   2.807   9.150
 6418POPC   GL127805   7.420   2.731   8.850
 6418POPC   GL227806   7.473   2.893   8.850
 6418POPC   C1A27807   7.423   2.796   8.550
 6418POPC   D2A27808   7.374   2.721   8.250
 6418POPC   C3A27809   7.397   2.788   7.950
 6418POPC   C4A27810   7.440   2.726   7.650
 6418POPC   C1B27811   7.538   2.948   8.550
 6418POPC   C2B27812   7.541   2.955   8.250
 6418POPC   C3B27813   7.568   2.999   7.950
 6418POPC   C4B27814   7.555   3.015   7.650
 6419POPC   NC327815  39.202  31.470   9.450
 6419POPC   PO427816  39.209  31.467   9.150
 6419POPC   GL127817  39.234  31.491   8.850
 6419POPC   GL227818  39.215  31.323   8.850
 6419POPC   C1A27819  39.279  31.499   8.550
 6419POPC   D2A27820  39.246  31.482   8.250
 6419POPC   C3A27821  39.214  31.463   7.950
 6419POPC   C4A27822  39.188  31.430   7.650
 6419POPC   C1B27823  39.090  31.254   8.550
 6419POPC   C2B27824  39.122  31.268   8.250
 6419POPC   C3B27825  39.082  31.279   7.950
 6419POPC   C4B27826  39.124  31.288   7.650
 6420POPC   NC327827  37.691  36.916   9.450
 6420POPC   PO427828  37.658  36.950   9.150
 6420POPC   GL127829  37.720  36.932   8.850
 6420POPC   GL227830  37.592  36.850   8.850
 6420POPC   C1A27831  37.630  36.916   8.550
 6420POPC   D2A27832  37.718  36.941   8.250
 6420POPC   C3A27833  37.727  36.901   7.950
 6420POPC   C4A27834  37.645  36.917   7.650
 6420POPC   C1B27835  37.473  36.779   8.550
 6420POPC   C2B27836  37.417  36.821   8.250
 6420POPC   C3B27837  37.428  36.780   7.950
 6420POPC   C4B27838  37.454  36.788   7.650
 6421POPC   NC327839  14.393  40.824   9.450
 6421POPC   PO427840  14.365  40.770   9.150
 6421POPC   GL127841  14.407  40.802   8.850
 6421POPC   GL227842  14.445  40.848   8.850
 6421POPC   C1A27843  14.417  40.758   8.550
 6421POPC   D2A27844  14.413  40.798   8.250
 6421POPC   C3A27845  14.364  40.823   7.950
 6421POPC   C4A27846  14.402  40.771   7.650
 6421POPC   C1B27847  14.520  40.980   8.550
 6421POPC   C2B27848  14.510  41.021   8.250
 6421POPC   C3B27849  14.542  41.009   7.950
 6421POPC   C4B27850  14.541  40.948   7.650
 6422POPC   NC327851  37.671  29.176   9.450
 6422POPC   PO427852  37.685  29.164   9.150
 6422POPC   GL127853  37.719  29.141   8.850
 6422POPC   GL227854  37.562  29.216   8.850
 6422POPC   C1A27855  37.713  29.131   8.550
 6422POPC   D2A27856  37.634  29.176   8.250
 6422POPC   C3A27857  37.650  29.119   7.950
 6422POPC   C4A27858  37.664  29.136   7.650
 6422POPC   C1B27859  37.472  29.279   8.550
 6422POPC   C2B27860  37.504  29.260   8.250
 6422POPC   C3B27861  37.446  29.271   7.950
 6422POPC   C4B27862  37.440  29.317   7.650
 6423POPC   NC327863  44.644  33.782   9.450
 6423POPC   PO427864  44.711  33.767   9.150
 6423POPC   GL127865  44.676  33.802   8.850
 6423POPC   GL227866  44.607  33.653   8.850
 6423POPC   C1A27867  44.676  33.797   8.550
 6423POPC   D2A27868  44.681  33.826   8.250
 6423POPC   C3A27869  44.620  33.766   7.950
 6423POPC   C4A27870  44.675  33.849   7.650
 6423POPC   C1B27871  44.646  33.511   8.550
 6423POPC   C2B27872  44.656  33.581   8.250
 6423POPC   C3B27873  44.639  33.550   7.950
 6423POPC   C4B27874  44.624  33.507   7.650
 6424POPC   NC327875   9.751  42.362   9.450
 6424POPC   PO427876   9.711  42.361   9.150
 6424POPC   GL127877   9.761  42.376   8.850
 6424POPC   GL227878   9.653  42.193   8.850
 6424POPC   C1A27879   9.705  42.328   8.550
 6424POPC   D2A27880   9.736  42.321   8.250
 6424POPC   C3A27881   9.711  42.298   7.950
 6424POPC   C4A27882   9.767  42.305   7.650
 6424POPC   C1B27883   9.606  42.139   8.550
 6424POPC   C2B27884   9.589  42.170   8.250
 6424POPC   C3B27885   9.577  42.179   7.950
 6424POPC   C4B27886   9.637  42.130   7.650
 6425POPC   NC327887  13.644  28.326   9.450
 6425POPC   PO427888  13.625  28.348   9.150
 6425POPC   GL127889  13.662  28.330   8.850
 6425POPC   GL227890  13.526  28.321   8.850
 6425POPC   C1A27891  13.659  28.389   8.550
 6425POPC   D2A27892  13.610  28.396   8.250
 6425POPC   C3A27893  13.666  28.350   7.950
 6425POPC   C4A27894  13.650  28.339   7.650
 6425POPC   C1B27895  13.339  28.350   8.550
 6425POPC   C2B27896  13.404  28.386   8.250
 6425POPC   C3B27897  13.333  28.343   7.950
 6425POPC   C4B27898  13.339  28.343   7.650
 6426POPC   NC327899   3.590  25.993   9.450
 6426POPC   PO427900   3.566  26.090   9.150
 6426POPC   GL127901   3.545  26.024   8.850
 6426POPC   GL227902   3.388  26.040   8.850
 6426POPC   C1A27903   3.501  26.009   8.550
 6426POPC   D2A27904   3.585  26.058   8.250
 6426POPC   C3A27905   3.510  26.075   7.950
 6426POPC   C4A27906   3.586  26.021   7.650
 6426POPC   C1B27907   3.294  26.018   8.550
 6426POPC   C2B27908   3.265  26.011   8.250
 6426POPC   C3B27909   3.300  26.016   7.950
 6426POPC   C4B27910   3.305  26.046   7.650
 6427POPC   NC327911  29.888  19.053   9.450
 6427POPC   PO427912  29.900  19.075   9.150
 6427POPC   GL127913  29.911  19.033   8.850
 6427POPC   GL227914  29.850  18.900   8.850
 6427POPC   C1A27915  29.876  19.104   8.550
 6427POPC   D2A27916  29.952  19.099   8.250
 6427POPC   C3A27917  29.924  19.072   7.950
 6427POPC   C4A27918  29.963  19.051   7.650
 6427POPC   C1B27919  29.817  18.851   8.550
 6427POPC   C2B27920  29.820  18.872   8.250
 6427POPC   C3B27921  29.817  18.813   7.950
 6427POPC   C4B27922  29.771  18.857   7.650
 6428POPC   NC327923  44.691  40.758   9.450
 6428POPC   PO427924  44.667  40.762   9.150
 6428POPC   GL127925  44.658  40.802   8.850
 6428POPC   GL227926  44.581  40.651   8.850
 6428POPC   C1A27927  44.685  40.799   8.550
 6428POPC   D2A27928  44.614  40.763   8.250
 6428POPC   C3A27929  44.702  40.757   7.950
 6428POPC   C4A27930  44.620  40.745   7.650
 6428POPC   C1B27931  44.504  40.625   8.550
 6428POPC   C2B27932  44.542  40.606   8.250
 6428POPC   C3B27933  44.482  40.628   7.950
 6428POPC   C4B27934  44.508  40.592   7.650
 6429POPC   NC327935  36.127   5.136   9.450
 6429POPC   PO427936  36.142   5.120   9.150
 6429POPC   GL127937  36.155   5.050   8.850
 6429POPC   GL227938  36.133   5.267   8.850
 6429POPC   C1A27939  36.133   5.097   8.550
 6429POPC   D2A27940  36.106   5.120   8.250
 6429POPC   C3A27941  36.109   5.078   7.950
 6429POPC   C4A27942  36.128   5.071   7.650
 6429POPC   C1B27943  36.120   5.372   8.550
 6429POPC   C2B27944  36.145   5.372   8.250
 6429POPC   C3B27945  36.111   5.305   7.950
 6429POPC   C4B27946  36.143   5.389   7.650
 6430POPC   NC327947  36.146  18.240   9.450
 6430POPC   PO427948  36.175  18.248   9.150
 6430POPC   GL127949  36.146  18.317   8.850
 6430POPC   GL227950  36.054  18.339   8.850
 6430POPC   C1A27951  36.169  18.252   8.550
 6430POPC   D2A27952  36.164  18.318   8.250
 6430POPC   C3A27953  36.174  18.261   7.950
 6430POPC   C4A27954  36.134  18.311   7.650
 6430POPC   C1B27955  35.917  18.380   8.550
 6430POPC   C2B27956  35.861  18.392   8.250
 6430POPC   C3B27957  35.884  18.326   7.950
 6430POPC   C4B27958  35.860  18.408   7.650
 6431POPC   NC327959  41.580  40.015   9.450
 6431POPC   PO427960  41.592  39.972   9.150
 6431POPC   GL127961  41.580  40.048   8.850
 6431POPC   GL227962  41.658  39.983   8.850
 6431POPC   C1A27963  41.603  40.011   8.550
 6431POPC   D2A27964  41.571  40.002   8.250
 6431POPC   C3A27965  41.551  40.000   7.950
 6431POPC   C4A27966  41.575  39.986   7.650
 6431POPC   C1B27967  41.764  39.958   8.550
 6431POPC   C2B27968  41.782  39.919   8.250
 6431POPC   C3B27969  41.762  39.906   7.950
 6431POPC   C4B27970  41.814  39.934   7.650
 6432POPC   NC327971  24.481   5.059   9.450
 6432POPC   PO427972  24.522   5.062   9.150
 6432POPC   GL127973  24.491   5.043   8.850
 6432POPC   GL227974  24.563   5.179   8.850
 6432POPC   C1A27975  24.445   5.073   8.550
 6432POPC   D2A27976  24.470   5.138   8.250
 6432POPC   C3A27977  24.459   5.123   7.950
 6432POPC   C4A27978  24.458   5.067   7.650
 6432POPC   C1B27979  24.721   5.141   8.550
 6432POPC   C2B27980  24.753   5.137   8.250
 6432POPC   C3B27981  24.737   5.180   7.950
 6432POPC   C4B27982  24.696   5.142   7.650
 6433POPC   NC327983  25.251   8.930   9.450
 6433POPC   PO427984  25.310   8.935   9.150
 6433POPC   GL127985  25.271   9.005   8.850
 6433POPC   GL227986  25.233   9.087   8.850
 6433POPC   C1A27987  25.294   9.003   8.550
 6433POPC   D2A27988  25.295   8.923   8.250
 6433POPC   C3A27989  25.250   8.991   7.950
 6433POPC   C4A27990  25.225   8.956   7.650
 6433POPC   C1B27991  25.127   9.195   8.550
 6433POPC   C2B27992  25.212   9.161   8.250
 6433POPC   C3B27993  25.171   9.240   7.950
 6433POPC   C4B27994  25.201   9.250   7.650
 6434POPC   NC327995  42.352  34.579   9.450
 6434POPC   PO427996  42.312  34.532   9.150
 6434POPC   GL127997  42.344  34.619   8.850
 6434POPC   GL227998  42.227  34.424   8.850
 6434POPC   C1A27999  42.335  34.603   8.550
 6434POPC   D2A28000  42.346  34.599   8.250
 6434POPC   C3A28001  42.297  34.599   7.950
 6434POPC   C4A28002  42.348  34.618   7.650
 6434POPC   C1B28003  42.227  34.360   8.550
 6434POPC   C2B28004  42.187  34.405   8.250
 6434POPC   C3B28005  42.247  34.394   7.950
 6434POPC   C4B28006  42.260  34.359   7.650
 6435POPC   NC328007  43.079  19.851   9.450
 6435POPC   PO428008  43.069  19.832   9.150
 6435POPC   GL128009  43.085  19.839   8.850
 6435POPC   GL228010  43.260  19.860   8.850
 6435POPC   C1A28011  43.063  19.826   8.550
 6435POPC   D2A28012  43.139  19.823   8.250
 6435POPC   C3A28013  43.087  19.806   7.950
 6435POPC   C4A28014  43.147  19.798   7.650
 6435POPC   C1B28015  43.311  19.962   8.550
 6435POPC   C2B28016  43.386  19.909   8.250
 6435POPC   C3B28017  43.375  19.881   7.950
 6435POPC   C4B28018  43.382  19.957   7.650
 6436POPC   NC328019  29.127  21.337   9.450
 6436POPC   PO428020  29.159  21.388   9.150
 6436POPC   GL128021  29.097  21.361   8.850
 6436POPC   GL228022  29.214  21.288   8.850
 6436POPC   C1A28023  29.126  21.360   8.550
 6436POPC   D2A28024  29.191  21.354   8.250
 6436POPC   C3A28025  29.161  21.355   7.950
 6436POPC   C4A28026  29.162  21.423   7.650
 6436POPC   C1B28027  29.306  21.181   8.550
 6436POPC   C2B28028  29.262  21.236   8.250
 6436POPC   C3B28029  29.321  21.224   7.950
 6436POPC   C4B28030  29.331  21.207   7.650
 6437POPC   NC328031  23.686   2.742   9.450
 6437POPC   PO428032  23.734   2.731   9.150
 6437POPC   GL128033  23.670   2.770   8.850
 6437POPC   GL228034  23.842   2.847   8.850
 6437POPC   C1A28035  23.669   2.800   8.550
 6437POPC   D2A28036  23.673   2.811   8.250
 6437POPC   C3A28037  23.670   2.778   7.950
 6437POPC   C4A28038  23.676   2.721   7.650
 6437POPC   C1B28039  23.896   2.936   8.550
 6437POPC   C2B28040  23.837   2.962   8.250
 6437POPC   C3B28041  23.849   2.969   7.950
 6437POPC   C4B28042  23.922   2.996   7.650
 6438POPC   NC328043  42.335  12.810   9.450
 6438POPC   PO428044  42.355  12.875   9.150
 6438POPC   GL128045  42.347  12.845   8.850
 6438POPC   GL228046  42.452  12.777   8.850
 6438POPC   C1A28047  42.311  12.867   8.550
 6438POPC   D2A28048  42.356  12.826   8.250
 6438POPC   C3A28049  42.300  12.805   7.950
 6438POPC   C4A28050  42.375  12.896   7.650
 6438POPC   C1B28051  42.562  12.726   8.550
 6438POPC   C2B28052  42.570  12.637   8.250
 6438POPC   C3B28053  42.488  12.681   7.950
 6438POPC   C4B28054  42.534  12.687   7.650
 6439POPC   NC328055  23.739   5.049   9.450
 6439POPC   PO428056  23.718   5.132   9.150
 6439POPC   GL128057  23.744   5.062   8.850
 6439POPC   GL228058  23.724   4.961   8.850
 6439POPC   C1A28059  23.721   5.052   8.550
 6439POPC   D2A28060  23.728   5.065   8.250
 6439POPC   C3A28061  23.690   5.046   7.950
 6439POPC   C4A28062  23.689   5.051   7.650
 6439POPC   C1B28063  23.665   4.871   8.550
 6439POPC   C2B28064  23.652   4.883   8.250
 6439POPC   C3B28065  23.675   4.894   7.950
 6439POPC   C4B28066  23.687   4.857   7.650
 6440POPC   NC328067  22.899   5.855   9.450
 6440POPC   PO428068  22.952   5.917   9.150
 6440POPC   GL128069  22.894   5.852   8.850
 6440POPC   GL228070  22.875   5.756   8.850
 6440POPC   C1A28071  22.906   5.895   8.550
 6440POPC   D2A28072  22.956   5.906   8.250
 6440POPC   C3A28073  22.888   5.831   7.950
 6440POPC   C4A28074  22.949   5.912   7.650
 6440POPC   C1B28075  22.813   5.667   8.550
 6440POPC   C2B28076  22.821   5.622   8.250
 6440POPC   C3B28077  22.850   5.666   7.950
 6440POPC   C4B28078  22.789   5.605   7.650
 6441POPC   NC328079   0.410  44.690   9.450
 6441POPC   PO428080   0.464  44.651   9.150
 6441POPC   GL128081   0.474  44.691   8.850
 6441POPC   GL228082   0.386  44.750   8.850
 6441POPC   C1A28083   0.408  44.657   8.550
 6441POPC   D2A28084   0.459  44.661   8.250
 6441POPC   C3A28085   0.421  44.635   7.950
 6441POPC   C4A28086   0.464  44.656   7.650
 6441POPC   C1B28087   0.370  44.904   8.550
 6441POPC   C2B28088   0.384  44.866   8.250
 6441POPC   C3B28089   0.359  44.905   7.950
 6441POPC   C4B28090   0.360  44.907   7.650
 6442POPC   NC328091  40.737  41.518   9.450
 6442POPC   PO428092  40.741  41.584   9.150
 6442POPC   GL128093  40.784  41.547   8.850
 6442POPC   GL228094  40.879  41.568   8.850
 6442POPC   C1A28095  40.783  41.534   8.550
 6442POPC   D2A28096  40.772  41.579   8.250
 6442POPC   C3A28097  40.811  41.567   7.950
 6442POPC   C4A28098  40.810  41.594   7.650
 6442POPC   C1B28099  40.968  41.644   8.550
 6442POPC   C2B28100  41.015  41.620   8.250
 6442POPC   C3B28101  41.028  41.618   7.950
 6442POPC   C4B28102  40.968  41.687   7.650
 6443POPC   NC328103  43.075  21.396   9.450
 6443POPC   PO428104  43.116  21.356   9.150
 6443POPC   GL128105  43.118  21.380   8.850
 6443POPC   GL228106  43.160  21.323   8.850
 6443POPC   C1A28107  43.082  21.417   8.550
 6443POPC   D2A28108  43.147  21.407   8.250
 6443POPC   C3A28109  43.146  21.404   7.950
 6443POPC   C4A28110  43.136  21.376   7.650
 6443POPC   C1B28111  43.223  21.206   8.550
 6443POPC   C2B28112  43.259  21.203   8.250
 6443POPC   C3B28113  43.234  21.164   7.950
 6443POPC   C4B28114  43.290  21.227   7.650
 6444POPC   NC328115  10.545  32.228   9.450
 6444POPC   PO428116  10.544  32.260   9.150
 6444POPC   GL128117  10.547  32.225   8.850
 6444POPC   GL228118  10.660  32.326   8.850
 6444POPC   C1A28119  10.519  32.248   8.550
 6444POPC   D2A28120  10.555  32.249   8.250
 6444POPC   C3A28121  10.551  32.262   7.950
 6444POPC   C4A28122  10.543  32.227   7.650
 6444POPC   C1B28123  10.689  32.416   8.550
 6444POPC   C2B28124  10.717  32.351   8.250
 6444POPC   C3B28125  10.782  32.358   7.950
 6444POPC   C4B28126  10.735  32.416   7.650
 6445POPC   NC328127  42.300  36.113   9.450
 6445POPC   PO428128  42.326  36.163   9.150
 6445POPC   GL128129  42.369  36.175   8.850
 6445POPC   GL228130  42.291  36.247   8.850
 6445POPC   C1A28131  42.331  36.173   8.550
 6445POPC   D2A28132  42.378  36.156   8.250
 6445POPC   C3A28133  42.339  36.120   7.950
 6445POPC   C4A28134  42.360  36.105   7.650
 6445POPC   C1B28135  42.193  36.292   8.550
 6445POPC   C2B28136  42.146  36.261   8.250
 6445POPC   C3B28137  42.165  36.335   7.950
 6445POPC   C4B28138  42.161  36.256   7.650
 6446POPC   NC328139  29.194  36.144   9.450
 6446POPC   PO428140  29.144  36.106   9.150
 6446POPC   GL128141  29.141  36.113   8.850
 6446POPC   GL228142  29.025  36.204   8.850
 6446POPC   C1A28143  29.188  36.099   8.550
 6446POPC   D2A28144  29.172  36.172   8.250
 6446POPC   C3A28145  29.163  36.079   7.950
 6446POPC   C4A28146  29.123  36.082   7.650
 6446POPC   C1B28147  28.971  36.296   8.550
 6446POPC   C2B28148  29.017  36.266   8.250
 6446POPC   C3B28149  28.962  36.265   7.950
 6446POPC   C4B28150  29.009  36.294   7.650
 6447POPC   NC328151  39.990  40.786   9.450
 6447POPC   PO428152  39.960  40.827   9.150
 6447POPC   GL128153  40.012  40.779   8.850
 6447POPC   GL228154  40.103  40.789   8.850
 6447POPC   C1A28155  40.011  40.781   8.550
 6447POPC   D2A28156  40.026  40.803   8.250
 6447POPC   C3A28157  40.055  40.744   7.950
 6447POPC   C4A28158  40.040  40.776   7.650
 6447POPC   C1B28159  40.211  40.876   8.550
 6447POPC   C2B28160  40.256  40.897   8.250
 6447POPC   C3B28161  40.203  40.846   7.950
 6447POPC   C4B28162  40.196  40.858   7.650
 6448POPC   NC328163   5.052  25.281   9.450
 6448POPC   PO428164   5.081  25.229   9.150
 6448POPC   GL128165   5.046  25.263   8.850
 6448POPC   GL228166   5.002  25.375   8.850
 6448POPC   C1A28167   5.105  25.277   8.550
 6448POPC   D2A28168   5.050  25.222   8.250
 6448POPC   C3A28169   5.121  25.285   7.950
 6448POPC   C4A28170   5.138  25.307   7.650
 6448POPC   C1B28171   4.961  25.530   8.550
 6448POPC   C2B28172   4.928  25.445   8.250
 6448POPC   C3B28173   4.993  25.437   7.950
 6448POPC   C4B28174   4.998  25.432   7.650
 6449POPC   NC328175  36.104  33.821   9.450
 6449POPC   PO428176  36.141  33.840   9.150
 6449POPC   GL128177  36.086  33.783   8.850
 6449POPC   GL228178  36.135  33.681   8.850
 6449POPC   C1A28179  36.152  33.838   8.550
 6449POPC   D2A28180  36.080  33.836   8.250
 6449POPC   C3A28181  36.158  33.813   7.950
 6449POPC   C4A28182  36.095  33.805   7.650
 6449POPC   C1B28183  36.200  33.599   8.550
 6449POPC   C2B28184  36.173  33.552   8.250
 6449POPC   C3B28185  36.156  33.560   7.950
 6449POPC   C4B28186  36.230  33.545   7.650
 6450POPC   NC328187  12.808  11.335   9.450
 6450POPC   PO428188  12.815  11.273   9.150
 6450POPC   GL128189  12.815  11.285   8.850
 6450POPC   GL228190  12.846  11.191   8.850
 6450POPC   C1A28191  12.891  11.309   8.550
 6450POPC   D2A28192  12.850  11.321   8.250
 6450POPC   C3A28193  12.861  11.266   7.950
 6450POPC   C4A28194  12.864  11.340   7.650
 6450POPC   C1B28195  12.776  11.040   8.550
 6450POPC   C2B28196  12.801  11.067   8.250
 6450POPC   C3B28197  12.797  11.096   7.950
 6450POPC   C4B28198  12.829  11.031   7.650
 6451POPC   NC328199  11.258  29.172   9.450
 6451POPC   PO428200  11.349  29.135   9.150
 6451POPC   GL128201  11.298  29.145   8.850
 6451POPC   GL228202  11.395  29.166   8.850
 6451POPC   C1A28203  11.342  29.144   8.550
 6451POPC   D2A28204  11.303  29.154   8.250
 6451POPC   C3A28205  11.274  29.178   7.950
 6451POPC   C4A28206  11.342  29.102   7.650
 6451POPC   C1B28207  11.523  29.190   8.550
 6451POPC   C2B28208  11.568  29.201   8.250
 6451POPC   C3B28209  11.552  29.169   7.950
 6451POPC   C4B28210  11.524  29.153   7.650
 6452POPC   NC328211   2.755  39.185   9.450
 6452POPC   PO428212   2.783  39.259   9.150
 6452POPC   GL128213   2.718  39.182   8.850
 6452POPC   GL228214   2.692  39.312   8.850
 6452POPC   C1A28215   2.810  39.272   8.550
 6452POPC   D2A28216   2.810  39.205   8.250
 6452POPC   C3A28217   2.800  39.217   7.950
 6452POPC   C4A28218   2.729  39.219   7.650
 6452POPC   C1B28219   2.543  39.327   8.550
 6452POPC   C2B28220   2.575  39.359   8.250
 6452POPC   C3B28221   2.559  39.349   7.950
 6452POPC   C4B28222   2.520  39.330   7.650
 6453POPC   NC328223  12.833   6.662   9.450
 6453POPC   PO428224  12.902   6.635   9.150
 6453POPC   GL128225  12.847   6.641   8.850
 6453POPC   GL228226  12.845   6.569   8.850
 6453POPC   C1A28227  12.879   6.607   8.550
 6453POPC   D2A28228  12.874   6.652   8.250
 6453POPC   C3A28229  12.830   6.675   7.950
 6453POPC   C4A28230  12.807   6.634   7.650
 6453POPC   C1B28231  12.874   6.385   8.550
 6453POPC   C2B28232  12.909   6.428   8.250
 6453POPC   C3B28233  12.945   6.377   7.950
 6453POPC   C4B28234  12.867   6.381   7.650
 6454POPC   NC328235  11.276  43.145   9.450
 6454POPC   PO428236  11.333  43.096   9.150
 6454POPC   GL128237  11.294  43.096   8.850
 6454POPC   GL228238  11.244  43.034   8.850
 6454POPC   C1A28239  11.297  43.122   8.550
 6454POPC   D2A28240  11.302  43.064   8.250
 6454POPC   C3A28241  11.350  43.097   7.950
 6454POPC   C4A28242  11.304  43.091   7.650
 6454POPC   C1B28243  11.163  42.886   8.550
 6454POPC   C2B28244  11.168  42.932   8.250
 6454POPC   C3B28245  11.098  42.882   7.950
 6454POPC   C4B28246  11.086  42.974   7.650
 6455POPC   NC328247  41.576  38.501   9.450
 6455POPC   PO428248  41.561  38.428   9.150
 6455POPC   GL128249  41.558  38.432   8.850
 6455POPC   GL228250  41.480  38.539   8.850
 6455POPC   C1A28251  41.554  38.426   8.550
 6455POPC   D2A28252  41.595  38.438   8.250
 6455POPC   C3A28253  41.547  38.504   7.950
 6455POPC   C4A28254  41.534  38.429   7.650
 6455POPC   C1B28255  41.333  38.632   8.550
 6455POPC   C2B28256  41.365  38.621   8.250
 6455POPC   C3B28257  41.408  38.575   7.950
 6455POPC   C4B28258  41.414  38.577   7.650
 6456POPC   NC328259  35.389  35.392   9.450
 6456POPC   PO428260  35.370  35.375   9.150
 6456POPC   GL128261  35.327  35.327   8.850
 6456POPC   GL228262  35.432  35.350   8.850
 6456POPC   C1A28263  35.322  35.355   8.550
 6456POPC   D2A28264  35.322  35.351   8.250
 6456POPC   C3A28265  35.394  35.330   7.950
 6456POPC   C4A28266  35.325  35.307   7.650
 6456POPC   C1B28267  35.543  35.235   8.550
 6456POPC   C2B28268  35.600  35.286   8.250
 6456POPC   C3B28269  35.535  35.255   7.950
 6456POPC   C4B28270  35.567  35.296   7.650
 6457POPC   NC328271  15.925  32.244   9.450
 6457POPC   PO428272  15.954  32.297   9.150
 6457POPC   GL128273  15.910  32.252   8.850
 6457POPC   GL228274  16.116  32.214   8.850
 6457POPC   C1A28275  15.907  32.247   8.550
 6457POPC   D2A28276  15.975  32.241   8.250
 6457POPC   C3A28277  15.956  32.231   7.950
 6457POPC   C4A28278  15.934  32.211   7.650
 6457POPC   C1B28279  16.181  32.168   8.550
 6457POPC   C2B28280  16.223  32.237   8.250
 6457POPC   C3B28281  16.240  32.224   7.950
 6457POPC   C4B28282  16.162  32.243   7.650
 6458POPC   NC328283  40.810   6.604   9.450
 6458POPC   PO428284  40.787   6.679   9.150
 6458POPC   GL128285  40.826   6.688   8.850
 6458POPC   GL228286  40.835   6.529   8.850
 6458POPC   C1A28287  40.794   6.628   8.550
 6458POPC   D2A28288  40.825   6.618   8.250
 6458POPC   C3A28289  40.831   6.609   7.950
 6458POPC   C4A28290  40.737   6.627   7.650
 6458POPC   C1B28291  40.900   6.414   8.550
 6458POPC   C2B28292  40.880   6.382   8.250
 6458POPC   C3B28293  40.915   6.418   7.950
 6458POPC   C4B28294  40.922   6.419   7.650
 6459POPC   NC328295   2.728  12.118   9.450
 6459POPC   PO428296   2.773  12.080   9.150
 6459POPC   GL128297   2.807  12.028   8.850
 6459POPC   GL228298   2.639  11.983   8.850
 6459POPC   C1A28299   2.738  12.062   8.550
 6459POPC   D2A28300   2.734  12.104   8.250
 6459POPC   C3A28301   2.791  12.033   7.950
 6459POPC   C4A28302   2.768  12.093   7.650
 6459POPC   C1B28303   2.547  11.899   8.550
 6459POPC   C2B28304   2.548  11.937   8.250
 6459POPC   C3B28305   2.601  11.961   7.950
 6459POPC   C4B28306   2.578  11.964   7.650
 6460POPC   NC328307  17.487  22.151   9.450
 6460POPC   PO428308  17.469  22.186   9.150
 6460POPC   GL128309  17.492  22.196   8.850
 6460POPC   GL228310  17.613  22.163   8.850
 6460POPC   C1A28311  17.473  22.198   8.550
 6460POPC   D2A28312  17.502  22.185   8.250
 6460POPC   C3A28313  17.499  22.173   7.950
 6460POPC   C4A28314  17.468  22.155   7.650
 6460POPC   C1B28315  17.803  22.157   8.550
 6460POPC   C2B28316  17.735  22.111   8.250
 6460POPC   C3B28317  17.739  22.154   7.950
 6460POPC   C4B28318  17.766  22.080   7.650
 6461POPC   NC328319  14.360  31.497   9.450
 6461POPC   PO428320  14.444  31.436   9.150
 6461POPC   GL128321  14.373  31.496   8.850
 6461POPC   GL228322  14.261  31.486   8.850
 6461POPC   C1A28323  14.419  31.463   8.550
 6461POPC   D2A28324  14.391  31.515   8.250
 6461POPC   C3A28325  14.400  31.468   7.950
 6461POPC   C4A28326  14.427  31.444   7.650
 6461POPC   C1B28327  14.182  31.457   8.550
 6461POPC   C2B28328  14.192  31.400   8.250
 6461POPC   C3B28329  14.210  31.449   7.950
 6461POPC   C4B28330  14.120  31.366   7.650
 6462POPC   NC328331  21.389  19.043   9.450
 6462POPC   PO428332  21.388  19.017   9.150
 6462POPC   GL128333  21.365  19.009   8.850
 6462POPC   GL228334  21.327  19.134   8.850
 6462POPC   C1A28335  21.343  19.040   8.550
 6462POPC   D2A28336  21.400  19.013   8.250
 6462POPC   C3A28337  21.349  19.037   7.950
 6462POPC   C4A28338  21.404  19.043   7.650
 6462POPC   C1B28339  21.305  19.257   8.550
 6462POPC   C2B28340  21.309  19.348   8.250
 6462POPC   C3B28341  21.338  19.334   7.950
 6462POPC   C4B28342  21.333  19.308   7.650
 6463POPC   NC328343  15.176  10.502   9.450
 6463POPC   PO428344  15.185  10.525   9.150
 6463POPC   GL128345  15.188  10.539   8.850
 6463POPC   GL228346  15.061  10.557   8.850
 6463POPC   C1A28347  15.166  10.489   8.550
 6463POPC   D2A28348  15.171  10.498   8.250
 6463POPC   C3A28349  15.203  10.518   7.950
 6463POPC   C4A28350  15.153  10.497   7.650
 6463POPC   C1B28351  14.942  10.533   8.550
 6463POPC   C2B28352  14.897  10.560   8.250
 6463POPC   C3B28353  14.927  10.596   7.950
 6463POPC   C4B28354  14.884  10.593   7.650
 6464POPC   NC328355  42.366  26.866   9.450
 6464POPC   PO428356  42.371  26.801   9.150
 6464POPC   GL128357  42.308  26.770   8.850
 6464POPC   GL228358  42.435  26.750   8.850
 6464POPC   C1A28359  42.374  26.845   8.550
 6464POPC   D2A28360  42.327  26.861   8.250
 6464POPC   C3A28361  42.334  26.774   7.950
 6464POPC   C4A28362  42.298  26.825   7.650
 6464POPC   C1B28363  42.477  26.567   8.550
 6464POPC   C2B28364  42.521  26.659   8.250
 6464POPC   C3B28365  42.491  26.569   7.950
 6464POPC   C4B28366  42.533  26.598   7.650
 6465POPC   NC328367   2.785  23.727   9.450
 6465POPC   PO428368   2.770  23.695   9.150
 6465POPC   GL128369   2.728  23.749   8.850
 6465POPC   GL228370   2.737  23.620   8.850
 6465POPC   C1A28371   2.722  23.678   8.550
 6465POPC   D2A28372   2.790  23.738   8.250
 6465POPC   C3A28373   2.809  23.757   7.950
 6465POPC   C4A28374   2.730  23.680   7.650
 6465POPC   C1B28375   2.682  23.517   8.550
 6465POPC   C2B28376   2.770  23.496   8.250
 6465POPC   C3B28377   2.748  23.450   7.950
 6465POPC   C4B28378   2.712  23.468   7.650
 6466POPC   NC328379  27.568  30.717   9.450
 6466POPC   PO428380  27.626  30.722   9.150
 6466POPC   GL128381  27.607  30.712   8.850
 6466POPC   GL228382  27.730  30.748   8.850
 6466POPC   C1A28383  27.639  30.687   8.550
 6466POPC   D2A28384  27.609  30.695   8.250
 6466POPC   C3A28385  27.612  30.672   7.950
 6466POPC   C4A28386  27.568  30.715   7.650
 6466POPC   C1B28387  27.875  30.738   8.550
 6466POPC   C2B28388  27.812  30.725   8.250
 6466POPC   C3B28389  27.817  30.733   7.950
 6466POPC   C4B28390  27.783  30.780   7.650
 6467POPC   NC328391  27.603  26.032   9.450
 6467POPC   PO428392  27.627  26.023   9.150
 6467POPC   GL128393  27.573  26.053   8.850
 6467POPC   GL228394  27.632  25.892   8.850
 6467POPC   C1A28395  27.586  26.024   8.550
 6467POPC   D2A28396  27.635  26.026   8.250
 6467POPC   C3A28397  27.578  26.076   7.950
 6467POPC   C4A28398  27.615  26.012   7.650
 6467POPC   C1B28399  27.678  25.805   8.550
 6467POPC   C2B28400  27.596  25.774   8.250
 6467POPC   C3B28401  27.644  25.840   7.950
 6467POPC   C4B28402  27.670  25.808   7.650
 6468POPC   NC328403  10.531   6.625   9.450
 6468POPC   PO428404  10.552   6.643   9.150
 6468POPC   GL128405  10.522   6.637   8.850
 6468POPC   GL228406  10.611   6.556   8.850
 6468POPC   C1A28407  10.527   6.633   8.550
 6468POPC   D2A28408  10.487   6.595   8.250
 6468POPC   C3A28409  10.478   6.683   7.950
 6468POPC   C4A28410  10.501   6.672   7.650
 6468POPC   C1B28411  10.662   6.427   8.550
 6468POPC   C2B28412  10.755   6.453   8.250
 6468POPC   C3B28413  10.703   6.476   7.950
 6468POPC   C4B28414  10.750   6.489   7.650
 6469POPC   NC328415  43.857  26.084   9.450
 6469POPC   PO428416  43.887  26.072   9.150
 6469POPC   GL128417  43.837  26.040   8.850
 6469POPC   GL228418  44.049  26.020   8.850
 6469POPC   C1A28419  43.870  26.009   8.550
 6469POPC   D2A28420  43.877  26.091   8.250
 6469POPC   C3A28421  43.923  26.078   7.950
 6469POPC   C4A28422  43.895  26.063   7.650
 6469POPC   C1B28423  44.127  26.006   8.550
 6469POPC   C2B28424  44.094  26.015   8.250
 6469POPC   C3B28425  44.155  25.967   7.950
 6469POPC   C4B28426  44.099  25.956   7.650
 6470POPC   NC328427  42.371  33.768   9.450
 6470POPC   PO428428  42.374  33.815   9.150
 6470POPC   GL128429  42.382  33.813   8.850
 6470POPC   GL228430  42.185  33.883   8.850
 6470POPC   C1A28431  42.322  33.831   8.550
 6470POPC   D2A28432  42.356  33.759   8.250
 6470POPC   C3A28433  42.318  33.786   7.950
 6470POPC   C4A28434  42.351  33.756   7.650
 6470POPC   C1B28435  42.102  33.864   8.550
 6470POPC   C2B28436  42.050  33.918   8.250
 6470POPC   C3B28437  42.054  33.900   7.950
 6470POPC   C4B28438  42.094  33.825   7.650
 6471POPC   NC328439   5.897  30.670   9.450
 6471POPC   PO428440   5.881  30.726   9.150
 6471POPC   GL128441   5.839  30.718   8.850
 6471POPC   GL228442   5.946  30.663   8.850
 6471POPC   C1A28443   5.874  30.715   8.550
 6471POPC   D2A28444   5.826  30.662   8.250
 6471POPC   C3A28445   5.844  30.705   7.950
 6471POPC   C4A28446   5.854  30.732   7.650
 6471POPC   C1B28447   6.127  30.601   8.550
 6471POPC   C2B28448   6.093  30.608   8.250
 6471POPC   C3B28449   6.064  30.595   7.950
 6471POPC   C4B28450   6.117  30.578   7.650
 6472POPC   NC328451  12.062  17.555   9.450
 6472POPC   PO428452  12.103  17.461   9.150
 6472POPC   GL128453  12.114  17.487   8.850
 6472POPC   GL228454  12.117  17.367   8.850
 6472POPC   C1A28455  12.102  17.494   8.550
 6472POPC   D2A28456  12.121  17.523   8.250
 6472POPC   C3A28457  12.082  17.482   7.950
 6472POPC   C4A28458  12.060  17.463   7.650
 6472POPC   C1B28459  12.207  17.316   8.550
 6472POPC   C2B28460  12.214  17.334   8.250
 6472POPC   C3B28461  12.193  17.298   7.950
 6472POPC   C4B28462  12.173  17.271   7.650
 6473POPC   NC328463   3.545  14.368   9.450
 6473POPC   PO428464   3.588  14.418   9.150
 6473POPC   GL128465   3.572  14.404   8.850
 6473POPC   GL228466   3.416  14.456   8.850
 6473POPC   C1A28467   3.528  14.449   8.550
 6473POPC   D2A28468   3.559  14.410   8.250
 6473POPC   C3A28469   3.587  14.385   7.950
 6473POPC   C4A28470   3.552  14.438   7.650
 6473POPC   C1B28471   3.287  14.477   8.550
 6473POPC   C2B28472   3.306  14.506   8.250
 6473POPC   C3B28473   3.269  14.540   7.950
 6473POPC   C4B28474   3.310  14.480   7.650
 6474POPC   NC328475   9.718  36.910   9.450
 6474POPC   PO428476   9.783  36.933   9.150
 6474POPC   GL128477   9.702  36.941   8.850
 6474POPC   GL228478   9.772  37.035   8.850
 6474POPC   C1A28479   9.733  36.940   8.550
 6474POPC   D2A28480   9.746  36.946   8.250
 6474POPC   C3A28481   9.712  36.936   7.950
 6474POPC   C4A28482   9.741  36.928   7.650
 6474POPC   C1B28483   9.892  37.130   8.550
 6474POPC   C2B28484   9.814  37.088   8.250
 6474POPC   C3B28485   9.846  37.103   7.950
 6474POPC   C4B28486   9.834  37.152   7.650
 6475POPC   NC328487   0.461  19.804   9.450
 6475POPC   PO428488   0.435  19.880   9.150
 6475POPC   GL128489   0.442  19.847   8.850
 6475POPC   GL228490   0.576  19.896   8.850
 6475POPC   C1A28491   0.430  19.824   8.550
 6475POPC   D2A28492   0.426  19.845   8.250
 6475POPC   C3A28493   0.396  19.805   7.950
 6475POPC   C4A28494   0.428  19.844   7.650
 6475POPC   C1B28495   0.584  20.004   8.550
 6475POPC   C2B28496   0.656  19.993   8.250
 6475POPC   C3B28497   0.585  19.972   7.950
 6475POPC   C4B28498   0.581  19.950   7.650
 6476POPC   NC328499   5.856  36.912   9.450
 6476POPC   PO428500   5.884  36.928   9.150
 6476POPC   GL128501   5.863  36.882   8.850
 6476POPC   GL228502   5.940  36.971   8.850
 6476POPC   C1A28503   5.868  36.902   8.550
 6476POPC   D2A28504   5.835  36.908   8.250
 6476POPC   C3A28505   5.830  36.934   7.950
 6476POPC   C4A28506   5.882  36.876   7.650
 6476POPC   C1B28507   5.981  37.087   8.550
 6476POPC   C2B28508   5.982  37.079   8.250
 6476POPC   C3B28509   6.003  37.155   7.950
 6476POPC   C4B28510   6.018  37.135   7.650
 6477POPC   NC328511   0.417  21.398   9.450
 6477POPC   PO428512   0.429  21.357   9.150
 6477POPC   GL128513   0.453  21.355   8.850
 6477POPC   GL228514   0.550  21.294   8.850
 6477POPC   C1A28515   0.483  21.410   8.550
 6477POPC   D2A28516   0.456  21.412   8.250
 6477POPC   C3A28517   0.418  21.339   7.950
 6477POPC   C4A28518   0.450  21.357   7.650
 6477POPC   C1B28519   0.557  21.211   8.550
 6477POPC   C2B28520   0.536  21.166   8.250
 6477POPC   C3B28521   0.524  21.150   7.950
 6477POPC   C4B28522   0.601  21.149   7.650
 6478POPC   NC328523  14.373  25.995   9.450
 6478POPC   PO428524  14.426  26.075   9.150
 6478POPC   GL128525  14.452  26.053   8.850
 6478POPC   GL228526  14.349  26.148   8.850
 6478POPC   C1A28527  14.426  26.074   8.550
 6478POPC   D2A28528  14.374  26.007   8.250
 6478POPC   C3A28529  14.378  25.998   7.950
 6478POPC   C4A28530  14.357  26.037   7.650
 6478POPC   C1B28531  14.174  26.256   8.550
 6478POPC   C2B28532  14.247  26.205   8.250
 6478POPC   C3B28533  14.265  26.166   7.950
 6478POPC   C4B28534  14.199  26.191   7.650
 6479POPC   NC328535  26.074  31.506   9.450
 6479POPC   PO428536  26.026  31.453   9.150
 6479POPC   GL128537  26.053  31.443   8.850
 6479POPC   GL228538  25.990  31.400   8.850
 6479POPC   C1A28539  26.032  31.487   8.550
 6479POPC   D2A28540  26.012  31.508   8.250
 6479POPC   C3A28541  26.015  31.504   7.950
 6479POPC   C4A28542  26.002  31.479   7.650
 6479POPC   C1B28543  25.920  31.276   8.550
 6479POPC   C2B28544  25.857  31.289   8.250
 6479POPC   C3B28545  25.874  31.239   7.950
 6479POPC   C4B28546  25.893  31.268   7.650
 6480POPC   NC328547  17.520  31.433   9.450
 6480POPC   PO428548  17.462  31.474   9.150
 6480POPC   GL128549  17.497  31.451   8.850
 6480POPC   GL228550  17.414  31.390   8.850
 6480POPC   C1A28551  17.467  31.431   8.550
 6480POPC   D2A28552  17.462  31.449   8.250
 6480POPC   C3A28553  17.471  31.469   7.950
 6480POPC   C4A28554  17.469  31.446   7.650
 6480POPC   C1B28555  17.319  31.334   8.550
 6480POPC   C2B28556  17.288  31.279   8.250
 6480POPC   C3B28557  17.268  31.318   7.950
 6480POPC   C4B28558  17.336  31.337   7.650
 6481POPC   NC328559  28.415  19.074   9.450
 6481POPC   PO428560  28.395  19.079   9.150
 6481POPC   GL128561  28.335  19.061   8.850
 6481POPC   GL228562  28.320  18.899   8.850
 6481POPC   C1A28563  28.371  19.092   8.550
 6481POPC   D2A28564  28.352  19.036   8.250
 6481POPC   C3A28565  28.380  19.079   7.950
 6481POPC   C4A28566  28.333  19.061   7.650
 6481POPC   C1B28567  28.375  18.787   8.550
 6481POPC   C2B28568  28.296  18.825   8.250
 6481POPC   C3B28569  28.283  18.821   7.950
 6481POPC   C4B28570  28.357  18.850   7.650
 6482POPC   NC328571  18.321  19.788   9.450
 6482POPC   PO428572  18.274  19.799   9.150
 6482POPC   GL128573  18.234  19.834   8.850
 6482POPC   GL228574  18.416  19.820   8.850
 6482POPC   C1A28575  18.289  19.870   8.550
 6482POPC   D2A28576  18.244  19.867   8.250
 6482POPC   C3A28577  18.294  19.858   7.950
 6482POPC   C4A28578  18.266  19.827   7.650
 6482POPC   C1B28579  18.501  19.853   8.550
 6482POPC   C2B28580  18.526  19.883   8.250
 6482POPC   C3B28581  18.507  19.926   7.950
 6482POPC   C4B28582  18.572  19.912   7.650
 6483POPC   NC328583  20.595  12.097   9.450
 6483POPC   PO428584  20.570  12.081   9.150
 6483POPC   GL128585  20.634  12.027   8.850
 6483POPC   GL228586  20.541  12.010   8.850
 6483POPC   C1A28587  20.609  12.075   8.550
 6483POPC   D2A28588  20.608  12.043   8.250
 6483POPC   C3A28589  20.616  12.112   7.950
 6483POPC   C4A28590  20.598  12.104   7.650
 6483POPC   C1B28591  20.478  11.929   8.550
 6483POPC   C2B28592  20.428  11.846   8.250
 6483POPC   C3B28593  20.448  11.920   7.950
 6483POPC   C4B28594  20.488  11.853   7.650
 6484POPC   NC328595  39.210  16.769   9.450
 6484POPC   PO428596  39.233  16.737   9.150
 6484POPC   GL128597  39.264  16.710   8.850
 6484POPC   GL228598  39.331  16.683   8.850
 6484POPC   C1A28599  39.223  16.686   8.550
 6484POPC   D2A28600  39.213  16.695   8.250
 6484POPC   C3A28601  39.269  16.734   7.950
 6484POPC   C4A28602  39.203  16.760   7.650
 6484POPC   C1B28603  39.431  16.564   8.550
 6484POPC   C2B28604  39.395  16.592   8.250
 6484POPC   C3B28605  39.439  16.608   7.950
 6484POPC   C4B28606  39.470  16.577   7.650
 6485POPC   NC328607  15.939   3.536   9.450
 6485POPC   PO428608  15.967   3.559   9.150
 6485POPC   GL128609  15.964   3.524   8.850
 6485POPC   GL228610  16.030   3.622   8.850
 6485POPC   C1A28611  15.955   3.501   8.550
 6485POPC   D2A28612  15.962   3.534   8.250
 6485POPC   C3A28613  15.968   3.544   7.950
 6485POPC   C4A28614  15.928   3.573   7.650
 6485POPC   C1B28615  16.004   3.829   8.550
 6485POPC   C2B28616  15.996   3.768   8.250
 6485POPC   C3B28617  15.981   3.834   7.950
 6485POPC   C4B28618  15.999   3.760   7.650
 6486POPC   NC328619   7.372   7.428   9.450
 6486POPC   PO428620   7.418   7.379   9.150
 6486POPC   GL128621   7.427   7.458   8.850
 6486POPC   GL228622   7.295   7.371   8.850
 6486POPC   C1A28623   7.438   7.463   8.550
 6486POPC   D2A28624   7.458   7.423   8.250
 6486POPC   C3A28625   7.458   7.454   7.950
 6486POPC   C4A28626   7.444   7.411   7.650
 6486POPC   C1B28627   7.131   7.374   8.550
 6486POPC   C2B28628   7.141   7.394   8.250
 6486POPC   C3B28629   7.124   7.375   7.950
 6486POPC   C4B28630   7.128   7.409   7.650
 6487POPC   NC328631  21.364  39.205   9.450
 6487POPC   PO428632  21.401  39.274   9.150
 6487POPC   GL128633  21.421  39.218   8.850
 6487POPC   GL228634  21.489  39.280   8.850
 6487POPC   C1A28635  21.420  39.261   8.550
 6487POPC   D2A28636  21.433  39.228   8.250
 6487POPC   C3A28637  21.423  39.259   7.950
 6487POPC   C4A28638  21.423  39.224   7.650
 6487POPC   C1B28639  21.594  39.379   8.550
 6487POPC   C2B28640  21.620  39.414   8.250
 6487POPC   C3B28641  21.612  39.359   7.950
 6487POPC   C4B28642  21.578  39.389   7.650
 6488POPC   NC328643   5.101  19.788   9.450
 6488POPC   PO428644   5.137  19.867   9.150
 6488POPC   GL128645   5.055  19.786   8.850
 6488POPC   GL228646   5.009  19.928   8.850
 6488POPC   C1A28647   5.060  19.861   8.550
 6488POPC   D2A28648   5.089  19.794   8.250
 6488POPC   C3A28649   5.064  19.833   7.950
 6488POPC   C4A28650   5.098  19.814   7.650
 6488POPC   C1B28651   4.925  19.948   8.550
 6488POPC   C2B28652   4.912  19.961   8.250
 6488POPC   C3B28653   4.860  19.948   7.950
 6488POPC   C4B28654   4.916  20.000   7.650
 6489POPC   NC328655  22.143  13.659   9.450
 6489POPC   PO428656  22.188  13.640   9.150
 6489POPC   GL128657  22.178  13.672   8.850
 6489POPC   GL228658  22.245  13.540   8.850
 6489POPC   C1A28659  22.208  13.630   8.550
 6489POPC   D2A28660  22.125  13.661   8.250
 6489POPC   C3A28661  22.174  13.651   7.950
 6489POPC   C4A28662  22.175  13.631   7.650
 6489POPC   C1B28663  22.305  13.446   8.550
 6489POPC   C2B28664  22.247  13.390   8.250
 6489POPC   C3B28665  22.308  13.397   7.950
 6489POPC   C4B28666  22.317  13.393   7.650
 6490POPC   NC328667   1.164   1.168   9.450
 6490POPC   PO428668   1.219   1.241   9.150
 6490POPC   GL128669   1.240   1.243   8.850
 6490POPC   GL228670   1.174   1.343   8.850
 6490POPC   C1A28671   1.243   1.179   8.550
 6490POPC   D2A28672   1.258   1.212   8.250
 6490POPC   C3A28673   1.253   1.170   7.950
 6490POPC   C4A28674   1.176   1.242   7.650
 6490POPC   C1B28675   1.072   1.419   8.550
 6490POPC   C2B28676   1.090   1.418   8.250
 6490POPC   C3B28677   1.034   1.410   7.950
 6490POPC   C4B28678   1.082   1.386   7.650
 6491POPC   NC328679  16.711   7.411   9.450
 6491POPC   PO428680  16.738   7.461   9.150
 6491POPC   GL128681  16.748   7.448   8.850
 6491POPC   GL228682  16.598   7.468   8.850
 6491POPC   C1A28683  16.713   7.459   8.550
 6491POPC   D2A28684  16.780   7.464   8.250
 6491POPC   C3A28685  16.753   7.419   7.950
 6491POPC   C4A28686  16.690   7.404   7.650
 6491POPC   C1B28687  16.563   7.584   8.550
 6491POPC   C2B28688  16.559   7.581   8.250
 6491POPC   C3B28689  16.536   7.596   7.950
 6491POPC   C4B28690  16.522   7.578   7.650
 6492POPC   NC328691   2.769  15.997   9.450
 6492POPC   PO428692   2.802  15.925   9.150
 6492POPC   GL128693   2.792  15.925   8.850
 6492POPC   GL228694   2.765  15.819   8.850
 6492POPC   C1A28695   2.763  15.947   8.550
 6492POPC   D2A28696   2.773  15.937   8.250
 6492POPC   C3A28697   2.761  15.992   7.950
 6492POPC   C4A28698   2.732  15.909   7.650
 6492POPC   C1B28699   2.741  15.725   8.550
 6492POPC   C2B28700   2.767  15.683   8.250
 6492POPC   C3B28701   2.746  15.730   7.950
 6492POPC   C4B28702   2.735  15.751   7.650
 6493POPC   NC328703  31.483  21.422   9.450
 6493POPC   PO428704  31.442  21.337   9.150
 6493POPC   GL128705  31.518  21.373   8.850
 6493POPC   GL228706  31.433  21.252   8.850
 6493POPC   C1A28707  31.462  21.374   8.550
 6493POPC   D2A28708  31.485  21.424   8.250
 6493POPC   C3A28709  31.482  21.388   7.950
 6493POPC   C4A28710  31.465  21.345   7.650
 6493POPC   C1B28711  31.320  21.187   8.550
 6493POPC   C2B28712  31.302  21.219   8.250
 6493POPC   C3B28713  31.300  21.160   7.950
 6493POPC   C4B28714  31.335  21.144   7.650
 6494POPC   NC328715  33.818  15.208   9.450
 6494POPC   PO428716  33.763  15.131   9.150
 6494POPC   GL128717  33.848  15.165   8.850
 6494POPC   GL228718  33.864  15.305   8.850
 6494POPC   C1A28719  33.808  15.220   8.550
 6494POPC   D2A28720  33.832  15.190   8.250
 6494POPC   C3A28721  33.833  15.189   7.950
 6494POPC   C4A28722  33.792  15.166   7.650
 6494POPC   C1B28723  33.933  15.360   8.550
 6494POPC   C2B28724  33.934  15.379   8.250
 6494POPC   C3B28725  33.933  15.314   7.950
 6494POPC   C4B28726  34.012  15.393   7.650
 6495POPC   NC328727   1.258  29.877   9.450
 6495POPC   PO428728   1.213  29.947   9.150
 6495POPC   GL128729   1.195  29.901   8.850
 6495POPC   GL228730   1.150  29.948   8.850
 6495POPC   C1A28731   1.178  29.909   8.550
 6495POPC   D2A28732   1.208  29.942   8.250
 6495POPC   C3A28733   1.190  29.912   7.950
 6495POPC   C4A28734   1.203  29.928   7.650
 6495POPC   C1B28735   0.981  30.045   8.550
 6495POPC   C2B28736   0.952  29.998   8.250
 6495POPC   C3B28737   0.986  30.080   7.950
 6495POPC   C4B28738   0.942  30.019   7.650
 6496POPC   NC328739  28.348  37.690   9.450
 6496POPC   PO428740  28.329  37.697   9.150
 6496POPC   GL128741  28.388  37.652   8.850
 6496POPC   GL228742  28.351  37.602   8.850
 6496POPC   C1A28743  28.375  37.647   8.550
 6496POPC   D2A28744  28.385  37.629   8.250
 6496POPC   C3A28745  28.398  37.710   7.950
 6496POPC   C4A28746  28.411  37.724   7.650
 6496POPC   C1B28747  28.355  37.478   8.550
 6496POPC   C2B28748  28.399  37.440   8.250
 6496POPC   C3B28749  28.374  37.460   7.950
 6496POPC   C4B28750  28.365  37.466   7.650
 6497POPC   NC328751  15.908  22.891   9.450
 6497POPC   PO428752  15.928  22.892   9.150
 6497POPC   GL128753  15.986  22.940   8.850
 6497POPC   GL228754  15.932  23.067   8.850
 6497POPC   C1A28755  15.977  22.971   8.550
 6497POPC   D2A28756  15.916  22.945   8.250
 6497POPC   C3A28757  15.986  22.984   7.950
 6497POPC   C4A28758  15.985  22.924   7.650
 6497POPC   C1B28759  15.804  23.163   8.550
 6497POPC   C2B28760  15.860  23.165   8.250
 6497POPC   C3B28761  15.789  23.110   7.950
 6497POPC   C4B28762  15.842  23.143   7.650
 6498POPC   NC328763   0.477  28.405   9.450
 6498POPC   PO428764   0.466  28.406   9.150
 6498POPC   GL128765   0.427  28.394   8.850
 6498POPC   GL228766   0.601  28.347   8.850
 6498POPC   C1A28767   0.471  28.372   8.550
 6498POPC   D2A28768   0.471  28.339   8.250
 6498POPC   C3A28769   0.474  28.416   7.950
 6498POPC   C4A28770   0.480  28.379   7.650
 6498POPC   C1B28771   0.702  28.323   8.550
 6498POPC   C2B28772   0.680  28.239   8.250
 6498POPC   C3B28773   0.690  28.239   7.950
 6498POPC   C4B28774   0.647  28.309   7.650
 6499POPC   NC328775  40.814  42.361   9.450
 6499POPC   PO428776  40.775  42.328   9.150
 6499POPC   GL128777  40.831  42.297   8.850
 6499POPC   GL228778  40.671  42.441   8.850
 6499POPC   C1A28779  40.832  42.365   8.550
 6499POPC   D2A28780  40.748  42.373   8.250
 6499POPC   C3A28781  40.735  42.335   7.950
 6499POPC   C4A28782  40.756  42.372   7.650
 6499POPC   C1B28783  40.577  42.483   8.550
 6499POPC   C2B28784  40.599  42.494   8.250
 6499POPC   C3B28785  40.650  42.526   7.950
 6499POPC   C4B28786  40.626  42.486   7.650
 6500POPC   NC328787  28.369  20.606   9.450
 6500POPC   PO428788  28.363  20.593   9.150
 6500POPC   GL128789  28.379  20.613   8.850
 6500POPC   GL228790  28.490  20.527   8.850
 6500POPC   C1A28791  28.359  20.585   8.550
 6500POPC   D2A28792  28.324  20.592   8.250
 6500POPC   C3A28793  28.343  20.596   7.950
 6500POPC   C4A28794  28.364  20.611   7.650
 6500POPC   C1B28795  28.596  20.576   8.550
 6500POPC   C2B28796  28.574  20.501   8.250
 6500POPC   C3B28797  28.647  20.531   7.950
 6500POPC   C4B28798  28.637  20.520   7.650
 6501POPC   NC328799   9.777  10.523   9.450
 6501POPC   PO428800   9.731  10.484   9.150
 6501POPC   GL128801   9.721  10.507   8.850
 6501POPC   GL228802   9.701  10.611   8.850
 6501POPC   C1A28803   9.723  10.490   8.550
 6501POPC   D2A28804   9.797  10.538   8.250
 6501POPC   C3A28805   9.777  10.497   7.950
 6501POPC   C4A28806   9.711  10.479   7.650
 6501POPC   C1B28807   9.675  10.810   8.550
 6501POPC   C2B28808   9.708  10.792   8.250
 6501POPC   C3B28809   9.638  10.752   7.950
 6501POPC   C4B28810   9.729  10.765   7.650
 6502POPC   NC328811  22.923  37.684   9.450
 6502POPC   PO428812  22.953  37.688   9.150
 6502POPC   GL128813  22.919  37.726   8.850
 6502POPC   GL228814  22.777  37.631   8.850
 6502POPC   C1A28815  22.972  37.711   8.550
 6502POPC   D2A28816  22.978  37.695   8.250
 6502POPC   C3A28817  22.908  37.678   7.950
 6502POPC   C4A28818  22.948  37.663   7.650
 6502POPC   C1B28819  22.719  37.619   8.550
 6502POPC   C2B28820  22.742  37.582   8.250
 6502POPC   C3B28821  22.663  37.564   7.950
 6502POPC   C4B28822  22.753  37.623   7.650
 6503POPC   NC328823  37.720  22.906   9.450
 6503POPC   PO428824  37.649  22.920   9.150
 6503POPC   GL128825  37.700  22.940   8.850
 6503POPC   GL228826  37.741  22.765   8.850
 6503POPC   C1A28827  37.630  22.921   8.550
 6503POPC   D2A28828  37.671  22.935   8.250
 6503POPC   C3A28829  37.725  22.980   7.950
 6503POPC   C4A28830  37.724  22.898   7.650
 6503POPC   C1B28831  37.679  22.693   8.550
 6503POPC   C2B28832  37.731  22.719   8.250
 6503POPC   C3B28833  37.737  22.719   7.950
 6503POPC   C4B28834  37.754  22.645   7.650
 6504POPC   NC328835   9.718   8.197   9.450
 6504POPC   PO428836   9.744   8.240   9.150
 6504POPC   GL128837   9.745   8.185   8.850
 6504POPC   GL228838   9.720   8.075   8.850
 6504POPC   C1A28839   9.773   8.190   8.550
 6504POPC   D2A28840   9.765   8.183   8.250
 6504POPC   C3A28841   9.749   8.206   7.950
 6504POPC   C4A28842   9.746   8.239   7.650
 6504POPC   C1B28843   9.798   7.980   8.550
 6504POPC   C2B28844   9.786   7.972   8.250
 6504POPC   C3B28845   9.807   7.904   7.950
 6504POPC   C4B28846   9.772   7.977   7.650
 6505POPC   NC328847  37.657  34.544   9.450
 6505POPC   PO428848  37.637  34.555   9.150
 6505POPC   GL128849  37.729  34.609   8.850
 6505POPC   GL228850  37.718  34.706   8.850
 6505POPC   C1A28851  37.723  34.618   8.550
 6505POPC   D2A28852  37.695  34.609   8.250
 6505POPC   C3A28853  37.680  34.606   7.950
 6505POPC   C4A28854  37.654  34.551   7.650
 6505POPC   C1B28855  37.825  34.780   8.550
 6505POPC   C2B28856  37.808  34.814   8.250
 6505POPC   C3B28857  37.843  34.772   7.950
 6505POPC   C4B28858  37.795  34.792   7.650
 6506POPC   NC328859  41.585  19.872   9.450
 6506POPC   PO428860  41.599  19.813   9.150
 6506POPC   GL128861  41.522  19.841   8.850
 6506POPC   GL228862  41.521  19.726   8.850
 6506POPC   C1A28863  41.573  19.851   8.550
 6506POPC   D2A28864  41.523  19.840   8.250
 6506POPC   C3A28865  41.604  19.827   7.950
 6506POPC   C4A28866  41.537  19.813   7.650
 6506POPC   C1B28867  41.414  19.685   8.550
 6506POPC   C2B28868  41.363  19.621   8.250
 6506POPC   C3B28869  41.414  19.677   7.950
 6506POPC   C4B28870  41.386  19.645   7.650
 6507POPC   NC328871  15.916   4.327   9.450
 6507POPC   PO428872  15.954   4.301   9.150
 6507POPC   GL128873  15.987   4.297   8.850
 6507POPC   GL228874  15.998   4.183   8.850
 6507POPC   C1A28875  15.970   4.287   8.550
 6507POPC   D2A28876  15.924   4.352   8.250
 6507POPC   C3A28877  15.999   4.309   7.950
 6507POPC   C4A28878  15.912   4.340   7.650
 6507POPC   C1B28879  15.975   4.028   8.550
 6507POPC   C2B28880  16.042   4.042   8.250
 6507POPC   C3B28881  15.970   4.072   7.950
 6507POPC   C4B28882  16.014   4.119   7.650
 6508POPC   NC328883  27.642  11.298   9.450
 6508POPC   PO428884  27.636  11.348   9.150
 6508POPC   GL128885  27.618  11.305   8.850
 6508POPC   GL228886  27.617  11.163   8.850
 6508POPC   C1A28887  27.565  11.350   8.550
 6508POPC   D2A28888  27.595  11.277   8.250
 6508POPC   C3A28889  27.580  11.267   7.950
 6508POPC   C4A28890  27.591  11.260   7.650
 6508POPC   C1B28891  27.700  11.086   8.550
 6508POPC   C2B28892  27.720  11.049   8.250
 6508POPC   C3B28893  27.699  11.029   7.950
 6508POPC   C4B28894  27.751  11.111   7.650
 6509POPC   NC328895   8.941  20.637   9.450
 6509POPC   PO428896   9.022  20.656   9.150
 6509POPC   GL128897   9.005  20.568   8.850
 6509POPC   GL228898   8.890  20.515   8.850
 6509POPC   C1A28899   8.976  20.627   8.550
 6509POPC   D2A28900   8.983  20.625   8.250
 6509POPC   C3A28901   9.019  20.561   7.950
 6509POPC   C4A28902   8.975  20.596   7.650
 6509POPC   C1B28903   8.883  20.352   8.550
 6509POPC   C2B28904   8.923  20.411   8.250
 6509POPC   C3B28905   8.866  20.369   7.950
 6509POPC   C4B28906   8.885  20.404   7.650
 6510POPC   NC328907  43.917   4.366   9.450
 6510POPC   PO428908  43.870   4.276   9.150
 6510POPC   GL128909  43.930   4.307   8.850
 6510POPC   GL228910  43.992   4.205   8.850
 6510POPC   C1A28911  43.931   4.347   8.550
 6510POPC   D2A28912  43.898   4.309   8.250
 6510POPC   C3A28913  43.874   4.310   7.950
 6510POPC   C4A28914  43.912   4.294   7.650
 6510POPC   C1B28915  44.095   4.160   8.550
 6510POPC   C2B28916  44.049   4.167   8.250
 6510POPC   C3B28917  44.096   4.219   7.950
 6510POPC   C4B28918  44.119   4.160   7.650
 6511POPC   NC328919   3.535  26.810   9.450
 6511POPC   PO428920   3.572  26.832   9.150
 6511POPC   GL128921   3.569  26.774   8.850
 6511POPC   GL228922   3.471  26.901   8.850
 6511POPC   C1A28923   3.545  26.850   8.550
 6511POPC   D2A28924   3.497  26.775   8.250
 6511POPC   C3A28925   3.512  26.811   7.950
 6511POPC   C4A28926   3.563  26.835   7.650
 6511POPC   C1B28927   3.330  27.030   8.550
 6511POPC   C2B28928   3.378  27.004   8.250
 6511POPC   C3B28929   3.391  26.989   7.950
 6511POPC   C4B28930   3.340  27.022   7.650
 6512POPC   NC328931  26.788  43.102   9.450
 6512POPC   PO428932  26.775  43.148   9.150
 6512POPC   GL128933  26.798  43.147   8.850
 6512POPC   GL228934  26.899  43.153   8.850
 6512POPC   C1A28935  26.796  43.113   8.550
 6512POPC   D2A28936  26.772  43.144   8.250
 6512POPC   C3A28937  26.865  43.128   7.950
 6512POPC   C4A28938  26.810  43.064   7.650
 6512POPC   C1B28939  27.035  43.176   8.550
 6512POPC   C2B28940  27.016  43.174   8.250
 6512POPC   C3B28941  27.102  43.167   7.950
 6512POPC   C4B28942  27.035  43.208   7.650
 6513POPC   NC328943  14.416  26.771   9.450
 6513POPC   PO428944  14.394  26.816   9.150
 6513POPC   GL128945  14.435  26.781   8.850
 6513POPC   GL228946  14.419  26.907   8.850
 6513POPC   C1A28947  14.383  26.788   8.550
 6513POPC   D2A28948  14.386  26.861   8.250
 6513POPC   C3A28949  14.447  26.810   7.950
 6513POPC   C4A28950  14.384  26.803   7.650
 6513POPC   C1B28951  14.492  27.045   8.550
 6513POPC   C2B28952  14.397  27.067   8.250
 6513POPC   C3B28953  14.403  27.021   7.950
 6513POPC   C4B28954  14.407  27.083   7.650
 6514POPC   NC328955  12.125  29.914   9.450
 6514POPC   PO428956  12.086  29.884   9.150
 6514POPC   GL128957  12.030  29.920   8.850
 6514POPC   GL228958  12.165  29.845   8.850
 6514POPC   C1A28959  12.059  29.886   8.550
 6514POPC   D2A28960  12.067  29.925   8.250
 6514POPC   C3A28961  12.084  29.917   7.950
 6514POPC   C4A28962  12.049  29.904   7.650
 6514POPC   C1B28963  12.263  29.803   8.550
 6514POPC   C2B28964  12.286  29.768   8.250
 6514POPC   C3B28965  12.260  29.780   7.950
 6514POPC   C4B28966  12.234  29.763   7.650
 6515POPC   NC328967  31.490  18.273   9.450
 6515POPC   PO428968  31.444  18.294   9.150
 6515POPC   GL128969  31.477  18.243   8.850
 6515POPC   GL228970  31.354  18.295   8.850
 6515POPC   C1A28971  31.507  18.268   8.550
 6515POPC   D2A28972  31.424  18.245   8.250
 6515POPC   C3A28973  31.515  18.242   7.950
 6515POPC   C4A28974  31.518  18.258   7.650
 6515POPC   C1B28975  31.267  18.307   8.550
 6515POPC   C2B28976  31.226  18.355   8.250
 6515POPC   C3B28977  31.238  18.346   7.950
 6515POPC   C4B28978  31.274  18.309   7.650
 6516POPC   NC328979  41.553   8.211   9.450
 6516POPC   PO428980  41.560   8.211   9.150
 6516POPC   GL128981  41.591   8.239   8.850
 6516POPC   GL228982  41.565   8.360   8.850
 6516POPC   C1A28983  41.555   8.211   8.550
 6516POPC   D2A28984  41.576   8.148   8.250
 6516POPC   C3A28985  41.587   8.174   7.950
 6516POPC   C4A28986  41.524   8.241   7.650
 6516POPC   C1B28987  41.516   8.427   8.550
 6516POPC   C2B28988  41.468   8.421   8.250
 6516POPC   C3B28989  41.513   8.400   7.950
 6516POPC   C4B28990  41.474   8.416   7.650
 6517POPC   NC328991  39.230  29.890   9.450
 6517POPC   PO428992  39.202  29.953   9.150
 6517POPC   GL128993  39.224  29.914   8.850
 6517POPC   GL228994  39.166  29.836   8.850
 6517POPC   C1A28995  39.229  29.899   8.550
 6517POPC   D2A28996  39.190  29.912   8.250
 6517POPC   C3A28997  39.191  29.937   7.950
 6517POPC   C4A28998  39.188  29.970   7.650
 6517POPC   C1B28999  38.966  29.822   8.550
 6517POPC   C2B29000  39.019  29.790   8.250
 6517POPC   C3B29001  39.038  29.779   7.950
 6517POPC   C4B29002  39.045  29.798   7.650
 6518POPC   NC329003  20.639  25.241   9.450
 6518POPC   PO429004  20.565  25.218   9.150
 6518POPC   GL129005  20.651  25.295   8.850
 6518POPC   GL229006  20.610  25.425   8.850
 6518POPC   C1A29007  20.603  25.231   8.550
 6518POPC   D2A29008  20.603  25.276   8.250
 6518POPC   C3A29009  20.593  25.245   7.950
 6518POPC   C4A29010  20.610  25.219   7.650
 6518POPC   C1B29011  20.649  25.465   8.550
 6518POPC   C2B29012  20.612  25.462   8.250
 6518POPC   C3B29013  20.684  25.502   7.950
 6518POPC   C4B29014  20.672  25.476   7.650
 6519POPC   NC329015   7.374  23.694   9.450
 6519POPC   PO429016   7.432  23.687   9.150
 6519POPC   GL129017   7.410  23.757   8.850
 6519POPC   GL229018   7.435  23.819   8.850
 6519POPC   C1A29019   7.430  23.761   8.550
 6519POPC   D2A29020   7.445  23.681   8.250
 6519POPC   C3A29021   7.410  23.707   7.950
 6519POPC   C4A29022   7.453  23.756   7.650
 6519POPC   C1B29023   7.565  23.888   8.550
 6519POPC   C2B29024   7.497  23.954   8.250
 6519POPC   C3B29025   7.542  23.895   7.950
 6519POPC   C4B29026   7.489  23.965   7.650
 6520POPC   NC329027  42.317  15.944   9.450
 6520POPC   PO429028  42.341  15.981   9.150
 6520POPC   GL129029  42.328  15.946   8.850
 6520POPC   GL229030  42.259  16.007   8.850
 6520POPC   C1A29031  42.341  15.977   8.550
 6520POPC   D2A29032  42.309  15.929   8.250
 6520POPC   C3A29033  42.336  15.994   7.950
 6520POPC   C4A29034  42.372  15.909   7.650
 6520POPC   C1B29035  42.129  15.988   8.550
 6520POPC   C2B29036  42.070  16.031   8.250
 6520POPC   C3B29037  42.058  16.033   7.950
 6520POPC   C4B29038  42.047  16.027   7.650
 6521POPC   NC329039  13.630  35.349   9.450
 6521POPC   PO429040  13.587  35.344   9.150
 6521POPC   GL129041  13.629  35.338   8.850
 6521POPC   GL229042  13.759  35.241   8.850
 6521POPC   C1A29043  13.667  35.342   8.550
 6521POPC   D2A29044  13.677  35.305   8.250
 6521POPC   C3A29045  13.664  35.375   7.950
 6521POPC   C4A29046  13.579  35.391   7.650
 6521POPC   C1B29047  13.782  35.169   8.550
 6521POPC   C2B29048  13.771  35.216   8.250
 6521POPC   C3B29049  13.780  35.182   7.950
 6521POPC   C4B29050  13.851  35.215   7.650
 6522POPC   NC329051   2.721  15.210   9.450
 6522POPC   PO429052   2.760  15.200   9.150
 6522POPC   GL129053   2.723  15.178   8.850
 6522POPC   GL229054   2.903  15.175   8.850
 6522POPC   C1A29055   2.763  15.138   8.550
 6522POPC   D2A29056   2.807  15.134   8.250
 6522POPC   C3A29057   2.773  15.176   7.950
 6522POPC   C4A29058   2.806  15.145   7.650
 6522POPC   C1B29059   3.054  15.058   8.550
 6522POPC   C2B29060   3.042  15.137   8.250
 6522POPC   C3B29061   3.005  15.125   7.950
 6522POPC   C4B29062   2.962  15.146   7.650
 6523POPC   NC329063   0.466  23.730   9.450
 6523POPC   PO429064   0.409  23.698   9.150
 6523POPC   GL129065   0.435  23.746   8.850
 6523POPC   GL229066   0.483  23.581   8.850
 6523POPC   C1A29067   0.454  23.748   8.550
 6523POPC   D2A29068   0.472  23.749   8.250
 6523POPC   C3A29069   0.412  23.705   7.950
 6523POPC   C4A29070   0.449  23.679   7.650
 6523POPC   C1B29071   0.558  23.456   8.550
 6523POPC   C2B29072   0.555  23.438   8.250
 6523POPC   C3B29073   0.554  23.429   7.950
 6523POPC   C4B29074   0.570  23.461   7.650
 6524POPC   NC329075   7.388  28.392   9.450
 6524POPC   PO429076   7.382  28.361   9.150
 6524POPC   GL129077   7.464  28.413   8.850
 6524POPC   GL229078   7.544  28.275   8.850
 6524POPC   C1A29079   7.392  28.365   8.550
 6524POPC   D2A29080   7.409  28.381   8.250
 6524POPC   C3A29081   7.452  28.386   7.950
 6524POPC   C4A29082   7.425  28.364   7.650
 6524POPC   C1B29083   7.573  28.165   8.550
 6524POPC   C2B29084   7.551  28.199   8.250
 6524POPC   C3B29085   7.582  28.152   7.950
 6524POPC   C4B29086   7.558  28.142   7.650
 6525POPC   NC329087  12.870  36.164   9.450
 6525POPC   PO429088  12.803  36.134   9.150
 6525POPC   GL129089  12.817  36.151   8.850
 6525POPC   GL229090  12.766  36.058   8.850
 6525POPC   C1A29091  12.896  36.092   8.550
 6525POPC   D2A29092  12.838  36.146   8.250
 6525POPC   C3A29093  12.872  36.112   7.950
 6525POPC   C4A29094  12.888  36.153   7.650
 6525POPC   C1B29095  12.675  35.996   8.550
 6525POPC   C2B29096  12.699  35.987   8.250
 6525POPC   C3B29097  12.653  35.976   7.950
 6525POPC   C4B29098  12.616  36.009   7.650
 6526POPC   NC329099  32.246  44.702   9.450
 6526POPC   PO429100  32.208  44.704   9.150
 6526POPC   GL129101  32.213  44.655   8.850
 6526POPC   GL229102  32.219  44.514   8.850
 6526POPC   C1A29103  32.250  44.622   8.550
 6526POPC   D2A29104  32.287  44.703   8.250
 6526POPC   C3A29105  32.293  44.641   7.950
 6526POPC   C4A29106  32.280  44.661   7.650
 6526POPC   C1B29107  32.218  44.417   8.550
 6526POPC   C2B29108  32.259  44.435   8.250
 6526POPC   C3B29109  32.247  44.422   7.950
 6526POPC   C4B29110  32.214  44.430   7.650
 6527POPC   NC329111   5.117  21.395   9.450
 6527POPC   PO429112   5.051  21.364   9.150
 6527POPC   GL129113   5.121  21.363   8.850
 6527POPC   GL229114   5.129  21.499   8.850
 6527POPC   C1A29115   5.124  21.387   8.550
 6527POPC   D2A29116   5.111  21.361   8.250
 6527POPC   C3A29117   5.105  21.415   7.950
 6527POPC   C4A29118   5.069  21.379   7.650
 6527POPC   C1B29119   5.176  21.591   8.550
 6527POPC   C2B29120   5.197  21.595   8.250
 6527POPC   C3B29121   5.189  21.601   7.950
 6527POPC   C4B29122   5.242  21.565   7.650
 6528POPC   NC329123  24.514  19.798   9.450
 6528POPC   PO429124  24.464  19.884   9.150
 6528POPC   GL129125  24.533  19.871   8.850
 6528POPC   GL229126  24.570  19.938   8.850
 6528POPC   C1A29127  24.502  19.871   8.550
 6528POPC   D2A29128  24.512  19.871   8.250
 6528POPC   C3A29129  24.492  19.860   7.950
 6528POPC   C4A29130  24.507  19.824   7.650
 6528POPC   C1B29131  24.694  20.032   8.550
 6528POPC   C2B29132  24.673  20.030   8.250
 6528POPC   C3B29133  24.621  20.055   7.950
 6528POPC   C4B29134  24.681  19.995   7.650
 6529POPC   NC329135  15.211  27.580   9.450
 6529POPC   PO429136  15.155  27.625   9.150
 6529POPC   GL129137  15.148  27.553   8.850
 6529POPC   GL229138  15.251  27.455   8.850
 6529POPC   C1A29139  15.173  27.581   8.550
 6529POPC   D2A29140  15.186  27.616   8.250
 6529POPC   C3A29141  15.155  27.605   7.950
 6529POPC   C4A29142  15.223  27.582   7.650
 6529POPC   C1B29143  15.363  27.378   8.550
 6529POPC   C2B29144  15.361  27.435   8.250
 6529POPC   C3B29145  15.355  27.404   7.950
 6529POPC   C4B29146  15.289  27.350   7.650
 6530POPC   NC329147  24.460  29.908   9.450
 6530POPC   PO429148  24.464  29.889   9.150
 6530POPC   GL129149  24.453  29.874   8.850
 6530POPC   GL229150  24.540  29.822   8.850
 6530POPC   C1A29151  24.530  29.946   8.550
 6530POPC   D2A29152  24.494  29.950   8.250
 6530POPC   C3A29153  24.481  29.914   7.950
 6530POPC   C4A29154  24.498  29.949   7.650
 6530POPC   C1B29155  24.681  29.722   8.550
 6530POPC   C2B29156  24.660  29.715   8.250
 6530POPC   C3B29157  24.625  29.677   7.950
 6530POPC   C4B29158  24.675  29.665   7.650
 6531POPC   NC329159  23.685  15.198   9.450
 6531POPC   PO429160  23.718  15.202   9.150
 6531POPC   GL129161  23.701  15.144   8.850
 6531POPC   GL229162  23.573  15.185   8.850
 6531POPC   C1A29163  23.704  15.161   8.550
 6531POPC   D2A29164  23.696  15.220   8.250
 6531POPC   C3A29165  23.729  15.140   7.950
 6531POPC   C4A29166  23.713  15.190   7.650
 6531POPC   C1B29167  23.502  15.139   8.550
 6531POPC   C2B29168  23.506  15.141   8.250
 6531POPC   C3B29169  23.426  15.109   7.950
 6531POPC   C4B29170  23.505  15.141   7.650
 6532POPC   NC329171  28.376  41.535   9.450
 6532POPC   PO429172  28.369  41.532   9.150
 6532POPC   GL129173  28.376  41.515   8.850
 6532POPC   GL229174  28.331  41.717   8.850
 6532POPC   C1A29175  28.405  41.532   8.550
 6532POPC   D2A29176  28.339  41.572   8.250
 6532POPC   C3A29177  28.394  41.550   7.950
 6532POPC   C4A29178  28.384  41.552   7.650
 6532POPC   C1B29179  28.362  41.851   8.550
 6532POPC   C2B29180  28.371  41.819   8.250
 6532POPC   C3B29181  28.319  41.820   7.950
 6532POPC   C4B29182  28.338  41.805   7.650
 6533POPC   NC329183  29.933  21.401   9.450
 6533POPC   PO429184  29.930  21.338   9.150
 6533POPC   GL129185  29.899  21.373   8.850
 6533POPC   GL229186  30.076  21.333   8.850
 6533POPC   C1A29187  29.957  21.366   8.550
 6533POPC   D2A29188  29.907  21.368   8.250
 6533POPC   C3A29189  29.908  21.336   7.950
 6533POPC   C4A29190  29.881  21.420   7.650
 6533POPC   C1B29191  30.119  21.306   8.550
 6533POPC   C2B29192  30.159  21.302   8.250
 6533POPC   C3B29193  30.105  21.313   7.950
 6533POPC   C4B29194  30.167  21.243   7.650
 6534POPC   NC329195  22.191  15.199   9.450
 6534POPC   PO429196  22.155  15.221   9.150
 6534POPC   GL129197  22.147  15.157   8.850
 6534POPC   GL229198  22.203  15.114   8.850
 6534POPC   C1A29199  22.181  15.175   8.550
 6534POPC   D2A29200  22.193  15.220   8.250
 6534POPC   C3A29201  22.164  15.177   7.950
 6534POPC   C4A29202  22.137  15.169   7.650
 6534POPC   C1B29203  22.282  14.935   8.550
 6534POPC   C2B29204  22.324  14.964   8.250
 6534POPC   C3B29205  22.292  14.947   7.950
 6534POPC   C4B29206  22.233  14.984   7.650
 6535POPC   NC329207  30.668  22.958   9.450
 6535POPC   PO429208  30.732  22.936   9.150
 6535POPC   GL129209  30.682  22.905   8.850
 6535POPC   GL229210  30.740  23.048   8.850
 6535POPC   C1A29211  30.739  22.927   8.550
 6535POPC   D2A29212  30.740  22.982   8.250
 6535POPC   C3A29213  30.688  22.899   7.950
 6535POPC   C4A29214  30.733  22.963   7.650
 6535POPC   C1B29215  30.730  23.199   8.550
 6535POPC   C2B29216  30.709  23.175   8.250
 6535POPC   C3B29217  30.718  23.142   7.950
 6535POPC   C4B29218  30.741  23.182   7.650
 6536POPC   NC329219  20.660  42.351   9.450
 6536POPC   PO429220  20.592  42.310   9.150
 6536POPC   GL129221  20.587  42.342   8.850
 6536POPC   GL229222  20.600  42.442   8.850
 6536POPC   C1A29223  20.656  42.330   8.550
 6536POPC   D2A29224  20.588  42.365   8.250
 6536POPC   C3A29225  20.578  42.296   7.950
 6536POPC   C4A29226  20.640  42.360   7.650
 6536POPC   C1B29227  20.582  42.573   8.550
 6536POPC   C2B29228  20.564  42.567   8.250
 6536POPC   C3B29229  20.595  42.612   7.950
 6536POPC   C4B29230  20.589  42.618   7.650
 6537POPC   NC329231  24.518   3.591   9.450
 6537POPC   PO429232  24.517   3.542   9.150
 6537POPC   GL129233  24.528   3.530   8.850
 6537POPC   GL229234  24.400   3.400   8.850
 6537POPC   C1A29235  24.518   3.569   8.550
 6537POPC   D2A29236  24.511   3.569   8.250
 6537POPC   C3A29237  24.533   3.506   7.950
 6537POPC   C4A29238  24.506   3.581   7.650
 6537POPC   C1B29239  24.418   3.357   8.550
 6537POPC   C2B29240  24.350   3.310   8.250
 6537POPC   C3B29241  24.374   3.333   7.950
 6537POPC   C4B29242  24.418   3.354   7.650
 6538POPC   NC329243   9.771  21.357   9.450
 6538POPC   PO429244   9.734  21.338   9.150
 6538POPC   GL129245   9.716  21.339   8.850
 6538POPC   GL229246   9.773  21.463   8.850
 6538POPC   C1A29247   9.754  21.350   8.550
 6538POPC   D2A29248   9.767  21.347   8.250
 6538POPC   C3A29249   9.710  21.367   7.950
 6538POPC   C4A29250   9.742  21.349   7.650
 6538POPC   C1B29251   9.848  21.564   8.550
 6538POPC   C2B29252   9.867  21.583   8.250
 6538POPC   C3B29253   9.849  21.614   7.950
 6538POPC   C4B29254   9.843  21.558   7.650
 6539POPC   NC329255  37.648  43.147   9.450
 6539POPC   PO429256  37.666  43.109   9.150
 6539POPC   GL129257  37.675  43.105   8.850
 6539POPC   GL229258  37.543  43.045   8.850
 6539POPC   C1A29259  37.632  43.102   8.550
 6539POPC   D2A29260  37.669  43.094   8.250
 6539POPC   C3A29261  37.690  43.113   7.950
 6539POPC   C4A29262  37.673  43.110   7.650
 6539POPC   C1B29263  37.469  42.918   8.550
 6539POPC   C2B29264  37.457  42.984   8.250
 6539POPC   C3B29265  37.444  42.952   7.950
 6539POPC   C4B29266  37.466  42.969   7.650
 6540POPC   NC329267  33.017  44.653   9.450
 6540POPC   PO429268  33.069  44.690   9.150
 6540POPC   GL129269  32.976  44.710   8.850
 6540POPC   GL229270  32.967  44.827   8.850
 6540POPC   C1A29271  33.058  44.681   8.550
 6540POPC   D2A29272  33.013  44.680   8.250
 6540POPC   C3A29273  32.992  44.624   7.950
 6540POPC   C4A29274  33.021  44.652   7.650
 6540POPC   C1B29275  32.937  44.940   8.550
 6540POPC   C2B29276  32.893  44.890   8.250
 6540POPC   C3B29277  32.975  44.871   7.950
 6540POPC   C4B29278  32.893  44.850   7.650
 6541POPC   NC329279  14.414  22.166   9.450
 6541POPC   PO429280  14.384  22.190   9.150
 6541POPC   GL129281  14.359  22.160   8.850
 6541POPC   GL229282  14.254  22.108   8.850
 6541POPC   C1A29283  14.397  22.187   8.550
 6541POPC   D2A29284  14.379  22.212   8.250
 6541POPC   C3A29285  14.401  22.164   7.950
 6541POPC   C4A29286  14.452  22.194   7.650
 6541POPC   C1B29287  14.130  22.097   8.550
 6541POPC   C2B29288  14.125  22.168   8.250
 6541POPC   C3B29289  14.164  22.170   7.950
 6541POPC   C4B29290  14.175  22.103   7.650
 6542POPC   NC329291  41.591  26.840   9.450
 6542POPC   PO429292  41.515  26.778   9.150
 6542POPC   GL129293  41.605  26.846   8.850
 6542POPC   GL229294  41.440  26.930   8.850
 6542POPC   C1A29295  41.593  26.859   8.550
 6542POPC   D2A29296  41.578  26.787   8.250
 6542POPC   C3A29297  41.533  26.808   7.950
 6542POPC   C4A29298  41.559  26.820   7.650
 6542POPC   C1B29299  41.318  26.969   8.550
 6542POPC   C2B29300  41.359  26.969   8.250
 6542POPC   C3B29301  41.400  27.004   7.950
 6542POPC   C4B29302  41.370  26.982   7.650
 6543POPC   NC329303  35.384  40.034   9.450
 6543POPC   PO429304  35.360  40.036   9.150
 6543POPC   GL129305  35.304  39.985   8.850
 6543POPC   GL229306  35.279  40.050   8.850
 6543POPC   C1A29307  35.303  40.022   8.550
 6543POPC   D2A29308  35.392  40.048   8.250
 6543POPC   C3A29309  35.334  39.962   7.950
 6543POPC   C4A29310  35.387  40.026   7.650
 6543POPC   C1B29311  35.220  40.161   8.550
 6543POPC   C2B29312  35.182  40.140   8.250
 6543POPC   C3B29313  35.216  40.162   7.950
 6543POPC   C4B29314  35.133  40.227   7.650
 6544POPC   NC329315   2.740   7.459   9.450
 6544POPC   PO429316   2.724   7.401   9.150
 6544POPC   GL129317   2.724   7.466   8.850
 6544POPC   GL229318   2.814   7.503   8.850
 6544POPC   C1A29319   2.800   7.387   8.550
 6544POPC   D2A29320   2.766   7.455   8.250
 6544POPC   C3A29321   2.758   7.447   7.950
 6544POPC   C4A29322   2.758   7.390   7.650
 6544POPC   C1B29323   2.761   7.690   8.550
 6544POPC   C2B29324   2.828   7.640   8.250
 6544POPC   C3B29325   2.808   7.658   7.950
 6544POPC   C4B29326   2.825   7.637   7.650
 6545POPC   NC329327  14.404  20.651   9.450
 6545POPC   PO429328  14.421  20.566   9.150
 6545POPC   GL129329  14.403  20.572   8.850
 6545POPC   GL229330  14.493  20.589   8.850
 6545POPC   C1A29331  14.396  20.568   8.550
 6545POPC   D2A29332  14.450  20.569   8.250
 6545POPC   C3A29333  14.401  20.624   7.950
 6545POPC   C4A29334  14.362  20.655   7.650
 6545POPC   C1B29335  14.616  20.490   8.550
 6545POPC   C2B29336  14.626  20.554   8.250
 6545POPC   C3B29337  14.610  20.521   7.950
 6545POPC   C4B29338  14.669  20.483   7.650
 6546POPC   NC329339  43.118  33.764   9.450
 6546POPC   PO429340  43.108  33.758   9.150
 6546POPC   GL129341  43.129  33.786   8.850
 6546POPC   GL229342  42.981  33.824   8.850
 6546POPC   C1A29343  43.124  33.755   8.550
 6546POPC   D2A29344  43.138  33.819   8.250
 6546POPC   C3A29345  43.097  33.844   7.950
 6546POPC   C4A29346  43.151  33.779   7.650
 6546POPC   C1B29347  42.931  33.883   8.550
 6546POPC   C2B29348  42.904  33.938   8.250
 6546POPC   C3B29349  42.899  33.951   7.950
 6546POPC   C4B29350  42.926  33.942   7.650
 6547POPC   NC329351  39.262  26.807   9.450
 6547POPC   PO429352  39.243  26.843   9.150
 6547POPC   GL129353  39.260  26.831   8.850
 6547POPC   GL229354  39.121  26.707   8.850
 6547POPC   C1A29355  39.263  26.787   8.550
 6547POPC   D2A29356  39.199  26.804   8.250
 6547POPC   C3A29357  39.191  26.813   7.950
 6547POPC   C4A29358  39.242  26.810   7.650
 6547POPC   C1B29359  39.084  26.616   8.550
 6547POPC   C2B29360  39.091  26.670   8.250
 6547POPC   C3B29361  39.021  26.683   7.950
 6547POPC   C4B29362  39.094  26.676   7.650
 6548POPC   NC329363   4.283  31.496   9.450
 6548POPC   PO429364   4.308  31.468   9.150
 6548POPC   GL129365   4.316  31.443   8.850
 6548POPC   GL229366   4.198  31.589   8.850
 6548POPC   C1A29367   4.268  31.458   8.550
 6548POPC   D2A29368   4.345  31.504   8.250
 6548POPC   C3A29369   4.268  31.456   7.950
 6548POPC   C4A29370   4.364  31.512   7.650
 6548POPC   C1B29371   4.152  31.675   8.550
 6548POPC   C2B29372   4.121  31.618   8.250
 6548POPC   C3B29373   4.122  31.642   7.950
 6548POPC   C4B29374   4.142  31.638   7.650
 6549POPC   NC329375  12.045   5.070   9.450
 6549POPC   PO429376  12.090   5.076   9.150
 6549POPC   GL129377  12.069   5.059   8.850
 6549POPC   GL229378  12.160   5.068   8.850
 6549POPC   C1A29379  12.078   5.083   8.550
 6549POPC   D2A29380  12.080   5.134   8.250
 6549POPC   C3A29381  12.107   5.126   7.950
 6549POPC   C4A29382  12.028   5.070   7.650
 6549POPC   C1B29383  12.297   4.962   8.550
 6549POPC   C2B29384  12.262   5.001   8.250
 6549POPC   C3B29385  12.261   4.979   7.950
 6549POPC   C4B29386  12.335   5.020   7.650
 6550POPC   NC329387  33.759   0.404   9.450
 6550POPC   PO429388  33.823   0.455   9.150
 6550POPC   GL129389  33.800   0.393   8.850
 6550POPC   GL229390  33.803   0.278   8.850
 6550POPC   C1A29391  33.766   0.398   8.550
 6550POPC   D2A29392  33.765   0.396   8.250
 6550POPC   C3A29393  33.793   0.484   7.950
 6550POPC   C4A29394  33.823   0.418   7.650
 6550POPC   C1B29395  33.694   0.190   8.550
 6550POPC   C2B29396  33.710   0.199   8.250
 6550POPC   C3B29397  33.678   0.194   7.950
 6550POPC   C4B29398  33.747   0.251   7.650
 6551POPC   NC329399  29.162  12.037   9.450
 6551POPC   PO429400  29.147  12.093   9.150
 6551POPC   GL129401  29.132  12.058   8.850
 6551POPC   GL229402  29.126  12.244   8.850
 6551POPC   C1A29403  29.098  12.029   8.550
 6551POPC   D2A29404  29.162  12.070   8.250
 6551POPC   C3A29405  29.183  12.078   7.950
 6551POPC   C4A29406  29.189  12.124   7.650
 6551POPC   C1B29407  29.098  12.275   8.550
 6551POPC   C2B29408  29.150  12.315   8.250
 6551POPC   C3B29409  29.146  12.293   7.950
 6551POPC   C4B29410  29.090  12.354   7.650
 6552POPC   NC329411   9.016  39.264   9.450
 6552POPC   PO429412   8.928  39.277   9.150
 6552POPC   GL129413   8.936  39.197   8.850
 6552POPC   GL229414   9.034  39.120   8.850
 6552POPC   C1A29415   9.010  39.280   8.550
 6552POPC   D2A29416   8.944  39.210   8.250
 6552POPC   C3A29417   8.958  39.196   7.950
 6552POPC   C4A29418   8.965  39.215   7.650
 6552POPC   C1B29419   9.090  39.009   8.550
 6552POPC   C2B29420   9.081  38.968   8.250
 6552POPC   C3B29421   9.040  39.043   7.950
 6552POPC   C4B29422   9.093  38.956   7.650
 6553POPC   NC329423  44.617  14.415   9.450
 6553POPC   PO429424  44.658  14.451   9.150
 6553POPC   GL129425  44.691  14.380   8.850
 6553POPC   GL229426  44.668  14.330   8.850
 6553POPC   C1A29427  44.649  14.424   8.550
 6553POPC   D2A29428  44.634  14.362   8.250
 6553POPC   C3A29429  44.634  14.445   7.950
 6553POPC   C4A29430  44.621  14.365   7.650
 6553POPC   C1B29431  44.766  14.184   8.550
 6553POPC   C2B29432  44.758  14.156   8.250
 6553POPC   C3B29433  44.700  14.183   7.950
 6553POPC   C4B29434  44.709  14.171   7.650
 6554POPC   NC329435  21.345  26.059   9.450
 6554POPC   PO429436  21.418  26.033   9.150
 6554POPC   GL129437  21.340  26.084   8.850
 6554POPC   GL229438  21.288  25.971   8.850
 6554POPC   C1A29439  21.394  26.080   8.550
 6554POPC   D2A29440  21.375  26.052   8.250
 6554POPC   C3A29441  21.430  25.992   7.950
 6554POPC   C4A29442  21.378  26.061   7.650
 6554POPC   C1B29443  21.166  26.010   8.550
 6554POPC   C2B29444  21.189  25.950   8.250
 6554POPC   C3B29445  21.173  25.984   7.950
 6554POPC   C4B29446  21.112  26.032   7.650
 6555POPC   NC329447  25.216  40.754   9.450
 6555POPC   PO429448  25.255  40.818   9.150
 6555POPC   GL129449  25.287  40.770   8.850
 6555POPC   GL229450  25.340  40.841   8.850
 6555POPC   C1A29451  25.294  40.807   8.550
 6555POPC   D2A29452  25.315  40.812   8.250
 6555POPC   C3A29453  25.288  40.795   7.950
 6555POPC   C4A29454  25.300  40.753   7.650
 6555POPC   C1B29455  25.520  40.852   8.550
 6555POPC   C2B29456  25.537  40.903   8.250
 6555POPC   C3B29457  25.475  40.824   7.950
 6555POPC   C4B29458  25.527  40.861   7.650
 6556POPC   NC329459  11.298   1.239   9.450
 6556POPC   PO429460  11.315   1.254   9.150
 6556POPC   GL129461  11.310   1.253   8.850
 6556POPC   GL229462  11.146   1.221   8.850
 6556POPC   C1A29463  11.272   1.238   8.550
 6556POPC   D2A29464  11.302   1.206   8.250
 6556POPC   C3A29465  11.309   1.236   7.950
 6556POPC   C4A29466  11.261   1.194   7.650
 6556POPC   C1B29467  11.056   1.360   8.550
 6556POPC   C2B29468  11.120   1.330   8.250
 6556POPC   C3B29469  11.102   1.329   7.950
 6556POPC   C4B29470  11.031   1.284   7.650
 6557POPC   NC329471   8.148  22.891   9.450
 6557POPC   PO429472   8.215  22.957   9.150
 6557POPC   GL129473   8.202  22.942   8.850
 6557POPC   GL229474   8.318  22.922   8.850
 6557POPC   C1A29475   8.162  22.936   8.550
 6557POPC   D2A29476   8.222  22.939   8.250
 6557POPC   C3A29477   8.162  22.953   7.950
 6557POPC   C4A29478   8.153  22.962   7.650
 6557POPC   C1B29479   8.454  22.865   8.550
 6557POPC   C2B29480   8.424  22.785   8.250
 6557POPC   C3B29481   8.412  22.824   7.950
 6557POPC   C4B29482   8.372  22.863   7.650
 6558POPC   NC329483  11.282  36.106   9.450
 6558POPC   PO429484  11.331  36.109   9.150
 6558POPC   GL129485  11.270  36.107   8.850
 6558POPC   GL229486  11.183  36.156   8.850
 6558POPC   C1A29487  11.312  36.101   8.550
 6558POPC   D2A29488  11.281  36.111   8.250
 6558POPC   C3A29489  11.269  36.149   7.950
 6558POPC   C4A29490  11.269  36.153   7.650
 6558POPC   C1B29491  11.080  36.227   8.550
 6558POPC   C2B29492  11.063  36.200   8.250
 6558POPC   C3B29493  11.035  36.156   7.950
 6558POPC   C4B29494  11.018  36.172   7.650
 6559POPC   NC329495  36.160  40.747   9.450
 6559POPC   PO429496  36.124  40.771   9.150
 6559POPC   GL129497  36.116  40.826   8.850
 6559POPC   GL229498  36.046  40.938   8.850
 6559POPC   C1A29499  36.090  40.818   8.550
 6559POPC   D2A29500  36.107  40.821   8.250
 6559POPC   C3A29501  36.087  40.819   7.950
 6559POPC   C4A29502  36.106  40.789   7.650
 6559POPC   C1B29503  36.084  41.065   8.550
 6559POPC   C2B29504  36.041  41.045   8.250
 6559POPC   C3B29505  36.021  41.029   7.950
 6559POPC   C4B29506  36.078  40.973   7.650
 6560POPC   NC329507  13.611  13.591   9.450
 6560POPC   PO429508  13.664  13.596   9.150
 6560POPC   GL129509  13.650  13.584   8.850
 6560POPC   GL229510  13.714  13.684   8.850
 6560POPC   C1A29511  13.625  13.665   8.550
 6560POPC   D2A29512  13.677  13.640   8.250
 6560POPC   C3A29513  13.660  13.644   7.950
 6560POPC   C4A29514  13.668  13.633   7.650
 6560POPC   C1B29515  13.761  13.831   8.550
 6560POPC   C2B29516  13.769  13.850   8.250
 6560POPC   C3B29517  13.757  13.795   7.950
 6560POPC   C4B29518  13.816  13.796   7.650
 6561POPC   NC329519  12.897  24.495   9.450
 6561POPC   PO429520  12.885  24.453   9.150
 6561POPC   GL129521  12.820  24.493   8.850
 6561POPC   GL229522  12.773  24.497   8.850
 6561POPC   C1A29523  12.831  24.445   8.550
 6561POPC   D2A29524  12.814  24.491   8.250
 6561POPC   C3A29525  12.837  24.457   7.950
 6561POPC   C4A29526  12.875  24.510   7.650
 6561POPC   C1B29527  12.585  24.454   8.550
 6561POPC   C2B29528  12.591  24.416   8.250
 6561POPC   C3B29529  12.565  24.469   7.950
 6561POPC   C4B29530  12.596  24.487   7.650
 6562POPC   NC329531   9.018   9.774   9.450
 6562POPC   PO429532   8.930   9.717   9.150
 6562POPC   GL129533   8.977   9.793   8.850
 6562POPC   GL229534   9.129   9.755   8.850
 6562POPC   C1A29535   8.990   9.746   8.550
 6562POPC   D2A29536   8.993   9.743   8.250
 6562POPC   C3A29537   8.938   9.757   7.950
 6562POPC   C4A29538   8.968   9.743   7.650
 6562POPC   C1B29539   9.219   9.786   8.550
 6562POPC   C2B29540   9.232   9.846   8.250
 6562POPC   C3B29541   9.257   9.790   7.950
 6562POPC   C4B29542   9.217   9.797   7.650
 6563POPC   NC329543  43.129  36.148   9.450
 6563POPC   PO429544  43.091  36.084   9.150
 6563POPC   GL129545  43.113  36.164   8.850
 6563POPC   GL229546  43.220  36.072   8.850
 6563POPC   C1A29547  43.148  36.148   8.550
 6563POPC   D2A29548  43.070  36.174   8.250
 6563POPC   C3A29549  43.081  36.119   7.950
 6563POPC   C4A29550  43.144  36.091   7.650
 6563POPC   C1B29551  43.392  36.131   8.550
 6563POPC   C2B29552  43.380  36.148   8.250
 6563POPC   C3B29553  43.334  36.098   7.950
 6563POPC   C4B29554  43.401  36.070   7.650
 6564POPC   NC329555  32.237  35.347   9.450
 6564POPC   PO429556  32.205  35.311   9.150
 6564POPC   GL129557  32.292  35.310   8.850
 6564POPC   GL229558  32.202  35.433   8.850
 6564POPC   C1A29559  32.255  35.390   8.550
 6564POPC   D2A29560  32.208  35.366   8.250
 6564POPC   C3A29561  32.281  35.368   7.950
 6564POPC   C4A29562  32.226  35.345   7.650
 6564POPC   C1B29563  32.112  35.566   8.550
 6564POPC   C2B29564  32.102  35.519   8.250
 6564POPC   C3B29565  32.038  35.526   7.950
 6564POPC   C4B29566  32.083  35.500   7.650
 6565POPC   NC329567  38.500  29.176   9.450
 6565POPC   PO429568  38.495  29.147   9.150
 6565POPC   GL129569  38.427  29.155   8.850
 6565POPC   GL229570  38.300  29.142   8.850
 6565POPC   C1A29571  38.492  29.161   8.550
 6565POPC   D2A29572  38.495  29.118   8.250
 6565POPC   C3A29573  38.498  29.148   7.950
 6565POPC   C4A29574  38.412  29.165   7.650
 6565POPC   C1B29575  38.250  29.167   8.550
 6565POPC   C2B29576  38.204  29.179   8.250
 6565POPC   C3B29577  38.220  29.178   7.950
 6565POPC   C4B29578  38.251  29.170   7.650
 6566POPC   NC329579  29.184  43.159   9.450
 6566POPC   PO429580  29.095  43.116   9.150
 6566POPC   GL129581  29.173  43.102   8.850
 6566POPC   GL229582  29.240  43.138   8.850
 6566POPC   C1A29583  29.122  43.074   8.550
 6566POPC   D2A29584  29.169  43.071   8.250
 6566POPC   C3A29585  29.182  43.067   7.950
 6566POPC   C4A29586  29.145  43.137   7.650
 6566POPC   C1B29587  29.401  43.053   8.550
 6566POPC   C2B29588  29.433  43.049   8.250
 6566POPC   C3B29589  29.394  43.091   7.950
 6566POPC   C4B29590  29.434  43.098   7.650
 6567POPC   NC329591  29.109  41.512   9.450
 6567POPC   PO429592  29.144  41.583   9.150
 6567POPC   GL129593  29.125  41.537   8.850
 6567POPC   GL229594  29.247  41.517   8.850
 6567POPC   C1A29595  29.151  41.536   8.550
 6567POPC   D2A29596  29.105  41.537   8.250
 6567POPC   C3A29597  29.173  41.544   7.950
 6567POPC   C4A29598  29.187  41.598   7.650
 6567POPC   C1B29599  29.433  41.507   8.550
 6567POPC   C2B29600  29.364  41.490   8.250
 6567POPC   C3B29601  29.380  41.512   7.950
 6567POPC   C4B29602  29.402  41.494   7.650
 6568POPC   NC329603   1.251  40.031   9.450
 6568POPC   PO429604   1.244  40.053   9.150
 6568POPC   GL129605   1.241  40.053   8.850
 6568POPC   GL229606   1.194  39.890   8.850
 6568POPC   C1A29607   1.172  39.995   8.550
 6568POPC   D2A29608   1.227  40.004   8.250
 6568POPC   C3A29609   1.228  39.960   7.950
 6568POPC   C4A29610   1.228  40.015   7.650
 6568POPC   C1B29611   1.257  39.784   8.550
 6568POPC   C2B29612   1.257  39.761   8.250
 6568POPC   C3B29613   1.253  39.711   7.950
 6568POPC   C4B29614   1.230  39.783   7.650
 6569POPC   NC329615  29.122   1.196   9.450
 6569POPC   PO429616  29.160   1.214   9.150
 6569POPC   GL129617  29.095   1.212   8.850
 6569POPC   GL229618  29.042   1.246   8.850
 6569POPC   C1A29619  29.193   1.255   8.550
 6569POPC   D2A29620  29.122   1.204   8.250
 6569POPC   C3A29621  29.189   1.213   7.950
 6569POPC   C4A29622  29.157   1.219   7.650
 6569POPC   C1B29623  28.887   1.280   8.550
 6569POPC   C2B29624  28.928   1.279   8.250
 6569POPC   C3B29625  28.892   1.244   7.950
 6569POPC   C4B29626  28.929   1.266   7.650
 6570POPC   NC329627   3.589  21.373   9.450
 6570POPC   PO429628   3.544  21.344   9.150
 6570POPC   GL129629   3.561  21.378   8.850
 6570POPC   GL229630   3.456  21.227   8.850
 6570POPC   C1A29631   3.559  21.370   8.550
 6570POPC   D2A29632   3.501  21.420   8.250
 6570POPC   C3A29633   3.511  21.408   7.950
 6570POPC   C4A29634   3.546  21.381   7.650
 6570POPC   C1B29635   3.421  21.183   8.550
 6570POPC   C2B29636   3.438  21.114   8.250
 6570POPC   C3B29637   3.473  21.174   7.950
 6570POPC   C4B29638   3.487  21.118   7.650
 6571POPC   NC329639  11.335  33.778   9.450
 6571POPC   PO429640  11.346  33.837   9.150
 6571POPC   GL129641  11.269  33.814   8.850
 6571POPC   GL229642  11.244  33.696   8.850
 6571POPC   C1A29643  11.294  33.816   8.550
 6571POPC   D2A29644  11.307  33.812   8.250
 6571POPC   C3A29645  11.252  33.788   7.950
 6571POPC   C4A29646  11.312  33.818   7.650
 6571POPC   C1B29647  11.310  33.527   8.550
 6571POPC   C2B29648  11.273  33.571   8.250
 6571POPC   C3B29649  11.269  33.554   7.950
 6571POPC   C4B29650  11.300  33.589   7.650
 6572POPC   NC329651  36.881  29.165   9.450
 6572POPC   PO429652  36.861  29.139   9.150
 6572POPC   GL129653  36.890  29.138   8.850
 6572POPC   GL229654  36.918  29.232   8.850
 6572POPC   C1A29655  36.900  29.102   8.550
 6572POPC   D2A29656  36.909  29.111   8.250
 6572POPC   C3A29657  36.858  29.156   7.950
 6572POPC   C4A29658  36.920  29.153   7.650
 6572POPC   C1B29659  36.954  29.381   8.550
 6572POPC   C2B29660  36.942  29.419   8.250
 6572POPC   C3B29661  36.963  29.438   7.950
 6572POPC   C4B29662  36.916  29.377   7.650
 6573POPC   NC329663  12.808  31.464   9.450
 6573POPC   PO429664  12.828  31.449   9.150
 6573POPC   GL129665  12.832  31.472   8.850
 6573POPC   GL229666  12.757  31.351   8.850
 6573POPC   C1A29667  12.848  31.428   8.550
 6573POPC   D2A29668  12.854  31.440   8.250
 6573POPC   C3A29669  12.861  31.492   7.950
 6573POPC   C4A29670  12.819  31.429   7.650
 6573POPC   C1B29671  12.747  31.236   8.550
 6573POPC   C2B29672  12.751  31.299   8.250
 6573POPC   C3B29673  12.701  31.218   7.950
 6573POPC   C4B29674  12.705  31.228   7.650
 6574POPC   NC329675  32.996  23.741   9.450
 6574POPC   PO429676  32.978  23.758   9.150
 6574POPC   GL129677  33.039  23.715   8.850
 6574POPC   GL229678  32.913  23.813   8.850
 6574POPC   C1A29679  33.055  23.687   8.550
 6574POPC   D2A29680  33.068  23.700   8.250
 6574POPC   C3A29681  33.030  23.743   7.950
 6574POPC   C4A29682  33.020  23.735   7.650
 6574POPC   C1B29683  32.762  23.810   8.550
 6574POPC   C2B29684  32.798  23.814   8.250
 6574POPC   C3B29685  32.845  23.856   7.950
 6574POPC   C4B29686  32.775  23.879   7.650
 6575POPC   NC329687  24.527  23.669   9.450
 6575POPC   PO429688  24.509  23.703   9.150
 6575POPC   GL129689  24.475  23.699   8.850
 6575POPC   GL229690  24.569  23.833   8.850
 6575POPC   C1A29691  24.445  23.698   8.550
 6575POPC   D2A29692  24.498  23.689   8.250
 6575POPC   C3A29693  24.486  23.667   7.950
 6575POPC   C4A29694  24.520  23.708   7.650
 6575POPC   C1B29695  24.624  23.950   8.550
 6575POPC   C2B29696  24.682  23.951   8.250
 6575POPC   C3B29697  24.674  23.871   7.950
 6575POPC   C4B29698  24.697  23.933   7.650
 6576POPC   NC329699  38.475   9.767   9.450
 6576POPC   PO429700  38.446   9.772   9.150
 6576POPC   GL129701  38.505   9.704   8.850
 6576POPC   GL229702  38.556   9.689   8.850
 6576POPC   C1A29703  38.424   9.746   8.550
 6576POPC   D2A29704  38.500   9.699   8.250
 6576POPC   C3A29705  38.492   9.704   7.950
 6576POPC   C4A29706  38.439   9.782   7.650
 6576POPC   C1B29707  38.654   9.712   8.550
 6576POPC   C2B29708  38.692   9.731   8.250
 6576POPC   C3B29709  38.714   9.686   7.950
 6576POPC   C4B29710  38.713   9.737   7.650
 6577POPC   NC329711  10.562   4.275   9.450
 6577POPC   PO429712  10.553   4.318   9.150
 6577POPC   GL129713  10.569   4.272   8.850
 6577POPC   GL229714  10.527   4.168   8.850
 6577POPC   C1A29715  10.543   4.272   8.550
 6577POPC   D2A29716  10.531   4.328   8.250
 6577POPC   C3A29717  10.529   4.325   7.950
 6577POPC   C4A29718  10.494   4.271   7.650
 6577POPC   C1B29719  10.527   4.024   8.550
 6577POPC   C2B29720  10.552   4.094   8.250
 6577POPC   C3B29721  10.522   4.022   7.950
 6577POPC   C4B29722  10.610   4.044   7.650
 6578POPC   NC329723  33.773  36.116   9.450
 6578POPC   PO429724  33.791  36.106   9.150
 6578POPC   GL129725  33.775  36.121   8.850
 6578POPC   GL229726  33.921  36.046   8.850
 6578POPC   C1A29727  33.825  36.149   8.550
 6578POPC   D2A29728  33.795  36.142   8.250
 6578POPC   C3A29729  33.804  36.176   7.950
 6578POPC   C4A29730  33.758  36.143   7.650
 6578POPC   C1B29731  34.006  36.037   8.550
 6578POPC   C2B29732  34.001  36.030   8.250
 6578POPC   C3B29733  34.044  36.008   7.950
 6578POPC   C4B29734  34.060  36.064   7.650
 6579POPC   NC329735   3.571   6.636   9.450
 6579POPC   PO429736   3.555   6.619   9.150
 6579POPC   GL129737   3.538   6.622   8.850
 6579POPC   GL229738   3.639   6.587   8.850
 6579POPC   C1A29739   3.546   6.632   8.550
 6579POPC   D2A29740   3.576   6.681   8.250
 6579POPC   C3A29741   3.546   6.652   7.950
 6579POPC   C4A29742   3.517   6.647   7.650
 6579POPC   C1B29743   3.796   6.515   8.550
 6579POPC   C2B29744   3.718   6.476   8.250
 6579POPC   C3B29745   3.763   6.461   7.950
 6579POPC   C4B29746   3.740   6.469   7.650
 6580POPC   NC329747  29.126   7.423   9.450
 6580POPC   PO429748  29.136   7.397   9.150
 6580POPC   GL129749  29.183   7.431   8.850
 6580POPC   GL229750  29.162   7.275   8.850
 6580POPC   C1A29751  29.117   7.412   8.550
 6580POPC   D2A29752  29.114   7.406   8.250
 6580POPC   C3A29753  29.150   7.407   7.950
 6580POPC   C4A29754  29.118   7.373   7.650
 6580POPC   C1B29755  29.253   7.214   8.550
 6580POPC   C2B29756  29.195   7.204   8.250
 6580POPC   C3B29757  29.249   7.158   7.950
 6580POPC   C4B29758  29.173   7.190   7.650
 6581POPC   NC329759  23.672   3.582   9.450
 6581POPC   PO429760  23.735   3.564   9.150
 6581POPC   GL129761  23.668   3.517   8.850
 6581POPC   GL229762  23.788   3.687   8.850
 6581POPC   C1A29763  23.689   3.549   8.550
 6581POPC   D2A29764  23.681   3.497   8.250
 6581POPC   C3A29765  23.757   3.564   7.950
 6581POPC   C4A29766  23.682   3.500   7.650
 6581POPC   C1B29767  23.835   3.746   8.550
 6581POPC   C2B29768  23.821   3.752   8.250
 6581POPC   C3B29769  23.882   3.797   7.950
 6581POPC   C4B29770  23.883   3.716   7.650
 6582POPC   NC329771  39.275  15.161   9.450
 6582POPC   PO429772  39.254  15.204   9.150
 6582POPC   GL129773  39.237  15.145   8.850
 6582POPC   GL229774  39.152  15.026   8.850
 6582POPC   C1A29775  39.255  15.216   8.550
 6582POPC   D2A29776  39.267  15.156   8.250
 6582POPC   C3A29777  39.211  15.213   7.950
 6582POPC   C4A29778  39.239  15.193   7.650
 6582POPC   C1B29779  39.111  14.991   8.550
 6582POPC   C2B29780  39.091  14.955   8.250
 6582POPC   C3B29781  39.144  14.957   7.950
 6582POPC   C4B29782  39.054  15.019   7.650
 6583POPC   NC329783   2.018   9.755   9.450
 6583POPC   PO429784   1.967   9.740   9.150
 6583POPC   GL129785   1.988   9.722   8.850
 6583POPC   GL229786   2.057   9.840   8.850
 6583POPC   C1A29787   1.990   9.726   8.550
 6583POPC   D2A29788   1.995   9.716   8.250
 6583POPC   C3A29789   1.966   9.740   7.950
 6583POPC   C4A29790   1.980   9.793   7.650
 6583POPC   C1B29791   2.238   9.846   8.550
 6583POPC   C2B29792   2.213   9.856   8.250
 6583POPC   C3B29793   2.207   9.915   7.950
 6583POPC   C4B29794   2.181   9.832   7.650
 6584POPC   NC329795  34.573  22.151   9.450
 6584POPC   PO429796  34.562  22.153   9.150
 6584POPC   GL129797  34.621  22.194   8.850
 6584POPC   GL229798  34.659  22.159   8.850
 6584POPC   C1A29799  34.623  22.128   8.550
 6584POPC   D2A29800  34.531  22.196   8.250
 6584POPC   C3A29801  34.624  22.154   7.950
 6584POPC   C4A29802  34.576  22.152   7.650
 6584POPC   C1B29803  34.780  22.279   8.550
 6584POPC   C2B29804  34.858  22.251   8.250
 6584POPC   C3B29805  34.834  22.233   7.950
 6584POPC   C4B29806  34.783  22.196   7.650
 6585POPC   NC329807  43.912  39.979   9.450
 6585POPC   PO429808  43.918  39.959   9.150
 6585POPC   GL129809  43.929  39.960   8.850
 6585POPC   GL229810  43.826  40.178   8.850
 6585POPC   C1A29811  43.918  40.046   8.550
 6585POPC   D2A29812  43.921  40.025   8.250
 6585POPC   C3A29813  43.936  39.974   7.950
 6585POPC   C4A29814  43.851  40.001   7.650
 6585POPC   C1B29815  43.887  40.304   8.550
 6585POPC   C2B29816  43.912  40.298   8.250
 6585POPC   C3B29817  43.910  40.214   7.950
 6585POPC   C4B29818  43.818  40.278   7.650
 6586POPC   NC329819   7.400   5.845   9.450
 6586POPC   PO429820   7.468   5.866   9.150
 6586POPC   GL129821   7.376   5.826   8.850
 6586POPC   GL229822   7.522   5.908   8.850
 6586POPC   C1A29823   7.427   5.831   8.550
 6586POPC   D2A29824   7.426   5.896   8.250
 6586POPC   C3A29825   7.442   5.902   7.950
 6586POPC   C4A29826   7.437   5.833   7.650
 6586POPC   C1B29827   7.656   5.938   8.550
 6586POPC   C2B29828   7.629   5.948   8.250
 6586POPC   C3B29829   7.704   5.933   7.950
 6586POPC   C4B29830   7.634   5.903   7.650
 6587POPC   NC329831  30.653  19.868   9.450
 6587POPC   PO429832  30.743  19.803   9.150
 6587POPC   GL129833  30.736  19.845   8.850
 6587POPC   GL229834  30.783  19.768   8.850
 6587POPC   C1A29835  30.724  19.846   8.550
 6587POPC   D2A29836  30.723  19.850   8.250
 6587POPC   C3A29837  30.650  19.868   7.950
 6587POPC   C4A29838  30.671  19.832   7.650
 6587POPC   C1B29839  30.888  19.672   8.550
 6587POPC   C2B29840  30.868  19.655   8.250
 6587POPC   C3B29841  30.838  19.599   7.950
 6587POPC   C4B29842  30.807  19.616   7.650
 6588POPC   NC329843  13.642  24.539   9.450
 6588POPC   PO429844  13.593  24.464   9.150
 6588POPC   GL129845  13.624  24.474   8.850
 6588POPC   GL229846  13.735  24.566   8.850
 6588POPC   C1A29847  13.666  24.536   8.550
 6588POPC   D2A29848  13.621  24.476   8.250
 6588POPC   C3A29849  13.586  24.461   7.950
 6588POPC   C4A29850  13.659  24.444   7.650
 6588POPC   C1B29851  13.807  24.713   8.550
 6588POPC   C2B29852  13.747  24.655   8.250
 6588POPC   C3B29853  13.811  24.715   7.950
 6588POPC   C4B29854  13.813  24.685   7.650
 6589POPC   NC329855  23.746  10.566   9.450
 6589POPC   PO429856  23.757  10.484   9.150
 6589POPC   GL129857  23.688  10.561   8.850
 6589POPC   GL229858  23.669  10.370   8.850
 6589POPC   C1A29859  23.740  10.534   8.550
 6589POPC   D2A29860  23.710  10.478   8.250
 6589POPC   C3A29861  23.680  10.507   7.950
 6589POPC   C4A29862  23.759  10.495   7.650
 6589POPC   C1B29863  23.729  10.257   8.550
 6589POPC   C2B29864  23.725  10.319   8.250
 6589POPC   C3B29865  23.717  10.251   7.950
 6589POPC   C4B29866  23.677  10.246   7.650
 6590POPC   NC329867  11.282  11.277   9.450
 6590POPC   PO429868  11.332  11.324   9.150
 6590POPC   GL129869  11.300  11.323   8.850
 6590POPC   GL229870  11.267  11.229   8.850
 6590POPC   C1A29871  11.282  11.313   8.550
 6590POPC   D2A29872  11.283  11.271   8.250
 6590POPC   C3A29873  11.319  11.338   7.950
 6590POPC   C4A29874  11.265  11.310   7.650
 6590POPC   C1B29875  11.180  11.147   8.550
 6590POPC   C2B29876  11.154  11.058   8.250
 6590POPC   C3B29877  11.098  11.098   7.950
 6590POPC   C4B29878  11.111  11.105   7.650
 6591POPC   NC329879  40.815  36.920   9.450
 6591POPC   PO429880  40.801  36.882   9.150
 6591POPC   GL129881  40.810  36.945   8.850
 6591POPC   GL229882  40.844  36.776   8.850
 6591POPC   C1A29883  40.827  36.904   8.550
 6591POPC   D2A29884  40.784  36.940   8.250
 6591POPC   C3A29885  40.809  36.938   7.950
 6591POPC   C4A29886  40.784  36.861   7.650
 6591POPC   C1B29887  40.883  36.692   8.550
 6591POPC   C2B29888  40.890  36.674   8.250
 6591POPC   C3B29889  40.894  36.701   7.950
 6591POPC   C4B29890  40.928  36.710   7.650
 6592POPC   NC329891  26.799  35.379   9.450
 6592POPC   PO429892  26.769  35.329   9.150
 6592POPC   GL129893  26.774  35.348   8.850
 6592POPC   GL229894  26.950  35.252   8.850
 6592POPC   C1A29895  26.852  35.385   8.550
 6592POPC   D2A29896  26.822  35.393   8.250
 6592POPC   C3A29897  26.782  35.393   7.950
 6592POPC   C4A29898  26.824  35.369   7.650
 6592POPC   C1B29899  27.005  35.177   8.550
 6592POPC   C2B29900  26.963  35.149   8.250
 6592POPC   C3B29901  27.043  35.199   7.950
 6592POPC   C4B29902  27.007  35.211   7.650
 6593POPC   NC329903  37.637   8.936   9.450
 6593POPC   PO429904  37.713   9.008   9.150
 6593POPC   GL129905  37.707   8.988   8.850
 6593POPC   GL229906  37.561   8.975   8.850
 6593POPC   C1A29907  37.692   9.019   8.550
 6593POPC   D2A29908  37.690   8.939   8.250
 6593POPC   C3A29909  37.658   9.014   7.950
 6593POPC   C4A29910  37.676   8.976   7.650
 6593POPC   C1B29911  37.440   8.962   8.550
 6593POPC   C2B29912  37.405   8.880   8.250
 6593POPC   C3B29913  37.386   8.965   7.950
 6593POPC   C4B29914  37.424   8.921   7.650
 6594POPC   NC329915  14.390   8.954   9.450
 6594POPC   PO429916  14.355   8.974   9.150
 6594POPC   GL129917  14.395   9.022   8.850
 6594POPC   GL229918  14.377   8.822   8.850
 6594POPC   C1A29919  14.449   8.962   8.550
 6594POPC   D2A29920  14.450   8.944   8.250
 6594POPC   C3A29921  14.403   8.944   7.950
 6594POPC   C4A29922  14.390   8.955   7.650
 6594POPC   C1B29923  14.403   8.706   8.550
 6594POPC   C2B29924  14.366   8.676   8.250
 6594POPC   C3B29925  14.403   8.752   7.950
 6594POPC   C4B29926  14.373   8.726   7.650
 6595POPC   NC329927  12.089  32.226   9.450
 6595POPC   PO429928  12.076  32.222   9.150
 6595POPC   GL129929  12.061  32.228   8.850
 6595POPC   GL229930  12.030  32.358   8.850
 6595POPC   C1A29931  12.032  32.229   8.550
 6595POPC   D2A29932  12.031  32.231   8.250
 6595POPC   C3A29933  12.032  32.283   7.950
 6595POPC   C4A29934  12.078  32.244   7.650
 6595POPC   C1B29935  12.010  32.471   8.550
 6595POPC   C2B29936  12.035  32.452   8.250
 6595POPC   C3B29937  11.997  32.455   7.950
 6595POPC   C4B29938  12.020  32.498   7.650
 6596POPC   NC329939  40.048  29.922   9.450
 6596POPC   PO429940  40.017  29.941   9.150
 6596POPC   GL129941  39.991  29.882   8.850
 6596POPC   GL229942  40.113  30.050   8.850
 6596POPC   C1A29943  40.026  29.941   8.550
 6596POPC   D2A29944  40.009  29.917   8.250
 6596POPC   C3A29945  39.989  29.876   7.950
 6596POPC   C4A29946  40.023  29.899   7.650
 6596POPC   C1B29947  40.081  30.141   8.550
 6596POPC   C2B29948  40.141  30.163   8.250
 6596POPC   C3B29949  40.118  30.145   7.950
 6596POPC   C4B29950  40.158  30.184   7.650
 6597POPC   NC329951  43.927  31.491   9.450
 6597POPC   PO429952  43.845  31.503   9.150
 6597POPC   GL129953  43.933  31.512   8.850
 6597POPC   GL229954  43.953  31.553   8.850
 6597POPC   C1A29955  43.873  31.493   8.550
 6597POPC   D2A29956  43.923  31.423   8.250
 6597POPC   C3A29957  43.841  31.460   7.950
 6597POPC   C4A29958  43.878  31.433   7.650
 6597POPC   C1B29959  44.139  31.620   8.550
 6597POPC   C2B29960  44.160  31.605   8.250
 6597POPC   C3B29961  44.140  31.545   7.950
 6597POPC   C4B29962  44.134  31.607   7.650
 6598POPC   NC329963  19.030   5.117   9.450
 6598POPC   PO429964  19.034   5.130   9.150
 6598POPC   GL129965  19.063   5.071   8.850
 6598POPC   GL229966  19.077   5.188   8.850
 6598POPC   C1A29967  19.091   5.064   8.550
 6598POPC   D2A29968  19.088   5.093   8.250
 6598POPC   C3A29969  19.047   5.103   7.950
 6598POPC   C4A29970  19.034   5.106   7.650
 6598POPC   C1B29971  19.150   5.335   8.550
 6598POPC   C2B29972  19.168   5.293   8.250
 6598POPC   C3B29973  19.226   5.339   7.950
 6598POPC   C4B29974  19.169   5.319   7.650
 6599POPC   NC329975  12.074  18.258   9.450
 6599POPC   PO429976  12.116  18.312   9.150
 6599POPC   GL129977  12.060  18.246   8.850
 6599POPC   GL229978  11.965  18.369   8.850
 6599POPC   C1A29979  12.101  18.327   8.550
 6599POPC   D2A29980  12.035  18.317   8.250
 6599POPC   C3A29981  12.048  18.256   7.950
 6599POPC   C4A29982  12.119  18.250   7.650
 6599POPC   C1B29983  11.815  18.411   8.550
 6599POPC   C2B29984  11.807  18.348   8.250
 6599POPC   C3B29985  11.860  18.343   7.950
 6599POPC   C4B29986  11.872  18.366   7.650
 6600POPC   NC329987  37.724  43.889   9.450
 6600POPC   PO429988  37.673  43.868   9.150
 6600POPC   GL129989  37.715  43.891   8.850
 6600POPC   GL229990  37.721  43.826   8.850
 6600POPC   C1A29991  37.707  43.922   8.550
 6600POPC   D2A29992  37.657  43.918   8.250
 6600POPC   C3A29993  37.694  43.904   7.950
 6600POPC   C4A29994  37.703  43.854   7.650
 6600POPC   C1B29995  37.856  43.674   8.550
 6600POPC   C2B29996  37.867  43.684   8.250
 6600POPC   C3B29997  37.821  43.672   7.950
 6600POPC   C4B29998  37.844  43.644   7.650
 6601POPC   NC329999  38.419  34.568   9.450
 6601POPC   PO430000  38.455  34.616   9.150
 6601POPC   GL130001  38.420  34.599   8.850
 6601POPC   GL230002  38.350  34.517   8.850
 6601POPC   C1A30003  38.443  34.542   8.550
 6601POPC   D2A30004  38.470  34.567   8.250
 6601POPC   C3A30005  38.436  34.592   7.950
 6601POPC   C4A30006  38.406  34.604   7.650
 6601POPC   C1B30007  38.230  34.408   8.550
 6601POPC   C2B30008  38.192  34.428   8.250
 6601POPC   C3B30009  38.255  34.431   7.950
 6601POPC   C4B30010  38.287  34.460   7.650
 6602POPC   NC330011   7.389  29.932   9.450
 6602POPC   PO430012   7.419  29.874   9.150
 6602POPC   GL130013   7.440  29.874   8.850
 6602POPC   GL230014   7.341  30.063   8.850
 6602POPC   C1A30015   7.396  29.875   8.550
 6602POPC   D2A30016   7.463  29.952   8.250
 6602POPC   C3A30017   7.372  29.968   7.950
 6602POPC   C4A30018   7.454  29.963   7.650
 6602POPC   C1B30019   7.373  30.174   8.550
 6602POPC   C2B30020   7.387  30.170   8.250
 6602POPC   C3B30021   7.363  30.152   7.950
 6602POPC   C4B30022   7.373  30.176   7.650
 6603POPC   NC330023  44.696  24.480   9.450
 6603POPC   PO430024  44.704  24.455   9.150
 6603POPC   GL130025  44.640  24.529   8.850
 6603POPC   GL230026  44.502  24.543   8.850
 6603POPC   C1A30027  44.636  24.481   8.550
 6603POPC   D2A30028  44.622  24.452   8.250
 6603POPC   C3A30029  44.643  24.521   7.950
 6603POPC   C4A30030  44.639  24.442   7.650
 6603POPC   C1B30031  44.390  24.567   8.550
 6603POPC   C2B30032  44.440  24.618   8.250
 6603POPC   C3B30033  44.466  24.618   7.950
 6603POPC   C4B30034  44.427  24.594   7.650
 6604POPC   NC330035  13.657  29.902   9.450
 6604POPC   PO430036  13.631  29.955   9.150
 6604POPC   GL130037  13.648  29.965   8.850
 6604POPC   GL230038  13.455  29.973   8.850
 6604POPC   C1A30039  13.583  29.892   8.550
 6604POPC   D2A30040  13.654  29.912   8.250
 6604POPC   C3A30041  13.664  29.953   7.950
 6604POPC   C4A30042  13.653  29.908   7.650
 6604POPC   C1B30043  13.407  29.923   8.550
 6604POPC   C2B30044  13.391  29.972   8.250
 6604POPC   C3B30045  13.407  29.919   7.950
 6604POPC   C4B30046  13.398  29.980   7.650
 6605POPC   NC330047  33.062  22.978   9.450
 6605POPC   PO430048  33.005  22.937   9.150
 6605POPC   GL130049  33.022  22.936   8.850
 6605POPC   GL230050  32.994  22.798   8.850
 6605POPC   C1A30051  33.066  22.920   8.550
 6605POPC   D2A30052  32.994  22.904   8.250
 6605POPC   C3A30053  33.017  22.956   7.950
 6605POPC   C4A30054  33.047  22.974   7.650
 6605POPC   C1B30055  32.962  22.723   8.550
 6605POPC   C2B30056  32.963  22.705   8.250
 6605POPC   C3B30057  32.932  22.731   7.950
 6605POPC   C4B30058  32.969  22.696   7.650
 6606POPC   NC330059  17.511   7.433   9.450
 6606POPC   PO430060  17.500   7.431   9.150
 6606POPC   GL130061  17.492   7.402   8.850
 6606POPC   GL230062  17.559   7.558   8.850
 6606POPC   C1A30063  17.483   7.454   8.550
 6606POPC   D2A30064  17.550   7.399   8.250
 6606POPC   C3A30065  17.556   7.467   7.950
 6606POPC   C4A30066  17.519   7.411   7.650
 6606POPC   C1B30067  17.606   7.611   8.550
 6606POPC   C2B30068  17.564   7.676   8.250
 6606POPC   C3B30069  17.656   7.628   7.950
 6606POPC   C4B30070  17.564   7.690   7.650
 6607POPC   NC330071  24.477  38.456   9.450
 6607POPC   PO430072  24.513  38.493   9.150
 6607POPC   GL130073  24.459  38.413   8.850
 6607POPC   GL230074  24.504  38.341   8.850
 6607POPC   C1A30075  24.462  38.440   8.550
 6607POPC   D2A30076  24.459  38.471   8.250
 6607POPC   C3A30077  24.530  38.498   7.950
 6607POPC   C4A30078  24.500  38.417   7.650
 6607POPC   C1B30079  24.597  38.271   8.550
 6607POPC   C2B30080  24.616  38.251   8.250
 6607POPC   C3B30081  24.658  38.208   7.950
 6607POPC   C4B30082  24.586  38.203   7.650
 6608POPC   NC330083  14.369  12.066   9.450
 6608POPC   PO430084  14.383  12.072   9.150
 6608POPC   GL130085  14.435  12.124   8.850
 6608POPC   GL230086  14.440  11.939   8.850
 6608POPC   C1A30087  14.439  12.110   8.550
 6608POPC   D2A30088  14.414  12.106   8.250
 6608POPC   C3A30089  14.446  12.029   7.950
 6608POPC   C4A30090  14.430  12.034   7.650
 6608POPC   C1B30091  14.481  11.859   8.550
 6608POPC   C2B30092  14.497  11.781   8.250
 6608POPC   C3B30093  14.434  11.827   7.950
 6608POPC   C4B30094  14.440  11.806   7.650
 6609POPC   NC330095  26.826  26.768   9.450
 6609POPC   PO430096  26.832  26.798   9.150
 6609POPC   GL130097  26.816  26.848   8.850
 6609POPC   GL230098  26.677  26.789   8.850
 6609POPC   C1A30099  26.822  26.838   8.550
 6609POPC   D2A30100  26.787  26.861   8.250
 6609POPC   C3A30101  26.781  26.833   7.950
 6609POPC   C4A30102  26.824  26.820   7.650
 6609POPC   C1B30103  26.593  26.709   8.550
 6609POPC   C2B30104  26.613  26.719   8.250
 6609POPC   C3B30105  26.609  26.668   7.950
 6609POPC   C4B30106  26.553  26.682   7.650
 6610POPC   NC330107   6.596  32.989   9.450
 6610POPC   PO430108   6.652  33.064   9.150
 6610POPC   GL130109   6.612  32.986   8.850
 6610POPC   GL230110   6.579  32.974   8.850
 6610POPC   C1A30111   6.659  33.032   8.550
 6610POPC   D2A30112   6.601  33.005   8.250
 6610POPC   C3A30113   6.636  33.051   7.950
 6610POPC   C4A30114   6.657  33.027   7.650
 6610POPC   C1B30115   6.407  32.949   8.550
 6610POPC   C2B30116   6.398  32.868   8.250
 6610POPC   C3B30117   6.422  32.930   7.950
 6610POPC   C4B30118   6.459  32.910   7.650
 6611POPC   NC330119  41.604  27.594   9.450
 6611POPC   PO430120  41.561  27.552   9.150
 6611POPC   GL130121  41.603  27.640   8.850
 6611POPC   GL230122  41.464  27.594   8.850
 6611POPC   C1A30123  41.568  27.601   8.550
 6611POPC   D2A30124  41.523  27.584   8.250
 6611POPC   C3A30125  41.556  27.548   7.950
 6611POPC   C4A30126  41.512  27.606   7.650
 6611POPC   C1B30127  41.272  27.645   8.550
 6611POPC   C2B30128  41.288  27.659   8.250
 6611POPC   C3B30129  41.315  27.690   7.950
 6611POPC   C4B30130  41.292  27.630   7.650
 6612POPC   NC330131  15.165   5.071   9.450
 6612POPC   PO430132  15.220   5.096   9.150
 6612POPC   GL130133  15.206   5.057   8.850
 6612POPC   GL230134  15.168   5.237   8.850
 6612POPC   C1A30135  15.212   5.121   8.550
 6612POPC   D2A30136  15.134   5.065   8.250
 6612POPC   C3A30137  15.189   5.136   7.950
 6612POPC   C4A30138  15.211   5.061   7.650
 6612POPC   C1B30139  15.275   5.312   8.550
 6612POPC   C2B30140  15.266   5.304   8.250
 6612POPC   C3B30141  15.233   5.382   7.950
 6612POPC   C4B30142  15.245   5.369   7.650
 6613POPC   NC330143  29.962  32.997   9.450
 6613POPC   PO430144  29.925  32.986   9.150
 6613POPC   GL130145  29.962  33.001   8.850
 6613POPC   GL230146  29.761  33.021   8.850
 6613POPC   C1A30147  29.882  33.039   8.550
 6613POPC   D2A30148  29.952  33.043   8.250
 6613POPC   C3A30149  29.947  33.004   7.950
 6613POPC   C4A30150  29.931  33.040   7.650
 6613POPC   C1B30151  29.665  33.032   8.550
 6613POPC   C2B30152  29.696  33.020   8.250
 6613POPC   C3B30153  29.712  32.990   7.950
 6613POPC   C4B30154  29.644  32.986   7.650
 6614POPC   NC330155  25.999  19.043   9.450
 6614POPC   PO430156  26.046  19.080   9.150
 6614POPC   GL130157  26.015  19.085   8.850
 6614POPC   GL230158  25.932  19.046   8.850
 6614POPC   C1A30159  26.079  19.041   8.550
 6614POPC   D2A30160  26.073  19.074   8.250
 6614POPC   C3A30161  25.998  19.033   7.950
 6614POPC   C4A30162  26.031  19.061   7.650
 6614POPC   C1B30163  25.809  19.017   8.550
 6614POPC   C2B30164  25.762  19.048   8.250
 6614POPC   C3B30165  25.840  19.036   7.950
 6614POPC   C4B30166  25.767  19.027   7.650
 6615POPC   NC330167  15.211  23.665   9.450
 6615POPC   PO430168  15.198  23.740   9.150
 6615POPC   GL130169  15.186  23.706   8.850
 6615POPC   GL230170  15.300  23.660   8.850
 6615POPC   C1A30171  15.155  23.739   8.550
 6615POPC   D2A30172  15.175  23.757   8.250
 6615POPC   C3A30173  15.222  23.685   7.950
 6615POPC   C4A30174  15.220  23.747   7.650
 6615POPC   C1B30175  15.332  23.559   8.550
 6615POPC   C2B30176  15.359  23.574   8.250
 6615POPC   C3B30177  15.376  23.580   7.950
 6615POPC   C4B30178  15.365  23.528   7.650
 6616POPC   NC330179  25.302  30.730   9.450
 6616POPC   PO430180  25.286  30.669   9.150
 6616POPC   GL130181  25.238  30.708   8.850
 6616POPC   GL230182  25.358  30.748   8.850
 6616POPC   C1A30183  25.290  30.675   8.550
 6616POPC   D2A30184  25.303  30.679   8.250
 6616POPC   C3A30185  25.276  30.719   7.950
 6616POPC   C4A30186  25.242  30.649   7.650
 6616POPC   C1B30187  25.503  30.731   8.550
 6616POPC   C2B30188  25.457  30.785   8.250
 6616POPC   C3B30189  25.502  30.732   7.950
 6616POPC   C4B30190  25.519  30.774   7.650
 6617POPC   NC330191  29.874   7.391   9.450
 6617POPC   PO430192  29.927   7.404   9.150
 6617POPC   GL130193  29.887   7.452   8.850
 6617POPC   GL230194  29.854   7.350   8.850
 6617POPC   C1A30195  29.882   7.412   8.550
 6617POPC   D2A30196  29.937   7.460   8.250
 6617POPC   C3A30197  29.935   7.392   7.950
 6617POPC   C4A30198  29.905   7.440   7.650
 6617POPC   C1B30199  29.692   7.312   8.550
 6617POPC   C2B30200  29.726   7.310   8.250
 6617POPC   C3B30201  29.776   7.231   7.950
 6617POPC   C4B30202  29.753   7.241   7.650
 6618POPC   NC330203  36.093  34.587   9.450
 6618POPC   PO430204  36.092  34.551   9.150
 6618POPC   GL130205  36.113  34.563   8.850
 6618POPC   GL230206  36.128  34.496   8.850
 6618POPC   C1A30207  36.125  34.556   8.550
 6618POPC   D2A30208  36.144  34.571   8.250
 6618POPC   C3A30209  36.150  34.588   7.950
 6618POPC   C4A30210  36.080  34.572   7.650
 6618POPC   C1B30211  36.170  34.297   8.550
 6618POPC   C2B30212  36.245  34.338   8.250
 6618POPC   C3B30213  36.176  34.348   7.950
 6618POPC   C4B30214  36.257  34.366   7.650
 6619POPC   NC330215  14.428  15.129   9.450
 6619POPC   PO430216  14.439  15.201   9.150
 6619POPC   GL130217  14.409  15.134   8.850
 6619POPC   GL230218  14.522  15.196   8.850
 6619POPC   C1A30219  14.414  15.158   8.550
 6619POPC   D2A30220  14.393  15.176   8.250
 6619POPC   C3A30221  14.399  15.154   7.950
 6619POPC   C4A30222  14.430  15.184   7.650
 6619POPC   C1B30223  14.689  15.150   8.550
 6619POPC   C2B30224  14.623  15.157   8.250
 6619POPC   C3B30225  14.670  15.155   7.950
 6619POPC   C4B30226  14.635  15.103   7.650
 6620POPC   NC330227  41.602   5.065   9.450
 6620POPC   PO430228  41.607   5.054   9.150
 6620POPC   GL130229  41.516   5.086   8.850
 6620POPC   GL230230  41.578   5.235   8.850
 6620POPC   C1A30231  41.600   5.055   8.550
 6620POPC   D2A30232  41.591   5.049   8.250
 6620POPC   C3A30233  41.586   5.101   7.950
 6620POPC   C4A30234  41.561   5.078   7.650
 6620POPC   C1B30235  41.664   5.309   8.550
 6620POPC   C2B30236  41.660   5.354   8.250
 6620POPC   C3B30237  41.650   5.282   7.950
 6620POPC   C4B30238  41.730   5.270   7.650
 6621POPC   NC330239  43.865  19.077   9.450
 6621POPC   PO430240  43.888  19.084   9.150
 6621POPC   GL130241  43.926  19.035   8.850
 6621POPC   GL230242  43.823  18.987   8.850
 6621POPC   C1A30243  43.840  19.049   8.550
 6621POPC   D2A30244  43.920  19.076   8.250
 6621POPC   C3A30245  43.898  19.052   7.950
 6621POPC   C4A30246  43.878  19.074   7.650
 6621POPC   C1B30247  43.678  18.874   8.550
 6621POPC   C2B30248  43.660  18.940   8.250
 6621POPC   C3B30249  43.734  18.891   7.950
 6621POPC   C4B30250  43.699  18.901   7.650
 6622POPC   NC330251   5.119  26.026   9.450
 6622POPC   PO430252   5.044  26.090   9.150
 6622POPC   GL130253   5.123  26.057   8.850
 6622POPC   GL230254   5.039  25.929   8.850
 6622POPC   C1A30255   5.054  26.038   8.550
 6622POPC   D2A30256   5.056  26.027   8.250
 6622POPC   C3A30257   5.099  26.023   7.950
 6622POPC   C4A30258   5.129  26.042   7.650
 6622POPC   C1B30259   4.919  25.900   8.550
 6622POPC   C2B30260   4.921  25.862   8.250
 6622POPC   C3B30261   4.869  25.925   7.950
 6622POPC   C4B30262   4.944  25.859   7.650
 6623POPC   NC330263  43.095  17.472   9.450
 6623POPC   PO430264  43.155  17.535   9.150
 6623POPC   GL130265  43.145  17.479   8.850
 6623POPC   GL230266  43.256  17.524   8.850
 6623POPC   C1A30267  43.072  17.466   8.550
 6623POPC   D2A30268  43.084  17.516   8.250
 6623POPC   C3A30269  43.132  17.482   7.950
 6623POPC   C4A30270  43.109  17.475   7.650
 6623POPC   C1B30271  43.360  17.542   8.550
 6623POPC   C2B30272  43.341  17.544   8.250
 6623POPC   C3B30273  43.379  17.521   7.950
 6623POPC   C4B30274  43.368  17.579   7.650
 6624POPC   NC330275   1.231  22.963   9.450
 6624POPC   PO430276   1.181  22.970   9.150
 6624POPC   GL130277   1.195  22.894   8.850
 6624POPC   GL230278   1.080  22.856   8.850
 6624POPC   C1A30279   1.236  22.978   8.550
 6624POPC   D2A30280   1.192  22.905   8.250
 6624POPC   C3A30281   1.236  22.904   7.950
 6624POPC   C4A30282   1.204  22.936   7.650
 6624POPC   C1B30283   1.074  22.737   8.550
 6624POPC   C2B30284   1.023  22.729   8.250
 6624POPC   C3B30285   1.023  22.763   7.950
 6624POPC   C4B30286   1.017  22.762   7.650
 6625POPC   NC330287   8.164  12.877   9.450
 6625POPC   PO430288   8.153  12.822   9.150
 6625POPC   GL130289   8.244  12.857   8.850
 6625POPC   GL230290   8.303  12.777   8.850
 6625POPC   C1A30291   8.212  12.900   8.550
 6625POPC   D2A30292   8.228  12.831   8.250
 6625POPC   C3A30293   8.245  12.837   7.950
 6625POPC   C4A30294   8.154  12.842   7.650
 6625POPC   C1B30295   8.408  12.668   8.550
 6625POPC   C2B30296   8.407  12.628   8.250
 6625POPC   C3B30297   8.338  12.689   7.950
 6625POPC   C4B30298   8.401  12.624   7.650
 6626POPC   NC330299  17.539  17.479   9.450
 6626POPC   PO430300  17.460  17.474   9.150
 6626POPC   GL130301  17.467  17.457   8.850
 6626POPC   GL230302  17.541  17.378   8.850
 6626POPC   C1A30303  17.491  17.525   8.550
 6626POPC   D2A30304  17.503  17.511   8.250
 6626POPC   C3A30305  17.543  17.483   7.950
 6626POPC   C4A30306  17.548  17.482   7.650
 6626POPC   C1B30307  17.542  17.254   8.550
 6626POPC   C2B30308  17.545  17.280   8.250
 6626POPC   C3B30309  17.531  17.262   7.950
 6626POPC   C4B30310  17.556  17.226   7.650
 6627POPC   NC330311   3.571  32.295   9.450
 6627POPC   PO430312   3.578  32.214   9.150
 6627POPC   GL130313   3.541  32.275   8.850
 6627POPC   GL230314   3.392  32.231   8.850
 6627POPC   C1A30315   3.588  32.249   8.550
 6627POPC   D2A30316   3.505  32.216   8.250
 6627POPC   C3A30317   3.580  32.272   7.950
 6627POPC   C4A30318   3.524  32.261   7.650
 6627POPC   C1B30319   3.299  32.156   8.550
 6627POPC   C2B30320   3.303  32.182   8.250
 6627POPC   C3B30321   3.367  32.176   7.950
 6627POPC   C4B30322   3.282  32.107   7.650
 6628POPC   NC330323   1.207  15.207   9.450
 6628POPC   PO430324   1.257  15.175   9.150
 6628POPC   GL130325   1.244  15.183   8.850
 6628POPC   GL230326   1.364  15.274   8.850
 6628POPC   C1A30327   1.168  15.139   8.550
 6628POPC   D2A30328   1.228  15.153   8.250
 6628POPC   C3A30329   1.239  15.181   7.950
 6628POPC   C4A30330   1.239  15.172   7.650
 6628POPC   C1B30331   1.490  15.257   8.550
 6628POPC   C2B30332   1.433  15.326   8.250
 6628POPC   C3B30333   1.443  15.314   7.950
 6628POPC   C4B30334   1.440  15.296   7.650
 6629POPC   NC330335   7.388  35.392   9.450
 6629POPC   PO430336   7.379  35.322   9.150
 6629POPC   GL130337   7.397  35.387   8.850
 6629POPC   GL230338   7.525  35.424   8.850
 6629POPC   C1A30339   7.382  35.337   8.550
 6629POPC   D2A30340   7.408  35.355   8.250
 6629POPC   C3A30341   7.397  35.306   7.950
 6629POPC   C4A30342   7.415  35.351   7.650
 6629POPC   C1B30343   7.662  35.516   8.550
 6629POPC   C2B30344   7.637  35.531   8.250
 6629POPC   C3B30345   7.627  35.546   7.950
 6629POPC   C4B30346   7.589  35.508   7.650
 6630POPC   NC330347   0.434   7.417   9.450
 6630POPC   PO430348   0.411   7.403   9.150
 6630POPC   GL130349   0.445   7.373   8.850
 6630POPC   GL230350   0.553   7.462   8.850
 6630POPC   C1A30351   0.458   7.441   8.550
 6630POPC   D2A30352   0.478   7.469   8.250
 6630POPC   C3A30353   0.435   7.429   7.950
 6630POPC   C4A30354   0.474   7.447   7.650
 6630POPC   C1B30355   0.697   7.374   8.550
 6630POPC   C2B30356   0.680   7.379   8.250
 6630POPC   C3B30357   0.669   7.397   7.950
 6630POPC   C4B30358   0.711   7.435   7.650
 6631POPC   NC330359  19.060  30.743   9.450
 6631POPC   PO430360  19.091  30.666   9.150
 6631POPC   GL130361  19.085  30.691   8.850
 6631POPC   GL230362  19.159  30.774   8.850
 6631POPC   C1A30363  19.097  30.720   8.550
 6631POPC   D2A30364  19.058  30.735   8.250
 6631POPC   C3A30365  19.015  30.662   7.950
 6631POPC   C4A30366  19.071  30.673   7.650
 6631POPC   C1B30367  19.243  30.822   8.550
 6631POPC   C2B30368  19.212  30.885   8.250
 6631POPC   C3B30369  19.252  30.815   7.950
 6631POPC   C4B30370  19.226  30.872   7.650
 6632POPC   NC330371  26.023  29.147   9.450
 6632POPC   PO430372  26.090  29.180   9.150
 6632POPC   GL130373  26.086  29.183   8.850
 6632POPC   GL230374  26.185  29.107   8.850
 6632POPC   C1A30375  26.053  29.095   8.550
 6632POPC   D2A30376  26.081  29.182   8.250
 6632POPC   C3A30377  26.048  29.138   7.950
 6632POPC   C4A30378  26.036  29.112   7.650
 6632POPC   C1B30379  26.237  28.994   8.550
 6632POPC   C2B30380  26.277  29.027   8.250
 6632POPC   C3B30381  26.188  28.964   7.950
 6632POPC   C4B30382  26.199  29.020   7.650
 6633POPC   NC330383  43.926  29.175   9.450
 6633POPC   PO430384  43.902  29.125   9.150
 6633POPC   GL130385  43.857  29.104   8.850
 6633POPC   GL230386  44.010  29.209   8.850
 6633POPC   C1A30387  43.861  29.102   8.550
 6633POPC   D2A30388  43.898  29.105   8.250
 6633POPC   C3A30389  43.866  29.181   7.950
 6633POPC   C4A30390  43.901  29.114   7.650
 6633POPC   C1B30391  44.105  29.270   8.550
 6633POPC   C2B30392  44.131  29.290   8.250
 6633POPC   C3B30393  44.122  29.301   7.950
 6633POPC   C4B30394  44.056  29.336   7.650
 6634POPC   NC330395  17.542  33.819   9.450
 6634POPC   PO430396  17.552  33.843   9.150
 6634POPC   GL130397  17.539  33.807   8.850
 6634POPC   GL230398  17.611  33.698   8.850
 6634POPC   C1A30399  17.466  33.786   8.550
 6634POPC   D2A30400  17.533  33.771   8.250
 6634POPC   C3A30401  17.472  33.850   7.950
 6634POPC   C4A30402  17.501  33.757   7.650
 6634POPC   C1B30403  17.724  33.609   8.550
 6634POPC   C2B30404  17.708  33.624   8.250
 6634POPC   C3B30405  17.751  33.640   7.950
 6634POPC   C4B30406  17.679  33.638   7.650
 6635POPC   NC330407  42.287  36.952   9.450
 6635POPC   PO430408  42.360  36.884   9.150
 6635POPC   GL130409  42.320  36.898   8.850
 6635POPC   GL230410  42.226  36.919   8.850
 6635POPC   C1A30411  42.352  36.952   8.550
 6635POPC   D2A30412  42.357  36.888   8.250
 6635POPC   C3A30413  42.375  36.949   7.950
 6635POPC   C4A30414  42.352  36.864   7.650
 6635POPC   C1B30415  42.063  36.877   8.550
 6635POPC   C2B30416  42.100  36.877   8.250
 6635POPC   C3B30417  42.138  36.845   7.950
 6635POPC   C4B30418  42.075  36.812   7.650
 6636POPC   NC330419   4.318   9.759   9.450
 6636POPC   PO430420   4.351   9.732   9.150
 6636POPC   GL130421   4.341   9.749   8.850
 6636POPC   GL230422   4.350   9.873   8.850
 6636POPC   C1A30423   4.313   9.785   8.550
 6636POPC   D2A30424   4.321   9.786   8.250
 6636POPC   C3A30425   4.307   9.740   7.950
 6636POPC   C4A30426   4.318   9.786   7.650
 6636POPC   C1B30427   4.337  10.035   8.550
 6636POPC   C2B30428   4.303  10.021   8.250
 6636POPC   C3B30429   4.262  10.008   7.950
 6636POPC   C4B30430   4.347  10.030   7.650
 6637POPC   NC330431   7.417   8.195   9.450
 6637POPC   PO430432   7.376   8.218   9.150
 6637POPC   GL130433   7.380   8.208   8.850
 6637POPC   GL230434   7.500   8.108   8.850
 6637POPC   C1A30435   7.376   8.190   8.550
 6637POPC   D2A30436   7.389   8.230   8.250
 6637POPC   C3A30437   7.381   8.190   7.950
 6637POPC   C4A30438   7.440   8.169   7.650
 6637POPC   C1B30439   7.701   8.086   8.550
 6637POPC   C2B30440   7.637   8.107   8.250
 6637POPC   C3B30441   7.682   8.113   7.950
 6637POPC   C4B30442   7.646   8.064   7.650
 6638POPC   NC330443  23.697  39.261   9.450
 6638POPC   PO430444  23.704  39.225   9.150
 6638POPC   GL130445  23.695  39.251   8.850
 6638POPC   GL230446  23.829  39.355   8.850
 6638POPC   C1A30447  23.678  39.242   8.550
 6638POPC   D2A30448  23.668  39.213   8.250
 6638POPC   C3A30449  23.685  39.256   7.950
 6638POPC   C4A30450  23.715  39.229   7.650
 6638POPC   C1B30451  23.907  39.432   8.550
 6638POPC   C2B30452  23.902  39.458   8.250
 6638POPC   C3B30453  23.884  39.454   7.950
 6638POPC   C4B30454  23.870  39.422   7.650
 6639POPC   NC330455   1.232  14.421   9.450
 6639POPC   PO430456   1.197  14.400   9.150
 6639POPC   GL130457   1.186  14.391   8.850
 6639POPC   GL230458   1.294  14.488   8.850
 6639POPC   C1A30459   1.205  14.389   8.550
 6639POPC   D2A30460   1.212  14.452   8.250
 6639POPC   C3A30461   1.232  14.392   7.950
 6639POPC   C4A30462   1.226  14.367   7.650
 6639POPC   C1B30463   1.439  14.471   8.550
 6639POPC   C2B30464   1.426  14.518   8.250
 6639POPC   C3B30465   1.449  14.536   7.950
 6639POPC   C4B30466   1.394  14.520   7.650
 6640POPC   NC330467  22.978  16.728   9.450
 6640POPC   PO430468  22.987  16.751   9.150
 6640POPC   GL130469  22.951  16.762   8.850
 6640POPC   GL230470  23.015  16.646   8.850
 6640POPC   C1A30471  22.963  16.701   8.550
 6640POPC   D2A30472  22.962  16.773   8.250
 6640POPC   C3A30473  22.939  16.752   7.950
 6640POPC   C4A30474  22.945  16.722   7.650
 6640POPC   C1B30475  22.992  16.519   8.550
 6640POPC   C2B30476  23.041  16.521   8.250
 6640POPC   C3B30477  23.064  16.527   7.950
 6640POPC   C4B30478  23.003  16.453   7.650
 6641POPC   NC330479  33.028   8.198   9.450
 6641POPC   PO430480  32.988   8.198   9.150
 6641POPC   GL130481  33.053   8.244   8.850
 6641POPC   GL230482  33.099   8.336   8.850
 6641POPC   C1A30483  33.040   8.162   8.550
 6641POPC   D2A30484  33.005   8.188   8.250
 6641POPC   C3A30485  33.025   8.241   7.950
 6641POPC   C4A30486  33.072   8.223   7.650
 6641POPC   C1B30487  33.193   8.411   8.550
 6641POPC   C2B30488  33.232   8.397   8.250
 6641POPC   C3B30489  33.198   8.402   7.950
 6641POPC   C4B30490  33.230   8.392   7.650
 6642POPC   NC330491  43.135  13.600   9.450
 6642POPC   PO430492  43.084  13.616   9.150
 6642POPC   GL130493  43.150  13.664   8.850
 6642POPC   GL230494  43.121  13.737   8.850
 6642POPC   C1A30495  43.136  13.654   8.550
 6642POPC   D2A30496  43.099  13.624   8.250
 6642POPC   C3A30497  43.129  13.623   7.950
 6642POPC   C4A30498  43.160  13.615   7.650
 6642POPC   C1B30499  43.164  13.914   8.550
 6642POPC   C2B30500  43.141  13.914   8.250
 6642POPC   C3B30501  43.137  13.889   7.950
 6642POPC   C4B30502  43.094  13.840   7.650
 6643POPC   NC330503  36.120  24.524   9.450
 6643POPC   PO430504  36.105  24.478   9.150
 6643POPC   GL130505  36.154  24.480   8.850
 6643POPC   GL230506  36.011  24.366   8.850
 6643POPC   C1A30507  36.153  24.491   8.550
 6643POPC   D2A30508  36.153  24.504   8.250
 6643POPC   C3A30509  36.130  24.477   7.950
 6643POPC   C4A30510  36.128  24.457   7.650
 6643POPC   C1B30511  35.981  24.326   8.550
 6643POPC   C2B30512  35.967  24.284   8.250
 6643POPC   C3B30513  35.999  24.316   7.950
 6643POPC   C4B30514  35.985  24.288   7.650
 6644POPC   NC330515   8.998  13.614   9.450
 6644POPC   PO430516   9.019  13.593   9.150
 6644POPC   GL130517   8.954  13.656   8.850
 6644POPC   GL230518   8.967  13.475   8.850
 6644POPC   C1A30519   8.953  13.643   8.550
 6644POPC   D2A30520   8.926  13.627   8.250
 6644POPC   C3A30521   9.016  13.609   7.950
 6644POPC   C4A30522   8.990  13.594   7.650
 6644POPC   C1B30523   8.829  13.408   8.550
 6644POPC   C2B30524   8.874  13.440   8.250
 6644POPC   C3B30525   8.896  13.375   7.950
 6644POPC   C4B30526   8.881  13.379   7.650
 6645POPC   NC330527  17.472  43.084   9.450
 6645POPC   PO430528  17.518  43.070   9.150
 6645POPC   GL130529  17.471  43.091   8.850
 6645POPC   GL230530  17.387  43.193   8.850
 6645POPC   C1A30531  17.549  43.136   8.550
 6645POPC   D2A30532  17.476  43.155   8.250
 6645POPC   C3A30533  17.457  43.067   7.950
 6645POPC   C4A30534  17.502  43.097   7.650
 6645POPC   C1B30535  17.266  43.257   8.550
 6645POPC   C2B30536  17.266  43.177   8.250
 6645POPC   C3B30537  17.307  43.251   7.950
 6645POPC   C4B30538  17.228  43.199   7.650
 6646POPC   NC330539  34.618   4.344   9.450
 6646POPC   PO430540  34.582   4.271   9.150
 6646POPC   GL130541  34.577   4.348   8.850
 6646POPC   GL230542  34.568   4.464   8.850
 6646POPC   C1A30543  34.595   4.289   8.550
 6646POPC   D2A30544  34.538   4.301   8.250
 6646POPC   C3A30545  34.539   4.276   7.950
 6646POPC   C4A30546  34.526   4.355   7.650
 6646POPC   C1B30547  34.592   4.588   8.550
 6646POPC   C2B30548  34.641   4.546   8.250
 6646POPC   C3B30549  34.670   4.529   7.950
 6646POPC   C4B30550  34.662   4.607   7.650
 6647POPC   NC330551  25.995  19.801   9.450
 6647POPC   PO430552  26.075  19.801   9.150
 6647POPC   GL130553  26.063  19.845   8.850
 6647POPC   GL230554  26.041  19.690   8.850
 6647POPC   C1A30555  26.024  19.854   8.550
 6647POPC   D2A30556  26.049  19.851   8.250
 6647POPC   C3A30557  26.045  19.837   7.950
 6647POPC   C4A30558  26.047  19.857   7.650
 6647POPC   C1B30559  26.026  19.579   8.550
 6647POPC   C2B30560  26.050  19.610   8.250
 6647POPC   C3B30561  26.063  19.618   7.950
 6647POPC   C4B30562  26.001  19.575   7.650
 6648POPC   NC330563  33.066  21.385   9.450
 6648POPC   PO430564  33.024  21.435   9.150
 6648POPC   GL130565  33.015  21.429   8.850
 6648POPC   GL230566  33.126  21.497   8.850
 6648POPC   C1A30567  32.995  21.432   8.550
 6648POPC   D2A30568  33.011  21.344   8.250
 6648POPC   C3A30569  33.017  21.341   7.950
 6648POPC   C4A30570  33.056  21.370   7.650
 6648POPC   C1B30571  33.188  21.627   8.550
 6648POPC   C2B30572  33.218  21.609   8.250
 6648POPC   C3B30573  33.120  21.590   7.950
 6648POPC   C4B30574  33.154  21.615   7.650
 6649POPC   NC330575  38.411  15.919   9.450
 6649POPC   PO430576  38.413  15.985   9.150
 6649POPC   GL130577  38.476  15.935   8.850
 6649POPC   GL230578  38.502  16.071   8.850
 6649POPC   C1A30579  38.471  16.004   8.550
 6649POPC   D2A30580  38.475  15.914   8.250
 6649POPC   C3A30581  38.422  15.995   7.950
 6649POPC   C4A30582  38.485  15.954   7.650
 6649POPC   C1B30583  38.512  16.180   8.550
 6649POPC   C2B30584  38.503  16.157   8.250
 6649POPC   C3B30585  38.578  16.180   7.950
 6649POPC   C4B30586  38.522  16.180   7.650
 6650POPC   NC330587  25.281   5.880   9.450
 6650POPC   PO430588  25.235   5.874   9.150
 6650POPC   GL130589  25.233   5.821   8.850
 6650POPC   GL230590  25.157   5.797   8.850
 6650POPC   C1A30591  25.240   5.914   8.550
 6650POPC   D2A30592  25.288   5.860   8.250
 6650POPC   C3A30593  25.269   5.893   7.950
 6650POPC   C4A30594  25.274   5.847   7.650
 6650POPC   C1B30595  25.122   5.710   8.550
 6650POPC   C2B30596  25.044   5.745   8.250
 6650POPC   C3B30597  25.088   5.757   7.950
 6650POPC   C4B30598  25.052   5.681   7.650
 6651POPC   NC330599   4.276  35.401   9.450
 6651POPC   PO430600   4.274  35.364   9.150
 6651POPC   GL130601   4.296  35.304   8.850
 6651POPC   GL230602   4.458  35.318   8.850
 6651POPC   C1A30603   4.317  35.355   8.550
 6651POPC   D2A30604   4.339  35.321   8.250
 6651POPC   C3A30605   4.292  35.396   7.950
 6651POPC   C4A30606   4.324  35.323   7.650
 6651POPC   C1B30607   4.499  35.258   8.550
 6651POPC   C2B30608   4.519  35.238   8.250
 6651POPC   C3B30609   4.545  35.256   7.950
 6651POPC   C4B30610   4.492  35.254   7.650
 6652POPC   NC330611  19.032   8.223   9.450
 6652POPC   PO430612  19.021   8.208   9.150
 6652POPC   GL130613  19.019   8.234   8.850
 6652POPC   GL230614  19.177   8.220   8.850
 6652POPC   C1A30615  19.047   8.244   8.550
 6652POPC   D2A30616  19.075   8.177   8.250
 6652POPC   C3A30617  19.047   8.149   7.950
 6652POPC   C4A30618  19.085   8.245   7.650
 6652POPC   C1B30619  19.302   8.354   8.550
 6652POPC   C2B30620  19.303   8.296   8.250
 6652POPC   C3B30621  19.266   8.317   7.950
 6652POPC   C4B30622  19.282   8.272   7.650
 6653POPC   NC330623  21.383   1.231   9.450
 6653POPC   PO430624  21.385   1.176   9.150
 6653POPC   GL130625  21.410   1.211   8.850
 6653POPC   GL230626  21.276   1.352   8.850
 6653POPC   C1A30627  21.347   1.199   8.550
 6653POPC   D2A30628  21.384   1.233   8.250
 6653POPC   C3A30629  21.414   1.237   7.950
 6653POPC   C4A30630  21.338   1.228   7.650
 6653POPC   C1B30631  21.174   1.404   8.550
 6653POPC   C2B30632  21.172   1.373   8.250
 6653POPC   C3B30633  21.268   1.351   7.950
 6653POPC   C4B30634  21.227   1.389   7.650
 6654POPC   NC330635  41.521   9.711   9.450
 6654POPC   PO430636  41.530   9.737   9.150
 6654POPC   GL130637  41.561   9.755   8.850
 6654POPC   GL230638  41.442   9.694   8.850
 6654POPC   C1A30639  41.575   9.786   8.550
 6654POPC   D2A30640  41.554   9.712   8.250
 6654POPC   C3A30641  41.592   9.761   7.950
 6654POPC   C4A30642  41.567   9.761   7.650
 6654POPC   C1B30643  41.314   9.647   8.550
 6654POPC   C2B30644  41.334   9.651   8.250
 6654POPC   C3B30645  41.333   9.612   7.950
 6654POPC   C4B30646  41.362   9.632   7.650
 6655POPC   NC330647   3.511  18.276   9.450
 6655POPC   PO430648   3.591  18.248   9.150
 6655POPC   GL130649   3.492  18.285   8.850
 6655POPC   GL230650   3.465  18.370   8.850
 6655POPC   C1A30651   3.526  18.250   8.550
 6655POPC   D2A30652   3.569  18.239   8.250
 6655POPC   C3A30653   3.531  18.332   7.950
 6655POPC   C4A30654   3.504  18.332   7.650
 6655POPC   C1B30655   3.284  18.377   8.550
 6655POPC   C2B30656   3.278  18.396   8.250
 6655POPC   C3B30657   3.272  18.388   7.950
 6655POPC   C4B30658   3.307  18.355   7.650
 6656POPC   NC330659  19.833  36.925   9.450
 6656POPC   PO430660  19.831  36.889   9.150
 6656POPC   GL130661  19.829  36.875   8.850
 6656POPC   GL230662  19.774  37.051   8.850
 6656POPC   C1A30663  19.875  36.938   8.550
 6656POPC   D2A30664  19.859  36.899   8.250
 6656POPC   C3A30665  19.884  36.865   7.950
 6656POPC   C4A30666  19.869  36.867   7.650
 6656POPC   C1B30667  19.766  37.150   8.550
 6656POPC   C2B30668  19.779  37.122   8.250
 6656POPC   C3B30669  19.783  37.117   7.950
 6656POPC   C4B30670  19.780  37.111   7.650
 6657POPC   NC330671   6.632  26.020   9.450
 6657POPC   PO430672   6.672  26.086   9.150
 6657POPC   GL130673   6.596  26.059   8.850
 6657POPC   GL230674   6.599  26.175   8.850
 6657POPC   C1A30675   6.653  25.997   8.550
 6657POPC   D2A30676   6.665  26.042   8.250
 6657POPC   C3A30677   6.675  26.081   7.950
 6657POPC   C4A30678   6.597  26.044   7.650
 6657POPC   C1B30679   6.541  26.290   8.550
 6657POPC   C2B30680   6.530  26.293   8.250
 6657POPC   C3B30681   6.554  26.294   7.950
 6657POPC   C4B30682   6.606  26.234   7.650
 6658POPC   NC330683  32.283  25.225   9.450
 6658POPC   PO430684  32.239  25.303   9.150
 6658POPC   GL130685  32.198  25.262   8.850
 6658POPC   GL230686  32.221  25.371   8.850
 6658POPC   C1A30687  32.223  25.269   8.550
 6658POPC   D2A30688  32.273  25.216   8.250
 6658POPC   C3A30689  32.277  25.286   7.950
 6658POPC   C4A30690  32.274  25.244   7.650
 6658POPC   C1B30691  32.082  25.489   8.550
 6658POPC   C2B30692  32.128  25.417   8.250
 6658POPC   C3B30693  32.102  25.415   7.950
 6658POPC   C4B30694  32.143  25.498   7.650
 6659POPC   NC330695   8.936   6.641   9.450
 6659POPC   PO430696   8.979   6.639   9.150
 6659POPC   GL130697   8.973   6.596   8.850
 6659POPC   GL230698   9.087   6.646   8.850
 6659POPC   C1A30699   8.933   6.604   8.550
 6659POPC   D2A30700   9.018   6.690   8.250
 6659POPC   C3A30701   8.942   6.656   7.950
 6659POPC   C4A30702   8.947   6.653   7.650
 6659POPC   C1B30703   9.231   6.628   8.550
 6659POPC   C2B30704   9.192   6.663   8.250
 6659POPC   C3B30705   9.235   6.642   7.950
 6659POPC   C4B30706   9.234   6.681   7.650
 6660POPC   NC330707  34.622   5.895   9.450
 6660POPC   PO430708  34.562   5.904   9.150
 6660POPC   GL130709  34.618   5.905   8.850
 6660POPC   GL230710  34.611   5.960   8.850
 6660POPC   C1A30711  34.582   5.899   8.550
 6660POPC   D2A30712  34.548   5.843   8.250
 6660POPC   C3A30713  34.596   5.861   7.950
 6660POPC   C4A30714  34.586   5.852   7.650
 6660POPC   C1B30715  34.587   6.169   8.550
 6660POPC   C2B30716  34.557   6.103   8.250
 6660POPC   C3B30717  34.536   6.119   7.950
 6660POPC   C4B30718  34.604   6.126   7.650
 6661POPC   NC330719  32.278   1.251   9.450
 6661POPC   PO430720  32.211   1.184   9.150
 6661POPC   GL130721  32.293   1.188   8.850
 6661POPC   GL230722  32.347   1.292   8.850
 6661POPC   C1A30723  32.199   1.188   8.550
 6661POPC   D2A30724  32.211   1.196   8.250
 6661POPC   C3A30725  32.267   1.200   7.950
 6661POPC   C4A30726  32.218   1.256   7.650
 6661POPC   C1B30727  32.357   1.415   8.550
 6661POPC   C2B30728  32.319   1.473   8.250
 6661POPC   C3B30729  32.365   1.403   7.950
 6661POPC   C4B30730  32.355   1.483   7.650
 6662POPC   NC330731  11.317  12.103   9.450
 6662POPC   PO430732  11.283  12.030   9.150
 6662POPC   GL130733  11.303  12.085   8.850
 6662POPC   GL230734  11.444  12.075   8.850
 6662POPC   C1A30735  11.267  12.078   8.550
 6662POPC   D2A30736  11.303  12.108   8.250
 6662POPC   C3A30737  11.259  12.059   7.950
 6662POPC   C4A30738  11.330  12.079   7.650
 6662POPC   C1B30739  11.587  12.092   8.550
 6662POPC   C2B30740  11.538  12.057   8.250
 6662POPC   C3B30741  11.593  12.082   7.950
 6662POPC   C4B30742  11.538  12.024   7.650
 6663POPC   NC330743  16.758   5.072   9.450
 6663POPC   PO430744  16.719   5.052   9.150
 6663POPC   GL130745  16.729   5.137   8.850
 6663POPC   GL230746  16.695   5.178   8.850
 6663POPC   C1A30747  16.739   5.107   8.550
 6663POPC   D2A30748  16.704   5.104   8.250
 6663POPC   C3A30749  16.729   5.054   7.950
 6663POPC   C4A30750  16.771   5.111   7.650
 6663POPC   C1B30751  16.643   5.282   8.550
 6663POPC   C2B30752  16.664   5.335   8.250
 6663POPC   C3B30753  16.652   5.290   7.950
 6663POPC   C4B30754  16.660   5.298   7.650
 6664POPC   NC330755   5.126  12.879   9.450
 6664POPC   PO430756   5.075  12.820   9.150
 6664POPC   GL130757   5.095  12.803   8.850
 6664POPC   GL230758   5.090  12.741   8.850
 6664POPC   C1A30759   5.073  12.849   8.550
 6664POPC   D2A30760   5.073  12.803   8.250
 6664POPC   C3A30761   5.083  12.893   7.950
 6664POPC   C4A30762   5.066  12.863   7.650
 6664POPC   C1B30763   5.168  12.592   8.550
 6664POPC   C2B30764   5.103  12.600   8.250
 6664POPC   C3B30765   5.140  12.630   7.950
 6664POPC   C4B30766   5.152  12.610   7.650
 6665POPC   NC330767  44.698  36.171   9.450
 6665POPC   PO430768  44.667  36.137   9.150
 6665POPC   GL130769  44.701  36.097   8.850
 6665POPC   GL230770  44.617  36.001   8.850
 6665POPC   C1A30771  44.703  36.093   8.550
 6665POPC   D2A30772  44.653  36.155   8.250
 6665POPC   C3A30773  44.637  36.132   7.950
 6665POPC   C4A30774  44.672  36.145   7.650
 6665POPC   C1B30775  44.483  35.971   8.550
 6665POPC   C2B30776  44.454  35.898   8.250
 6665POPC   C3B30777  44.529  35.931   7.950
 6665POPC   C4B30778  44.523  35.932   7.650
 6666POPC   NC330779  23.730  12.858   9.450
 6666POPC   PO430780  23.735  12.806   9.150
 6666POPC   GL130781  23.668  12.846   8.850
 6666POPC   GL230782  23.843  12.910   8.850
 6666POPC   C1A30783  23.711  12.864   8.550
 6666POPC   D2A30784  23.737  12.873   8.250
 6666POPC   C3A30785  23.690  12.888   7.950
 6666POPC   C4A30786  23.710  12.896   7.650
 6666POPC   C1B30787  23.949  12.839   8.550
 6666POPC   C2B30788  23.997  12.887   8.250
 6666POPC   C3B30789  23.970  12.871   7.950
 6666POPC   C4B30790  23.944  12.870   7.650
 6667POPC   NC330791  36.112  14.404   9.450
 6667POPC   PO430792  36.106  14.434   9.150
 6667POPC   GL130793  36.104  14.428   8.850
 6667POPC   GL230794  36.144  14.541   8.850
 6667POPC   C1A30795  36.078  14.419   8.550
 6667POPC   D2A30796  36.101  14.420   8.250
 6667POPC   C3A30797  36.140  14.381   7.950
 6667POPC   C4A30798  36.154  14.443   7.650
 6667POPC   C1B30799  36.159  14.670   8.550
 6667POPC   C2B30800  36.195  14.696   8.250
 6667POPC   C3B30801  36.172  14.664   7.950
 6667POPC   C4B30802  36.142  14.658   7.650
 6668POPC   NC330803   1.975  43.091   9.450
 6668POPC   PO430804   1.976  43.105   9.150
 6668POPC   GL130805   2.032  43.075   8.850
 6668POPC   GL230806   1.971  42.941   8.850
 6668POPC   C1A30807   1.994  43.100   8.550
 6668POPC   D2A30808   1.956  43.087   8.250
 6668POPC   C3A30809   1.952  43.099   7.950
 6668POPC   C4A30810   1.983  43.090   7.650
 6668POPC   C1B30811   2.024  42.852   8.550
 6668POPC   C2B30812   2.015  42.840   8.250
 6668POPC   C3B30813   2.013  42.876   7.950
 6668POPC   C4B30814   2.082  42.857   7.650
 6669POPC   NC330815  24.503  36.854   9.450
 6669POPC   PO430816  24.465  36.872   9.150
 6669POPC   GL130817  24.444  36.948   8.850
 6669POPC   GL230818  24.388  36.886   8.850
 6669POPC   C1A30819  24.445  36.932   8.550
 6669POPC   D2A30820  24.445  36.871   8.250
 6669POPC   C3A30821  24.491  36.855   7.950
 6669POPC   C4A30822  24.473  36.877   7.650
 6669POPC   C1B30823  24.275  36.975   8.550
 6669POPC   C2B30824  24.203  36.921   8.250
 6669POPC   C3B30825  24.280  36.996   7.950
 6669POPC   C4B30826  24.265  36.925   7.650
 6670POPC   NC330827  28.381  11.297   9.450
 6670POPC   PO430828  28.329  11.320   9.150
 6670POPC   GL130829  28.386  11.323   8.850
 6670POPC   GL230830  28.481  11.243   8.850
 6670POPC   C1A30831  28.356  11.299   8.550
 6670POPC   D2A30832  28.359  11.323   8.250
 6670POPC   C3A30833  28.397  11.326   7.950
 6670POPC   C4A30834  28.341  11.344   7.650
 6670POPC   C1B30835  28.560  11.068   8.550
 6670POPC   C2B30836  28.539  11.092   8.250
 6670POPC   C3B30837  28.508  11.102   7.950
 6670POPC   C4B30838  28.505  11.082   7.650
 6671POPC   NC330839  43.903  32.995   9.450
 6671POPC   PO430840  43.883  33.042   9.150
 6671POPC   GL130841  43.933  33.028   8.850
 6671POPC   GL230842  43.810  33.077   8.850
 6671POPC   C1A30843  43.864  32.993   8.550
 6671POPC   D2A30844  43.881  33.066   8.250
 6671POPC   C3A30845  43.906  33.028   7.950
 6671POPC   C4A30846  43.878  32.982   7.650
 6671POPC   C1B30847  43.617  33.091   8.550
 6671POPC   C2B30848  43.638  33.152   8.250
 6671POPC   C3B30849  43.637  33.123   7.950
 6671POPC   C4B30850  43.616  33.154   7.650
 6672POPC   NC330851   8.196  41.535   9.450
 6672POPC   PO430852   8.159  41.593   9.150
 6672POPC   GL130853   8.246  41.589   8.850
 6672POPC   GL230854   8.139  41.655   8.850
 6672POPC   C1A30855   8.161  41.540   8.550
 6672POPC   D2A30856   8.198  41.557   8.250
 6672POPC   C3A30857   8.223  41.587   7.950
 6672POPC   C4A30858   8.198  41.596   7.650
 6672POPC   C1B30859   8.090  41.791   8.550
 6672POPC   C2B30860   8.133  41.835   8.250
 6672POPC   C3B30861   8.120  41.791   7.950
 6672POPC   C4B30862   8.127  41.824   7.650
 6673POPC   NC330863  26.014   4.285   9.450
 6673POPC   PO430864  26.046   4.272   9.150
 6673POPC   GL130865  26.056   4.365   8.850
 6673POPC   GL230866  25.993   4.449   8.850
 6673POPC   C1A30867  26.054   4.323   8.550
 6673POPC   D2A30868  26.026   4.354   8.250
 6673POPC   C3A30869  26.060   4.346   7.950
 6673POPC   C4A30870  26.087   4.320   7.650
 6673POPC   C1B30871  25.834   4.554   8.550
 6673POPC   C2B30872  25.916   4.497   8.250
 6673POPC   C3B30873  25.861   4.539   7.950
 6673POPC   C4B30874  25.875   4.542   7.650
 6674POPC   NC330875   6.613  10.492   9.450
 6674POPC   PO430876   6.604  10.490   9.150
 6674POPC   GL130877   6.669  10.550   8.850
 6674POPC   GL230878   6.471  10.544   8.850
 6674POPC   C1A30879   6.648  10.519   8.550
 6674POPC   D2A30880   6.629  10.528   8.250
 6674POPC   C3A30881   6.633  10.554   7.950
 6674POPC   C4A30882   6.670  10.570   7.650
 6674POPC   C1B30883   6.366  10.541   8.550
 6674POPC   C2B30884   6.443  10.540   8.250
 6674POPC   C3B30885   6.421  10.514   7.950
 6674POPC   C4B30886   6.392  10.491   7.650
 6675POPC   NC330887   9.719  43.852   9.450
 6675POPC   PO430888   9.786  43.889   9.150
 6675POPC   GL130889   9.767  43.922   8.850
 6675POPC   GL230890   9.893  43.852   8.850
 6675POPC   C1A30891   9.699  43.868   8.550
 6675POPC   D2A30892   9.790  43.934   8.250
 6675POPC   C3A30893   9.770  43.930   7.950
 6675POPC   C4A30894   9.774  43.929   7.650
 6675POPC   C1B30895  10.010  43.864   8.550
 6675POPC   C2B30896   9.996  43.844   8.250
 6675POPC   C3B30897  10.020  43.872   7.950
 6675POPC   C4B30898  10.021  43.874   7.650
 6676POPC   NC330899  35.345  21.402   9.450
 6676POPC   PO430900  35.401  21.376   9.150
 6676POPC   GL130901  35.360  21.365   8.850
 6676POPC   GL230902  35.432  21.536   8.850
 6676POPC   C1A30903  35.348  21.358   8.550
 6676POPC   D2A30904  35.314  21.376   8.250
 6676POPC   C3A30905  35.358  21.410   7.950
 6676POPC   C4A30906  35.323  21.377   7.650
 6676POPC   C1B30907  35.458  21.599   8.550
 6676POPC   C2B30908  35.455  21.620   8.250
 6676POPC   C3B30909  35.429  21.622   7.950
 6676POPC   C4B30910  35.384  21.627   7.650
 6677POPC   NC330911  15.175  36.879   9.450
 6677POPC   PO430912  15.185  36.943   9.150
 6677POPC   GL130913  15.206  36.886   8.850
 6677POPC   GL230914  15.067  36.859   8.850
 6677POPC   C1A30915  15.211  36.898   8.550
 6677POPC   D2A30916  15.162  36.870   8.250
 6677POPC   C3A30917  15.146  36.864   7.950
 6677POPC   C4A30918  15.174  36.952   7.650
 6677POPC   C1B30919  14.942  36.742   8.550
 6677POPC   C2B30920  14.960  36.739   8.250
 6677POPC   C3B30921  15.007  36.736   7.950
 6677POPC   C4B30922  14.969  36.691   7.650
 6678POPC   NC330923  21.394  40.758   9.450
 6678POPC   PO430924  21.357  40.827   9.150
 6678POPC   GL130925  21.349  40.779   8.850
 6678POPC   GL230926  21.475  40.823   8.850
 6678POPC   C1A30927  21.357  40.793   8.550
 6678POPC   D2A30928  21.410  40.752   8.250
 6678POPC   C3A30929  21.424  40.741   7.950
 6678POPC   C4A30930  21.353  40.736   7.650
 6678POPC   C1B30931  21.518  40.920   8.550
 6678POPC   C2B30932  21.610  40.993   8.250
 6678POPC   C3B30933  21.614  40.932   7.950
 6678POPC   C4B30934  21.531  40.950   7.650
 6679POPC   NC330935  25.282  12.895   9.450
 6679POPC   PO430936  25.283  12.822   9.150
 6679POPC   GL130937  25.247  12.810   8.850
 6679POPC   GL230938  25.135  12.926   8.850
 6679POPC   C1A30939  25.246  12.832   8.550
 6679POPC   D2A30940  25.287  12.854   8.250
 6679POPC   C3A30941  25.239  12.833   7.950
 6679POPC   C4A30942  25.240  12.879   7.650
 6679POPC   C1B30943  25.021  12.939   8.550
 6679POPC   C2B30944  25.032  12.918   8.250
 6679POPC   C3B30945  25.064  12.949   7.950
 6679POPC   C4B30946  25.026  12.959   7.650
 6680POPC   NC330947  35.390   0.432   9.450
 6680POPC   PO430948  35.330   0.391   9.150
 6680POPC   GL130949  35.303   0.405   8.850
 6680POPC   GL230950  35.330   0.516   8.850
 6680POPC   C1A30951  35.361   0.401   8.550
 6680POPC   D2A30952  35.302   0.487   8.250
 6680POPC   C3A30953  35.331   0.455   7.950
 6680POPC   C4A30954  35.324   0.421   7.650
 6680POPC   C1B30955  35.297   0.717   8.550
 6680POPC   C2B30956  35.299   0.684   8.250
 6680POPC   C3B30957  35.288   0.666   7.950
 6680POPC   C4B30958  35.280   0.713   7.650
 6681POPC   NC330959  38.437  27.581   9.450
 6681POPC   PO430960  38.500  27.583   9.150
 6681POPC   GL130961  38.428  27.618   8.850
 6681POPC   GL230962  38.498  27.459   8.850
 6681POPC   C1A30963  38.410  27.623   8.550
 6681POPC   D2A30964  38.433  27.602   8.250
 6681POPC   C3A30965  38.495  27.563   7.950
 6681POPC   C4A30966  38.483  27.626   7.650
 6681POPC   C1B30967  38.603  27.369   8.550
 6681POPC   C2B30968  38.529  27.382   8.250
 6681POPC   C3B30969  38.553  27.326   7.950
 6681POPC   C4B30970  38.581  27.387   7.650
 6682POPC   NC330971   8.945  41.560   9.450
 6682POPC   PO430972   8.945  41.534   9.150
 6682POPC   GL130973   9.005  41.571   8.850
 6682POPC   GL230974   8.951  41.725   8.850
 6682POPC   C1A30975   8.950  41.557   8.550
 6682POPC   D2A30976   8.968  41.527   8.250
 6682POPC   C3A30977   8.985  41.547   7.950
 6682POPC   C4A30978   8.981  41.605   7.650
 6682POPC   C1B30979   8.999  41.852   8.550
 6682POPC   C2B30980   9.043  41.836   8.250
 6682POPC   C3B30981   9.040  41.779   7.950
 6682POPC   C4B30982   9.033  41.810   7.650
 6683POPC   NC330983  38.470  17.458   9.450
 6683POPC   PO430984  38.462  17.510   9.150
 6683POPC   GL130985  38.418  17.483   8.850
 6683POPC   GL230986  38.414  17.391   8.850
 6683POPC   C1A30987  38.465  17.541   8.550
 6683POPC   D2A30988  38.486  17.534   8.250
 6683POPC   C3A30989  38.502  17.506   7.950
 6683POPC   C4A30990  38.467  17.529   7.650
 6683POPC   C1B30991  38.474  17.289   8.550
 6683POPC   C2B30992  38.445  17.277   8.250
 6683POPC   C3B30993  38.410  17.237   7.950
 6683POPC   C4B30994  38.468  17.228   7.650
 6684POPC   NC330995  36.164  10.559   9.450
 6684POPC   PO430996  36.118  10.555   9.150
 6684POPC   GL130997  36.153  10.571   8.850
 6684POPC   GL230998  35.980  10.450   8.850
 6684POPC   C1A30999  36.176  10.514   8.550
 6684POPC   D2A31000  36.120  10.539   8.250
 6684POPC   C3A31001  36.162  10.560   7.950
 6684POPC   C4A31002  36.168  10.561   7.650
 6684POPC   C1B31003  35.941  10.354   8.550
 6684POPC   C2B31004  35.901  10.392   8.250
 6684POPC   C3B31005  35.904  10.447   7.950
 6684POPC   C4B31006  35.928  10.381   7.650
 6685POPC   NC331007   1.990  34.574   9.450
 6685POPC   PO431008   1.962  34.533   9.150
 6685POPC   GL131009   2.000  34.557   8.850
 6685POPC   GL231010   1.846  34.595   8.850
 6685POPC   C1A31011   1.980  34.605   8.550
 6685POPC   D2A31012   1.969  34.574   8.250
 6685POPC   C3A31013   2.035  34.623   7.950
 6685POPC   C4A31014   1.953  34.573   7.650
 6685POPC   C1B31015   1.726  34.538   8.550
 6685POPC   C2B31016   1.742  34.579   8.250
 6685POPC   C3B31017   1.766  34.569   7.950
 6685POPC   C4B31018   1.736  34.520   7.650
 6686POPC   NC331019  44.640  32.214   9.450
 6686POPC   PO431020  44.631  32.199   9.150
 6686POPC   GL131021  44.680  32.225   8.850
 6686POPC   GL231022  44.496  32.290   8.850
 6686POPC   C1A31023  44.644  32.269   8.550
 6686POPC   D2A31024  44.709  32.276   8.250
 6686POPC   C3A31025  44.637  32.229   7.950
 6686POPC   C4A31026  44.672  32.274   7.650
 6686POPC   C1B31027  44.418  32.302   8.550
 6686POPC   C2B31028  44.386  32.239   8.250
 6686POPC   C3B31029  44.462  32.284   7.950
 6686POPC   C4B31030  44.436  32.264   7.650
 6687POPC   NC331031  34.535  22.932   9.450
 6687POPC   PO431032  34.620  22.978   9.150
 6687POPC   GL131033  34.532  22.930   8.850
 6687POPC   GL231034  34.551  23.066   8.850
 6687POPC   C1A31035  34.527  22.904   8.550
 6687POPC   D2A31036  34.546  22.988   8.250
 6687POPC   C3A31037  34.605  22.910   7.950
 6687POPC   C4A31038  34.548  22.942   7.650
 6687POPC   C1B31039  34.481  23.163   8.550
 6687POPC   C2B31040  34.572  23.202   8.250
 6687POPC   C3B31041  34.562  23.176   7.950
 6687POPC   C4B31042  34.544  23.170   7.650
 6688POPC   NC331043  32.985  16.692   9.450
 6688POPC   PO431044  33.052  16.708   9.150
 6688POPC   GL131045  32.994  16.766   8.850
 6688POPC   GL231046  32.972  16.812   8.850
 6688POPC   C1A31047  33.029  16.751   8.550
 6688POPC   D2A31048  33.062  16.776   8.250
 6688POPC   C3A31049  32.975  16.720   7.950
 6688POPC   C4A31050  33.073  16.741   7.650
 6688POPC   C1B31051  32.861  16.871   8.550
 6688POPC   C2B31052  32.835  16.958   8.250
 6688POPC   C3B31053  32.869  16.947   7.950
 6688POPC   C4B31054  32.816  16.945   7.650
 6689POPC   NC331055   3.565  37.652   9.450
 6689POPC   PO431056   3.537  37.704   9.150
 6689POPC   GL131057   3.554  37.657   8.850
 6689POPC   GL231058   3.370  37.695   8.850
 6689POPC   C1A31059   3.505  37.685   8.550
 6689POPC   D2A31060   3.513  37.647   8.250
 6689POPC   C3A31061   3.564  37.691   7.950
 6689POPC   C4A31062   3.583  37.679   7.650
 6689POPC   C1B31063   3.264  37.649   8.550
 6689POPC   C2B31064   3.307  37.679   8.250
 6689POPC   C3B31065   3.284  37.641   7.950
 6689POPC   C4B31066   3.264  37.642   7.650
 6690POPC   NC331067   8.183  26.867   9.450
 6690POPC   PO431068   8.212  26.803   9.150
 6690POPC   GL131069   8.178  26.808   8.850
 6690POPC   GL231070   8.228  26.665   8.850
 6690POPC   C1A31071   8.152  26.836   8.550
 6690POPC   D2A31072   8.231  26.845   8.250
 6690POPC   C3A31073   8.221  26.814   7.950
 6690POPC   C4A31074   8.185  26.789   7.650
 6690POPC   C1B31075   8.287  26.565   8.550
 6690POPC   C2B31076   8.270  26.581   8.250
 6690POPC   C3B31077   8.238  26.586   7.950
 6690POPC   C4B31078   8.273  26.557   7.650
 6691POPC   NC331079   0.478  29.954   9.450
 6691POPC   PO431080   0.463  29.960   9.150
 6691POPC   GL131081   0.460  29.919   8.850
 6691POPC   GL231082   0.458  29.986   8.850
 6691POPC   C1A31083   0.447  29.958   8.550
 6691POPC   D2A31084   0.485  29.877   8.250
 6691POPC   C3A31085   0.389  29.920   7.950
 6691POPC   C4A31086   0.443  29.949   7.650
 6691POPC   C1B31087   0.572  30.117   8.550
 6691POPC   C2B31088   0.529  30.153   8.250
 6691POPC   C3B31089   0.577  30.157   7.950
 6691POPC   C4B31090   0.527  30.122   7.650
 6692POPC   NC331091  12.052  24.480   9.450
 6692POPC   PO431092  12.057  24.490   9.150
 6692POPC   GL131093  12.056  24.456   8.850
 6692POPC   GL231094  12.016  24.417   8.850
 6692POPC   C1A31095  12.093  24.442   8.550
 6692POPC   D2A31096  12.102  24.455   8.250
 6692POPC   C3A31097  12.121  24.533   7.950
 6692POPC   C4A31098  12.028  24.519   7.650
 6692POPC   C1B31099  11.827  24.371   8.550
 6692POPC   C2B31100  11.870  24.362   8.250
 6692POPC   C3B31101  11.882  24.309   7.950
 6692POPC   C4B31102  11.902  24.302   7.650
 6693POPC   NC331103   0.424  25.253   9.450
 6693POPC   PO431104   0.450  25.314   9.150
 6693POPC   GL131105   0.426  25.251   8.850
 6693POPC   GL231106   0.609  25.283   8.850
 6693POPC   C1A31107   0.397  25.247   8.550
 6693POPC   D2A31108   0.400  25.310   8.250
 6693POPC   C3A31109   0.478  25.269   7.950
 6693POPC   C4A31110   0.443  25.260   7.650
 6693POPC   C1B31111   0.699  25.237   8.550
 6693POPC   C2B31112   0.689  25.219   8.250
 6693POPC   C3B31113   0.704  25.184   7.950
 6693POPC   C4B31114   0.701  25.203   7.650
 6694POPC   NC331115  36.177  21.424   9.450
 6694POPC   PO431116  36.143  21.381   9.150
 6694POPC   GL131117  36.148  21.360   8.850
 6694POPC   GL231118  36.058  21.220   8.850
 6694POPC   C1A31119  36.128  21.374   8.550
 6694POPC   D2A31120  36.110  21.362   8.250
 6694POPC   C3A31121  36.105  21.367   7.950
 6694POPC   C4A31122  36.123  21.352   7.650
 6694POPC   C1B31123  36.059  21.094   8.550
 6694POPC   C2B31124  36.119  21.110   8.250
 6694POPC   C3B31125  36.045  21.113   7.950
 6694POPC   C4B31126  36.034  21.117   7.650
 6695POPC   NC331127  11.307  27.613   9.450
 6695POPC   PO431128  11.341  27.552   9.150
 6695POPC   GL131129  11.252  27.599   8.850
 6695POPC   GL231130  11.211  27.551   8.850
 6695POPC   C1A31131  11.277  27.590   8.550
 6695POPC   D2A31132  11.331  27.557   8.250
 6695POPC   C3A31133  11.287  27.608   7.950
 6695POPC   C4A31134  11.256  27.616   7.650
 6695POPC   C1B31135  11.047  27.429   8.550
 6695POPC   C2B31136  11.082  27.504   8.250
 6695POPC   C3B31137  11.058  27.465   7.950
 6695POPC   C4B31138  11.094  27.489   7.650
 6696POPC   NC331139  33.017  22.146   9.450
 6696POPC   PO431140  33.023  22.152   9.150
 6696POPC   GL131141  33.027  22.199   8.850
 6696POPC   GL231142  32.946  22.269   8.850
 6696POPC   C1A31143  33.043  22.182   8.550
 6696POPC   D2A31144  33.011  22.201   8.250
 6696POPC   C3A31145  33.041  22.151   7.950
 6696POPC   C4A31146  33.051  22.145   7.650
 6696POPC   C1B31147  32.897  22.424   8.550
 6696POPC   C2B31148  32.893  22.405   8.250
 6696POPC   C3B31149  32.871  22.435   7.950
 6696POPC   C4B31150  32.895  22.401   7.650
 6697POPC   NC331151  44.657  21.419   9.450
 6697POPC   PO431152  44.708  21.377   9.150
 6697POPC   GL131153  44.677  21.369   8.850
 6697POPC   GL231154  44.513  21.333   8.850
 6697POPC   C1A31155  44.664  21.411   8.550
 6697POPC   D2A31156  44.644  21.361   8.250
 6697POPC   C3A31157  44.633  21.372   7.950
 6697POPC   C4A31158  44.626  21.383   7.650
 6697POPC   C1B31159  44.456  21.369   8.550
 6697POPC   C2B31160  44.410  21.311   8.250
 6697POPC   C3B31161  44.420  21.354   7.950
 6697POPC   C4B31162  44.386  21.311   7.650
 6698POPC   NC331163  12.872  15.175   9.450
 6698POPC   PO431164  12.847  15.224   9.150
 6698POPC   GL131165  12.866  15.156   8.850
 6698POPC   GL231166  12.719  15.253   8.850
 6698POPC   C1A31167  12.885  15.175   8.550
 6698POPC   D2A31168  12.815  15.161   8.250
 6698POPC   C3A31169  12.873  15.227   7.950
 6698POPC   C4A31170  12.884  15.203   7.650
 6698POPC   C1B31171  12.654  15.317   8.550
 6698POPC   C2B31172  12.579  15.313   8.250
 6698POPC   C3B31173  12.600  15.261   7.950
 6698POPC   C4B31174  12.606  15.234   7.650
 6699POPC   NC331175  27.579   4.297   9.450
 6699POPC   PO431176  27.624   4.323   9.150
 6699POPC   GL131177  27.605   4.336   8.850
 6699POPC   GL231178  27.681   4.251   8.850
 6699POPC   C1A31179  27.642   4.306   8.550
 6699POPC   D2A31180  27.579   4.284   8.250
 6699POPC   C3A31181  27.625   4.363   7.950
 6699POPC   C4A31182  27.581   4.292   7.650
 6699POPC   C1B31183  27.827   4.256   8.550
 6699POPC   C2B31184  27.808   4.186   8.250
 6699POPC   C3B31185  27.854   4.208   7.950
 6699POPC   C4B31186  27.795   4.227   7.650
 6700POPC   NC331187   5.913   5.909   9.450
 6700POPC   PO431188   5.886   5.836   9.150
 6700POPC   GL131189   5.842   5.849   8.850
 6700POPC   GL231190   5.722   5.870   8.850
 6700POPC   C1A31191   5.905   5.872   8.550
 6700POPC   D2A31192   5.913   5.885   8.250
 6700POPC   C3A31193   5.836   5.827   7.950
 6700POPC   C4A31194   5.877   5.854   7.650
 6700POPC   C1B31195   5.593   5.941   8.550
 6700POPC   C2B31196   5.633   5.935   8.250
 6700POPC   C3B31197   5.573   5.943   7.950
 6700POPC   C4B31198   5.584   5.867   7.650
 6701POPC   NC331199  40.773  22.119   9.450
 6701POPC   PO431200  40.816  22.196   9.150
 6701POPC   GL131201  40.770  22.120   8.850
 6701POPC   GL231202  40.898  22.245   8.850
 6701POPC   C1A31203  40.744  22.194   8.550
 6701POPC   D2A31204  40.751  22.202   8.250
 6701POPC   C3A31205  40.819  22.162   7.950
 6701POPC   C4A31206  40.793  22.174   7.650
 6701POPC   C1B31207  40.943  22.365   8.550
 6701POPC   C2B31208  40.883  22.423   8.250
 6701POPC   C3B31209  40.924  22.324   7.950
 6701POPC   C4B31210  40.892  22.345   7.650
 6702POPC   NC331211  17.487   2.722   9.450
 6702POPC   PO431212  17.474   2.784   9.150
 6702POPC   GL131213  17.463   2.811   8.850
 6702POPC   GL231214  17.349   2.810   8.850
 6702POPC   C1A31215  17.500   2.795   8.550
 6702POPC   D2A31216  17.527   2.745   8.250
 6702POPC   C3A31217  17.507   2.779   7.950
 6702POPC   C4A31218  17.557   2.764   7.650
 6702POPC   C1B31219  17.282   2.765   8.550
 6702POPC   C2B31220  17.278   2.771   8.250
 6702POPC   C3B31221  17.228   2.800   7.950
 6702POPC   C4B31222  17.238   2.817   7.650
 6703POPC   NC331223  17.554  39.981   9.450
 6703POPC   PO431224  17.528  40.028   9.150
 6703POPC   GL131225  17.470  40.013   8.850
 6703POPC   GL231226  17.533  39.913   8.850
 6703POPC   C1A31227  17.555  40.017   8.550
 6703POPC   D2A31228  17.489  40.047   8.250
 6703POPC   C3A31229  17.554  39.961   7.950
 6703POPC   C4A31230  17.501  40.001   7.650
 6703POPC   C1B31231  17.583  39.746   8.550
 6703POPC   C2B31232  17.599  39.806   8.250
 6703POPC   C3B31233  17.648  39.746   7.950
 6703POPC   C4B31234  17.632  39.737   7.650
 6704POPC   NC331235  33.042  12.106   9.450
 6704POPC   PO431236  33.030  12.039   9.150
 6704POPC   GL131237  33.029  12.097   8.850
 6704POPC   GL231238  32.900  12.095   8.850
 6704POPC   C1A31239  33.048  12.125   8.550
 6704POPC   D2A31240  33.020  12.046   8.250
 6704POPC   C3A31241  33.067  12.060   7.950
 6704POPC   C4A31242  32.985  12.076   7.650
 6704POPC   C1B31243  32.836  12.220   8.550
 6704POPC   C2B31244  32.824  12.174   8.250
 6704POPC   C3B31245  32.764  12.205   7.950
 6704POPC   C4B31246  32.777  12.163   7.650
 6705POPC   NC331247   9.739  28.338   9.450
 6705POPC   PO431248   9.737  28.391   9.150
 6705POPC   GL131249   9.713  28.390   8.850
 6705POPC   GL231250   9.831  28.447   8.850
 6705POPC   C1A31251   9.776  28.364   8.550
 6705POPC   D2A31252   9.777  28.342   8.250
 6705POPC   C3A31253   9.780  28.392   7.950
 6705POPC   C4A31254   9.722  28.391   7.650
 6705POPC   C1B31255   9.956  28.503   8.550
 6705POPC   C2B31256   9.989  28.480   8.250
 6705POPC   C3B31257  10.003  28.463   7.950
 6705POPC   C4B31258   9.927  28.479   7.650
 6706POPC   NC331259  33.770  38.490   9.450
 6706POPC   PO431260  33.760  38.493   9.150
 6706POPC   GL131261  33.804  38.504   8.850
 6706POPC   GL231262  33.942  38.331   8.850
 6706POPC   C1A31263  33.806  38.445   8.550
 6706POPC   D2A31264  33.822  38.410   8.250
 6706POPC   C3A31265  33.820  38.469   7.950
 6706POPC   C4A31266  33.837  38.430   7.650
 6706POPC   C1B31267  34.026  38.295   8.550
 6706POPC   C2B31268  34.037  38.339   8.250
 6706POPC   C3B31269  33.979  38.343   7.950
 6706POPC   C4B31270  34.038  38.266   7.650
 6707POPC   NC331271  41.592   0.420   9.450
 6707POPC   PO431272  41.546   0.394   9.150
 6707POPC   GL131273  41.546   0.469   8.850
 6707POPC   GL231274  41.620   0.483   8.850
 6707POPC   C1A31275  41.520   0.486   8.550
 6707POPC   D2A31276  41.510   0.414   8.250
 6707POPC   C3A31277  41.575   0.395   7.950
 6707POPC   C4A31278  41.554   0.392   7.650
 6707POPC   C1B31279  41.718   0.591   8.550
 6707POPC   C2B31280  41.724   0.564   8.250
 6707POPC   C3B31281  41.762   0.574   7.950
 6707POPC   C4B31282  41.803   0.561   7.650
 6708POPC   NC331283   5.074  10.565   9.450
 6708POPC   PO431284   5.106  10.567   9.150
 6708POPC   GL131285   5.054  10.547   8.850
 6708POPC   GL231286   5.019  10.578   8.850
 6708POPC   C1A31287   5.083  10.547   8.550
 6708POPC   D2A31288   5.131  10.479   8.250
 6708POPC   C3A31289   5.104  10.509   7.950
 6708POPC   C4A31290   5.082  10.541   7.650
 6708POPC   C1B31291   4.921  10.699   8.550
 6708POPC   C2B31292   4.976  10.691   8.250
 6708POPC   C3B31293   4.947  10.672   7.950
 6708POPC   C4B31294   4.886  10.727   7.650
 6709POPC   NC331295   0.477  34.543   9.450
 6709POPC   PO431296   0.473  34.581   9.150
 6709POPC   GL131297   0.486  34.615   8.850
 6709POPC   GL231298   0.378  34.469   8.850
 6709POPC   C1A31299   0.480  34.546   8.550
 6709POPC   D2A31300   0.409  34.549   8.250
 6709POPC   C3A31301   0.435  34.602   7.950
 6709POPC   C4A31302   0.391  34.582   7.650
 6709POPC   C1B31303   0.241  34.456   8.550
 6709POPC   C2B31304   0.220  34.374   8.250
 6709POPC   C3B31305   0.211  34.396   7.950
 6709POPC   C4B31306   0.226  34.451   7.650
 6710POPC   NC331307   9.776  11.285   9.450
 6710POPC   PO431308   9.725  11.283   9.150
 6710POPC   GL131309   9.728  11.292   8.850
 6710POPC   GL231310   9.683  11.435   8.850
 6710POPC   C1A31311   9.719  11.303   8.550
 6710POPC   D2A31312   9.719  11.275   8.250
 6710POPC   C3A31313   9.763  11.280   7.950
 6710POPC   C4A31314   9.772  11.317   7.650
 6710POPC   C1B31315   9.616  11.517   8.550
 6710POPC   C2B31316   9.649  11.468   8.250
 6710POPC   C3B31317   9.612  11.535   7.950
 6710POPC   C4B31318   9.567  11.455   7.650
 6711POPC   NC331319  23.696   9.713   9.450
 6711POPC   PO431320  23.746   9.763   9.150
 6711POPC   GL131321  23.751   9.760   8.850
 6711POPC   GL231322  23.871   9.711   8.850
 6711POPC   C1A31323  23.709   9.775   8.550
 6711POPC   D2A31324  23.761   9.716   8.250
 6711POPC   C3A31325  23.755   9.704   7.950
 6711POPC   C4A31326  23.737   9.796   7.650
 6711POPC   C1B31327  23.915   9.617   8.550
 6711POPC   C2B31328  23.981   9.622   8.250
 6711POPC   C3B31329  23.896   9.666   7.950
 6711POPC   C4B31330  23.982   9.620   7.650
 6712POPC   NC331331  40.016  29.102   9.450
 6712POPC   PO431332  39.979  29.130   9.150
 6712POPC   GL131333  40.046  29.177   8.850
 6712POPC   GL231334  40.026  28.990   8.850
 6712POPC   C1A31335  39.959  29.175   8.550
 6712POPC   D2A31336  40.026  29.153   8.250
 6712POPC   C3A31337  39.958  29.154   7.950
 6712POPC   C4A31338  40.057  29.158   7.650
 6712POPC   C1B31339  40.055  28.957   8.550
 6712POPC   C2B31340  40.117  28.935   8.250
 6712POPC   C3B31341  40.059  28.869   7.950
 6712POPC   C4B31342  40.105  28.866   7.650
 6713POPC   NC331343   8.961   2.001   9.450
 6713POPC   PO431344   9.007   1.972   9.150
 6713POPC   GL131345   8.955   2.001   8.850
 6713POPC   GL231346   8.916   2.095   8.850
 6713POPC   C1A31347   8.986   2.014   8.550
 6713POPC   D2A31348   8.965   2.006   8.250
 6713POPC   C3A31349   8.998   1.956   7.950
 6713POPC   C4A31350   8.947   1.957   7.650
 6713POPC   C1B31351   8.949   2.254   8.550
 6713POPC   C2B31352   8.914   2.270   8.250
 6713POPC   C3B31353   8.895   2.211   7.950
 6713POPC   C4B31354   8.966   2.268   7.650
 6714POPC   NC331355   5.901  13.583   9.450
 6714POPC   PO431356   5.894  13.677   9.150
 6714POPC   GL131357   5.853  13.633   8.850
 6714POPC   GL231358   5.988  13.572   8.850
 6714POPC   C1A31359   5.883  13.610   8.550
 6714POPC   D2A31360   5.836  13.578   8.250
 6714POPC   C3A31361   5.916  13.631   7.950
 6714POPC   C4A31362   5.864  13.612   7.650
 6714POPC   C1B31363   6.077  13.641   8.550
 6714POPC   C2B31364   6.160  13.559   8.250
 6714POPC   C3B31365   6.165  13.615   7.950
 6714POPC   C4B31366   6.095  13.543   7.650
 6715POPC   NC331367  24.452  31.448   9.450
 6715POPC   PO431368  24.475  31.440   9.150
 6715POPC   GL131369  24.498  31.497   8.850
 6715POPC   GL231370  24.622  31.399   8.850
 6715POPC   C1A31371  24.456  31.490   8.550
 6715POPC   D2A31372  24.445  31.502   8.250
 6715POPC   C3A31373  24.494  31.477   7.950
 6715POPC   C4A31374  24.539  31.492   7.650
 6715POPC   C1B31375  24.721  31.420   8.550
 6715POPC   C2B31376  24.740  31.443   8.250
 6715POPC   C3B31377  24.680  31.424   7.950
 6715POPC   C4B31378  24.685  31.393   7.650
 6716POPC   NC331379  12.832   3.514   9.450
 6716POPC   PO431380  12.849   3.500   9.150
 6716POPC   GL131381  12.848   3.547   8.850
 6716POPC   GL231382  12.890   3.697   8.850
 6716POPC   C1A31383  12.881   3.561   8.550
 6716POPC   D2A31384  12.826   3.537   8.250
 6716POPC   C3A31385  12.842   3.494   7.950
 6716POPC   C4A31386  12.825   3.500   7.650
 6716POPC   C1B31387  12.942   3.791   8.550
 6716POPC   C2B31388  12.963   3.800   8.250
 6716POPC   C3B31389  12.925   3.760   7.950
 6716POPC   C4B31390  12.954   3.719   7.650
 6717POPC   NC331391   9.781   4.275   9.450
 6717POPC   PO431392   9.786   4.345   9.150
 6717POPC   GL131393   9.759   4.314   8.850
 6717POPC   GL231394   9.623   4.332   8.850
 6717POPC   C1A31395   9.788   4.344   8.550
 6717POPC   D2A31396   9.734   4.323   8.250
 6717POPC   C3A31397   9.761   4.329   7.950
 6717POPC   C4A31398   9.717   4.322   7.650
 6717POPC   C1B31399   9.553   4.478   8.550
 6717POPC   C2B31400   9.487   4.437   8.250
 6717POPC   C3B31401   9.477   4.415   7.950
 6717POPC   C4B31402   9.479   4.416   7.650
 6718POPC   NC331403  16.767  37.645   9.450
 6718POPC   PO431404  16.745  37.658   9.150
 6718POPC   GL131405  16.717  37.715   8.850
 6718POPC   GL231406  16.799  37.521   8.850
 6718POPC   C1A31407  16.734  37.712   8.550
 6718POPC   D2A31408  16.733  37.646   8.250
 6718POPC   C3A31409  16.761  37.723   7.950
 6718POPC   C4A31410  16.739  37.655   7.650
 6718POPC   C1B31411  16.806  37.426   8.550
 6718POPC   C2B31412  16.740  37.483   8.250
 6718POPC   C3B31413  16.811  37.438   7.950
 6718POPC   C4B31414  16.806  37.389   7.650
 6719POPC   NC331415  42.353  28.334   9.450
 6719POPC   PO431416  42.367  28.352   9.150
 6719POPC   GL131417  42.368  28.359   8.850
 6719POPC   GL231418  42.194  28.436   8.850
 6719POPC   C1A31419  42.322  28.357   8.550
 6719POPC   D2A31420  42.368  28.400   8.250
 6719POPC   C3A31421  42.352  28.390   7.950
 6719POPC   C4A31422  42.337  28.399   7.650
 6719POPC   C1B31423  42.095  28.379   8.550
 6719POPC   C2B31424  42.072  28.396   8.250
 6719POPC   C3B31425  42.056  28.370   7.950
 6719POPC   C4B31426  42.119  28.442   7.650
 6720POPC   NC331427  44.648  15.153   9.450
 6720POPC   PO431428  44.679  15.139   9.150
 6720POPC   GL131429  44.654  15.226   8.850
 6720POPC   GL231430  44.670  15.044   8.850
 6720POPC   C1A31431  44.702  15.157   8.550
 6720POPC   D2A31432  44.623  15.194   8.250
 6720POPC   C3A31433  44.710  15.152   7.950
 6720POPC   C4A31434  44.669  15.170   7.650
 6720POPC   C1B31435  44.746  14.914   8.550
 6720POPC   C2B31436  44.728  14.906   8.250
 6720POPC   C3B31437  44.732  14.911   7.950
 6720POPC   C4B31438  44.781  14.980   7.650
 6721POPC   NC331439  10.474  10.494   9.450
 6721POPC   PO431440  10.478  10.487   9.150
 6721POPC   GL131441  10.524  10.554   8.850
 6721POPC   GL231442  10.588  10.400   8.850
 6721POPC   C1A31443  10.536  10.510   8.550
 6721POPC   D2A31444  10.524  10.475   8.250
 6721POPC   C3A31445  10.548  10.476   7.950
 6721POPC   C4A31446  10.516  10.550   7.650
 6721POPC   C1B31447  10.593  10.309   8.550
 6721POPC   C2B31448  10.629  10.297   8.250
 6721POPC   C3B31449  10.599  10.282   7.950
 6721POPC   C4B31450  10.623  10.305   7.650
 6722POPC   NC331451  38.467  12.823   9.450
 6722POPC   PO431452  38.455  12.839   9.150
 6722POPC   GL131453  38.472  12.865   8.850
 6722POPC   GL231454  38.564  12.833   8.850
 6722POPC   C1A31455  38.497  12.831   8.550
 6722POPC   D2A31456  38.451  12.803   8.250
 6722POPC   C3A31457  38.482  12.882   7.950
 6722POPC   C4A31458  38.472  12.825   7.650
 6722POPC   C1B31459  38.636  12.745   8.550
 6722POPC   C2B31460  38.683  12.794   8.250
 6722POPC   C3B31461  38.645  12.743   7.950
 6722POPC   C4B31462  38.650  12.720   7.650
 6723POPC   NC331463  18.270  26.048   9.450
 6723POPC   PO431464  18.330  26.057   9.150
 6723POPC   GL131465  18.296  26.084   8.850
 6723POPC   GL231466  18.390  25.969   8.850
 6723POPC   C1A31467  18.309  26.019   8.550
 6723POPC   D2A31468  18.301  26.072   8.250
 6723POPC   C3A31469  18.272  26.042   7.950
 6723POPC   C4A31470  18.268  26.006   7.650
 6723POPC   C1B31471  18.500  25.969   8.550
 6723POPC   C2B31472  18.481  25.935   8.250
 6723POPC   C3B31473  18.554  25.959   7.950
 6723POPC   C4B31474  18.488  25.970   7.650
 6724POPC   NC331475  22.136  22.899   9.450
 6724POPC   PO431476  22.209  22.924   9.150
 6724POPC   GL131477  22.132  22.985   8.850
 6724POPC   GL231478  22.085  22.942   8.850
 6724POPC   C1A31479  22.177  22.940   8.550
 6724POPC   D2A31480  22.154  22.947   8.250
 6724POPC   C3A31481  22.166  22.961   7.950
 6724POPC   C4A31482  22.125  22.892   7.650
 6724POPC   C1B31483  21.918  22.990   8.550
 6724POPC   C2B31484  21.951  23.039   8.250
 6724POPC   C3B31485  21.933  22.993   7.950
 6724POPC   C4B31486  21.973  23.042   7.650
 6725POPC   NC331487  17.470   4.272   9.450
 6725POPC   PO431488  17.482   4.344   9.150
 6725POPC   GL131489  17.514   4.316   8.850
 6725POPC   GL231490  17.454   4.228   8.850
 6725POPC   C1A31491  17.538   4.350   8.550
 6725POPC   D2A31492  17.546   4.339   8.250
 6725POPC   C3A31493  17.486   4.318   7.950
 6725POPC   C4A31494  17.545   4.292   7.650
 6725POPC   C1B31495  17.386   4.078   8.550
 6725POPC   C2B31496  17.458   4.081   8.250
 6725POPC   C3B31497  17.477   4.065   7.950
 6725POPC   C4B31498  17.424   4.048   7.650
 6726POPC   NC331499   7.387  32.297   9.450
 6726POPC   PO431500   7.405  32.225   9.150
 6726POPC   GL131501   7.394  32.275   8.850
 6726POPC   GL231502   7.324  32.296   8.850
 6726POPC   C1A31503   7.436  32.293   8.550
 6726POPC   D2A31504   7.407  32.249   8.250
 6726POPC   C3A31505   7.377  32.278   7.950
 6726POPC   C4A31506   7.469  32.215   7.650
 6726POPC   C1B31507   7.159  32.382   8.550
 6726POPC   C2B31508   7.171  32.338   8.250
 6726POPC   C3B31509   7.191  32.339   7.950
 6726POPC   C4B31510   7.210  32.287   7.650
 6727POPC   NC331511  33.751  21.370   9.450
 6727POPC   PO431512  33.850  21.346   9.150
 6727POPC   GL131513  33.842  21.400   8.850
 6727POPC   GL231514  33.645  21.349   8.850
 6727POPC   C1A31515  33.755  21.434   8.550
 6727POPC   D2A31516  33.846  21.416   8.250
 6727POPC   C3A31517  33.783  21.374   7.950
 6727POPC   C4A31518  33.830  21.385   7.650
 6727POPC   C1B31519  33.578  21.252   8.550
 6727POPC   C2B31520  33.592  21.270   8.250
 6727POPC   C3B31521  33.552  21.262   7.950
 6727POPC   C4B31522  33.624  21.258   7.650
 6728POPC   NC331523  29.908  36.924   9.450
 6728POPC   PO431524  29.965  36.902   9.150
 6728POPC   GL131525  29.959  36.923   8.850
 6728POPC   GL231526  29.909  36.982   8.850
 6728POPC   C1A31527  29.922  36.871   8.550
 6728POPC   D2A31528  29.895  36.864   8.250
 6728POPC   C3A31529  29.886  36.887   7.950
 6728POPC   C4A31530  29.882  36.890   7.650
 6728POPC   C1B31531  29.952  37.162   8.550
 6728POPC   C2B31532  30.020  37.173   8.250
 6728POPC   C3B31533  29.952  37.131   7.950
 6728POPC   C4B31534  29.981  37.152   7.650
 6729POPC   NC331535   9.797  37.667   9.450
 6729POPC   PO431536   9.746  37.696   9.150
 6729POPC   GL131537   9.705  37.674   8.850
 6729POPC   GL231538   9.681  37.732   8.850
 6729POPC   C1A31539   9.764  37.712   8.550
 6729POPC   D2A31540   9.774  37.630   8.250
 6729POPC   C3A31541   9.797  37.669   7.950
 6729POPC   C4A31542   9.720  37.658   7.650
 6729POPC   C1B31543   9.599  37.892   8.550
 6729POPC   C2B31544   9.587  37.888   8.250
 6729POPC   C3B31545   9.644  37.830   7.950
 6729POPC   C4B31546   9.579  37.835   7.650
 6730POPC   NC331547  16.004  25.999   9.450
 6730POPC   PO431548  15.930  26.018   9.150
 6730POPC   GL131549  15.938  26.070   8.850
 6730POPC   GL231550  16.101  26.085   8.850
 6730POPC   C1A31551  15.978  26.079   8.550
 6730POPC   D2A31552  15.958  26.042   8.250
 6730POPC   C3A31553  16.003  26.009   7.950
 6730POPC   C4A31554  15.916  26.072   7.650
 6730POPC   C1B31555  16.138  26.165   8.550
 6730POPC   C2B31556  16.117  26.168   8.250
 6730POPC   C3B31557  16.209  26.158   7.950
 6730POPC   C4B31558  16.189  26.207   7.650
 6731POPC   NC331559  44.650  20.572   9.450
 6731POPC   PO431560  44.669  20.578   9.150
 6731POPC   GL131561  44.620  20.632   8.850
 6731POPC   GL231562  44.686  20.705   8.850
 6731POPC   C1A31563  44.667  20.564   8.550
 6731POPC   D2A31564  44.682  20.571   8.250
 6731POPC   C3A31565  44.700  20.631   7.950
 6731POPC   C4A31566  44.689  20.580   7.650
 6731POPC   C1B31567  44.663  20.855   8.550
 6731POPC   C2B31568  44.654  20.831   8.250
 6731POPC   C3B31569  44.662  20.879   7.950
 6731POPC   C4B31570  44.661  20.874   7.650
 6732POPC   NC331571  14.426  35.368   9.450
 6732POPC   PO431572  14.375  35.320   9.150
 6732POPC   GL131573  14.400  35.349   8.850
 6732POPC   GL231574  14.440  35.489   8.850
 6732POPC   C1A31575  14.439  35.339   8.550
 6732POPC   D2A31576  14.442  35.307   8.250
 6732POPC   C3A31577  14.405  35.358   7.950
 6732POPC   C4A31578  14.399  35.333   7.650
 6732POPC   C1B31579  14.524  35.502   8.550
 6732POPC   C2B31580  14.560  35.519   8.250
 6732POPC   C3B31581  14.561  35.554   7.950
 6732POPC   C4B31582  14.605  35.502   7.650
 6733POPC   NC331583  12.873  21.376   9.450
 6733POPC   PO431584  12.849  21.375   9.150
 6733POPC   GL131585  12.845  21.380   8.850
 6733POPC   GL231586  12.830  21.538   8.850
 6733POPC   C1A31587  12.829  21.370   8.550
 6733POPC   D2A31588  12.882  21.352   8.250
 6733POPC   C3A31589  12.829  21.354   7.950
 6733POPC   C4A31590  12.823  21.422   7.650
 6733POPC   C1B31591  12.784  21.660   8.550
 6733POPC   C2B31592  12.763  21.600   8.250
 6733POPC   C3B31593  12.750  21.626   7.950
 6733POPC   C4B31594  12.743  21.635   7.650
 6734POPC   NC331595  33.045  39.199   9.450
 6734POPC   PO431596  32.989  39.249   9.150
 6734POPC   GL131597  32.983  39.198   8.850
 6734POPC   GL231598  33.132  39.296   8.850
 6734POPC   C1A31599  33.001  39.237   8.550
 6734POPC   D2A31600  33.004  39.270   8.250
 6734POPC   C3A31601  33.015  39.211   7.950
 6734POPC   C4A31602  33.060  39.194   7.650
 6734POPC   C1B31603  33.192  39.356   8.550
 6734POPC   C2B31604  33.168  39.429   8.250
 6734POPC   C3B31605  33.263  39.390   7.950
 6734POPC   C4B31606  33.241  39.399   7.650
 6735POPC   NC331607  22.942  12.854   9.450
 6735POPC   PO431608  22.915  12.827   9.150
 6735POPC   GL131609  22.893  12.851   8.850
 6735POPC   GL231610  23.001  12.741   8.850
 6735POPC   C1A31611  22.893  12.856   8.550
 6735POPC   D2A31612  22.933  12.871   8.250
 6735POPC   C3A31613  22.939  12.844   7.950
 6735POPC   C4A31614  22.942  12.818   7.650
 6735POPC   C1B31615  23.055  12.621   8.550
 6735POPC   C2B31616  23.039  12.668   8.250
 6735POPC   C3B31617  23.090  12.646   7.950
 6735POPC   C4B31618  23.084  12.649   7.650
 6736POPC   NC331619   4.340  27.548   9.450
 6736POPC   PO431620   4.293  27.613   9.150
 6736POPC   GL131621   4.324  27.548   8.850
 6736POPC   GL231622   4.362  27.741   8.850
 6736POPC   C1A31623   4.279  27.545   8.550
 6736POPC   D2A31624   4.340  27.578   8.250
 6736POPC   C3A31625   4.275  27.627   7.950
 6736POPC   C4A31626   4.315  27.630   7.650
 6736POPC   C1B31627   4.374  27.820   8.550
 6736POPC   C2B31628   4.345  27.827   8.250
 6736POPC   C3B31629   4.363  27.877   7.950
 6736POPC   C4B31630   4.307  27.805   7.650
 6737POPC   NC331631   1.964  25.287   9.450
 6737POPC   PO431632   2.016  25.271   9.150
 6737POPC   GL131633   1.975  25.278   8.850
 6737POPC   GL231634   2.117  25.195   8.850
 6737POPC   C1A31635   1.988  25.224   8.550
 6737POPC   D2A31636   1.955  25.232   8.250
 6737POPC   C3A31637   2.038  25.229   7.950
 6737POPC   C4A31638   2.009  25.302   7.650
 6737POPC   C1B31639   2.240  25.133   8.550
 6737POPC   C2B31640   2.155  25.118   8.250
 6737POPC   C3B31641   2.186  25.090   7.950
 6737POPC   C4B31642   2.147  25.090   7.650
 6738POPC   NC331643  32.210   8.947   9.450
 6738POPC   PO431644  32.255   8.970   9.150
 6738POPC   GL131645  32.274   8.940   8.850
 6738POPC   GL231646  32.300   9.124   8.850
 6738POPC   C1A31647  32.246   8.979   8.550
 6738POPC   D2A31648  32.262   8.978   8.250
 6738POPC   C3A31649  32.232   9.005   7.950
 6738POPC   C4A31650  32.255   9.020   7.650
 6738POPC   C1B31651  32.234   9.221   8.550
 6738POPC   C2B31652  32.329   9.260   8.250
 6738POPC   C3B31653  32.252   9.243   7.950
 6738POPC   C4B31654  32.262   9.215   7.650
 6739POPC   NC331655   0.420  40.045   9.450
 6739POPC   PO431656   0.453  40.005   9.150
 6739POPC   GL131657   0.455  39.980   8.850
 6739POPC   GL231658   0.309  40.076   8.850
 6739POPC   C1A31659   0.468  40.011   8.550
 6739POPC   D2A31660   0.481  39.986   8.250
 6739POPC   C3A31661   0.485  39.963   7.950
 6739POPC   C4A31662   0.436  40.034   7.650
 6739POPC   C1B31663   0.239  40.120   8.550
 6739POPC   C2B31664   0.176  40.096   8.250
 6739POPC   C3B31665   0.220  40.112   7.950
 6739POPC   C4B31666   0.201  40.134   7.650
 6740POPC   NC331667   8.161  25.293   9.450
 6740POPC   PO431668   8.179  25.217   9.150
 6740POPC   GL131669   8.236  25.270   8.850
 6740POPC   GL231670   8.279  25.184   8.850
 6740POPC   C1A31671   8.189  25.265   8.550
 6740POPC   D2A31672   8.193  25.246   8.250
 6740POPC   C3A31673   8.168  25.232   7.950
 6740POPC   C4A31674   8.181  25.218   7.650
 6740POPC   C1B31675   8.456  25.211   8.550
 6740POPC   C2B31676   8.401  25.142   8.250
 6740POPC   C3B31677   8.470  25.141   7.950
 6740POPC   C4B31678   8.435  25.199   7.650
 6741POPC   NC331679  36.893   7.386   9.450
 6741POPC   PO431680  36.902   7.395   9.150
 6741POPC   GL131681  36.873   7.428   8.850
 6741POPC   GL231682  37.001   7.421   8.850
 6741POPC   C1A31683  36.943   7.425   8.550
 6741POPC   D2A31684  36.897   7.436   8.250
 6741POPC   C3A31685  36.953   7.449   7.950
 6741POPC   C4A31686  36.914   7.446   7.650
 6741POPC   C1B31687  37.131   7.318   8.550
 6741POPC   C2B31688  37.117   7.381   8.250
 6741POPC   C3B31689  37.099   7.348   7.950
 6741POPC   C4B31690  37.178   7.361   7.650
 6742POPC   NC331691   5.083  37.707   9.450
 6742POPC   PO431692   5.089  37.723   9.150
 6742POPC   GL131693   5.064  37.683   8.850
 6742POPC   GL231694   5.113  37.826   8.850
 6742POPC   C1A31695   5.052  37.710   8.550
 6742POPC   D2A31696   5.124  37.648   8.250
 6742POPC   C3A31697   5.070  37.646   7.950
 6742POPC   C4A31698   5.085  37.679   7.650
 6742POPC   C1B31699   5.225  37.860   8.550
 6742POPC   C2B31700   5.201  37.889   8.250
 6742POPC   C3B31701   5.183  37.937   7.950
 6742POPC   C4B31702   5.166  37.910   7.650
 6743POPC   NC331703  22.196  39.254   9.450
 6743POPC   PO431704  22.168  39.186   9.150
 6743POPC   GL131705  22.187  39.244   8.850
 6743POPC   GL231706  22.001  39.234   8.850
 6743POPC   C1A31707  22.193  39.228   8.550
 6743POPC   D2A31708  22.163  39.269   8.250
 6743POPC   C3A31709  22.122  39.212   7.950
 6743POPC   C4A31710  22.136  39.268   7.650
 6743POPC   C1B31711  21.900  39.267   8.550
 6743POPC   C2B31712  21.897  39.328   8.250
 6743POPC   C3B31713  21.955  39.307   7.950
 6743POPC   C4B31714  21.910  39.311   7.650
 6744POPC   NC331715  31.433  15.184   9.450
 6744POPC   PO431716  31.444  15.140   9.150
 6744POPC   GL131717  31.465  15.142   8.850
 6744POPC   GL231718  31.640  15.207   8.850
 6744POPC   C1A31719  31.503  15.167   8.550
 6744POPC   D2A31720  31.456  15.189   8.250
 6744POPC   C3A31721  31.510  15.223   7.950
 6744POPC   C4A31722  31.448  15.138   7.650
 6744POPC   C1B31723  31.687  15.298   8.550
 6744POPC   C2B31724  31.739  15.278   8.250
 6744POPC   C3B31725  31.693  15.279   7.950
 6744POPC   C4B31726  31.705  15.220   7.650
 6745POPC   NC331727  10.508   8.979   9.450
 6745POPC   PO431728  10.547   8.981   9.150
 6745POPC   GL131729  10.571   8.926   8.850
 6745POPC   GL231730  10.505   8.895   8.850
 6745POPC   C1A31731  10.549   8.972   8.550
 6745POPC   D2A31732  10.558   9.000   8.250
 6745POPC   C3A31733  10.527   8.942   7.950
 6745POPC   C4A31734  10.546   8.999   7.650
 6745POPC   C1B31735  10.379   8.771   8.550
 6745POPC   C2B31736  10.360   8.722   8.250
 6745POPC   C3B31737  10.358   8.784   7.950
 6745POPC   C4B31738  10.436   8.713   7.650
 6746POPC   NC331739  38.458  28.396   9.450
 6746POPC   PO431740  38.443  28.337   9.150
 6746POPC   GL131741  38.443  28.322   8.850
 6746POPC   GL231742  38.314  28.412   8.850
 6746POPC   C1A31743  38.443  28.412   8.550
 6746POPC   D2A31744  38.471  28.337   8.250
 6746POPC   C3A31745  38.420  28.350   7.950
 6746POPC   C4A31746  38.421  28.394   7.650
 6746POPC   C1B31747  38.303  28.532   8.550
 6746POPC   C2B31748  38.308  28.499   8.250
 6746POPC   C3B31749  38.306  28.519   7.950
 6746POPC   C4B31750  38.314  28.505   7.650
 6747POPC   NC331751   8.175   2.811   9.450
 6747POPC   PO431752   8.186   2.720   9.150
 6747POPC   GL131753   8.182   2.808   8.850
 6747POPC   GL231754   8.168   2.870   8.850
 6747POPC   C1A31755   8.160   2.785   8.550
 6747POPC   D2A31756   8.212   2.789   8.250
 6747POPC   C3A31757   8.156   2.775   7.950
 6747POPC   C4A31758   8.174   2.809   7.650
 6747POPC   C1B31759   8.109   3.017   8.550
 6747POPC   C2B31760   8.055   2.968   8.250
 6747POPC   C3B31761   8.016   3.010   7.950
 6747POPC   C4B31762   8.046   2.993   7.650
 6748POPC   NC331763  36.081  44.642   9.450
 6748POPC   PO431764  36.160  44.678   9.150
 6748POPC   GL131765  36.079  44.708   8.850
 6748POPC   GL231766  36.208  44.658   8.850
 6748POPC   C1A31767  36.142  44.664   8.550
 6748POPC   D2A31768  36.115  44.620   8.250
 6748POPC   C3A31769  36.127  44.679   7.950
 6748POPC   C4A31770  36.177  44.646   7.650
 6748POPC   C1B31771  36.308  44.591   8.550
 6748POPC   C2B31772  36.329  44.524   8.250
 6748POPC   C3B31773  36.392  44.600   7.950
 6748POPC   C4B31774  36.332  44.546   7.650
 6749POPC   NC331775  43.121  10.491   9.450
 6749POPC   PO431776  43.159  10.482   9.150
 6749POPC   GL131777  43.159  10.570   8.850
 6749POPC   GL231778  42.975  10.532   8.850
 6749POPC   C1A31779  43.101  10.533   8.550
 6749POPC   D2A31780  43.077  10.563   8.250
 6749POPC   C3A31781  43.114  10.497   7.950
 6749POPC   C4A31782  43.089  10.534   7.650
 6749POPC   C1B31783  42.870  10.664   8.550
 6749POPC   C2B31784  42.907  10.652   8.250
 6749POPC   C3B31785  42.879  10.645   7.950
 6749POPC   C4B31786  42.923  10.594   7.650
 6750POPC   NC331787  14.391  10.476   9.450
 6750POPC   PO431788  14.392  10.511   9.150
 6750POPC   GL131789  14.367  10.554   8.850
 6750POPC   GL231790  14.300  10.458   8.850
 6750POPC   C1A31791  14.436  10.487   8.550
 6750POPC   D2A31792  14.356  10.476   8.250
 6750POPC   C3A31793  14.393  10.574   7.950
 6750POPC   C4A31794  14.381  10.548   7.650
 6750POPC   C1B31795  14.196  10.330   8.550
 6750POPC   C2B31796  14.231  10.323   8.250
 6750POPC   C3B31797  14.197  10.330   7.950
 6750POPC   C4B31798  14.208  10.290   7.650
 6751POPC   NC331799  22.196  44.675   9.450
 6751POPC   PO431800  22.160  44.631   9.150
 6751POPC   GL131801  22.132  44.634   8.850
 6751POPC   GL231802  22.284  44.665   8.850
 6751POPC   C1A31803  22.158  44.686   8.550
 6751POPC   D2A31804  22.151  44.697   8.250
 6751POPC   C3A31805  22.211  44.706   7.950
 6751POPC   C4A31806  22.176  44.623   7.650
 6751POPC   C1B31807  22.423  44.742   8.550
 6751POPC   C2B31808  22.425  44.748   8.250
 6751POPC   C3B31809  22.393  44.714   7.950
 6751POPC   C4B31810  22.425  44.752   7.650
 6752POPC   NC331811   8.149  29.873   9.450
 6752POPC   PO431812   8.217  29.896   9.150
 6752POPC   GL131813   8.222  29.886   8.850
 6752POPC   GL231814   8.115  29.944   8.850
 6752POPC   C1A31815   8.190  29.963   8.550
 6752POPC   D2A31816   8.211  29.872   8.250
 6752POPC   C3A31817   8.159  29.932   7.950
 6752POPC   C4A31818   8.207  29.969   7.650
 6752POPC   C1B31819   7.963  29.998   8.550
 6752POPC   C2B31820   7.934  30.038   8.250
 6752POPC   C3B31821   7.968  29.977   7.950
 6752POPC   C4B31822   7.924  29.972   7.650
 6753POPC   NC331823   2.006  40.752   9.450
 6753POPC   PO431824   1.988  40.756   9.150
 6753POPC   GL131825   2.012  40.785   8.850
 6753POPC   GL231826   1.844  40.711   8.850
 6753POPC   C1A31827   2.037  40.786   8.550
 6753POPC   D2A31828   1.996  40.768   8.250
 6753POPC   C3A31829   1.946  40.789   7.950
 6753POPC   C4A31830   1.976  40.742   7.650
 6753POPC   C1B31831   1.799  40.632   8.550
 6753POPC   C2B31832   1.788  40.652   8.250
 6753POPC   C3B31833   1.832  40.598   7.950
 6753POPC   C4B31834   1.801  40.593   7.650
 6754POPC   NC331835   1.172  13.598   9.450
 6754POPC   PO431836   1.165  13.637   9.150
 6754POPC   GL131837   1.208  13.666   8.850
 6754POPC   GL231838   1.108  13.498   8.850
 6754POPC   C1A31839   1.243  13.655   8.550
 6754POPC   D2A31840   1.196  13.611   8.250
 6754POPC   C3A31841   1.236  13.627   7.950
 6754POPC   C4A31842   1.246  13.678   7.650
 6754POPC   C1B31843   1.063  13.389   8.550
 6754POPC   C2B31844   1.126  13.426   8.250
 6754POPC   C3B31845   1.077  13.372   7.950
 6754POPC   C4B31846   1.138  13.404   7.650
 6755POPC   NC331847  44.686  43.931   9.450
 6755POPC   PO431848  44.663  43.925   9.150
 6755POPC   GL131849  44.685  43.932   8.850
 6755POPC   GL231850  44.515  43.879   8.850
 6755POPC   C1A31851  44.615  43.872   8.550
 6755POPC   D2A31852  44.703  43.864   8.250
 6755POPC   C3A31853  44.706  43.886   7.950
 6755POPC   C4A31854  44.709  43.913   7.650
 6755POPC   C1B31855  44.387  43.805   8.550
 6755POPC   C2B31856  44.465  43.797   8.250
 6755POPC   C3B31857  44.410  43.810   7.950
 6755POPC   C4B31858  44.446  43.769   7.650
 6756POPC   NC331859  15.966   9.781   9.450
 6756POPC   PO431860  15.974   9.724   9.150
 6756POPC   GL131861  15.948   9.706   8.850
 6756POPC   GL231862  16.020   9.661   8.850
 6756POPC   C1A31863  15.994   9.711   8.550
 6756POPC   D2A31864  15.994   9.778   8.250
 6756POPC   C3A31865  15.990   9.749   7.950
 6756POPC   C4A31866  15.980   9.763   7.650
 6756POPC   C1B31867  16.103   9.498   8.550
 6756POPC   C2B31868  16.062   9.485   8.250
 6756POPC   C3B31869  16.030   9.539   7.950
 6756POPC   C4B31870  16.064   9.566   7.650
 6757POPC   NC331871  40.056  20.637   9.450
 6757POPC   PO431872  39.963  20.621   9.150
 6757POPC   GL131873  40.047  20.656   8.850
 6757POPC   GL231874  39.968  20.469   8.850
 6757POPC   C1A31875  40.054  20.571   8.550
 6757POPC   D2A31876  40.024  20.592   8.250
 6757POPC   C3A31877  40.010  20.607   7.950
 6757POPC   C4A31878  40.013  20.607   7.650
 6757POPC   C1B31879  39.853  20.384   8.550
 6757POPC   C2B31880  39.790  20.469   8.250
 6757POPC   C3B31881  39.863  20.430   7.950
 6757POPC   C4B31882  39.818  20.385   7.650
 6758POPC   NC331883   2.796   0.453   9.450
 6758POPC   PO431884   2.765   0.462   9.150
 6758POPC   GL131885   2.781   0.466   8.850
 6758POPC   GL231886   2.754   0.353   8.850
 6758POPC   C1A31887   2.742   0.443   8.550
 6758POPC   D2A31888   2.755   0.436   8.250
 6758POPC   C3A31889   2.722   0.400   7.950
 6758POPC   C4A31890   2.767   0.467   7.650
 6758POPC   C1B31891   2.823   0.177   8.550
 6758POPC   C2B31892   2.763   0.142   8.250
 6758POPC   C3B31893   2.749   0.150   7.950
 6758POPC   C4B31894   2.801   0.141   7.650
 6759POPC   NC331895   5.053  33.781   9.450
 6759POPC   PO431896   5.056  33.771   9.150
 6759POPC   GL131897   5.045  33.829   8.850
 6759POPC   GL231898   5.208  33.840   8.850
 6759POPC   C1A31899   5.105  33.839   8.550
 6759POPC   D2A31900   5.136  33.842   8.250
 6759POPC   C3A31901   5.066  33.845   7.950
 6759POPC   C4A31902   5.094  33.782   7.650
 6759POPC   C1B31903   5.327  33.950   8.550
 6759POPC   C2B31904   5.277  33.907   8.250
 6759POPC   C3B31905   5.357  33.880   7.950
 6759POPC   C4B31906   5.289  33.933   7.650
 6760POPC   NC331907  17.503   8.169   9.450
 6760POPC   PO431908  17.546   8.203   9.150
 6760POPC   GL131909  17.502   8.242   8.850
 6760POPC   GL231910  17.537   8.085   8.850
 6760POPC   C1A31911  17.510   8.178   8.550
 6760POPC   D2A31912  17.547   8.194   8.250
 6760POPC   C3A31913  17.469   8.181   7.950
 6760POPC   C4A31914  17.534   8.205   7.650
 6760POPC   C1B31915  17.599   7.966   8.550
 6760POPC   C2B31916  17.617   7.946   8.250
 6760POPC   C3B31917  17.621   8.001   7.950
 6760POPC   C4B31918  17.637   8.022   7.650
 6761POPC   NC331919   4.331   1.959   9.450
 6761POPC   PO431920   4.284   2.018   9.150
 6761POPC   GL131921   4.324   1.945   8.850
 6761POPC   GL231922   4.361   1.913   8.850
 6761POPC   C1A31923   4.341   1.958   8.550
 6761POPC   D2A31924   4.298   2.017   8.250
 6761POPC   C3A31925   4.316   1.960   7.950
 6761POPC   C4A31926   4.338   1.951   7.650
 6761POPC   C1B31927   4.421   1.762   8.550
 6761POPC   C2B31928   4.352   1.766   8.250
 6761POPC   C3B31929   4.414   1.786   7.950
 6761POPC   C4B31930   4.398   1.753   7.650
 6762POPC   NC331931  34.553  25.272   9.450
 6762POPC   PO431932  34.571  25.265   9.150
 6762POPC   GL131933  34.608  25.268   8.850
 6762POPC   GL231934  34.705  25.370   8.850
 6762POPC   C1A31935  34.548  25.303   8.550
 6762POPC   D2A31936  34.570  25.290   8.250
 6762POPC   C3A31937  34.588  25.264   7.950
 6762POPC   C4A31938  34.528  25.235   7.650
 6762POPC   C1B31939  34.783  25.447   8.550
 6762POPC   C2B31940  34.791  25.438   8.250
 6762POPC   C3B31941  34.769  25.405   7.950
 6762POPC   C4B31942  34.726  25.409   7.650
 6763POPC   NC331943   6.629   5.902   9.450
 6763POPC   PO431944   6.617   5.858   9.150
 6763POPC   GL131945   6.683   5.917   8.850
 6763POPC   GL231946   6.737   5.791   8.850
 6763POPC   C1A31947   6.668   5.864   8.550
 6763POPC   D2A31948   6.688   5.846   8.250
 6763POPC   C3A31949   6.624   5.855   7.950
 6763POPC   C4A31950   6.669   5.880   7.650
 6763POPC   C1B31951   6.873   5.820   8.550
 6763POPC   C2B31952   6.906   5.852   8.250
 6763POPC   C3B31953   6.931   5.821   7.950
 6763POPC   C4B31954   6.930   5.779   7.650
 6764POPC   NC331955  35.367  17.480   9.450
 6764POPC   PO431956  35.373  17.475   9.150
 6764POPC   GL131957  35.302  17.477   8.850
 6764POPC   GL231958  35.465  17.641   8.850
 6764POPC   C1A31959  35.331  17.493   8.550
 6764POPC   D2A31960  35.363  17.535   8.250
 6764POPC   C3A31961  35.335  17.549   7.950
 6764POPC   C4A31962  35.349  17.468   7.650
 6764POPC   C1B31963  35.488  17.648   8.550
 6764POPC   C2B31964  35.491  17.646   8.250
 6764POPC   C3B31965  35.570  17.679   7.950
 6764POPC   C4B31966  35.565  17.678   7.650
 6765POPC   NC331967   6.603   8.984   9.450
 6765POPC   PO431968   6.646   8.970   9.150
 6765POPC   GL131969   6.656   8.935   8.850
 6765POPC   GL231970   6.762   9.067   8.850
 6765POPC   C1A31971   6.655   8.930   8.550
 6765POPC   D2A31972   6.680   8.954   8.250
 6765POPC   C3A31973   6.656   8.965   7.950
 6765POPC   C4A31974   6.598   8.963   7.650
 6765POPC   C1B31975   6.898   9.053   8.550
 6765POPC   C2B31976   6.894   9.089   8.250
 6765POPC   C3B31977   6.904   9.106   7.950
 6765POPC   C4B31978   6.917   9.136   7.650
 6766POPC   NC331979   8.948   0.454   9.450
 6766POPC   PO431980   9.022   0.442   9.150
 6766POPC   GL131981   8.985   0.417   8.850
 6766POPC   GL231982   8.904   0.592   8.850
 6766POPC   C1A31983   8.999   0.461   8.550
 6766POPC   D2A31984   8.996   0.485   8.250
 6766POPC   C3A31985   9.019   0.439   7.950
 6766POPC   C4A31986   8.991   0.464   7.650
 6766POPC   C1B31987   8.891   0.647   8.550
 6766POPC   C2B31988   8.892   0.701   8.250
 6766POPC   C3B31989   8.877   0.645   7.950
 6766POPC   C4B31990   8.858   0.717   7.650
 6767POPC   NC331991   4.321  36.159   9.450
 6767POPC   PO431992   4.354  36.156   9.150
 6767POPC   GL131993   4.290  36.168   8.850
 6767POPC   GL231994   4.364  36.221   8.850
 6767POPC   C1A31995   4.323  36.084   8.550
 6767POPC   D2A31996   4.342  36.158   8.250
 6767POPC   C3A31997   4.305  36.101   7.950
 6767POPC   C4A31998   4.301  36.167   7.650
 6767POPC   C1B31999   4.500  36.323   8.550
 6767POPC   C2B32000   4.477  36.348   8.250
 6767POPC   C3B32001   4.511  36.275   7.950
 6767POPC   C4B32002   4.514  36.342   7.650
 6768POPC   NC332003  19.075  27.592   9.450
 6768POPC   PO432004  19.051  27.625   9.150
 6768POPC   GL132005  19.066  27.641   8.850
 6768POPC   GL232006  19.090  27.717   8.850
 6768POPC   C1A32007  19.038  27.561   8.550
 6768POPC   D2A32008  19.018  27.603   8.250
 6768POPC   C3A32009  19.018  27.566   7.950
 6768POPC   C4A32010  19.039  27.563   7.650
 6768POPC   C1B32011  19.071  27.829   8.550
 6768POPC   C2B32012  19.053  27.846   8.250
 6768POPC   C3B32013  19.088  27.844   7.950
 6768POPC   C4B32014  19.037  27.803   7.650
 6769POPC   NC332015   5.851  26.046   9.450
 6769POPC   PO432016   5.830  26.047   9.150
 6769POPC   GL132017   5.891  26.081   8.850
 6769POPC   GL232018   5.961  26.056   8.850
 6769POPC   C1A32019   5.822  26.036   8.550
 6769POPC   D2A32020   5.888  26.041   8.250
 6769POPC   C3A32021   5.862  26.014   7.950
 6769POPC   C4A32022   5.843  26.086   7.650
 6769POPC   C1B32023   6.073  25.991   8.550
 6769POPC   C2B32024   6.146  26.078   8.250
 6769POPC   C3B32025   6.100  26.050   7.950
 6769POPC   C4B32026   6.119  26.034   7.650
 6770POPC   NC332027  24.526  27.580   9.450
 6770POPC   PO432028  24.454  27.583   9.150
 6770POPC   GL132029  24.482  27.640   8.850
 6770POPC   GL232030  24.361  27.625   8.850
 6770POPC   C1A32031  24.467  27.594   8.550
 6770POPC   D2A32032  24.516  27.585   8.250
 6770POPC   C3A32033  24.510  27.612   7.950
 6770POPC   C4A32034  24.443  27.570   7.650
 6770POPC   C1B32035  24.319  27.752   8.550
 6770POPC   C2B32036  24.238  27.698   8.250
 6770POPC   C3B32037  24.295  27.709   7.950
 6770POPC   C4B32038  24.302  27.710   7.650
 6771POPC   NC332039   1.992  17.554   9.450
 6771POPC   PO432040   1.955  17.507   9.150
 6771POPC   GL132041   2.006  17.498   8.850
 6771POPC   GL232042   2.151  17.526   8.850
 6771POPC   C1A32043   1.952  17.460   8.550
 6771POPC   D2A32044   1.961  17.498   8.250
 6771POPC   C3A32045   2.031  17.520   7.950
 6771POPC   C4A32046   1.962  17.496   7.650
 6771POPC   C1B32047   2.268  17.628   8.550
 6771POPC   C2B32048   2.174  17.636   8.250
 6771POPC   C3B32049   2.234  17.606   7.950
 6771POPC   C4B32050   2.215  17.603   7.650
 6772POPC   NC332051  44.641  27.636   9.450
 6772POPC   PO432052  44.653  27.603   9.150
 6772POPC   GL132053  44.670  27.554   8.850
 6772POPC   GL232054  44.646  27.438   8.850
 6772POPC   C1A32055  44.657  27.615   8.550
 6772POPC   D2A32056  44.618  27.585   8.250
 6772POPC   C3A32057  44.695  27.625   7.950
 6772POPC   C4A32058  44.614  27.615   7.650
 6772POPC   C1B32059  44.703  27.325   8.550
 6772POPC   C2B32060  44.691  27.355   8.250
 6772POPC   C3B32061  44.679  27.355   7.950
 6772POPC   C4B32062  44.705  27.378   7.650
 6773POPC   NC332063  13.598  17.538   9.450
 6773POPC   PO432064  13.647  17.500   9.150
 6773POPC   GL132065  13.669  17.483   8.850
 6773POPC   GL232066  13.501  17.551   8.850
 6773POPC   C1A32067  13.630  17.547   8.550
 6773POPC   D2A32068  13.601  17.465   8.250
 6773POPC   C3A32069  13.646  17.519   7.950
 6773POPC   C4A32070  13.613  17.521   7.650
 6773POPC   C1B32071  13.420  17.488   8.550
 6773POPC   C2B32072  13.409  17.550   8.250
 6773POPC   C3B32073  13.425  17.537   7.950
 6773POPC   C4B32074  13.400  17.474   7.650
 6774POPC   NC332075  40.007  13.601   9.450
 6774POPC   PO432076  40.048  13.589   9.150
 6774POPC   GL132077  39.968  13.599   8.850
 6774POPC   GL232078  39.969  13.758   8.850
 6774POPC   C1A32079  40.050  13.625   8.550
 6774POPC   D2A32080  40.029  13.580   8.250
 6774POPC   C3A32081  39.977  13.641   7.950
 6774POPC   C4A32082  40.004  13.657   7.650
 6774POPC   C1B32083  39.832  13.823   8.550
 6774POPC   C2B32084  39.871  13.849   8.250
 6774POPC   C3B32085  39.823  13.873   7.950
 6774POPC   C4B32086  39.861  13.860   7.650
 6775POPC   NC332087  41.603  12.110   9.450
 6775POPC   PO432088  41.606  12.074   9.150
 6775POPC   GL132089  41.608  12.096   8.850
 6775POPC   GL232090  41.689  12.055   8.850
 6775POPC   C1A32091  41.605  12.106   8.550
 6775POPC   D2A32092  41.565  12.079   8.250
 6775POPC   C3A32093  41.554  12.058   7.950
 6775POPC   C4A32094  41.538  12.039   7.650
 6775POPC   C1B32095  41.776  12.042   8.550
 6775POPC   C2B32096  41.810  12.041   8.250
 6775POPC   C3B32097  41.830  12.030   7.950
 6775POPC   C4B32098  41.804  12.023   7.650
 6776POPC   NC332099  31.509  33.055   9.450
 6776POPC   PO432100  31.516  33.053   9.150
 6776POPC   GL132101  31.479  32.988   8.850
 6776POPC   GL232102  31.598  32.995   8.850
 6776POPC   C1A32103  31.499  33.035   8.550
 6776POPC   D2A32104  31.461  32.996   8.250
 6776POPC   C3A32105  31.441  33.043   7.950
 6776POPC   C4A32106  31.423  33.030   7.650
 6776POPC   C1B32107  31.712  32.956   8.550
 6776POPC   C2B32108  31.740  32.991   8.250
 6776POPC   C3B32109  31.716  32.955   7.950
 6776POPC   C4B32110  31.703  32.992   7.650
 6777POPC   NC332111   9.792  12.059   9.450
 6777POPC   PO432112   9.709  12.032   9.150
 6777POPC   GL132113   9.732  12.096   8.850
 6777POPC   GL232114   9.799  12.131   8.850
 6777POPC   C1A32115   9.759  12.110   8.550
 6777POPC   D2A32116   9.797  12.031   8.250
 6777POPC   C3A32117   9.795  12.043   7.950
 6777POPC   C4A32118   9.789  12.117   7.650
 6777POPC   C1B32119   9.859  12.271   8.550
 6777POPC   C2B32120   9.915  12.264   8.250
 6777POPC   C3B32121   9.896  12.251   7.950
 6777POPC   C4B32122   9.913  12.293   7.650
 6778POPC   NC332123  43.882  11.342   9.450
 6778POPC   PO432124  43.887  11.265   9.150
 6778POPC   GL132125  43.894  11.265   8.850
 6778POPC   GL232126  44.045  11.320   8.850
 6778POPC   C1A32127  43.924  11.326   8.550
 6778POPC   D2A32128  43.923  11.259   8.250
 6778POPC   C3A32129  43.838  11.317   7.950
 6778POPC   C4A32130  43.839  11.277   7.650
 6778POPC   C1B32131  44.122  11.321   8.550
 6778POPC   C2B32132  44.087  11.317   8.250
 6778POPC   C3B32133  44.143  11.336   7.950
 6778POPC   C4B32134  44.112  11.326   7.650
 6779POPC   NC332135   1.996  39.257   9.450
 6779POPC   PO432136   2.015  39.264   9.150
 6779POPC   GL132137   2.002  39.247   8.850
 6779POPC   GL232138   2.101  39.166   8.850
 6779POPC   C1A32139   1.954  39.246   8.550
 6779POPC   D2A32140   1.977  39.190   8.250
 6779POPC   C3A32141   1.969  39.225   7.950
 6779POPC   C4A32142   1.941  39.235   7.650
 6779POPC   C1B32143   2.194  39.067   8.550
 6779POPC   C2B32144   2.195  39.039   8.250
 6779POPC   C3B32145   2.204  39.092   7.950
 6779POPC   C4B32146   2.123  39.101   7.650
 6780POPC   NC332147  42.364  39.224   9.450
 6780POPC   PO432148  42.383  39.203   9.150
 6780POPC   GL132149  42.355  39.231   8.850
 6780POPC   GL232150  42.271  39.319   8.850
 6780POPC   C1A32151  42.305  39.225   8.550
 6780POPC   D2A32152  42.346  39.199   8.250
 6780POPC   C3A32153  42.364  39.199   7.950
 6780POPC   C4A32154  42.363  39.223   7.650
 6780POPC   C1B32155  42.120  39.332   8.550
 6780POPC   C2B32156  42.176  39.355   8.250
 6780POPC   C3B32157  42.171  39.387   7.950
 6780POPC   C4B32158  42.104  39.395   7.650
 6781POPC   NC332159  29.158   0.418   9.450
 6781POPC   PO432160  29.178   0.445   9.150
 6781POPC   GL132161  29.108   0.388   8.850
 6781POPC   GL232162  29.261   0.507   8.850
 6781POPC   C1A32163  29.186   0.428   8.550
 6781POPC   D2A32164  29.107   0.418   8.250
 6781POPC   C3A32165  29.121   0.455   7.950
 6781POPC   C4A32166  29.182   0.395   7.650
 6781POPC   C1B32167  29.340   0.533   8.550
 6781POPC   C2B32168  29.347   0.531   8.250
 6781POPC   C3B32169  29.338   0.539   7.950
 6781POPC   C4B32170  29.417   0.498   7.650
 6782POPC   NC332171   5.089   7.448   9.450
 6782POPC   PO432172   5.076   7.437   9.150
 6782POPC   GL132173   5.045   7.406   8.850
 6782POPC   GL232174   5.107   7.268   8.850
 6782POPC   C1A32175   5.055   7.424   8.550
 6782POPC   D2A32176   5.068   7.385   8.250
 6782POPC   C3A32177   5.070   7.383   7.950
 6782POPC   C4A32178   5.136   7.435   7.650
 6782POPC   C1B32179   5.145   7.182   8.550
 6782POPC   C2B32180   5.179   7.175   8.250
 6782POPC   C3B32181   5.156   7.190   7.950
 6782POPC   C4B32182   5.207   7.190   7.650
 6783POPC   NC332183  32.284  16.741   9.450
 6783POPC   PO432184  32.203  16.749   9.150
 6783POPC   GL132185  32.206  16.762   8.850
 6783POPC   GL232186  32.289  16.671   8.850
 6783POPC   C1A32187  32.296  16.696   8.550
 6783POPC   D2A32188  32.199  16.712   8.250
 6783POPC   C3A32189  32.226  16.724   7.950
 6783POPC   C4A32190  32.211  16.778   7.650
 6783POPC   C1B32191  32.409  16.563   8.550
 6783POPC   C2B32192  32.381  16.556   8.250
 6783POPC   C3B32193  32.381  16.532   7.950
 6783POPC   C4B32194  32.439  16.556   7.650
 6784POPC   NC332195  42.354  24.500   9.450
 6784POPC   PO432196  42.299  24.494   9.150
 6784POPC   GL132197  42.291  24.539   8.850
 6784POPC   GL232198  42.225  24.528   8.850
 6784POPC   C1A32199  42.373  24.487   8.550
 6784POPC   D2A32200  42.294  24.481   8.250
 6784POPC   C3A32201  42.361  24.533   7.950
 6784POPC   C4A32202  42.339  24.446   7.650
 6784POPC   C1B32203  42.117  24.600   8.550
 6784POPC   C2B32204  42.084  24.596   8.250
 6784POPC   C3B32205  42.113  24.574   7.950
 6784POPC   C4B32206  42.099  24.556   7.650
 6785POPC   NC332207  12.864   5.835   9.450
 6785POPC   PO432208  12.851   5.863   9.150
 6785POPC   GL132209  12.884   5.838   8.850
 6785POPC   GL232210  12.700   5.845   8.850
 6785POPC   C1A32211  12.892   5.873   8.550
 6785POPC   D2A32212  12.835   5.822   8.250
 6785POPC   C3A32213  12.824   5.909   7.950
 6785POPC   C4A32214  12.840   5.845   7.650
 6785POPC   C1B32215  12.628   5.846   8.550
 6785POPC   C2B32216  12.601   5.876   8.250
 6785POPC   C3B32217  12.580   5.926   7.950
 6785POPC   C4B32218  12.595   5.867   7.650
 6786POPC   NC332219  12.881  26.794   9.450
 6786POPC   PO432220  12.828  26.852   9.150
 6786POPC   GL132221  12.845  26.784   8.850
 6786POPC   GL232222  12.792  26.965   8.850
 6786POPC   C1A32223  12.811  26.834   8.550
 6786POPC   D2A32224  12.900  26.777   8.250
 6786POPC   C3A32225  12.809  26.836   7.950
 6786POPC   C4A32226  12.810  26.865   7.650
 6786POPC   C1B32227  12.804  27.026   8.550
 6786POPC   C2B32228  12.803  27.039   8.250
 6786POPC   C3B32229  12.822  27.069   7.950
 6786POPC   C4B32230  12.778  27.100   7.650
 6787POPC   NC332231  44.652  28.326   9.450
 6787POPC   PO432232  44.618  28.346   9.150
 6787POPC   GL132233  44.647  28.334   8.850
 6787POPC   GL232234  44.507  28.431   8.850
 6787POPC   C1A32235  44.648  28.374   8.550
 6787POPC   D2A32236  44.670  28.332   8.250
 6787POPC   C3A32237  44.699  28.417   7.950
 6787POPC   C4A32238  44.656  28.342   7.650
 6787POPC   C1B32239  44.438  28.499   8.550
 6787POPC   C2B32240  44.470  28.528   8.250
 6787POPC   C3B32241  44.464  28.521   7.950
 6787POPC   C4B32242  44.481  28.456   7.650
 6788POPC   NC332243  42.350  12.071   9.450
 6788POPC   PO432244  42.377  12.088   9.150
 6788POPC   GL132245  42.359  12.069   8.850
 6788POPC   GL232246  42.495  12.057   8.850
 6788POPC   C1A32247  42.291  12.035   8.550
 6788POPC   D2A32248  42.289  12.066   8.250
 6788POPC   C3A32249  42.318  12.094   7.950
 6788POPC   C4A32250  42.315  12.064   7.650
 6788POPC   C1B32251  42.570  11.991   8.550
 6788POPC   C2B32252  42.605  11.969   8.250
 6788POPC   C3B32253  42.610  12.017   7.950
 6788POPC   C4B32254  42.522  11.962   7.650
 6789POPC   NC332255  22.145   2.029   9.450
 6789POPC   PO432256  22.119   1.953   9.150
 6789POPC   GL132257  22.208   1.977   8.850
 6789POPC   GL232258  22.287   1.952   8.850
 6789POPC   C1A32259  22.129   1.949   8.550
 6789POPC   D2A32260  22.172   1.979   8.250
 6789POPC   C3A32261  22.128   2.010   7.950
 6789POPC   C4A32262  22.142   1.969   7.650
 6789POPC   C1B32263  22.325   1.789   8.550
 6789POPC   C2B32264  22.372   1.856   8.250
 6789POPC   C3B32265  22.377   1.780   7.950
 6789POPC   C4B32266  22.391   1.774   7.650
 6790POPC   NC332267  31.446  32.249   9.450
 6790POPC   PO432268  31.442  32.219   9.150
 6790POPC   GL132269  31.521  32.249   8.850
 6790POPC   GL232270  31.622  32.284   8.850
 6790POPC   C1A32271  31.459  32.271   8.550
 6790POPC   D2A32272  31.429  32.230   8.250
 6790POPC   C3A32273  31.476  32.277   7.950
 6790POPC   C4A32274  31.496  32.267   7.650
 6790POPC   C1B32275  31.714  32.368   8.550
 6790POPC   C2B32276  31.695  32.387   8.250
 6790POPC   C3B32277  31.704  32.375   7.950
 6790POPC   C4B32278  31.722  32.378   7.650
 6791POPC   NC332279  11.301   8.972   9.450
 6791POPC   PO432280  11.283   9.004   9.150
 6791POPC   GL132281  11.275   9.014   8.850
 6791POPC   GL232282  11.275   8.835   8.850
 6791POPC   C1A32283  11.282   8.948   8.550
 6791POPC   D2A32284  11.261   9.000   8.250
 6791POPC   C3A32285  11.274   8.991   7.950
 6791POPC   C4A32286  11.326   9.000   7.650
 6791POPC   C1B32287  11.346   8.734   8.550
 6791POPC   C2B32288  11.346   8.768   8.250
 6791POPC   C3B32289  11.296   8.698   7.950
 6791POPC   C4B32290  11.302   8.705   7.650
 6792POPC   NC332291  36.941  33.835   9.450
 6792POPC   PO432292  36.907  33.781   9.150
 6792POPC   GL132293  36.909  33.783   8.850
 6792POPC   GL232294  36.962  33.930   8.850
 6792POPC   C1A32295  36.922  33.818   8.550
 6792POPC   D2A32296  36.865  33.754   8.250
 6792POPC   C3A32297  36.893  33.850   7.950
 6792POPC   C4A32298  36.894  33.817   7.650
 6792POPC   C1B32299  37.023  34.048   8.550
 6792POPC   C2B32300  37.068  34.015   8.250
 6792POPC   C3B32301  36.993  33.968   7.950
 6792POPC   C4B32302  37.046  34.049   7.650
 6793POPC   NC332303  18.254   5.856   9.450
 6793POPC   PO432304  18.280   5.901   9.150
 6793POPC   GL132305  18.270   5.846   8.850
 6793POPC   GL232306  18.191   5.972   8.850
 6793POPC   C1A32307  18.327   5.909   8.550
 6793POPC   D2A32308  18.326   5.862   8.250
 6793POPC   C3A32309  18.261   5.898   7.950
 6793POPC   C4A32310  18.307   5.843   7.650
 6793POPC   C1B32311  18.107   5.989   8.550
 6793POPC   C2B32312  18.049   6.058   8.250
 6793POPC   C3B32313  18.109   6.045   7.950
 6793POPC   C4B32314  18.070   5.963   7.650
 6794POPC   NC332315   5.137   6.619   9.450
 6794POPC   PO432316   5.111   6.654   9.150
 6794POPC   GL132317   5.076   6.614   8.850
 6794POPC   GL232318   5.024   6.796   8.850
 6794POPC   C1A32319   5.095   6.687   8.550
 6794POPC   D2A32320   5.111   6.618   8.250
 6794POPC   C3A32321   5.127   6.654   7.950
 6794POPC   C4A32322   5.073   6.610   7.650
 6794POPC   C1B32323   5.021   6.868   8.550
 6794POPC   C2B32324   5.022   6.932   8.250
 6794POPC   C3B32325   4.986   6.900   7.950
 6794POPC   C4B32326   5.057   6.877   7.650
 6795POPC   NC332327  33.809  12.046   9.450
 6795POPC   PO432328  33.825  12.058   9.150
 6795POPC   GL132329  33.800  12.094   8.850
 6795POPC   GL232330  33.743  11.942   8.850
 6795POPC   C1A32331  33.756  12.092   8.550
 6795POPC   D2A32332  33.822  12.094   8.250
 6795POPC   C3A32333  33.768  12.049   7.950
 6795POPC   C4A32334  33.762  12.038   7.650
 6795POPC   C1B32335  33.644  11.868   8.550
 6795POPC   C2B32336  33.665  11.850   8.250
 6795POPC   C3B32337  33.624  11.908   7.950
 6795POPC   C4B32338  33.661  11.900   7.650
 6796POPC   NC332339   4.289  29.159   9.450
 6796POPC   PO432340   4.367  29.157   9.150
 6796POPC   GL132341   4.280  29.186   8.850
 6796POPC   GL232342   4.229  29.204   8.850
 6796POPC   C1A32343   4.358  29.167   8.550
 6796POPC   D2A32344   4.268  29.189   8.250
 6796POPC   C3A32345   4.358  29.149   7.950
 6796POPC   C4A32346   4.327  29.190   7.650
 6796POPC   C1B32347   4.186  29.360   8.550
 6796POPC   C2B32348   4.102  29.358   8.250
 6796POPC   C3B32349   4.149  29.299   7.950
 6796POPC   C4B32350   4.094  29.280   7.650
 6797POPC   NC332351  33.843  43.112   9.450
 6797POPC   PO432352  33.792  43.151   9.150
 6797POPC   GL132353  33.811  43.120   8.850
 6797POPC   GL232354  33.911  43.112   8.850
 6797POPC   C1A32355  33.762  43.139   8.550
 6797POPC   D2A32356  33.846  43.112   8.250
 6797POPC   C3A32357  33.790  43.156   7.950
 6797POPC   C4A32358  33.787  43.130   7.650
 6797POPC   C1B32359  34.055  43.199   8.550
 6797POPC   C2B32360  34.034  43.239   8.250
 6797POPC   C3B32361  34.062  43.224   7.950
 6797POPC   C4B32362  34.014  43.255   7.650
 6798POPC   NC332363  22.982   1.947   9.450
 6798POPC   PO432364  22.941   1.989   9.150
 6798POPC   GL132365  22.891   1.971   8.850
 6798POPC   GL232366  23.049   1.952   8.850
 6798POPC   C1A32367  22.903   1.956   8.550
 6798POPC   D2A32368  22.966   1.949   8.250
 6798POPC   C3A32369  22.891   1.986   7.950
 6798POPC   C4A32370  22.948   1.982   7.650
 6798POPC   C1B32371  23.165   1.848   8.550
 6798POPC   C2B32372  23.167   1.818   8.250
 6798POPC   C3B32373  23.105   1.839   7.950
 6798POPC   C4B32374  23.166   1.837   7.650
 6799POPC   NC332375  15.177  34.547   9.450
 6799POPC   PO432376  15.208  34.565   9.150
 6799POPC   GL132377  15.178  34.533   8.850
 6799POPC   GL232378  15.165  34.715   8.850
 6799POPC   C1A32379  15.182  34.621   8.550
 6799POPC   D2A32380  15.131  34.602   8.250
 6799POPC   C3A32381  15.211  34.538   7.950
 6799POPC   C4A32382  15.215  34.619   7.650
 6799POPC   C1B32383  15.210  34.805   8.550
 6799POPC   C2B32384  15.204  34.782   8.250
 6799POPC   C3B32385  15.169  34.845   7.950
 6799POPC   C4B32386  15.154  34.780   7.650
 6800POPC   NC332387  26.798  27.576   9.450
 6800POPC   PO432388  26.779  27.625   9.150
 6800POPC   GL132389  26.828  27.560   8.850
 6800POPC   GL232390  26.928  27.527   8.850
 6800POPC   C1A32391  26.798  27.584   8.550
 6800POPC   D2A32392  26.808  27.585   8.250
 6800POPC   C3A32393  26.769  27.620   7.950
 6800POPC   C4A32394  26.802  27.626   7.650
 6800POPC   C1B32395  26.940  27.371   8.550
 6800POPC   C2B32396  26.957  27.428   8.250
 6800POPC   C3B32397  26.939  27.427   7.950
 6800POPC   C4B32398  26.922  27.347   7.650
 6801POPC   NC332399  23.744  38.466   9.450
 6801POPC   PO432400  23.685  38.496   9.150
 6801POPC   GL132401  23.676  38.463   8.850
 6801POPC   GL232402  23.614  38.386   8.850
 6801POPC   C1A32403  23.693  38.451   8.550
 6801POPC   D2A32404  23.698  38.434   8.250
 6801POPC   C3A32405  23.755  38.440   7.950
 6801POPC   C4A32406  23.730  38.495   7.650
 6801POPC   C1B32407  23.623  38.286   8.550
 6801POPC   C2B32408  23.585  38.193   8.250
 6801POPC   C3B32409  23.566  38.286   7.950
 6801POPC   C4B32410  23.538  38.211   7.650
 6802POPC   NC332411  28.359  35.330   9.450
 6802POPC   PO432412  28.344  35.358   9.150
 6802POPC   GL132413  28.404  35.352   8.850
 6802POPC   GL232414  28.511  35.290   8.850
 6802POPC   C1A32415  28.401  35.310   8.550
 6802POPC   D2A32416  28.335  35.393   8.250
 6802POPC   C3A32417  28.409  35.365   7.950
 6802POPC   C4A32418  28.401  35.344   7.650
 6802POPC   C1B32419  28.558  35.282   8.550
 6802POPC   C2B32420  28.615  35.221   8.250
 6802POPC   C3B32421  28.627  35.219   7.950
 6802POPC   C4B32422  28.581  35.222   7.650
 6803POPC   NC332423  43.866  24.524   9.450
 6803POPC   PO432424  43.840  24.458   9.150
 6803POPC   GL132425  43.866  24.482   8.850
 6803POPC   GL232426  43.960  24.636   8.850
 6803POPC   C1A32427  43.843  24.522   8.550
 6803POPC   D2A32428  43.915  24.532   8.250
 6803POPC   C3A32429  43.912  24.469   7.950
 6803POPC   C4A32430  43.844  24.527   7.650
 6803POPC   C1B32431  43.951  24.766   8.550
 6803POPC   C2B32432  43.966  24.682   8.250
 6803POPC   C3B32433  43.920  24.740   7.950
 6803POPC   C4B32434  43.987  24.718   7.650
 6804POPC   NC332435  27.575  34.556   9.450
 6804POPC   PO432436  27.573  34.596   9.150
 6804POPC   GL132437  27.577  34.557   8.850
 6804POPC   GL232438  27.514  34.409   8.850
 6804POPC   C1A32439  27.551  34.589   8.550
 6804POPC   D2A32440  27.615  34.545   8.250
 6804POPC   C3A32441  27.596  34.536   7.950
 6804POPC   C4A32442  27.608  34.543   7.650
 6804POPC   C1B32443  27.477  34.359   8.550
 6804POPC   C2B32444  27.490  34.379   8.250
 6804POPC   C3B32445  27.486  34.364   7.950
 6804POPC   C4B32446  27.508  34.372   7.650
 6805POPC   NC332447  36.885   8.945   9.450
 6805POPC   PO432448  36.879   8.948   9.150
 6805POPC   GL132449  36.901   8.927   8.850
 6805POPC   GL232450  36.915   8.897   8.850
 6805POPC   C1A32451  36.913   8.956   8.550
 6805POPC   D2A32452  36.911   8.971   8.250
 6805POPC   C3A32453  36.952   8.925   7.950
 6805POPC   C4A32454  36.878   8.954   7.650
 6805POPC   C1B32455  36.907   8.694   8.550
 6805POPC   C2B32456  36.929   8.774   8.250
 6805POPC   C3B32457  36.908   8.689   7.950
 6805POPC   C4B32458  36.940   8.730   7.650
 6806POPC   NC332459  13.663   2.723   9.450
 6806POPC   PO432460  13.623   2.728   9.150
 6806POPC   GL132461  13.669   2.755   8.850
 6806POPC   GL232462  13.681   2.898   8.850
 6806POPC   C1A32463  13.661   2.717   8.550
 6806POPC   D2A32464  13.618   2.736   8.250
 6806POPC   C3A32465  13.605   2.813   7.950
 6806POPC   C4A32466  13.590   2.726   7.650
 6806POPC   C1B32467  13.781   2.916   8.550
 6806POPC   C2B32468  13.801   2.985   8.250
 6806POPC   C3B32469  13.766   2.938   7.950
 6806POPC   C4B32470  13.770   2.918   7.650
 6807POPC   NC332471  26.779   8.239   9.450
 6807POPC   PO432472  26.867   8.238   9.150
 6807POPC   GL132473  26.835   8.191   8.850
 6807POPC   GL232474  26.903   8.279   8.850
 6807POPC   C1A32475  26.796   8.149   8.550
 6807POPC   D2A32476  26.832   8.244   8.250
 6807POPC   C3A32477  26.784   8.148   7.950
 6807POPC   C4A32478  26.781   8.191   7.650
 6807POPC   C1B32479  27.049   8.379   8.550
 6807POPC   C2B32480  27.009   8.369   8.250
 6807POPC   C3B32481  27.003   8.382   7.950
 6807POPC   C4B32482  27.040   8.384   7.650
 6808POPC   NC332483  20.598  24.537   9.450
 6808POPC   PO432484  20.629  24.477   9.150
 6808POPC   GL132485  20.623  24.455   8.850
 6808POPC   GL232486  20.731  24.440   8.850
 6808POPC   C1A32487  20.569  24.482   8.550
 6808POPC   D2A32488  20.582  24.482   8.250
 6808POPC   C3A32489  20.618  24.487   7.950
 6808POPC   C4A32490  20.570  24.529   7.650
 6808POPC   C1B32491  20.778  24.296   8.550
 6808POPC   C2B32492  20.771  24.308   8.250
 6808POPC   C3B32493  20.732  24.332   7.950
 6808POPC   C4B32494  20.759  24.256   7.650
 6809POPC   NC332495  13.672  31.494   9.450
 6809POPC   PO432496  13.625  31.497   9.150
 6809POPC   GL132497  13.651  31.468   8.850
 6809POPC   GL232498  13.465  31.547   8.850
 6809POPC   C1A32499  13.610  31.472   8.550
 6809POPC   D2A32500  13.639  31.508   8.250
 6809POPC   C3A32501  13.660  31.511   7.950
 6809POPC   C4A32502  13.579  31.437   7.650
 6809POPC   C1B32503  13.436  31.585   8.550
 6809POPC   C2B32504  13.429  31.550   8.250
 6809POPC   C3B32505  13.424  31.568   7.950
 6809POPC   C4B32506  13.345  31.586   7.650
 6810POPC   NC332507   4.349  15.999   9.450
 6810POPC   PO432508   4.300  15.943   9.150
 6810POPC   GL132509   4.273  16.001   8.850
 6810POPC   GL232510   4.283  16.071   8.850
 6810POPC   C1A32511   4.341  15.966   8.550
 6810POPC   D2A32512   4.318  15.911   8.250
 6810POPC   C3A32513   4.366  15.957   7.950
 6810POPC   C4A32514   4.328  15.918   7.650
 6810POPC   C1B32515   4.201  16.226   8.550
 6810POPC   C2B32516   4.216  16.228   8.250
 6810POPC   C3B32517   4.255  16.206   7.950
 6810POPC   C4B32518   4.234  16.153   7.650
 6811POPC   NC332519  16.729   9.772   9.450
 6811POPC   PO432520  16.684   9.749   9.150
 6811POPC   GL132521  16.722   9.745   8.850
 6811POPC   GL232522  16.785   9.804   8.850
 6811POPC   C1A32523  16.705   9.707   8.550
 6811POPC   D2A32524  16.758   9.769   8.250
 6811POPC   C3A32525  16.716   9.715   7.950
 6811POPC   C4A32526  16.690   9.798   7.650
 6811POPC   C1B32527  16.859   9.951   8.550
 6811POPC   C2B32528  16.926   9.952   8.250
 6811POPC   C3B32529  16.851   9.906   7.950
 6811POPC   C4B32530  16.868   9.918   7.650
 6812POPC   NC332531  17.505   3.525   9.450
 6812POPC   PO432532  17.489   3.527   9.150
 6812POPC   GL132533  17.463   3.492   8.850
 6812POPC   GL232534  17.416   3.407   8.850
 6812POPC   C1A32535  17.485   3.542   8.550
 6812POPC   D2A32536  17.511   3.565   8.250
 6812POPC   C3A32537  17.484   3.524   7.950
 6812POPC   C4A32538  17.548   3.551   7.650
 6812POPC   C1B32539  17.304   3.401   8.550
 6812POPC   C2B32540  17.276   3.340   8.250
 6812POPC   C3B32541  17.324   3.367   7.950
 6812POPC   C4B32542  17.292   3.330   7.650
 6813POPC   NC332543  26.003  29.885   9.450
 6813POPC   PO432544  26.052  29.915   9.150
 6813POPC   GL132545  26.084  29.881   8.850
 6813POPC   GL232546  26.076  30.057   8.850
 6813POPC   C1A32547  26.072  29.949   8.550
 6813POPC   D2A32548  26.020  29.876   8.250
 6813POPC   C3A32549  26.091  29.874   7.950
 6813POPC   C4A32550  25.998  29.935   7.650
 6813POPC   C1B32551  26.190  30.104   8.550
 6813POPC   C2B32552  26.198  30.127   8.250
 6813POPC   C3B32553  26.176  30.094   7.950
 6813POPC   C4B32554  26.216  30.147   7.650
 6814POPC   NC332555   1.983   2.756   9.450
 6814POPC   PO432556   2.001   2.732   9.150
 6814POPC   GL132557   2.034   2.782   8.850
 6814POPC   GL232558   1.965   2.675   8.850
 6814POPC   C1A32559   1.996   2.769   8.550
 6814POPC   D2A32560   1.947   2.791   8.250
 6814POPC   C3A32561   1.963   2.801   7.950
 6814POPC   C4A32562   1.947   2.808   7.650
 6814POPC   C1B32563   1.908   2.553   8.550
 6814POPC   C2B32564   1.917   2.500   8.250
 6814POPC   C3B32565   1.893   2.541   7.950
 6814POPC   C4B32566   1.845   2.577   7.650
 6815POPC   NC332567   2.801   9.796   9.450
 6815POPC   PO432568   2.754   9.729   9.150
 6815POPC   GL132569   2.768   9.787   8.850
 6815POPC   GL232570   2.710   9.649   8.850
 6815POPC   C1A32571   2.744   9.707   8.550
 6815POPC   D2A32572   2.725   9.707   8.250
 6815POPC   C3A32573   2.795   9.703   7.950
 6815POPC   C4A32574   2.765   9.720   7.650
 6815POPC   C1B32575   2.680   9.560   8.550
 6815POPC   C2B32576   2.596   9.577   8.250
 6815POPC   C3B32577   2.636   9.539   7.950
 6815POPC   C4B32578   2.656   9.502   7.650
 6816POPC   NC332579  43.917   1.212   9.450
 6816POPC   PO432580  43.851   1.174   9.150
 6816POPC   GL132581  43.841   1.185   8.850
 6816POPC   GL232582  43.839   1.307   8.850
 6816POPC   C1A32583  43.932   1.180   8.550
 6816POPC   D2A32584  43.846   1.214   8.250
 6816POPC   C3A32585  43.904   1.209   7.950
 6816POPC   C4A32586  43.847   1.212   7.650
 6816POPC   C1B32587  43.793   1.457   8.550
 6816POPC   C2B32588  43.780   1.437   8.250
 6816POPC   C3B32589  43.730   1.392   7.950
 6816POPC   C4B32590  43.729   1.415   7.650
 6817POPC   NC332591  39.248   9.017   9.450
 6817POPC   PO432592  39.207   9.005   9.150
 6817POPC   GL132593  39.240   8.942   8.850
 6817POPC   GL232594  39.236   9.051   8.850
 6817POPC   C1A32595  39.211   8.971   8.550
 6817POPC   D2A32596  39.205   8.990   8.250
 6817POPC   C3A32597  39.233   8.957   7.950
 6817POPC   C4A32598  39.189   8.970   7.650
 6817POPC   C1B32599  39.335   9.180   8.550
 6817POPC   C2B32600  39.369   9.240   8.250
 6817POPC   C3B32601  39.335   9.179   7.950
 6817POPC   C4B32602  39.316   9.220   7.650
 6818POPC   NC332603   9.782  26.781   9.450
 6818POPC   PO432604   9.719  26.823   9.150
 6818POPC   GL132605   9.753  26.797   8.850
 6818POPC   GL232606   9.735  26.749   8.850
 6818POPC   C1A32607   9.725  26.858   8.550
 6818POPC   D2A32608   9.781  26.801   8.250
 6818POPC   C3A32609   9.760  26.809   7.950
 6818POPC   C4A32610   9.718  26.862   7.650
 6818POPC   C1B32611   9.614  26.609   8.550
 6818POPC   C2B32612   9.590  26.602   8.250
 6818POPC   C3B32613   9.600  26.624   7.950
 6818POPC   C4B32614   9.635  26.642   7.650
 6819POPC   NC332615  30.678  21.406   9.450
 6819POPC   PO432616  30.741  21.430   9.150
 6819POPC   GL132617  30.704  21.378   8.850
 6819POPC   GL232618  30.559  21.445   8.850
 6819POPC   C1A32619  30.675  21.354   8.550
 6819POPC   D2A32620  30.735  21.425   8.250
 6819POPC   C3A32621  30.690  21.363   7.950
 6819POPC   C4A32622  30.657  21.418   7.650
 6819POPC   C1B32623  30.503  21.516   8.550
 6819POPC   C2B32624  30.475  21.462   8.250
 6819POPC   C3B32625  30.465  21.499   7.950
 6819POPC   C4B32626  30.446  21.507   7.650
 6820POPC   NC332627  12.855  28.330   9.450
 6820POPC   PO432628  12.829  28.338   9.150
 6820POPC   GL132629  12.888  28.362   8.850
 6820POPC   GL232630  12.937  28.341   8.850
 6820POPC   C1A32631  12.826  28.388   8.550
 6820POPC   D2A32632  12.829  28.329   8.250
 6820POPC   C3A32633  12.883  28.364   7.950
 6820POPC   C4A32634  12.813  28.356   7.650
 6820POPC   C1B32635  13.150  28.399   8.550
 6820POPC   C2B32636  13.132  28.399   8.250
 6820POPC   C3B32637  13.086  28.340   7.950
 6820POPC   C4B32638  13.059  28.325   7.650
 6821POPC   NC332639  19.806  19.826   9.450
 6821POPC   PO432640  19.844  19.787   9.150
 6821POPC   GL132641  19.847  19.865   8.850
 6821POPC   GL232642  19.796  19.723   8.850
 6821POPC   C1A32643  19.790  19.793   8.550
 6821POPC   D2A32644  19.803  19.785   8.250
 6821POPC   C3A32645  19.803  19.852   7.950
 6821POPC   C4A32646  19.799  19.804   7.650
 6821POPC   C1B32647  19.820  19.543   8.550
 6821POPC   C2B32648  19.819  19.570   8.250
 6821POPC   C3B32649  19.852  19.587   7.950
 6821POPC   C4B32650  19.813  19.550   7.650
 6822POPC   NC332651  26.822  31.493   9.450
 6822POPC   PO432652  26.843  31.470   9.150
 6822POPC   GL132653  26.814  31.448   8.850
 6822POPC   GL232654  26.783  31.383   8.850
 6822POPC   C1A32655  26.842  31.442   8.550
 6822POPC   D2A32656  26.788  31.518   8.250
 6822POPC   C3A32657  26.806  31.423   7.950
 6822POPC   C4A32658  26.782  31.486   7.650
 6822POPC   C1B32659  26.886  31.272   8.550
 6822POPC   C2B32660  26.884  31.254   8.250
 6822POPC   C3B32661  26.819  31.191   7.950
 6822POPC   C4B32662  26.837  31.208   7.650
 6823POPC   NC332663  26.060  37.682   9.450
 6823POPC   PO432664  26.014  37.632   9.150
 6823POPC   GL132665  26.076  37.666   8.850
 6823POPC   GL232666  26.121  37.589   8.850
 6823POPC   C1A32667  26.004  37.714   8.550
 6823POPC   D2A32668  26.082  37.691   8.250
 6823POPC   C3A32669  26.054  37.653   7.950
 6823POPC   C4A32670  26.073  37.710   7.650
 6823POPC   C1B32671  26.095  37.481   8.550
 6823POPC   C2B32672  26.093  37.462   8.250
 6823POPC   C3B32673  26.161  37.418   7.950
 6823POPC   C4B32674  26.118  37.425   7.650
 6824POPC   NC332675  25.293   7.438   9.450
 6824POPC   PO432676  25.232   7.419   9.150
 6824POPC   GL132677  25.260   7.421   8.850
 6824POPC   GL232678  25.122   7.335   8.850
 6824POPC   C1A32679  25.270   7.390   8.550
 6824POPC   D2A32680  25.243   7.373   8.250
 6824POPC   C3A32681  25.251   7.424   7.950
 6824POPC   C4A32682  25.254   7.412   7.650
 6824POPC   C1B32683  25.018   7.289   8.550
 6824POPC   C2B32684  25.054   7.307   8.250
 6824POPC   C3B32685  25.098   7.324   7.950
 6824POPC   C4B32686  25.010   7.271   7.650
 6825POPC   NC332687   2.736   2.775   9.450
 6825POPC   PO432688   2.719   2.740   9.150
 6825POPC   GL132689   2.805   2.755   8.850
 6825POPC   GL232690   2.723   2.683   8.850
 6825POPC   C1A32691   2.735   2.757   8.550
 6825POPC   D2A32692   2.767   2.797   8.250
 6825POPC   C3A32693   2.795   2.742   7.950
 6825POPC   C4A32694   2.740   2.749   7.650
 6825POPC   C1B32695   2.771   2.536   8.550
 6825POPC   C2B32696   2.721   2.548   8.250
 6825POPC   C3B32697   2.761   2.525   7.950
 6825POPC   C4B32698   2.729   2.490   7.650
 6826POPC   NC332699  43.921  36.907   9.450
 6826POPC   PO432700  43.928  36.931   9.150
 6826POPC   GL132701  43.867  36.898   8.850
 6826POPC   GL232702  43.950  36.958   8.850
 6826POPC   C1A32703  43.838  36.942   8.550
 6826POPC   D2A32704  43.901  36.865   8.250
 6826POPC   C3A32705  43.898  36.922   7.950
 6826POPC   C4A32706  43.846  36.877   7.650
 6826POPC   C1B32707  44.124  36.978   8.550
 6826POPC   C2B32708  44.144  37.042   8.250
 6826POPC   C3B32709  44.124  36.993   7.950
 6826POPC   C4B32710  44.065  36.979   7.650
 6827POPC   NC332711  40.762   9.709   9.450
 6827POPC   PO432712  40.813   9.731   9.150
 6827POPC   GL132713  40.761   9.796   8.850
 6827POPC   GL232714  40.775   9.840   8.850
 6827POPC   C1A32715  40.771   9.723   8.550
 6827POPC   D2A32716  40.767   9.716   8.250
 6827POPC   C3A32717  40.793   9.709   7.950
 6827POPC   C4A32718  40.748   9.710   7.650
 6827POPC   C1B32719  40.751   9.986   8.550
 6827POPC   C2B32720  40.695   9.948   8.250
 6827POPC   C3B32721  40.701  10.016   7.950
 6827POPC   C4B32722  40.693   9.984   7.650
 6828POPC   NC332723  36.862  43.133   9.450
 6828POPC   PO432724  36.891  43.100   9.150
 6828POPC   GL132725  36.931  43.064   8.850
 6828POPC   GL232726  36.737  43.050   8.850
 6828POPC   C1A32727  36.918  43.074   8.550
 6828POPC   D2A32728  36.895  43.063   8.250
 6828POPC   C3A32729  36.949  43.072   7.950
 6828POPC   C4A32730  36.944  43.105   7.650
 6828POPC   C1B32731  36.659  43.099   8.550
 6828POPC   C2B32732  36.708  43.089   8.250
 6828POPC   C3B32733  36.625  43.075   7.950
 6828POPC   C4B32734  36.610  43.023   7.650
 6829POPC   NC332735  12.040  19.085   9.450
 6829POPC   PO432736  12.055  19.045   9.150
 6829POPC   GL132737  12.045  19.069   8.850
 6829POPC   GL232738  12.106  19.226   8.850
 6829POPC   C1A32739  12.028  19.075   8.550
 6829POPC   D2A32740  12.111  19.077   8.250
 6829POPC   C3A32741  12.114  19.081   7.950
 6829POPC   C4A32742  12.064  19.088   7.650
 6829POPC   C1B32743  12.066  19.320   8.550
 6829POPC   C2B32744  12.001  19.336   8.250
 6829POPC   C3B32745  12.061  19.326   7.950
 6829POPC   C4B32746  12.088  19.294   7.650
 6830POPC   NC332747  26.770  37.653   9.450
 6830POPC   PO432748  26.847  37.649   9.150
 6830POPC   GL132749  26.773  37.646   8.850
 6830POPC   GL232750  26.939  37.641   8.850
 6830POPC   C1A32751  26.804  37.642   8.550
 6830POPC   D2A32752  26.803  37.696   8.250
 6830POPC   C3A32753  26.846  37.727   7.950
 6830POPC   C4A32754  26.842  37.653   7.650
 6830POPC   C1B32755  27.007  37.483   8.550
 6830POPC   C2B32756  27.046  37.473   8.250
 6830POPC   C3B32757  26.999  37.468   7.950
 6830POPC   C4B32758  26.977  37.503   7.650
 6831POPC   NC332759  26.001   6.635   9.450
 6831POPC   PO432760  26.028   6.687   9.150
 6831POPC   GL132761  26.076   6.675   8.850
 6831POPC   GL232762  25.970   6.482   8.850
 6831POPC   C1A32763  26.086   6.663   8.550
 6831POPC   D2A32764  26.078   6.665   8.250
 6831POPC   C3A32765  26.060   6.629   7.950
 6831POPC   C4A32766  25.999   6.598   7.650
 6831POPC   C1B32767  25.977   6.404   8.550
 6831POPC   C2B32768  25.944   6.370   8.250
 6831POPC   C3B32769  26.011   6.380   7.950
 6831POPC   C4B32770  25.942   6.456   7.650
 6832POPC   NC332771  17.466  18.234   9.450
 6832POPC   PO432772  17.476  18.302   9.150
 6832POPC   GL132773  17.487  18.238   8.850
 6832POPC   GL232774  17.570  18.380   8.850
 6832POPC   C1A32775  17.512  18.234   8.550
 6832POPC   D2A32776  17.459  18.251   8.250
 6832POPC   C3A32777  17.471  18.241   7.950
 6832POPC   C4A32778  17.467  18.331   7.650
 6832POPC   C1B32779  17.680  18.396   8.550
 6832POPC   C2B32780  17.675  18.432   8.250
 6832POPC   C3B32781  17.738  18.462   7.950
 6832POPC   C4B32782  17.668  18.412   7.650
 6833POPC   NC332783  19.049   0.456   9.450
 6833POPC   PO432784  19.091   0.486   9.150
 6833POPC   GL132785  19.092   0.480   8.850
 6833POPC   GL232786  19.128   0.492   8.850
 6833POPC   C1A32787  19.026   0.388   8.550
 6833POPC   D2A32788  19.028   0.453   8.250
 6833POPC   C3A32789  19.055   0.466   7.950
 6833POPC   C4A32790  19.073   0.467   7.650
 6833POPC   C1B32791  19.271   0.632   8.550
 6833POPC   C2B32792  19.249   0.628   8.250
 6833POPC   C3B32793  19.259   0.658   7.950
 6833POPC   C4B32794  19.229   0.654   7.650
 6834POPC   NC332795   1.230  25.223   9.450
 6834POPC   PO432796   1.197  25.273   9.150
 6834POPC   GL132797   1.198  25.251   8.850
 6834POPC   GL232798   1.307  25.342   8.850
 6834POPC   C1A32799   1.191  25.307   8.550
 6834POPC   D2A32800   1.166  25.236   8.250
 6834POPC   C3A32801   1.213  25.287   7.950
 6834POPC   C4A32802   1.170  25.271   7.650
 6834POPC   C1B32803   1.447  25.410   8.550
 6834POPC   C2B32804   1.411  25.350   8.250
 6834POPC   C3B32805   1.453  25.397   7.950
 6834POPC   C4B32806   1.400  25.422   7.650
 6835POPC   NC332807  31.516  12.110   9.450
 6835POPC   PO432808  31.508  12.078   9.150
 6835POPC   GL132809  31.500  12.043   8.850
 6835POPC   GL232810  31.545  11.963   8.850
 6835POPC   C1A32811  31.450  12.088   8.550
 6835POPC   D2A32812  31.461  12.108   8.250
 6835POPC   C3A32813  31.493  12.050   7.950
 6835POPC   C4A32814  31.505  12.120   7.650
 6835POPC   C1B32815  31.627  11.885   8.550
 6835POPC   C2B32816  31.669  11.960   8.250
 6835POPC   C3B32817  31.652  11.912   7.950
 6835POPC   C4B32818  31.656  11.933   7.650
 6836POPC   NC332819  22.918  11.320   9.450
 6836POPC   PO432820  22.978  11.268   9.150
 6836POPC   GL132821  22.975  11.338   8.850
 6836POPC   GL232822  23.019  11.308   8.850
 6836POPC   C1A32823  22.895  11.336   8.550
 6836POPC   D2A32824  22.908  11.319   8.250
 6836POPC   C3A32825  22.955  11.287   7.950
 6836POPC   C4A32826  22.932  11.297   7.650
 6836POPC   C1B32827  23.152  11.223   8.550
 6836POPC   C2B32828  23.157  11.243   8.250
 6836POPC   C3B32829  23.216  11.223   7.950
 6836POPC   C4B32830  23.216  11.244   7.650
 6837POPC   NC332831   1.255  35.313   9.450
 6837POPC   PO432832   1.242  35.364   9.150
 6837POPC   GL132833   1.181  35.346   8.850
 6837POPC   GL232834   1.062  35.397   8.850
 6837POPC   C1A32835   1.256  35.387   8.550
 6837POPC   D2A32836   1.179  35.309   8.250
 6837POPC   C3A32837   1.259  35.323   7.950
 6837POPC   C4A32838   1.259  35.328   7.650
 6837POPC   C1B32839   0.967  35.359   8.550
 6837POPC   C2B32840   0.951  35.307   8.250
 6837POPC   C3B32841   1.000  35.311   7.950
 6837POPC   C4B32842   0.956  35.377   7.650
 6838POPC   NC332843  22.202  28.337   9.450
 6838POPC   PO432844  22.200  28.356   9.150
 6838POPC   GL132845  22.205  28.358   8.850
 6838POPC   GL232846  22.287  28.428   8.850
 6838POPC   C1A32847  22.123  28.326   8.550
 6838POPC   D2A32848  22.130  28.416   8.250
 6838POPC   C3A32849  22.116  28.393   7.950
 6838POPC   C4A32850  22.156  28.324   7.650
 6838POPC   C1B32851  22.434  28.451   8.550
 6838POPC   C2B32852  22.379  28.408   8.250
 6838POPC   C3B32853  22.456  28.421   7.950
 6838POPC   C4B32854  22.408  28.456   7.650
 6839POPC   NC332855  32.290   7.454   9.450
 6839POPC   PO432856  32.266   7.398   9.150
 6839POPC   GL132857  32.263   7.464   8.850
 6839POPC   GL232858  32.089   7.396   8.850
 6839POPC   C1A32859  32.295   7.433   8.550
 6839POPC   D2A32860  32.229   7.470   8.250
 6839POPC   C3A32861  32.253   7.384   7.950
 6839POPC   C4A32862  32.289   7.386   7.650
 6839POPC   C1B32863  32.008   7.465   8.550
 6839POPC   C2B32864  31.983   7.423   8.250
 6839POPC   C3B32865  32.023   7.424   7.950
 6839POPC   C4B32866  31.962   7.461   7.650
 6840POPC   NC332867  18.237   3.503   9.450
 6840POPC   PO432868  18.245   3.507   9.150
 6840POPC   GL132869  18.247   3.583   8.850
 6840POPC   GL232870  18.276   3.666   8.850
 6840POPC   C1A32871  18.245   3.576   8.550
 6840POPC   D2A32872  18.305   3.561   8.250
 6840POPC   C3A32873  18.305   3.512   7.950
 6840POPC   C4A32874  18.278   3.556   7.650
 6840POPC   C1B32875  18.372   3.758   8.550
 6840POPC   C2B32876  18.389   3.824   8.250
 6840POPC   C3B32877  18.396   3.748   7.950
 6840POPC   C4B32878  18.339   3.737   7.650
 6841POPC   NC332879  26.788  32.260   9.450
 6841POPC   PO432880  26.799  32.276   9.150
 6841POPC   GL132881  26.853  32.241   8.850
 6841POPC   GL232882  26.868  32.104   8.850
 6841POPC   C1A32883  26.816  32.285   8.550
 6841POPC   D2A32884  26.770  32.233   8.250
 6841POPC   C3A32885  26.861  32.243   7.950
 6841POPC   C4A32886  26.778  32.233   7.650
 6841POPC   C1B32887  26.817  31.981   8.550
 6841POPC   C2B32888  26.819  31.955   8.250
 6841POPC   C3B32889  26.873  31.987   7.950
 6841POPC   C4B32890  26.814  31.961   7.650
 6842POPC   NC332891  15.998   8.223   9.450
 6842POPC   PO432892  15.958   8.209   9.150
 6842POPC   GL132893  15.992   8.237   8.850
 6842POPC   GL232894  15.971   8.325   8.850
 6842POPC   C1A32895  15.999   8.208   8.550
 6842POPC   D2A32896  15.987   8.206   8.250
 6842POPC   C3A32897  15.995   8.195   7.950
 6842POPC   C4A32898  15.955   8.239   7.650
 6842POPC   C1B32899  16.035   8.365   8.550
 6842POPC   C2B32900  16.056   8.402   8.250
 6842POPC   C3B32901  16.082   8.382   7.950
 6842POPC   C4B32902  16.077   8.416   7.650
 6843POPC   NC332903  38.407  22.195   9.450
 6843POPC   PO432904  38.410  22.178   9.150
 6843POPC   GL132905  38.451  22.191   8.850
 6843POPC   GL232906  38.376  22.183   8.850
 6843POPC   C1A32907  38.460  22.127   8.550
 6843POPC   D2A32908  38.446  22.122   8.250
 6843POPC   C3A32909  38.450  22.209   7.950
 6843POPC   C4A32910  38.433  22.168   7.650
 6843POPC   C1B32911  38.182  22.158   8.550
 6843POPC   C2B32912  38.164  22.206   8.250
 6843POPC   C3B32913  38.201  22.210   7.950
 6843POPC   C4B32914  38.169  22.187   7.650
 6844POPC   NC332915   1.985  26.012   9.450
 6844POPC   PO432916   1.961  25.993   9.150
 6844POPC   GL132917   1.948  26.051   8.850
 6844POPC   GL232918   1.892  26.178   8.850
 6844POPC   C1A32919   1.991  26.049   8.550
 6844POPC   D2A32920   1.951  26.077   8.250
 6844POPC   C3A32921   1.963  26.085   7.950
 6844POPC   C4A32922   2.000  26.059   7.650
 6844POPC   C1B32923   1.840  26.220   8.550
 6844POPC   C2B32924   1.850  26.300   8.250
 6844POPC   C3B32925   1.884  26.297   7.950
 6844POPC   C4B32926   1.846  26.283   7.650
 6845POPC   NC332927  35.335  13.578   9.450
 6845POPC   PO432928  35.337  13.633   9.150
 6845POPC   GL132929  35.344  13.662   8.850
 6845POPC   GL232930  35.233  13.558   8.850
 6845POPC   C1A32931  35.395  13.626   8.550
 6845POPC   D2A32932  35.384  13.666   8.250
 6845POPC   C3A32933  35.345  13.606   7.950
 6845POPC   C4A32934  35.368  13.633   7.650
 6845POPC   C1B32935  35.145  13.572   8.550
 6845POPC   C2B32936  35.136  13.586   8.250
 6845POPC   C3B32937  35.125  13.531   7.950
 6845POPC   C4B32938  35.149  13.536   7.650
 6846POPC   NC332939  31.445  43.865   9.450
 6846POPC   PO432940  31.512  43.870   9.150
 6846POPC   GL132941  31.513  43.871   8.850
 6846POPC   GL232942  31.417  43.975   8.850
 6846POPC   C1A32943  31.468  43.840   8.550
 6846POPC   D2A32944  31.426  43.910   8.250
 6846POPC   C3A32945  31.466  43.899   7.950
 6846POPC   C4A32946  31.518  43.906   7.650
 6846POPC   C1B32947  31.290  44.039   8.550
 6846POPC   C2B32948  31.304  44.042   8.250
 6846POPC   C3B32949  31.296  44.039   7.950
 6846POPC   C4B32950  31.304  44.019   7.650
 6847POPC   NC332951  43.900  22.942   9.450
 6847POPC   PO432952  43.888  22.920   9.150
 6847POPC   GL132953  43.868  22.945   8.850
 6847POPC   GL232954  43.890  23.044   8.850
 6847POPC   C1A32955  43.933  22.953   8.550
 6847POPC   D2A32956  43.846  22.968   8.250
 6847POPC   C3A32957  43.892  22.892   7.950
 6847POPC   C4A32958  43.932  22.961   7.650
 6847POPC   C1B32959  43.810  23.162   8.550
 6847POPC   C2B32960  43.834  23.228   8.250
 6847POPC   C3B32961  43.861  23.223   7.950
 6847POPC   C4B32962  43.780  23.218   7.650
 6848POPC   NC332963  11.331  22.948   9.450
 6848POPC   PO432964  11.309  22.936   9.150
 6848POPC   GL132965  11.259  22.948   8.850
 6848POPC   GL232966  11.400  22.904   8.850
 6848POPC   C1A32967  11.300  22.966   8.550
 6848POPC   D2A32968  11.264  22.955   8.250
 6848POPC   C3A32969  11.346  22.920   7.950
 6848POPC   C4A32970  11.333  22.954   7.650
 6848POPC   C1B32971  11.509  22.848   8.550
 6848POPC   C2B32972  11.504  22.887   8.250
 6848POPC   C3B32973  11.495  22.849   7.950
 6848POPC   C4B32974  11.540  22.839   7.650
 6849POPC   NC332975  19.058  19.041   9.450
 6849POPC   PO432976  19.017  19.059   9.150
 6849POPC   GL132977  19.030  19.104   8.850
 6849POPC   GL232978  19.190  18.997   8.850
 6849POPC   C1A32979  19.101  19.031   8.550
 6849POPC   D2A32980  19.075  19.060   8.250
 6849POPC   C3A32981  19.072  19.067   7.950
 6849POPC   C4A32982  19.041  19.068   7.650
 6849POPC   C1B32983  19.267  18.925   8.550
 6849POPC   C2B32984  19.318  18.977   8.250
 6849POPC   C3B32985  19.297  18.977   7.950
 6849POPC   C4B32986  19.267  18.964   7.650
 6850POPC   NC332987  23.714  18.286   9.450
 6850POPC   PO432988  23.674  18.253   9.150
 6850POPC   GL132989  23.724  18.280   8.850
 6850POPC   GL232990  23.683  18.127   8.850
 6850POPC   C1A32991  23.673  18.268   8.550
 6850POPC   D2A32992  23.709  18.333   8.250
 6850POPC   C3A32993  23.695  18.247   7.950
 6850POPC   C4A32994  23.752  18.257   7.650
 6850POPC   C1B32995  23.706  18.006   8.550
 6850POPC   C2B32996  23.635  18.030   8.250
 6850POPC   C3B32997  23.627  18.085   7.950
 6850POPC   C4B32998  23.642  18.058   7.650
 6851POPC   NC332999  26.792  33.054   9.450
 6851POPC   PO433000  26.808  33.057   9.150
 6851POPC   GL133001  26.821  33.011   8.850
 6851POPC   GL233002  26.957  33.131   8.850
 6851POPC   C1A33003  26.772  32.986   8.550
 6851POPC   D2A33004  26.859  33.008   8.250
 6851POPC   C3A33005  26.851  32.989   7.950
 6851POPC   C4A33006  26.851  32.981   7.650
 6851POPC   C1B33007  27.080  33.125   8.550
 6851POPC   C2B33008  27.066  33.194   8.250
 6851POPC   C3B33009  27.008  33.134   7.950
 6851POPC   C4B33010  27.014  33.134   7.650
 6852POPC   NC333011  33.751  15.969   9.450
 6852POPC   PO433012  33.831  15.932   9.150
 6852POPC   GL133013  33.811  15.970   8.850
 6852POPC   GL233014  33.737  15.832   8.850
 6852POPC   C1A33015  33.850  15.991   8.550
 6852POPC   D2A33016  33.838  15.994   8.250
 6852POPC   C3A33017  33.776  15.983   7.950
 6852POPC   C4A33018  33.776  15.960   7.650
 6852POPC   C1B33019  33.614  15.751   8.550
 6852POPC   C2B33020  33.614  15.738   8.250
 6852POPC   C3B33021  33.623  15.783   7.950
 6852POPC   C4B33022  33.617  15.773   7.650
 6853POPC   NC333023  13.630  12.099   9.450
 6853POPC   PO433024  13.644  12.038   9.150
 6853POPC   GL133025  13.675  12.105   8.850
 6853POPC   GL233026  13.725  12.022   8.850
 6853POPC   C1A33027  13.602  12.123   8.550
 6853POPC   D2A33028  13.661  12.078   8.250
 6853POPC   C3A33029  13.668  12.058   7.950
 6853POPC   C4A33030  13.643  12.049   7.650
 6853POPC   C1B33031  13.780  11.880   8.550
 6853POPC   C2B33032  13.826  11.867   8.250
 6853POPC   C3B33033  13.860  11.874   7.950
 6853POPC   C4B33034  13.856  11.908   7.650
 6854POPC   NC333035  35.332  42.333   9.450
 6854POPC   PO433036  35.395  42.344   9.150
 6854POPC   GL133037  35.316  42.351   8.850
 6854POPC   GL233038  35.446  42.298   8.850
 6854POPC   C1A33039  35.372  42.358   8.550
 6854POPC   D2A33040  35.320  42.352   8.250
 6854POPC   C3A33041  35.322  42.370   7.950
 6854POPC   C4A33042  35.317  42.361   7.650
 6854POPC   C1B33043  35.621  42.222   8.550
 6854POPC   C2B33044  35.617  42.257   8.250
 6854POPC   C3B33045  35.570  42.205   7.950
 6854POPC   C4B33046  35.602  42.212   7.650
 6855POPC   NC333047  25.243  44.666   9.450
 6855POPC   PO433048  25.253  44.643   9.150
 6855POPC   GL133049  25.309  44.685   8.850
 6855POPC   GL233050  25.288  44.570   8.850
 6855POPC   C1A33051  25.307  44.628   8.550
 6855POPC   D2A33052  25.227  44.711   8.250
 6855POPC   C3A33053  25.233  44.698   7.950
 6855POPC   C4A33054  25.298  44.703   7.650
 6855POPC   C1B33055  25.383  44.412   8.550
 6855POPC   C2B33056  25.409  44.439   8.250
 6855POPC   C3B33057  25.343  44.397   7.950
 6855POPC   C4B33058  25.332  44.384   7.650
 6856POPC   NC333059  27.582   2.735   9.450
 6856POPC   PO433060  27.628   2.809   9.150
 6856POPC   GL133061  27.589   2.753   8.850
 6856POPC   GL233062  27.481   2.727   8.850
 6856POPC   C1A33063  27.599   2.799   8.550
 6856POPC   D2A33064  27.547   2.764   8.250
 6856POPC   C3A33065  27.619   2.812   7.950
 6856POPC   C4A33066  27.570   2.784   7.650
 6856POPC   C1B33067  27.424   2.561   8.550
 6856POPC   C2B33068  27.385   2.577   8.250
 6856POPC   C3B33069  27.366   2.597   7.950
 6856POPC   C4B33070  27.446   2.589   7.650
 6857POPC   NC333071  36.158  11.311   9.450
 6857POPC   PO433072  36.156  11.286   9.150
 6857POPC   GL133073  36.130  11.319   8.850
 6857POPC   GL233074  35.982  11.367   8.850
 6857POPC   C1A33075  36.148  11.275   8.550
 6857POPC   D2A33076  36.093  11.340   8.250
 6857POPC   C3A33077  36.141  11.259   7.950
 6857POPC   C4A33078  36.097  11.272   7.650
 6857POPC   C1B33079  35.883  11.463   8.550
 6857POPC   C2B33080  35.947  11.493   8.250
 6857POPC   C3B33081  35.882  11.442   7.950
 6857POPC   C4B33082  35.889  11.492   7.650
 6858POPC   NC333083   5.082  29.941   9.450
 6858POPC   PO433084   5.064  29.945   9.150
 6858POPC   GL133085   5.128  29.944   8.850
 6858POPC   GL233086   5.217  29.893   8.850
 6858POPC   C1A33087   5.071  29.919   8.550
 6858POPC   D2A33088   5.076  29.965   8.250
 6858POPC   C3A33089   5.115  29.903   7.950
 6858POPC   C4A33090   5.128  29.894   7.650
 6858POPC   C1B33091   5.294  29.859   8.550
 6858POPC   C2B33092   5.290  29.844   8.250
 6858POPC   C3B33093   5.282  29.858   7.950
 6858POPC   C4B33094   5.271  29.813   7.650
 6859POPC   NC333095  42.357  38.446   9.450
 6859POPC   PO433096  42.351  38.466   9.150
 6859POPC   GL133097  42.355  38.431   8.850
 6859POPC   GL233098  42.406  38.422   8.850
 6859POPC   C1A33099  42.340  38.487   8.550
 6859POPC   D2A33100  42.332  38.474   8.250
 6859POPC   C3A33101  42.365  38.408   7.950
 6859POPC   C4A33102  42.347  38.406   7.650
 6859POPC   C1B33103  42.551  38.412   8.550
 6859POPC   C2B33104  42.577  38.398   8.250
 6859POPC   C3B33105  42.536  38.356   7.950
 6859POPC   C4B33106  42.586  38.396   7.650
 6860POPC   NC333107  38.465  18.287   9.450
 6860POPC   PO433108  38.480  18.260   9.150
 6860POPC   GL133109  38.438  18.299   8.850
 6860POPC   GL233110  38.509  18.435   8.850
 6860POPC   C1A33111  38.456  18.294   8.550
 6860POPC   D2A33112  38.429  18.245   8.250
 6860POPC   C3A33113  38.406  18.321   7.950
 6860POPC   C4A33114  38.446  18.260   7.650
 6860POPC   C1B33115  38.521  18.566   8.550
 6860POPC   C2B33116  38.524  18.568   8.250
 6860POPC   C3B33117  38.496  18.519   7.950
 6860POPC   C4B33118  38.509  18.532   7.650
 6861POPC   NC333119  28.384  33.042   9.450
 6861POPC   PO433120  28.354  33.051   9.150
 6861POPC   GL133121  28.338  33.017   8.850
 6861POPC   GL233122  28.388  33.159   8.850
 6861POPC   C1A33123  28.403  32.991   8.550
 6861POPC   D2A33124  28.328  33.015   8.250
 6861POPC   C3A33125  28.337  33.058   7.950
 6861POPC   C4A33126  28.336  33.057   7.650
 6861POPC   C1B33127  28.296  33.259   8.550
 6861POPC   C2B33128  28.311  33.308   8.250
 6861POPC   C3B33129  28.336  33.288   7.950
 6861POPC   C4B33130  28.306  33.237   7.650
 6862POPC   NC333131   9.769  40.758   9.450
 6862POPC   PO433132   9.779  40.752   9.150
 6862POPC   GL133133   9.738  40.797   8.850
 6862POPC   GL233134   9.913  40.766   8.850
 6862POPC   C1A33135   9.770  40.759   8.550
 6862POPC   D2A33136   9.708  40.794   8.250
 6862POPC   C3A33137   9.774  40.770   7.950
 6862POPC   C4A33138   9.722  40.828   7.650
 6862POPC   C1B33139   9.960  40.794   8.550
 6862POPC   C2B33140   9.959  40.794   8.250
 6862POPC   C3B33141  10.012  40.840   7.950
 6862POPC   C4B33142   9.963  40.800   7.650
 6863POPC   NC333143  26.084  28.325   9.450
 6863POPC   PO433144  26.077  28.370   9.150
 6863POPC   GL133145  26.071  28.390   8.850
 6863POPC   GL233146  25.957  28.318   8.850
 6863POPC   C1A33147  26.049  28.366   8.550
 6863POPC   D2A33148  26.079  28.373   8.250
 6863POPC   C3A33149  26.041  28.336   7.950
 6863POPC   C4A33150  26.044  28.348   7.650
 6863POPC   C1B33151  25.858  28.149   8.550
 6863POPC   C2B33152  25.868  28.214   8.250
 6863POPC   C3B33153  25.826  28.221   7.950
 6863POPC   C4B33154  25.874  28.208   7.650
 6864POPC   NC333155  31.454  14.436   9.450
 6864POPC   PO433156  31.436  14.435   9.150
 6864POPC   GL133157  31.475  14.435   8.850
 6864POPC   GL233158  31.402  14.314   8.850
 6864POPC   C1A33159  31.502  14.374   8.550
 6864POPC   D2A33160  31.451  14.382   8.250
 6864POPC   C3A33161  31.452  14.423   7.950
 6864POPC   C4A33162  31.424  14.380   7.650
 6864POPC   C1B33163  31.262  14.259   8.550
 6864POPC   C2B33164  31.323  14.197   8.250
 6864POPC   C3B33165  31.312  14.202   7.950
 6864POPC   C4B33166  31.301  14.253   7.650
 6865POPC   NC333167  17.504  28.414   9.450
 6865POPC   PO433168  17.493  28.398   9.150
 6865POPC   GL133169  17.490  28.417   8.850
 6865POPC   GL233170  17.521  28.229   8.850
 6865POPC   C1A33171  17.482  28.390   8.550
 6865POPC   D2A33172  17.541  28.378   8.250
 6865POPC   C3A33173  17.520  28.347   7.950
 6865POPC   C4A33174  17.497  28.366   7.650
 6865POPC   C1B33175  17.659  28.191   8.550
 6865POPC   C2B33176  17.573  28.112   8.250
 6865POPC   C3B33177  17.581  28.117   7.950
 6865POPC   C4B33178  17.629  28.113   7.650
 6866POPC   NC333179  22.925  15.931   9.450
 6866POPC   PO433180  22.968  15.971   9.150
 6866POPC   GL133181  22.968  15.911   8.850
 6866POPC   GL233182  22.881  16.053   8.850
 6866POPC   C1A33183  22.968  15.964   8.550
 6866POPC   D2A33184  22.986  15.952   8.250
 6866POPC   C3A33185  22.985  15.925   7.950
 6866POPC   C4A33186  22.964  15.987   7.650
 6866POPC   C1B33187  22.910  16.158   8.550
 6866POPC   C2B33188  22.878  16.222   8.250
 6866POPC   C3B33189  22.872  16.249   7.950
 6866POPC   C4B33190  22.889  16.187   7.650
 6867POPC   NC333191   3.588  44.626   9.450
 6867POPC   PO433192   3.495  44.681   9.150
 6867POPC   GL133193   3.539  44.677   8.850
 6867POPC   GL233194   3.638  44.755   8.850
 6867POPC   C1A33195   3.513  44.654   8.550
 6867POPC   D2A33196   3.512  44.631   8.250
 6867POPC   C3A33197   3.570  44.684   7.950
 6867POPC   C4A33198   3.503  44.670   7.650
 6867POPC   C1B33199   3.715  44.815   8.550
 6867POPC   C2B33200   3.715  44.853   8.250
 6867POPC   C3B33201   3.729  44.811   7.950
 6867POPC   C4B33202   3.738  44.815   7.650
 6868POPC   NC333203  19.011  22.976   9.450
 6868POPC   PO433204  19.096  22.937   9.150
 6868POPC   GL133205  19.077  22.959   8.850
 6868POPC   GL233206  19.206  22.969   8.850
 6868POPC   C1A33207  19.096  22.980   8.550
 6868POPC   D2A33208  19.023  22.913   8.250
 6868POPC   C3A33209  19.013  22.968   7.950
 6868POPC   C4A33210  19.047  22.945   7.650
 6868POPC   C1B33211  19.328  22.870   8.550
 6868POPC   C2B33212  19.346  22.952   8.250
 6868POPC   C3B33213  19.262  22.889   7.950
 6868POPC   C4B33214  19.328  22.876   7.650
 6869POPC   NC333215  15.198  38.483   9.450
 6869POPC   PO433216  15.228  38.473   9.150
 6869POPC   GL133217  15.161  38.411   8.850
 6869POPC   GL233218  15.034  38.413   8.850
 6869POPC   C1A33219  15.136  38.421   8.550
 6869POPC   D2A33220  15.178  38.424   8.250
 6869POPC   C3A33221  15.159  38.414   7.950
 6869POPC   C4A33222  15.165  38.465   7.650
 6869POPC   C1B33223  14.954  38.488   8.550
 6869POPC   C2B33224  14.964  38.515   8.250
 6869POPC   C3B33225  14.940  38.462   7.950
 6869POPC   C4B33226  14.892  38.486   7.650
 6870POPC   NC333227   3.544   5.917   9.450
 6870POPC   PO433228   3.515   5.891   9.150
 6870POPC   GL133229   3.537   5.911   8.850
 6870POPC   GL233230   3.373   5.944   8.850
 6870POPC   C1A33231   3.562   5.851   8.550
 6870POPC   D2A33232   3.567   5.863   8.250
 6870POPC   C3A33233   3.521   5.855   7.950
 6870POPC   C4A33234   3.508   5.839   7.650
 6870POPC   C1B33235   3.319   5.977   8.550
 6870POPC   C2B33236   3.279   5.970   8.250
 6870POPC   C3B33237   3.320   5.936   7.950
 6870POPC   C4B33238   3.261   5.924   7.650
 6871POPC   NC333239  28.352   6.633   9.450
 6871POPC   PO433240  28.320   6.603   9.150
 6871POPC   GL133241  28.395   6.635   8.850
 6871POPC   GL233242  28.435   6.817   8.850
 6871POPC   C1A33243  28.355   6.661   8.550
 6871POPC   D2A33244  28.325   6.689   8.250
 6871POPC   C3A33245  28.339   6.615   7.950
 6871POPC   C4A33246  28.396   6.681   7.650
 6871POPC   C1B33247  28.408   6.906   8.550
 6871POPC   C2B33248  28.417   6.847   8.250
 6871POPC   C3B33249  28.438   6.870   7.950
 6871POPC   C4B33250  28.394   6.935   7.650
 6872POPC   NC333251  31.464  41.524   9.450
 6872POPC   PO433252  31.466  41.591   9.150
 6872POPC   GL133253  31.424  41.521   8.850
 6872POPC   GL233254  31.397  41.475   8.850
 6872POPC   C1A33255  31.446  41.602   8.550
 6872POPC   D2A33256  31.478  41.556   8.250
 6872POPC   C3A33257  31.520  41.568   7.950
 6872POPC   C4A33258  31.452  41.531   7.650
 6872POPC   C1B33259  31.304  41.354   8.550
 6872POPC   C2B33260  31.330  41.301   8.250
 6872POPC   C3B33261  31.318  41.321   7.950
 6872POPC   C4B33262  31.376  41.311   7.650
 6873POPC   NC333263  15.138  12.120   9.450
 6873POPC   PO433264  15.165  12.061   9.150
 6873POPC   GL133265  15.227  12.117   8.850
 6873POPC   GL233266  15.222  11.955   8.850
 6873POPC   C1A33267  15.130  12.029   8.550
 6873POPC   D2A33268  15.184  12.081   8.250
 6873POPC   C3A33269  15.227  12.061   7.950
 6873POPC   C4A33270  15.193  12.064   7.650
 6873POPC   C1B33271  15.128  11.864   8.550
 6873POPC   C2B33272  15.148  11.818   8.250
 6873POPC   C3B33273  15.225  11.777   7.950
 6873POPC   C4B33274  15.216  11.853   7.650
 6874POPC   NC333275  26.805  41.530   9.450
 6874POPC   PO433276  26.820  41.525   9.150
 6874POPC   GL133277  26.831  41.579   8.850
 6874POPC   GL233278  26.893  41.605   8.850
 6874POPC   C1A33279  26.773  41.527   8.550
 6874POPC   D2A33280  26.861  41.608   8.250
 6874POPC   C3A33281  26.781  41.540   7.950
 6874POPC   C4A33282  26.778  41.552   7.650
 6874POPC   C1B33283  27.046  41.619   8.550
 6874POPC   C2B33284  27.096  41.636   8.250
 6874POPC   C3B33285  27.066  41.683   7.950
 6874POPC   C4B33286  27.059  41.610   7.650
 6875POPC   NC333287  28.334  34.538   9.450
 6875POPC   PO433288  28.345  34.546   9.150
 6875POPC   GL133289  28.374  34.583   8.850
 6875POPC   GL233290  28.419  34.708   8.850
 6875POPC   C1A33291  28.387  34.539   8.550
 6875POPC   D2A33292  28.357  34.550   8.250
 6875POPC   C3A33293  28.328  34.538   7.950
 6875POPC   C4A33294  28.330  34.576   7.650
 6875POPC   C1B33295  28.494  34.783   8.550
 6875POPC   C2B33296  28.514  34.832   8.250
 6875POPC   C3B33297  28.445  34.850   7.950
 6875POPC   C4B33298  28.496  34.783   7.650
 6876POPC   NC333299  40.809  22.936   9.450
 6876POPC   PO433300  40.800  22.984   9.150
 6876POPC   GL133301  40.758  22.961   8.850
 6876POPC   GL233302  40.694  22.834   8.850
 6876POPC   C1A33303  40.746  22.927   8.550
 6876POPC   D2A33304  40.748  22.955   8.250
 6876POPC   C3A33305  40.766  22.951   7.950
 6876POPC   C4A33306  40.747  22.982   7.650
 6876POPC   C1B33307  40.659  22.750   8.550
 6876POPC   C2B33308  40.668  22.761   8.250
 6876POPC   C3B33309  40.700  22.715   7.950
 6876POPC   C4B33310  40.620  22.674   7.650
 6877POPC   NC333311   1.969  32.226   9.450
 6877POPC   PO433312   1.986  32.209   9.150
 6877POPC   GL133313   2.004  32.282   8.850
 6877POPC   GL233314   1.908  32.317   8.850
 6877POPC   C1A33315   1.999  32.230   8.550
 6877POPC   D2A33316   1.960  32.274   8.250
 6877POPC   C3A33317   1.991  32.200   7.950
 6877POPC   C4A33318   2.005  32.230   7.650
 6877POPC   C1B33319   1.749  32.424   8.550
 6877POPC   C2B33320   1.815  32.445   8.250
 6877POPC   C3B33321   1.746  32.412   7.950
 6877POPC   C4B33322   1.797  32.384   7.650
 6878POPC   NC333323   7.393  34.564   9.450
 6878POPC   PO433324   7.414  34.530   9.150
 6878POPC   GL133325   7.415  34.570   8.850
 6878POPC   GL233326   7.291  34.621   8.850
 6878POPC   C1A33327   7.414  34.560   8.550
 6878POPC   D2A33328   7.398  34.551   8.250
 6878POPC   C3A33329   7.464  34.530   7.950
 6878POPC   C4A33330   7.383  34.586   7.650
 6878POPC   C1B33331   7.278  34.783   8.550
 6878POPC   C2B33332   7.211  34.759   8.250
 6878POPC   C3B33333   7.254  34.766   7.950
 6878POPC   C4B33334   7.277  34.717   7.650
 6879POPC   NC333335   9.705   3.545   9.450
 6879POPC   PO433336   9.771   3.542   9.150
 6879POPC   GL133337   9.722   3.583   8.850
 6879POPC   GL233338   9.604   3.544   8.850
 6879POPC   C1A33339   9.701   3.565   8.550
 6879POPC   D2A33340   9.785   3.541   8.250
 6879POPC   C3A33341   9.716   3.539   7.950
 6879POPC   C4A33342   9.780   3.553   7.650
 6879POPC   C1B33343   9.531   3.631   8.550
 6879POPC   C2B33344   9.560   3.609   8.250
 6879POPC   C3B33345   9.482   3.675   7.950
 6879POPC   C4B33346   9.563   3.634   7.650
 6880POPC   NC333347   4.348   1.227   9.450
 6880POPC   PO433348   4.318   1.181   9.150
 6880POPC   GL133349   4.318   1.263   8.850
 6880POPC   GL233350   4.189   1.270   8.850
 6880POPC   C1A33351   4.330   1.245   8.550
 6880POPC   D2A33352   4.314   1.198   8.250
 6880POPC   C3A33353   4.291   1.263   7.950
 6880POPC   C4A33354   4.306   1.209   7.650
 6880POPC   C1B33355   4.144   1.339   8.550
 6880POPC   C2B33356   4.113   1.306   8.250
 6880POPC   C3B33357   4.102   1.348   7.950
 6880POPC   C4B33358   4.087   1.367   7.650
 6881POPC   NC333359  38.407  37.632   9.450
 6881POPC   PO433360  38.482  37.642   9.150
 6881POPC   GL133361  38.406  37.674   8.850
 6881POPC   GL233362  38.535  37.725   8.850
 6881POPC   C1A33363  38.474  37.652   8.550
 6881POPC   D2A33364  38.489  37.683   8.250
 6881POPC   C3A33365  38.487  37.723   7.950
 6881POPC   C4A33366  38.406  37.714   7.650
 6881POPC   C1B33367  38.690  37.778   8.550
 6881POPC   C2B33368  38.665  37.822   8.250
 6881POPC   C3B33369  38.713  37.812   7.950
 6881POPC   C4B33370  38.711  37.765   7.650
 6882POPC   NC333371  37.644   5.058   9.450
 6882POPC   PO433372  37.713   5.048   9.150
 6882POPC   GL133373  37.636   5.103   8.850
 6882POPC   GL233374  37.773   4.975   8.850
 6882POPC   C1A33375  37.724   5.094   8.550
 6882POPC   D2A33376  37.699   5.105   8.250
 6882POPC   C3A33377  37.729   5.084   7.950
 6882POPC   C4A33378  37.638   5.045   7.650
 6882POPC   C1B33379  37.869   4.936   8.550
 6882POPC   C2B33380  37.800   4.852   8.250
 6882POPC   C3B33381  37.815   4.880   7.950
 6882POPC   C4B33382  37.836   4.879   7.650
 6883POPC   NC333383  29.107   8.218   9.450
 6883POPC   PO433384  29.127   8.210   9.150
 6883POPC   GL133385  29.124   8.175   8.850
 6883POPC   GL233386  29.199   8.269   8.850
 6883POPC   C1A33387  29.137   8.159   8.550
 6883POPC   D2A33388  29.098   8.211   8.250
 6883POPC   C3A33389  29.103   8.236   7.950
 6883POPC   C4A33390  29.158   8.223   7.650
 6883POPC   C1B33391  29.296   8.305   8.550
 6883POPC   C2B33392  29.347   8.355   8.250
 6883POPC   C3B33393  29.368   8.337   7.950
 6883POPC   C4B33394  29.387   8.378   7.650
 6884POPC   NC333395  34.543  19.079   9.450
 6884POPC   PO433396  34.595  19.018   9.150
 6884POPC   GL133397  34.596  19.013   8.850
 6884POPC   GL233398  34.562  18.911   8.850
 6884POPC   C1A33399  34.564  19.029   8.550
 6884POPC   D2A33400  34.548  19.029   8.250
 6884POPC   C3A33401  34.607  19.055   7.950
 6884POPC   C4A33402  34.603  19.018   7.650
 6884POPC   C1B33403  34.507  18.805   8.550
 6884POPC   C2B33404  34.577  18.779   8.250
 6884POPC   C3B33405  34.528  18.838   7.950
 6884POPC   C4B33406  34.526  18.788   7.650
 6885POPC   NC333407  30.665  36.951   9.450
 6885POPC   PO433408  30.657  36.914   9.150
 6885POPC   GL133409  30.695  36.916   8.850
 6885POPC   GL233410  30.554  36.928   8.850
 6885POPC   C1A33411  30.737  36.866   8.550
 6885POPC   D2A33412  30.714  36.929   8.250
 6885POPC   C3A33413  30.714  36.897   7.950
 6885POPC   C4A33414  30.710  36.903   7.650
 6885POPC   C1B33415  30.407  36.936   8.550
 6885POPC   C2B33416  30.409  36.996   8.250
 6885POPC   C3B33417  30.405  36.937   7.950
 6885POPC   C4B33418  30.489  36.989   7.650
 6886POPC   NC333419  38.441  23.731   9.450
 6886POPC   PO433420  38.453  23.708   9.150
 6886POPC   GL133421  38.419  23.667   8.850
 6886POPC   GL233422  38.565  23.784   8.850
 6886POPC   C1A33423  38.461  23.716   8.550
 6886POPC   D2A33424  38.500  23.697   8.250
 6886POPC   C3A33425  38.456  23.736   7.950
 6886POPC   C4A33426  38.418  23.703   7.650
 6886POPC   C1B33427  38.658  23.857   8.550
 6886POPC   C2B33428  38.640  23.797   8.250
 6886POPC   C3B33429  38.703  23.785   7.950
 6886POPC   C4B33430  38.655  23.811   7.650
 6887POPC   NC333431   6.600   0.422   9.450
 6887POPC   PO433432   6.653   0.482   9.150
 6887POPC   GL133433   6.617   0.480   8.850
 6887POPC   GL233434   6.569   0.580   8.850
 6887POPC   C1A33435   6.664   0.419   8.550
 6887POPC   D2A33436   6.640   0.420   8.250
 6887POPC   C3A33437   6.645   0.446   7.950
 6887POPC   C4A33438   6.599   0.430   7.650
 6887POPC   C1B33439   6.509   0.605   8.550
 6887POPC   C2B33440   6.512   0.616   8.250
 6887POPC   C3B33441   6.466   0.649   7.950
 6887POPC   C4B33442   6.545   0.621   7.650
 6888POPC   NC333443  43.931  42.354   9.450
 6888POPC   PO433444  43.890  42.341   9.150
 6888POPC   GL133445  43.866  42.310   8.850
 6888POPC   GL233446  43.931  42.463   8.850
 6888POPC   C1A33447  43.904  42.380   8.550
 6888POPC   D2A33448  43.924  42.370   8.250
 6888POPC   C3A33449  43.903  42.350   7.950
 6888POPC   C4A33450  43.842  42.299   7.650
 6888POPC   C1B33451  43.870  42.548   8.550
 6888POPC   C2B33452  43.921  42.602   8.250
 6888POPC   C3B33453  43.868  42.553   7.950
 6888POPC   C4B33454  43.857  42.614   7.650
 6889POPC   NC333455   5.904  11.313   9.450
 6889POPC   PO433456   5.852  11.316   9.150
 6889POPC   GL133457   5.880  11.306   8.850
 6889POPC   GL233458   5.736  11.353   8.850
 6889POPC   C1A33459   5.840  11.325   8.550
 6889POPC   D2A33460   5.862  11.305   8.250
 6889POPC   C3A33461   5.874  11.261   7.950
 6889POPC   C4A33462   5.913  11.265   7.650
 6889POPC   C1B33463   5.633  11.479   8.550
 6889POPC   C2B33464   5.693  11.414   8.250
 6889POPC   C3B33465   5.624  11.449   7.950
 6889POPC   C4B33466   5.697  11.474   7.650
 6890POPC   NC333467  12.035  21.387   9.450
 6890POPC   PO433468  12.115  21.412   9.150
 6890POPC   GL133469  12.037  21.388   8.850
 6890POPC   GL233470  11.954  21.335   8.850
 6890POPC   C1A33471  12.099  21.342   8.550
 6890POPC   D2A33472  12.093  21.395   8.250
 6890POPC   C3A33473  12.058  21.377   7.950
 6890POPC   C4A33474  12.042  21.401   7.650
 6890POPC   C1B33475  11.861  21.169   8.550
 6890POPC   C2B33476  11.903  21.185   8.250
 6890POPC   C3B33477  11.917  21.173   7.950
 6890POPC   C4B33478  11.864  21.210   7.650
 6891POPC   NC333479   9.773   1.974   9.450
 6891POPC   PO433480   9.711   2.011   9.150
 6891POPC   GL133481   9.772   2.030   8.850
 6891POPC   GL233482   9.845   1.906   8.850
 6891POPC   C1A33483   9.724   1.948   8.550
 6891POPC   D2A33484   9.701   1.992   8.250
 6891POPC   C3A33485   9.795   2.031   7.950
 6891POPC   C4A33486   9.704   2.037   7.650
 6891POPC   C1B33487   9.880   1.822   8.550
 6891POPC   C2B33488   9.866   1.771   8.250
 6891POPC   C3B33489   9.903   1.781   7.950
 6891POPC   C4B33490   9.928   1.740   7.650
 6892POPC   NC333491  43.883  40.734   9.450
 6892POPC   PO433492  43.870  40.743   9.150
 6892POPC   GL133493  43.895  40.824   8.850
 6892POPC   GL233494  43.980  40.878   8.850
 6892POPC   C1A33495  43.845  40.743   8.550
 6892POPC   D2A33496  43.878  40.805   8.250
 6892POPC   C3A33497  43.927  40.786   7.950
 6892POPC   C4A33498  43.897  40.830   7.650
 6892POPC   C1B33499  44.127  40.854   8.550
 6892POPC   C2B33500  44.130  40.867   8.250
 6892POPC   C3B33501  44.128  40.841   7.950
 6892POPC   C4B33502  44.108  40.918   7.650
 6893POPC   NC333503  37.704   9.781   9.450
 6893POPC   PO433504  37.662   9.736   9.150
 6893POPC   GL133505  37.707   9.761   8.850
 6893POPC   GL233506  37.716   9.663   8.850
 6893POPC   C1A33507  37.695   9.792   8.550
 6893POPC   D2A33508  37.660   9.714   8.250
 6893POPC   C3A33509  37.714   9.745   7.950
 6893POPC   C4A33510  37.710   9.770   7.650
 6893POPC   C1B33511  37.730   9.475   8.550
 6893POPC   C2B33512  37.722   9.463   8.250
 6893POPC   C3B33513  37.786   9.461   7.950
 6893POPC   C4B33514  37.722   9.522   7.650
 6894POPC   NC333515  27.597  39.974   9.450
 6894POPC   PO433516  27.558  40.049   9.150
 6894POPC   GL133517  27.597  39.988   8.850
 6894POPC   GL233518  27.448  39.962   8.850
 6894POPC   C1A33519  27.642  40.009   8.550
 6894POPC   D2A33520  27.623  39.967   8.250
 6894POPC   C3A33521  27.639  39.967   7.950
 6894POPC   C4A33522  27.587  39.988   7.650
 6894POPC   C1B33523  27.379  39.949   8.550
 6894POPC   C2B33524  27.331  39.883   8.250
 6894POPC   C3B33525  27.372  39.917   7.950
 6894POPC   C4B33526  27.353  39.926   7.650
 6895POPC   NC333527  36.887   5.854   9.450
 6895POPC   PO433528  36.919   5.840   9.150
 6895POPC   GL133529  36.927   5.869   8.850
 6895POPC   GL233530  36.981   5.921   8.850
 6895POPC   C1A33531  36.882   5.822   8.550
 6895POPC   D2A33532  36.894   5.904   8.250
 6895POPC   C3A33533  36.940   5.888   7.950
 6895POPC   C4A33534  36.938   5.877   7.650
 6895POPC   C1B33535  37.106   5.996   8.550
 6895POPC   C2B33536  37.111   5.972   8.250
 6895POPC   C3B33537  37.123   5.912   7.950
 6895POPC   C4B33538  37.163   5.989   7.650
 6896POPC   NC333539   5.846  22.118   9.450
 6896POPC   PO433540   5.857  22.154   9.150
 6896POPC   GL133541   5.856  22.153   8.850
 6896POPC   GL233542   5.963  22.290   8.850
 6896POPC   C1A33543   5.905  22.207   8.550
 6896POPC   D2A33544   5.880  22.123   8.250
 6896POPC   C3A33545   5.878  22.156   7.950
 6896POPC   C4A33546   5.824  22.118   7.650
 6896POPC   C1B33547   6.049  22.334   8.550
 6896POPC   C2B33548   5.963  22.395   8.250
 6896POPC   C3B33549   6.049  22.357   7.950
 6896POPC   C4B33550   5.969  22.322   7.650
 6897POPC   NC333551  26.795  43.897   9.450
 6897POPC   PO433552  26.850  43.854   9.150
 6897POPC   GL133553  26.812  43.925   8.850
 6897POPC   GL233554  26.911  43.901   8.850
 6897POPC   C1A33555  26.789  43.915   8.550
 6897POPC   D2A33556  26.825  43.900   8.250
 6897POPC   C3A33557  26.792  43.855   7.950
 6897POPC   C4A33558  26.771  43.881   7.650
 6897POPC   C1B33559  27.084  44.016   8.550
 6897POPC   C2B33560  26.999  43.971   8.250
 6897POPC   C3B33561  27.008  44.016   7.950
 6897POPC   C4B33562  27.053  44.005   7.650
 6898POPC   NC333563   5.142   3.520   9.450
 6898POPC   PO433564   5.097   3.568   9.150
 6898POPC   GL133565   5.094   3.569   8.850
 6898POPC   GL233566   5.201   3.619   8.850
 6898POPC   C1A33567   5.084   3.591   8.550
 6898POPC   D2A33568   5.090   3.502   8.250
 6898POPC   C3A33569   5.102   3.530   7.950
 6898POPC   C4A33570   5.085   3.529   7.650
 6898POPC   C1B33571   5.293   3.730   8.550
 6898POPC   C2B33572   5.290   3.743   8.250
 6898POPC   C3B33573   5.213   3.746   7.950
 6898POPC   C4B33574   5.249   3.698   7.650
 6899POPC   NC333575  11.271  13.673   9.450
 6899POPC   PO433576  11.349  13.584   9.150
 6899POPC   GL133577  11.306  13.659   8.850
 6899POPC   GL233578  11.393  13.752   8.850
 6899POPC   C1A33579  11.319  13.599   8.550
 6899POPC   D2A33580  11.284  13.658   8.250
 6899POPC   C3A33581  11.326  13.661   7.950
 6899POPC   C4A33582  11.267  13.614   7.650
 6899POPC   C1B33583  11.415  13.846   8.550
 6899POPC   C2B33584  11.415  13.833   8.250
 6899POPC   C3B33585  11.484  13.853   7.950
 6899POPC   C4B33586  11.503  13.772   7.650
 6900POPC   NC333587  23.723  44.706   9.450
 6900POPC   PO433588  23.743  44.673   9.150
 6900POPC   GL133589  23.713  44.642   8.850
 6900POPC   GL233590  23.768  44.776   8.850
 6900POPC   C1A33591  23.668  44.676   8.550
 6900POPC   D2A33592  23.757  44.646   8.250
 6900POPC   C3A33593  23.683  44.693   7.950
 6900POPC   C4A33594  23.711  44.690   7.650
 6900POPC   C1B33595  23.714  44.899   8.550
 6900POPC   C2B33596  23.754  44.921   8.250
 6900POPC   C3B33597  23.773  44.920   7.950
 6900POPC   C4B33598  23.777  44.868   7.650
 6901POPC   NC333599  39.241   9.735   9.450
 6901POPC   PO433600  39.271   9.734   9.150
 6901POPC   GL133601  39.256   9.769   8.850
 6901POPC   GL233602  39.384   9.814   8.850
 6901POPC   C1A33603  39.211   9.718   8.550
 6901POPC   D2A33604  39.273   9.780   8.250
 6901POPC   C3A33605  39.190   9.788   7.950
 6901POPC   C4A33606  39.188   9.711   7.650
 6901POPC   C1B33607  39.500   9.789   8.550
 6901POPC   C2B33608  39.493   9.763   8.250
 6901POPC   C3B33609  39.450   9.792   7.950
 6901POPC   C4B33610  39.506   9.822   7.650
 6902POPC   NC333611  36.864  43.889   9.450
 6902POPC   PO433612  36.941  43.892   9.150
 6902POPC   GL133613  36.887  43.931   8.850
 6902POPC   GL233614  37.061  43.942   8.850
 6902POPC   C1A33615  36.942  43.890   8.550
 6902POPC   D2A33616  36.925  43.900   8.250
 6902POPC   C3A33617  36.905  43.851   7.950
 6902POPC   C4A33618  36.867  43.887   7.650
 6902POPC   C1B33619  37.174  44.024   8.550
 6902POPC   C2B33620  37.156  43.964   8.250
 6902POPC   C3B33621  37.133  43.982   7.950
 6902POPC   C4B33622  37.102  44.016   7.650
 6903POPC   NC333623  43.888  15.209   9.450
 6903POPC   PO433624  43.921  15.138   9.150
 6903POPC   GL133625  43.878  15.192   8.850
 6903POPC   GL233626  43.981  15.294   8.850
 6903POPC   C1A33627  43.878  15.156   8.550
 6903POPC   D2A33628  43.854  15.130   8.250
 6903POPC   C3A33629  43.850  15.178   7.950
 6903POPC   C4A33630  43.920  15.208   7.650
 6903POPC   C1B33631  44.079  15.301   8.550
 6903POPC   C2B33632  44.051  15.343   8.250
 6903POPC   C3B33633  44.076  15.343   7.950
 6903POPC   C4B33634  44.079  15.327   7.650
 6904POPC   NC333635   8.242  35.344   9.450
 6904POPC   PO433636   8.216  35.402   9.150
 6904POPC   GL133637   8.158  35.384   8.850
 6904POPC   GL233638   8.371  35.385   8.850
 6904POPC   C1A33639   8.209  35.331   8.550
 6904POPC   D2A33640   8.159  35.343   8.250
 6904POPC   C3A33641   8.179  35.377   7.950
 6904POPC   C4A33642   8.164  35.318   7.650
 6904POPC   C1B33643   8.415  35.303   8.550
 6904POPC   C2B33644   8.399  35.368   8.250
 6904POPC   C3B33645   8.413  35.382   7.950
 6904POPC   C4B33646   8.438  35.374   7.650
 6905POPC   NC333647  35.322  12.110   9.450
 6905POPC   PO433648  35.370  12.102   9.150
 6905POPC   GL133649  35.368  12.035   8.850
 6905POPC   GL233650  35.442  12.181   8.850
 6905POPC   C1A33651  35.393  12.056   8.550
 6905POPC   D2A33652  35.368  12.039   8.250
 6905POPC   C3A33653  35.328  12.117   7.950
 6905POPC   C4A33654  35.361  12.057   7.650
 6905POPC   C1B33655  35.423  12.266   8.550
 6905POPC   C2B33656  35.481  12.315   8.250
 6905POPC   C3B33657  35.414  12.286   7.950
 6905POPC   C4B33658  35.432  12.328   7.650
 6906POPC   NC333659  25.238  27.554   9.450
 6906POPC   PO433660  25.222  27.618   9.150
 6906POPC   GL133661  25.293  27.577   8.850
 6906POPC   GL233662  25.265  27.666   8.850
 6906POPC   C1A33663  25.243  27.607   8.550
 6906POPC   D2A33664  25.308  27.623   8.250
 6906POPC   C3A33665  25.228  27.621   7.950
 6906POPC   C4A33666  25.231  27.595   7.650
 6906POPC   C1B33667  25.191  27.821   8.550
 6906POPC   C2B33668  25.220  27.815   8.250
 6906POPC   C3B33669  25.233  27.796   7.950
 6906POPC   C4B33670  25.230  27.819   7.650
 6907POPC   NC333671  44.707  34.571   9.450
 6907POPC   PO433672  44.614  34.574   9.150
 6907POPC   GL133673  44.676  34.536   8.850
 6907POPC   GL233674  44.558  34.641   8.850
 6907POPC   C1A33675  44.679  34.529   8.550
 6907POPC   D2A33676  44.622  34.532   8.250
 6907POPC   C3A33677  44.615  34.549   7.950
 6907POPC   C4A33678  44.652  34.616   7.650
 6907POPC   C1B33679  44.478  34.739   8.550
 6907POPC   C2B33680  44.408  34.651   8.250
 6907POPC   C3B33681  44.487  34.707   7.950
 6907POPC   C4B33682  44.458  34.739   7.650
 6908POPC   NC333683  19.078   4.345   9.450
 6908POPC   PO433684  19.102   4.316   9.150
 6908POPC   GL133685  19.073   4.352   8.850
 6908POPC   GL233686  19.062   4.163   8.850
 6908POPC   C1A33687  19.023   4.309   8.550
 6908POPC   D2A33688  19.099   4.349   8.250
 6908POPC   C3A33689  19.021   4.299   7.950
 6908POPC   C4A33690  19.107   4.300   7.650
 6908POPC   C1B33691  19.120   4.029   8.550
 6908POPC   C2B33692  19.116   4.050   8.250
 6908POPC   C3B33693  19.099   4.042   7.950
 6908POPC   C4B33694  19.114   4.089   7.650
 6909POPC   NC333695   5.857  10.541   9.450
 6909POPC   PO433696   5.840  10.478   9.150
 6909POPC   GL133697   5.861  10.495   8.850
 6909POPC   GL233698   5.804  10.457   8.850
 6909POPC   C1A33699   5.915  10.552   8.550
 6909POPC   D2A33700   5.897  10.571   8.250
 6909POPC   C3A33701   5.883  10.541   7.950
 6909POPC   C4A33702   5.835  10.545   7.650
 6909POPC   C1B33703   5.667  10.326   8.550
 6909POPC   C2B33704   5.703  10.323   8.250
 6909POPC   C3B33705   5.749  10.345   7.950
 6909POPC   C4B33706   5.693  10.368   7.650
 6910POPC   NC333707  24.518  43.114   9.450
 6910POPC   PO433708  24.456  43.110   9.150
 6910POPC   GL133709  24.465  43.083   8.850
 6910POPC   GL233710  24.335  43.115   8.850
 6910POPC   C1A33711  24.475  43.126   8.550
 6910POPC   D2A33712  24.519  43.073   8.250
 6910POPC   C3A33713  24.440  43.157   7.950
 6910POPC   C4A33714  24.533  43.141   7.650
 6910POPC   C1B33715  24.286  43.135   8.550
 6910POPC   C2B33716  24.267  43.140   8.250
 6910POPC   C3B33717  24.202  43.134   7.950
 6910POPC   C4B33718  24.218  43.101   7.650
 6911POPC   NC333719  17.506  26.785   9.450
 6911POPC   PO433720  17.550  26.803   9.150
 6911POPC   GL133721  17.473  26.848   8.850
 6911POPC   GL233722  17.584  26.833   8.850
 6911POPC   C1A33723  17.550  26.823   8.550
 6911POPC   D2A33724  17.506  26.855   8.250
 6911POPC   C3A33725  17.501  26.863   7.950
 6911POPC   C4A33726  17.548  26.830   7.650
 6911POPC   C1B33727  17.767  26.822   8.550
 6911POPC   C2B33728  17.797  26.887   8.250
 6911POPC   C3B33729  17.769  26.872   7.950
 6911POPC   C4B33730  17.738  26.860   7.650
 6912POPC   NC333731  23.718  26.843   9.450
 6912POPC   PO433732  23.678  26.786   9.150
 6912POPC   GL133733  23.712  26.816   8.850
 6912POPC   GL233734  23.658  26.891   8.850
 6912POPC   C1A33735  23.746  26.780   8.550
 6912POPC   D2A33736  23.756  26.772   8.250
 6912POPC   C3A33737  23.706  26.772   7.950
 6912POPC   C4A33738  23.755  26.851   7.650
 6912POPC   C1B33739  23.572  27.020   8.550
 6912POPC   C2B33740  23.585  27.013   8.250
 6912POPC   C3B33741  23.600  27.029   7.950
 6912POPC   C4B33742  23.548  27.070   7.650
 6913POPC   NC333743  42.354  18.238   9.450
 6913POPC   PO433744  42.285  18.261   9.150
 6913POPC   GL133745  42.364  18.322   8.850
 6913POPC   GL233746  42.237  18.339   8.850
 6913POPC   C1A33747  42.354  18.270   8.550
 6913POPC   D2A33748  42.381  18.282   8.250
 6913POPC   C3A33749  42.338  18.282   7.950
 6913POPC   C4A33750  42.376  18.249   7.650
 6913POPC   C1B33751  42.153  18.513   8.550
 6913POPC   C2B33752  42.192  18.475   8.250
 6913POPC   C3B33753  42.216  18.521   7.950
 6913POPC   C4B33754  42.167  18.503   7.650
 6914POPC   NC333755   8.176  12.062   9.450
 6914POPC   PO433756   8.196  12.051   9.150
 6914POPC   GL133757   8.200  12.115   8.850
 6914POPC   GL233758   8.064  11.939   8.850
 6914POPC   C1A33759   8.150  12.057   8.550
 6914POPC   D2A33760   8.219  12.105   8.250
 6914POPC   C3A33761   8.169  12.082   7.950
 6914POPC   C4A33762   8.222  12.111   7.650
 6914POPC   C1B33763   7.983  11.903   8.550
 6914POPC   C2B33764   8.038  11.861   8.250
 6914POPC   C3B33765   8.038  11.933   7.950
 6914POPC   C4B33766   7.982  11.934   7.650
 6915POPC   NC333767   1.264   2.732   9.450
 6915POPC   PO433768   1.175   2.808   9.150
 6915POPC   GL133769   1.177   2.810   8.850
 6915POPC   GL233770   1.140   2.671   8.850
 6915POPC   C1A33771   1.252   2.720   8.550
 6915POPC   D2A33772   1.184   2.801   8.250
 6915POPC   C3A33773   1.206   2.757   7.950
 6915POPC   C4A33774   1.209   2.768   7.650
 6915POPC   C1B33775   0.983   2.638   8.550
 6915POPC   C2B33776   1.029   2.592   8.250
 6915POPC   C3B33777   1.041   2.657   7.950
 6915POPC   C4B33778   1.057   2.620   7.650
 6916POPC   NC333779  11.302  36.922   9.450
 6916POPC   PO433780  11.341  36.909   9.150
 6916POPC   GL133781  11.320  36.862   8.850
 6916POPC   GL233782  11.258  37.034   8.850
 6916POPC   C1A33783  11.295  36.896   8.550
 6916POPC   D2A33784  11.316  36.890   8.250
 6916POPC   C3A33785  11.323  36.881   7.950
 6916POPC   C4A33786  11.268  36.929   7.650
 6916POPC   C1B33787  11.137  37.081   8.550
 6916POPC   C2B33788  11.147  37.129   8.250
 6916POPC   C3B33789  11.179  37.073   7.950
 6916POPC   C4B33790  11.179  37.125   7.650
 6917POPC   NC333791  32.984   8.953   9.450
 6917POPC   PO433792  33.058   8.936   9.150
 6917POPC   GL133793  33.055   9.016   8.850
 6917POPC   GL233794  33.105   8.942   8.850
 6917POPC   C1A33795  33.011   8.942   8.550
 6917POPC   D2A33796  33.050   8.983   8.250
 6917POPC   C3A33797  32.988   8.975   7.950
 6917POPC   C4A33798  33.050   9.005   7.650
 6917POPC   C1B33799  33.215   8.835   8.550
 6917POPC   C2B33800  33.285   8.920   8.250
 6917POPC   C3B33801  33.294   8.927   7.950
 6917POPC   C4B33802  33.234   8.863   7.650
 6918POPC   NC333803   7.413  27.634   9.450
 6918POPC   PO433804   7.437  27.632   9.150
 6918POPC   GL133805   7.393  27.570   8.850
 6918POPC   GL233806   7.538  27.535   8.850
 6918POPC   C1A33807   7.385  27.609   8.550
 6918POPC   D2A33808   7.436  27.565   8.250
 6918POPC   C3A33809   7.403  27.560   7.950
 6918POPC   C4A33810   7.427  27.590   7.650
 6918POPC   C1B33811   7.663  27.510   8.550
 6918POPC   C2B33812   7.667  27.500   8.250
 6918POPC   C3B33813   7.630  27.436   7.950
 6918POPC   C4B33814   7.598  27.473   7.650
 6919POPC   NC333815  43.074  43.914   9.450
 6919POPC   PO433816  43.072  43.897   9.150
 6919POPC   GL133817  43.102  43.870   8.850
 6919POPC   GL233818  43.002  43.961   8.850
 6919POPC   C1A33819  43.110  43.871   8.550
 6919POPC   D2A33820  43.159  43.887   8.250
 6919POPC   C3A33821  43.093  43.933   7.950
 6919POPC   C4A33822  43.068  43.885   7.650
 6919POPC   C1B33823  42.899  43.967   8.550
 6919POPC   C2B33824  42.880  43.979   8.250
 6919POPC   C3B33825  42.911  43.951   7.950
 6919POPC   C4B33826  42.868  43.922   7.650
 6920POPC   NC333827  40.754  27.573   9.450
 6920POPC   PO433828  40.813  27.572   9.150
 6920POPC   GL133829  40.762  27.603   8.850
 6920POPC   GL233830  40.659  27.460   8.850
 6920POPC   C1A33831  40.774  27.602   8.550
 6920POPC   D2A33832  40.815  27.595   8.250
 6920POPC   C3A33833  40.799  27.620   7.950
 6920POPC   C4A33834  40.820  27.567   7.650
 6920POPC   C1B33835  40.617  27.351   8.550
 6920POPC   C2B33836  40.671  27.418   8.250
 6920POPC   C3B33837  40.658  27.369   7.950
 6920POPC   C4B33838  40.610  27.432   7.650
 6921POPC   NC333839   3.525  20.643   9.450
 6921POPC   PO433840   3.534  20.627   9.150
 6921POPC   GL133841   3.500  20.638   8.850
 6921POPC   GL233842   3.387  20.685   8.850
 6921POPC   C1A33843   3.514  20.630   8.550
 6921POPC   D2A33844   3.547  20.659   8.250
 6921POPC   C3A33845   3.574  20.566   7.950
 6921POPC   C4A33846   3.574  20.617   7.650
 6921POPC   C1B33847   3.289  20.683   8.550
 6921POPC   C2B33848   3.318  20.683   8.250
 6921POPC   C3B33849   3.284  20.656   7.950
 6921POPC   C4B33850   3.286  20.657   7.650
 6922POPC   NC333851  10.475  12.099   9.450
 6922POPC   PO433852  10.503  12.100   9.150
 6922POPC   GL133853  10.571  12.072   8.850
 6922POPC   GL233854  10.494  11.917   8.850
 6922POPC   C1A33855  10.509  12.068   8.550
 6922POPC   D2A33856  10.569  12.102   8.250
 6922POPC   C3A33857  10.531  12.088   7.950
 6922POPC   C4A33858  10.553  12.106   7.650
 6922POPC   C1B33859  10.530  11.780   8.550
 6922POPC   C2B33860  10.453  11.788   8.250
 6922POPC   C3B33861  10.524  11.850   7.950
 6922POPC   C4B33862  10.482  11.794   7.650
 6923POPC   NC333863  27.635  44.647   9.450
 6923POPC   PO433864  27.626  44.623   9.150
 6923POPC   GL133865  27.566  44.685   8.850
 6923POPC   GL233866  27.593  44.508   8.850
 6923POPC   C1A33867  27.600  44.700   8.550
 6923POPC   D2A33868  27.559  44.631   8.250
 6923POPC   C3A33869  27.611  44.680   7.950
 6923POPC   C4A33870  27.603  44.695   7.650
 6923POPC   C1B33871  27.520  44.397   8.550
 6923POPC   C2B33872  27.539  44.396   8.250
 6923POPC   C3B33873  27.590  44.389   7.950
 6923POPC   C4B33874  27.576  44.459   7.650
 6924POPC   NC333875   2.014  33.762   9.450
 6924POPC   PO433876   1.994  33.786   9.150
 6924POPC   GL133877   2.004  33.776   8.850
 6924POPC   GL233878   1.847  33.767   8.850
 6924POPC   C1A33879   2.003  33.846   8.550
 6924POPC   D2A33880   2.011  33.779   8.250
 6924POPC   C3A33881   1.980  33.772   7.950
 6924POPC   C4A33882   1.987  33.764   7.650
 6924POPC   C1B33883   1.792  33.701   8.550
 6924POPC   C2B33884   1.741  33.614   8.250
 6924POPC   C3B33885   1.789  33.670   7.950
 6924POPC   C4B33886   1.775  33.637   7.650
 6925POPC   NC333887  33.825  35.349   9.450
 6925POPC   PO433888  33.800  35.317   9.150
 6925POPC   GL133889  33.819  35.368   8.850
 6925POPC   GL233890  33.709  35.240   8.850
 6925POPC   C1A33891  33.821  35.385   8.550
 6925POPC   D2A33892  33.826  35.351   8.250
 6925POPC   C3A33893  33.829  35.381   7.950
 6925POPC   C4A33894  33.773  35.314   7.650
 6925POPC   C1B33895  33.642  35.219   8.550
 6925POPC   C2B33896  33.634  35.194   8.250
 6925POPC   C3B33897  33.629  35.168   7.950
 6925POPC   C4B33898  33.636  35.199   7.650
 6926POPC   NC333899  22.167  21.381   9.450
 6926POPC   PO433900  22.198  21.387   9.150
 6926POPC   GL133901  22.134  21.367   8.850
 6926POPC   GL233902  22.091  21.310   8.850
 6926POPC   C1A33903  22.118  21.428   8.550
 6926POPC   D2A33904  22.203  21.394   8.250
 6926POPC   C3A33905  22.159  21.432   7.950
 6926POPC   C4A33906  22.137  21.367   7.650
 6926POPC   C1B33907  21.880  21.321   8.550
 6926POPC   C2B33908  21.879  21.318   8.250
 6926POPC   C3B33909  21.921  21.336   7.950
 6926POPC   C4B33910  21.924  21.296   7.650
 6927POPC   NC333911  12.888  14.423   9.450
 6927POPC   PO433912  12.823  14.453   9.150
 6927POPC   GL133913  12.882  14.424   8.850
 6927POPC   GL233914  12.865  14.337   8.850
 6927POPC   C1A33915  12.870  14.451   8.550
 6927POPC   D2A33916  12.826  14.424   8.250
 6927POPC   C3A33917  12.890  14.423   7.950
 6927POPC   C4A33918  12.896  14.373   7.650
 6927POPC   C1B33919  12.920  14.185   8.550
 6927POPC   C2B33920  12.943  14.158   8.250
 6927POPC   C3B33921  13.000  14.138   7.950
 6927POPC   C4B33922  13.002  14.140   7.650
 6928POPC   NC333923  21.419  12.110   9.450
 6928POPC   PO433924  21.422  12.074   9.150
 6928POPC   GL133925  21.363  12.043   8.850
 6928POPC   GL233926  21.329  11.994   8.850
 6928POPC   C1A33927  21.433  12.047   8.550
 6928POPC   D2A33928  21.385  12.115   8.250
 6928POPC   C3A33929  21.379  12.125   7.950
 6928POPC   C4A33930  21.389  12.103   7.650
 6928POPC   C1B33931  21.260  11.851   8.550
 6928POPC   C2B33932  21.260  11.864   8.250
 6928POPC   C3B33933  21.185  11.889   7.950
 6928POPC   C4B33934  21.252  11.899   7.650
 6929POPC   NC333935  37.637  40.791   9.450
 6929POPC   PO433936  37.708  40.823   9.150
 6929POPC   GL133937  37.724  40.756   8.850
 6929POPC   GL233938  37.588  40.855   8.850
 6929POPC   C1A33939  37.724  40.810   8.550
 6929POPC   D2A33940  37.666  40.828   8.250
 6929POPC   C3A33941  37.722  40.791   7.950
 6929POPC   C4A33942  37.679  40.823   7.650
 6929POPC   C1B33943  37.590  41.022   8.550
 6929POPC   C2B33944  37.581  40.989   8.250
 6929POPC   C3B33945  37.530  40.973   7.950
 6929POPC   C4B33946  37.526  40.942   7.650
 6930POPC   NC333947  25.264  37.711   9.450
 6930POPC   PO433948  25.279  37.706   9.150
 6930POPC   GL133949  25.219  37.675   8.850
 6930POPC   GL233950  25.323  37.768   8.850
 6930POPC   C1A33951  25.281  37.687   8.550
 6930POPC   D2A33952  25.234  37.689   8.250
 6930POPC   C3A33953  25.294  37.664   7.950
 6930POPC   C4A33954  25.263  37.726   7.650
 6930POPC   C1B33955  25.449  37.849   8.550
 6930POPC   C2B33956  25.413  37.885   8.250
 6930POPC   C3B33957  25.454  37.846   7.950
 6930POPC   C4B33958  25.447  37.835   7.650
 6931POPC   NC333959  21.396  12.857   9.450
 6931POPC   PO433960  21.431  12.845   9.150
 6931POPC   GL133961  21.404  12.884   8.850
 6931POPC   GL233962  21.283  12.848   8.850
 6931POPC   C1A33963  21.378  12.805   8.550
 6931POPC   D2A33964  21.418  12.841   8.250
 6931POPC   C3A33965  21.395  12.851   7.950
 6931POPC   C4A33966  21.363  12.806   7.650
 6931POPC   C1B33967  21.131  12.864   8.550
 6931POPC   C2B33968  21.130  12.932   8.250
 6931POPC   C3B33969  21.139  12.904   7.950
 6931POPC   C4B33970  21.092  12.843   7.650
 6932POPC   NC333971  30.690  17.461   9.450
 6932POPC   PO433972  30.668  17.541   9.150
 6932POPC   GL133973  30.688  17.554   8.850
 6932POPC   GL233974  30.675  17.638   8.850
 6932POPC   C1A33975  30.661  17.527   8.550
 6932POPC   D2A33976  30.692  17.495   8.250
 6932POPC   C3A33977  30.698  17.517   7.950
 6932POPC   C4A33978  30.704  17.475   7.650
 6932POPC   C1B33979  30.623  17.773   8.550
 6932POPC   C2B33980  30.558  17.690   8.250
 6932POPC   C3B33981  30.558  17.693   7.950
 6932POPC   C4B33982  30.561  17.754   7.650
 6933POPC   NC333983  24.471   7.435   9.450
 6933POPC   PO433984  24.519   7.399   9.150
 6933POPC   GL133985  24.479   7.383   8.850
 6933POPC   GL233986  24.421   7.340   8.850
 6933POPC   C1A33987  24.509   7.441   8.550
 6933POPC   D2A33988  24.514   7.373   8.250
 6933POPC   C3A33989  24.529   7.448   7.950
 6933POPC   C4A33990  24.465   7.449   7.650
 6933POPC   C1B33991  24.297   7.274   8.550
 6933POPC   C2B33992  24.333   7.251   8.250
 6933POPC   C3B33993  24.312   7.264   7.950
 6933POPC   C4B33994  24.349   7.267   7.650
 6934POPC   NC333995  28.346  40.765   9.450
 6934POPC   PO433996  28.351  40.757   9.150
 6934POPC   GL133997  28.412  40.750   8.850
 6934POPC   GL233998  28.285  40.689   8.850
 6934POPC   C1A33999  28.346  40.773   8.550
 6934POPC   D2A34000  28.337  40.733   8.250
 6934POPC   C3A34001  28.379  40.780   7.950
 6934POPC   C4A34002  28.333  40.772   7.650
 6934POPC   C1B34003  28.126  40.612   8.550
 6934POPC   C2B34004  28.184  40.590   8.250
 6934POPC   C3B34005  28.140  40.588   7.950
 6934POPC   C4B34006  28.160  40.646   7.650
 6935POPC   NC334007  33.765   7.424   9.450
 6935POPC   PO434008  33.803   7.374   9.150
 6935POPC   GL134009  33.772   7.371   8.850
 6935POPC   GL234010  33.656   7.393   8.850
 6935POPC   C1A34011  33.797   7.384   8.550
 6935POPC   D2A34012  33.795   7.381   8.250
 6935POPC   C3A34013  33.762   7.388   7.950
 6935POPC   C4A34014  33.816   7.447   7.650
 6935POPC   C1B34015  33.564   7.467   8.550
 6935POPC   C2B34016  33.566   7.494   8.250
 6935POPC   C3B34017  33.551   7.438   7.950
 6935POPC   C4B34018  33.571   7.465   7.650
 6936POPC   NC334019  12.889  40.011   9.450
 6936POPC   PO434020  12.847  39.966   9.150
 6936POPC   GL134021  12.859  39.985   8.850
 6936POPC   GL234022  12.907  39.958   8.850
 6936POPC   C1A34023  12.861  39.992   8.550
 6936POPC   D2A34024  12.847  40.022   8.250
 6936POPC   C3A34025  12.881  40.002   7.950
 6936POPC   C4A34026  12.821  40.015   7.650
 6936POPC   C1B34027  13.014  39.841   8.550
 6936POPC   C2B34028  13.019  39.820   8.250
 6936POPC   C3B34029  12.999  39.762   7.950
 6936POPC   C4B34030  13.011  39.829   7.650
 6937POPC   NC334031  35.377   7.437   9.450
 6937POPC   PO434032  35.366   7.390   9.150
 6937POPC   GL134033  35.340   7.457   8.850
 6937POPC   GL234034  35.421   7.296   8.850
 6937POPC   C1A34035  35.376   7.425   8.550
 6937POPC   D2A34036  35.366   7.413   8.250
 6937POPC   C3A34037  35.373   7.398   7.950
 6937POPC   C4A34038  35.315   7.433   7.650
 6937POPC   C1B34039  35.517   7.209   8.550
 6937POPC   C2B34040  35.504   7.265   8.250
 6937POPC   C3B34041  35.510   7.283   7.950
 6937POPC   C4B34042  35.523   7.259   7.650
 6938POPC   NC334043   8.176  32.211   9.450
 6938POPC   PO434044   8.185  32.204   9.150
 6938POPC   GL134045   8.189  32.268   8.850
 6938POPC   GL234046   8.337  32.154   8.850
 6938POPC   C1A34047   8.168  32.219   8.550
 6938POPC   D2A34048   8.200  32.265   8.250
 6938POPC   C3A34049   8.184  32.277   7.950
 6938POPC   C4A34050   8.156  32.274   7.650
 6938POPC   C1B34051   8.339  32.067   8.550
 6938POPC   C2B34052   8.432  32.054   8.250
 6938POPC   C3B34053   8.430  32.128   7.950
 6938POPC   C4B34054   8.344  32.087   7.650
 6939POPC   NC334055  15.911  24.448   9.450
 6939POPC   PO434056  15.934  24.481   9.150
 6939POPC   GL134057  15.963  24.459   8.850
 6939POPC   GL234058  15.850  24.603   8.850
 6939POPC   C1A34059  15.986  24.507   8.550
 6939POPC   D2A34060  16.004  24.498   8.250
 6939POPC   C3A34061  15.976  24.466   7.950
 6939POPC   C4A34062  15.945  24.512   7.650
 6939POPC   C1B34063  15.731  24.586   8.550
 6939POPC   C2B34064  15.692  24.599   8.250
 6939POPC   C3B34065  15.778  24.570   7.950
 6939POPC   C4B34066  15.756  24.620   7.650
 6940POPC   NC334067   9.745  34.583   9.450
 6940POPC   PO434068   9.770  34.571   9.150
 6940POPC   GL134069   9.749  34.603   8.850
 6940POPC   GL234070   9.801  34.676   8.850
 6940POPC   C1A34071   9.711  34.558   8.550
 6940POPC   D2A34072   9.714  34.588   8.250
 6940POPC   C3A34073   9.740  34.527   7.950
 6940POPC   C4A34074   9.780  34.620   7.650
 6940POPC   C1B34075   9.781  34.798   8.550
 6940POPC   C2B34076   9.830  34.808   8.250
 6940POPC   C3B34077   9.796  34.784   7.950
 6940POPC   C4B34078   9.825  34.791   7.650
 6941POPC   NC334079   1.203  22.113   9.450
 6941POPC   PO434080   1.170  22.118   9.150
 6941POPC   GL134081   1.191  22.159   8.850
 6941POPC   GL234082   1.236  22.021   8.850
 6941POPC   C1A34083   1.227  22.201   8.550
 6941POPC   D2A34084   1.231  22.170   8.250
 6941POPC   C3A34085   1.171  22.202   7.950
 6941POPC   C4A34086   1.180  22.145   7.650
 6941POPC   C1B34087   1.236  21.902   8.550
 6941POPC   C2B34088   1.247  21.900   8.250
 6941POPC   C3B34089   1.325  21.893   7.950
 6941POPC   C4B34090   1.246  21.872   7.650
 6942POPC   NC334091  33.845  22.179   9.450
 6942POPC   PO434092  33.807  22.168   9.150
 6942POPC   GL134093  33.767  22.128   8.850
 6942POPC   GL234094  33.714  22.206   8.850
 6942POPC   C1A34095  33.769  22.133   8.550
 6942POPC   D2A34096  33.818  22.175   8.250
 6942POPC   C3A34097  33.838  22.163   7.950
 6942POPC   C4A34098  33.794  22.117   7.650
 6942POPC   C1B34099  33.566  22.248   8.550
 6942POPC   C2B34100  33.556  22.256   8.250
 6942POPC   C3B34101  33.604  22.217   7.950
 6942POPC   C4B34102  33.555  22.287   7.650
 6943POPC   NC334103  18.315  29.136   9.450
 6943POPC   PO434104  18.249  29.178   9.150
 6943POPC   GL134105  18.268  29.133   8.850
 6943POPC   GL234106  18.261  29.015   8.850
 6943POPC   C1A34107  18.274  29.149   8.550
 6943POPC   D2A34108  18.271  29.154   8.250
 6943POPC   C3A34109  18.289  29.180   7.950
 6943POPC   C4A34110  18.318  29.129   7.650
 6943POPC   C1B34111  18.334  28.883   8.550
 6943POPC   C2B34112  18.260  28.875   8.250
 6943POPC   C3B34113  18.280  28.895   7.950
 6943POPC   C4B34114  18.266  28.907   7.650
 6944POPC   NC334115  15.202  40.774   9.450
 6944POPC   PO434116  15.143  40.789   9.150
 6944POPC   GL134117  15.159  40.784   8.850
 6944POPC   GL234118  15.272  40.848   8.850
 6944POPC   C1A34119  15.184  40.784   8.550
 6944POPC   D2A34120  15.192  40.820   8.250
 6944POPC   C3A34121  15.142  40.740   7.950
 6944POPC   C4A34122  15.213  40.768   7.650
 6944POPC   C1B34123  15.391  40.992   8.550
 6944POPC   C2B34124  15.316  40.968   8.250
 6944POPC   C3B34125  15.368  40.977   7.950
 6944POPC   C4B34126  15.398  40.966   7.650
 6945POPC   NC334127  13.602  14.424   9.450
 6945POPC   PO434128  13.605  14.441   9.150
 6945POPC   GL134129  13.622  14.430   8.850
 6945POPC   GL234130  13.507  14.287   8.850
 6945POPC   C1A34131  13.623  14.434   8.550
 6945POPC   D2A34132  13.667  14.375   8.250
 6945POPC   C3A34133  13.650  14.445   7.950
 6945POPC   C4A34134  13.665  14.419   7.650
 6945POPC   C1B34135  13.460  14.226   8.550
 6945POPC   C2B34136  13.516  14.227   8.250
 6945POPC   C3B34137  13.486  14.203   7.950
 6945POPC   C4B34138  13.509  14.255   7.650
 6946POPC   NC334139  25.259   3.542   9.450
 6946POPC   PO434140  25.300   3.536   9.150
 6946POPC   GL134141  25.218   3.522   8.850
 6946POPC   GL234142  25.203   3.627   8.850
 6946POPC   C1A34143  25.262   3.497   8.550
 6946POPC   D2A34144  25.294   3.555   8.250
 6946POPC   C3A34145  25.280   3.547   7.950
 6946POPC   C4A34146  25.303   3.524   7.650
 6946POPC   C1B34147  25.177   3.734   8.550
 6946POPC   C2B34148  25.140   3.714   8.250
 6946POPC   C3B34149  25.114   3.704   7.950
 6946POPC   C4B34150  25.122   3.766   7.650
 6947POPC   NC334151  32.996  36.885   9.450
 6947POPC   PO434152  33.013  36.911   9.150
 6947POPC   GL134153  32.987  36.922   8.850
 6947POPC   GL234154  33.191  36.906   8.850
 6947POPC   C1A34155  33.057  36.898   8.550
 6947POPC   D2A34156  33.047  36.883   8.250
 6947POPC   C3A34157  32.993  36.911   7.950
 6947POPC   C4A34158  33.073  36.863   7.650
 6947POPC   C1B34159  33.253  36.888   8.550
 6947POPC   C2B34160  33.263  36.863   8.250
 6947POPC   C3B34161  33.300  36.920   7.950
 6947POPC   C4B34162  33.244  36.916   7.650
 6948POPC   NC334163  31.493  34.551   9.450
 6948POPC   PO434164  31.456  34.573   9.150
 6948POPC   GL134165  31.514  34.581   8.850
 6948POPC   GL234166  31.427  34.658   8.850
 6948POPC   C1A34167  31.429  34.618   8.550
 6948POPC   D2A34168  31.451  34.619   8.250
 6948POPC   C3A34169  31.457  34.583   7.950
 6948POPC   C4A34170  31.455  34.622   7.650
 6948POPC   C1B34171  31.298  34.779   8.550
 6948POPC   C2B34172  31.290  34.792   8.250
 6948POPC   C3B34173  31.278  34.719   7.950
 6948POPC   C4B34174  31.255  34.780   7.650
 6949POPC   NC334175  38.411  16.763   9.450
 6949POPC   PO434176  38.426  16.748   9.150
 6949POPC   GL134177  38.445  16.684   8.850
 6949POPC   GL234178  38.289  16.725   8.850
 6949POPC   C1A34179  38.461  16.711   8.550
 6949POPC   D2A34180  38.490  16.771   8.250
 6949POPC   C3A34181  38.461  16.692   7.950
 6949POPC   C4A34182  38.430  16.747   7.650
 6949POPC   C1B34183  38.182  16.741   8.550
 6949POPC   C2B34184  38.206  16.687   8.250
 6949POPC   C3B34185  38.235  16.701   7.950
 6949POPC   C4B34186  38.210  16.700   7.650
 6950POPC   NC334187  22.960  29.166   9.450
 6950POPC   PO434188  22.942  29.164   9.150
 6950POPC   GL134189  22.941  29.193   8.850
 6950POPC   GL234190  22.825  29.225   8.850
 6950POPC   C1A34191  22.955  29.144   8.550
 6950POPC   D2A34192  22.898  29.155   8.250
 6950POPC   C3A34193  22.928  29.153   7.950
 6950POPC   C4A34194  22.894  29.143   7.650
 6950POPC   C1B34195  22.770  29.304   8.550
 6950POPC   C2B34196  22.691  29.252   8.250
 6950POPC   C3B34197  22.680  29.322   7.950
 6950POPC   C4B34198  22.773  29.243   7.650
 6951POPC   NC334199  43.139  29.147   9.450
 6951POPC   PO434200  43.096  29.160   9.150
 6951POPC   GL134201  43.122  29.181   8.850
 6951POPC   GL234202  43.191  29.076   8.850
 6951POPC   C1A34203  43.128  29.149   8.550
 6951POPC   D2A34204  43.113  29.175   8.250
 6951POPC   C3A34205  43.100  29.105   7.950
 6951POPC   C4A34206  43.067  29.103   7.650
 6951POPC   C1B34207  43.272  28.931   8.550
 6951POPC   C2B34208  43.313  28.929   8.250
 6951POPC   C3B34209  43.295  28.942   7.950
 6951POPC   C4B34210  43.252  28.976   7.650
 6952POPC   NC334211  11.312  12.809   9.450
 6952POPC   PO434212  11.251  12.829   9.150
 6952POPC   GL134213  11.259  12.852   8.850
 6952POPC   GL234214  11.161  12.930   8.850
 6952POPC   C1A34215  11.255  12.900   8.550
 6952POPC   D2A34216  11.252  12.861   8.250
 6952POPC   C3A34217  11.305  12.866   7.950
 6952POPC   C4A34218  11.329  12.815   7.650
 6952POPC   C1B34219  11.027  12.899   8.550
 6952POPC   C2B34220  11.094  12.927   8.250
 6952POPC   C3B34221  11.089  12.957   7.950
 6952POPC   C4B34222  11.106  12.887   7.650
 6953POPC   NC334223  22.209  32.232   9.450
 6953POPC   PO434224  22.203  32.203   9.150
 6953POPC   GL134225  22.134  32.199   8.850
 6953POPC   GL234226  22.143  32.127   8.850
 6953POPC   C1A34227  22.166  32.201   8.550
 6953POPC   D2A34228  22.148  32.285   8.250
 6953POPC   C3A34229  22.201  32.233   7.950
 6953POPC   C4A34230  22.119  32.271   7.650
 6953POPC   C1B34231  22.199  32.042   8.550
 6953POPC   C2B34232  22.165  31.963   8.250
 6953POPC   C3B34233  22.171  31.950   7.950
 6953POPC   C4B34234  22.142  32.023   7.650
 6954POPC   NC334235  26.837  30.692   9.450
 6954POPC   PO434236  26.856  30.654   9.150
 6954POPC   GL134237  26.810  30.743   8.850
 6954POPC   GL234238  26.893  30.535   8.850
 6954POPC   C1A34239  26.781  30.713   8.550
 6954POPC   D2A34240  26.819  30.740   8.250
 6954POPC   C3A34241  26.803  30.705   7.950
 6954POPC   C4A34242  26.859  30.710   7.650
 6954POPC   C1B34243  26.910  30.501   8.550
 6954POPC   C2B34244  26.939  30.445   8.250
 6954POPC   C3B34245  26.869  30.459   7.950
 6954POPC   C4B34246  26.872  30.430   7.650
 6955POPC   NC334247  11.338  18.325   9.450
 6955POPC   PO434248  11.339  18.248   9.150
 6955POPC   GL134249  11.261  18.320   8.850
 6955POPC   GL234250  11.139  18.255   8.850
 6955POPC   C1A34251  11.288  18.243   8.550
 6955POPC   D2A34252  11.269  18.237   8.250
 6955POPC   C3A34253  11.251  18.322   7.950
 6955POPC   C4A34254  11.305  18.327   7.650
 6955POPC   C1B34255  11.010  18.367   8.550
 6955POPC   C2B34256  11.015  18.304   8.250
 6955POPC   C3B34257  11.075  18.304   7.950
 6955POPC   C4B34258  11.096  18.329   7.650
 6956POPC   NC334259   2.812   1.256   9.450
 6956POPC   PO434260   2.756   1.260   9.150
 6956POPC   GL134261   2.720   1.164   8.850
 6956POPC   GL234262   2.759   1.324   8.850
 6956POPC   C1A34263   2.775   1.168   8.550
 6956POPC   D2A34264   2.730   1.196   8.250
 6956POPC   C3A34265   2.800   1.256   7.950
 6956POPC   C4A34266   2.735   1.178   7.650
 6956POPC   C1B34267   2.827   1.417   8.550
 6956POPC   C2B34268   2.813   1.433   8.250
 6956POPC   C3B34269   2.790   1.438   7.950
 6956POPC   C4B34270   2.804   1.500   7.650
 6957POPC   NC334271  13.662  22.976   9.450
 6957POPC   PO434272  13.578  22.891   9.150
 6957POPC   GL134273  13.630  22.941   8.850
 6957POPC   GL234274  13.496  22.928   8.850
 6957POPC   C1A34275  13.601  22.891   8.550
 6957POPC   D2A34276  13.611  22.949   8.250
 6957POPC   C3A34277  13.618  22.982   7.950
 6957POPC   C4A34278  13.633  22.947   7.650
 6957POPC   C1B34279  13.354  22.995   8.550
 6957POPC   C2B34280  13.330  23.001   8.250
 6957POPC   C3B34281  13.425  22.933   7.950
 6957POPC   C4B34282  13.346  22.934   7.650
 6958POPC   NC334283   2.754   5.046   9.450
 6958POPC   PO434284   2.716   5.069   9.150
 6958POPC   GL134285   2.792   5.140   8.850
 6958POPC   GL234286   2.698   5.257   8.850
 6958POPC   C1A34287   2.810   5.086   8.550
 6958POPC   D2A34288   2.812   5.125   8.250
 6958POPC   C3A34289   2.789   5.076   7.950
 6958POPC   C4A34290   2.788   5.085   7.650
 6958POPC   C1B34291   2.680   5.367   8.550
 6958POPC   C2B34292   2.638   5.285   8.250
 6958POPC   C3B34293   2.693   5.301   7.950
 6958POPC   C4B34294   2.632   5.283   7.650
 6959POPC   NC334295  41.577  36.126   9.450
 6959POPC   PO434296  41.586  36.131   9.150
 6959POPC   GL134297  41.558  36.159   8.850
 6959POPC   GL234298  41.552  35.972   8.850
 6959POPC   C1A34299  41.535  36.138   8.550
 6959POPC   D2A34300  41.573  36.087   8.250
 6959POPC   C3A34301  41.595  36.130   7.950
 6959POPC   C4A34302  41.569  36.105   7.650
 6959POPC   C1B34303  41.624  35.922   8.550
 6959POPC   C2B34304  41.600  35.869   8.250
 6959POPC   C3B34305  41.542  35.927   7.950
 6959POPC   C4B34306  41.598  35.884   7.650
 6960POPC   NC334307  22.979   5.084   9.450
 6960POPC   PO434308  22.969   5.106   9.150
 6960POPC   GL134309  22.953   5.111   8.850
 6960POPC   GL234310  23.035   5.221   8.850
 6960POPC   C1A34311  22.970   5.127   8.550
 6960POPC   D2A34312  22.962   5.101   8.250
 6960POPC   C3A34313  22.961   5.128   7.950
 6960POPC   C4A34314  22.931   5.081   7.650
 6960POPC   C1B34315  23.069   5.276   8.550
 6960POPC   C2B34316  23.123   5.315   8.250
 6960POPC   C3B34317  23.052   5.299   7.950
 6960POPC   C4B34318  23.136   5.291   7.650
 6961POPC   NC334319   5.129  19.009   9.450
 6961POPC   PO434320   5.136  19.092   9.150
 6961POPC   GL134321   5.090  19.100   8.850
 6961POPC   GL234322   4.958  18.984   8.850
 6961POPC   C1A34323   5.075  19.009   8.550
 6961POPC   D2A34324   5.076  19.029   8.250
 6961POPC   C3A34325   5.072  19.076   7.950
 6961POPC   C4A34326   5.086  19.076   7.650
 6961POPC   C1B34327   4.814  18.998   8.550
 6961POPC   C2B34328   4.903  19.011   8.250
 6961POPC   C3B34329   4.861  18.944   7.950
 6961POPC   C4B34330   4.818  18.934   7.650
 6962POPC   NC334331  10.571   3.543   9.450
 6962POPC   PO434332  10.544   3.570   9.150
 6962POPC   GL134333  10.476   3.532   8.850
 6962POPC   GL234334  10.384   3.559   8.850
 6962POPC   C1A34335  10.569   3.524   8.550
 6962POPC   D2A34336  10.532   3.561   8.250
 6962POPC   C3A34337  10.528   3.521   7.950
 6962POPC   C4A34338  10.488   3.550   7.650
 6962POPC   C1B34339  10.237   3.545   8.550
 6962POPC   C2B34340  10.311   3.570   8.250
 6962POPC   C3B34341  10.258   3.600   7.950
 6962POPC   C4B34342  10.308   3.545   7.650
 6963POPC   NC334343   1.221  29.122   9.450
 6963POPC   PO434344   1.172  29.193   9.150
 6963POPC   GL134345   1.261  29.135   8.850
 6963POPC   GL234346   1.336  29.196   8.850
 6963POPC   C1A34347   1.257  29.158   8.550
 6963POPC   D2A34348   1.202  29.137   8.250
 6963POPC   C3A34349   1.198  29.120   7.950
 6963POPC   C4A34350   1.252  29.138   7.650
 6963POPC   C1B34351   1.493  29.185   8.550
 6963POPC   C2B34352   1.430  29.184   8.250
 6963POPC   C3B34353   1.480  29.193   7.950
 6963POPC   C4B34354   1.446  29.144   7.650
 6964POPC   NC334355  39.997  33.839   9.450
 6964POPC   PO434356  39.985  33.816   9.150
 6964POPC   GL134357  40.000  33.814   8.850
 6964POPC   GL234358  40.153  33.706   8.850
 6964POPC   C1A34359  40.042  33.784   8.550
 6964POPC   D2A34360  40.033  33.817   8.250
 6964POPC   C3A34361  39.968  33.776   7.950
 6964POPC   C4A34362  40.009  33.827   7.650
 6964POPC   C1B34363  40.201  33.606   8.550
 6964POPC   C2B34364  40.221  33.600   8.250
 6964POPC   C3B34365  40.216  33.686   7.950
 6964POPC   C4B34366  40.162  33.618   7.650
 6965POPC   NC334367   0.416  22.949   9.450
 6965POPC   PO434368   0.464  22.926   9.150
 6965POPC   GL134369   0.422  22.896   8.850
 6965POPC   GL234370   0.384  22.813   8.850
 6965POPC   C1A34371   0.469  22.926   8.550
 6965POPC   D2A34372   0.481  22.951   8.250
 6965POPC   C3A34373   0.449  22.889   7.950
 6965POPC   C4A34374   0.461  22.946   7.650
 6965POPC   C1B34375   0.420  22.695   8.550
 6965POPC   C2B34376   0.367  22.640   8.250
 6965POPC   C3B34377   0.424  22.668   7.950
 6965POPC   C4B34378   0.448  22.673   7.650
 6966POPC   NC334379  25.290   2.030   9.450
 6966POPC   PO434380  25.222   2.028   9.150
 6966POPC   GL134381  25.275   2.001   8.850
 6966POPC   GL234382  25.292   1.828   8.850
 6966POPC   C1A34383  25.313   1.994   8.550
 6966POPC   D2A34384  25.241   2.029   8.250
 6966POPC   C3A34385  25.308   1.962   7.950
 6966POPC   C4A34386  25.230   1.966   7.650
 6966POPC   C1B34387  25.359   1.778   8.550
 6966POPC   C2B34388  25.378   1.761   8.250
 6966POPC   C3B34389  25.308   1.719   7.950
 6966POPC   C4B34390  25.343   1.790   7.650
 6967POPC   NC334391  25.253   2.773   9.450
 6967POPC   PO434392  25.285   2.788   9.150
 6967POPC   GL134393  25.248   2.759   8.850
 6967POPC   GL234394  25.193   2.864   8.850
 6967POPC   C1A34395  25.243   2.763   8.550
 6967POPC   D2A34396  25.284   2.746   8.250
 6967POPC   C3A34397  25.228   2.755   7.950
 6967POPC   C4A34398  25.307   2.806   7.650
 6967POPC   C1B34399  25.084   2.934   8.550
 6967POPC   C2B34400  25.107   2.919   8.250
 6967POPC   C3B34401  25.097   2.952   7.950
 6967POPC   C4B34402  25.107   2.905   7.650
 6968POPC   NC334403  19.083  43.153   9.450
 6968POPC   PO434404  19.048  43.131   9.150
 6968POPC   GL134405  19.026  43.091   8.850
 6968POPC   GL234406  18.942  43.078   8.850
 6968POPC   C1A34407  19.042  43.104   8.550
 6968POPC   D2A34408  19.103  43.133   8.250
 6968POPC   C3A34409  19.100  43.117   7.950
 6968POPC   C4A34410  19.045  43.145   7.650
 6968POPC   C1B34411  18.820  43.108   8.550
 6968POPC   C2B34412  18.847  43.076   8.250
 6968POPC   C3B34413  18.829  43.064   7.950
 6968POPC   C4B34414  18.846  43.109   7.650
 6969POPC   NC334415  25.304   5.044   9.450
 6969POPC   PO434416  25.262   5.142   9.150
 6969POPC   GL134417  25.259   5.104   8.850
 6969POPC   GL234418  25.168   5.066   8.850
 6969POPC   C1A34419  25.241   5.140   8.550
 6969POPC   D2A34420  25.312   5.043   8.250
 6969POPC   C3A34421  25.300   5.080   7.950
 6969POPC   C4A34422  25.265   5.100   7.650
 6969POPC   C1B34423  25.031   5.145   8.550
 6969POPC   C2B34424  25.068   5.140   8.250
 6969POPC   C3B34425  25.056   5.112   7.950
 6969POPC   C4B34426  25.067   5.086   7.650
 6970POPC   NC334427  26.846  11.291   9.450
 6970POPC   PO434428  26.783  11.331   9.150
 6970POPC   GL134429  26.811  11.268   8.850
 6970POPC   GL234430  26.954  11.369   8.850
 6970POPC   C1A34431  26.800  11.279   8.550
 6970POPC   D2A34432  26.862  11.320   8.250
 6970POPC   C3A34433  26.789  11.327   7.950
 6970POPC   C4A34434  26.863  11.256   7.650
 6970POPC   C1B34435  27.108  11.342   8.550
 6970POPC   C2B34436  27.036  11.336   8.250
 6970POPC   C3B34437  27.110  11.326   7.950
 6970POPC   C4B34438  27.060  11.367   7.650
 6971POPC   NC334439  40.805  36.086   9.450
 6971POPC   PO434440  40.814  36.164   9.150
 6971POPC   GL134441  40.736  36.135   8.850
 6971POPC   GL234442  40.913  36.054   8.850
 6971POPC   C1A34443  40.759  36.164   8.550
 6971POPC   D2A34444  40.743  36.106   8.250
 6971POPC   C3A34445  40.790  36.081   7.950
 6971POPC   C4A34446  40.794  36.161   7.650
 6971POPC   C1B34447  41.034  35.962   8.550
 6971POPC   C2B34448  40.972  35.970   8.250
 6971POPC   C3B34449  40.946  35.949   7.950
 6971POPC   C4B34450  41.036  36.025   7.650
 6972POPC   NC334451  43.120  33.056   9.450
 6972POPC   PO434452  43.101  32.974   9.150
 6972POPC   GL134453  43.093  33.052   8.850
 6972POPC   GL234454  43.006  32.890   8.850
 6972POPC   C1A34455  43.129  33.004   8.550
 6972POPC   D2A34456  43.102  33.054   8.250
 6972POPC   C3A34457  43.141  32.980   7.950
 6972POPC   C4A34458  43.150  33.067   7.650
 6972POPC   C1B34459  42.974  32.830   8.550
 6972POPC   C2B34460  42.989  32.811   8.250
 6972POPC   C3B34461  42.974  32.804   7.950
 6972POPC   C4B34462  42.912  32.803   7.650
 6973POPC   NC334463  33.060  39.976   9.450
 6973POPC   PO434464  33.056  40.053   9.150
 6973POPC   GL134465  33.045  40.048   8.850
 6973POPC   GL234466  33.101  40.054   8.850
 6973POPC   C1A34467  33.055  40.032   8.550
 6973POPC   D2A34468  33.046  40.006   8.250
 6973POPC   C3A34469  32.998  39.977   7.950
 6973POPC   C4A34470  33.070  39.996   7.650
 6973POPC   C1B34471  33.279  40.084   8.550
 6973POPC   C2B34472  33.276  40.073   8.250
 6973POPC   C3B34473  33.211  40.051   7.950
 6973POPC   C4B34474  33.243  40.073   7.650
 6974POPC   NC334475  36.109  36.136   9.450
 6974POPC   PO434476  36.116  36.177   9.150
 6974POPC   GL134477  36.160  36.110   8.850
 6974POPC   GL234478  36.049  36.052   8.850
 6974POPC   C1A34479  36.175  36.084   8.550
 6974POPC   D2A34480  36.124  36.160   8.250
 6974POPC   C3A34481  36.084  36.118   7.950
 6974POPC   C4A34482  36.121  36.115   7.650
 6974POPC   C1B34483  36.017  35.886   8.550
 6974POPC   C2B34484  36.067  35.938   8.250
 6974POPC   C3B34485  36.086  35.896   7.950
 6974POPC   C4B34486  36.033  35.846   7.650
 6975POPC   NC334487  36.160  43.901   9.450
 6975POPC   PO434488  36.083  43.862   9.150
 6975POPC   GL134489  36.088  43.886   8.850
 6975POPC   GL234490  36.217  43.808   8.850
 6975POPC   C1A34491  36.114  43.916   8.550
 6975POPC   D2A34492  36.088  43.873   8.250
 6975POPC   C3A34493  36.160  43.859   7.950
 6975POPC   C4A34494  36.132  43.900   7.650
 6975POPC   C1B34495  36.273  43.717   8.550
 6975POPC   C2B34496  36.274  43.685   8.250
 6975POPC   C3B34497  36.345  43.721   7.950
 6975POPC   C4B34498  36.292  43.727   7.650
 6976POPC   NC334499  41.602  35.365   9.450
 6976POPC   PO434500  41.573  35.367   9.150
 6976POPC   GL134501  41.560  35.342   8.850
 6976POPC   GL234502  41.424  35.385   8.850
 6976POPC   C1A34503  41.595  35.384   8.550
 6976POPC   D2A34504  41.561  35.352   8.250
 6976POPC   C3A34505  41.560  35.385   7.950
 6976POPC   C4A34506  41.589  35.336   7.650
 6976POPC   C1B34507  41.320  35.293   8.550
 6976POPC   C2B34508  41.325  35.367   8.250
 6976POPC   C3B34509  41.307  35.327   7.950
 6976POPC   C4B34510  41.289  35.313   7.650
 6977POPC   NC334511  36.103  16.779   9.450
 6977POPC   PO434512  36.168  16.739   9.150
 6977POPC   GL134513  36.168  16.690   8.850
 6977POPC   GL234514  36.269  16.732   8.850
 6977POPC   C1A34515  36.162  16.695   8.550
 6977POPC   D2A34516  36.091  16.754   8.250
 6977POPC   C3A34517  36.150  16.701   7.950
 6977POPC   C4A34518  36.166  16.703   7.650
 6977POPC   C1B34519  36.379  16.756   8.550
 6977POPC   C2B34520  36.368  16.764   8.250
 6977POPC   C3B34521  36.353  16.812   7.950
 6977POPC   C4B34522  36.361  16.833   7.650
 6978POPC   NC334523  43.154  37.640   9.450
 6978POPC   PO434524  43.131  37.712   9.150
 6978POPC   GL134525  43.131  37.644   8.850
 6978POPC   GL234526  43.256  37.750   8.850
 6978POPC   C1A34527  43.099  37.641   8.550
 6978POPC   D2A34528  43.095  37.669   8.250
 6978POPC   C3A34529  43.088  37.692   7.950
 6978POPC   C4A34530  43.126  37.726   7.650
 6978POPC   C1B34531  43.365  37.746   8.550
 6978POPC   C2B34532  43.318  37.776   8.250
 6978POPC   C3B34533  43.314  37.805   7.950
 6978POPC   C4B34534  43.382  37.823   7.650
 6979POPC   NC334535   1.993  33.052   9.450
 6979POPC   PO434536   1.953  33.049   9.150
 6979POPC   GL134537   1.990  33.013   8.850
 6979POPC   GL234538   2.123  33.038   8.850
 6979POPC   C1A34539   1.989  33.054   8.550
 6979POPC   D2A34540   1.984  33.056   8.250
 6979POPC   C3A34541   1.998  33.057   7.950
 6979POPC   C4A34542   2.023  33.011   7.650
 6979POPC   C1B34543   2.195  33.004   8.550
 6979POPC   C2B34544   2.211  32.957   8.250
 6979POPC   C3B34545   2.228  32.984   7.950
 6979POPC   C4B34546   2.241  32.993   7.650
 6980POPC   NC334547   2.718  43.913   9.450
 6980POPC   PO434548   2.735  43.849   9.150
 6980POPC   GL134549   2.781  43.858   8.850
 6980POPC   GL234550   2.693  43.961   8.850
 6980POPC   C1A34551   2.731  43.910   8.550
 6980POPC   D2A34552   2.799  43.935   8.250
 6980POPC   C3A34553   2.781  43.854   7.950
 6980POPC   C4A34554   2.732  43.887   7.650
 6980POPC   C1B34555   2.645  44.147   8.550
 6980POPC   C2B34556   2.710  44.073   8.250
 6980POPC   C3B34557   2.626  44.075   7.950
 6980POPC   C4B34558   2.632  44.106   7.650
 6981POPC   NC334559   0.441  35.336   9.450
 6981POPC   PO434560   0.441  35.315   9.150
 6981POPC   GL134561   0.488  35.320   8.850
 6981POPC   GL234562   0.482  35.236   8.850
 6981POPC   C1A34563   0.389  35.394   8.550
 6981POPC   D2A34564   0.414  35.316   8.250
 6981POPC   C3A34565   0.423  35.323   7.950
 6981POPC   C4A34566   0.434  35.335   7.650
 6981POPC   C1B34567   0.654  35.123   8.550
 6981POPC   C2B34568   0.574  35.180   8.250
 6981POPC   C3B34569   0.601  35.150   7.950
 6981POPC   C4B34570   0.576  35.211   7.650
 6982POPC   NC334571  24.536  40.007   9.450
 6982POPC   PO434572  24.534  40.049   9.150
 6982POPC   GL134573  24.533  40.028   8.850
 6982POPC   GL234574  24.598  40.105   8.850
 6982POPC   C1A34575  24.458  40.052   8.550
 6982POPC   D2A34576  24.510  39.982   8.250
 6982POPC   C3A34577  24.513  40.025   7.950
 6982POPC   C4A34578  24.493  39.995   7.650
 6982POPC   C1B34579  24.701  40.179   8.550
 6982POPC   C2B34580  24.678  40.232   8.250
 6982POPC   C3B34581  24.681  40.234   7.950
 6982POPC   C4B34582  24.663  40.192   7.650
 6983POPC   NC334583  15.215  22.166   9.450
 6983POPC   PO434584  15.147  22.141   9.150
 6983POPC   GL134585  15.134  22.132   8.850
 6983POPC   GL234586  15.166  22.317   8.850
 6983POPC   C1A34587  15.140  22.151   8.550
 6983POPC   D2A34588  15.222  22.138   8.250
 6983POPC   C3A34589  15.164  22.194   7.950
 6983POPC   C4A34590  15.203  22.159   7.650
 6983POPC   C1B34591  15.251  22.402   8.550
 6983POPC   C2B34592  15.208  22.393   8.250
 6983POPC   C3B34593  15.171  22.452   7.950
 6983POPC   C4B34594  15.235  22.418   7.650
 6984POPC   NC334595   0.417  33.055   9.450
 6984POPC   PO434596   0.451  33.046   9.150
 6984POPC   GL134597   0.422  33.060   8.850
 6984POPC   GL234598   0.455  32.947   8.850
 6984POPC   C1A34599   0.481  33.031   8.550
 6984POPC   D2A34600   0.414  33.052   8.250
 6984POPC   C3A34601   0.446  33.040   7.950
 6984POPC   C4A34602   0.449  33.069   7.650
 6984POPC   C1B34603   0.359  32.812   8.550
 6984POPC   C2B34604   0.433  32.741   8.250
 6984POPC   C3B34605   0.375  32.776   7.950
 6984POPC   C4B34606   0.376  32.784   7.650
 6985POPC   NC334607  18.329  34.577   9.450
 6985POPC   PO434608  18.298  34.600   9.150
 6985POPC   GL134609  18.244  34.589   8.850
 6985POPC   GL234610  18.202  34.594   8.850
 6985POPC   C1A34611  18.301  34.613   8.550
 6985POPC   D2A34612  18.314  34.566   8.250
 6985POPC   C3A34613  18.292  34.625   7.950
 6985POPC   C4A34614  18.279  34.546   7.650
 6985POPC   C1B34615  18.048  34.654   8.550
 6985POPC   C2B34616  18.008  34.619   8.250
 6985POPC   C3B34617  18.027  34.710   7.950
 6985POPC   C4B34618  18.054  34.698   7.650
 6986POPC   NC334619  29.103  31.505   9.450
 6986POPC   PO434620  29.101  31.459   9.150
 6986POPC   GL134621  29.129  31.472   8.850
 6986POPC   GL234622  29.160  31.331   8.850
 6986POPC   C1A34623  29.142  31.468   8.550
 6986POPC   D2A34624  29.102  31.465   8.250
 6986POPC   C3A34625  29.193  31.433   7.950
 6986POPC   C4A34626  29.106  31.456   7.650
 6986POPC   C1B34627  29.201  31.173   8.550
 6986POPC   C2B34628  29.164  31.253   8.250
 6986POPC   C3B34629  29.167  31.175   7.950
 6986POPC   C4B34630  29.162  31.204   7.650
 6987POPC   NC334631  29.140  32.240   9.450
 6987POPC   PO434632  29.138  32.261   9.150
 6987POPC   GL134633  29.114  32.288   8.850
 6987POPC   GL234634  29.035  32.316   8.850
 6987POPC   C1A34635  29.103  32.265   8.550
 6987POPC   D2A34636  29.104  32.211   8.250
 6987POPC   C3A34637  29.122  32.286   7.950
 6987POPC   C4A34638  29.100  32.222   7.650
 6987POPC   C1B34639  28.910  32.331   8.550
 6987POPC   C2B34640  28.970  32.342   8.250
 6987POPC   C3B34641  28.956  32.354   7.950
 6987POPC   C4B34642  28.910  32.404   7.650
 6988POPC   NC334643  12.815  18.234   9.450
 6988POPC   PO434644  12.860  18.258   9.150
 6988POPC   GL134645  12.851  18.330   8.850
 6988POPC   GL234646  13.001  18.342   8.850
 6988POPC   C1A34647  12.826  18.274   8.550
 6988POPC   D2A34648  12.847  18.309   8.250
 6988POPC   C3A34649  12.863  18.282   7.950
 6988POPC   C4A34650  12.847  18.289   7.650
 6988POPC   C1B34651  13.054  18.415   8.550
 6988POPC   C2B34652  13.117  18.379   8.250
 6988POPC   C3B34653  13.034  18.423   7.950
 6988POPC   C4B34654  13.076  18.367   7.650
 6989POPC   NC334655  15.945  37.655   9.450
 6989POPC   PO434656  15.960  37.657   9.150
 6989POPC   GL134657  15.912  37.679   8.850
 6989POPC   GL234658  16.064  37.790   8.850
 6989POPC   C1A34659  15.956  37.713   8.550
 6989POPC   D2A34660  15.915  37.681   8.250
 6989POPC   C3A34661  15.919  37.689   7.950
 6989POPC   C4A34662  15.937  37.726   7.650
 6989POPC   C1B34663  16.107  37.884   8.550
 6989POPC   C2B34664  16.102  37.931   8.250
 6989POPC   C3B34665  16.121  37.860   7.950
 6989POPC   C4B34666  16.063  37.918   7.650
 6990POPC   NC334667   0.406   8.205   9.450
 6990POPC   PO434668   0.482   8.180   9.150
 6990POPC   GL134669   0.486   8.169   8.850
 6990POPC   GL234670   0.597   8.194   8.850
 6990POPC   C1A34671   0.465   8.230   8.550
 6990POPC   D2A34672   0.414   8.213   8.250
 6990POPC   C3A34673   0.479   8.181   7.950
 6990POPC   C4A34674   0.432   8.188   7.650
 6990POPC   C1B34675   0.705   8.279   8.550
 6990POPC   C2B34676   0.710   8.230   8.250
 6990POPC   C3B34677   0.719   8.255   7.950
 6990POPC   C4B34678   0.662   8.244   7.650
 6991POPC   NC334679  34.552  40.041   9.450
 6991POPC   PO434680  34.554  39.996   9.150
 6991POPC   GL134681  34.563  40.048   8.850
 6991POPC   GL234682  34.694  39.917   8.850
 6991POPC   C1A34683  34.606  40.016   8.550
 6991POPC   D2A34684  34.591  40.030   8.250
 6991POPC   C3A34685  34.621  40.024   7.950
 6991POPC   C4A34686  34.534  39.989   7.650
 6991POPC   C1B34687  34.767  39.871   8.550
 6991POPC   C2B34688  34.751  39.903   8.250
 6991POPC   C3B34689  34.769  39.889   7.950
 6991POPC   C4B34690  34.756  39.880   7.650
 6992POPC   NC334691  33.759  37.698   9.450
 6992POPC   PO434692  33.757  37.707   9.150
 6992POPC   GL134693  33.792  37.643   8.850
 6992POPC   GL234694  33.889  37.680   8.850
 6992POPC   C1A34695  33.763  37.632   8.550
 6992POPC   D2A34696  33.759  37.654   8.250
 6992POPC   C3A34697  33.831  37.640   7.950
 6992POPC   C4A34698  33.842  37.659   7.650
 6992POPC   C1B34699  34.016  37.799   8.550
 6992POPC   C2B34700  33.989  37.747   8.250
 6992POPC   C3B34701  34.079  37.723   7.950
 6992POPC   C4B34702  34.071  37.763   7.650
 6993POPC   NC334703   5.083  12.086   9.450
 6993POPC   PO434704   5.060  12.029   9.150
 6993POPC   GL134705   5.063  12.112   8.850
 6993POPC   GL234706   5.036  11.991   8.850
 6993POPC   C1A34707   5.118  12.048   8.550
 6993POPC   D2A34708   5.068  12.085   8.250
 6993POPC   C3A34709   5.046  12.109   7.950
 6993POPC   C4A34710   5.068  12.075   7.650
 6993POPC   C1B34711   4.963  11.856   8.550
 6993POPC   C2B34712   5.041  11.881   8.250
 6993POPC   C3B34713   4.967  11.882   7.950
 6993POPC   C4B34714   4.984  11.840   7.650
 6994POPC   NC334715  44.694  11.346   9.450
 6994POPC   PO434716  44.624  11.312   9.150
 6994POPC   GL134717  44.630  11.334   8.850
 6994POPC   GL234718  44.684  11.158   8.850
 6994POPC   C1A34719  44.655  11.332   8.550
 6994POPC   D2A34720  44.699  11.275   8.250
 6994POPC   C3A34721  44.708  11.288   7.950
 6994POPC   C4A34722  44.665  11.345   7.650
 6994POPC   C1B34723  44.727  11.020   8.550
 6994POPC   C2B34724  44.771  11.087   8.250
 6994POPC   C3B34725  44.711  11.111   7.950
 6994POPC   C4B34726  44.695  11.098   7.650
 6995POPC   NC334727  16.753  28.354   9.450
 6995POPC   PO434728  16.737  28.355   9.150
 6995POPC   GL134729  16.761  28.387   8.850
 6995POPC   GL234730  16.651  28.457   8.850
 6995POPC   C1A34731  16.756  28.418   8.550
 6995POPC   D2A34732  16.780  28.372   8.250
 6995POPC   C3A34733  16.776  28.405   7.950
 6995POPC   C4A34734  16.690  28.332   7.650
 6995POPC   C1B34735  16.540  28.551   8.550
 6995POPC   C2B34736  16.585  28.515   8.250
 6995POPC   C3B34737  16.532  28.550   7.950
 6995POPC   C4B34738  16.512  28.537   7.650
 6996POPC   NC334739  24.470   1.233   9.450
 6996POPC   PO434740  24.527   1.218   9.150
 6996POPC   GL134741  24.453   1.243   8.850
 6996POPC   GL234742  24.592   1.072   8.850
 6996POPC   C1A34743  24.523   1.192   8.550
 6996POPC   D2A34744  24.462   1.224   8.250
 6996POPC   C3A34745  24.518   1.217   7.950
 6996POPC   C4A34746  24.458   1.173   7.650
 6996POPC   C1B34747  24.590   0.986   8.550
 6996POPC   C2B34748  24.660   1.053   8.250
 6996POPC   C3B34749  24.630   1.007   7.950
 6996POPC   C4B34750  24.649   1.024   7.650
 6997POPC   NC334751  31.471  13.650   9.450
 6997POPC   PO434752  31.447  13.582   9.150
 6997POPC   GL134753  31.432  13.635   8.850
 6997POPC   GL234754  31.354  13.675   8.850
 6997POPC   C1A34755  31.444  13.665   8.550
 6997POPC   D2A34756  31.444  13.593   8.250
 6997POPC   C3A34757  31.433  13.631   7.950
 6997POPC   C4A34758  31.463  13.640   7.650
 6997POPC   C1B34759  31.322  13.846   8.550
 6997POPC   C2B34760  31.330  13.847   8.250
 6997POPC   C3B34761  31.298  13.843   7.950
 6997POPC   C4B34762  31.293  13.784   7.650
 6998POPC   NC334763  17.468   5.121   9.450
 6998POPC   PO434764  17.556   5.102   9.150
 6998POPC   GL134765  17.473   5.113   8.850
 6998POPC   GL234766  17.631   5.109   8.850
 6998POPC   C1A34767  17.499   5.111   8.550
 6998POPC   D2A34768  17.514   5.069   8.250
 6998POPC   C3A34769  17.546   5.046   7.950
 6998POPC   C4A34770  17.552   5.071   7.650
 6998POPC   C1B34771  17.741   5.018   8.550
 6998POPC   C2B34772  17.712   5.098   8.250
 6998POPC   C3B34773  17.773   5.027   7.950
 6998POPC   C4B34774  17.768   5.105   7.650
 6999POPC   NC334775  11.278  26.003   9.450
 6999POPC   PO434776  11.253  26.001   9.150
 6999POPC   GL134777  11.318  26.022   8.850
 6999POPC   GL234778  11.447  25.934   8.850
 6999POPC   C1A34779  11.316  26.055   8.550
 6999POPC   D2A34780  11.299  26.089   8.250
 6999POPC   C3A34781  11.309  26.083   7.950
 6999POPC   C4A34782  11.307  25.999   7.650
 6999POPC   C1B34783  11.505  25.912   8.550
 6999POPC   C2B34784  11.500  25.837   8.250
 6999POPC   C3B34785  11.463  25.920   7.950
 6999POPC   C4B34786  11.507  25.921   7.650
 7000POPC   NC334787   8.176  36.143   9.450
 7000POPC   PO434788   8.167  36.144   9.150
 7000POPC   GL134789   8.155  36.090   8.850
 7000POPC   GL234790   8.079  36.087   8.850
 7000POPC   C1A34791   8.226  36.159   8.550
 7000POPC   D2A34792   8.227  36.150   8.250
 7000POPC   C3A34793   8.171  36.142   7.950
 7000POPC   C4A34794   8.205  36.090   7.650
 7000POPC   C1B34795   7.942  36.046   8.550
 7000POPC   C2B34796   7.946  36.051   8.250
 7000POPC   C3B34797   7.913  36.091   7.950
 7000POPC   C4B34798   7.966  36.052   7.650
 7001POPC   NC334799  10.549   5.052   9.450
 7001POPC   PO434800  10.546   5.068   9.150
 7001POPC   GL134801  10.544   5.052   8.850
 7001POPC   GL234802  10.453   5.237   8.850
 7001POPC   C1A34803  10.524   5.081   8.550
 7001POPC   D2A34804  10.564   5.136   8.250
 7001POPC   C3A34805  10.517   5.104   7.950
 7001POPC   C4A34806  10.489   5.093   7.650
 7001POPC   C1B34807  10.384   5.359   8.550
 7001POPC   C2B34808  10.431   5.348   8.250
 7001POPC   C3B34809  10.380   5.368   7.950
 7001POPC   C4B34810  10.438   5.352   7.650
 7002POPC   NC334811  11.350  44.665   9.450
 7002POPC   PO434812  11.337  44.632   9.150
 7002POPC   GL134813  11.288  44.641   8.850
 7002POPC   GL234814  11.421  44.778   8.850
 7002POPC   C1A34815  11.301  44.648   8.550
 7002POPC   D2A34816  11.311  44.690   8.250
 7002POPC   C3A34817  11.301  44.637   7.950
 7002POPC   C4A34818  11.296  44.696   7.650
 7002POPC   C1B34819  11.455  44.793   8.550
 7002POPC   C2B34820  11.460  44.873   8.250
 7002POPC   C3B34821  11.532  44.815   7.950
 7002POPC   C4B34822  11.469  44.804   7.650
 7003POPC   NC334823  40.757  31.444   9.450
 7003POPC   PO434824  40.774  31.446   9.150
 7003POPC   GL134825  40.806  31.481   8.850
 7003POPC   GL234826  40.685  31.423   8.850
 7003POPC   C1A34827  40.831  31.505   8.550
 7003POPC   D2A34828  40.761  31.437   8.250
 7003POPC   C3A34829  40.752  31.506   7.950
 7003POPC   C4A34830  40.797  31.503   7.650
 7003POPC   C1B34831  40.567  31.411   8.550
 7003POPC   C2B34832  40.566  31.437   8.250
 7003POPC   C3B34833  40.545  31.446   7.950
 7003POPC   C4B34834  40.508  31.367   7.650
 7004POPC   NC334835   7.407  25.239   9.450
 7004POPC   PO434836   7.459  25.237   9.150
 7004POPC   GL134837   7.470  25.247   8.850
 7004POPC   GL234838   7.402  25.189   8.850
 7004POPC   C1A34839   7.422  25.297   8.550
 7004POPC   D2A34840   7.425  25.304   8.250
 7004POPC   C3A34841   7.386  25.238   7.950
 7004POPC   C4A34842   7.436  25.229   7.650
 7004POPC   C1B34843   7.323  25.076   8.550
 7004POPC   C2B34844   7.274  25.083   8.250
 7004POPC   C3B34845   7.315  24.993   7.950
 7004POPC   C4B34846   7.348  25.069   7.650
 7005POPC   NC334847  17.483  34.530   9.450
 7005POPC   PO434848  17.488  34.588   9.150
 7005POPC   GL134849  17.489  34.528   8.850
 7005POPC   GL234850  17.609  34.570   8.850
 7005POPC   C1A34851  17.494  34.537   8.550
 7005POPC   D2A34852  17.519  34.574   8.250
 7005POPC   C3A34853  17.497  34.611   7.950
 7005POPC   C4A34854  17.556  34.581   7.650
 7005POPC   C1B34855  17.771  34.552   8.550
 7005POPC   C2B34856  17.784  34.548   8.250
 7005POPC   C3B34857  17.742  34.567   7.950
 7005POPC   C4B34858  17.760  34.511   7.650
 7006POPC   NC334859  35.303   5.845   9.450
 7006POPC   PO434860  35.382   5.869   9.150
 7006POPC   GL134861  35.387   5.901   8.850
 7006POPC   GL234862  35.289   5.804   8.850
 7006POPC   C1A34863  35.364   5.850   8.550
 7006POPC   D2A34864  35.367   5.914   8.250
 7006POPC   C3A34865  35.319   5.879   7.950
 7006POPC   C4A34866  35.308   5.842   7.650
 7006POPC   C1B34867  35.101   5.744   8.550
 7006POPC   C2B34868  35.159   5.740   8.250
 7006POPC   C3B34869  35.127   5.684   7.950
 7006POPC   C4B34870  35.159   5.760   7.650
 7007POPC   NC334871   6.612  31.517   9.450
 7007POPC   PO434872   6.632  31.515   9.150
 7007POPC   GL134873   6.651  31.509   8.850
 7007POPC   GL234874   6.707  31.399   8.850
 7007POPC   C1A34875   6.667  31.446   8.550
 7007POPC   D2A34876   6.653  31.484   8.250
 7007POPC   C3A34877   6.603  31.439   7.950
 7007POPC   C4A34878   6.634  31.443   7.650
 7007POPC   C1B34879   6.715  31.220   8.550
 7007POPC   C2B34880   6.704  31.265   8.250
 7007POPC   C3B34881   6.722  31.196   7.950
 7007POPC   C4B34882   6.722  31.245   7.650
 7008POPC   NC334883  25.231  43.897   9.450
 7008POPC   PO434884  25.286  43.845   9.150
 7008POPC   GL134885  25.265  43.882   8.850
 7008POPC   GL234886  25.341  43.781   8.850
 7008POPC   C1A34887  25.258  43.931   8.550
 7008POPC   D2A34888  25.226  43.934   8.250
 7008POPC   C3A34889  25.307  43.846   7.950
 7008POPC   C4A34890  25.219  43.847   7.650
 7008POPC   C1B34891  25.348  43.656   8.550
 7008POPC   C2B34892  25.346  43.639   8.250
 7008POPC   C3B34893  25.303  43.661   7.950
 7008POPC   C4B34894  25.351  43.664   7.650
 7009POPC   NC334895   1.977  41.604   9.450
 7009POPC   PO434896   2.014  41.579   9.150
 7009POPC   GL134897   2.001  41.521   8.850
 7009POPC   GL234898   1.920  41.642   8.850
 7009POPC   C1A34899   2.037  41.558   8.550
 7009POPC   D2A34900   1.972  41.558   8.250
 7009POPC   C3A34901   2.029  41.567   7.950
 7009POPC   C4A34902   2.035  41.543   7.650
 7009POPC   C1B34903   1.738  41.683   8.550
 7009POPC   C2B34904   1.811  41.700   8.250
 7009POPC   C3B34905   1.797  41.673   7.950
 7009POPC   C4B34906   1.731  41.637   7.650
 7010POPC   NC334907  28.394   0.391   9.450
 7010POPC   PO434908  28.351   0.407   9.150
 7010POPC   GL134909  28.329   0.461   8.850
 7010POPC   GL234910  28.234   0.411   8.850
 7010POPC   C1A34911  28.375   0.448   8.550
 7010POPC   D2A34912  28.386   0.462   8.250
 7010POPC   C3A34913  28.416   0.486   7.950
 7010POPC   C4A34914  28.409   0.459   7.650
 7010POPC   C1B34915  28.179   0.279   8.550
 7010POPC   C2B34916  28.189   0.310   8.250
 7010POPC   C3B34917  28.196   0.285   7.950
 7010POPC   C4B34918  28.141   0.306   7.650
 7011POPC   NC334919   6.660  13.587   9.450
 7011POPC   PO434920   6.637  13.647   9.150
 7011POPC   GL134921   6.660  13.657   8.850
 7011POPC   GL234922   6.494  13.610   8.850
 7011POPC   C1A34923   6.660  13.615   8.550
 7011POPC   D2A34924   6.649  13.607   8.250
 7011POPC   C3A34925   6.649  13.595   7.950
 7011POPC   C4A34926   6.646  13.646   7.650
 7011POPC   C1B34927   6.369  13.587   8.550
 7011POPC   C2B34928   6.443  13.584   8.250
 7011POPC   C3B34929   6.367  13.670   7.950
 7011POPC   C4B34930   6.440  13.611   7.650
 7012POPC   NC334931  25.257  34.564   9.450
 7012POPC   PO434932  25.264  34.610   9.150
 7012POPC   GL134933  25.230  34.598   8.850
 7012POPC   GL234934  25.380  34.559   8.850
 7012POPC   C1A34935  25.266  34.616   8.550
 7012POPC   D2A34936  25.234  34.529   8.250
 7012POPC   C3A34937  25.253  34.556   7.950
 7012POPC   C4A34938  25.269  34.607   7.650
 7012POPC   C1B34939  25.496  34.489   8.550
 7012POPC   C2B34940  25.465  34.491   8.250
 7012POPC   C3B34941  25.556  34.492   7.950
 7012POPC   C4B34942  25.543  34.467   7.650
 7013POPC   NC334943  12.829  25.245   9.450
 7013POPC   PO434944  12.822  25.236   9.150
 7013POPC   GL134945  12.811  25.232   8.850
 7013POPC   GL234946  12.941  25.288   8.850
 7013POPC   C1A34947  12.831  25.265   8.550
 7013POPC   D2A34948  12.900  25.236   8.250
 7013POPC   C3A34949  12.816  25.276   7.950
 7013POPC   C4A34950  12.894  25.281   7.650
 7013POPC   C1B34951  13.115  25.231   8.550
 7013POPC   C2B34952  13.075  25.221   8.250
 7013POPC   C3B34953  13.125  25.233   7.950
 7013POPC   C4B34954  13.084  25.185   7.650
 7014POPC   NC334955  14.404  19.100   9.450
 7014POPC   PO434956  14.378  19.090   9.150
 7014POPC   GL134957  14.440  19.060   8.850
 7014POPC   GL234958  14.525  19.191   8.850
 7014POPC   C1A34959  14.435  19.043   8.550
 7014POPC   D2A34960  14.374  19.077   8.250
 7014POPC   C3A34961  14.448  19.062   7.950
 7014POPC   C4A34962  14.440  19.098   7.650
 7014POPC   C1B34963  14.506  19.270   8.550
 7014POPC   C2B34964  14.528  19.244   8.250
 7014POPC   C3B34965  14.536  19.253   7.950
 7014POPC   C4B34966  14.583  19.276   7.650
 7015POPC   NC334967  29.153  26.817   9.450
 7015POPC   PO434968  29.135  26.830   9.150
 7015POPC   GL134969  29.100  26.774   8.850
 7015POPC   GL234970  29.102  26.731   8.850
 7015POPC   C1A34971  29.114  26.794   8.550
 7015POPC   D2A34972  29.110  26.851   8.250
 7015POPC   C3A34973  29.144  26.817   7.950
 7015POPC   C4A34974  29.160  26.801   7.650
 7015POPC   C1B34975  28.973  26.575   8.550
 7015POPC   C2B34976  29.021  26.630   8.250
 7015POPC   C3B34977  28.963  26.625   7.950
 7015POPC   C4B34978  28.988  26.579   7.650
 7016POPC   NC334979  43.868  17.500   9.450
 7016POPC   PO434980  43.935  17.502   9.150
 7016POPC   GL134981  43.924  17.486   8.850
 7016POPC   GL234982  43.791  17.415   8.850
 7016POPC   C1A34983  43.876  17.535   8.550
 7016POPC   D2A34984  43.890  17.485   8.250
 7016POPC   C3A34985  43.852  17.529   7.950
 7016POPC   C4A34986  43.840  17.555   7.650
 7016POPC   C1B34987  43.739  17.326   8.550
 7016POPC   C2B34988  43.656  17.349   8.250
 7016POPC   C3B34989  43.661  17.290   7.950
 7016POPC   C4B34990  43.667  17.299   7.650
 7017POPC   NC334991  40.047  36.951   9.450
 7017POPC   PO434992  39.965  36.887   9.150
 7017POPC   GL134993  40.012  36.949   8.850
 7017POPC   GL234994  40.045  37.008   8.850
 7017POPC   C1A34995  39.972  36.859   8.550
 7017POPC   D2A34996  40.037  36.953   8.250
 7017POPC   C3A34997  40.022  36.903   7.950
 7017POPC   C4A34998  40.054  36.884   7.650
 7017POPC   C1B34999  40.095  37.135   8.550
 7017POPC   C2B35000  40.052  37.142   8.250
 7017POPC   C3B35001  40.131  37.181   7.950
 7017POPC   C4B35002  40.071  37.098   7.650
 7018POPC   NC335003  33.783  17.469   9.450
 7018POPC   PO435004  33.793  17.500   9.150
 7018POPC   GL135005  33.825  17.470   8.850
 7018POPC   GL235006  33.664  17.591   8.850
 7018POPC   C1A35007  33.809  17.479   8.550
 7018POPC   D2A35008  33.789  17.464   8.250
 7018POPC   C3A35009  33.780  17.539   7.950
 7018POPC   C4A35010  33.755  17.543   7.650
 7018POPC   C1B35011  33.599  17.644   8.550
 7018POPC   C2B35012  33.641  17.639   8.250
 7018POPC   C3B35013  33.613  17.719   7.950
 7018POPC   C4B35014  33.636  17.663   7.650
 7019POPC   NC335015  20.578   9.745   9.450
 7019POPC   PO435016  20.607   9.750   9.150
 7019POPC   GL135017  20.611   9.782   8.850
 7019POPC   GL235018  20.706   9.716   8.850
 7019POPC   C1A35019  20.658   9.760   8.550
 7019POPC   D2A35020  20.566   9.729   8.250
 7019POPC   C3A35021  20.606   9.700   7.950
 7019POPC   C4A35022  20.592   9.728   7.650
 7019POPC   C1B35023  20.870   9.744   8.550
 7019POPC   C2B35024  20.819   9.699   8.250
 7019POPC   C3B35025  20.862   9.672   7.950
 7019POPC   C4B35026  20.891   9.688   7.650
 7020POPC   NC335027  23.664  37.662   9.450
 7020POPC   PO435028  23.700  37.672   9.150
 7020POPC   GL135029  23.672  37.693   8.850
 7020POPC   GL235030  23.704  37.551   8.850
 7020POPC   C1A35031  23.726  37.705   8.550
 7020POPC   D2A35032  23.689  37.703   8.250
 7020POPC   C3A35033  23.687  37.654   7.950
 7020POPC   C4A35034  23.678  37.665   7.650
 7020POPC   C1B35035  23.599  37.470   8.550
 7020POPC   C2B35036  23.567  37.423   8.250
 7020POPC   C3B35037  23.588  37.470   7.950
 7020POPC   C4B35038  23.579  37.435   7.650
 7021POPC   NC335039  25.232  42.341   9.450
 7021POPC   PO435040  25.243  42.383   9.150
 7021POPC   GL135041  25.249  42.362   8.850
 7021POPC   GL235042  25.097  42.372   8.850
 7021POPC   C1A35043  25.297  42.371   8.550
 7021POPC   D2A35044  25.273  42.356   8.250
 7021POPC   C3A35045  25.228  42.345   7.950
 7021POPC   C4A35046  25.242  42.342   7.650
 7021POPC   C1B35047  25.064  42.399   8.550
 7021POPC   C2B35048  24.986  42.318   8.250
 7021POPC   C3B35049  25.015  42.310   7.950
 7021POPC   C4B35050  25.005  42.380   7.650
 7022POPC   NC335051  41.572  14.427   9.450
 7022POPC   PO435052  41.512  14.403   9.150
 7022POPC   GL135053  41.532  14.401   8.850
 7022POPC   GL235054  41.637  14.388   8.850
 7022POPC   C1A35055  41.581  14.390   8.550
 7022POPC   D2A35056  41.513  14.444   8.250
 7022POPC   C3A35057  41.512  14.429   7.950
 7022POPC   C4A35058  41.604  14.413   7.650
 7022POPC   C1B35059  41.827  14.318   8.550
 7022POPC   C2B35060  41.828  14.373   8.250
 7022POPC   C3B35061  41.832  14.396   7.950
 7022POPC   C4B35062  41.767  14.306   7.650
 7023POPC   NC335063  21.338  23.727   9.450
 7023POPC   PO435064  21.375  23.730   9.150
 7023POPC   GL135065  21.392  23.743   8.850
 7023POPC   GL235066  21.254  23.645   8.850
 7023POPC   C1A35067  21.337  23.706   8.550
 7023POPC   D2A35068  21.436  23.665   8.250
 7023POPC   C3A35069  21.360  23.704   7.950
 7023POPC   C4A35070  21.421  23.678   7.650
 7023POPC   C1B35071  21.172  23.608   8.550
 7023POPC   C2B35072  21.216  23.549   8.250
 7023POPC   C3B35073  21.234  23.579   7.950
 7023POPC   C4B35074  21.145  23.602   7.650
 7024POPC   NC335075  33.753  26.022   9.450
 7024POPC   PO435076  33.795  26.082   9.150
 7024POPC   GL135077  33.800  26.059   8.850
 7024POPC   GL235078  33.768  25.925   8.850
 7024POPC   C1A35079  33.845  26.086   8.550
 7024POPC   D2A35080  33.768  26.080   8.250
 7024POPC   C3A35081  33.813  26.003   7.950
 7024POPC   C4A35082  33.849  26.044   7.650
 7024POPC   C1B35083  33.712  25.835   8.550
 7024POPC   C2B35084  33.758  25.818   8.250
 7024POPC   C3B35085  33.681  25.780   7.950
 7024POPC   C4B35086  33.756  25.811   7.650
 7025POPC   NC335087  16.777  29.115   9.450
 7025POPC   PO435088  16.722  29.103   9.150
 7025POPC   GL135089  16.754  29.126   8.850
 7025POPC   GL235090  16.693  29.220   8.850
 7025POPC   C1A35091  16.682  29.138   8.550
 7025POPC   D2A35092  16.719  29.100   8.250
 7025POPC   C3A35093  16.725  29.174   7.950
 7025POPC   C4A35094  16.763  29.136   7.650
 7025POPC   C1B35095  16.679  29.403   8.550
 7025POPC   C2B35096  16.671  29.339   8.250
 7025POPC   C3B35097  16.712  29.378   7.950
 7025POPC   C4B35098  16.621  29.344   7.650
 7026POPC   NC335099  20.646   6.623   9.450
 7026POPC   PO435100  20.649   6.635   9.150
 7026POPC   GL135101  20.577   6.668   8.850
 7026POPC   GL235102  20.661   6.775   8.850
 7026POPC   C1A35103  20.637   6.608   8.550
 7026POPC   D2A35104  20.655   6.656   8.250
 7026POPC   C3A35105  20.641   6.618   7.950
 7026POPC   C4A35106  20.658   6.661   7.650
 7026POPC   C1B35107  20.783   6.810   8.550
 7026POPC   C2B35108  20.799   6.808   8.250
 7026POPC   C3B35109  20.826   6.834   7.950
 7026POPC   C4B35110  20.807   6.811   7.650
 7027POPC   NC335111   5.829   0.413   9.450
 7027POPC   PO435112   5.878   0.404   9.150
 7027POPC   GL135113   5.886   0.454   8.850
 7027POPC   GL235114   5.790   0.398   8.850
 7027POPC   C1A35115   5.865   0.409   8.550
 7027POPC   D2A35116   5.875   0.438   8.250
 7027POPC   C3A35117   5.863   0.437   7.950
 7027POPC   C4A35118   5.884   0.468   7.650
 7027POPC   C1B35119   5.635   0.291   8.550
 7027POPC   C2B35120   5.649   0.291   8.250
 7027POPC   C3B35121   5.693   0.295   7.950
 7027POPC   C4B35122   5.698   0.364   7.650
 7028POPC   NC335123  26.007  43.143   9.450
 7028POPC   PO435124  26.032  43.137   9.150
 7028POPC   GL135125  25.994  43.134   8.850
 7028POPC   GL235126  26.130  43.179   8.850
 7028POPC   C1A35127  26.070  43.079   8.550
 7028POPC   D2A35128  26.078  43.082   8.250
 7028POPC   C3A35129  26.008  43.109   7.950
 7028POPC   C4A35130  26.066  43.108   7.650
 7028POPC   C1B35131  26.137  43.348   8.550
 7028POPC   C2B35132  26.114  43.335   8.250
 7028POPC   C3B35133  26.194  43.332   7.950
 7028POPC   C4B35134  26.131  43.327   7.650
 7029POPC   NC335135  26.038   9.797   9.450
 7029POPC   PO435136  26.091   9.737   9.150
 7029POPC   GL135137  25.999   9.747   8.850
 7029POPC   GL235138  25.945   9.625   8.850
 7029POPC   C1A35139  26.089   9.743   8.550
 7029POPC   D2A35140  26.007   9.749   8.250
 7029POPC   C3A35141  26.024   9.760   7.950
 7029POPC   C4A35142  26.021   9.724   7.650
 7029POPC   C1B35143  25.939   9.487   8.550
 7029POPC   C2B35144  25.953   9.526   8.250
 7029POPC   C3B35145  25.956   9.522   7.950
 7029POPC   C4B35146  25.920   9.497   7.650
 7030POPC   NC335147  28.330  42.336   9.450
 7030POPC   PO435148  28.357  42.344   9.150
 7030POPC   GL135149  28.342  42.362   8.850
 7030POPC   GL235150  28.316  42.412   8.850
 7030POPC   C1A35151  28.373  42.323   8.550
 7030POPC   D2A35152  28.408  42.349   8.250
 7030POPC   C3A35153  28.321  42.318   7.950
 7030POPC   C4A35154  28.409  42.384   7.650
 7030POPC   C1B35155  28.282  42.570   8.550
 7030POPC   C2B35156  28.305  42.583   8.250
 7030POPC   C3B35157  28.323  42.579   7.950
 7030POPC   C4B35158  28.282  42.555   7.650
 7031POPC   NC335159  25.994  32.211   9.450
 7031POPC   PO435160  26.050  32.208   9.150
 7031POPC   GL135161  26.014  32.278   8.850
 7031POPC   GL235162  26.007  32.419   8.850
 7031POPC   C1A35163  26.007  32.235   8.550
 7031POPC   D2A35164  26.027  32.239   8.250
 7031POPC   C3A35165  26.037  32.202   7.950
 7031POPC   C4A35166  26.061  32.236   7.650
 7031POPC   C1B35167  26.093  32.538   8.550
 7031POPC   C2B35168  26.087  32.509   8.250
 7031POPC   C3B35169  26.067  32.451   7.950
 7031POPC   C4B35170  26.040  32.480   7.650
 7032POPC   NC335171  37.718  15.963   9.450
 7032POPC   PO435172  37.663  15.980   9.150
 7032POPC   GL135173  37.721  15.980   8.850
 7032POPC   GL235174  37.570  15.937   8.850
 7032POPC   C1A35175  37.707  15.978   8.550
 7032POPC   D2A35176  37.649  15.968   8.250
 7032POPC   C3A35177  37.631  15.914   7.950
 7032POPC   C4A35178  37.689  15.961   7.650
 7032POPC   C1B35179  37.436  15.914   8.550
 7032POPC   C2B35180  37.463  15.883   8.250
 7032POPC   C3B35181  37.390  15.881   7.950
 7032POPC   C4B35182  37.395  15.877   7.650
 7033POPC   NC335183  24.486  19.098   9.450
 7033POPC   PO435184  24.538  19.045   9.150
 7033POPC   GL135185  24.448  19.021   8.850
 7033POPC   GL235186  24.400  19.195   8.850
 7033POPC   C1A35187  24.538  19.067   8.550
 7033POPC   D2A35188  24.503  19.044   8.250
 7033POPC   C3A35189  24.464  19.055   7.950
 7033POPC   C4A35190  24.509  19.039   7.650
 7033POPC   C1B35191  24.346  19.258   8.550
 7033POPC   C2B35192  24.360  19.254   8.250
 7033POPC   C3B35193  24.428  19.286   7.950
 7033POPC   C4B35194  24.362  19.278   7.650
 7034POPC   NC335195  12.841  39.198   9.450
 7034POPC   PO435196  12.880  39.222   9.150
 7034POPC   GL135197  12.888  39.269   8.850
 7034POPC   GL235198  12.794  39.366   8.850
 7034POPC   C1A35199  12.897  39.255   8.550
 7034POPC   D2A35200  12.896  39.227   8.250
 7034POPC   C3A35201  12.885  39.188   7.950
 7034POPC   C4A35202  12.897  39.200   7.650
 7034POPC   C1B35203  12.706  39.421   8.550
 7034POPC   C2B35204  12.702  39.416   8.250
 7034POPC   C3B35205  12.735  39.447   7.950
 7034POPC   C4B35206  12.723  39.463   7.650
 7035POPC   NC335207  40.768  21.373   9.450
 7035POPC   PO435208  40.799  21.341   9.150
 7035POPC   GL135209  40.819  21.342   8.850
 7035POPC   GL235210  40.880  21.455   8.850
 7035POPC   C1A35211  40.782  21.337   8.550
 7035POPC   D2A35212  40.792  21.382   8.250
 7035POPC   C3A35213  40.760  21.341   7.950
 7035POPC   C4A35214  40.737  21.420   7.650
 7035POPC   C1B35215  40.870  21.579   8.550
 7035POPC   C2B35216  40.936  21.552   8.250
 7035POPC   C3B35217  40.906  21.608   7.950
 7035POPC   C4B35218  40.895  21.583   7.650
 7036POPC   NC335219  39.244  11.261   9.450
 7036POPC   PO435220  39.223  11.290   9.150
 7036POPC   GL135221  39.278  11.261   8.850
 7036POPC   GL235222  39.152  11.372   8.850
 7036POPC   C1A35223  39.267  11.333   8.550
 7036POPC   D2A35224  39.198  11.347   8.250
 7036POPC   C3A35225  39.207  11.324   7.950
 7036POPC   C4A35226  39.276  11.259   7.650
 7036POPC   C1B35227  39.114  11.482   8.550
 7036POPC   C2B35228  39.097  11.484   8.250
 7036POPC   C3B35229  39.102  11.527   7.950
 7036POPC   C4B35230  39.154  11.518   7.650
 7037POPC   NC335231  40.028  32.252   9.450
 7037POPC   PO435232  40.010  32.250   9.150
 7037POPC   GL135233  39.989  32.237   8.850
 7037POPC   GL235234  39.869  32.262   8.850
 7037POPC   C1A35235  39.989  32.251   8.550
 7037POPC   D2A35236  39.991  32.213   8.250
 7037POPC   C3A35237  40.002  32.221   7.950
 7037POPC   C4A35238  40.025  32.252   7.650
 7037POPC   C1B35239  39.795  32.401   8.550
 7037POPC   C2B35240  39.814  32.306   8.250
 7037POPC   C3B35241  39.803  32.319   7.950
 7037POPC   C4B35242  39.801  32.365   7.650
 7038POPC   NC335243   0.399   3.558   9.450
 7038POPC   PO435244   0.413   3.551   9.150
 7038POPC   GL135245   0.453   3.511   8.850
 7038POPC   GL235246   0.328   3.532   8.850
 7038POPC   C1A35247   0.445   3.543   8.550
 7038POPC   D2A35248   0.415   3.576   8.250
 7038POPC   C3A35249   0.475   3.503   7.950
 7038POPC   C4A35250   0.390   3.553   7.650
 7038POPC   C1B35251   0.156   3.587   8.550
 7038POPC   C2B35252   0.156   3.581   8.250
 7038POPC   C3B35253   0.170   3.536   7.950
 7038POPC   C4B35254   0.151   3.544   7.650
 7039POPC   NC335255   2.027  14.408   9.450
 7039POPC   PO435256   2.001  14.420   9.150
 7039POPC   GL135257   2.000  14.440   8.850
 7039POPC   GL235258   1.869  14.401   8.850
 7039POPC   C1A35259   1.973  14.447   8.550
 7039POPC   D2A35260   2.004  14.435   8.250
 7039POPC   C3A35261   1.981  14.404   7.950
 7039POPC   C4A35262   1.978  14.384   7.650
 7039POPC   C1B35263   1.764  14.421   8.550
 7039POPC   C2B35264   1.726  14.432   8.250
 7039POPC   C3B35265   1.707  14.415   7.950
 7039POPC   C4B35266   1.717  14.411   7.650
 7040POPC   NC335267  19.040  18.285   9.450
 7040POPC   PO435268  19.075  18.305   9.150
 7040POPC   GL135269  19.024  18.258   8.850
 7040POPC   GL235270  18.927  18.376   8.850
 7040POPC   C1A35271  19.084  18.254   8.550
 7040POPC   D2A35272  19.023  18.233   8.250
 7040POPC   C3A35273  19.018  18.277   7.950
 7040POPC   C4A35274  19.101  18.274   7.650
 7040POPC   C1B35275  18.876  18.388   8.550
 7040POPC   C2B35276  18.827  18.415   8.250
 7040POPC   C3B35277  18.831  18.344   7.950
 7040POPC   C4B35278  18.869  18.391   7.650
 7041POPC   NC335279  20.643  43.099   9.450
 7041POPC   PO435280  20.615  43.071   9.150
 7041POPC   GL135281  20.651  43.095   8.850
 7041POPC   GL235282  20.664  43.243   8.850
 7041POPC   C1A35283  20.651  43.110   8.550
 7041POPC   D2A35284  20.646  43.147   8.250
 7041POPC   C3A35285  20.566  43.092   7.950
 7041POPC   C4A35286  20.597  43.157   7.650
 7041POPC   C1B35287  20.704  43.372   8.550
 7041POPC   C2B35288  20.724  43.342   8.250
 7041POPC   C3B35289  20.712  43.300   7.950
 7041POPC   C4B35290  20.738  43.290   7.650
 7042POPC   NC335291  36.868  22.142   9.450
 7042POPC   PO435292  36.881  22.119   9.150
 7042POPC   GL135293  36.952  22.123   8.850
 7042POPC   GL235294  36.803  22.082   8.850
 7042POPC   C1A35295  36.883  22.196   8.550
 7042POPC   D2A35296  36.870  22.164   8.250
 7042POPC   C3A35297  36.861  22.190   7.950
 7042POPC   C4A35298  36.904  22.153   7.650
 7042POPC   C1B35299  36.725  21.998   8.550
 7042POPC   C2B35300  36.729  21.935   8.250
 7042POPC   C3B35301  36.758  21.971   7.950
 7042POPC   C4B35302  36.784  22.000   7.650
 7043POPC   NC335303   3.541  10.547   9.450
 7043POPC   PO435304   3.513  10.495   9.150
 7043POPC   GL135305   3.499  10.567   8.850
 7043POPC   GL235306   3.593  10.635   8.850
 7043POPC   C1A35307   3.543  10.483   8.550
 7043POPC   D2A35308   3.506  10.565   8.250
 7043POPC   C3A35309   3.526  10.483   7.950
 7043POPC   C4A35310   3.588  10.562   7.650
 7043POPC   C1B35311   3.527  10.807   8.550
 7043POPC   C2B35312   3.564  10.769   8.250
 7043POPC   C3B35313   3.550  10.772   7.950
 7043POPC   C4B35314   3.599  10.747   7.650
 7044POPC   NC335315   7.451  24.456   9.450
 7044POPC   PO435316   7.442  24.500   9.150
 7044POPC   GL135317   7.374  24.468   8.850
 7044POPC   GL235318   7.337  24.493   8.850
 7044POPC   C1A35319   7.410  24.505   8.550
 7044POPC   D2A35320   7.430  24.440   8.250
 7044POPC   C3A35321   7.420  24.447   7.950
 7044POPC   C4A35322   7.445  24.492   7.650
 7044POPC   C1B35323   7.152  24.517   8.550
 7044POPC   C2B35324   7.204  24.538   8.250
 7044POPC   C3B35325   7.168  24.569   7.950
 7044POPC   C4B35326   7.129  24.571   7.650
 7045POPC   NC335327  23.747  34.614   9.450
 7045POPC   PO435328  23.712  34.531   9.150
 7045POPC   GL135329  23.756  34.567   8.850
 7045POPC   GL235330  23.616  34.689   8.850
 7045POPC   C1A35331  23.695  34.596   8.550
 7045POPC   D2A35332  23.720  34.555   8.250
 7045POPC   C3A35333  23.740  34.551   7.950
 7045POPC   C4A35334  23.674  34.606   7.650
 7045POPC   C1B35335  23.524  34.728   8.550
 7045POPC   C2B35336  23.562  34.703   8.250
 7045POPC   C3B35337  23.511  34.770   7.950
 7045POPC   C4B35338  23.492  34.712   7.650
 7046POPC   NC335339  40.007  41.513   9.450
 7046POPC   PO435340  40.048  41.550   9.150
 7046POPC   GL135341  40.026  41.574   8.850
 7046POPC   GL235342  40.142  41.564   8.850
 7046POPC   C1A35343  40.017  41.559   8.550
 7046POPC   D2A35344  39.992  41.591   8.250
 7046POPC   C3A35345  40.012  41.602   7.950
 7046POPC   C4A35346  40.037  41.594   7.650
 7046POPC   C1B35347  40.207  41.613   8.550
 7046POPC   C2B35348  40.268  41.633   8.250
 7046POPC   C3B35349  40.290  41.677   7.950
 7046POPC   C4B35350  40.207  41.689   7.650
 7047POPC   NC335351  18.301  27.621   9.450
 7047POPC   PO435352  18.275  27.632   9.150
 7047POPC   GL135353  18.303  27.560   8.850
 7047POPC   GL235354  18.187  27.551   8.850
 7047POPC   C1A35355  18.328  27.591   8.550
 7047POPC   D2A35356  18.241  27.612   8.250
 7047POPC   C3A35357  18.307  27.569   7.950
 7047POPC   C4A35358  18.274  27.555   7.650
 7047POPC   C1B35359  18.157  27.398   8.550
 7047POPC   C2B35360  18.122  27.424   8.250
 7047POPC   C3B35361  18.072  27.422   7.950
 7047POPC   C4B35362  18.133  27.376   7.650
 7048POPC   NC335363  13.606   5.822   9.450
 7048POPC   PO435364  13.668   5.872   9.150
 7048POPC   GL135365  13.613   5.877   8.850
 7048POPC   GL235366  13.641   6.013   8.850
 7048POPC   C1A35367  13.658   5.883   8.550
 7048POPC   D2A35368  13.630   5.884   8.250
 7048POPC   C3A35369  13.665   5.823   7.950
 7048POPC   C4A35370  13.618   5.866   7.650
 7048POPC   C1B35371  13.705   6.127   8.550
 7048POPC   C2B35372  13.694   6.100   8.250
 7048POPC   C3B35373  13.681   6.079   7.950
 7048POPC   C4B35374  13.677   6.127   7.650
 7049POPC   NC335375  43.064   7.464   9.450
 7049POPC   PO435376  43.148   7.425   9.150
 7049POPC   GL135377  43.096   7.401   8.850
 7049POPC   GL235378  43.241   7.339   8.850
 7049POPC   C1A35379  43.087   7.422   8.550
 7049POPC   D2A35380  43.107   7.431   8.250
 7049POPC   C3A35381  43.074   7.453   7.950
 7049POPC   C4A35382  43.123   7.449   7.650
 7049POPC   C1B35383  43.278   7.221   8.550
 7049POPC   C2B35384  43.329   7.262   8.250
 7049POPC   C3B35385  43.280   7.274   7.950
 7049POPC   C4B35386  43.266   7.264   7.650
 7050POPC   NC335387  44.694  44.618   9.450
 7050POPC   PO435388  44.693  44.647   9.150
 7050POPC   GL135389  44.660  44.684   8.850
 7050POPC   GL235390  44.728  44.750   8.850
 7050POPC   C1A35391  44.674  44.702   8.550
 7050POPC   D2A35392  44.699  44.649   8.250
 7050POPC   C3A35393  44.641  44.675   7.950
 7050POPC   C4A35394  44.639  44.636   7.650
 7050POPC   C1B35395  44.823  44.895   8.550
 7050POPC   C2B35396  44.792  44.923   8.250
 7050POPC   C3B35397  44.823  44.918   7.950
 7050POPC   C4B35398  44.742  44.896   7.650
 7051POPC   NC335399  26.837   9.754   9.450
 7051POPC   PO435400  26.857   9.700   9.150
 7051POPC   GL135401  26.796   9.772   8.850
 7051POPC   GL235402  26.911   9.821   8.850
 7051POPC   C1A35403  26.862   9.785   8.550
 7051POPC   D2A35404  26.797   9.774   8.250
 7051POPC   C3A35405  26.846   9.765   7.950
 7051POPC   C4A35406  26.807   9.736   7.650
 7051POPC   C1B35407  26.941   9.991   8.550
 7051POPC   C2B35408  26.976   9.991   8.250
 7051POPC   C3B35409  26.968   9.932   7.950
 7051POPC   C4B35410  26.976   9.960   7.650
 7052POPC   NC335411  22.911  19.867   9.450
 7052POPC   PO435412  22.933  19.817   9.150
 7052POPC   GL135413  22.925  19.871   8.850
 7052POPC   GL235414  22.993  19.949   8.850
 7052POPC   C1A35415  22.951  19.815   8.550
 7052POPC   D2A35416  22.907  19.849   8.250
 7052POPC   C3A35417  22.924  19.795   7.950
 7052POPC   C4A35418  22.890  19.840   7.650
 7052POPC   C1B35419  23.108  19.981   8.550
 7052POPC   C2B35420  23.121  20.025   8.250
 7052POPC   C3B35421  23.121  19.930   7.950
 7052POPC   C4B35422  23.124  19.935   7.650
 7053POPC   NC335423   7.380  22.976   9.450
 7053POPC   PO435424   7.384  22.893   9.150
 7053POPC   GL135425   7.412  22.974   8.850
 7053POPC   GL235426   7.411  22.776   8.850
 7053POPC   C1A35427   7.425  22.928   8.550
 7053POPC   D2A35428   7.412  22.905   8.250
 7053POPC   C3A35429   7.406  22.968   7.950
 7053POPC   C4A35430   7.401  22.986   7.650
 7053POPC   C1B35431   7.529  22.650   8.550
 7053POPC   C2B35432   7.467  22.676   8.250
 7053POPC   C3B35433   7.469  22.672   7.950
 7053POPC   C4B35434   7.443  22.719   7.650
 7054POPC   NC335435  14.440  25.303   9.450
 7054POPC   PO435436  14.426  25.287   9.150
 7054POPC   GL135437  14.361  25.266   8.850
 7054POPC   GL235438  14.577  25.285   8.850
 7054POPC   C1A35439  14.381  25.286   8.550
 7054POPC   D2A35440  14.396  25.291   8.250
 7054POPC   C3A35441  14.428  25.304   7.950
 7054POPC   C4A35442  14.407  25.272   7.650
 7054POPC   C1B35443  14.692  25.229   8.550
 7054POPC   C2B35444  14.614  25.211   8.250
 7054POPC   C3B35445  14.660  25.212   7.950
 7054POPC   C4B35446  14.607  25.278   7.650
 7055POPC   NC335447  16.753  36.151   9.450
 7055POPC   PO435448  16.741  36.112   9.150
 7055POPC   GL135449  16.765  36.129   8.850
 7055POPC   GL235450  16.832  36.102   8.850
 7055POPC   C1A35451  16.764  36.105   8.550
 7055POPC   D2A35452  16.688  36.158   8.250
 7055POPC   C3A35453  16.746  36.173   7.950
 7055POPC   C4A35454  16.704  36.120   7.650
 7055POPC   C1B35455  16.997  36.032   8.550
 7055POPC   C2B35456  16.937  36.121   8.250
 7055POPC   C3B35457  16.974  36.078   7.950
 7055POPC   C4B35458  16.942  36.065   7.650
 7056POPC   NC335459   8.175   1.221   9.450
 7056POPC   PO435460   8.219   1.173   9.150
 7056POPC   GL135461   8.147   1.179   8.850
 7056POPC   GL235462   8.325   1.336   8.850
 7056POPC   C1A35463   8.213   1.249   8.550
 7056POPC   D2A35464   8.237   1.261   8.250
 7056POPC   C3A35465   8.164   1.226   7.950
 7056POPC   C4A35466   8.230   1.180   7.650
 7056POPC   C1B35467   8.366   1.412   8.550
 7056POPC   C2B35468   8.383   1.368   8.250
 7056POPC   C3B35469   8.329   1.376   7.950
 7056POPC   C4B35470   8.407   1.382   7.650
 7057POPC   NC335471   0.484   6.599   9.450
 7057POPC   PO435472   0.403   6.624   9.150
 7057POPC   GL135473   0.487   6.690   8.850
 7057POPC   GL235474   0.455   6.747   8.850
 7057POPC   C1A35475   0.477   6.676   8.550
 7057POPC   D2A35476   0.473   6.681   8.250
 7057POPC   C3A35477   0.391   6.603   7.950
 7057POPC   C4A35478   0.434   6.671   7.650
 7057POPC   C1B35479   0.559   6.831   8.550
 7057POPC   C2B35480   0.586   6.885   8.250
 7057POPC   C3B35481   0.518   6.915   7.950
 7057POPC   C4B35482   0.520   6.914   7.650
 7058POPC   NC335483  26.000  38.479   9.450
 7058POPC   PO435484  26.024  38.432   9.150
 7058POPC   GL135485  26.009  38.452   8.850
 7058POPC   GL235486  26.053  38.614   8.850
 7058POPC   C1A35487  25.994  38.467   8.550
 7058POPC   D2A35488  26.085  38.438   8.250
 7058POPC   C3A35489  26.051  38.434   7.950
 7058POPC   C4A35490  26.078  38.422   7.650
 7058POPC   C1B35491  25.987  38.658   8.550
 7058POPC   C2B35492  26.056  38.678   8.250
 7058POPC   C3B35493  26.006  38.752   7.950
 7058POPC   C4B35494  26.023  38.667   7.650
 7059POPC   NC335495  29.133   8.958   9.450
 7059POPC   PO435496  29.175   9.002   9.150
 7059POPC   GL135497  29.146   8.978   8.850
 7059POPC   GL235498  29.190   9.127   8.850
 7059POPC   C1A35499  29.163   9.004   8.550
 7059POPC   D2A35500  29.159   8.983   8.250
 7059POPC   C3A35501  29.168   9.004   7.950
 7059POPC   C4A35502  29.162   8.923   7.650
 7059POPC   C1B35503  29.186   9.193   8.550
 7059POPC   C2B35504  29.139   9.189   8.250
 7059POPC   C3B35505  29.192   9.174   7.950
 7059POPC   C4B35506  29.149   9.184   7.650
 7060POPC   NC335507  34.571  40.778   9.450
 7060POPC   PO435508  34.528  40.811   9.150
 7060POPC   GL135509  34.540  40.786   8.850
 7060POPC   GL235510  34.599  40.662   8.850
 7060POPC   C1A35511  34.601  40.821   8.550
 7060POPC   D2A35512  34.553  40.763   8.250
 7060POPC   C3A35513  34.551  40.777   7.950
 7060POPC   C4A35514  34.574  40.751   7.650
 7060POPC   C1B35515  34.547  40.549   8.550
 7060POPC   C2B35516  34.619  40.572   8.250
 7060POPC   C3B35517  34.530  40.549   7.950
 7060POPC   C4B35518  34.543  40.560   7.650
 7061POPC   NC335519  40.825  12.885   9.450
 7061POPC   PO435520  40.771  12.845   9.150
 7061POPC   GL135521  40.793  12.819   8.850
 7061POPC   GL235522  40.885  12.803   8.850
 7061POPC   C1A35523  40.783  12.882   8.550
 7061POPC   D2A35524  40.760  12.807   8.250
 7061POPC   C3A35525  40.775  12.848   7.950
 7061POPC   C4A35526  40.799  12.861   7.650
 7061POPC   C1B35527  41.020  12.677   8.550
 7061POPC   C2B35528  41.006  12.707   8.250
 7061POPC   C3B35529  41.006  12.668   7.950
 7061POPC   C4B35530  41.002  12.754   7.650
 7062POPC   NC335531  38.505  38.432   9.450
 7062POPC   PO435532  38.484  38.436   9.150
 7062POPC   GL135533  38.469  38.488   8.850
 7062POPC   GL235534  38.617  38.515   8.850
 7062POPC   C1A35535  38.414  38.449   8.550
 7062POPC   D2A35536  38.435  38.499   8.250
 7062POPC   C3A35537  38.483  38.448   7.950
 7062POPC   C4A35538  38.465  38.457   7.650
 7062POPC   C1B35539  38.706  38.576   8.550
 7062POPC   C2B35540  38.661  38.509   8.250
 7062POPC   C3B35541  38.669  38.519   7.950
 7062POPC   C4B35542  38.668  38.482   7.650
 7063POPC   NC335543  21.403   9.704   9.450
 7063POPC   PO435544  21.406   9.765   9.150
 7063POPC   GL135545  21.399   9.734   8.850
 7063POPC   GL235546  21.286   9.776   8.850
 7063POPC   C1A35547  21.407   9.705   8.550
 7063POPC   D2A35548  21.429   9.733   8.250
 7063POPC   C3A35549  21.413   9.790   7.950
 7063POPC   C4A35550  21.400   9.739   7.650
 7063POPC   C1B35551  21.086   9.700   8.550
 7063POPC   C2B35552  21.113   9.764   8.250
 7063POPC   C3B35553  21.134   9.753   7.950
 7063POPC   C4B35554  21.099   9.766   7.650
 7064POPC   NC335555   8.233   8.151   9.450
 7064POPC   PO435556   8.202   8.182   9.150
 7064POPC   GL135557   8.165   8.147   8.850
 7064POPC   GL235558   8.089   8.307   8.850
 7064POPC   C1A35559   8.175   8.197   8.550
 7064POPC   D2A35560   8.172   8.187   8.250
 7064POPC   C3A35561   8.148   8.218   7.950
 7064POPC   C4A35562   8.218   8.148   7.650
 7064POPC   C1B35563   8.045   8.411   8.550
 7064POPC   C2B35564   8.026   8.323   8.250
 7064POPC   C3B35565   8.059   8.355   7.950
 7064POPC   C4B35566   7.992   8.317   7.650
 7065POPC   NC335567  17.556  39.236   9.450
 7065POPC   PO435568  17.483  39.182   9.150
 7065POPC   GL135569  17.548  39.220   8.850
 7065POPC   GL235570  17.498  39.385   8.850
 7065POPC   C1A35571  17.553  39.196   8.550
 7065POPC   D2A35572  17.510  39.181   8.250
 7065POPC   C3A35573  17.519  39.269   7.950
 7065POPC   C4A35574  17.483  39.275   7.650
 7065POPC   C1B35575  17.453  39.435   8.550
 7065POPC   C2B35576  17.506  39.477   8.250
 7065POPC   C3B35577  17.542  39.493   7.950
 7065POPC   C4B35578  17.550  39.488   7.650
 7066POPC   NC335579   2.020   5.894   9.450
 7066POPC   PO435580   2.009   5.913   9.150
 7066POPC   GL135581   1.946   5.894   8.850
 7066POPC   GL235582   2.097   5.899   8.850
 7066POPC   C1A35583   2.030   5.871   8.550
 7066POPC   D2A35584   2.032   5.908   8.250
 7066POPC   C3A35585   2.008   5.869   7.950
 7066POPC   C4A35586   1.997   5.881   7.650
 7066POPC   C1B35587   2.278   5.806   8.550
 7066POPC   C2B35588   2.211   5.858   8.250
 7066POPC   C3B35589   2.263   5.884   7.950
 7066POPC   C4B35590   2.254   5.868   7.650
 7067POPC   NC335591  43.888  44.641   9.450
 7067POPC   PO435592  43.928  44.635   9.150
 7067POPC   GL135593  43.885  44.638   8.850
 7067POPC   GL235594  43.994  44.697   8.850
 7067POPC   C1A35595  43.869  44.702   8.550
 7067POPC   D2A35596  43.881  44.643   8.250
 7067POPC   C3A35597  43.877  44.624   7.950
 7067POPC   C4A35598  43.903  44.660   7.650
 7067POPC   C1B35599  44.149  44.750   8.550
 7067POPC   C2B35600  44.155  44.759   8.250
 7067POPC   C3B35601  44.146  44.783   7.950
 7067POPC   C4B35602  44.148  44.766   7.650
 7068POPC   NC335603  40.042  39.216   9.450
 7068POPC   PO435604  40.043  39.264   9.150
 7068POPC   GL135605  40.035  39.196   8.850
 7068POPC   GL235606  39.927  39.257   8.850
 7068POPC   C1A35607  39.962  39.247   8.550
 7068POPC   D2A35608  39.975  39.259   8.250
 7068POPC   C3A35609  40.052  39.241   7.950
 7068POPC   C4A35610  39.990  39.250   7.650
 7068POPC   C1B35611  39.810  39.414   8.550
 7068POPC   C2B35612  39.784  39.378   8.250
 7068POPC   C3B35613  39.845  39.418   7.950
 7068POPC   C4B35614  39.761  39.371   7.650
 7069POPC   NC335615   0.439  24.517   9.450
 7069POPC   PO435616   0.481  24.476   9.150
 7069POPC   GL135617   0.399  24.494   8.850
 7069POPC   GL235618   0.400  24.612   8.850
 7069POPC   C1A35619   0.391  24.489   8.550
 7069POPC   D2A35620   0.390  24.487   8.250
 7069POPC   C3A35621   0.480  24.461   7.950
 7069POPC   C4A35622   0.443  24.516   7.650
 7069POPC   C1B35623   0.308  24.734   8.550
 7069POPC   C2B35624   0.303  24.680   8.250
 7069POPC   C3B35625   0.293  24.715   7.950
 7069POPC   C4B35626   0.317  24.731   7.650
 7070POPC   NC335627   5.114  11.253   9.450
 7070POPC   PO435628   5.098  11.324   9.150
 7070POPC   GL135629   5.124  11.301   8.850
 7070POPC   GL235630   5.156  11.427   8.850
 7070POPC   C1A35631   5.131  11.295   8.550
 7070POPC   D2A35632   5.081  11.266   8.250
 7070POPC   C3A35633   5.129  11.282   7.950
 7070POPC   C4A35634   5.138  11.315   7.650
 7070POPC   C1B35635   5.150  11.498   8.550
 7070POPC   C2B35636   5.214  11.499   8.250
 7070POPC   C3B35637   5.208  11.542   7.950
 7070POPC   C4B35638   5.206  11.538   7.650
 7071POPC   NC335639  29.880  35.342   9.450
 7071POPC   PO435640  29.897  35.358   9.150
 7071POPC   GL135641  29.944  35.384   8.850
 7071POPC   GL235642  29.993  35.473   8.850
 7071POPC   C1A35643  29.944  35.336   8.550
 7071POPC   D2A35644  29.886  35.393   8.250
 7071POPC   C3A35645  29.969  35.317   7.950
 7071POPC   C4A35646  29.918  35.388   7.650
 7071POPC   C1B35647  30.052  35.534   8.550
 7071POPC   C2B35648  30.083  35.519   8.250
 7071POPC   C3B35649  30.130  35.557   7.950
 7071POPC   C4B35650  30.113  35.544   7.650
 7072POPC   NC335651  16.760  26.080   9.450
 7072POPC   PO435652  16.743  26.091   9.150
 7072POPC   GL135653  16.710  26.076   8.850
 7072POPC   GL235654  16.627  26.101   8.850
 7072POPC   C1A35655  16.694  26.037   8.550
 7072POPC   D2A35656  16.700  26.001   8.250
 7072POPC   C3A35657  16.775  26.061   7.950
 7072POPC   C4A35658  16.749  26.090   7.650
 7072POPC   C1B35659  16.531  26.168   8.550
 7072POPC   C2B35660  16.480  26.111   8.250
 7072POPC   C3B35661  16.504  26.106   7.950
 7072POPC   C4B35662  16.475  26.186   7.650
 7073POPC   NC335663  43.854   0.467   9.450
 7073POPC   PO435664  43.886   0.403   9.150
 7073POPC   GL135665  43.838   0.437   8.850
 7073POPC   GL235666  43.985   0.353   8.850
 7073POPC   C1A35667  43.911   0.443   8.550
 7073POPC   D2A35668  43.885   0.403   8.250
 7073POPC   C3A35669  43.894   0.391   7.950
 7073POPC   C4A35670  43.897   0.395   7.650
 7073POPC   C1B35671  44.042   0.207   8.550
 7073POPC   C2B35672  43.986   0.187   8.250
 7073POPC   C3B35673  43.981   0.228   7.950
 7073POPC   C4B35674  43.999   0.194   7.650
 7074POPC   NC335675   5.069   0.420   9.450
 7074POPC   PO435676   5.052   0.412   9.150
 7074POPC   GL135677   5.134   0.418   8.850
 7074POPC   GL235678   4.943   0.388   8.850
 7074POPC   C1A35679   5.075   0.478   8.550
 7074POPC   D2A35680   5.085   0.406   8.250
 7074POPC   C3A35681   5.047   0.469   7.950
 7074POPC   C4A35682   5.111   0.460   7.650
 7074POPC   C1B35683   4.821   0.389   8.550
 7074POPC   C2B35684   4.872   0.387   8.250
 7074POPC   C3B35685   4.840   0.422   7.950
 7074POPC   C4B35686   4.857   0.408   7.650
 7075POPC   NC335687  17.527  23.737   9.450
 7075POPC   PO435688  17.543  23.664   9.150
 7075POPC   GL135689  17.498  23.757   8.850
 7075POPC   GL235690  17.359  23.828   8.850
 7075POPC   C1A35691  17.496  23.729   8.550
 7075POPC   D2A35692  17.467  23.722   8.250
 7075POPC   C3A35693  17.501  23.723   7.950
 7075POPC   C4A35694  17.541  23.713   7.650
 7075POPC   C1B35695  17.332  23.866   8.550
 7075POPC   C2B35696  17.315  23.819   8.250
 7075POPC   C3B35697  17.296  23.892   7.950
 7075POPC   C4B35698  17.316  23.889   7.650
 7076POPC   NC335699  24.536  26.037   9.450
 7076POPC   PO435700  24.464  26.021   9.150
 7076POPC   GL135701  24.463  26.054   8.850
 7076POPC   GL235702  24.372  25.983   8.850
 7076POPC   C1A35703  24.529  26.039   8.550
 7076POPC   D2A35704  24.447  26.025   8.250
 7076POPC   C3A35705  24.514  26.054   7.950
 7076POPC   C4A35706  24.444  26.013   7.650
 7076POPC   C1B35707  24.240  25.895   8.550
 7076POPC   C2B35708  24.308  25.918   8.250
 7076POPC   C3B35709  24.238  25.947   7.950
 7076POPC   C4B35710  24.273  25.938   7.650
 7077POPC   NC335711  40.748  43.935   9.450
 7077POPC   PO435712  40.772  43.879   9.150
 7077POPC   GL135713  40.778  43.843   8.850
 7077POPC   GL235714  40.854  44.035   8.850
 7077POPC   C1A35715  40.754  43.843   8.550
 7077POPC   D2A35716  40.775  43.891   8.250
 7077POPC   C3A35717  40.824  43.896   7.950
 7077POPC   C4A35718  40.790  43.911   7.650
 7077POPC   C1B35719  40.839  44.078   8.550
 7077POPC   C2B35720  40.877  44.114   8.250
 7077POPC   C3B35721  40.864  44.157   7.950
 7077POPC   C4B35722  40.833  44.117   7.650
 7078POPC   NC335723  41.528  29.874   9.450
 7078POPC   PO435724  41.533  29.962   9.150
 7078POPC   GL135725  41.583  29.916   8.850
 7078POPC   GL235726  41.425  29.916   8.850
 7078POPC   C1A35727  41.543  29.910   8.550
 7078POPC   D2A35728  41.521  29.910   8.250
 7078POPC   C3A35729  41.588  29.947   7.950
 7078POPC   C4A35730  41.546  29.943   7.650
 7078POPC   C1B35731  41.310  29.874   8.550
 7078POPC   C2B35732  41.329  29.895   8.250
 7078POPC   C3B35733  41.333  29.899   7.950
 7078POPC   C4B35734  41.320  29.846   7.650
 7079POPC   NC335735  15.151  31.514   9.450
 7079POPC   PO435736  15.194  31.494   9.150
 7079POPC   GL135737  15.222  31.468   8.850
 7079POPC   GL235738  15.012  31.446   8.850
 7079POPC   C1A35739  15.195  31.447   8.550
 7079POPC   D2A35740  15.228  31.516   8.250
 7079POPC   C3A35741  15.214  31.447   7.950
 7079POPC   C4A35742  15.179  31.445   7.650
 7079POPC   C1B35743  14.957  31.520   8.550
 7079POPC   C2B35744  14.901  31.452   8.250
 7079POPC   C3B35745  14.925  31.533   7.950
 7079POPC   C4B35746  14.882  31.461   7.650
 7080POPC   NC335747  19.848   0.479   9.450
 7080POPC   PO435748  19.788   0.409   9.150
 7080POPC   GL135749  19.871   0.474   8.850
 7080POPC   GL235750  19.786   0.491   8.850
 7080POPC   C1A35751  19.808   0.474   8.550
 7080POPC   D2A35752  19.852   0.414   8.250
 7080POPC   C3A35753  19.813   0.457   7.950
 7080POPC   C4A35754  19.850   0.457   7.650
 7080POPC   C1B35755  19.650   0.689   8.550
 7080POPC   C2B35756  19.674   0.641   8.250
 7080POPC   C3B35757  19.699   0.607   7.950
 7080POPC   C4B35758  19.676   0.634   7.650
 7081POPC   NC335759  32.257  10.554   9.450
 7081POPC   PO435760  32.218  10.495   9.150
 7081POPC   GL135761  32.202  10.561   8.850
 7081POPC   GL235762  32.330  10.463   8.850
 7081POPC   C1A35763  32.256  10.554   8.550
 7081POPC   D2A35764  32.243  10.564   8.250
 7081POPC   C3A35765  32.217  10.502   7.950
 7081POPC   C4A35766  32.208  10.511   7.650
 7081POPC   C1B35767  32.525  10.521   8.550
 7081POPC   C2B35768  32.455  10.442   8.250
 7081POPC   C3B35769  32.489  10.454   7.950
 7081POPC   C4B35770  32.508  10.482   7.650
 7082POPC   NC335771  12.035   8.952   9.450
 7082POPC   PO435772  12.038   9.007   9.150
 7082POPC   GL135773  12.109   9.020   8.850
 7082POPC   GL235774  12.036   8.884   8.850
 7082POPC   C1A35775  12.040   8.967   8.550
 7082POPC   D2A35776  12.102   9.004   8.250
 7082POPC   C3A35777  12.054   8.982   7.950
 7082POPC   C4A35778  12.068   8.991   7.650
 7082POPC   C1B35779  12.066   8.763   8.550
 7082POPC   C2B35780  12.064   8.703   8.250
 7082POPC   C3B35781  12.059   8.692   7.950
 7082POPC   C4B35782  12.095   8.724   7.650
 7083POPC   NC335783  21.377  26.775   9.450
 7083POPC   PO435784  21.344  26.846   9.150
 7083POPC   GL135785  21.377  26.802   8.850
 7083POPC   GL235786  21.482  26.879   8.850
 7083POPC   C1A35787  21.408  26.855   8.550
 7083POPC   D2A35788  21.346  26.851   8.250
 7083POPC   C3A35789  21.435  26.828   7.950
 7083POPC   C4A35790  21.420  26.823   7.650
 7083POPC   C1B35791  21.622  26.941   8.550
 7083POPC   C2B35792  21.587  26.985   8.250
 7083POPC   C3B35793  21.643  26.989   7.950
 7083POPC   C4B35794  21.589  26.961   7.650
 7084POPC   NC335795  26.055  36.868   9.450
 7084POPC   PO435796  26.080  36.871   9.150
 7084POPC   GL135797  26.062  36.869   8.850
 7084POPC   GL235798  26.145  36.799   8.850
 7084POPC   C1A35799  26.019  36.936   8.550
 7084POPC   D2A35800  26.028  36.915   8.250
 7084POPC   C3A35801  26.086  36.950   7.950
 7084POPC   C4A35802  26.085  36.888   7.650
 7084POPC   C1B35803  26.195  36.679   8.550
 7084POPC   C2B35804  26.155  36.741   8.250
 7084POPC   C3B35805  26.217  36.731   7.950
 7084POPC   C4B35806  26.207  36.704   7.650
 7085POPC   NC335807   7.408  12.112   9.450
 7085POPC   PO435808   7.420  12.104   9.150
 7085POPC   GL135809   7.429  12.034   8.850
 7085POPC   GL235810   7.251  12.054   8.850
 7085POPC   C1A35811   7.436  12.092   8.550
 7085POPC   D2A35812   7.458  12.123   8.250
 7085POPC   C3A35813   7.382  12.099   7.950
 7085POPC   C4A35814   7.439  12.052   7.650
 7085POPC   C1B35815   7.206  12.092   8.550
 7085POPC   C2B35816   7.199  12.115   8.250
 7085POPC   C3B35817   7.163  12.127   7.950
 7085POPC   C4B35818   7.156  12.090   7.650
 7086POPC   NC335819  33.803  42.341   9.450
 7086POPC   PO435820  33.815  42.379   9.150
 7086POPC   GL135821  33.784  42.346   8.850
 7086POPC   GL235822  33.743  42.198   8.850
 7086POPC   C1A35823  33.763  42.353   8.550
 7086POPC   D2A35824  33.840  42.322   8.250
 7086POPC   C3A35825  33.813  42.376   7.950
 7086POPC   C4A35826  33.784  42.310   7.650
 7086POPC   C1B35827  33.648  42.090   8.550
 7086POPC   C2B35828  33.622  42.184   8.250
 7086POPC   C3B35829  33.603  42.123   7.950
 7086POPC   C4B35830  33.693  42.117   7.650
 7087POPC   NC335831  27.595  43.132   9.450
 7087POPC   PO435832  27.558  43.115   9.150
 7087POPC   GL135833  27.558  43.151   8.850
 7087POPC   GL235834  27.509  43.115   8.850
 7087POPC   C1A35835  27.605  43.148   8.550
 7087POPC   D2A35836  27.602  43.072   8.250
 7087POPC   C3A35837  27.604  43.090   7.950
 7087POPC   C4A35838  27.586  43.137   7.650
 7087POPC   C1B35839  27.330  43.204   8.550
 7087POPC   C2B35840  27.370  43.134   8.250
 7087POPC   C3B35841  27.374  43.180   7.950
 7087POPC   C4B35842  27.309  43.173   7.650
 7088POPC   NC335843  29.930  29.108   9.450
 7088POPC   PO435844  29.944  29.138   9.150
 7088POPC   GL135845  29.903  29.125   8.850
 7088POPC   GL235846  29.925  28.999   8.850
 7088POPC   C1A35847  29.926  29.183   8.550
 7088POPC   D2A35848  29.908  29.109   8.250
 7088POPC   C3A35849  29.879  29.127   7.950
 7088POPC   C4A35850  29.942  29.194   7.650
 7088POPC   C1B35851  29.991  28.894   8.550
 7088POPC   C2B35852  29.961  28.868   8.250
 7088POPC   C3B35853  30.000  28.873   7.950
 7088POPC   C4B35854  29.972  28.938   7.650
 7089POPC   NC335855  23.747  43.879   9.450
 7089POPC   PO435856  23.754  43.886   9.150
 7089POPC   GL135857  23.698  43.925   8.850
 7089POPC   GL235858  23.718  43.765   8.850
 7089POPC   C1A35859  23.694  43.862   8.550
 7089POPC   D2A35860  23.704  43.909   8.250
 7089POPC   C3A35861  23.706  43.882   7.950
 7089POPC   C4A35862  23.740  43.918   7.650
 7089POPC   C1B35863  23.800  43.618   8.550
 7089POPC   C2B35864  23.755  43.666   8.250
 7089POPC   C3B35865  23.785  43.613   7.950
 7089POPC   C4B35866  23.815  43.641   7.650
 7090POPC   NC335867  19.828   5.120   9.450
 7090POPC   PO435868  19.841   5.056   9.150
 7090POPC   GL135869  19.863   5.130   8.850
 7090POPC   GL235870  19.975   5.205   8.850
 7090POPC   C1A35871  19.803   5.121   8.550
 7090POPC   D2A35872  19.873   5.102   8.250
 7090POPC   C3A35873  19.847   5.068   7.950
 7090POPC   C4A35874  19.797   5.139   7.650
 7090POPC   C1B35875  20.030   5.267   8.550
 7090POPC   C2B35876  20.055   5.287   8.250
 7090POPC   C3B35877  20.068   5.270   7.950
 7090POPC   C4B35878  20.022   5.273   7.650
 7091POPC   NC335879  18.299   9.789   9.450
 7091POPC   PO435880  18.319   9.763   9.150
 7091POPC   GL135881  18.325   9.701   8.850
 7091POPC   GL235882  18.154   9.820   8.850
 7091POPC   C1A35883  18.245   9.769   8.550
 7091POPC   D2A35884  18.264   9.709   8.250
 7091POPC   C3A35885  18.274   9.793   7.950
 7091POPC   C4A35886  18.276   9.736   7.650
 7091POPC   C1B35887  18.053   9.917   8.550
 7091POPC   C2B35888  18.099   9.931   8.250
 7091POPC   C3B35889  18.055   9.903   7.950
 7091POPC   C4B35890  18.081   9.910   7.650
 7092POPC   NC335891  21.367  15.984   9.450
 7092POPC   PO435892  21.379  15.993   9.150
 7092POPC   GL135893  21.388  15.920   8.850
 7092POPC   GL235894  21.308  16.090   8.850
 7092POPC   C1A35895  21.362  15.965   8.550
 7092POPC   D2A35896  21.377  15.924   8.250
 7092POPC   C3A35897  21.385  15.981   7.950
 7092POPC   C4A35898  21.390  15.969   7.650
 7092POPC   C1B35899  21.201  16.188   8.550
 7092POPC   C2B35900  21.273  16.133   8.250
 7092POPC   C3B35901  21.274  16.208   7.950
 7092POPC   C4B35902  21.279  16.136   7.650
 7093POPC   NC335903   6.664   5.112   9.450
 7093POPC   PO435904   6.610   5.139   9.150
 7093POPC   GL135905   6.624   5.071   8.850
 7093POPC   GL235906   6.569   4.974   8.850
 7093POPC   C1A35907   6.672   5.135   8.550
 7093POPC   D2A35908   6.620   5.135   8.250
 7093POPC   C3A35909   6.690   5.130   7.950
 7093POPC   C4A35910   6.664   5.054   7.650
 7093POPC   C1B35911   6.575   4.848   8.550
 7093POPC   C2B35912   6.595   4.867   8.250
 7093POPC   C3B35913   6.587   4.858   7.950
 7093POPC   C4B35914   6.541   4.848   7.650
 7094POPC   NC335915  43.907  20.610   9.450
 7094POPC   PO435916  43.854  20.578   9.150
 7094POPC   GL135917  43.887  20.592   8.850
 7094POPC   GL235918  43.882  20.678   8.850
 7094POPC   C1A35919  43.894  20.603   8.550
 7094POPC   D2A35920  43.845  20.631   8.250
 7094POPC   C3A35921  43.837  20.601   7.950
 7094POPC   C4A35922  43.888  20.627   7.650
 7094POPC   C1B35923  43.841  20.809   8.550
 7094POPC   C2B35924  43.845  20.836   8.250
 7094POPC   C3B35925  43.770  20.867   7.950
 7094POPC   C4B35926  43.766  20.888   7.650
 7095POPC   NC335927  12.823  10.516   9.450
 7095POPC   PO435928  12.861  10.483   9.150
 7095POPC   GL135929  12.825  10.550   8.850
 7095POPC   GL235930  12.834  10.615   8.850
 7095POPC   C1A35931  12.852  10.566   8.550
 7095POPC   D2A35932  12.873  10.559   8.250
 7095POPC   C3A35933  12.838  10.572   7.950
 7095POPC   C4A35934  12.876  10.478   7.650
 7095POPC   C1B35935  12.898  10.819   8.550
 7095POPC   C2B35936  12.898  10.728   8.250
 7095POPC   C3B35937  12.881  10.819   7.950
 7095POPC   C4B35938  12.861  10.779   7.650
 7096POPC   NC335939  15.968   5.902   9.450
 7096POPC   PO435940  16.003   5.860   9.150
 7096POPC   GL135941  15.956   5.845   8.850
 7096POPC   GL235942  16.115   5.842   8.850
 7096POPC   C1A35943  15.907   5.841   8.550
 7096POPC   D2A35944  15.938   5.874   8.250
 7096POPC   C3A35945  15.969   5.857   7.950
 7096POPC   C4A35946  15.960   5.824   7.650
 7096POPC   C1B35947  16.229   5.884   8.550
 7096POPC   C2B35948  16.154   5.867   8.250
 7096POPC   C3B35949  16.249   5.913   7.950
 7096POPC   C4B35950  16.239   5.894   7.650
 7097POPC   NC335951  39.263  22.165   9.450
 7097POPC   PO435952  39.261  22.113   9.150
 7097POPC   GL135953  39.227  22.137   8.850
 7097POPC   GL235954  39.103  22.112   8.850
 7097POPC   C1A35955  39.213  22.177   8.550
 7097POPC   D2A35956  39.256  22.189   8.250
 7097POPC   C3A35957  39.197  22.127   7.950
 7097POPC   C4A35958  39.253  22.156   7.650
 7097POPC   C1B35959  39.075  22.045   8.550
 7097POPC   C2B35960  39.053  22.021   8.250
 7097POPC   C3B35961  39.018  22.004   7.950
 7097POPC   C4B35962  38.983  22.015   7.650
 7098POPC   NC335963  34.543  20.583   9.450
 7098POPC   PO435964  34.574  20.613   9.150
 7098POPC   GL135965  34.547  20.632   8.850
 7098POPC   GL235966  34.669  20.521   8.850
 7098POPC   C1A35967  34.575  20.566   8.550
 7098POPC   D2A35968  34.569  20.585   8.250
 7098POPC   C3A35969  34.575  20.637   7.950
 7098POPC   C4A35970  34.550  20.603   7.650
 7098POPC   C1B35971  34.645  20.418   8.550
 7098POPC   C2B35972  34.666  20.432   8.250
 7098POPC   C3B35973  34.651  20.382   7.950
 7098POPC   C4B35974  34.667  20.433   7.650
 7099POPC   NC335975   3.512  35.392   9.450
 7099POPC   PO435976   3.512  35.334   9.150
 7099POPC   GL135977   3.556  35.309   8.850
 7099POPC   GL235978   3.647  35.362   8.850
 7099POPC   C1A35979   3.541  35.307   8.550
 7099POPC   D2A35980   3.547  35.310   8.250
 7099POPC   C3A35981   3.581  35.323   7.950
 7099POPC   C4A35982   3.533  35.333   7.650
 7099POPC   C1B35983   3.834  35.319   8.550
 7099POPC   C2B35984   3.763  35.274   8.250
 7099POPC   C3B35985   3.790  35.279   7.950
 7099POPC   C4B35986   3.800  35.304   7.650
 7100POPC   NC335987   2.754  17.532   9.450
 7100POPC   PO435988   2.753  17.494   9.150
 7100POPC   GL135989   2.717  17.545   8.850
 7100POPC   GL235990   2.767  17.586   8.850
 7100POPC   C1A35991   2.724  17.554   8.550
 7100POPC   D2A35992   2.725  17.460   8.250
 7100POPC   C3A35993   2.795  17.517   7.950
 7100POPC   C4A35994   2.746  17.540   7.650
 7100POPC   C1B35995   2.748  17.722   8.550
 7100POPC   C2B35996   2.746  17.760   8.250
 7100POPC   C3B35997   2.805  17.768   7.950
 7100POPC   C4B35998   2.771  17.743   7.650
 7101POPC   NC335999  22.924   1.182   9.450
 7101POPC   PO436000  22.912   1.232   9.150
 7101POPC   GL136001  22.925   1.262   8.850
 7101POPC   GL236002  22.783   1.148   8.850
 7101POPC   C1A36003  22.939   1.255   8.550
 7101POPC   D2A36004  22.974   1.185   8.250
 7101POPC   C3A36005  22.951   1.235   7.950
 7101POPC   C4A36006  22.893   1.216   7.650
 7101POPC   C1B36007  22.736   1.129   8.550
 7101POPC   C2B36008  22.690   1.127   8.250
 7101POPC   C3B36009  22.721   1.104   7.950
 7101POPC   C4B36010  22.691   1.121   7.650
 7102POPC   NC336011  38.490  25.295   9.450
 7102POPC   PO436012  38.470  25.266   9.150
 7102POPC   GL136013  38.427  25.220   8.850
 7102POPC   GL236014  38.363  25.169   8.850
 7102POPC   C1A36015  38.479  25.279   8.550
 7102POPC   D2A36016  38.449  25.282   8.250
 7102POPC   C3A36017  38.486  25.231   7.950
 7102POPC   C4A36018  38.458  25.267   7.650
 7102POPC   C1B36019  38.296  25.113   8.550
 7102POPC   C2B36020  38.225  25.066   8.250
 7102POPC   C3B36021  38.227  25.123   7.950
 7102POPC   C4B36022  38.304  25.149   7.650
 7103POPC   NC336023   1.950  37.708   9.450
 7103POPC   PO436024   1.945  37.678   9.150
 7103POPC   GL136025   1.995  37.688   8.850
 7103POPC   GL236026   2.088  37.737   8.850
 7103POPC   C1A36027   2.033  37.690   8.550
 7103POPC   D2A36028   2.001  37.662   8.250
 7103POPC   C3A36029   2.019  37.666   7.950
 7103POPC   C4A36030   1.955  37.651   7.650
 7103POPC   C1B36031   2.209  37.734   8.550
 7103POPC   C2B36032   2.220  37.746   8.250
 7103POPC   C3B36033   2.257  37.808   7.950
 7103POPC   C4B36034   2.237  37.828   7.650
 7104POPC   NC336035   5.068   5.089   9.450
 7104POPC   PO436036   5.139   5.106   9.150
 7104POPC   GL136037   5.117   5.056   8.850
 7104POPC   GL236038   5.038   5.171   8.850
 7104POPC   C1A36039   5.044   5.118   8.550
 7104POPC   D2A36040   5.064   5.107   8.250
 7104POPC   C3A36041   5.102   5.099   7.950
 7104POPC   C4A36042   5.084   5.054   7.650
 7104POPC   C1B36043   5.022   5.388   8.550
 7104POPC   C2B36044   5.080   5.320   8.250
 7104POPC   C3B36045   5.090   5.323   7.950
 7104POPC   C4B36046   5.041   5.360   7.650
 7105POPC   NC336047  12.843  20.567   9.450
 7105POPC   PO436048  12.834  20.639   9.150
 7105POPC   GL136049  12.853  20.644   8.850
 7105POPC   GL236050  12.760  20.690   8.850
 7105POPC   C1A36051  12.887  20.566   8.550
 7105POPC   D2A36052  12.818  20.635   8.250
 7105POPC   C3A36053  12.883  20.588   7.950
 7105POPC   C4A36054  12.898  20.650   7.650
 7105POPC   C1B36055  12.644  20.722   8.550
 7105POPC   C2B36056  12.636  20.749   8.250
 7105POPC   C3B36057  12.659  20.727   7.950
 7105POPC   C4B36058  12.660  20.661   7.650
 7106POPC   NC336059  19.830  11.294   9.450
 7106POPC   PO436060  19.851  11.254   9.150
 7106POPC   GL136061  19.813  11.280   8.850
 7106POPC   GL236062  19.735  11.345   8.850
 7106POPC   C1A36063  19.880  11.279   8.550
 7106POPC   D2A36064  19.811  11.256   8.250
 7106POPC   C3A36065  19.802  11.321   7.950
 7106POPC   C4A36066  19.835  11.346   7.650
 7106POPC   C1B36067  19.629  11.477   8.550
 7106POPC   C2B36068  19.660  11.477   8.250
 7106POPC   C3B36069  19.715  11.502   7.950
 7106POPC   C4B36070  19.702  11.464   7.650
 7107POPC   NC336071  30.658  33.754   9.450
 7107POPC   PO436072  30.683  33.816   9.150
 7107POPC   GL136073  30.739  33.756   8.850
 7107POPC   GL236074  30.784  33.652   8.850
 7107POPC   C1A36075  30.667  33.845   8.550
 7107POPC   D2A36076  30.671  33.816   8.250
 7107POPC   C3A36077  30.689  33.811   7.950
 7107POPC   C4A36078  30.705  33.847   7.650
 7107POPC   C1B36079  30.842  33.538   8.550
 7107POPC   C2B36080  30.816  33.569   8.250
 7107POPC   C3B36081  30.845  33.588   7.950
 7107POPC   C4B36082  30.875  33.580   7.650
 7108POPC   NC336083   0.447  32.205   9.450
 7108POPC   PO436084   0.445  32.263   9.150
 7108POPC   GL136085   0.414  32.256   8.850
 7108POPC   GL236086   0.440  32.385   8.850
 7108POPC   C1A36087   0.393  32.232   8.550
 7108POPC   D2A36088   0.423  32.272   8.250
 7108POPC   C3A36089   0.433  32.280   7.950
 7108POPC   C4A36090   0.419  32.220   7.650
 7108POPC   C1B36091   0.500  32.467   8.550
 7108POPC   C2B36092   0.441  32.474   8.250
 7108POPC   C3B36093   0.468  32.446   7.950
 7108POPC   C4B36094   0.460  32.536   7.650
 7109POPC   NC336095  10.506  33.832   9.450
 7109POPC   PO436096  10.572  33.850   9.150
 7109POPC   GL136097  10.480  33.789   8.850
 7109POPC   GL236098  10.565  33.917   8.850
 7109POPC   C1A36099  10.571  33.761   8.550
 7109POPC   D2A36100  10.529  33.751   8.250
 7109POPC   C3A36101  10.557  33.838   7.950
 7109POPC   C4A36102  10.518  33.756   7.650
 7109POPC   C1B36103  10.617  33.997   8.550
 7109POPC   C2B36104  10.613  34.002   8.250
 7109POPC   C3B36105  10.563  34.000   7.950
 7109POPC   C4B36106  10.557  34.089   7.650
 7110POPC   NC336107  17.507  26.037   9.450
 7110POPC   PO436108  17.541  26.060   9.150
 7110POPC   GL136109  17.535  26.013   8.850
 7110POPC   GL236110  17.494  25.922   8.850
 7110POPC   C1A36111  17.535  26.036   8.550
 7110POPC   D2A36112  17.481  25.993   8.250
 7110POPC   C3A36113  17.526  26.019   7.950
 7110POPC   C4A36114  17.515  26.015   7.650
 7110POPC   C1B36115  17.480  25.817   8.550
 7110POPC   C2B36116  17.447  25.769   8.250
 7110POPC   C3B36117  17.481  25.831   7.950
 7110POPC   C4B36118  17.514  25.787   7.650
 7111POPC   NC336119  41.594  18.242   9.450
 7111POPC   PO436120  41.552  18.316   9.150
 7111POPC   GL136121  41.565  18.287   8.850
 7111POPC   GL236122  41.528  18.190   8.850
 7111POPC   C1A36123  41.608  18.260   8.550
 7111POPC   D2A36124  41.604  18.292   8.250
 7111POPC   C3A36125  41.518  18.236   7.950
 7111POPC   C4A36126  41.556  18.325   7.650
 7111POPC   C1B36127  41.466  18.055   8.550
 7111POPC   C2B36128  41.516  18.026   8.250
 7111POPC   C3B36129  41.473  18.075   7.950
 7111POPC   C4B36130  41.447  18.051   7.650
 7112POPC   NC336131  27.566   8.977   9.450
 7112POPC   PO436132  27.561   8.992   9.150
 7112POPC   GL136133  27.578   8.950   8.850
 7112POPC   GL236134  27.729   8.941   8.850
 7112POPC   C1A36135  27.565   8.984   8.550
 7112POPC   D2A36136  27.549   8.957   8.250
 7112POPC   C3A36137  27.617   9.002   7.950
 7112POPC   C4A36138  27.593   8.977   7.650
 7112POPC   C1B36139  27.828   8.875   8.550
 7112POPC   C2B36140  27.770   8.892   8.250
 7112POPC   C3B36141  27.865   8.849   7.950
 7112POPC   C4B36142  27.840   8.893   7.650
 7113POPC   NC336143   2.028  29.180   9.450
 7113POPC   PO436144   2.034  29.100   9.150
 7113POPC   GL136145   1.958  29.143   8.850
 7113POPC   GL236146   1.917  29.223   8.850
 7113POPC   C1A36147   2.011  29.121   8.550
 7113POPC   D2A36148   2.027  29.165   8.250
 7113POPC   C3A36149   1.945  29.193   7.950
 7113POPC   C4A36150   2.025  29.180   7.650
 7113POPC   C1B36151   1.834  29.392   8.550
 7113POPC   C2B36152   1.814  29.351   8.250
 7113POPC   C3B36153   1.872  29.327   7.950
 7113POPC   C4B36154   1.828  29.321   7.650
 7114POPC   NC336155  43.931  43.839   9.450
 7114POPC   PO436156  43.909  43.842   9.150
 7114POPC   GL136157  43.921  43.872   8.850
 7114POPC   GL236158  43.800  44.033   8.850
 7114POPC   C1A36159  43.867  43.845   8.550
 7114POPC   D2A36160  43.919  43.934   8.250
 7114POPC   C3A36161  43.900  43.854   7.950
 7114POPC   C4A36162  43.909  43.892   7.650
 7114POPC   C1B36163  43.812  44.151   8.550
 7114POPC   C2B36164  43.847  44.132   8.250
 7114POPC   C3B36165  43.783  44.096   7.950
 7114POPC   C4B36166  43.766  44.144   7.650
 7115POPC   NC336167  16.749  42.291   9.450
 7115POPC   PO436168  16.776  42.315   9.150
 7115POPC   GL136169  16.740  42.317   8.850
 7115POPC   GL236170  16.747  42.411   8.850
 7115POPC   C1A36171  16.704  42.367   8.550
 7115POPC   D2A36172  16.747  42.359   8.250
 7115POPC   C3A36173  16.698  42.349   7.950
 7115POPC   C4A36174  16.741  42.323   7.650
 7115POPC   C1B36175  16.790  42.542   8.550
 7115POPC   C2B36176  16.731  42.583   8.250
 7115POPC   C3B36177  16.816  42.592   7.950
 7115POPC   C4B36178  16.765  42.580   7.650
 7116POPC   NC336179  19.090  20.561   9.450
 7116POPC   PO436180  19.034  20.578   9.150
 7116POPC   GL136181  19.036  20.642   8.850
 7116POPC   GL236182  19.144  20.587   8.850
 7116POPC   C1A36183  19.068  20.626   8.550
 7116POPC   D2A36184  19.084  20.602   8.250
 7116POPC   C3A36185  19.015  20.599   7.950
 7116POPC   C4A36186  19.013  20.577   7.650
 7116POPC   C1B36187  19.298  20.620   8.550
 7116POPC   C2B36188  19.271  20.644   8.250
 7116POPC   C3B36189  19.297  20.611   7.950
 7116POPC   C4B36190  19.320  20.670   7.650
 7117POPC   NC336191   1.993   3.527   9.450
 7117POPC   PO436192   1.970   3.540   9.150
 7117POPC   GL136193   1.968   3.550   8.850
 7117POPC   GL236194   1.890   3.587   8.850
 7117POPC   C1A36195   2.039   3.533   8.550
 7117POPC   D2A36196   1.941   3.584   8.250
 7117POPC   C3A36197   1.986   3.558   7.950
 7117POPC   C4A36198   1.944   3.516   7.650
 7117POPC   C1B36199   1.860   3.754   8.550
 7117POPC   C2B36200   1.818   3.719   8.250
 7117POPC   C3B36201   1.855   3.702   7.950
 7117POPC   C4B36202   1.820   3.744   7.650
 7118POPC   NC336203  22.134   5.109   9.450
 7118POPC   PO436204  22.160   5.102   9.150
 7118POPC   GL136205  22.122   5.122   8.850
 7118POPC   GL236206  22.041   5.142   8.850
 7118POPC   C1A36207  22.205   5.046   8.550
 7118POPC   D2A36208  22.199   5.112   8.250
 7118POPC   C3A36209  22.163   5.133   7.950
 7118POPC   C4A36210  22.184   5.068   7.650
 7118POPC   C1B36211  21.931   5.310   8.550
 7118POPC   C2B36212  21.981   5.244   8.250
 7118POPC   C3B36213  22.011   5.301   7.950
 7118POPC   C4B36214  21.955   5.289   7.650
 7119POPC   NC336215  29.927  26.051   9.450
 7119POPC   PO436216  29.896  26.019   9.150
 7119POPC   GL136217  29.962  26.066   8.850
 7119POPC   GL236218  29.906  26.199   8.850
 7119POPC   C1A36219  29.921  26.089   8.550
 7119POPC   D2A36220  29.926  26.045   8.250
 7119POPC   C3A36221  29.953  26.035   7.950
 7119POPC   C4A36222  29.935  26.074   7.650
 7119POPC   C1B36223  29.980  26.301   8.550
 7119POPC   C2B36224  29.931  26.323   8.250
 7119POPC   C3B36225  29.962  26.252   7.950
 7119POPC   C4B36226  29.966  26.329   7.650
 7120POPC   NC336227  11.265  19.019   9.450
 7120POPC   PO436228  11.251  19.051   9.150
 7120POPC   GL136229  11.320  19.063   8.850
 7120POPC   GL236230  11.374  19.152   8.850
 7120POPC   C1A36231  11.340  19.082   8.550
 7120POPC   D2A36232  11.284  19.034   8.250
 7120POPC   C3A36233  11.347  19.092   7.950
 7120POPC   C4A36234  11.315  19.010   7.650
 7120POPC   C1B36235  11.505  19.252   8.550
 7120POPC   C2B36236  11.530  19.195   8.250
 7120POPC   C3B36237  11.492  19.245   7.950
 7120POPC   C4B36238  11.521  19.250   7.650
 7121POPC   NC336239  41.543  40.823   9.450
 7121POPC   PO436240  41.548  40.750   9.150
 7121POPC   GL136241  41.515  40.757   8.850
 7121POPC   GL236242  41.447  40.766   8.850
 7121POPC   C1A36243  41.538  40.808   8.550
 7121POPC   D2A36244  41.571  40.825   8.250
 7121POPC   C3A36245  41.576  40.787   7.950
 7121POPC   C4A36246  41.541  40.819   7.650
 7121POPC   C1B36247  41.298  40.759   8.550
 7121POPC   C2B36248  41.290  40.739   8.250
 7121POPC   C3B36249  41.328  40.733   7.950
 7121POPC   C4B36250  41.271  40.770   7.650
 7122POPC   NC336251  23.700  20.633   9.450
 7122POPC   PO436252  23.757  20.578   9.150
 7122POPC   GL136253  23.733  20.644   8.850
 7122POPC   GL236254  23.680  20.737   8.850
 7122POPC   C1A36255  23.672  20.634   8.550
 7122POPC   D2A36256  23.674  20.598   8.250
 7122POPC   C3A36257  23.664  20.652   7.950
 7122POPC   C4A36258  23.729  20.575   7.650
 7122POPC   C1B36259  23.628  20.891   8.550
 7122POPC   C2B36260  23.580  20.891   8.250
 7122POPC   C3B36261  23.599  20.879   7.950
 7122POPC   C4B36262  23.605  20.798   7.650
 7123POPC   NC336263   1.216   8.237   9.450
 7123POPC   PO436264   1.205   8.175   9.150
 7123POPC   GL136265   1.198   8.180   8.850
 7123POPC   GL236266   1.067   8.227   8.850
 7123POPC   C1A36267   1.175   8.233   8.550
 7123POPC   D2A36268   1.191   8.152   8.250
 7123POPC   C3A36269   1.254   8.163   7.950
 7123POPC   C4A36270   1.261   8.223   7.650
 7123POPC   C1B36271   0.940   8.218   8.550
 7123POPC   C2B36272   0.937   8.219   8.250
 7123POPC   C3B36273   0.975   8.225   7.950
 7123POPC   C4B36274   0.993   8.213   7.650
 7124POPC   NC336275  14.431  15.958   9.450
 7124POPC   PO436276  14.417  15.922   9.150
 7124POPC   GL136277  14.403  15.931   8.850
 7124POPC   GL236278  14.393  15.856   8.850
 7124POPC   C1A36279  14.416  15.909   8.550
 7124POPC   D2A36280  14.391  15.999   8.250
 7124POPC   C3A36281  14.370  15.922   7.950
 7124POPC   C4A36282  14.355  15.986   7.650
 7124POPC   C1B36283  14.379  15.754   8.550
 7124POPC   C2B36284  14.399  15.691   8.250
 7124POPC   C3B36285  14.434  15.675   7.950
 7124POPC   C4B36286  14.384  15.735   7.650
 7125POPC   NC336287  22.144  42.330   9.450
 7125POPC   PO436288  22.137  42.318   9.150
 7125POPC   GL136289  22.168  42.356   8.850
 7125POPC   GL236290  22.109  42.214   8.850
 7125POPC   C1A36291  22.211  42.334   8.550
 7125POPC   D2A36292  22.167  42.304   8.250
 7125POPC   C3A36293  22.179  42.384   7.950
 7125POPC   C4A36294  22.209  42.349   7.650
 7125POPC   C1B36295  22.084  42.095   8.550
 7125POPC   C2B36296  22.030  42.164   8.250
 7125POPC   C3B36297  22.051  42.147   7.950
 7125POPC   C4B36298  22.018  42.121   7.650
 7126POPC   NC336299  35.331   2.726   9.450
 7126POPC   PO436300  35.368   2.720   9.150
 7126POPC   GL136301  35.326   2.721   8.850
 7126POPC   GL236302  35.378   2.619   8.850
 7126POPC   C1A36303  35.377   2.763   8.550
 7126POPC   D2A36304  35.400   2.733   8.250
 7126POPC   C3A36305  35.334   2.752   7.950
 7126POPC   C4A36306  35.401   2.742   7.650
 7126POPC   C1B36307  35.281   2.470   8.550
 7126POPC   C2B36308  35.286   2.478   8.250
 7126POPC   C3B36309  35.371   2.524   7.950
 7126POPC   C4B36310  35.328   2.522   7.650
 7127POPC   NC336311  27.584  36.923   9.450
 7127POPC   PO436312  27.605  36.926   9.150
 7127POPC   GL136313  27.548  36.938   8.850
 7127POPC   GL236314  27.587  36.763   8.850
 7127POPC   C1A36315  27.572  36.866   8.550
 7127POPC   D2A36316  27.636  36.902   8.250
 7127POPC   C3A36317  27.631  36.947   7.950
 7127POPC   C4A36318  27.588  36.858   7.650
 7127POPC   C1B36319  27.560  36.711   8.550
 7127POPC   C2B36320  27.501  36.678   8.250
 7127POPC   C3B36321  27.527  36.688   7.950
 7127POPC   C4B36322  27.503  36.648   7.650
 7128POPC   NC336323  12.881  40.775   9.450
 7128POPC   PO436324  12.836  40.822   9.150
 7128POPC   GL136325  12.825  40.762   8.850
 7128POPC   GL236326  12.869  40.664   8.850
 7128POPC   C1A36327  12.803  40.828   8.550
 7128POPC   D2A36328  12.850  40.776   8.250
 7128POPC   C3A36329  12.887  40.795   7.950
 7128POPC   C4A36330  12.859  40.778   7.650
 7128POPC   C1B36331  12.843  40.559   8.550
 7128POPC   C2B36332  12.832  40.493   8.250
 7128POPC   C3B36333  12.837  40.504   7.950
 7128POPC   C4B36334  12.861  40.504   7.650
 7129POPC   NC336335  26.080  11.342   9.450
 7129POPC   PO436336  26.084  11.297   9.150
 7129POPC   GL136337  26.033  11.344   8.850
 7129POPC   GL236338  25.943  11.422   8.850
 7129POPC   C1A36339  26.030  11.265   8.550
 7129POPC   D2A36340  26.011  11.294   8.250
 7129POPC   C3A36341  26.014  11.322   7.950
 7129POPC   C4A36342  25.998  11.283   7.650
 7129POPC   C1B36343  25.824  11.474   8.550
 7129POPC   C2B36344  25.905  11.514   8.250
 7129POPC   C3B36345  25.817  11.507   7.950
 7129POPC   C4B36346  25.818  11.496   7.650
 7130POPC   NC336347  42.336  42.337   9.450
 7130POPC   PO436348  42.323  42.317   9.150
 7130POPC   GL136349  42.377  42.324   8.850
 7130POPC   GL236350  42.499  42.325   8.850
 7130POPC   C1A36351  42.362  42.375   8.550
 7130POPC   D2A36352  42.323  42.351   8.250
 7130POPC   C3A36353  42.336  42.341   7.950
 7130POPC   C4A36354  42.311  42.287   7.650
 7130POPC   C1B36355  42.527  42.244   8.550
 7130POPC   C2B36356  42.534  42.299   8.250
 7130POPC   C3B36357  42.557  42.306   7.950
 7130POPC   C4B36358  42.609  42.282   7.650
 7131POPC   NC336359   4.331   8.157   9.450
 7131POPC   PO436360   4.290   8.221   9.150
 7131POPC   GL136361   4.312   8.185   8.850
 7131POPC   GL236362   4.377   8.111   8.850
 7131POPC   C1A36363   4.327   8.147   8.550
 7131POPC   D2A36364   4.367   8.190   8.250
 7131POPC   C3A36365   4.354   8.208   7.950
 7131POPC   C4A36366   4.325   8.202   7.650
 7131POPC   C1B36367   4.434   7.951   8.550
 7131POPC   C2B36368   4.378   8.006   8.250
 7131POPC   C3B36369   4.442   7.932   7.950
 7131POPC   C4B36370   4.459   7.941   7.650
 7132POPC   NC336371  43.856  23.678   9.450
 7132POPC   PO436372  43.907  23.732   9.150
 7132POPC   GL136373  43.854  23.705   8.850
 7132POPC   GL236374  43.887  23.839   8.850
 7132POPC   C1A36375  43.889  23.705   8.550
 7132POPC   D2A36376  43.848  23.690   8.250
 7132POPC   C3A36377  43.888  23.729   7.950
 7132POPC   C4A36378  43.930  23.693   7.650
 7132POPC   C1B36379  44.008  23.956   8.550
 7132POPC   C2B36380  43.937  23.934   8.250
 7132POPC   C3B36381  44.000  23.932   7.950
 7132POPC   C4B36382  43.958  23.983   7.650
 7133POPC   NC336383   5.822   9.700   9.450
 7133POPC   PO436384   5.887   9.722   9.150
 7133POPC   GL136385   5.823   9.755   8.850
 7133POPC   GL236386   5.787   9.842   8.850
 7133POPC   C1A36387   5.902   9.714   8.550
 7133POPC   D2A36388   5.888   9.766   8.250
 7133POPC   C3A36389   5.906   9.756   7.950
 7133POPC   C4A36390   5.912   9.725   7.650
 7133POPC   C1B36391   5.643   9.871   8.550
 7133POPC   C2B36392   5.649   9.889   8.250
 7133POPC   C3B36393   5.633   9.940   7.950
 7133POPC   C4B36394   5.643   9.877   7.650
 7134POPC   NC336395  26.836  40.795   9.450
 7134POPC   PO436396  26.792  40.774   9.150
 7134POPC   GL136397  26.820  40.754   8.850
 7134POPC   GL236398  26.933  40.668   8.850
 7134POPC   C1A36399  26.790  40.740   8.550
 7134POPC   D2A36400  26.803  40.738   8.250
 7134POPC   C3A36401  26.838  40.830   7.950
 7134POPC   C4A36402  26.820  40.778   7.650
 7134POPC   C1B36403  27.002  40.630   8.550
 7134POPC   C2B36404  27.016  40.594   8.250
 7134POPC   C3B36405  27.003  40.605   7.950
 7134POPC   C4B36406  27.009  40.610   7.650
 7135POPC   NC336407  27.592   1.233   9.450
 7135POPC   PO436408  27.585   1.176   9.150
 7135POPC   GL136409  27.579   1.188   8.850
 7135POPC   GL236410  27.640   1.341   8.850
 7135POPC   C1A36411  27.589   1.207   8.550
 7135POPC   D2A36412  27.641   1.244   8.250
 7135POPC   C3A36413  27.626   1.235   7.950
 7135POPC   C4A36414  27.598   1.240   7.650
 7135POPC   C1B36415  27.677   1.465   8.550
 7135POPC   C2B36416  27.651   1.478   8.250
 7135POPC   C3B36417  27.695   1.469   7.950
 7135POPC   C4B36418  27.688   1.405   7.650
 7136POPC   NC336419  29.918  30.698   9.450
 7136POPC   PO436420  29.955  30.661   9.150
 7136POPC   GL136421  29.934  30.735   8.850
 7136POPC   GL236422  30.011  30.668   8.850
 7136POPC   C1A36423  29.904  30.695   8.550
 7136POPC   D2A36424  29.873  30.717   8.250
 7136POPC   C3A36425  29.934  30.704   7.950
 7136POPC   C4A36426  29.904  30.680   7.650
 7136POPC   C1B36427  30.172  30.632   8.550
 7136POPC   C2B36428  30.208  30.602   8.250
 7136POPC   C3B36429  30.162  30.617   7.950
 7136POPC   C4B36430  30.167  30.675   7.650
 7137POPC   NC336431  25.237  43.087   9.450
 7137POPC   PO436432  25.308  43.082   9.150
 7137POPC   GL136433  25.283  43.113   8.850
 7137POPC   GL236434  25.188  43.022   8.850
 7137POPC   C1A36435  25.254  43.152   8.550
 7137POPC   D2A36436  25.285  43.145   8.250
 7137POPC   C3A36437  25.244  43.105   7.950
 7137POPC   C4A36438  25.293  43.158   7.650
 7137POPC   C1B36439  25.148  42.834   8.550
 7137POPC   C2B36440  25.134  42.913   8.250
 7137POPC   C3B36441  25.196  42.873   7.950
 7137POPC   C4B36442  25.165  42.869   7.650
 7138POPC   NC336443   5.128  13.667   9.450
 7138POPC   PO436444   5.090  13.594   9.150
 7138POPC   GL136445   5.072  13.660   8.850
 7138POPC   GL236446   5.211  13.619   8.850
 7138POPC   C1A36447   5.127  13.624   8.550
 7138POPC   D2A36448   5.051  13.666   8.250
 7138POPC   C3A36449   5.092  13.586   7.950
 7138POPC   C4A36450   5.142  13.668   7.650
 7138POPC   C1B36451   5.304  13.473   8.550
 7138POPC   C2B36452   5.292  13.524   8.250
 7138POPC   C3B36453   5.310  13.549   7.950
 7138POPC   C4B36454   5.340  13.565   7.650
 7139POPC   NC336455   9.790   8.935   9.450
 7139POPC   PO436456   9.790   9.019   9.150
 7139POPC   GL136457   9.716   8.929   8.850
 7139POPC   GL236458   9.764   8.823   8.850
 7139POPC   C1A36459   9.782   9.011   8.550
 7139POPC   D2A36460   9.769   8.998   8.250
 7139POPC   C3A36461   9.752   8.959   7.950
 7139POPC   C4A36462   9.722   8.975   7.650
 7139POPC   C1B36463   9.835   8.687   8.550
 7139POPC   C2B36464   9.821   8.767   8.250
 7139POPC   C3B36465   9.773   8.754   7.950
 7139POPC   C4B36466   9.791   8.731   7.650
 7140POPC   NC336467   5.128   9.761   9.450
 7140POPC   PO436468   5.143   9.704   9.150
 7140POPC   GL136469   5.062   9.734   8.850
 7140POPC   GL236470   5.071   9.841   8.850
 7140POPC   C1A36471   5.106   9.755   8.550
 7140POPC   D2A36472   5.094   9.739   8.250
 7140POPC   C3A36473   5.051   9.742   7.950
 7140POPC   C4A36474   5.142   9.785   7.650
 7140POPC   C1B36475   5.128  10.012   8.550
 7140POPC   C2B36476   5.089   9.959   8.250
 7140POPC   C3B36477   5.153   9.977   7.950
 7140POPC   C4B36478   5.117   9.998   7.650
 7141POPC   NC336479  13.615   9.740   9.450
 7141POPC   PO436480  13.619   9.753   9.150
 7141POPC   GL136481  13.630   9.767   8.850
 7141POPC   GL236482  13.685   9.579   8.850
 7141POPC   C1A36483  13.654   9.707   8.550
 7141POPC   D2A36484  13.651   9.722   8.250
 7141POPC   C3A36485  13.645   9.783   7.950
 7141POPC   C4A36486  13.675   9.792   7.650
 7141POPC   C1B36487  13.643   9.475   8.550
 7141POPC   C2B36488  13.724   9.543   8.250
 7141POPC   C3B36489  13.728   9.479   7.950
 7141POPC   C4B36490  13.734   9.488   7.650
 7142POPC   NC336491  23.713  15.953   9.450
 7142POPC   PO436492  23.666  15.996   9.150
 7142POPC   GL136493  23.670  15.946   8.850
 7142POPC   GL236494  23.547  15.971   8.850
 7142POPC   C1A36495  23.664  15.915   8.550
 7142POPC   D2A36496  23.711  15.966   8.250
 7142POPC   C3A36497  23.760  15.927   7.950
 7142POPC   C4A36498  23.668  15.976   7.650
 7142POPC   C1B36499  23.444  15.861   8.550
 7142POPC   C2B36500  23.448  15.916   8.250
 7142POPC   C3B36501  23.474  15.905   7.950
 7142POPC   C4B36502  23.471  15.898   7.650
 7143POPC   NC336503  33.064  37.671   9.450
 7143POPC   PO436504  33.065  37.676   9.150
 7143POPC   GL136505  33.016  37.709   8.850
 7143POPC   GL236506  33.025  37.851   8.850
 7143POPC   C1A36507  32.975  37.722   8.550
 7143POPC   D2A36508  32.987  37.643   8.250
 7143POPC   C3A36509  33.044  37.680   7.950
 7143POPC   C4A36510  33.047  37.662   7.650
 7143POPC   C1B36511  32.995  37.931   8.550
 7143POPC   C2B36512  32.924  37.899   8.250
 7143POPC   C3B36513  32.979  37.959   7.950
 7143POPC   C4B36514  32.960  37.942   7.650
 7144POPC   NC336515  22.921  28.367   9.450
 7144POPC   PO436516  22.952  28.367   9.150
 7144POPC   GL136517  22.954  28.378   8.850
 7144POPC   GL236518  23.066  28.291   8.850
 7144POPC   C1A36519  22.983  28.400   8.550
 7144POPC   D2A36520  22.901  28.377   8.250
 7144POPC   C3A36521  22.959  28.399   7.950
 7144POPC   C4A36522  22.896  28.390   7.650
 7144POPC   C1B36523  23.098  28.257   8.550
 7144POPC   C2B36524  23.186  28.237   8.250
 7144POPC   C3B36525  23.119  28.217   7.950
 7144POPC   C4B36526  23.158  28.189   7.650
 7145POPC   NC336527  40.757  10.547   9.450
 7145POPC   PO436528  40.792  10.551   9.150
 7145POPC   GL136529  40.750  10.497   8.850
 7145POPC   GL236530  40.833  10.426   8.850
 7145POPC   C1A36531  40.812  10.550   8.550
 7145POPC   D2A36532  40.784  10.555   8.250
 7145POPC   C3A36533  40.820  10.491   7.950
 7145POPC   C4A36534  40.799  10.491   7.650
 7145POPC   C1B36535  40.875  10.298   8.550
 7145POPC   C2B36536  40.866  10.288   8.250
 7145POPC   C3B36537  40.904  10.326   7.950
 7145POPC   C4B36538  40.917  10.308   7.650
 7146POPC   NC336539  38.501  14.374   9.450
 7146POPC   PO436540  38.413  14.372   9.150
 7146POPC   GL136541  38.434  14.419   8.850
 7146POPC   GL236542  38.532  14.353   8.850
 7146POPC   C1A36543  38.414  14.431   8.550
 7146POPC   D2A36544  38.436  14.440   8.250
 7146POPC   C3A36545  38.446  14.449   7.950
 7146POPC   C4A36546  38.472  14.396   7.650
 7146POPC   C1B36547  38.678  14.301   8.550
 7146POPC   C2B36548  38.656  14.220   8.250
 7146POPC   C3B36549  38.638  14.221   7.950
 7146POPC   C4B36550  38.687  14.293   7.650
 7147POPC   NC336551  29.169  36.947   9.450
 7147POPC   PO436552  29.169  36.923   9.150
 7147POPC   GL136553  29.145  36.871   8.850
 7147POPC   GL236554  29.254  36.864   8.850
 7147POPC   C1A36555  29.191  36.893   8.550
 7147POPC   D2A36556  29.166  36.880   8.250
 7147POPC   C3A36557  29.166  36.860   7.950
 7147POPC   C4A36558  29.192  36.862   7.650
 7147POPC   C1B36559  29.364  36.764   8.550
 7147POPC   C2B36560  29.352  36.701   8.250
 7147POPC   C3B36561  29.301  36.793   7.950
 7147POPC   C4B36562  29.367  36.785   7.650
 7148POPC   NC336563  40.005  23.679   9.450
 7148POPC   PO436564  40.026  23.747   9.150
 7148POPC   GL136565  40.006  23.714   8.850
 7148POPC   GL236566  40.030  23.830   8.850
 7148POPC   C1A36567  39.988  23.709   8.550
 7148POPC   D2A36568  39.971  23.674   8.250
 7148POPC   C3A36569  40.007  23.701   7.950
 7148POPC   C4A36570  39.995  23.665   7.650
 7148POPC   C1B36571  40.101  23.950   8.550
 7148POPC   C2B36572  40.147  23.882   8.250
 7148POPC   C3B36573  40.104  23.905   7.950
 7148POPC   C4B36574  40.106  23.917   7.650
 7149POPC   NC336575  18.309  31.487   9.450
 7149POPC   PO436576  18.263  31.504   9.150
 7149POPC   GL136577  18.325  31.471   8.850
 7149POPC   GL236578  18.166  31.413   8.850
 7149POPC   C1A36579  18.258  31.435   8.550
 7149POPC   D2A36580  18.332  31.491   8.250
 7149POPC   C3A36581  18.283  31.433   7.950
 7149POPC   C4A36582  18.312  31.514   7.650
 7149POPC   C1B36583  18.143  31.260   8.550
 7149POPC   C2B36584  18.111  31.277   8.250
 7149POPC   C3B36585  18.102  31.315   7.950
 7149POPC   C4B36586  18.183  31.274   7.650
 7150POPC   NC336587  26.821   6.667   9.450
 7150POPC   PO436588  26.776   6.672   9.150
 7150POPC   GL136589  26.812   6.656   8.850
 7150POPC   GL236590  26.790   6.741   8.850
 7150POPC   C1A36591  26.782   6.646   8.550
 7150POPC   D2A36592  26.863   6.660   8.250
 7150POPC   C3A36593  26.826   6.627   7.950
 7150POPC   C4A36594  26.812   6.630   7.650
 7150POPC   C1B36595  26.755   6.921   8.550
 7150POPC   C2B36596  26.756   6.850   8.250
 7150POPC   C3B36597  26.837   6.936   7.950
 7150POPC   C4B36598  26.767   6.858   7.650
 7151POPC   NC336599  35.340  10.529   9.450
 7151POPC   PO436600  35.378  10.488   9.150
 7151POPC   GL136601  35.307  10.559   8.850
 7151POPC   GL236602  35.347  10.409   8.850
 7151POPC   C1A36603  35.389  10.492   8.550
 7151POPC   D2A36604  35.355  10.560   8.250
 7151POPC   C3A36605  35.346  10.561   7.950
 7151POPC   C4A36606  35.348  10.491   7.650
 7151POPC   C1B36607  35.270  10.292   8.550
 7151POPC   C2B36608  35.275  10.303   8.250
 7151POPC   C3B36609  35.289  10.243   7.950
 7151POPC   C4B36610  35.304  10.326   7.650
 7152POPC   NC336611  36.160  15.979   9.450
 7152POPC   PO436612  36.140  15.976   9.150
 7152POPC   GL136613  36.105  15.918   8.850
 7152POPC   GL236614  36.004  16.039   8.850
 7152POPC   C1A36615  36.108  15.907   8.550
 7152POPC   D2A36616  36.105  15.963   8.250
 7152POPC   C3A36617  36.082  15.910   7.950
 7152POPC   C4A36618  36.145  15.906   7.650
 7152POPC   C1B36619  35.975  16.198   8.550
 7152POPC   C2B36620  35.938  16.146   8.250
 7152POPC   C3B36621  35.941  16.153   7.950
 7152POPC   C4B36622  35.985  16.124   7.650
 7153POPC   NC336623  33.760   6.616   9.450
 7153POPC   PO436624  33.766   6.639   9.150
 7153POPC   GL136625  33.751   6.661   8.850
 7153POPC   GL236626  33.745   6.509   8.850
 7153POPC   C1A36627  33.841   6.645   8.550
 7153POPC   D2A36628  33.792   6.621   8.250
 7153POPC   C3A36629  33.836   6.690   7.950
 7153POPC   C4A36630  33.840   6.611   7.650
 7153POPC   C1B36631  33.764   6.393   8.550
 7153POPC   C2B36632  33.758   6.427   8.250
 7153POPC   C3B36633  33.711   6.369   7.950
 7153POPC   C4B36634  33.793   6.423   7.650
 7154POPC   NC336635  29.158  19.799   9.450
 7154POPC   PO436636  29.141  19.789   9.150
 7154POPC   GL136637  29.116  19.785   8.850
 7154POPC   GL236638  29.174  19.999   8.850
 7154POPC   C1A36639  29.113  19.799   8.550
 7154POPC   D2A36640  29.161  19.883   8.250
 7154POPC   C3A36641  29.138  19.797   7.950
 7154POPC   C4A36642  29.102  19.829   7.650
 7154POPC   C1B36643  29.257  20.060   8.550
 7154POPC   C2B36644  29.253  20.086   8.250
 7154POPC   C3B36645  29.244  20.100   7.950
 7154POPC   C4B36646  29.224  20.043   7.650
 7155POPC   NC336647   1.263  32.227   9.450
 7155POPC   PO436648   1.186  32.208   9.150
 7155POPC   GL136649   1.193  32.281   8.850
 7155POPC   GL236650   1.212  32.107   8.850
 7155POPC   C1A36651   1.228  32.207   8.550
 7155POPC   D2A36652   1.207  32.250   8.250
 7155POPC   C3A36653   1.239  32.228   7.950
 7155POPC   C4A36654   1.166  32.267   7.650
 7155POPC   C1B36655   1.235  31.962   8.550
 7155POPC   C2B36656   1.217  32.030   8.250
 7155POPC   C3B36657   1.185  32.022   7.950
 7155POPC   C4B36658   1.232  31.957   7.650
 7156POPC   NC336659   7.421  11.325   9.450
 7156POPC   PO436660   7.377  11.314   9.150
 7156POPC   GL136661   7.379  11.333   8.850
 7156POPC   GL236662   7.530  11.406   8.850
 7156POPC   C1A36663   7.460  11.287   8.550
 7156POPC   D2A36664   7.439  11.324   8.250
 7156POPC   C3A36665   7.470  11.349   7.950
 7156POPC   C4A36666   7.434  11.326   7.650
 7156POPC   C1B36667   7.571  11.546   8.550
 7156POPC   C2B36668   7.552  11.542   8.250
 7156POPC   C3B36669   7.513  11.533   7.950
 7156POPC   C4B36670   7.529  11.494   7.650
 7157POPC   NC336671  43.893  28.383   9.450
 7157POPC   PO436672  43.910  28.333   9.150
 7157POPC   GL136673  43.840  28.330   8.850
 7157POPC   GL236674  43.805  28.523   8.850
 7157POPC   C1A36675  43.906  28.380   8.550
 7157POPC   D2A36676  43.878  28.406   8.250
 7157POPC   C3A36677  43.888  28.407   7.950
 7157POPC   C4A36678  43.869  28.344   7.650
 7157POPC   C1B36679  43.740  28.604   8.550
 7157POPC   C2B36680  43.802  28.560   8.250
 7157POPC   C3B36681  43.747  28.561   7.950
 7157POPC   C4B36682  43.740  28.553   7.650
 7158POPC   NC336683  22.125  20.618   9.450
 7158POPC   PO436684  22.142  20.634   9.150
 7158POPC   GL136685  22.182  20.565   8.850
 7158POPC   GL236686  22.299  20.535   8.850
 7158POPC   C1A36687  22.146  20.562   8.550
 7158POPC   D2A36688  22.127  20.574   8.250
 7158POPC   C3A36689  22.142  20.636   7.950
 7158POPC   C4A36690  22.178  20.612   7.650
 7158POPC   C1B36691  22.370  20.588   8.550
 7158POPC   C2B36692  22.379  20.554   8.250
 7158POPC   C3B36693  22.418  20.572   7.950
 7158POPC   C4B36694  22.446  20.567   7.650
 7159POPC   NC336695  36.922  12.819   9.450
 7159POPC   PO436696  36.858  12.826   9.150
 7159POPC   GL136697  36.894  12.839   8.850
 7159POPC   GL236698  37.001  12.833   8.850
 7159POPC   C1A36699  36.858  12.847   8.550
 7159POPC   D2A36700  36.880  12.893   8.250
 7159POPC   C3A36701  36.904  12.810   7.950
 7159POPC   C4A36702  36.896  12.874   7.650
 7159POPC   C1B36703  37.112  12.788   8.550
 7159POPC   C2B36704  37.139  12.748   8.250
 7159POPC   C3B36705  37.087  12.707   7.950
 7159POPC   C4B36706  37.138  12.753   7.650
 7160POPC   NC336707  35.326   8.208   9.450
 7160POPC   PO436708  35.312   8.238   9.150
 7160POPC   GL136709  35.342   8.182   8.850
 7160POPC   GL236710  35.382   8.078   8.850
 7160POPC   C1A36711  35.334   8.168   8.550
 7160POPC   D2A36712  35.306   8.173   8.250
 7160POPC   C3A36713  35.329   8.169   7.950
 7160POPC   C4A36714  35.307   8.233   7.650
 7160POPC   C1B36715  35.415   7.957   8.550
 7160POPC   C2B36716  35.396   7.918   8.250
 7160POPC   C3B36717  35.458   8.005   7.950
 7160POPC   C4B36718  35.473   7.942   7.650
 7161POPC   NC336719  31.440  40.036   9.450
 7161POPC   PO436720  31.518  40.049   9.150
 7161POPC   GL136721  31.469  40.033   8.850
 7161POPC   GL236722  31.612  39.966   8.850
 7161POPC   C1A36723  31.428  39.959   8.550
 7161POPC   D2A36724  31.460  39.993   8.250
 7161POPC   C3A36725  31.488  39.988   7.950
 7161POPC   C4A36726  31.449  40.045   7.650
 7161POPC   C1B36727  31.610  39.883   8.550
 7161POPC   C2B36728  31.606  39.826   8.250
 7161POPC   C3B36729  31.705  39.855   7.950
 7161POPC   C4B36730  31.621  39.857   7.650
 7162POPC   NC336731   5.847  12.856   9.450
 7162POPC   PO436732   5.879  12.816   9.150
 7162POPC   GL136733   5.866  12.887   8.850
 7162POPC   GL236734   5.972  12.791   8.850
 7162POPC   C1A36735   5.829  12.814   8.550
 7162POPC   D2A36736   5.885  12.892   8.250
 7162POPC   C3A36737   5.908  12.902   7.950
 7162POPC   C4A36738   5.844  12.893   7.650
 7162POPC   C1B36739   6.071  12.713   8.550
 7162POPC   C2B36740   6.088  12.727   8.250
 7162POPC   C3B36741   6.076  12.710   7.950
 7162POPC   C4B36742   6.085  12.716   7.650
 7163POPC   NC336743   3.501   1.947   9.450
 7163POPC   PO436744   3.538   1.955   9.150
 7163POPC   GL136745   3.563   1.970   8.850
 7163POPC   GL236746   3.711   1.965   8.850
 7163POPC   C1A36747   3.577   2.037   8.550
 7163POPC   D2A36748   3.584   2.030   8.250
 7163POPC   C3A36749   3.524   2.039   7.950
 7163POPC   C4A36750   3.508   2.039   7.650
 7163POPC   C1B36751   3.820   1.900   8.550
 7163POPC   C2B36752   3.788   1.887   8.250
 7163POPC   C3B36753   3.758   1.891   7.950
 7163POPC   C4B36754   3.755   1.976   7.650
 7164POPC   NC336755  29.133  43.914   9.450
 7164POPC   PO436756  29.114  43.879   9.150
 7164POPC   GL136757  29.171  43.891   8.850
 7164POPC   GL236758  29.129  43.966   8.850
 7164POPC   C1A36759  29.141  43.860   8.550
 7164POPC   D2A36760  29.122  43.860   8.250
 7164POPC   C3A36761  29.121  43.925   7.950
 7164POPC   C4A36762  29.123  43.869   7.650
 7164POPC   C1B36763  29.211  44.149   8.550
 7164POPC   C2B36764  29.159  44.097   8.250
 7164POPC   C3B36765  29.231  44.175   7.950
 7164POPC   C4B36766  29.191  44.099   7.650
 7165POPC   NC336767  42.338  29.939   9.450
 7165POPC   PO436768  42.349  29.926   9.150
 7165POPC   GL136769  42.326  29.944   8.850
 7165POPC   GL236770  42.470  30.020   8.850
 7165POPC   C1A36771  42.320  29.921   8.550
 7165POPC   D2A36772  42.304  29.900   8.250
 7165POPC   C3A36773  42.294  29.872   7.950
 7165POPC   C4A36774  42.337  29.927   7.650
 7165POPC   C1B36775  42.486  30.142   8.550
 7165POPC   C2B36776  42.518  30.090   8.250
 7165POPC   C3B36777  42.497  30.095   7.950
 7165POPC   C4B36778  42.536  30.068   7.650
 7166POPC   NC336779  19.847   1.263   9.450
 7166POPC   PO436780  19.839   1.201   9.150
 7166POPC   GL136781  19.816   1.258   8.850
 7166POPC   GL236782  19.708   1.211   8.850
 7166POPC   C1A36783  19.788   1.220   8.550
 7166POPC   D2A36784  19.863   1.189   8.250
 7166POPC   C3A36785  19.859   1.255   7.950
 7166POPC   C4A36786  19.844   1.215   7.650
 7166POPC   C1B36787  19.613   1.271   8.550
 7166POPC   C2B36788  19.552   1.292   8.250
 7166POPC   C3B36789  19.555   1.200   7.950
 7166POPC   C4B36790  19.611   1.210   7.650
 7167POPC   NC336791  29.886  26.809   9.450
 7167POPC   PO436792  29.934  26.793   9.150
 7167POPC   GL136793  29.966  26.852   8.850
 7167POPC   GL236794  29.934  26.677   8.850
 7167POPC   C1A36795  29.971  26.806   8.550
 7167POPC   D2A36796  29.885  26.801   8.250
 7167POPC   C3A36797  29.904  26.861   7.950
 7167POPC   C4A36798  29.881  26.817   7.650
 7167POPC   C1B36799  29.917  26.568   8.550
 7167POPC   C2B36800  29.867  26.555   8.250
 7167POPC   C3B36801  29.845  26.562   7.950
 7167POPC   C4B36802  29.873  26.602   7.650
 7168POPC   NC336803  28.394   9.021   9.450
 7168POPC   PO436804  28.337   8.940   9.150
 7168POPC   GL136805  28.323   8.926   8.850
 7168POPC   GL236806  28.252   8.967   8.850
 7168POPC   C1A36807  28.331   8.997   8.550
 7168POPC   D2A36808  28.410   9.017   8.250
 7168POPC   C3A36809  28.359   8.957   7.950
 7168POPC   C4A36810  28.416   8.986   7.650
 7168POPC   C1B36811  28.166   9.043   8.550
 7168POPC   C2B36812  28.174   9.094   8.250
 7168POPC   C3B36813  28.165   9.014   7.950
 7168POPC   C4B36814  28.134   9.089   7.650
 7169POPC   NC336815  35.371  39.266   9.450
 7169POPC   PO436816  35.357  39.195   9.150
 7169POPC   GL136817  35.345  39.274   8.850
 7169POPC   GL236818  35.242  39.162   8.850
 7169POPC   C1A36819  35.381  39.229   8.550
 7169POPC   D2A36820  35.306  39.236   8.250
 7169POPC   C3A36821  35.349  39.187   7.950
 7169POPC   C4A36822  35.362  39.276   7.650
 7169POPC   C1B36823  35.130  39.125   8.550
 7169POPC   C2B36824  35.138  39.127   8.250
 7169POPC   C3B36825  35.111  39.101   7.950
 7169POPC   C4B36826  35.147  39.039   7.650
 7170POPC   NC336827   5.062   1.199   9.450
 7170POPC   PO436828   5.142   1.243   9.150
 7170POPC   GL136829   5.098   1.171   8.850
 7170POPC   GL236830   5.255   1.142   8.850
 7170POPC   C1A36831   5.081   1.232   8.550
 7170POPC   D2A36832   5.098   1.194   8.250
 7170POPC   C3A36833   5.105   1.218   7.950
 7170POPC   C4A36834   5.051   1.233   7.650
 7170POPC   C1B36835   5.310   1.137   8.550
 7170POPC   C2B36836   5.344   1.127   8.250
 7170POPC   C3B36837   5.331   1.135   7.950
 7170POPC   C4B36838   5.297   1.170   7.650
 7171POPC   NC336839  16.770   8.213   9.450
 7171POPC   PO436840  16.711   8.169   9.150
 7171POPC   GL136841  16.781   8.233   8.850
 7171POPC   GL236842  16.562   8.185   8.850
 7171POPC   C1A36843  16.731   8.246   8.550
 7171POPC   D2A36844  16.697   8.156   8.250
 7171POPC   C3A36845  16.748   8.245   7.950
 7171POPC   C4A36846  16.728   8.168   7.650
 7171POPC   C1B36847  16.512   8.146   8.550
 7171POPC   C2B36848  16.478   8.147   8.250
 7171POPC   C3B36849  16.458   8.194   7.950
 7171POPC   C4B36850  16.477   8.170   7.650
 7172POPC   NC336851  27.592  35.388   9.450
 7172POPC   PO436852  27.575  35.394   9.150
 7172POPC   GL136853  27.618  35.394   8.850
 7172POPC   GL236854  27.657  35.405   8.850
 7172POPC   C1A36855  27.570  35.377   8.550
 7172POPC   D2A36856  27.626  35.323   8.250
 7172POPC   C3A36857  27.618  35.362   7.950
 7172POPC   C4A36858  27.618  35.388   7.650
 7172POPC   C1B36859  27.826  35.497   8.550
 7172POPC   C2B36860  27.833  35.466   8.250
 7172POPC   C3B36861  27.843  35.513   7.950
 7172POPC   C4B36862  27.774  35.421   7.650
 7173POPC   NC336863  29.142  30.648   9.450
 7173POPC   PO436864  29.132  30.729   9.150
 7173POPC   GL136865  29.110  30.742   8.850
 7173POPC   GL236866  29.028  30.751   8.850
 7173POPC   C1A36867  29.105  30.694   8.550
 7173POPC   D2A36868  29.190  30.687   8.250
 7173POPC   C3A36869  29.100  30.665   7.950
 7173POPC   C4A36870  29.097  30.675   7.650
 7173POPC   C1B36871  28.886  30.713   8.550
 7173POPC   C2B36872  28.926  30.712   8.250
 7173POPC   C3B36873  28.943  30.724   7.950
 7173POPC   C4B36874  28.860  30.757   7.650
 7174POPC   NC336875  29.961  31.494   9.450
 7174POPC   PO436876  29.935  31.424   9.150
 7174POPC   GL136877  29.885  31.445   8.850
 7174POPC   GL236878  30.024  31.548   8.850
 7174POPC   C1A36879  29.898  31.435   8.550
 7174POPC   D2A36880  29.954  31.505   8.250
 7174POPC   C3A36881  29.958  31.438   7.950
 7174POPC   C4A36882  29.885  31.503   7.650
 7174POPC   C1B36883  30.167  31.532   8.550
 7174POPC   C2B36884  30.126  31.569   8.250
 7174POPC   C3B36885  30.162  31.498   7.950
 7174POPC   C4B36886  30.190  31.553   7.650
 7175POPC   NC336887   2.749  29.107   9.450
 7175POPC   PO436888   2.776  29.138   9.150
 7175POPC   GL136889   2.731  29.098   8.850
 7175POPC   GL236890   2.852  29.244   8.850
 7175POPC   C1A36891   2.808  29.153   8.550
 7175POPC   D2A36892   2.739  29.165   8.250
 7175POPC   C3A36893   2.743  29.145   7.950
 7175POPC   C4A36894   2.776  29.112   7.650
 7175POPC   C1B36895   2.919  29.330   8.550
 7175POPC   C2B36896   2.970  29.331   8.250
 7175POPC   C3B36897   2.920  29.257   7.950
 7175POPC   C4B36898   3.005  29.287   7.650
 7176POPC   NC336899  24.466   2.727   9.450
 7176POPC   PO436900  24.514   2.790   9.150
 7176POPC   GL136901  24.453   2.760   8.850
 7176POPC   GL236902  24.654   2.822   8.850
 7176POPC   C1A36903  24.483   2.764   8.550
 7176POPC   D2A36904  24.490   2.786   8.250
 7176POPC   C3A36905  24.461   2.733   7.950
 7176POPC   C4A36906  24.448   2.780   7.650
 7176POPC   C1B36907  24.723   2.852   8.550
 7176POPC   C2B36908  24.771   2.844   8.250
 7176POPC   C3B36909  24.691   2.834   7.950
 7176POPC   C4B36910  24.781   2.776   7.650
 7177POPC   NC336911   9.786  30.694   9.450
 7177POPC   PO436912   9.763  30.667   9.150
 7177POPC   GL136913   9.780  30.666   8.850
 7177POPC   GL236914   9.700  30.766   8.850
 7177POPC   C1A36915   9.778  30.687   8.550
 7177POPC   D2A36916   9.769  30.738   8.250
 7177POPC   C3A36917   9.767  30.677   7.950
 7177POPC   C4A36918   9.704  30.665   7.650
 7177POPC   C1B36919   9.530  30.877   8.550
 7177POPC   C2B36920   9.519  30.855   8.250
 7177POPC   C3B36921   9.506  30.840   7.950
 7177POPC   C4B36922   9.580  30.878   7.650
 7178POPC   NC336923   2.745   8.992   9.450
 7178POPC   PO436924   2.756   9.000   9.150
 7178POPC   GL136925   2.810   8.937   8.850
 7178POPC   GL236926   2.812   8.841   8.850
 7178POPC   C1A36927   2.732   8.946   8.550
 7178POPC   D2A36928   2.802   8.967   8.250
 7178POPC   C3A36929   2.723   9.012   7.950
 7178POPC   C4A36930   2.751   8.953   7.650
 7178POPC   C1B36931   2.918   8.803   8.550
 7178POPC   C2B36932   2.964   8.802   8.250
 7178POPC   C3B36933   2.954   8.808   7.950
 7178POPC   C4B36934   2.942   8.766   7.650
 7179POPC   NC336935   8.213  29.128   9.450
 7179POPC   PO436936   8.204  29.185   9.150
 7179POPC   GL136937   8.245  29.095   8.850
 7179POPC   GL236938   8.115  29.082   8.850
 7179POPC   C1A36939   8.230  29.187   8.550
 7179POPC   D2A36940   8.233  29.138   8.250
 7179POPC   C3A36941   8.230  29.122   7.950
 7179POPC   C4A36942   8.180  29.162   7.650
 7179POPC   C1B36943   7.997  29.116   8.550
 7179POPC   C2B36944   7.906  29.083   8.250
 7179POPC   C3B36945   7.902  29.158   7.950
 7179POPC   C4B36946   7.918  29.141   7.650
 7180POPC   NC336947  32.244  11.287   9.450
 7180POPC   PO436948  32.254  11.303   9.150
 7180POPC   GL136949  32.240  11.299   8.850
 7180POPC   GL236950  32.388  11.298   8.850
 7180POPC   C1A36951  32.242  11.302   8.550
 7180POPC   D2A36952  32.262  11.268   8.250
 7180POPC   C3A36953  32.207  11.297   7.950
 7180POPC   C4A36954  32.292  11.338   7.650
 7180POPC   C1B36955  32.484  11.239   8.550
 7180POPC   C2B36956  32.534  11.229   8.250
 7180POPC   C3B36957  32.488  11.293   7.950
 7180POPC   C4B36958  32.524  11.318   7.650
 7181POPC   NC336959   4.367  13.643   9.450
 7181POPC   PO436960   4.348  13.611   9.150
 7181POPC   GL136961   4.306  13.673   8.850
 7181POPC   GL236962   4.221  13.548   8.850
 7181POPC   C1A36963   4.275  13.632   8.550
 7181POPC   D2A36964   4.355  13.656   8.250
 7181POPC   C3A36965   4.349  13.579   7.950
 7181POPC   C4A36966   4.271  13.588   7.650
 7181POPC   C1B36967   4.032  13.569   8.550
 7181POPC   C2B36968   4.078  13.572   8.250
 7181POPC   C3B36969   4.056  13.556   7.950
 7181POPC   C4B36970   4.086  13.535   7.650
 7182POPC   NC336971  38.467  26.807   9.450
 7182POPC   PO436972  38.441  26.848   9.150
 7182POPC   GL136973  38.420  26.800   8.850
 7182POPC   GL236974  38.432  26.966   8.850
 7182POPC   C1A36975  38.408  26.770   8.550
 7182POPC   D2A36976  38.491  26.831   8.250
 7182POPC   C3A36977  38.417  26.866   7.950
 7182POPC   C4A36978  38.432  26.833   7.650
 7182POPC   C1B36979  38.504  27.085   8.550
 7182POPC   C2B36980  38.463  27.104   8.250
 7182POPC   C3B36981  38.422  27.053   7.950
 7182POPC   C4B36982  38.419  27.091   7.650
 7183POPC   NC336983  44.704  25.227   9.450
 7183POPC   PO436984  44.620  25.230   9.150
 7183POPC   GL136985  44.693  25.224   8.850
 7183POPC   GL236986  44.681  25.115   8.850
 7183POPC   C1A36987  44.710  25.283   8.550
 7183POPC   D2A36988  44.704  25.260   8.250
 7183POPC   C3A36989  44.696  25.279   7.950
 7183POPC   C4A36990  44.624  25.258   7.650
 7183POPC   C1B36991  44.645  25.032   8.550
 7183POPC   C2B36992  44.651  25.013   8.250
 7183POPC   C3B36993  44.666  25.031   7.950
 7183POPC   C4B36994  44.645  24.967   7.650
 7184POPC   NC336995  40.019  43.069   9.450
 7184POPC   PO436996  39.987  43.074   9.150
 7184POPC   GL136997  39.981  43.061   8.850
 7184POPC   GL236998  39.915  43.029   8.850
 7184POPC   C1A36999  40.010  43.070   8.550
 7184POPC   D2A37000  39.965  43.065   8.250
 7184POPC   C3A37001  40.056  43.149   7.950
 7184POPC   C4A37002  39.992  43.145   7.650
 7184POPC   C1B37003  39.865  42.908   8.550
 7184POPC   C2B37004  39.889  42.896   8.250
 7184POPC   C3B37005  39.829  42.946   7.950
 7184POPC   C4B37006  39.851  42.906   7.650
 7185POPC   NC337007  23.733   7.381   9.450
 7185POPC   PO437008  23.696   7.436   9.150
 7185POPC   GL137009  23.752   7.400   8.850
 7185POPC   GL237010  23.809   7.309   8.850
 7185POPC   C1A37011  23.713   7.441   8.550
 7185POPC   D2A37012  23.738   7.469   8.250
 7185POPC   C3A37013  23.688   7.465   7.950
 7185POPC   C4A37014  23.757   7.445   7.650
 7185POPC   C1B37015  23.899   7.229   8.550
 7185POPC   C2B37016  23.870   7.267   8.250
 7185POPC   C3B37017  23.884   7.257   7.950
 7185POPC   C4B37018  23.877   7.202   7.650
 7186POPC   NC337019  16.686  10.570   9.450
 7186POPC   PO437020  16.780  10.542   9.150
 7186POPC   GL137021  16.774  10.531   8.850
 7186POPC   GL237022  16.866  10.520   8.850
 7186POPC   C1A37023  16.764  10.544   8.550
 7186POPC   D2A37024  16.735  10.557   8.250
 7186POPC   C3A37025  16.765  10.477   7.950
 7186POPC   C4A37026  16.727  10.496   7.650
 7186POPC   C1B37027  16.980  10.582   8.550
 7186POPC   C2B37028  17.018  10.644   8.250
 7186POPC   C3B37029  17.007  10.643   7.950
 7186POPC   C4B37030  17.008  10.596   7.650
 7187POPC   NC337031   2.012  44.632   9.450
 7187POPC   PO437032   1.964  44.674   9.150
 7187POPC   GL137033   2.018  44.643   8.850
 7187POPC   GL237034   2.026  44.571   8.850
 7187POPC   C1A37035   2.025  44.705   8.550
 7187POPC   D2A37036   2.002  44.676   8.250
 7187POPC   C3A37037   1.970  44.683   7.950
 7187POPC   C4A37038   2.020  44.697   7.650
 7187POPC   C1B37039   2.041  44.452   8.550
 7187POPC   C2B37040   2.039  44.405   8.250
 7187POPC   C3B37041   2.080  44.463   7.950
 7187POPC   C4B37042   2.052  44.397   7.650
 7188POPC   NC337043  37.670  28.323   9.450
 7188POPC   PO437044  37.723  28.411   9.150
 7188POPC   GL137045  37.716  28.364   8.850
 7188POPC   GL237046  37.673  28.217   8.850
 7188POPC   C1A37047  37.725  28.336   8.550
 7188POPC   D2A37048  37.654  28.342   8.250
 7188POPC   C3A37049  37.657  28.366   7.950
 7188POPC   C4A37050  37.716  28.322   7.650
 7188POPC   C1B37051  37.630  28.104   8.550
 7188POPC   C2B37052  37.604  28.173   8.250
 7188POPC   C3B37053  37.673  28.157   7.950
 7188POPC   C4B37054  37.667  28.150   7.650
 7189POPC   NC337055  41.522  21.339   9.450
 7189POPC   PO437056  41.562  21.424   9.150
 7189POPC   GL137057  41.527  21.370   8.850
 7189POPC   GL237058  41.699  21.480   8.850
 7189POPC   C1A37059  41.561  21.363   8.550
 7189POPC   D2A37060  41.551  21.404   8.250
 7189POPC   C3A37061  41.514  21.352   7.950
 7189POPC   C4A37062  41.532  21.379   7.650
 7189POPC   C1B37063  41.817  21.470   8.550
 7189POPC   C2B37064  41.753  21.541   8.250
 7189POPC   C3B37065  41.826  21.488   7.950
 7189POPC   C4B37066  41.764  21.482   7.650
 7190POPC   NC337067   5.885   1.182   9.450
 7190POPC   PO437068   5.917   1.189   9.150
 7190POPC   GL137069   5.851   1.173   8.850
 7190POPC   GL237070   5.971   1.184   8.850
 7190POPC   C1A37071   5.868   1.253   8.550
 7190POPC   D2A37072   5.871   1.253   8.250
 7190POPC   C3A37073   5.911   1.203   7.950
 7190POPC   C4A37074   5.848   1.194   7.650
 7190POPC   C1B37075   6.148   1.209   8.550
 7190POPC   C2B37076   6.133   1.170   8.250
 7190POPC   C3B37077   6.081   1.222   7.950
 7190POPC   C4B37078   6.151   1.185   7.650
 7191POPC   NC337079  17.554  20.639   9.450
 7191POPC   PO437080  17.547  20.659   9.150
 7191POPC   GL137081  17.461  20.618   8.850
 7191POPC   GL237082  17.502  20.743   8.850
 7191POPC   C1A37083  17.501  20.630   8.550
 7191POPC   D2A37084  17.553  20.618   8.250
 7191POPC   C3A37085  17.496  20.562   7.950
 7191POPC   C4A37086  17.522  20.631   7.650
 7191POPC   C1B37087  17.486  20.825   8.550
 7191POPC   C2B37088  17.505  20.831   8.250
 7191POPC   C3B37089  17.451  20.892   7.950
 7191POPC   C4B37090  17.449  20.888   7.650
 7192POPC   NC337091  39.980  19.883   9.450
 7192POPC   PO437092  39.967  19.870   9.150
 7192POPC   GL137093  40.041  19.809   8.850
 7192POPC   GL237094  40.012  19.979   8.850
 7192POPC   C1A37095  39.987  19.866   8.550
 7192POPC   D2A37096  39.973  19.797   8.250
 7192POPC   C3A37097  39.994  19.861   7.950
 7192POPC   C4A37098  39.974  19.875   7.650
 7192POPC   C1B37099  39.937  20.093   8.550
 7192POPC   C2B37100  39.943  20.131   8.250
 7192POPC   C3B37101  39.972  20.089   7.950
 7192POPC   C4B37102  39.941  20.063   7.650
 7193POPC   NC337103  28.373  27.570   9.450
 7193POPC   PO437104  28.364  27.561   9.150
 7193POPC   GL137105  28.417  27.556   8.850
 7193POPC   GL237106  28.294  27.613   8.850
 7193POPC   C1A37107  28.392  27.594   8.550
 7193POPC   D2A37108  28.400  27.614   8.250
 7193POPC   C3A37109  28.349  27.546   7.950
 7193POPC   C4A37110  28.320  27.549   7.650
 7193POPC   C1B37111  28.187  27.692   8.550
 7193POPC   C2B37112  28.135  27.681   8.250
 7193POPC   C3B37113  28.149  27.676   7.950
 7193POPC   C4B37114  28.145  27.737   7.650
 7194POPC   NC337115  24.444  26.839   9.450
 7194POPC   PO437116  24.478  26.790   9.150
 7194POPC   GL137117  24.524  26.857   8.850
 7194POPC   GL237118  24.449  26.733   8.850
 7194POPC   C1A37119  24.528  26.780   8.550
 7194POPC   D2A37120  24.514  26.832   8.250
 7194POPC   C3A37121  24.477  26.789   7.950
 7194POPC   C4A37122  24.521  26.821   7.650
 7194POPC   C1B37123  24.392  26.631   8.550
 7194POPC   C2B37124  24.387  26.578   8.250
 7194POPC   C3B37125  24.359  26.629   7.950
 7194POPC   C4B37126  24.413  26.606   7.650
 7195POPC   NC337127  14.438  14.404   9.450
 7195POPC   PO437128  14.448  14.395   9.150
 7195POPC   GL137129  14.424  14.393   8.850
 7195POPC   GL237130  14.537  14.444   8.850
 7195POPC   C1A37131  14.414  14.403   8.550
 7195POPC   D2A37132  14.371  14.378   8.250
 7195POPC   C3A37133  14.431  14.434   7.950
 7195POPC   C4A37134  14.417  14.404   7.650
 7195POPC   C1B37135  14.591  14.579   8.550
 7195POPC   C2B37136  14.624  14.554   8.250
 7195POPC   C3B37137  14.571  14.598   7.950
 7195POPC   C4B37138  14.591  14.519   7.650
 7196POPC   NC337139  33.009  43.062   9.450
 7196POPC   PO437140  33.048  43.066   9.150
 7196POPC   GL137141  33.015  43.128   8.850
 7196POPC   GL237142  33.173  43.070   8.850
 7196POPC   C1A37143  33.059  43.076   8.550
 7196POPC   D2A37144  33.019  43.083   8.250
 7196POPC   C3A37145  33.020  43.122   7.950
 7196POPC   C4A37146  33.051  43.111   7.650
 7196POPC   C1B37147  33.320  43.087   8.550
 7196POPC   C2B37148  33.272  43.088   8.250
 7196POPC   C3B37149  33.306  43.128   7.950
 7196POPC   C4B37150  33.244  43.079   7.650
 7197POPC   NC337151  40.777  18.304   9.450
 7197POPC   PO437152  40.735  18.328   9.150
 7197POPC   GL137153  40.775  18.277   8.850
 7197POPC   GL237154  40.939  18.224   8.850
 7197POPC   C1A37155  40.798  18.291   8.550
 7197POPC   D2A37156  40.820  18.323   8.250
 7197POPC   C3A37157  40.736  18.276   7.950
 7197POPC   C4A37158  40.781  18.249   7.650
 7197POPC   C1B37159  40.972  18.174   8.550
 7197POPC   C2B37160  40.961  18.121   8.250
 7197POPC   C3B37161  40.996  18.176   7.950
 7197POPC   C4B37162  40.959  18.178   7.650
 7198POPC   NC337163   0.464   9.729   9.450
 7198POPC   PO437164   0.486   9.762   9.150
 7198POPC   GL137165   0.434   9.776   8.850
 7198POPC   GL237166   0.473   9.658   8.850
 7198POPC   C1A37167   0.405   9.776   8.550
 7198POPC   D2A37168   0.408   9.758   8.250
 7198POPC   C3A37169   0.388   9.755   7.950
 7198POPC   C4A37170   0.469   9.798   7.650
 7198POPC   C1B37171   0.567   9.488   8.550
 7198POPC   C2B37172   0.575   9.562   8.250
 7198POPC   C3B37173   0.609   9.505   7.950
 7198POPC   C4B37174   0.529   9.507   7.650
 7199POPC   NC337175   3.532  30.695   9.450
 7199POPC   PO437176   3.514  30.732   9.150
 7199POPC   GL137177   3.580  30.707   8.850
 7199POPC   GL237178   3.568  30.844   8.850
 7199POPC   C1A37179   3.574  30.662   8.550
 7199POPC   D2A37180   3.530  30.706   8.250
 7199POPC   C3A37181   3.549  30.682   7.950
 7199POPC   C4A37182   3.529  30.745   7.650
 7199POPC   C1B37183   3.521  30.935   8.550
 7199POPC   C2B37184   3.584  30.906   8.250
 7199POPC   C3B37185   3.567  30.932   7.950
 7199POPC   C4B37186   3.556  30.970   7.650
 7200POPC   NC337187  43.116  28.332   9.450
 7200POPC   PO437188  43.120  28.319   9.150
 7200POPC   GL137189  43.131  28.379   8.850
 7200POPC   GL237190  43.026  28.423   8.850
 7200POPC   C1A37191  43.093  28.415   8.550
 7200POPC   D2A37192  43.109  28.352   8.250
 7200POPC   C3A37193  43.101  28.362   7.950
 7200POPC   C4A37194  43.070  28.398   7.650
 7200POPC   C1B37195  42.944  28.469   8.550
 7200POPC   C2B37196  42.892  28.523   8.250
 7200POPC   C3B37197  42.951  28.532   7.950
 7200POPC   C4B37198  42.866  28.543   7.650
 7201POPC   NC337199  37.639  13.645   9.450
 7201POPC   PO437200  37.659  13.628   9.150
 7201POPC   GL137201  37.719  13.620   8.850
 7201POPC   GL237202  37.598  13.542   8.850
 7201POPC   C1A37203  37.707  13.613   8.550
 7201POPC   D2A37204  37.630  13.583   8.250
 7201POPC   C3A37205  37.718  13.633   7.950
 7201POPC   C4A37206  37.678  13.643   7.650
 7201POPC   C1B37207  37.434  13.539   8.550
 7201POPC   C2B37208  37.451  13.549   8.250
 7201POPC   C3B37209  37.400  13.506   7.950
 7201POPC   C4B37210  37.430  13.496   7.650
 7202POPC   NC337211  39.239  43.896   9.450
 7202POPC   PO437212  39.227  43.887   9.150
 7202POPC   GL137213  39.255  43.837   8.850
 7202POPC   GL237214  39.112  43.879   8.850
 7202POPC   C1A37215  39.199  43.936   8.550
 7202POPC   D2A37216  39.190  43.860   8.250
 7202POPC   C3A37217  39.247  43.891   7.950
 7202POPC   C4A37218  39.255  43.880   7.650
 7202POPC   C1B37219  38.950  43.907   8.550
 7202POPC   C2B37220  38.987  43.861   8.250
 7202POPC   C3B37221  39.003  43.873   7.950
 7202POPC   C4B37222  38.938  43.851   7.650
 7203POPC   NC337223   8.228  27.609   9.450
 7203POPC   PO437224   8.155  27.566   9.150
 7203POPC   GL137225   8.230  27.587   8.850
 7203POPC   GL237226   8.078  27.574   8.850
 7203POPC   C1A37227   8.153  27.620   8.550
 7203POPC   D2A37228   8.217  27.574   8.250
 7203POPC   C3A37229   8.193  27.605   7.950
 7203POPC   C4A37230   8.223  27.624   7.650
 7203POPC   C1B37231   7.974  27.434   8.550
 7203POPC   C2B37232   8.009  27.495   8.250
 7203POPC   C3B37233   7.949  27.505   7.950
 7203POPC   C4B37234   8.015  27.473   7.650
 7204POPC   NC337235  30.674  23.676   9.450
 7204POPC   PO437236  30.694  23.712   9.150
 7204POPC   GL137237  30.697  23.714   8.850
 7204POPC   GL237238  30.761  23.665   8.850
 7204POPC   C1A37239  30.680  23.695   8.550
 7204POPC   D2A37240  30.677  23.697   8.250
 7204POPC   C3A37241  30.715  23.691   7.950
 7204POPC   C4A37242  30.660  23.737   7.650
 7204POPC   C1B37243  30.894  23.561   8.550
 7204POPC   C2B37244  30.873  23.601   8.250
 7204POPC   C3B37245  30.892  23.553   7.950
 7204POPC   C4B37246  30.928  23.598   7.650
 7205POPC   NC337247  43.125  19.084   9.450
 7205POPC   PO437248  43.088  19.071   9.150
 7205POPC   GL137249  43.098  19.091   8.850
 7205POPC   GL237250  43.192  18.933   8.850
 7205POPC   C1A37251  43.143  19.093   8.550
 7205POPC   D2A37252  43.135  19.014   8.250
 7205POPC   C3A37253  43.083  19.087   7.950
 7205POPC   C4A37254  43.118  19.024   7.650
 7205POPC   C1B37255  43.224  18.877   8.550
 7205POPC   C2B37256  43.210  18.884   8.250
 7205POPC   C3B37257  43.248  18.861   7.950
 7205POPC   C4B37258  43.249  18.790   7.650
 7206POPC   NC337259  10.535   2.023   9.450
 7206POPC   PO437260  10.530   1.985   9.150
 7206POPC   GL137261  10.478   1.940   8.850
 7206POPC   GL237262  10.534   2.076   8.850
 7206POPC   C1A37263  10.531   1.948   8.550
 7206POPC   D2A37264  10.568   1.961   8.250
 7206POPC   C3A37265  10.552   1.963   7.950
 7206POPC   C4A37266  10.500   1.959   7.650
 7206POPC   C1B37267  10.585   2.218   8.550
 7206POPC   C2B37268  10.579   2.227   8.250
 7206POPC   C3B37269  10.521   2.225   7.950
 7206POPC   C4B37270  10.560   2.224   7.650
 7207POPC   NC337271  12.060   2.000   9.450
 7207POPC   PO437272  12.122   1.974   9.150
 7207POPC   GL137273  12.110   1.967   8.850
 7207POPC   GL237274  12.081   1.859   8.850
 7207POPC   C1A37275  12.091   2.001   8.550
 7207POPC   D2A37276  12.055   2.019   8.250
 7207POPC   C3A37277  12.123   2.032   7.950
 7207POPC   C4A37278  12.087   1.955   7.650
 7207POPC   C1B37279  12.022   1.717   8.550
 7207POPC   C2B37280  12.054   1.792   8.250
 7207POPC   C3B37281  11.990   1.738   7.950
 7207POPC   C4B37282  12.003   1.747   7.650
 7208POPC   NC337283  36.106  30.721   9.450
 7208POPC   PO437284  36.111  30.701   9.150
 7208POPC   GL137285  36.153  30.687   8.850
 7208POPC   GL237286  36.293  30.778   8.850
 7208POPC   C1A37287  36.079  30.660   8.550
 7208POPC   D2A37288  36.149  30.717   8.250
 7208POPC   C3A37289  36.113  30.669   7.950
 7208POPC   C4A37290  36.093  30.727   7.650
 7208POPC   C1B37291  36.387  30.727   8.550
 7208POPC   C2B37292  36.324  30.800   8.250
 7208POPC   C3B37293  36.407  30.801   7.950
 7208POPC   C4B37294  36.349  30.744   7.650
 7209POPC   NC337295  33.021  40.736   9.450
 7209POPC   PO437296  32.976  40.831   9.150
 7209POPC   GL137297  33.046  40.764   8.850
 7209POPC   GL237298  33.084  40.914   8.850
 7209POPC   C1A37299  32.976  40.744   8.550
 7209POPC   D2A37300  33.002  40.765   8.250
 7209POPC   C3A37301  33.055  40.816   7.950
 7209POPC   C4A37302  33.064  40.735   7.650
 7209POPC   C1B37303  33.164  40.990   8.550
 7209POPC   C2B37304  33.145  40.986   8.250
 7209POPC   C3B37305  33.204  40.987   7.950
 7209POPC   C4B37306  33.221  40.921   7.650
 7210POPC   NC337307  40.807  38.505   9.450
 7210POPC   PO437308  40.818  38.463   9.150
 7210POPC   GL137309  40.815  38.432   8.850
 7210POPC   GL237310  40.915  38.561   8.850
 7210POPC   C1A37311  40.772  38.501   8.550
 7210POPC   D2A37312  40.739  38.425   8.250
 7210POPC   C3A37313  40.808  38.430   7.950
 7210POPC   C4A37314  40.741  38.412   7.650
 7210POPC   C1B37315  41.006  38.550   8.550
 7210POPC   C2B37316  41.010  38.577   8.250
 7210POPC   C3B37317  41.045  38.573   7.950
 7210POPC   C4B37318  41.020  38.524   7.650
 7211POPC   NC337319   0.395  43.930   9.450
 7211POPC   PO437320   0.405  43.848   9.150
 7211POPC   GL137321   0.487  43.840   8.850
 7211POPC   GL237322   0.429  43.964   8.850
 7211POPC   C1A37323   0.405  43.926   8.550
 7211POPC   D2A37324   0.441  43.933   8.250
 7211POPC   C3A37325   0.425  43.897   7.950
 7211POPC   C4A37326   0.460  43.899   7.650
 7211POPC   C1B37327   0.373  44.080   8.550
 7211POPC   C2B37328   0.412  44.106   8.250
 7211POPC   C3B37329   0.402  44.145   7.950
 7211POPC   C4B37330   0.337  44.174   7.650
 7212POPC   NC337331   1.178   5.876   9.450
 7212POPC   PO437332   1.206   5.905   9.150
 7212POPC   GL137333   1.169   5.898   8.850
 7212POPC   GL237334   1.220   5.768   8.850
 7212POPC   C1A37335   1.167   5.901   8.550
 7212POPC   D2A37336   1.183   5.871   8.250
 7212POPC   C3A37337   1.191   5.860   7.950
 7212POPC   C4A37338   1.251   5.891   7.650
 7212POPC   C1B37339   1.162   5.582   8.550
 7212POPC   C2B37340   1.182   5.618   8.250
 7212POPC   C3B37341   1.147   5.668   7.950
 7212POPC   C4B37342   1.167   5.673   7.650
 7213POPC   NC337343  17.518   9.725   9.450
 7213POPC   PO437344  17.530   9.775   9.150
 7213POPC   GL137345  17.547   9.786   8.850
 7213POPC   GL237346  17.344   9.744   8.850
 7213POPC   C1A37347  17.537   9.751   8.550
 7213POPC   D2A37348  17.544   9.778   8.250
 7213POPC   C3A37349  17.490   9.796   7.950
 7213POPC   C4A37350  17.540   9.745   7.650
 7213POPC   C1B37351  17.288   9.820   8.550
 7213POPC   C2B37352  17.232   9.805   8.250
 7213POPC   C3B37353  17.225   9.802   7.950
 7213POPC   C4B37354  17.283   9.873   7.650
 7214POPC   NC337355  43.921  27.638   9.450
 7214POPC   PO437356  43.934  27.591   9.150
 7214POPC   GL137357  43.872  27.594   8.850
 7214POPC   GL237358  43.735  27.638   8.850
 7214POPC   C1A37359  43.875  27.567   8.550
 7214POPC   D2A37360  43.883  27.631   8.250
 7214POPC   C3A37361  43.928  27.621   7.950
 7214POPC   C4A37362  43.837  27.640   7.650
 7214POPC   C1B37363  43.706  27.750   8.550
 7214POPC   C2B37364  43.658  27.713   8.250
 7214POPC   C3B37365  43.680  27.710   7.950
 7214POPC   C4B37366  43.654  27.696   7.650
 7215POPC   NC337367  39.198  36.932   9.450
 7215POPC   PO437368  39.183  36.865   9.150
 7215POPC   GL137369  39.234  36.925   8.850
 7215POPC   GL237370  39.292  36.805   8.850
 7215POPC   C1A37371  39.182  36.855   8.550
 7215POPC   D2A37372  39.255  36.938   8.250
 7215POPC   C3A37373  39.243  36.854   7.950
 7215POPC   C4A37374  39.262  36.937   7.650
 7215POPC   C1B37375  39.313  36.720   8.550
 7215POPC   C2B37376  39.323  36.703   8.250
 7215POPC   C3B37377  39.308  36.670   7.950
 7215POPC   C4B37378  39.372  36.637   7.650
 7216POPC   NC337379  32.242  43.150   9.450
 7216POPC   PO437380  32.262  43.071   9.150
 7216POPC   GL137381  32.270  43.133   8.850
 7216POPC   GL237382  32.290  42.976   8.850
 7216POPC   C1A37383  32.203  43.114   8.550
 7216POPC   D2A37384  32.221  43.109   8.250
 7216POPC   C3A37385  32.239  43.133   7.950
 7216POPC   C4A37386  32.219  43.090   7.650
 7216POPC   C1B37387  32.339  42.895   8.550
 7216POPC   C2B37388  32.279  42.861   8.250
 7216POPC   C3B37389  32.270  42.874   7.950
 7216POPC   C4B37390  32.344  42.876   7.650
 7217POPC   NC337391  39.277   7.454   9.450
 7217POPC   PO437392  39.199   7.378   9.150
 7217POPC   GL137393  39.223   7.394   8.850
 7217POPC   GL237394  39.329   7.495   8.850
 7217POPC   C1A37395  39.272   7.429   8.550
 7217POPC   D2A37396  39.183   7.431   8.250
 7217POPC   C3A37397  39.264   7.417   7.950
 7217POPC   C4A37398  39.181   7.434   7.650
 7217POPC   C1B37399  39.457   7.557   8.550
 7217POPC   C2B37400  39.510   7.489   8.250
 7217POPC   C3B37401  39.452   7.533   7.950
 7217POPC   C4B37402  39.461   7.487   7.650
 7218POPC   NC337403  14.386  23.689   9.450
 7218POPC   PO437404  14.394  23.682   9.150
 7218POPC   GL137405  14.402  23.703   8.850
 7218POPC   GL237406  14.320  23.772   8.850
 7218POPC   C1A37407  14.388  23.695   8.550
 7218POPC   D2A37408  14.371  23.764   8.250
 7218POPC   C3A37409  14.406  23.730   7.950
 7218POPC   C4A37410  14.392  23.725   7.650
 7218POPC   C1B37411  14.124  23.715   8.550
 7218POPC   C2B37412  14.188  23.740   8.250
 7218POPC   C3B37413  14.163  23.765   7.950
 7218POPC   C4B37414  14.165  23.764   7.650
 7219POPC   NC337415   9.774  29.141   9.450
 7219POPC   PO437416   9.717  29.106   9.150
 7219POPC   GL137417   9.784  29.171   8.850
 7219POPC   GL237418   9.817  29.043   8.850
 7219POPC   C1A37419   9.723  29.160   8.550
 7219POPC   D2A37420   9.721  29.126   8.250
 7219POPC   C3A37421   9.782  29.192   7.950
 7219POPC   C4A37422   9.701  29.123   7.650
 7219POPC   C1B37423   9.832  28.899   8.550
 7219POPC   C2B37424   9.848  28.899   8.250
 7219POPC   C3B37425   9.884  28.963   7.950
 7219POPC   C4B37426   9.891  28.951   7.650
 7220POPC   NC337427   0.469  36.912   9.450
 7220POPC   PO437428   0.482  36.886   9.150
 7220POPC   GL137429   0.412  36.950   8.850
 7220POPC   GL237430   0.347  36.904   8.850
 7220POPC   C1A37431   0.391  36.949   8.550
 7220POPC   D2A37432   0.410  36.875   8.250
 7220POPC   C3A37433   0.410  36.930   7.950
 7220POPC   C4A37434   0.477  36.920   7.650
 7220POPC   C1B37435   0.171  36.873   8.550
 7220POPC   C2B37436   0.154  36.920   8.250
 7220POPC   C3B37437   0.166  36.866   7.950
 7220POPC   C4B37438   0.148  36.878   7.650
 7221POPC   NC337439   5.891  23.751   9.450
 7221POPC   PO437440   5.917  23.680   9.150
 7221POPC   GL137441   5.842  23.696   8.850
 7221POPC   GL237442   5.900  23.565   8.850
 7221POPC   C1A37443   5.869  23.713   8.550
 7221POPC   D2A37444   5.847  23.708   8.250
 7221POPC   C3A37445   5.913  23.752   7.950
 7221POPC   C4A37446   5.870  23.698   7.650
 7221POPC   C1B37447   5.878  23.427   8.550
 7221POPC   C2B37448   5.903  23.447   8.250
 7221POPC   C3B37449   5.950  23.497   7.950
 7221POPC   C4B37450   5.931  23.501   7.650
 7222POPC   NC337451  10.539  25.275   9.450
 7222POPC   PO437452  10.483  25.229   9.150
 7222POPC   GL137453  10.542  25.226   8.850
 7222POPC   GL237454  10.432  25.374   8.850
 7222POPC   C1A37455  10.515  25.287   8.550
 7222POPC   D2A37456  10.488  25.292   8.250
 7222POPC   C3A37457  10.538  25.298   7.950
 7222POPC   C4A37458  10.568  25.269   7.650
 7222POPC   C1B37459  10.307  25.361   8.550
 7222POPC   C2B37460  10.341  25.428   8.250
 7222POPC   C3B37461  10.335  25.433   7.950
 7222POPC   C4B37462  10.282  25.378   7.650
 7223POPC   NC337463  25.253  12.085   9.450
 7223POPC   PO437464  25.250  12.099   9.150
 7223POPC   GL137465  25.242  12.111   8.850
 7223POPC   GL237466  25.141  12.118   8.850
 7223POPC   C1A37467  25.245  12.087   8.550
 7223POPC   D2A37468  25.217  12.117   8.250
 7223POPC   C3A37469  25.302  12.029   7.950
 7223POPC   C4A37470  25.291  12.095   7.650
 7223POPC   C1B37471  25.060  12.306   8.550
 7223POPC   C2B37472  25.066  12.279   8.250
 7223POPC   C3B37473  25.071  12.261   7.950
 7223POPC   C4B37474  25.073  12.250   7.650
 7224POPC   NC337475   6.669  20.650   9.450
 7224POPC   PO437476   6.683  20.580   9.150
 7224POPC   GL137477   6.638  20.586   8.850
 7224POPC   GL237478   6.697  20.726   8.850
 7224POPC   C1A37479   6.692  20.632   8.550
 7224POPC   D2A37480   6.610  20.597   8.250
 7224POPC   C3A37481   6.693  20.653   7.950
 7224POPC   C4A37482   6.635  20.646   7.650
 7224POPC   C1B37483   6.814  20.847   8.550
 7224POPC   C2B37484   6.807  20.846   8.250
 7224POPC   C3B37485   6.773  20.804   7.950
 7224POPC   C4B37486   6.740  20.850   7.650
 7225POPC   NC337487   7.397  26.006   9.450
 7225POPC   PO437488   7.464  26.034   9.150
 7225POPC   GL137489   7.445  26.040   8.850
 7225POPC   GL237490   7.513  26.116   8.850
 7225POPC   C1A37491   7.444  26.084   8.550
 7225POPC   D2A37492   7.402  25.994   8.250
 7225POPC   C3A37493   7.432  26.012   7.950
 7225POPC   C4A37494   7.400  26.084   7.650
 7225POPC   C1B37495   7.647  26.211   8.550
 7225POPC   C2B37496   7.591  26.217   8.250
 7225POPC   C3B37497   7.607  26.247   7.950
 7225POPC   C4B37498   7.600  26.241   7.650
 7226POPC   NC337499   4.268  11.340   9.450
 7226POPC   PO437500   4.270  11.339   9.150
 7226POPC   GL137501   4.325  11.322   8.850
 7226POPC   GL237502   4.359  11.394   8.850
 7226POPC   C1A37503   4.320  11.259   8.550
 7226POPC   D2A37504   4.273  11.333   8.250
 7226POPC   C3A37505   4.344  11.316   7.950
 7226POPC   C4A37506   4.275  11.258   7.650
 7226POPC   C1B37507   4.491  11.432   8.550
 7226POPC   C2B37508   4.489  11.442   8.250
 7226POPC   C3B37509   4.491  11.486   7.950
 7226POPC   C4B37510   4.536  11.467   7.650
 7227POPC   NC337511  33.053  15.196   9.450
 7227POPC   PO437512  33.056  15.186   9.150
 7227POPC   GL137513  33.000  15.161   8.850
 7227POPC   GL237514  32.905  15.118   8.850
 7227POPC   C1A37515  33.060  15.197   8.550
 7227POPC   D2A37516  32.992  15.180   8.250
 7227POPC   C3A37517  33.066  15.223   7.950
 7227POPC   C4A37518  33.003  15.200   7.650
 7227POPC   C1B37519  32.896  15.034   8.550
 7227POPC   C2B37520  32.897  14.970   8.250
 7227POPC   C3B37521  32.909  14.981   7.950
 7227POPC   C4B37522  32.824  15.018   7.650
 7228POPC   NC337523  19.076  42.350   9.450
 7228POPC   PO437524  19.012  42.315   9.150
 7228POPC   GL137525  19.101  42.349   8.850
 7228POPC   GL237526  19.080  42.491   8.850
 7228POPC   C1A37527  19.102  42.335   8.550
 7228POPC   D2A37528  19.067  42.367   8.250
 7228POPC   C3A37529  19.061  42.298   7.950
 7228POPC   C4A37530  19.076  42.331   7.650
 7228POPC   C1B37531  19.044  42.628   8.550
 7228POPC   C2B37532  19.064  42.576   8.250
 7228POPC   C3B37533  19.091  42.536   7.950
 7228POPC   C4B37534  19.050  42.594   7.650
 7229POPC   NC337535  37.671  11.259   9.450
 7229POPC   PO437536  37.654  11.281   9.150
 7229POPC   GL137537  37.668  11.328   8.850
 7229POPC   GL237538  37.638  11.166   8.850
 7229POPC   C1A37539  37.637  11.271   8.550
 7229POPC   D2A37540  37.713  11.310   8.250
 7229POPC   C3A37541  37.716  11.304   7.950
 7229POPC   C4A37542  37.686  11.251   7.650
 7229POPC   C1B37543  37.579  11.102   8.550
 7229POPC   C2B37544  37.614  11.089   8.250
 7229POPC   C3B37545  37.575  11.041   7.950
 7229POPC   C4B37546  37.516  11.104   7.650
 7230POPC   NC337547  12.071  40.027   9.450
 7230POPC   PO437548  12.109  39.985   9.150
 7230POPC   GL137549  12.116  40.040   8.850
 7230POPC   GL237550  12.045  39.918   8.850
 7230POPC   C1A37551  12.124  40.004   8.550
 7230POPC   D2A37552  12.037  39.958   8.250
 7230POPC   C3A37553  12.103  39.980   7.950
 7230POPC   C4A37554  12.057  40.030   7.650
 7230POPC   C1B37555  12.093  39.738   8.550
 7230POPC   C2B37556  12.059  39.808   8.250
 7230POPC   C3B37557  12.093  39.801   7.950
 7230POPC   C4B37558  12.113  39.713   7.650
 7231POPC   NC337559  27.547  33.004   9.450
 7231POPC   PO437560  27.585  33.051   9.150
 7231POPC   GL137561  27.570  33.028   8.850
 7231POPC   GL237562  27.504  32.982   8.850
 7231POPC   C1A37563  27.580  33.050   8.550
 7231POPC   D2A37564  27.605  33.017   8.250
 7231POPC   C3A37565  27.579  32.997   7.950
 7231POPC   C4A37566  27.633  32.978   7.650
 7231POPC   C1B37567  27.352  32.954   8.550
 7231POPC   C2B37568  27.385  32.896   8.250
 7231POPC   C3B37569  27.388  32.878   7.950
 7231POPC   C4B37570  27.404  32.938   7.650
 7232POPC   NC337571   2.749   8.214   9.450
 7232POPC   PO437572   2.737   8.231   9.150
 7232POPC   GL137573   2.775   8.209   8.850
 7232POPC   GL237574   2.759   8.098   8.850
 7232POPC   C1A37575   2.807   8.203   8.550
 7232POPC   D2A37576   2.790   8.180   8.250
 7232POPC   C3A37577   2.767   8.166   7.950
 7232POPC   C4A37578   2.786   8.172   7.650
 7232POPC   C1B37579   2.807   8.004   8.550
 7232POPC   C2B37580   2.805   7.963   8.250
 7232POPC   C3B37581   2.819   7.932   7.950
 7232POPC   C4B37582   2.847   7.987   7.650
 7233POPC   NC337583   5.843  34.578   9.450
 7233POPC   PO437584   5.897  34.535   9.150
 7233POPC   GL137585   5.840  34.597   8.850
 7233POPC   GL237586   5.984  34.562   8.850
 7233POPC   C1A37587   5.847  34.553   8.550
 7233POPC   D2A37588   5.915  34.551   8.250
 7233POPC   C3A37589   5.861  34.527   7.950
 7233POPC   C4A37590   5.828  34.606   7.650
 7233POPC   C1B37591   6.072  34.401   8.550
 7233POPC   C2B37592   6.087  34.412   8.250
 7233POPC   C3B37593   6.109  34.424   7.950
 7233POPC   C4B37594   6.101  34.406   7.650
 7234POPC   NC337595  29.909  19.834   9.450
 7234POPC   PO437596  29.931  19.862   9.150
 7234POPC   GL137597  29.909  19.859   8.850
 7234POPC   GL237598  30.028  19.761   8.850
 7234POPC   C1A37599  29.922  19.817   8.550
 7234POPC   D2A37600  29.941  19.860   8.250
 7234POPC   C3A37601  29.904  19.843   7.950
 7234POPC   C4A37602  29.876  19.837   7.650
 7234POPC   C1B37603  30.099  19.677   8.550
 7234POPC   C2B37604  30.157  19.724   8.250
 7234POPC   C3B37605  30.155  19.729   7.950
 7234POPC   C4B37606  30.113  19.662   7.650
 7235POPC   NC337607   0.403   1.213   9.450
 7235POPC   PO437608   0.486   1.255   9.150
 7235POPC   GL137609   0.407   1.168   8.850
 7235POPC   GL237610   0.424   1.062   8.850
 7235POPC   C1A37611   0.464   1.231   8.550
 7235POPC   D2A37612   0.442   1.207   8.250
 7235POPC   C3A37613   0.449   1.235   7.950
 7235POPC   C4A37614   0.409   1.179   7.650
 7235POPC   C1B37615   0.463   0.961   8.550
 7235POPC   C2B37616   0.497   0.996   8.250
 7235POPC   C3B37617   0.491   0.948   7.950
 7235POPC   C4B37618   0.463   0.957   7.650
 7236POPC   NC337619  35.400  23.714   9.450
 7236POPC   PO437620  35.393  23.701   9.150
 7236POPC   GL137621  35.388  23.669   8.850
 7236POPC   GL237622  35.332  23.625   8.850
 7236POPC   C1A37623  35.365  23.713   8.550
 7236POPC   D2A37624  35.389  23.668   8.250
 7236POPC   C3A37625  35.332  23.672   7.950
 7236POPC   C4A37626  35.321  23.687   7.650
 7236POPC   C1B37627  35.276  23.506   8.550
 7236POPC   C2B37628  35.285  23.493   8.250
 7236POPC   C3B37629  35.269  23.490   7.950
 7236POPC   C4B37630  35.247  23.527   7.650
 7237POPC   NC337631  28.397   2.007   9.450
 7237POPC   PO437632  28.342   2.009   9.150
 7237POPC   GL137633  28.351   1.951   8.850
 7237POPC   GL237634  28.250   2.069   8.850
 7237POPC   C1A37635  28.346   1.976   8.550
 7237POPC   D2A37636  28.382   2.013   8.250
 7237POPC   C3A37637  28.376   1.990   7.950
 7237POPC   C4A37638  28.405   2.013   7.650
 7237POPC   C1B37639  28.177   2.052   8.550
 7237POPC   C2B37640  28.137   2.141   8.250
 7237POPC   C3B37641  28.105   2.067   7.950
 7237POPC   C4B37642  28.102   2.064   7.650
 7238POPC   NC337643  44.709  13.619   9.450
 7238POPC   PO437644  44.664  13.665   9.150
 7238POPC   GL137645  44.674  13.586   8.850
 7238POPC   GL237646  44.748  13.613   8.850
 7238POPC   C1A37647  44.631  13.596   8.550
 7238POPC   D2A37648  44.625  13.585   8.250
 7238POPC   C3A37649  44.667  13.597   7.950
 7238POPC   C4A37650  44.679  13.582   7.650
 7238POPC   C1B37651  44.906  13.628   8.550
 7238POPC   C2B37652  44.938  13.606   8.250
 7238POPC   C3B37653  44.864  13.687   7.950
 7238POPC   C4B37654  44.914  13.644   7.650
 7239POPC   NC337655  26.851  40.044   9.450
 7239POPC   PO437656  26.769  39.965   9.150
 7239POPC   GL137657  26.861  40.051   8.850
 7239POPC   GL237658  26.697  39.922   8.850
 7239POPC   C1A37659  26.811  40.023   8.550
 7239POPC   D2A37660  26.800  39.989   8.250
 7239POPC   C3A37661  26.808  39.990   7.950
 7239POPC   C4A37662  26.840  40.040   7.650
 7239POPC   C1B37663  26.632  39.858   8.550
 7239POPC   C2B37664  26.623  39.856   8.250
 7239POPC   C3B37665  26.568  39.941   7.950
 7239POPC   C4B37666  26.572  39.862   7.650
 7240POPC   NC337667  11.339  20.563   9.450
 7240POPC   PO437668  11.286  20.660   9.150
 7240POPC   GL137669  11.340  20.575   8.850
 7240POPC   GL237670  11.161  20.665   8.850
 7240POPC   C1A37671  11.289  20.617   8.550
 7240POPC   D2A37672  11.340  20.566   8.250
 7240POPC   C3A37673  11.254  20.657   7.950
 7240POPC   C4A37674  11.293  20.585   7.650
 7240POPC   C1B37675  11.095  20.660   8.550
 7240POPC   C2B37676  11.036  20.702   8.250
 7240POPC   C3B37677  11.032  20.694   7.950
 7240POPC   C4B37678  11.065  20.711   7.650
 7241POPC   NC337679  34.614  44.693   9.450
 7241POPC   PO437680  34.581  44.654   9.150
 7241POPC   GL137681  34.567  44.673   8.850
 7241POPC   GL237682  34.620  44.507   8.850
 7241POPC   C1A37683  34.540  44.689   8.550
 7241POPC   D2A37684  34.612  44.692   8.250
 7241POPC   C3A37685  34.604  44.712   7.950
 7241POPC   C4A37686  34.556  44.681   7.650
 7241POPC   C1B37687  34.573  44.386   8.550
 7241POPC   C2B37688  34.588  44.410   8.250
 7241POPC   C3B37689  34.602  44.413   7.950
 7241POPC   C4B37690  34.585  44.451   7.650
 7242POPC   NC337691  29.899  41.599   9.450
 7242POPC   PO437692  29.935  41.596   9.150
 7242POPC   GL137693  29.937  41.524   8.850
 7242POPC   GL237694  29.925  41.696   8.850
 7242POPC   C1A37695  29.951  41.559   8.550
 7242POPC   D2A37696  29.932  41.532   8.250
 7242POPC   C3A37697  29.934  41.540   7.950
 7242POPC   C4A37698  29.958  41.529   7.650
 7242POPC   C1B37699  29.901  41.794   8.550
 7242POPC   C2B37700  29.906  41.759   8.250
 7242POPC   C3B37701  29.914  41.848   7.950
 7242POPC   C4B37702  29.847  41.810   7.650
 7243POPC   NC337703  19.844  27.549   9.450
 7243POPC   PO437704  19.847  27.627   9.150
 7243POPC   GL137705  19.811  27.607   8.850
 7243POPC   GL237706  19.693  27.611   8.850
 7243POPC   C1A37707  19.800  27.576   8.550
 7243POPC   D2A37708  19.796  27.574   8.250
 7243POPC   C3A37709  19.813  27.567   7.950
 7243POPC   C4A37710  19.879  27.600   7.650
 7243POPC   C1B37711  19.616  27.714   8.550
 7243POPC   C2B37712  19.601  27.735   8.250
 7243POPC   C3B37713  19.634  27.665   7.950
 7243POPC   C4B37714  19.573  27.676   7.650
 7244POPC   NC337715  28.396  28.370   9.450
 7244POPC   PO437716  28.341  28.384   9.150
 7244POPC   GL137717  28.380  28.374   8.850
 7244POPC   GL237718  28.447  28.404   8.850
 7244POPC   C1A37719  28.325  28.345   8.550
 7244POPC   D2A37720  28.358  28.369   8.250
 7244POPC   C3A37721  28.372  28.390   7.950
 7244POPC   C4A37722  28.381  28.319   7.650
 7244POPC   C1B37723  28.590  28.350   8.550
 7244POPC   C2B37724  28.667  28.388   8.250
 7244POPC   C3B37725  28.629  28.350   7.950
 7244POPC   C4B37726  28.665  28.371   7.650
 7245POPC   NC337727  39.260  41.553   9.450
 7245POPC   PO437728  39.242  41.516   9.150
 7245POPC   GL137729  39.221  41.557   8.850
 7245POPC   GL237730  39.129  41.707   8.850
 7245POPC   C1A37731  39.269  41.582   8.550
 7245POPC   D2A37732  39.242  41.515   8.250
 7245POPC   C3A37733  39.253  41.512   7.950
 7245POPC   C4A37734  39.276  41.557   7.650
 7245POPC   C1B37735  39.043  41.735   8.550
 7245POPC   C2B37736  39.038  41.735   8.250
 7245POPC   C3B37737  39.081  41.804   7.950
 7245POPC   C4B37738  39.100  41.738   7.650
 7246POPC   NC337739  20.631  30.684   9.450
 7246POPC   PO437740  20.581  30.660   9.150
 7246POPC   GL137741  20.562  30.693   8.850
 7246POPC   GL237742  20.603  30.866   8.850
 7246POPC   C1A37743  20.566  30.745   8.550
 7246POPC   D2A37744  20.642  30.735   8.250
 7246POPC   C3A37745  20.649  30.671   7.950
 7246POPC   C4A37746  20.633  30.666   7.650
 7246POPC   C1B37747  20.518  30.964   8.550
 7246POPC   C2B37748  20.593  30.969   8.250
 7246POPC   C3B37749  20.512  30.926   7.950
 7246POPC   C4B37750  20.559  30.970   7.650
 7247POPC   NC337751  24.500  41.523   9.450
 7247POPC   PO437752  24.463  41.530   9.150
 7247POPC   GL137753  24.456  41.598   8.850
 7247POPC   GL237754  24.466  41.651   8.850
 7247POPC   C1A37755  24.516  41.515   8.550
 7247POPC   D2A37756  24.531  41.514   8.250
 7247POPC   C3A37757  24.475  41.602   7.950
 7247POPC   C4A37758  24.519  41.594   7.650
 7247POPC   C1B37759  24.367  41.752   8.550
 7247POPC   C2B37760  24.375  41.778   8.250
 7247POPC   C3B37761  24.366  41.757   7.950
 7247POPC   C4B37762  24.385  41.834   7.650
 7248POPC   NC337763   9.744  25.304   9.450
 7248POPC   PO437764   9.793  25.229   9.150
 7248POPC   GL137765   9.755  25.292   8.850
 7248POPC   GL237766   9.677  25.151   8.850
 7248POPC   C1A37767   9.716  25.228   8.550
 7248POPC   D2A37768   9.738  25.229   8.250
 7248POPC   C3A37769   9.781  25.259   7.950
 7248POPC   C4A37770   9.744  25.274   7.650
 7248POPC   C1B37771   9.672  25.070   8.550
 7248POPC   C2B37772   9.639  25.083   8.250
 7248POPC   C3B37773   9.653  25.045   7.950
 7248POPC   C4B37774   9.614  24.994   7.650
 7249POPC   NC337775  25.286  29.188   9.450
 7249POPC   PO437776  25.239  29.127   9.150
 7249POPC   GL137777  25.239  29.119   8.850
 7249POPC   GL237778  25.416  29.168   8.850
 7249POPC   C1A37779  25.224  29.111   8.550
 7249POPC   D2A37780  25.238  29.166   8.250
 7249POPC   C3A37781  25.224  29.159   7.950
 7249POPC   C4A37782  25.297  29.106   7.650
 7249POPC   C1B37783  25.508  29.144   8.550
 7249POPC   C2B37784  25.501  29.048   8.250
 7249POPC   C3B37785  25.500  29.079   7.950
 7249POPC   C4B37786  25.544  29.126   7.650
 7250POPC   NC337787   6.620  29.923   9.450
 7250POPC   PO437788   6.690  29.872   9.150
 7250POPC   GL137789   6.631  29.884   8.850
 7250POPC   GL237790   6.557  29.946   8.850
 7250POPC   C1A37791   6.603  29.960   8.550
 7250POPC   D2A37792   6.679  29.883   8.250
 7250POPC   C3A37793   6.662  29.912   7.950
 7250POPC   C4A37794   6.616  29.969   7.650
 7250POPC   C1B37795   6.419  29.936   8.550
 7250POPC   C2B37796   6.359  30.002   8.250
 7250POPC   C3B37797   6.441  29.991   7.950
 7250POPC   C4B37798   6.441  29.973   7.650
 7251POPC   NC337799  16.775  17.457   9.450
 7251POPC   PO437800  16.763  17.491   9.150
 7251POPC   GL137801  16.777  17.464   8.850
 7251POPC   GL237802  16.782  17.666   8.850
 7251POPC   C1A37803  16.739  17.506   8.550
 7251POPC   D2A37804  16.701  17.466   8.250
 7251POPC   C3A37805  16.764  17.537   7.950
 7251POPC   C4A37806  16.690  17.470   7.650
 7251POPC   C1B37807  16.774  17.709   8.550
 7251POPC   C2B37808  16.828  17.779   8.250
 7251POPC   C3B37809  16.845  17.792   7.950
 7251POPC   C4B37810  16.847  17.702   7.650
 7252POPC   NC337811  36.908  15.943   9.450
 7252POPC   PO437812  36.866  15.921   9.150
 7252POPC   GL137813  36.867  15.920   8.850
 7252POPC   GL237814  37.003  16.070   8.850
 7252POPC   C1A37815  36.882  15.942   8.550
 7252POPC   D2A37816  36.878  15.917   8.250
 7252POPC   C3A37817  36.873  15.955   7.950
 7252POPC   C4A37818  36.865  15.959   7.650
 7252POPC   C1B37819  37.054  16.184   8.550
 7252POPC   C2B37820  37.066  16.171   8.250
 7252POPC   C3B37821  37.013  16.171   7.950
 7252POPC   C4B37822  37.056  16.217   7.650
 7253POPC   NC337823  15.180  36.128   9.450
 7253POPC   PO437824  15.147  36.172   9.150
 7253POPC   GL137825  15.148  36.129   8.850
 7253POPC   GL237826  15.280  36.145   8.850
 7253POPC   C1A37827  15.131  36.177   8.550
 7253POPC   D2A37828  15.129  36.168   8.250
 7253POPC   C3A37829  15.163  36.129   7.950
 7253POPC   C4A37830  15.209  36.156   7.650
 7253POPC   C1B37831  15.456  36.081   8.550
 7253POPC   C2B37832  15.424  36.058   8.250
 7253POPC   C3B37833  15.466  36.095   7.950
 7253POPC   C4B37834  15.416  36.029   7.650
 7254POPC   NC337835  10.573  19.014   9.450
 7254POPC   PO437836  10.524  19.084   9.150
 7254POPC   GL137837  10.503  19.059   8.850
 7254POPC   GL237838  10.595  19.143   8.850
 7254POPC   C1A37839  10.554  19.045   8.550
 7254POPC   D2A37840  10.531  19.065   8.250
 7254POPC   C3A37841  10.574  19.079   7.950
 7254POPC   C4A37842  10.481  19.029   7.650
 7254POPC   C1B37843  10.810  19.111   8.550
 7254POPC   C2B37844  10.717  19.116   8.250
 7254POPC   C3B37845  10.785  19.145   7.950
 7254POPC   C4B37846  10.756  19.090   7.650
 7255POPC   NC337847  19.810  42.376   9.450
 7255POPC   PO437848  19.855  42.351   9.150
 7255POPC   GL137849  19.809  42.361   8.850
 7255POPC   GL237850  19.936  42.224   8.850
 7255POPC   C1A37851  19.839  42.377   8.550
 7255POPC   D2A37852  19.805  42.313   8.250
 7255POPC   C3A37853  19.850  42.349   7.950
 7255POPC   C4A37854  19.874  42.364   7.650
 7255POPC   C1B37855  20.035  42.206   8.550
 7255POPC   C2B37856  19.977  42.197   8.250
 7255POPC   C3B37857  20.017  42.212   7.950
 7255POPC   C4B37858  20.022  42.192   7.650
 7256POPC   NC337859  42.374   1.251   9.450
 7256POPC   PO437860  42.374   1.259   9.150
 7256POPC   GL137861  42.318   1.250   8.850
 7256POPC   GL237862  42.484   1.160   8.850
 7256POPC   C1A37863  42.296   1.205   8.550
 7256POPC   D2A37864  42.358   1.238   8.250
 7256POPC   C3A37865  42.301   1.175   7.950
 7256POPC   C4A37866  42.327   1.189   7.650
 7256POPC   C1B37867  42.566   1.031   8.550
 7256POPC   C2B37868  42.542   1.102   8.250
 7256POPC   C3B37869  42.545   1.082   7.950
 7256POPC   C4B37870  42.534   1.112   7.650
 7257POPC   NC337871  22.159  19.018   9.450
 7257POPC   PO437872  22.154  19.045   9.150
 7257POPC   GL137873  22.149  19.081   8.850
 7257POPC   GL237874  22.283  19.008   8.850
 7257POPC   C1A37875  22.124  19.077   8.550
 7257POPC   D2A37876  22.114  19.039   8.250
 7257POPC   C3A37877  22.180  19.094   7.950
 7257POPC   C4A37878  22.162  19.096   7.650
 7257POPC   C1B37879  22.392  18.939   8.550
 7257POPC   C2B37880  22.413  18.958   8.250
 7257POPC   C3B37881  22.364  18.984   7.950
 7257POPC   C4B37882  22.384  19.009   7.650
 7258POPC   NC337883  21.393  16.733   9.450
 7258POPC   PO437884  21.362  16.686   9.150
 7258POPC   GL137885  21.408  16.778   8.850
 7258POPC   GL237886  21.428  16.615   8.850
 7258POPC   C1A37887  21.424  16.773   8.550
 7258POPC   D2A37888  21.401  16.691   8.250
 7258POPC   C3A37889  21.402  16.713   7.950
 7258POPC   C4A37890  21.375  16.721   7.650
 7258POPC   C1B37891  21.592  16.584   8.550
 7258POPC   C2B37892  21.549  16.563   8.250
 7258POPC   C3B37893  21.516  16.559   7.950
 7258POPC   C4B37894  21.585  16.600   7.650
 7259POPC   NC337895   2.801  44.640   9.450
 7259POPC   PO437896   2.784  44.696   9.150
 7259POPC   GL137897   2.785  44.678   8.850
 7259POPC   GL237898   2.893  44.609   8.850
 7259POPC   C1A37899   2.725  44.621   8.550
 7259POPC   D2A37900   2.790  44.707   8.250
 7259POPC   C3A37901   2.734  44.655   7.950
 7259POPC   C4A37902   2.812  44.685   7.650
 7259POPC   C1B37903   2.932  44.545   8.550
 7259POPC   C2B37904   2.985  44.510   8.250
 7259POPC   C3B37905   2.927  44.498   7.950
 7259POPC   C4B37906   2.906  44.452   7.650
 7260POPC   NC337907  15.985  26.799   9.450
 7260POPC   PO437908  15.975  26.865   9.150
 7260POPC   GL137909  15.954  26.816   8.850
 7260POPC   GL237910  15.861  26.759   8.850
 7260POPC   C1A37911  15.916  26.854   8.550
 7260POPC   D2A37912  15.934  26.773   8.250
 7260POPC   C3A37913  15.957  26.867   7.950
 7260POPC   C4A37914  15.981  26.834   7.650
 7260POPC   C1B37915  15.806  26.651   8.550
 7260POPC   C2B37916  15.834  26.575   8.250
 7260POPC   C3B37917  15.773  26.652   7.950
 7260POPC   C4B37918  15.835  26.629   7.650
 7261POPC   NC337919  20.596  40.038   9.450
 7261POPC   PO437920  20.616  39.994   9.150
 7261POPC   GL137921  20.636  39.978   8.850
 7261POPC   GL237922  20.528  40.088   8.850
 7261POPC   C1A37923  20.660  40.052   8.550
 7261POPC   D2A37924  20.616  39.990   8.250
 7261POPC   C3A37925  20.596  40.040   7.950
 7261POPC   C4A37926  20.591  39.961   7.650
 7261POPC   C1B37927  20.523  40.281   8.550
 7261POPC   C2B37928  20.492  40.219   8.250
 7261POPC   C3B37929  20.556  40.284   7.950
 7261POPC   C4B37930  20.577  40.255   7.650
 7262POPC   NC337931  35.359  25.304   9.450
 7262POPC   PO437932  35.332  25.294   9.150
 7262POPC   GL137933  35.353  25.288   8.850
 7262POPC   GL237934  35.195  25.258   8.850
 7262POPC   C1A37935  35.316  25.296   8.550
 7262POPC   D2A37936  35.398  25.270   8.250
 7262POPC   C3A37937  35.357  25.245   7.950
 7262POPC   C4A37938  35.392  25.291   7.650
 7262POPC   C1B37939  35.088  25.224   8.550
 7262POPC   C2B37940  35.132  25.256   8.250
 7262POPC   C3B37941  35.112  25.194   7.950
 7262POPC   C4B37942  35.118  25.217   7.650
 7263POPC   NC337943  12.079  35.305   9.450
 7263POPC   PO437944  12.062  35.345   9.150
 7263POPC   GL137945  12.091  35.386   8.850
 7263POPC   GL237946  12.125  35.212   8.850
 7263POPC   C1A37947  12.040  35.322   8.550
 7263POPC   D2A37948  12.033  35.303   8.250
 7263POPC   C3A37949  12.081  35.340   7.950
 7263POPC   C4A37950  12.096  35.357   7.650
 7263POPC   C1B37951  12.279  35.184   8.550
 7263POPC   C2B37952  12.215  35.130   8.250
 7263POPC   C3B37953  12.215  35.181   7.950
 7263POPC   C4B37954  12.219  35.160   7.650
 7264POPC   NC337955  39.981  21.377   9.450
 7264POPC   PO437956  39.961  21.373   9.150
 7264POPC   GL137957  40.021  21.388   8.850
 7264POPC   GL237958  40.069  21.430   8.850
 7264POPC   C1A37959  39.957  21.382   8.550
 7264POPC   D2A37960  40.046  21.422   8.250
 7264POPC   C3A37961  39.960  21.411   7.950
 7264POPC   C4A37962  40.045  21.382   7.650
 7264POPC   C1B37963  40.219  21.506   8.550
 7264POPC   C2B37964  40.236  21.585   8.250
 7264POPC   C3B37965  40.180  21.574   7.950
 7264POPC   C4B37966  40.172  21.539   7.650
 7265POPC   NC337967  23.745  14.428   9.450
 7265POPC   PO437968  23.756  14.380   9.150
 7265POPC   GL137969  23.667  14.431   8.850
 7265POPC   GL237970  23.745  14.505   8.850
 7265POPC   C1A37971  23.763  14.403   8.550
 7265POPC   D2A37972  23.730  14.415   8.250
 7265POPC   C3A37973  23.732  14.453   7.950
 7265POPC   C4A37974  23.760  14.376   7.650
 7265POPC   C1B37975  23.840  14.659   8.550
 7265POPC   C2B37976  23.818  14.630   8.250
 7265POPC   C3B37977  23.857  14.593   7.950
 7265POPC   C4B37978  23.823  14.664   7.650
 7266POPC   NC337979  43.128  12.899   9.450
 7266POPC   PO437980  43.141  12.829   9.150
 7266POPC   GL137981  43.070  12.890   8.850
 7266POPC   GL237982  43.216  12.798   8.850
 7266POPC   C1A37983  43.111  12.850   8.550
 7266POPC   D2A37984  43.091  12.878   8.250
 7266POPC   C3A37985  43.152  12.833   7.950
 7266POPC   C4A37986  43.106  12.809   7.650
 7266POPC   C1B37987  43.338  12.737   8.550
 7266POPC   C2B37988  43.291  12.766   8.250
 7266POPC   C3B37989  43.291  12.742   7.950
 7266POPC   C4B37990  43.368  12.716   7.650
 7267POPC   NC337991  10.563  32.991   9.450
 7267POPC   PO437992  10.574  33.013   9.150
 7267POPC   GL137993  10.506  33.041   8.850
 7267POPC   GL237994  10.371  32.992   8.850
 7267POPC   C1A37995  10.550  33.007   8.550
 7267POPC   D2A37996  10.479  33.021   8.250
 7267POPC   C3A37997  10.485  33.070   7.950
 7267POPC   C4A37998  10.547  33.037   7.650
 7267POPC   C1B37999  10.248  32.974   8.550
 7267POPC   C2B38000  10.240  32.956   8.250
 7267POPC   C3B38001  10.276  32.901   7.950
 7267POPC   C4B38002  10.297  32.972   7.650
 7268POPC   NC338003  15.920   7.428   9.450
 7268POPC   PO438004  15.970   7.374   9.150
 7268POPC   GL138005  15.915   7.427   8.850
 7268POPC   GL238006  16.078   7.288   8.850
 7268POPC   C1A38007  15.935   7.390   8.550
 7268POPC   D2A38008  15.988   7.396   8.250
 7268POPC   C3A38009  15.992   7.375   7.950
 7268POPC   C4A38010  15.979   7.446   7.650
 7268POPC   C1B38011  16.130   7.265   8.550
 7268POPC   C2B38012  16.107   7.220   8.250
 7268POPC   C3B38013  16.134   7.206   7.950
 7268POPC   C4B38014  16.111   7.277   7.650
 7269POPC   NC338015   4.364  16.762   9.450
 7269POPC   PO438016   4.306  16.761   9.150
 7269POPC   GL138017   4.338  16.773   8.850
 7269POPC   GL238018   4.208  16.691   8.850
 7269POPC   C1A38019   4.344  16.726   8.550
 7269POPC   D2A38020   4.277  16.739   8.250
 7269POPC   C3A38021   4.325  16.703   7.950
 7269POPC   C4A38022   4.267  16.684   7.650
 7269POPC   C1B38023   4.059  16.625   8.550
 7269POPC   C2B38024   4.045  16.660   8.250
 7269POPC   C3B38025   4.105  16.626   7.950
 7269POPC   C4B38026   4.059  16.647   7.650
 7270POPC   NC338027  29.886  43.126   9.450
 7270POPC   PO438028  29.969  43.064   9.150
 7270POPC   GL138029  29.871  43.074   8.850
 7270POPC   GL238030  30.061  43.066   8.850
 7270POPC   C1A38031  29.910  43.111   8.550
 7270POPC   D2A38032  29.939  43.152   8.250
 7270POPC   C3A38033  29.970  43.135   7.950
 7270POPC   C4A38034  29.964  43.109   7.650
 7270POPC   C1B38035  30.112  43.033   8.550
 7270POPC   C2B38036  30.188  42.942   8.250
 7270POPC   C3B38037  30.097  43.010   7.950
 7270POPC   C4B38038  30.139  42.966   7.650
 7271POPC   NC338039  29.152   4.324   9.450
 7271POPC   PO438040  29.096   4.319   9.150
 7271POPC   GL138041  29.175   4.312   8.850
 7271POPC   GL238042  29.063   4.362   8.850
 7271POPC   C1A38043  29.173   4.278   8.550
 7271POPC   D2A38044  29.181   4.367   8.250
 7271POPC   C3A38045  29.146   4.357   7.950
 7271POPC   C4A38046  29.190   4.327   7.650
 7271POPC   C1B38047  28.973   4.536   8.550
 7271POPC   C2B38048  28.952   4.517   8.250
 7271POPC   C3B38049  28.953   4.470   7.950
 7271POPC   C4B38050  28.933   4.497   7.650
 7272POPC   NC338051   2.791  38.434   9.450
 7272POPC   PO438052   2.784  38.495   9.150
 7272POPC   GL138053   2.807  38.440   8.850
 7272POPC   GL238054   2.673  38.317   8.850
 7272POPC   C1A38055   2.768  38.428   8.550
 7272POPC   D2A38056   2.722  38.473   8.250
 7272POPC   C3A38057   2.726  38.478   7.950
 7272POPC   C4A38058   2.808  38.456   7.650
 7272POPC   C1B38059   2.664  38.187   8.550
 7272POPC   C2B38060   2.610  38.227   8.250
 7272POPC   C3B38061   2.610  38.254   7.950
 7272POPC   C4B38062   2.648  38.206   7.650
 7273POPC   NC338063  30.711  11.299   9.450
 7273POPC   PO438064  30.738  11.306   9.150
 7273POPC   GL138065  30.677  11.303   8.850
 7273POPC   GL238066  30.760  11.374   8.850
 7273POPC   C1A38067  30.718  11.347   8.550
 7273POPC   D2A38068  30.744  11.257   8.250
 7273POPC   C3A38069  30.743  11.302   7.950
 7273POPC   C4A38070  30.700  11.326   7.650
 7273POPC   C1B38071  30.857  11.530   8.550
 7273POPC   C2B38072  30.841  11.481   8.250
 7273POPC   C3B38073  30.761  11.531   7.950
 7273POPC   C4B38074  30.772  11.490   7.650
 7274POPC   NC338075  40.815  30.708   9.450
 7274POPC   PO438076  40.808  30.674   9.150
 7274POPC   GL138077  40.733  30.654   8.850
 7274POPC   GL238078  40.700  30.769   8.850
 7274POPC   C1A38079  40.747  30.676   8.550
 7274POPC   D2A38080  40.819  30.736   8.250
 7274POPC   C3A38081  40.798  30.743   7.950
 7274POPC   C4A38082  40.733  30.659   7.650
 7274POPC   C1B38083  40.708  30.918   8.550
 7274POPC   C2B38084  40.748  30.893   8.250
 7274POPC   C3B38085  40.715  30.928   7.950
 7274POPC   C4B38086  40.723  30.923   7.650
 7275POPC   NC338087  26.028   8.211   9.450
 7275POPC   PO438088  26.071   8.240   9.150
 7275POPC   GL138089  26.066   8.204   8.850
 7275POPC   GL238090  26.135   8.100   8.850
 7275POPC   C1A38091  26.010   8.228   8.550
 7275POPC   D2A38092  26.037   8.183   8.250
 7275POPC   C3A38093  26.050   8.189   7.950
 7275POPC   C4A38094  26.032   8.203   7.650
 7275POPC   C1B38095  26.208   8.020   8.550
 7275POPC   C2B38096  26.149   7.960   8.250
 7275POPC   C3B38097  26.212   8.041   7.950
 7275POPC   C4B38098  26.203   7.968   7.650
 7276POPC   NC338099  19.061  37.725   9.450
 7276POPC   PO438100  19.069  37.666   9.150
 7276POPC   GL138101  19.011  37.712   8.850
 7276POPC   GL238102  19.022  37.545   8.850
 7276POPC   C1A38103  19.021  37.702   8.550
 7276POPC   D2A38104  19.047  37.673   8.250
 7276POPC   C3A38105  19.067  37.648   7.950
 7276POPC   C4A38106  19.038  37.655   7.650
 7276POPC   C1B38107  19.065  37.473   8.550
 7276POPC   C2B38108  19.047  37.440   8.250
 7276POPC   C3B38109  19.012  37.460   7.950
 7276POPC   C4B38110  19.070  37.462   7.650
 7277POPC   NC338111   4.267  38.447   9.450
 7277POPC   PO438112   4.349  38.492   9.150
 7277POPC   GL138113   4.355  38.439   8.850
 7277POPC   GL238114   4.290  38.303   8.850
 7277POPC   C1A38115   4.312  38.469   8.550
 7277POPC   D2A38116   4.279  38.414   8.250
 7277POPC   C3A38117   4.320  38.411   7.950
 7277POPC   C4A38118   4.326  38.453   7.650
 7277POPC   C1B38119   4.250  38.239   8.550
 7277POPC   C2B38120   4.302  38.253   8.250
 7277POPC   C3B38121   4.284  38.180   7.950
 7277POPC   C4B38122   4.252  38.193   7.650
 7278POPC   NC338123  18.267   7.430   9.450
 7278POPC   PO438124  18.260   7.377   9.150
 7278POPC   GL138125  18.295   7.399   8.850
 7278POPC   GL238126  18.199   7.387   8.850
 7278POPC   C1A38127  18.263   7.391   8.550
 7278POPC   D2A38128  18.246   7.419   8.250
 7278POPC   C3A38129  18.258   7.402   7.950
 7278POPC   C4A38130  18.255   7.445   7.650
 7278POPC   C1B38131  18.130   7.212   8.550
 7278POPC   C2B38132  18.063   7.237   8.250
 7278POPC   C3B38133  18.130   7.267   7.950
 7278POPC   C4B38134  18.103   7.281   7.650
 7279POPC   NC338135  33.843  16.701   9.450
 7279POPC   PO438136  33.832  16.687   9.150
 7279POPC   GL138137  33.782  16.715   8.850
 7279POPC   GL238138  33.644  16.722   8.850
 7279POPC   C1A38139  33.761  16.738   8.550
 7279POPC   D2A38140  33.842  16.681   8.250
 7279POPC   C3A38141  33.793  16.696   7.950
 7279POPC   C4A38142  33.841  16.736   7.650
 7279POPC   C1B38143  33.587  16.739   8.550
 7279POPC   C2B38144  33.554  16.665   8.250
 7279POPC   C3B38145  33.582  16.712   7.950
 7279POPC   C4B38146  33.571  16.751   7.650
 7280POPC   NC338147  10.546   1.213   9.450
 7280POPC   PO438148  10.513   1.239   9.150
 7280POPC   GL138149  10.487   1.197   8.850
 7280POPC   GL238150  10.600   1.349   8.850
 7280POPC   C1A38151  10.487   1.238   8.550
 7280POPC   D2A38152  10.501   1.204   8.250
 7280POPC   C3A38153  10.496   1.229   7.950
 7280POPC   C4A38154  10.475   1.199   7.650
 7280POPC   C1B38155  10.693   1.380   8.550
 7280POPC   C2B38156  10.628   1.381   8.250
 7280POPC   C3B38157  10.680   1.376   7.950
 7280POPC   C4B38158  10.682   1.387   7.650
 7281POPC   NC338159  20.653  39.278   9.450
 7281POPC   PO438160  20.594  39.271   9.150
 7281POPC   GL138161  20.564  39.227   8.850
 7281POPC   GL238162  20.508  39.271   8.850
 7281POPC   C1A38163  20.633  39.221   8.550
 7281POPC   D2A38164  20.626  39.208   8.250
 7281POPC   C3A38165  20.596  39.188   7.950
 7281POPC   C4A38166  20.642  39.214   7.650
 7281POPC   C1B38167  20.395  39.377   8.550
 7281POPC   C2B38168  20.448  39.359   8.250
 7281POPC   C3B38169  20.388  39.414   7.950
 7281POPC   C4B38170  20.433  39.431   7.650
 7282POPC   NC338171   6.598  12.803   9.450
 7282POPC   PO438172   6.618  12.807   9.150
 7282POPC   GL138173   6.668  12.833   8.850
 7282POPC   GL238174   6.511  12.892   8.850
 7282POPC   C1A38175   6.641  12.846   8.550
 7282POPC   D2A38176   6.647  12.854   8.250
 7282POPC   C3A38177   6.655  12.889   7.950
 7282POPC   C4A38178   6.600  12.829   7.650
 7282POPC   C1B38179   6.460  13.014   8.550
 7282POPC   C2B38180   6.471  13.050   8.250
 7282POPC   C3B38181   6.476  13.020   7.950
 7282POPC   C4B38182   6.417  13.022   7.650
 7283POPC   NC338183  25.241  15.143   9.450
 7283POPC   PO438184  25.239  15.198   9.150
 7283POPC   GL138185  25.304  15.186   8.850
 7283POPC   GL238186  25.271  15.274   8.850
 7283POPC   C1A38187  25.290  15.193   8.550
 7283POPC   D2A38188  25.263  15.181   8.250
 7283POPC   C3A38189  25.271  15.189   7.950
 7283POPC   C4A38190  25.292  15.201   7.650
 7283POPC   C1B38191  25.161  15.449   8.550
 7283POPC   C2B38192  25.197  15.452   8.250
 7283POPC   C3B38193  25.242  15.459   7.950
 7283POPC   C4B38194  25.169  15.419   7.650
 7284POPC   NC338195   2.020  19.061   9.450
 7284POPC   PO438196   1.957  19.098   9.150
 7284POPC   GL138197   1.996  19.079   8.850
 7284POPC   GL238198   1.854  19.128   8.850
 7284POPC   C1A38199   2.015  19.062   8.550
 7284POPC   D2A38200   1.969  19.061   8.250
 7284POPC   C3A38201   2.001  19.074   7.950
 7284POPC   C4A38202   2.036  19.075   7.650
 7284POPC   C1B38203   1.758  19.196   8.550
 7284POPC   C2B38204   1.756  19.124   8.250
 7284POPC   C3B38205   1.722  19.178   7.950
 7284POPC   C4B38206   1.796  19.153   7.650
 7285POPC   NC338207  29.924  28.333   9.450
 7285POPC   PO438208  29.879  28.325   9.150
 7285POPC   GL138209  29.907  28.357   8.850
 7285POPC   GL238210  29.875  28.539   8.850
 7285POPC   C1A38211  29.922  28.418   8.550
 7285POPC   D2A38212  29.886  28.341   8.250
 7285POPC   C3A38213  29.876  28.363   7.950
 7285POPC   C4A38214  29.918  28.324   7.650
 7285POPC   C1B38215  29.894  28.633   8.550
 7285POPC   C2B38216  29.943  28.662   8.250
 7285POPC   C3B38217  29.908  28.610   7.950
 7285POPC   C4B38218  29.848  28.653   7.650
 7286POPC   NC338219   0.474  12.036   9.450
 7286POPC   PO438220   0.404  12.067   9.150
 7286POPC   GL138221   0.460  12.081   8.850
 7286POPC   GL238222   0.548  12.004   8.850
 7286POPC   C1A38223   0.457  12.118   8.550
 7286POPC   D2A38224   0.412  12.028   8.250
 7286POPC   C3A38225   0.455  12.125   7.950
 7286POPC   C4A38226   0.460  12.040   7.650
 7286POPC   C1B38227   0.597  11.905   8.550
 7286POPC   C2B38228   0.583  11.855   8.250
 7286POPC   C3B38229   0.634  11.918   7.950
 7286POPC   C4B38230   0.627  11.858   7.650
 7287POPC   NC338231  13.602  40.002   9.450
 7287POPC   PO438232  13.644  40.034   9.150
 7287POPC   GL138233  13.612  40.055   8.850
 7287POPC   GL238234  13.707  40.079   8.850
 7287POPC   C1A38235  13.608  39.971   8.550
 7287POPC   D2A38236  13.622  39.990   8.250
 7287POPC   C3A38237  13.606  40.015   7.950
 7287POPC   C4A38238  13.656  40.050   7.650
 7287POPC   C1B38239  13.808  40.208   8.550
 7287POPC   C2B38240  13.827  40.218   8.250
 7287POPC   C3B38241  13.771  40.175   7.950
 7287POPC   C4B38242  13.856  40.179   7.650
 7288POPC   NC338243   1.199  10.536   9.450
 7288POPC   PO438244   1.221  10.568   9.150
 7288POPC   GL138245   1.185  10.522   8.850
 7288POPC   GL238246   1.249  10.588   8.850
 7288POPC   C1A38247   1.223  10.547   8.550
 7288POPC   D2A38248   1.223  10.493   8.250
 7288POPC   C3A38249   1.246  10.573   7.950
 7288POPC   C4A38250   1.231  10.534   7.650
 7288POPC   C1B38251   1.346  10.733   8.550
 7288POPC   C2B38252   1.306  10.712   8.250
 7288POPC   C3B38253   1.310  10.726   7.950
 7288POPC   C4B38254   1.357  10.790   7.650
 7289POPC   NC338255  28.388  10.545   9.450
 7289POPC   PO438256  28.371  10.488   9.150
 7289POPC   GL138257  28.323  10.555   8.850
 7289POPC   GL238258  28.515  10.555   8.850
 7289POPC   C1A38259  28.392  10.511   8.550
 7289POPC   D2A38260  28.399  10.570   8.250
 7289POPC   C3A38261  28.367  10.559   7.950
 7289POPC   C4A38262  28.356  10.476   7.650
 7289POPC   C1B38263  28.612  10.595   8.550
 7289POPC   C2B38264  28.649  10.591   8.250
 7289POPC   C3B38265  28.575  10.586   7.950
 7289POPC   C4B38266  28.622  10.635   7.650
 7290POPC   NC338267  21.339   5.082   9.450
 7290POPC   PO438268  21.358   5.061   9.150
 7290POPC   GL138269  21.416   5.053   8.850
 7290POPC   GL238270  21.450   4.988   8.850
 7290POPC   C1A38271  21.343   5.127   8.550
 7290POPC   D2A38272  21.416   5.081   8.250
 7290POPC   C3A38273  21.343   5.075   7.950
 7290POPC   C4A38274  21.407   5.108   7.650
 7290POPC   C1B38275  21.524   4.836   8.550
 7290POPC   C2B38276  21.484   4.853   8.250
 7290POPC   C3B38277  21.542   4.897   7.950
 7290POPC   C4B38278  21.461   4.822   7.650
 7291POPC   NC338279  15.986  21.417   9.450
 7291POPC   PO438280  15.942  21.356   9.150
 7291POPC   GL138281  15.986  21.422   8.850
 7291POPC   GL238282  15.956  21.223   8.850
 7291POPC   C1A38283  15.975  21.359   8.550
 7291POPC   D2A38284  15.939  21.353   8.250
 7291POPC   C3A38285  15.971  21.420   7.950
 7291POPC   C4A38286  15.988  21.370   7.650
 7291POPC   C1B38287  15.944  21.108   8.550
 7291POPC   C2B38288  15.956  21.115   8.250
 7291POPC   C3B38289  15.870  21.105   7.950
 7291POPC   C4B38290  15.871  21.180   7.650
 7292POPC   NC338291  30.649  37.698   9.450
 7292POPC   PO438292  30.677  37.655   9.150
 7292POPC   GL138293  30.702  37.637   8.850
 7292POPC   GL238294  30.619  37.727   8.850
 7292POPC   C1A38295  30.741  37.706   8.550
 7292POPC   D2A38296  30.714  37.639   8.250
 7292POPC   C3A38297  30.695  37.681   7.950
 7292POPC   C4A38298  30.734  37.684   7.650
 7292POPC   C1B38299  30.431  37.725   8.550
 7292POPC   C2B38300  30.436  37.650   8.250
 7292POPC   C3B38301  30.443  37.706   7.950
 7292POPC   C4B38302  30.482  37.695   7.650
 7293POPC   NC338303   1.252  11.309   9.450
 7293POPC   PO438304   1.200  11.304   9.150
 7293POPC   GL138305   1.221  11.275   8.850
 7293POPC   GL238306   1.292  11.297   8.850
 7293POPC   C1A38307   1.233  11.274   8.550
 7293POPC   D2A38308   1.167  11.312   8.250
 7293POPC   C3A38309   1.192  11.259   7.950
 7293POPC   C4A38310   1.211  11.303   7.650
 7293POPC   C1B38311   1.447  11.172   8.550
 7293POPC   C2B38312   1.444  11.222   8.250
 7293POPC   C3B38313   1.455  11.229   7.950
 7293POPC   C4B38314   1.423  11.243   7.650
 7294POPC   NC338315  36.163  15.226   9.450
 7294POPC   PO438316  36.121  15.171   9.150
 7294POPC   GL138317  36.084  15.194   8.850
 7294POPC   GL238318  36.052  15.254   8.850
 7294POPC   C1A38319  36.098  15.169   8.550
 7294POPC   D2A38320  36.148  15.207   8.250
 7294POPC   C3A38321  36.155  15.194   7.950
 7294POPC   C4A38322  36.161  15.136   7.650
 7294POPC   C1B38323  35.963  15.389   8.550
 7294POPC   C2B38324  35.998  15.363   8.250
 7294POPC   C3B38325  36.014  15.403   7.950
 7294POPC   C4B38326  35.975  15.351   7.650
 7295POPC   NC338327  39.247  15.944   9.450
 7295POPC   PO438328  39.277  15.997   9.150
 7295POPC   GL138329  39.207  15.956   8.850
 7295POPC   GL238330  39.308  15.849   8.850
 7295POPC   C1A38331  39.225  15.917   8.550
 7295POPC   D2A38332  39.237  16.002   8.250
 7295POPC   C3A38333  39.200  15.925   7.950
 7295POPC   C4A38334  39.275  15.931   7.650
 7295POPC   C1B38335  39.396  15.820   8.550
 7295POPC   C2B38336  39.441  15.824   8.250
 7295POPC   C3B38337  39.424  15.868   7.950
 7295POPC   C4B38338  39.428  15.806   7.650
 7296POPC   NC338339   0.459  12.806   9.450
 7296POPC   PO438340   0.477  12.827   9.150
 7296POPC   GL138341   0.445  12.868   8.850
 7296POPC   GL238342   0.495  12.758   8.850
 7296POPC   C1A38343   0.429  12.818   8.550
 7296POPC   D2A38344   0.398  12.892   8.250
 7296POPC   C3A38345   0.461  12.882   7.950
 7296POPC   C4A38346   0.480  12.812   7.650
 7296POPC   C1B38347   0.586  12.605   8.550
 7296POPC   C2B38348   0.581  12.662   8.250
 7296POPC   C3B38349   0.554  12.597   7.950
 7296POPC   C4B38350   0.507  12.658   7.650
 7297POPC   NC338351  34.606  23.736   9.450
 7297POPC   PO438352  34.617  23.759   9.150
 7297POPC   GL138353  34.569  23.710   8.850
 7297POPC   GL238354  34.445  23.711   8.850
 7297POPC   C1A38355  34.614  23.689   8.550
 7297POPC   D2A38356  34.568  23.728   8.250
 7297POPC   C3A38357  34.569  23.696   7.950
 7297POPC   C4A38358  34.572  23.754   7.650
 7297POPC   C1B38359  34.345  23.675   8.550
 7297POPC   C2B38360  34.335  23.672   8.250
 7297POPC   C3B38361  34.350  23.703   7.950
 7297POPC   C4B38362  34.303  23.690   7.650
 7298POPC   NC338363  27.629  37.716   9.450
 7298POPC   PO438364  27.585  37.691   9.150
 7298POPC   GL138365  27.601  37.644   8.850
 7298POPC   GL238366  27.488  37.775   8.850
 7298POPC   C1A38367  27.638  37.716   8.550
 7298POPC   D2A38368  27.574  37.695   8.250
 7298POPC   C3A38369  27.615  37.673   7.950
 7298POPC   C4A38370  27.580  37.634   7.650
 7298POPC   C1B38371  27.337  37.835   8.550
 7298POPC   C2B38372  27.420  37.846   8.250
 7298POPC   C3B38373  27.379  37.812   7.950
 7298POPC   C4B38374  27.340  37.771   7.650
 7299POPC   NC338375  21.426  19.785   9.450
 7299POPC   PO438376  21.386  19.838   9.150
 7299POPC   GL138377  21.374  19.842   8.850
 7299POPC   GL238378  21.435  19.919   8.850
 7299POPC   C1A38379  21.404  19.846   8.550
 7299POPC   D2A38380  21.338  19.809   8.250
 7299POPC   C3A38381  21.356  19.831   7.950
 7299POPC   C4A38382  21.417  19.787   7.650
 7299POPC   C1B38383  21.480  20.050   8.550
 7299POPC   C2B38384  21.487  20.084   8.250
 7299POPC   C3B38385  21.512  20.014   7.950
 7299POPC   C4B38386  21.499  20.078   7.650
 7300POPC   NC338387   4.346  26.768   9.450
 7300POPC   PO438388   4.269  26.816   9.150
 7300POPC   GL138389   4.316  26.829   8.850
 7300POPC   GL238390   4.273  26.742   8.850
 7300POPC   C1A38391   4.320  26.778   8.550
 7300POPC   D2A38392   4.367  26.817   8.250
 7300POPC   C3A38393   4.279  26.862   7.950
 7300POPC   C4A38394   4.300  26.837   7.650
 7300POPC   C1B38395   4.300  26.605   8.550
 7300POPC   C2B38396   4.282  26.525   8.250
 7300POPC   C3B38397   4.273  26.550   7.950
 7300POPC   C4B38398   4.234  26.528   7.650
 7301POPC   NC338399  29.899  44.711   9.450
 7301POPC   PO438400  29.894  44.701   9.150
 7301POPC   GL138401  29.953  44.683   8.850
 7301POPC   GL238402  29.847  44.769   8.850
 7301POPC   C1A38403  29.924  44.646   8.550
 7301POPC   D2A38404  29.892  44.636   8.250
 7301POPC   C3A38405  29.947  44.670   7.950
 7301POPC   C4A38406  29.875  44.625   7.650
 7301POPC   C1B38407  29.710  44.812   8.550
 7301POPC   C2B38408  29.683  44.795   8.250
 7301POPC   C3B38409  29.754  44.739   7.950
 7301POPC   C4B38410  29.658  44.791   7.650
 7302POPC   NC338411  39.977  34.575   9.450
 7302POPC   PO438412  39.962  34.621   9.150
 7302POPC   GL138413  39.970  34.573   8.850
 7302POPC   GL238414  40.115  34.655   8.850
 7302POPC   C1A38415  40.053  34.600   8.550
 7302POPC   D2A38416  39.964  34.595   8.250
 7302POPC   C3A38417  39.989  34.585   7.950
 7302POPC   C4A38418  39.982  34.591   7.650
 7302POPC   C1B38419  40.280  34.677   8.550
 7302POPC   C2B38420  40.190  34.718   8.250
 7302POPC   C3B38421  40.264  34.696   7.950
 7302POPC   C4B38422  40.244  34.634   7.650
 7303POPC   NC338423   3.591  15.974   9.450
 7303POPC   PO438424   3.537  15.913   9.150
 7303POPC   GL138425   3.523  15.934   8.850
 7303POPC   GL238426   3.436  16.044   8.850
 7303POPC   C1A38427   3.536  15.960   8.550
 7303POPC   D2A38428   3.532  15.997   8.250
 7303POPC   C3A38429   3.521  15.937   7.950
 7303POPC   C4A38430   3.515  15.991   7.650
 7303POPC   C1B38431   3.431  16.219   8.550
 7303POPC   C2B38432   3.447  16.148   8.250
 7303POPC   C3B38433   3.443  16.211   7.950
 7303POPC   C4B38434   3.392  16.217   7.650
 7304POPC   NC338435   5.121  17.500   9.450
 7304POPC   PO438436   5.092  17.477   9.150
 7304POPC   GL138437   5.135  17.514   8.850
 7304POPC   GL238438   5.167  17.607   8.850
 7304POPC   C1A38439   5.051  17.461   8.550
 7304POPC   D2A38440   5.138  17.547   8.250
 7304POPC   C3A38441   5.101  17.520   7.950
 7304POPC   C4A38442   5.111  17.484   7.650
 7304POPC   C1B38443   5.181  17.687   8.550
 7304POPC   C2B38444   5.201  17.752   8.250
 7304POPC   C3B38445   5.189  17.739   7.950
 7304POPC   C4B38446   5.227  17.690   7.650
 7305POPC   NC338447  13.618  30.717   9.450
 7305POPC   PO438448  13.623  30.651   9.150
 7305POPC   GL138449  13.643  30.696   8.850
 7305POPC   GL238450  13.538  30.663   8.850
 7305POPC   C1A38451  13.644  30.702   8.550
 7305POPC   D2A38452  13.585  30.703   8.250
 7305POPC   C3A38453  13.604  30.728   7.950
 7305POPC   C4A38454  13.628  30.663   7.650
 7305POPC   C1B38455  13.394  30.613   8.550
 7305POPC   C2B38456  13.391  30.617   8.250
 7305POPC   C3B38457  13.373  30.612   7.950
 7305POPC   C4B38458  13.388  30.614   7.650
 7306POPC   NC338459   0.467  31.461   9.450
 7306POPC   PO438460   0.434  31.430   9.150
 7306POPC   GL138461   0.476  31.465   8.850
 7306POPC   GL238462   0.309  31.415   8.850
 7306POPC   C1A38463   0.469  31.508   8.550
 7306POPC   D2A38464   0.407  31.500   8.250
 7306POPC   C3A38465   0.425  31.467   7.950
 7306POPC   C4A38466   0.427  31.443   7.650
 7306POPC   C1B38467   0.250  31.313   8.550
 7306POPC   C2B38468   0.306  31.291   8.250
 7306POPC   C3B38469   0.280  31.340   7.950
 7306POPC   C4B38470   0.289  31.294   7.650
 7307POPC   NC338471   8.149  13.649   9.450
 7307POPC   PO438472   8.170  13.624   9.150
 7307POPC   GL138473   8.171  13.677   8.850
 7307POPC   GL238474   8.185  13.483   8.850
 7307POPC   C1A38475   8.163  13.603   8.550
 7307POPC   D2A38476   8.245  13.661   8.250
 7307POPC   C3A38477   8.189  13.638   7.950
 7307POPC   C4A38478   8.215  13.638   7.650
 7307POPC   C1B38479   8.270  13.410   8.550
 7307POPC   C2B38480   8.211  13.363   8.250
 7307POPC   C3B38481   8.266  13.386   7.950
 7307POPC   C4B38482   8.224  13.347   7.650
 7308POPC   NC338483  26.025  36.091   9.450
 7308POPC   PO438484  26.071  36.096   9.150
 7308POPC   GL138485  26.050  36.091   8.850
 7308POPC   GL238486  26.051  36.292   8.850
 7308POPC   C1A38487  25.994  36.156   8.550
 7308POPC   D2A38488  26.026  36.154   8.250
 7308POPC   C3A38489  26.085  36.141   7.950
 7308POPC   C4A38490  26.066  36.138   7.650
 7308POPC   C1B38491  26.021  36.338   8.550
 7308POPC   C2B38492  26.000  36.400   8.250
 7308POPC   C3B38493  26.045  36.326   7.950
 7308POPC   C4B38494  25.997  36.379   7.650
 7309POPC   NC338495  31.480  36.881   9.450
 7309POPC   PO438496  31.469  36.889   9.150
 7309POPC   GL138497  31.504  36.862   8.850
 7309POPC   GL238498  31.393  36.945   8.850
 7309POPC   C1A38499  31.466  36.894   8.550
 7309POPC   D2A38500  31.431  36.925   8.250
 7309POPC   C3A38501  31.504  36.942   7.950
 7309POPC   C4A38502  31.485  36.939   7.650
 7309POPC   C1B38503  31.328  37.039   8.550
 7309POPC   C2B38504  31.290  37.084   8.250
 7309POPC   C3B38505  31.300  37.108   7.950
 7309POPC   C4B38506  31.253  37.076   7.650
 7310POPC   NC338507   5.864  28.389   9.450
 7310POPC   PO438508   5.904  28.370   9.150
 7310POPC   GL138509   5.866  28.347   8.850
 7310POPC   GL238510   5.717  28.350   8.850
 7310POPC   C1A38511   5.913  28.417   8.550
 7310POPC   D2A38512   5.858  28.363   8.250
 7310POPC   C3A38513   5.852  28.358   7.950
 7310POPC   C4A38514   5.842  28.325   7.650
 7310POPC   C1B38515   5.600  28.360   8.550
 7310POPC   C2B38516   5.588  28.418   8.250
 7310POPC   C3B38517   5.580  28.416   7.950
 7310POPC   C4B38518   5.599  28.394   7.650
 7311POPC   NC338519   0.444   5.829   9.450
 7311POPC   PO438520   0.424   5.845   9.150
 7311POPC   GL138521   0.466   5.864   8.850
 7311POPC   GL238522   0.357   5.800   8.850
 7311POPC   C1A38523   0.447   5.889   8.550
 7311POPC   D2A38524   0.460   5.887   8.250
 7311POPC   C3A38525   0.439   5.827   7.950
 7311POPC   C4A38526   0.408   5.899   7.650
 7311POPC   C1B38527   0.274   5.669   8.550
 7311POPC   C2B38528   0.224   5.649   8.250
 7311POPC   C3B38529   0.270   5.719   7.950
 7311POPC   C4B38530   0.229   5.631   7.650
 7312POPC   NC338531   2.762   4.341   9.450
 7312POPC   PO438532   2.743   4.304   9.150
 7312POPC   GL138533   2.782   4.284   8.850
 7312POPC   GL238534   2.638   4.312   8.850
 7312POPC   C1A38535   2.734   4.335   8.550
 7312POPC   D2A38536   2.728   4.325   8.250
 7312POPC   C3A38537   2.760   4.288   7.950
 7312POPC   C4A38538   2.766   4.303   7.650
 7312POPC   C1B38539   2.484   4.243   8.550
 7312POPC   C2B38540   2.475   4.217   8.250
 7312POPC   C3B38541   2.550   4.285   7.950
 7312POPC   C4B38542   2.507   4.297   7.650
 7313POPC   NC338543  26.070   8.960   9.450
 7313POPC   PO438544  26.029   8.960   9.150
 7313POPC   GL138545  26.001   9.005   8.850
 7313POPC   GL238546  25.970   8.855   8.850
 7313POPC   C1A38547  26.009   9.005   8.550
 7313POPC   D2A38548  26.072   9.019   8.250
 7313POPC   C3A38549  26.048   8.942   7.950
 7313POPC   C4A38550  26.055   8.974   7.650
 7313POPC   C1B38551  25.976   8.781   8.550
 7313POPC   C2B38552  25.966   8.723   8.250
 7313POPC   C3B38553  25.922   8.775   7.950
 7313POPC   C4B38554  25.925   8.745   7.650
 7314POPC   NC338555  33.806  40.762   9.450
 7314POPC   PO438556  33.820  40.790   9.150
 7314POPC   GL138557  33.756  40.813   8.850
 7314POPC   GL238558  33.657  40.815   8.850
 7314POPC   C1A38559  33.763  40.824   8.550
 7314POPC   D2A38560  33.840  40.756   8.250
 7314POPC   C3A38561  33.828  40.739   7.950
 7314POPC   C4A38562  33.835  40.797   7.650
 7314POPC   C1B38563  33.582  40.789   8.550
 7314POPC   C2B38564  33.534  40.789   8.250
 7314POPC   C3B38565  33.543  40.802   7.950
 7314POPC   C4B38566  33.598  40.740   7.650
 7315POPC   NC338567  12.846  37.642   9.450
 7315POPC   PO438568  12.882  37.702   9.150
 7315POPC   GL138569  12.890  37.635   8.850
 7315POPC   GL238570  12.925  37.603   8.850
 7315POPC   C1A38571  12.872  37.714   8.550
 7315POPC   D2A38572  12.841  37.701   8.250
 7315POPC   C3A38573  12.821  37.726   7.950
 7315POPC   C4A38574  12.881  37.658   7.650
 7315POPC   C1B38575  13.068  37.510   8.550
 7315POPC   C2B38576  13.063  37.501   8.250
 7315POPC   C3B38577  13.023  37.557   7.950
 7315POPC   C4B38578  13.052  37.498   7.650
 7316POPC   NC338579  12.851  16.701   9.450
 7316POPC   PO438580  12.808  16.758   9.150
 7316POPC   GL138581  12.827  16.771   8.850
 7316POPC   GL238582  12.951  16.666   8.850
 7316POPC   C1A38583  12.899  16.707   8.550
 7316POPC   D2A38584  12.839  16.689   8.250
 7316POPC   C3A38585  12.808  16.738   7.950
 7316POPC   C4A38586  12.877  16.758   7.650
 7316POPC   C1B38587  13.036  16.542   8.550
 7316POPC   C2B38588  13.051  16.590   8.250
 7316POPC   C3B38589  13.001  16.588   7.950
 7316POPC   C4B38590  13.086  16.548   7.650
 7317POPC   NC338591   8.160  24.452   9.450
 7317POPC   PO438592   8.192  24.535   9.150
 7317POPC   GL138593   8.241  24.537   8.850
 7317POPC   GL238594   8.195  24.659   8.850
 7317POPC   C1A38595   8.219  24.484   8.550
 7317POPC   D2A38596   8.168  24.517   8.250
 7317POPC   C3A38597   8.206  24.466   7.950
 7317POPC   C4A38598   8.185  24.481   7.650
 7317POPC   C1B38599   8.145  24.745   8.550
 7317POPC   C2B38600   8.127  24.747   8.250
 7317POPC   C3B38601   8.155  24.749   7.950
 7317POPC   C4B38602   8.152  24.711   7.650
 7318POPC   NC338603  36.884  20.601   9.450
 7318POPC   PO438604  36.894  20.592   9.150
 7318POPC   GL138605  36.921  20.570   8.850
 7318POPC   GL238606  36.888  20.730   8.850
 7318POPC   C1A38607  36.857  20.574   8.550
 7318POPC   D2A38608  36.951  20.601   8.250
 7318POPC   C3A38609  36.865  20.615   7.950
 7318POPC   C4A38610  36.870  20.561   7.650
 7318POPC   C1B38611  36.811  20.886   8.550
 7318POPC   C2B38612  36.878  20.805   8.250
 7318POPC   C3B38613  36.858  20.873   7.950
 7318POPC   C4B38614  36.850  20.883   7.650
 7319POPC   NC338615  24.459   1.961   9.450
 7319POPC   PO438616  24.477   1.957   9.150
 7319POPC   GL138617  24.498   1.999   8.850
 7319POPC   GL238618  24.583   2.052   8.850
 7319POPC   C1A38619  24.451   1.978   8.550
 7319POPC   D2A38620  24.460   1.981   8.250
 7319POPC   C3A38621  24.521   1.948   7.950
 7319POPC   C4A38622  24.460   1.963   7.650
 7319POPC   C1B38623  24.712   2.077   8.550
 7319POPC   C2B38624  24.768   2.027   8.250
 7319POPC   C3B38625  24.728   2.008   7.950
 7319POPC   C4B38626  24.774   2.065   7.650
 7320POPC   NC338627  34.582  42.291   9.450
 7320POPC   PO438628  34.615  42.369   9.150
 7320POPC   GL138629  34.582  42.341   8.850
 7320POPC   GL238630  34.524  42.184   8.850
 7320POPC   C1A38631  34.582  42.368   8.550
 7320POPC   D2A38632  34.574  42.367   8.250
 7320POPC   C3A38633  34.600  42.305   7.950
 7320POPC   C4A38634  34.535  42.369   7.650
 7320POPC   C1B38635  34.531  42.095   8.550
 7320POPC   C2B38636  34.496  42.063   8.250
 7320POPC   C3B38637  34.503  42.089   7.950
 7320POPC   C4B38638  34.573  42.038   7.650
 7321POPC   NC338639  36.078  31.521   9.450
 7321POPC   PO438640  36.116  31.460   9.150
 7321POPC   GL138641  36.108  31.431   8.850
 7321POPC   GL238642  36.175  31.393   8.850
 7321POPC   C1A38643  36.167  31.513   8.550
 7321POPC   D2A38644  36.095  31.493   8.250
 7321POPC   C3A38645  36.164  31.514   7.950
 7321POPC   C4A38646  36.105  31.428   7.650
 7321POPC   C1B38647  36.194  31.267   8.550
 7321POPC   C2B38648  36.149  31.241   8.250
 7321POPC   C3B38649  36.208  31.242   7.950
 7321POPC   C4B38650  36.155  31.253   7.650
 7322POPC   NC338651   0.428  36.120   9.450
 7322POPC   PO438652   0.409  36.088   9.150
 7322POPC   GL138653   0.436  36.154   8.850
 7322POPC   GL238654   0.432  36.272   8.850
 7322POPC   C1A38655   0.407  36.094   8.550
 7322POPC   D2A38656   0.411  36.122   8.250
 7322POPC   C3A38657   0.412  36.135   7.950
 7322POPC   C4A38658   0.430  36.171   7.650
 7322POPC   C1B38659   0.534  36.395   8.550
 7322POPC   C2B38660   0.459  36.389   8.250
 7322POPC   C3B38661   0.493  36.327   7.950
 7322POPC   C4B38662   0.536  36.415   7.650
 7323POPC   NC338663  23.760   8.229   9.450
 7323POPC   PO438664  23.726   8.170   9.150
 7323POPC   GL138665  23.683   8.172   8.850
 7323POPC   GL238666  23.678   8.085   8.850
 7323POPC   C1A38667  23.725   8.205   8.550
 7323POPC   D2A38668  23.715   8.239   8.250
 7323POPC   C3A38669  23.759   8.217   7.950
 7323POPC   C4A38670  23.721   8.175   7.650
 7323POPC   C1B38671  23.659   7.951   8.550
 7323POPC   C2B38672  23.668   7.979   8.250
 7323POPC   C3B38673  23.713   7.953   7.950
 7323POPC   C4B38674  23.753   7.942   7.650
 7324POPC   NC338675   8.967  22.144   9.450
 7324POPC   PO438676   9.006  22.156   9.150
 7324POPC   GL138677   8.967  22.154   8.850
 7324POPC   GL238678   8.914  22.119   8.850
 7324POPC   C1A38679   8.926  22.178   8.550
 7324POPC   D2A38680   8.958  22.122   8.250
 7324POPC   C3A38681   8.988  22.198   7.950
 7324POPC   C4A38682   8.970  22.129   7.650
 7324POPC   C1B38683   8.823  21.937   8.550
 7324POPC   C2B38684   8.838  21.974   8.250
 7324POPC   C3B38685   8.766  22.020   7.950
 7324POPC   C4B38686   8.807  21.993   7.650
 7325POPC   NC338687  39.271  35.369   9.450
 7325POPC   PO438688  39.268  35.303   9.150
 7325POPC   GL138689  39.205  35.333   8.850
 7325POPC   GL238690  39.241  35.267   8.850
 7325POPC   C1A38691  39.256  35.352   8.550
 7325POPC   D2A38692  39.255  35.363   8.250
 7325POPC   C3A38693  39.190  35.360   7.950
 7325POPC   C4A38694  39.219  35.313   7.650
 7325POPC   C1B38695  39.380  35.135   8.550
 7325POPC   C2B38696  39.384  35.156   8.250
 7325POPC   C3B38697  39.379  35.112   7.950
 7325POPC   C4B38698  39.307  35.126   7.650
 7326POPC   NC338699  21.408  22.188   9.450
 7326POPC   PO438700  21.409  22.140   9.150
 7326POPC   GL138701  21.346  22.129   8.850
 7326POPC   GL238702  21.362  22.242   8.850
 7326POPC   C1A38703  21.352  22.182   8.550
 7326POPC   D2A38704  21.423  22.153   8.250
 7326POPC   C3A38705  21.372  22.191   7.950
 7326POPC   C4A38706  21.432  22.197   7.650
 7326POPC   C1B38707  21.320  22.360   8.550
 7326POPC   C2B38708  21.322  22.436   8.250
 7326POPC   C3B38709  21.350  22.384   7.950
 7326POPC   C4B38710  21.287  22.438   7.650
 7327POPC   NC338711   1.966  22.195   9.450
 7327POPC   PO438712   2.023  22.181   9.150
 7327POPC   GL138713   2.022  22.137   8.850
 7327POPC   GL238714   1.877  22.149   8.850
 7327POPC   C1A38715   1.947  22.210   8.550
 7327POPC   D2A38716   2.018  22.184   8.250
 7327POPC   C3A38717   2.004  22.125   7.950
 7327POPC   C4A38718   1.976  22.179   7.650
 7327POPC   C1B38719   1.760  22.206   8.550
 7327POPC   C2B38720   1.784  22.211   8.250
 7327POPC   C3B38721   1.719  22.147   7.950
 7327POPC   C4B38722   1.726  22.166   7.650
 7328POPC   NC338723  18.246  22.196   9.450
 7328POPC   PO438724  18.294  22.210   9.150
 7328POPC   GL138725  18.268  22.126   8.850
 7328POPC   GL238726  18.215  22.114   8.850
 7328POPC   C1A38727  18.244  22.199   8.550
 7328POPC   D2A38728  18.269  22.179   8.250
 7328POPC   C3A38729  18.294  22.209   7.950
 7328POPC   C4A38730  18.319  22.189   7.650
 7328POPC   C1B38731  18.065  22.039   8.550
 7328POPC   C2B38732  18.052  22.080   8.250
 7328POPC   C3B38733  18.076  22.012   7.950
 7328POPC   C4B38734  18.081  22.058   7.650
 7329POPC   NC338735  14.388  16.716   9.450
 7329POPC   PO438736  14.429  16.778   9.150
 7329POPC   GL138737  14.439  16.748   8.850
 7329POPC   GL238738  14.263  16.810   8.850
 7329POPC   C1A38739  14.355  16.780   8.550
 7329POPC   D2A38740  14.401  16.731   8.250
 7329POPC   C3A38741  14.379  16.722   7.950
 7329POPC   C4A38742  14.389  16.748   7.650
 7329POPC   C1B38743  14.131  16.760   8.550
 7329POPC   C2B38744  14.165  16.823   8.250
 7329POPC   C3B38745  14.118  16.818   7.950
 7329POPC   C4B38746  14.129  16.803   7.650
 7330POPC   NC338747  33.065  34.534   9.450
 7330POPC   PO438748  32.988  34.566   9.150
 7330POPC   GL138749  33.006  34.621   8.850
 7330POPC   GL238750  32.985  34.663   8.850
 7330POPC   C1A38751  33.072  34.528   8.550
 7330POPC   D2A38752  33.040  34.538   8.250
 7330POPC   C3A38753  33.019  34.571   7.950
 7330POPC   C4A38754  33.010  34.567   7.650
 7330POPC   C1B38755  32.894  34.788   8.550
 7330POPC   C2B38756  32.847  34.738   8.250
 7330POPC   C3B38757  32.878  34.773   7.950
 7330POPC   C4B38758  32.816  34.802   7.650
 7331POPC   NC338759  19.023   3.572   9.450
 7331POPC   PO438760  19.009   3.574   9.150
 7331POPC   GL138761  19.009   3.537   8.850
 7331POPC   GL238762  19.087   3.694   8.850
 7331POPC   C1A38763  19.020   3.525   8.550
 7331POPC   D2A38764  19.027   3.497   8.250
 7331POPC   C3A38765  19.097   3.537   7.950
 7331POPC   C4A38766  19.089   3.576   7.650
 7331POPC   C1B38767  19.103   3.797   8.550
 7331POPC   C2B38768  19.162   3.832   8.250
 7331POPC   C3B38769  19.154   3.826   7.950
 7331POPC   C4B38770  19.165   3.744   7.650
 7332POPC   NC338771   3.563  33.808   9.450
 7332POPC   PO438772   3.519  33.750   9.150
 7332POPC   GL138773   3.528  33.774   8.850
 7332POPC   GL238774   3.537  33.680   8.850
 7332POPC   C1A38775   3.495  33.782   8.550
 7332POPC   D2A38776   3.588  33.821   8.250
 7332POPC   C3A38777   3.520  33.777   7.950
 7332POPC   C4A38778   3.513  33.818   7.650
 7332POPC   C1B38779   3.466  33.590   8.550
 7332POPC   C2B38780   3.386  33.564   8.250
 7332POPC   C3B38781   3.457  33.542   7.950
 7332POPC   C4B38782   3.398  33.606   7.650
 7333POPC   NC338783  39.202  27.573   9.450
 7333POPC   PO438784  39.267  27.614   9.150
 7333POPC   GL138785  39.182  27.623   8.850
 7333POPC   GL238786  39.320  27.648   8.850
 7333POPC   C1A38787  39.245  27.548   8.550
 7333POPC   D2A38788  39.182  27.551   8.250
 7333POPC   C3A38789  39.188  27.549   7.950
 7333POPC   C4A38790  39.278  27.627   7.650
 7333POPC   C1B38791  39.467  27.652   8.550
 7333POPC   C2B38792  39.450  27.690   8.250
 7333POPC   C3B38793  39.472  27.614   7.950
 7333POPC   C4B38794  39.463  27.696   7.650
 7334POPC   NC338795  10.558  27.623   9.450
 7334POPC   PO438796  10.560  27.554   9.150
 7334POPC   GL138797  10.566  27.545   8.850
 7334POPC   GL238798  10.626  27.590   8.850
 7334POPC   C1A38799  10.499  27.625   8.550
 7334POPC   D2A38800  10.549  27.597   8.250
 7334POPC   C3A38801  10.536  27.599   7.950
 7334POPC   C4A38802  10.505  27.611   7.650
 7334POPC   C1B38803  10.742  27.539   8.550
 7334POPC   C2B38804  10.763  27.538   8.250
 7334POPC   C3B38805  10.723  27.521   7.950
 7334POPC   C4B38806  10.800  27.495   7.650
 7335POPC   NC338807  21.346   0.447   9.450
 7335POPC   PO438808  21.406   0.446   9.150
 7335POPC   GL138809  21.389   0.486   8.850
 7335POPC   GL238810  21.484   0.338   8.850
 7335POPC   C1A38811  21.346   0.406   8.550
 7335POPC   D2A38812  21.410   0.438   8.250
 7335POPC   C3A38813  21.344   0.397   7.950
 7335POPC   C4A38814  21.415   0.456   7.650
 7335POPC   C1B38815  21.555   0.249   8.550
 7335POPC   C2B38816  21.556   0.300   8.250
 7335POPC   C3B38817  21.558   0.263   7.950
 7335POPC   C4B38818  21.559   0.276   7.650
 7336POPC   NC338819  33.784  32.221   9.450
 7336POPC   PO438820  33.769  32.216   9.150
 7336POPC   GL138821  33.785  32.230   8.850
 7336POPC   GL238822  33.732  32.146   8.850
 7336POPC   C1A38823  33.821  32.293   8.550
 7336POPC   D2A38824  33.770  32.233   8.250
 7336POPC   C3A38825  33.772  32.267   7.950
 7336POPC   C4A38826  33.822  32.224   7.650
 7336POPC   C1B38827  33.633  32.080   8.550
 7336POPC   C2B38828  33.648  32.124   8.250
 7336POPC   C3B38829  33.615  32.037   7.950
 7336POPC   C4B38830  33.597  32.107   7.650
 7337POPC   NC338831   1.228  44.625   9.450
 7337POPC   PO438832   1.172  44.691   9.150
 7337POPC   GL138833   1.183  44.659   8.850
 7337POPC   GL238834   1.337  44.810   8.850
 7337POPC   C1A38835   1.225  44.624   8.550
 7337POPC   D2A38836   1.166  44.655   8.250
 7337POPC   C3A38837   1.234  44.677   7.950
 7337POPC   C4A38838   1.199  44.621   7.650
 7337POPC   C1B38839   1.364  44.847   8.550
 7337POPC   C2B38840   1.357  44.906   8.250
 7337POPC   C3B38841   1.405  44.898   7.950
 7337POPC   C4B38842   1.375  44.829   7.650
 7338POPC   NC338843  34.582  33.036   9.450
 7338POPC   PO438844  34.548  33.035   9.150
 7338POPC   GL138845  34.615  33.044   8.850
 7338POPC   GL238846  34.686  33.053   8.850
 7338POPC   C1A38847  34.540  33.022   8.550
 7338POPC   D2A38848  34.603  32.985   8.250
 7338POPC   C3A38849  34.529  33.035   7.950
 7338POPC   C4A38850  34.589  33.018   7.650
 7338POPC   C1B38851  34.832  32.978   8.550
 7338POPC   C2B38852  34.818  32.958   8.250
 7338POPC   C3B38853  34.857  32.964   7.950
 7338POPC   C4B38854  34.832  33.006   7.650
 7339POPC   NC338855  16.723   6.683   9.450
 7339POPC   PO438856  16.710   6.673   9.150
 7339POPC   GL138857  16.708   6.623   8.850
 7339POPC   GL238858  16.638   6.709   8.850
 7339POPC   C1A38859  16.745   6.600   8.550
 7339POPC   D2A38860  16.690   6.669   8.250
 7339POPC   C3A38861  16.712   6.624   7.950
 7339POPC   C4A38862  16.754   6.679   7.650
 7339POPC   C1B38863  16.497   6.805   8.550
 7339POPC   C2B38864  16.527   6.746   8.250
 7339POPC   C3B38865  16.557   6.757   7.950
 7339POPC   C4B38866  16.574   6.837   7.650
 7340POPC   NC338867  40.012  18.269   9.450
 7340POPC   PO438868  39.966  18.243   9.150
 7340POPC   GL138869  39.988  18.271   8.850
 7340POPC   GL238870  40.077  18.431   8.850
 7340POPC   C1A38871  40.028  18.285   8.550
 7340POPC   D2A38872  39.966  18.239   8.250
 7340POPC   C3A38873  39.995  18.321   7.950
 7340POPC   C4A38874  39.997  18.298   7.650
 7340POPC   C1B38875  40.107  18.478   8.550
 7340POPC   C2B38876  40.135  18.487   8.250
 7340POPC   C3B38877  40.197  18.459   7.950
 7340POPC   C4B38878  40.203  18.523   7.650
 7341POPC   NC338879  22.936  43.893   9.450
 7341POPC   PO438880  22.898  43.910   9.150
 7341POPC   GL138881  22.967  43.856   8.850
 7341POPC   GL238882  22.922  43.744   8.850
 7341POPC   C1A38883  22.936  43.910   8.550
 7341POPC   D2A38884  22.983  43.893   8.250
 7341POPC   C3A38885  22.925  43.903   7.950
 7341POPC   C4A38886  22.930  43.917   7.650
 7341POPC   C1B38887  22.882  43.667   8.550
 7341POPC   C2B38888  22.901  43.668   8.250
 7341POPC   C3B38889  22.942  43.680   7.950
 7341POPC   C4B38890  22.879  43.677   7.650
 7342POPC   NC338891   9.735  26.063   9.450
 7342POPC   PO438892   9.703  26.041   9.150
 7342POPC   GL138893   9.712  26.023   8.850
 7342POPC   GL238894   9.740  26.206   8.850
 7342POPC   C1A38895   9.716  25.992   8.550
 7342POPC   D2A38896   9.740  26.007   8.250
 7342POPC   C3A38897   9.731  26.041   7.950
 7342POPC   C4A38898   9.749  26.073   7.650
 7342POPC   C1B38899   9.746  26.273   8.550
 7342POPC   C2B38900   9.729  26.327   8.250
 7342POPC   C3B38901   9.703  26.281   7.950
 7342POPC   C4B38902   9.727  26.295   7.650
 7343POPC   NC338903  35.339  18.265   9.450
 7343POPC   PO438904  35.347  18.252   9.150
 7343POPC   GL138905  35.350  18.258   8.850
 7343POPC   GL238906  35.276  18.173   8.850
 7343POPC   C1A38907  35.359  18.273   8.550
 7343POPC   D2A38908  35.313  18.297   8.250
 7343POPC   C3A38909  35.382  18.308   7.950
 7343POPC   C4A38910  35.361  18.260   7.650
 7343POPC   C1B38911  35.275  18.072   8.550
 7343POPC   C2B38912  35.273  18.058   8.250
 7343POPC   C3B38913  35.228  18.069   7.950
 7343POPC   C4B38914  35.276  18.068   7.650
 7344POPC   NC338915   0.460  33.777   9.450
 7344POPC   PO438916   0.484  33.818   9.150
 7344POPC   GL138917   0.467  33.813   8.850
 7344POPC   GL238918   0.434  33.870   8.850
 7344POPC   C1A38919   0.474  33.798   8.550
 7344POPC   D2A38920   0.398  33.810   8.250
 7344POPC   C3A38921   0.465  33.756   7.950
 7344POPC   C4A38922   0.410  33.834   7.650
 7344POPC   C1B38923   0.370  34.019   8.550
 7344POPC   C2B38924   0.378  34.049   8.250
 7344POPC   C3B38925   0.318  34.077   7.950
 7344POPC   C4B38926   0.361  34.005   7.650
 7345POPC   NC338927  22.200  43.848   9.450
 7345POPC   PO438928  22.189  43.854   9.150
 7345POPC   GL138929  22.152  43.847   8.850
 7345POPC   GL238930  22.229  43.781   8.850
 7345POPC   C1A38931  22.192  43.875   8.550
 7345POPC   D2A38932  22.138  43.868   8.250
 7345POPC   C3A38933  22.211  43.898   7.950
 7345POPC   C4A38934  22.209  43.910   7.650
 7345POPC   C1B38935  22.244  43.631   8.550
 7345POPC   C2B38936  22.251  43.626   8.250
 7345POPC   C3B38937  22.195  43.639   7.950
 7345POPC   C4B38938  22.249  43.629   7.650
 7346POPC   NC338939   8.177   2.031   9.450
 7346POPC   PO438940   8.242   2.033   9.150
 7346POPC   GL138941   8.225   1.945   8.850
 7346POPC   GL238942   8.292   1.977   8.850
 7346POPC   C1A38943   8.195   1.968   8.550
 7346POPC   D2A38944   8.232   2.010   8.250
 7346POPC   C3A38945   8.206   1.952   7.950
 7346POPC   C4A38946   8.242   1.996   7.650
 7346POPC   C1B38947   8.448   2.063   8.550
 7346POPC   C2B38948   8.435   2.063   8.250
 7346POPC   C3B38949   8.392   2.051   7.950
 7346POPC   C4B38950   8.409   2.058   7.650
 7347POPC   NC338951   6.632  27.577   9.450
 7347POPC   PO438952   6.655  27.591   9.150
 7347POPC   GL138953   6.662  27.560   8.850
 7347POPC   GL238954   6.655  27.438   8.850
 7347POPC   C1A38955   6.626  27.638   8.550
 7347POPC   D2A38956   6.620  27.570   8.250
 7347POPC   C3A38957   6.632  27.587   7.950
 7347POPC   C4A38958   6.630  27.573   7.650
 7347POPC   C1B38959   6.627  27.383   8.550
 7347POPC   C2B38960   6.557  27.384   8.250
 7347POPC   C3B38961   6.564  27.336   7.950
 7347POPC   C4B38962   6.631  27.384   7.650
 7348POPC   NC338963  27.544   9.775   9.450
 7348POPC   PO438964  27.560   9.735   9.150
 7348POPC   GL138965  27.547   9.701   8.850
 7348POPC   GL238966  27.486   9.767   8.850
 7348POPC   C1A38967  27.548   9.729   8.550
 7348POPC   D2A38968  27.575   9.770   8.250
 7348POPC   C3A38969  27.630   9.764   7.950
 7348POPC   C4A38970  27.570   9.772   7.650
 7348POPC   C1B38971  27.360   9.853   8.550
 7348POPC   C2B38972  27.329   9.908   8.250
 7348POPC   C3B38973  27.394   9.883   7.950
 7348POPC   C4B38974  27.422   9.923   7.650
 7349POPC   NC338975   0.400   4.358   9.450
 7349POPC   PO438976   0.469   4.269   9.150
 7349POPC   GL138977   0.416   4.317   8.850
 7349POPC   GL238978   0.410   4.174   8.850
 7349POPC   C1A38979   0.400   4.332   8.550
 7349POPC   D2A38980   0.475   4.287   8.250
 7349POPC   C3A38981   0.397   4.348   7.950
 7349POPC   C4A38982   0.473   4.311   7.650
 7349POPC   C1B38983   0.327   4.137   8.550
 7349POPC   C2B38984   0.307   4.076   8.250
 7349POPC   C3B38985   0.327   4.060   7.950
 7349POPC   C4B38986   0.276   4.073   7.650
 7350POPC   NC338987  41.518  33.761   9.450
 7350POPC   PO438988  41.601  33.777   9.150
 7350POPC   GL138989  41.532  33.785   8.850
 7350POPC   GL238990  41.638  33.764   8.850
 7350POPC   C1A38991  41.522  33.814   8.550
 7350POPC   D2A38992  41.540  33.828   8.250
 7350POPC   C3A38993  41.570  33.767   7.950
 7350POPC   C4A38994  41.576  33.761   7.650
 7350POPC   C1B38995  41.806  33.687   8.550
 7350POPC   C2B38996  41.801  33.618   8.250
 7350POPC   C3B38997  41.766  33.682   7.950
 7350POPC   C4B38998  41.722  33.670   7.650
 7351POPC   NC338999   7.372  44.639   9.450
 7351POPC   PO439000   7.415  44.675   9.150
 7351POPC   GL139001   7.432  44.658   8.850
 7351POPC   GL239002   7.542  44.735   8.850
 7351POPC   C1A39003   7.469  44.615   8.550
 7351POPC   D2A39004   7.437  44.689   8.250
 7351POPC   C3A39005   7.444  44.692   7.950
 7351POPC   C4A39006   7.384  44.661   7.650
 7351POPC   C1B39007   7.594  44.843   8.550
 7351POPC   C2B39008   7.520  44.838   8.250
 7351POPC   C3B39009   7.542  44.824   7.950
 7351POPC   C4B39010   7.554  44.902   7.650
 7352POPC   NC339011  34.579  24.441   9.450
 7352POPC   PO439012  34.622  24.502   9.150
 7352POPC   GL139013  34.615  24.534   8.850
 7352POPC   GL239014  34.490  24.609   8.850
 7352POPC   C1A39015  34.621  24.461   8.550
 7352POPC   D2A39016  34.567  24.527   8.250
 7352POPC   C3A39017  34.613  24.527   7.950
 7352POPC   C4A39018  34.576  24.449   7.650
 7352POPC   C1B39019  34.505  24.709   8.550
 7352POPC   C2B39020  34.438  24.669   8.250
 7352POPC   C3B39021  34.426  24.668   7.950
 7352POPC   C4B39022  34.460  24.732   7.650
 7353POPC   NC339023  22.987  23.756   9.450
 7353POPC   PO439024  22.923  23.670   9.150
 7353POPC   GL139025  22.933  23.684   8.850
 7353POPC   GL239026  22.900  23.618   8.850
 7353POPC   C1A39027  22.943  23.724   8.550
 7353POPC   D2A39028  22.974  23.679   8.250
 7353POPC   C3A39029  22.963  23.760   7.950
 7353POPC   C4A39030  22.907  23.753   7.650
 7353POPC   C1B39031  22.848  23.543   8.550
 7353POPC   C2B39032  22.857  23.452   8.250
 7353POPC   C3B39033  22.793  23.544   7.950
 7353POPC   C4B39034  22.792  23.532   7.650
 7354POPC   NC339035  21.370  43.157   5.550
 7354POPC   PO439036  21.337  43.085   5.850
 7354POPC   GL139037  21.395  43.142   6.150
 7354POPC   GL239038  21.391  43.003   6.150
 7354POPC   C1A39039  21.372  43.119   6.450
 7354POPC   D2A39040  21.394  43.149   6.750
 7354POPC   C3A39041  21.392  43.094   7.050
 7354POPC   C4A39042  21.428  43.077   7.350
 7354POPC   C1B39043  21.489  42.926   6.450
 7354POPC   C2B39044  21.501  42.852   6.750
 7354POPC   C3B39045  21.441  42.889   7.050
 7354POPC   C4B39046  21.490  42.899   7.350
 7355POPC   NC339047  43.883  23.682   5.550
 7355POPC   PO439048  43.926  23.705   5.850
 7355POPC   GL139049  43.862  23.731   6.150
 7355POPC   GL239050  43.924  23.618   6.150
 7355POPC   C1A39051  43.886  23.705   6.450
 7355POPC   D2A39052  43.900  23.678   6.750
 7355POPC   C3A39053  43.839  23.722   7.050
 7355POPC   C4A39054  43.898  23.743   7.350
 7355POPC   C1B39055  43.993  23.485   6.450
 7355POPC   C2B39056  44.053  23.498   6.750
 7355POPC   C3B39057  44.030  23.482   7.050
 7355POPC   C4B39058  44.040  23.530   7.350
 7356POPC   NC339059   5.115   8.178   5.550
 7356POPC   PO439060   5.137   8.183   5.850
 7356POPC   GL139061   5.057   8.170   6.150
 7356POPC   GL239062   5.118   8.303   6.150
 7356POPC   C1A39063   5.047   8.228   6.450
 7356POPC   D2A39064   5.055   8.169   6.750
 7356POPC   C3A39065   5.094   8.206   7.050
 7356POPC   C4A39066   5.094   8.198   7.350
 7356POPC   C1B39067   5.162   8.447   6.450
 7356POPC   C2B39068   5.174   8.396   6.750
 7356POPC   C3B39069   5.172   8.405   7.050
 7356POPC   C4B39070   5.123   8.468   7.350
 7357POPC   NC339071   1.954  14.405   5.550
 7357POPC   PO439072   1.963  14.358   5.850
 7357POPC   GL139073   1.953  14.372   6.150
 7357POPC   GL239074   1.945  14.568   6.150
 7357POPC   C1A39075   1.974  14.373   6.450
 7357POPC   D2A39076   2.039  14.422   6.750
 7357POPC   C3A39077   1.975  14.419   7.050
 7357POPC   C4A39078   1.986  14.424   7.350
 7357POPC   C1B39079   1.905  14.685   6.450
 7357POPC   C2B39080   1.875  14.618   6.750
 7357POPC   C3B39081   1.946  14.603   7.050
 7357POPC   C4B39082   1.919  14.603   7.350
 7358POPC   NC339083  36.146  11.254   5.550
 7358POPC   PO439084  36.153  11.261   5.850
 7358POPC   GL139085  36.115  11.316   6.150
 7358POPC   GL239086  36.116  11.445   6.150
 7358POPC   C1A39087  36.094  11.281   6.450
 7358POPC   D2A39088  36.089  11.302   6.750
 7358POPC   C3A39089  36.110  11.337   7.050
 7358POPC   C4A39090  36.154  11.256   7.350
 7358POPC   C1B39091  36.104  11.525   6.450
 7358POPC   C2B39092  36.168  11.501   6.750
 7358POPC   C3B39093  36.124  11.573   7.050
 7358POPC   C4B39094  36.155  11.566   7.350
 7359POPC   NC339095  43.899  26.810   5.550
 7359POPC   PO439096  43.926  26.826   5.850
 7359POPC   GL139097  43.881  26.832   6.150
 7359POPC   GL239098  43.957  26.776   6.150
 7359POPC   C1A39099  43.852  26.827   6.450
 7359POPC   D2A39100  43.886  26.809   6.750
 7359POPC   C3A39101  43.843  26.833   7.050
 7359POPC   C4A39102  43.933  26.803   7.350
 7359POPC   C1B39103  44.089  26.705   6.450
 7359POPC   C2B39104  44.128  26.670   6.750
 7359POPC   C3B39105  44.106  26.700   7.050
 7359POPC   C4B39106  44.111  26.640   7.350
 7360POPC   NC339107  33.790  22.928   5.550
 7360POPC   PO439108  33.773  22.915   5.850
 7360POPC   GL139109  33.769  22.969   6.150
 7360POPC   GL239110  33.673  22.914   6.150
 7360POPC   C1A39111  33.793  22.920   6.450
 7360POPC   D2A39112  33.777  22.923   6.750
 7360POPC   C3A39113  33.831  22.908   7.050
 7360POPC   C4A39114  33.807  22.947   7.350
 7360POPC   C1B39115  33.561  23.026   6.450
 7360POPC   C2B39116  33.540  23.022   6.750
 7360POPC   C3B39117  33.566  23.002   7.050
 7360POPC   C4B39118  33.506  23.002   7.350
 7361POPC   NC339119  18.246   8.195   5.550
 7361POPC   PO439120  18.268   8.206   5.850
 7361POPC   GL139121  18.290   8.178   6.150
 7361POPC   GL239122  18.265   8.292   6.150
 7361POPC   C1A39123  18.314   8.191   6.450
 7361POPC   D2A39124  18.325   8.189   6.750
 7361POPC   C3A39125  18.258   8.167   7.050
 7361POPC   C4A39126  18.280   8.228   7.350
 7361POPC   C1B39127  18.144   8.401   6.450
 7361POPC   C2B39128  18.156   8.461   6.750
 7361POPC   C3B39129  18.173   8.387   7.050
 7361POPC   C4B39130  18.195   8.418   7.350
 7362POPC   NC339131  26.010  42.380   5.550
 7362POPC   PO439132  26.087  42.334   5.850
 7362POPC   GL139133  26.025  42.294   6.150
 7362POPC   GL239134  26.111  42.365   6.150
 7362POPC   C1A39135  26.066  42.330   6.450
 7362POPC   D2A39136  26.074  42.317   6.750
 7362POPC   C3A39137  26.025  42.368   7.050
 7362POPC   C4A39138  26.061  42.337   7.350
 7362POPC   C1B39139  26.203  42.518   6.450
 7362POPC   C2B39140  26.217  42.514   6.750
 7362POPC   C3B39141  26.185  42.516   7.050
 7362POPC   C4B39142  26.249  42.462   7.350
 7363POPC   NC339143  43.153   1.166   5.550
 7363POPC   PO439144  43.123   1.260   5.850
 7363POPC   GL139145  43.120   1.210   6.150
 7363POPC   GL239146  43.085   1.368   6.150
 7363POPC   C1A39147  43.104   1.203   6.450
 7363POPC   D2A39148  43.084   1.173   6.750
 7363POPC   C3A39149  43.102   1.166   7.050
 7363POPC   C4A39150  43.123   1.207   7.350
 7363POPC   C1B39151  42.959   1.447   6.450
 7363POPC   C2B39152  42.974   1.459   6.750
 7363POPC   C3B39153  43.001   1.439   7.050
 7363POPC   C4B39154  42.973   1.468   7.350
 7364POPC   NC339155  15.169  22.939   5.550
 7364POPC   PO439156  15.181  22.953   5.850
 7364POPC   GL139157  15.203  22.932   6.150
 7364POPC   GL239158  15.220  22.851   6.150
 7364POPC   C1A39159  15.211  22.980   6.450
 7364POPC   D2A39160  15.184  22.909   6.750
 7364POPC   C3A39161  15.218  22.929   7.050
 7364POPC   C4A39162  15.211  22.962   7.350
 7364POPC   C1B39163  15.291  22.746   6.450
 7364POPC   C2B39164  15.225  22.678   6.750
 7364POPC   C3B39165  15.252  22.675   7.050
 7364POPC   C4B39166  15.252  22.744   7.350
 7365POPC   NC339167  27.604  43.138   5.550
 7365POPC   PO439168  27.580  43.061   5.850
 7365POPC   GL139169  27.594  43.108   6.150
 7365POPC   GL239170  27.475  43.238   6.150
 7365POPC   C1A39171  27.551  43.142   6.450
 7365POPC   D2A39172  27.598  43.160   6.750
 7365POPC   C3A39173  27.602  43.140   7.050
 7365POPC   C4A39174  27.594  43.072   7.350
 7365POPC   C1B39175  27.455  43.295   6.450
 7365POPC   C2B39176  27.409  43.279   6.750
 7365POPC   C3B39177  27.457  43.240   7.050
 7365POPC   C4B39178  27.412  43.322   7.350
 7366POPC   NC339179  29.150  25.238   5.550
 7366POPC   PO439180  29.175  25.253   5.850
 7366POPC   GL139181  29.181  25.298   6.150
 7366POPC   GL239182  29.044  25.247   6.150
 7366POPC   C1A39183  29.168  25.228   6.450
 7366POPC   D2A39184  29.194  25.288   6.750
 7366POPC   C3A39185  29.174  25.236   7.050
 7366POPC   C4A39186  29.119  25.232   7.350
 7366POPC   C1B39187  28.916  25.308   6.450
 7366POPC   C2B39188  28.941  25.314   6.750
 7366POPC   C3B39189  28.930  25.304   7.050
 7366POPC   C4B39190  28.867  25.326   7.350
 7367POPC   NC339191  27.632  29.888   5.550
 7367POPC   PO439192  27.567  29.949   5.850
 7367POPC   GL139193  27.621  29.897   6.150
 7367POPC   GL239194  27.467  29.929   6.150
 7367POPC   C1A39195  27.578  29.873   6.450
 7367POPC   D2A39196  27.581  29.960   6.750
 7367POPC   C3A39197  27.597  29.956   7.050
 7367POPC   C4A39198  27.592  29.928   7.350
 7367POPC   C1B39199  27.358  29.893   6.450
 7367POPC   C2B39200  27.379  29.937   6.750
 7367POPC   C3B39201  27.369  29.895   7.050
 7367POPC   C4B39202  27.319  29.949   7.350
 7368POPC   NC339203   4.268   5.055   5.550
 7368POPC   PO439204   4.300   5.087   5.850
 7368POPC   GL139205   4.362   5.074   6.150
 7368POPC   GL239206   4.458   5.080   6.150
 7368POPC   C1A39207   4.346   5.092   6.450
 7368POPC   D2A39208   4.327   5.118   6.750
 7368POPC   C3A39209   4.267   5.047   7.050
 7368POPC   C4A39210   4.274   5.050   7.350
 7368POPC   C1B39211   4.580   5.066   6.450
 7368POPC   C2B39212   4.593   5.137   6.750
 7368POPC   C3B39213   4.569   5.083   7.050
 7368POPC   C4B39214   4.570   5.148   7.350
 7369POPC   NC339215   2.031  29.918   5.550
 7369POPC   PO439216   2.036  29.876   5.850
 7369POPC   GL139217   1.953  29.947   6.150
 7369POPC   GL239218   2.058  29.827   6.150
 7369POPC   C1A39219   1.970  29.872   6.450
 7369POPC   D2A39220   1.945  29.909   6.750
 7369POPC   C3A39221   1.997  29.891   7.050
 7369POPC   C4A39222   2.034  29.897   7.350
 7369POPC   C1B39223   2.128  29.680   6.450
 7369POPC   C2B39224   2.148  29.762   6.750
 7369POPC   C3B39225   2.163  29.682   7.050
 7369POPC   C4B39226   2.108  29.770   7.350
 7370POPC   NC339227   0.401   7.460   5.550
 7370POPC   PO439228   0.461   7.373   5.850
 7370POPC   GL139229   0.482   7.452   6.150
 7370POPC   GL239230   0.427   7.291   6.150
 7370POPC   C1A39231   0.440   7.387   6.450
 7370POPC   D2A39232   0.481   7.430   6.750
 7370POPC   C3A39233   0.463   7.382   7.050
 7370POPC   C4A39234   0.401   7.452   7.350
 7370POPC   C1B39235   0.439   7.194   6.450
 7370POPC   C2B39236   0.419   7.187   6.750
 7370POPC   C3B39237   0.432   7.136   7.050
 7370POPC   C4B39238   0.459   7.212   7.350
 7371POPC   NC339239   1.962  13.604   5.550
 7371POPC   PO439240   2.039  13.624   5.850
 7371POPC   GL139241   1.981  13.661   6.150
 7371POPC   GL239242   1.881  13.618   6.150
 7371POPC   C1A39243   1.989  13.654   6.450
 7371POPC   D2A39244   2.001  13.646   6.750
 7371POPC   C3A39245   1.968  13.638   7.050
 7371POPC   C4A39246   1.997  13.603   7.350
 7371POPC   C1B39247   1.792  13.665   6.450
 7371POPC   C2B39248   1.719  13.707   6.750
 7371POPC   C3B39249   1.757  13.674   7.050
 7371POPC   C4B39250   1.719  13.656   7.350
 7372POPC   NC339251   8.969   1.252   5.550
 7372POPC   PO439252   8.936   1.188   5.850
 7372POPC   GL139253   8.953   1.165   6.150
 7372POPC   GL239254   9.038   1.281   6.150
 7372POPC   C1A39255   9.002   1.168   6.450
 7372POPC   D2A39256   8.986   1.237   6.750
 7372POPC   C3A39257   8.974   1.236   7.050
 7372POPC   C4A39258   8.974   1.219   7.350
 7372POPC   C1B39259   9.161   1.360   6.450
 7372POPC   C2B39260   9.188   1.351   6.750
 7372POPC   C3B39261   9.136   1.422   7.050
 7372POPC   C4B39262   9.179   1.396   7.350
 7373POPC   NC339263   5.863   9.761   5.550
 7373POPC   PO439264   5.842   9.756   5.850
 7373POPC   GL139265   5.905   9.747   6.150
 7373POPC   GL239266   5.791   9.687   6.150
 7373POPC   C1A39267   5.853   9.769   6.450
 7373POPC   D2A39268   5.822   9.728   6.750
 7373POPC   C3A39269   5.847   9.736   7.050
 7373POPC   C4A39270   5.840   9.749   7.350
 7373POPC   C1B39271   5.638   9.672   6.450
 7373POPC   C2B39272   5.654   9.614   6.750
 7373POPC   C3B39273   5.666   9.674   7.050
 7373POPC   C4B39274   5.689   9.579   7.350
 7374POPC   NC339275  22.168   2.732   5.550
 7374POPC   PO439276  22.180   2.780   5.850
 7374POPC   GL139277  22.159   2.777   6.150
 7374POPC   GL239278  22.188   2.894   6.150
 7374POPC   C1A39279  22.147   2.747   6.450
 7374POPC   D2A39280  22.200   2.724   6.750
 7374POPC   C3A39281  22.168   2.797   7.050
 7374POPC   C4A39282  22.128   2.748   7.350
 7374POPC   C1B39283  22.303   2.950   6.450
 7374POPC   C2B39284  22.273   3.005   6.750
 7374POPC   C3B39285  22.346   2.981   7.050
 7374POPC   C4B39286  22.301   2.936   7.350
 7375POPC   NC339287  36.907  13.643   5.550
 7375POPC   PO439288  36.917  13.629   5.850
 7375POPC   GL139289  36.898  13.632   6.150
 7375POPC   GL239290  36.771  13.600   6.150
 7375POPC   C1A39291  36.868  13.638   6.450
 7375POPC   D2A39292  36.930  13.603   6.750
 7375POPC   C3A39293  36.866  13.595   7.050
 7375POPC   C4A39294  36.949  13.595   7.350
 7375POPC   C1B39295  36.641  13.512   6.450
 7375POPC   C2B39296  36.667  13.449   6.750
 7375POPC   C3B39297  36.723  13.459   7.050
 7375POPC   C4B39298  36.738  13.532   7.350
 7376POPC   NC339299  36.910  30.678   5.550
 7376POPC   PO439300  36.855  30.685   5.850
 7376POPC   GL139301  36.880  30.707   6.150
 7376POPC   GL239302  36.979  30.764   6.150
 7376POPC   C1A39303  36.923  30.648   6.450
 7376POPC   D2A39304  36.943  30.661   6.750
 7376POPC   C3A39305  36.876  30.703   7.050
 7376POPC   C4A39306  36.903  30.678   7.350
 7376POPC   C1B39307  37.129  30.860   6.450
 7376POPC   C2B39308  37.111  30.886   6.750
 7376POPC   C3B39309  37.107  30.867   7.050
 7376POPC   C4B39310  37.150  30.893   7.350
 7377POPC   NC339311   2.792  29.145   5.550
 7377POPC   PO439312   2.726  29.139   5.850
 7377POPC   GL139313   2.716  29.107   6.150
 7377POPC   GL239314   2.788  29.049   6.150
 7377POPC   C1A39315   2.786  29.134   6.450
 7377POPC   D2A39316   2.743  29.156   6.750
 7377POPC   C3A39317   2.738  29.107   7.050
 7377POPC   C4A39318   2.749  29.173   7.350
 7377POPC   C1B39319   2.757  28.875   6.450
 7377POPC   C2B39320   2.774  28.891   6.750
 7377POPC   C3B39321   2.770  28.847   7.050
 7377POPC   C4B39322   2.718  28.853   7.350
 7378POPC   NC339323  16.733  18.268   5.550
 7378POPC   PO439324  16.757  18.298   5.850
 7378POPC   GL139325  16.721  18.306   6.150
 7378POPC   GL239326  16.822  18.232   6.150
 7378POPC   C1A39327  16.696  18.271   6.450
 7378POPC   D2A39328  16.734  18.290   6.750
 7378POPC   C3A39329  16.756  18.310   7.050
 7378POPC   C4A39330  16.730  18.311   7.350
 7378POPC   C1B39331  16.992  18.194   6.450
 7378POPC   C2B39332  16.965  18.208   6.750
 7378POPC   C3B39333  17.012  18.218   7.050
 7378POPC   C4B39334  16.950  18.176   7.350
 7379POPC   NC339335  29.917  19.106   5.550
 7379POPC   PO439336  29.931  19.096   5.850
 7379POPC   GL139337  29.906  19.040   6.150
 7379POPC   GL239338  29.914  18.958   6.150
 7379POPC   C1A39339  29.929  19.015   6.450
 7379POPC   D2A39340  29.896  19.053   6.750
 7379POPC   C3A39341  29.970  19.040   7.050
 7379POPC   C4A39342  29.920  19.033   7.350
 7379POPC   C1B39343  29.917  18.826   6.450
 7379POPC   C2B39344  29.972  18.778   6.750
 7379POPC   C3B39345  29.981  18.844   7.050
 7379POPC   C4B39346  29.920  18.765   7.350
 7380POPC   NC339347  19.062  38.492   5.550
 7380POPC   PO439348  19.049  38.477   5.850
 7380POPC   GL139349  19.105  38.499   6.150
 7380POPC   GL239350  18.993  38.370   6.150
 7380POPC   C1A39351  19.052  38.434   6.450
 7380POPC   D2A39352  19.028  38.407   6.750
 7380POPC   C3A39353  19.031  38.421   7.050
 7380POPC   C4A39354  19.059  38.505   7.350
 7380POPC   C1B39355  18.844  38.334   6.450
 7380POPC   C2B39356  18.809  38.288   6.750
 7380POPC   C3B39357  18.835  38.360   7.050
 7380POPC   C4B39358  18.846  38.338   7.350
 7381POPC   NC339359  19.062  26.782   5.550
 7381POPC   PO439360  19.064  26.843   5.850
 7381POPC   GL139361  19.019  26.843   6.150
 7381POPC   GL239362  18.975  26.690   6.150
 7381POPC   C1A39363  19.012  26.804   6.450
 7381POPC   D2A39364  19.012  26.864   6.750
 7381POPC   C3A39365  19.048  26.841   7.050
 7381POPC   C4A39366  19.034  26.806   7.350
 7381POPC   C1B39367  18.957  26.621   6.450
 7381POPC   C2B39368  18.912  26.623   6.750
 7381POPC   C3B39369  18.932  26.566   7.050
 7381POPC   C4B39370  18.888  26.652   7.350
 7382POPC   NC339371   0.440  14.444   5.550
 7382POPC   PO439372   0.439  14.402   5.850
 7382POPC   GL139373   0.403  14.410   6.150
 7382POPC   GL239374   0.489  14.304   6.150
 7382POPC   C1A39375   0.442  14.443   6.450
 7382POPC   D2A39376   0.416  14.444   6.750
 7382POPC   C3A39377   0.469  14.407   7.050
 7382POPC   C4A39378   0.443  14.439   7.350
 7382POPC   C1B39379   0.655  14.205   6.450
 7382POPC   C2B39380   0.630  14.256   6.750
 7382POPC   C3B39381   0.579  14.258   7.050
 7382POPC   C4B39382   0.625  14.189   7.350
 7383POPC   NC339383  43.919  29.147   5.550
 7383POPC   PO439384  43.914  29.138   5.850
 7383POPC   GL139385  43.908  29.103   6.150
 7383POPC   GL239386  44.017  29.189   6.150
 7383POPC   C1A39387  43.908  29.128   6.450
 7383POPC   D2A39388  43.873  29.133   6.750
 7383POPC   C3A39389  43.867  29.132   7.050
 7383POPC   C4A39390  43.876  29.129   7.350
 7383POPC   C1B39391  44.049  29.345   6.450
 7383POPC   C2B39392  44.010  29.362   6.750
 7383POPC   C3B39393  44.098  29.333   7.050
 7383POPC   C4B39394  44.061  29.352   7.350
 7384POPC   NC339395  43.094  43.936   5.550
 7384POPC   PO439396  43.093  43.933   5.850
 7384POPC   GL139397  43.118  43.896   6.150
 7384POPC   GL239398  42.964  43.850   6.150
 7384POPC   C1A39399  43.120  43.907   6.450
 7384POPC   D2A39400  43.084  43.880   6.750
 7384POPC   C3A39401  43.127  43.926   7.050
 7384POPC   C4A39402  43.073  43.915   7.350
 7384POPC   C1B39403  42.947  43.705   6.450
 7384POPC   C2B39404  42.907  43.698   6.750
 7384POPC   C3B39405  42.897  43.758   7.050
 7384POPC   C4B39406  42.957  43.696   7.350
 7385POPC   NC339407  32.273  20.578   5.550
 7385POPC   PO439408  32.207  20.588   5.850
 7385POPC   GL139409  32.221  20.622   6.150
 7385POPC   GL239410  32.169  20.523   6.150
 7385POPC   C1A39411  32.279  20.626   6.450
 7385POPC   D2A39412  32.253  20.585   6.750
 7385POPC   C3A39413  32.203  20.591   7.050
 7385POPC   C4A39414  32.245  20.642   7.350
 7385POPC   C1B39415  32.127  20.402   6.450
 7385POPC   C2B39416  32.093  20.409   6.750
 7385POPC   C3B39417  32.155  20.426   7.050
 7385POPC   C4B39418  32.092  20.444   7.350
 7386POPC   NC339419  19.081  19.053   5.550
 7386POPC   PO439420  19.020  19.095   5.850
 7386POPC   GL139421  19.048  19.030   6.150
 7386POPC   GL239422  18.943  19.031   6.150
 7386POPC   C1A39423  19.082  19.105   6.450
 7386POPC   D2A39424  19.033  19.058   6.750
 7386POPC   C3A39425  19.035  19.067   7.050
 7386POPC   C4A39426  19.016  19.102   7.350
 7386POPC   C1B39427  18.782  18.989   6.450
 7386POPC   C2B39428  18.879  18.934   6.750
 7386POPC   C3B39429  18.781  19.008   7.050
 7386POPC   C4B39430  18.821  19.007   7.350
 7387POPC   NC339431  41.554  33.035   5.550
 7387POPC   PO439432  41.530  33.021   5.850
 7387POPC   GL139433  41.518  32.990   6.150
 7387POPC   GL239434  41.651  32.931   6.150
 7387POPC   C1A39435  41.602  32.984   6.450
 7387POPC   D2A39436  41.607  33.032   6.750
 7387POPC   C3A39437  41.523  32.990   7.050
 7387POPC   C4A39438  41.542  33.028   7.350
 7387POPC   C1B39439  41.800  32.914   6.450
 7387POPC   C2B39440  41.765  32.950   6.750
 7387POPC   C3B39441  41.782  32.915   7.050
 7387POPC   C4B39442  41.815  32.885   7.350
 7388POPC   NC339443  27.586  41.568   5.550
 7388POPC   PO439444  27.609  41.518   5.850
 7388POPC   GL139445  27.591  41.515   6.150
 7388POPC   GL239446  27.634  41.464   6.150
 7388POPC   C1A39447  27.587  41.554   6.450
 7388POPC   D2A39448  27.587  41.540   6.750
 7388POPC   C3A39449  27.588  41.597   7.050
 7388POPC   C4A39450  27.633  41.576   7.350
 7388POPC   C1B39451  27.597  41.297   6.450
 7388POPC   C2B39452  27.652  41.299   6.750
 7388POPC   C3B39453  27.634  41.323   7.050
 7388POPC   C4B39454  27.610  41.275   7.350
 7389POPC   NC339455  43.858  35.401   5.550
 7389POPC   PO439456  43.928  35.303   5.850
 7389POPC   GL139457  43.917  35.398   6.150
 7389POPC   GL239458  43.897  35.472   6.150
 7389POPC   C1A39459  43.931  35.333   6.450
 7389POPC   D2A39460  43.855  35.348   6.750
 7389POPC   C3A39461  43.886  35.306   7.050
 7389POPC   C4A39462  43.907  35.370   7.350
 7389POPC   C1B39463  43.900  35.569   6.450
 7389POPC   C2B39464  43.879  35.619   6.750
 7389POPC   C3B39465  43.870  35.615   7.050
 7389POPC   C4B39466  43.825  35.568   7.350
 7390POPC   NC339467  22.172  30.667   5.550
 7390POPC   PO439468  22.151  30.707   5.850
 7390POPC   GL139469  22.165  30.690   6.150
 7390POPC   GL239470  22.060  30.816   6.150
 7390POPC   C1A39471  22.154  30.730   6.450
 7390POPC   D2A39472  22.210  30.684   6.750
 7390POPC   C3A39473  22.173  30.674   7.050
 7390POPC   C4A39474  22.138  30.678   7.350
 7390POPC   C1B39475  21.953  30.868   6.450
 7390POPC   C2B39476  21.977  30.880   6.750
 7390POPC   C3B39477  21.974  30.907   7.050
 7390POPC   C4B39478  22.001  30.901   7.350
 7391POPC   NC339479  38.481  33.039   5.550
 7391POPC   PO439480  38.472  33.024   5.850
 7391POPC   GL139481  38.428  33.057   6.150
 7391POPC   GL239482  38.504  33.182   6.150
 7391POPC   C1A39483  38.474  33.033   6.450
 7391POPC   D2A39484  38.438  33.064   6.750
 7391POPC   C3A39485  38.442  33.045   7.050
 7391POPC   C4A39486  38.421  32.989   7.350
 7391POPC   C1B39487  38.516  33.228   6.450
 7391POPC   C2B39488  38.556  33.300   6.750
 7391POPC   C3B39489  38.561  33.297   7.050
 7391POPC   C4B39490  38.519  33.224   7.350
 7392POPC   NC339491  12.829  37.693   5.550
 7392POPC   PO439492  12.864  37.703   5.850
 7392POPC   GL139493  12.841  37.729   6.150
 7392POPC   GL239494  12.763  37.618   6.150
 7392POPC   C1A39495  12.805  37.688   6.450
 7392POPC   D2A39496  12.871  37.647   6.750
 7392POPC   C3A39497  12.902  37.671   7.050
 7392POPC   C4A39498  12.817  37.663   7.350
 7392POPC   C1B39499  12.602  37.583   6.450
 7392POPC   C2B39500  12.652  37.516   6.750
 7392POPC   C3B39501  12.661  37.561   7.050
 7392POPC   C4B39502  12.610  37.522   7.350
 7393POPC   NC339503   8.234  24.509   5.550
 7393POPC   PO439504   8.229  24.477   5.850
 7393POPC   GL139505   8.212  24.498   6.150
 7393POPC   GL239506   8.342  24.435   6.150
 7393POPC   C1A39507   8.191  24.512   6.450
 7393POPC   D2A39508   8.205  24.533   6.750
 7393POPC   C3A39509   8.182  24.441   7.050
 7393POPC   C4A39510   8.167  24.487   7.350
 7393POPC   C1B39511   8.427  24.357   6.450
 7393POPC   C2B39512   8.350  24.363   6.750
 7393POPC   C3B39513   8.425  24.335   7.050
 7393POPC   C4B39514   8.393  24.312   7.350
 7394POPC   NC339515  13.600  33.011   5.550
 7394POPC   PO439516  13.655  33.024   5.850
 7394POPC   GL139517  13.597  33.032   6.150
 7394POPC   GL239518  13.513  33.123   6.150
 7394POPC   C1A39519  13.648  32.976   6.450
 7394POPC   D2A39520  13.605  33.036   6.750
 7394POPC   C3A39521  13.645  33.029   7.050
 7394POPC   C4A39522  13.673  33.039   7.350
 7394POPC   C1B39523  13.411  33.172   6.450
 7394POPC   C2B39524  13.403  33.076   6.750
 7394POPC   C3B39525  13.389  33.076   7.050
 7394POPC   C4B39526  13.403  33.077   7.350
 7395POPC   NC339527  43.107  34.612   5.550
 7395POPC   PO439528  43.081  34.590   5.850
 7395POPC   GL139529  43.081  34.619   6.150
 7395POPC   GL239530  43.154  34.424   6.150
 7395POPC   C1A39531  43.089  34.594   6.450
 7395POPC   D2A39532  43.144  34.621   6.750
 7395POPC   C3A39533  43.090  34.538   7.050
 7395POPC   C4A39534  43.117  34.532   7.350
 7395POPC   C1B39535  43.132  34.372   6.450
 7395POPC   C2B39536  43.186  34.361   6.750
 7395POPC   C3B39537  43.150  34.341   7.050
 7395POPC   C4B39538  43.190  34.299   7.350
 7396POPC   NC339539  22.197  11.318   5.550
 7396POPC   PO439540  22.155  11.334   5.850
 7396POPC   GL139541  22.139  11.328   6.150
 7396POPC   GL239542  22.054  11.394   6.150
 7396POPC   C1A39543  22.181  11.281   6.450
 7396POPC   D2A39544  22.124  11.271   6.750
 7396POPC   C3A39545  22.186  11.293   7.050
 7396POPC   C4A39546  22.206  11.328   7.350
 7396POPC   C1B39547  21.923  11.374   6.450
 7396POPC   C2B39548  21.986  11.402   6.750
 7396POPC   C3B39549  21.982  11.467   7.050
 7396POPC   C4B39550  21.909  11.416   7.350
 7397POPC   NC339551  21.393  10.529   5.550
 7397POPC   PO439552  21.350  10.517   5.850
 7397POPC   GL139553  21.406  10.490   6.150
 7397POPC   GL239554  21.524  10.579   6.150
 7397POPC   C1A39555  21.361  10.476   6.450
 7397POPC   D2A39556  21.427  10.533   6.750
 7397POPC   C3A39557  21.406  10.494   7.050
 7397POPC   C4A39558  21.370  10.554   7.350
 7397POPC   C1B39559  21.654  10.538   6.450
 7397POPC   C2B39560  21.644  10.553   6.750
 7397POPC   C3B39561  21.649  10.522   7.050
 7397POPC   C4B39562  21.613  10.562   7.350
 7398POPC   NC339563   8.941  11.288   5.550
 7398POPC   PO439564   8.966  11.331   5.850
 7398POPC   GL139565   9.021  11.279   6.150
 7398POPC   GL239566   8.916  11.410   6.150
 7398POPC   C1A39567   8.935  11.251   6.450
 7398POPC   D2A39568   8.932  11.254   6.750
 7398POPC   C3A39569   8.986  11.268   7.050
 7398POPC   C4A39570   8.961  11.286   7.350
 7398POPC   C1B39571   8.771  11.413   6.450
 7398POPC   C2B39572   8.773  11.478   6.750
 7398POPC   C3B39573   8.725  11.466   7.050
 7398POPC   C4B39574   8.733  11.418   7.350
 7399POPC   NC339575  15.209  35.324   5.550
 7399POPC   PO439576  15.192  35.304   5.850
 7399POPC   GL139577  15.135  35.309   6.150
 7399POPC   GL239578  15.174  35.184   6.150
 7399POPC   C1A39579  15.155  35.333   6.450
 7399POPC   D2A39580  15.228  35.356   6.750
 7399POPC   C3A39581  15.161  35.386   7.050
 7399POPC   C4A39582  15.219  35.326   7.350
 7399POPC   C1B39583  15.199  35.082   6.450
 7399POPC   C2B39584  15.226  35.116   6.750
 7399POPC   C3B39585  15.177  35.137   7.050
 7399POPC   C4B39586  15.145  35.148   7.350
 7400POPC   NC339587  36.933  12.895   5.550
 7400POPC   PO439588  36.854  12.860   5.850
 7400POPC   GL139589  36.860  12.816   6.150
 7400POPC   GL239590  37.069  12.811   6.150
 7400POPC   C1A39591  36.885  12.831   6.450
 7400POPC   D2A39592  36.931  12.889   6.750
 7400POPC   C3A39593  36.943  12.837   7.050
 7400POPC   C4A39594  36.901  12.863   7.350
 7400POPC   C1B39595  37.116  12.811   6.450
 7400POPC   C2B39596  37.164  12.813   6.750
 7400POPC   C3B39597  37.178  12.795   7.050
 7400POPC   C4B39598  37.110  12.817   7.350
 7401POPC   NC339599  27.632   2.813   5.550
 7401POPC   PO439600  27.567   2.740   5.850
 7401POPC   GL139601  27.547   2.739   6.150
 7401POPC   GL239602  27.724   2.780   6.150
 7401POPC   C1A39603  27.621   2.745   6.450
 7401POPC   D2A39604  27.590   2.768   6.750
 7401POPC   C3A39605  27.633   2.766   7.050
 7401POPC   C4A39606  27.632   2.752   7.350
 7401POPC   C1B39607  27.826   2.848   6.450
 7401POPC   C2B39608  27.826   2.798   6.750
 7401POPC   C3B39609  27.872   2.832   7.050
 7401POPC   C4B39610  27.869   2.838   7.350
 7402POPC   NC339611   8.185  12.082   5.550
 7402POPC   PO439612   8.207  12.034   5.850
 7402POPC   GL139613   8.207  12.038   6.150
 7402POPC   GL239614   8.044  12.074   6.150
 7402POPC   C1A39615   8.218  12.071   6.450
 7402POPC   D2A39616   8.175  12.113   6.750
 7402POPC   C3A39617   8.217  12.056   7.050
 7402POPC   C4A39618   8.208  12.056   7.350
 7402POPC   C1B39619   7.943  12.024   6.450
 7402POPC   C2B39620   7.988  12.077   6.750
 7402POPC   C3B39621   7.942  11.994   7.050
 7402POPC   C4B39622   7.965  12.012   7.350
 7403POPC   NC339623  32.254  22.919   5.550
 7403POPC   PO439624  32.279  22.915   5.850
 7403POPC   GL139625  32.199  22.898   6.150
 7403POPC   GL239626  32.184  22.828   6.150
 7403POPC   C1A39627  32.252  22.888   6.450
 7403POPC   D2A39628  32.209  22.963   6.750
 7403POPC   C3A39629  32.220  22.919   7.050
 7403POPC   C4A39630  32.260  22.905   7.350
 7403POPC   C1B39631  32.149  22.713   6.450
 7403POPC   C2B39632  32.090  22.706   6.750
 7403POPC   C3B39633  32.127  22.738   7.050
 7403POPC   C4B39634  32.175  22.706   7.350
 7404POPC   NC339635   2.012  26.800   5.550
 7404POPC   PO439636   1.975  26.840   5.850
 7404POPC   GL139637   1.960  26.788   6.150
 7404POPC   GL239638   1.878  26.745   6.150
 7404POPC   C1A39639   1.984  26.840   6.450
 7404POPC   D2A39640   2.020  26.866   6.750
 7404POPC   C3A39641   2.022  26.830   7.050
 7404POPC   C4A39642   1.954  26.846   7.350
 7404POPC   C1B39643   1.785  26.707   6.450
 7404POPC   C2B39644   1.844  26.677   6.750
 7404POPC   C3B39645   1.759  26.617   7.050
 7404POPC   C4B39646   1.820  26.687   7.350
 7405POPC   NC339647  31.432  38.500   5.550
 7405POPC   PO439648  31.441  38.409   5.850
 7405POPC   GL139649  31.462  38.424   6.150
 7405POPC   GL239650  31.311  38.438   6.150
 7405POPC   C1A39651  31.433  38.452   6.450
 7405POPC   D2A39652  31.508  38.431   6.750
 7405POPC   C3A39653  31.459  38.469   7.050
 7405POPC   C4A39654  31.475  38.435   7.350
 7405POPC   C1B39655  31.282  38.402   6.450
 7405POPC   C2B39656  31.211  38.399   6.750
 7405POPC   C3B39657  31.238  38.352   7.050
 7405POPC   C4B39658  31.277  38.404   7.350
 7406POPC   NC339659  23.737  13.629   5.550
 7406POPC   PO439660  23.664  13.584   5.850
 7406POPC   GL139661  23.670  13.582   6.150
 7406POPC   GL239662  23.760  13.751   6.150
 7406POPC   C1A39663  23.755  13.581   6.450
 7406POPC   D2A39664  23.727  13.601   6.750
 7406POPC   C3A39665  23.679  13.601   7.050
 7406POPC   C4A39666  23.762  13.666   7.350
 7406POPC   C1B39667  23.796  13.832   6.450
 7406POPC   C2B39668  23.763  13.896   6.750
 7406POPC   C3B39669  23.800  13.871   7.050
 7406POPC   C4B39670  23.861  13.849   7.350
 7407POPC   NC339671  13.581  16.706   5.550
 7407POPC   PO439672  13.589  16.781   5.850
 7407POPC   GL139673  13.590  16.721   6.150
 7407POPC   GL239674  13.703  16.777   6.150
 7407POPC   C1A39675  13.642  16.757   6.450
 7407POPC   D2A39676  13.666  16.735   6.750
 7407POPC   C3A39677  13.620  16.717   7.050
 7407POPC   C4A39678  13.582  16.684   7.350
 7407POPC   C1B39679  13.836  16.940   6.450
 7407POPC   C2B39680  13.792  16.952   6.750
 7407POPC   C3B39681  13.852  16.858   7.050
 7407POPC   C4B39682  13.807  16.938   7.350
 7408POPC   NC339683  35.379  36.117   5.550
 7408POPC   PO439684  35.380  36.175   5.850
 7408POPC   GL139685  35.320  36.089   6.150
 7408POPC   GL239686  35.388  36.243   6.150
 7408POPC   C1A39687  35.366  36.120   6.450
 7408POPC   D2A39688  35.350  36.095   6.750
 7408POPC   C3A39689  35.349  36.102   7.050
 7408POPC   C4A39690  35.342  36.161   7.350
 7408POPC   C1B39691  35.469  36.290   6.450
 7408POPC   C2B39692  35.516  36.277   6.750
 7408POPC   C3B39693  35.505  36.307   7.050
 7408POPC   C4B39694  35.526  36.298   7.350
 7409POPC   NC339695  36.941  29.139   5.550
 7409POPC   PO439696  36.864  29.168   5.850
 7409POPC   GL139697  36.867  29.178   6.150
 7409POPC   GL239698  36.827  29.211   6.150
 7409POPC   C1A39699  36.898  29.187   6.450
 7409POPC   D2A39700  36.943  29.145   6.750
 7409POPC   C3A39701  36.943  29.166   7.050
 7409POPC   C4A39702  36.887  29.173   7.350
 7409POPC   C1B39703  36.767  29.407   6.450
 7409POPC   C2B39704  36.785  29.390   6.750
 7409POPC   C3B39705  36.768  29.384   7.050
 7409POPC   C4B39706  36.762  29.394   7.350
 7410POPC   NC339707   0.448  33.014   5.550
 7410POPC   PO439708   0.427  32.990   5.850
 7410POPC   GL139709   0.473  33.042   6.150
 7410POPC   GL239710   0.460  33.182   6.150
 7410POPC   C1A39711   0.453  32.999   6.450
 7410POPC   D2A39712   0.420  33.026   6.750
 7410POPC   C3A39713   0.452  33.041   7.050
 7410POPC   C4A39714   0.444  32.981   7.350
 7410POPC   C1B39715   0.484  33.256   6.450
 7410POPC   C2B39716   0.516  33.269   6.750
 7410POPC   C3B39717   0.519  33.306   7.050
 7410POPC   C4B39718   0.556  33.232   7.350
 7411POPC   NC339719  23.709   7.460   5.550
 7411POPC   PO439720  23.680   7.436   5.850
 7411POPC   GL139721  23.720   7.463   6.150
 7411POPC   GL239722  23.619   7.481   6.150
 7411POPC   C1A39723  23.714   7.373   6.450
 7411POPC   D2A39724  23.705   7.393   6.750
 7411POPC   C3A39725  23.677   7.437   7.050
 7411POPC   C4A39726  23.665   7.384   7.350
 7411POPC   C1B39727  23.554   7.618   6.450
 7411POPC   C2B39728  23.560   7.594   6.750
 7411POPC   C3B39729  23.487   7.604   7.050
 7411POPC   C4B39730  23.548   7.578   7.350
 7412POPC   NC339731  36.892  24.457   5.550
 7412POPC   PO439732  36.898  24.469   5.850
 7412POPC   GL139733  36.897  24.501   6.150
 7412POPC   GL239734  36.841  24.631   6.150
 7412POPC   C1A39735  36.923  24.471   6.450
 7412POPC   D2A39736  36.916  24.537   6.750
 7412POPC   C3A39737  36.948  24.441   7.050
 7412POPC   C4A39738  36.880  24.514   7.350
 7412POPC   C1B39739  36.813  24.715   6.450
 7412POPC   C2B39740  36.861  24.730   6.750
 7412POPC   C3B39741  36.788  24.740   7.050
 7412POPC   C4B39742  36.887  24.778   7.350
 7413POPC   NC339743  32.246  35.380   5.550
 7413POPC   PO439744  32.252  35.365   5.850
 7413POPC   GL139745  32.280  35.315   6.150
 7413POPC   GL239746  32.326  35.419   6.150
 7413POPC   C1A39747  32.275  35.337   6.450
 7413POPC   D2A39748  32.292  35.367   6.750
 7413POPC   C3A39749  32.239  35.311   7.050
 7413POPC   C4A39750  32.273  35.372   7.350
 7413POPC   C1B39751  32.484  35.436   6.450
 7413POPC   C2B39752  32.504  35.449   6.750
 7413POPC   C3B39753  32.466  35.461   7.050
 7413POPC   C4B39754  32.446  35.436   7.350
 7414POPC   NC339755  43.899  32.268   5.550
 7414POPC   PO439756  43.936  32.241   5.850
 7414POPC   GL139757  43.866  32.241   6.150
 7414POPC   GL239758  43.810  32.305   6.150
 7414POPC   C1A39759  43.862  32.263   6.450
 7414POPC   D2A39760  43.928  32.212   6.750
 7414POPC   C3A39761  43.934  32.239   7.050
 7414POPC   C4A39762  43.890  32.277   7.350
 7414POPC   C1B39763  43.738  32.465   6.450
 7414POPC   C2B39764  43.735  32.432   6.750
 7414POPC   C3B39765  43.756  32.408   7.050
 7414POPC   C4B39766  43.680  32.379   7.350
 7415POPC   NC339767  26.774  11.334   5.550
 7415POPC   PO439768  26.828  11.262   5.850
 7415POPC   GL139769  26.862  11.261   6.150
 7415POPC   GL239770  26.679  11.172   6.150
 7415POPC   C1A39771  26.817  11.275   6.450
 7415POPC   D2A39772  26.814  11.271   6.750
 7415POPC   C3A39773  26.788  11.263   7.050
 7415POPC   C4A39774  26.855  11.321   7.350
 7415POPC   C1B39775  26.663  11.109   6.450
 7415POPC   C2B39776  26.614  11.168   6.750
 7415POPC   C3B39777  26.663  11.163   7.050
 7415POPC   C4B39778  26.625  11.124   7.350
 7416POPC   NC339779  41.516   4.277   5.550
 7416POPC   PO439780  41.592   4.342   5.850
 7416POPC   GL139781  41.595   4.329   6.150
 7416POPC   GL239782  41.684   4.375   6.150
 7416POPC   C1A39783  41.546   4.302   6.450
 7416POPC   D2A39784  41.581   4.286   6.750
 7416POPC   C3A39785  41.514   4.270   7.050
 7416POPC   C4A39786  41.568   4.320   7.350
 7416POPC   C1B39787  41.786   4.498   6.450
 7416POPC   C2B39788  41.728   4.446   6.750
 7416POPC   C3B39789  41.740   4.408   7.050
 7416POPC   C4B39790  41.751   4.499   7.350
 7417POPC   NC339791  22.892  14.410   5.550
 7417POPC   PO439792  22.925  14.395   5.850
 7417POPC   GL139793  22.919  14.441   6.150
 7417POPC   GL239794  22.782  14.410   6.150
 7417POPC   C1A39795  22.899  14.413   6.450
 7417POPC   D2A39796  22.983  14.402   6.750
 7417POPC   C3A39797  22.899  14.372   7.050
 7417POPC   C4A39798  22.980  14.373   7.350
 7417POPC   C1B39799  22.673  14.530   6.450
 7417POPC   C2B39800  22.736  14.457   6.750
 7417POPC   C3B39801  22.682  14.513   7.050
 7417POPC   C4B39802  22.664  14.505   7.350
 7418POPC   NC339803  12.895  24.530   5.550
 7418POPC   PO439804  12.880  24.538   5.850
 7418POPC   GL139805  12.855  24.530   6.150
 7418POPC   GL239806  12.887  24.391   6.150
 7418POPC   C1A39807  12.819  24.524   6.450
 7418POPC   D2A39808  12.845  24.533   6.750
 7418POPC   C3A39809  12.869  24.527   7.050
 7418POPC   C4A39810  12.844  24.486   7.350
 7418POPC   C1B39811  12.964  24.251   6.450
 7418POPC   C2B39812  12.996  24.265   6.750
 7418POPC   C3B39813  12.923  24.296   7.050
 7418POPC   C4B39814  12.937  24.310   7.350
 7419POPC   NC339815  40.039  38.492   5.550
 7419POPC   PO439816  39.986  38.477   5.850
 7419POPC   GL139817  39.974  38.475   6.150
 7419POPC   GL239818  40.034  38.527   6.150
 7419POPC   C1A39819  40.035  38.478   6.450
 7419POPC   D2A39820  39.993  38.434   6.750
 7419POPC   C3A39821  39.995  38.446   7.050
 7419POPC   C4A39822  39.978  38.458   7.350
 7419POPC   C1B39823  40.127  38.684   6.450
 7419POPC   C2B39824  40.138  38.698   6.750
 7419POPC   C3B39825  40.112  38.682   7.050
 7419POPC   C4B39826  40.075  38.658   7.350
 7420POPC   NC339827  44.618  33.024   5.550
 7420POPC   PO439828  44.646  32.990   5.850
 7420POPC   GL139829  44.621  33.006   6.150
 7420POPC   GL239830  44.616  33.146   6.150
 7420POPC   C1A39831  44.648  33.070   6.450
 7420POPC   D2A39832  44.687  32.983   6.750
 7420POPC   C3A39833  44.705  33.024   7.050
 7420POPC   C4A39834  44.681  33.012   7.350
 7420POPC   C1B39835  44.648  33.241   6.450
 7420POPC   C2B39836  44.655  33.298   6.750
 7420POPC   C3B39837  44.643  33.231   7.050
 7420POPC   C4B39838  44.676  33.228   7.350
 7421POPC   NC339839  43.126  44.618   5.550
 7421POPC   PO439840  43.113  44.681   5.850
 7421POPC   GL139841  43.124  44.707   6.150
 7421POPC   GL239842  43.222  44.741   6.150
 7421POPC   C1A39843  43.129  44.697   6.450
 7421POPC   D2A39844  43.141  44.630   6.750
 7421POPC   C3A39845  43.095  44.690   7.050
 7421POPC   C4A39846  43.092  44.657   7.350
 7421POPC   C1B39847  43.382  44.701   6.450
 7421POPC   C2B39848  43.349  44.704   6.750
 7421POPC   C3B39849  43.399  44.699   7.050
 7421POPC   C4B39850  43.358  44.697   7.350
 7422POPC   NC339851  29.931  31.428   5.550
 7422POPC   PO439852  29.902  31.459   5.850
 7422POPC   GL139853  29.876  31.439   6.150
 7422POPC   GL239854  30.062  31.440   6.150
 7422POPC   C1A39855  29.917  31.510   6.450
 7422POPC   D2A39856  29.896  31.498   6.750
 7422POPC   C3A39857  29.911  31.472   7.050
 7422POPC   C4A39858  29.966  31.468   7.350
 7422POPC   C1B39859  30.121  31.443   6.450
 7422POPC   C2B39860  30.215  31.380   6.750
 7422POPC   C3B39861  30.187  31.416   7.050
 7422POPC   C4B39862  30.129  31.433   7.350
 7423POPC   NC339863  11.330  22.940   5.550
 7423POPC   PO439864  11.273  22.970   5.850
 7423POPC   GL139865  11.334  22.911   6.150
 7423POPC   GL239866  11.187  22.939   6.150
 7423POPC   C1A39867  11.260  22.938   6.450
 7423POPC   D2A39868  11.303  22.946   6.750
 7423POPC   C3A39869  11.340  22.920   7.050
 7423POPC   C4A39870  11.330  22.947   7.350
 7423POPC   C1B39871  11.021  22.935   6.450
 7423POPC   C2B39872  11.072  22.844   6.750
 7423POPC   C3B39873  11.029  22.881   7.050
 7423POPC   C4B39874  11.014  22.855   7.350
 7424POPC   NC339875   0.477  40.756   5.550
 7424POPC   PO439876   0.413  40.796   5.850
 7424POPC   GL139877   0.394  40.822   6.150
 7424POPC   GL239878   0.338  40.649   6.150
 7424POPC   C1A39879   0.456  40.798   6.450
 7424POPC   D2A39880   0.409  40.750   6.750
 7424POPC   C3A39881   0.456  40.825   7.050
 7424POPC   C4A39882   0.450  40.805   7.350
 7424POPC   C1B39883   0.289  40.549   6.450
 7424POPC   C2B39884   0.272  40.550   6.750
 7424POPC   C3B39885   0.295  40.570   7.050
 7424POPC   C4B39886   0.300  40.557   7.350
 7425POPC   NC339887  33.055  10.511   5.550
 7425POPC   PO439888  33.029  10.558   5.850
 7425POPC   GL139889  33.055  10.519   6.150
 7425POPC   GL239890  32.878  10.455   6.150
 7425POPC   C1A39891  32.987  10.541   6.450
 7425POPC   D2A39892  33.049  10.508   6.750
 7425POPC   C3A39893  33.057  10.506   7.050
 7425POPC   C4A39894  33.002  10.569   7.350
 7425POPC   C1B39895  32.771  10.434   6.450
 7425POPC   C2B39896  32.777  10.432   6.750
 7425POPC   C3B39897  32.779  10.506   7.050
 7425POPC   C4B39898  32.744  10.502   7.350
 7426POPC   NC339899  15.213  28.369   5.550
 7426POPC   PO439900  15.208  28.349   5.850
 7426POPC   GL139901  15.195  28.363   6.150
 7426POPC   GL239902  15.232  28.474   6.150
 7426POPC   C1A39903  15.172  28.324   6.450
 7426POPC   D2A39904  15.228  28.415   6.750
 7426POPC   C3A39905  15.189  28.362   7.050
 7426POPC   C4A39906  15.211  28.328   7.350
 7426POPC   C1B39907  15.302  28.572   6.450
 7426POPC   C2B39908  15.337  28.567   6.750
 7426POPC   C3B39909  15.381  28.602   7.050
 7426POPC   C4B39910  15.307  28.516   7.350
 7427POPC   NC339911  42.365  25.265   5.550
 7427POPC   PO439912  42.364  25.276   5.850
 7427POPC   GL139913  42.317  25.291   6.150
 7427POPC   GL239914  42.461  25.148   6.150
 7427POPC   C1A39915  42.318  25.293   6.450
 7427POPC   D2A39916  42.362  25.228   6.750
 7427POPC   C3A39917  42.332  25.231   7.050
 7427POPC   C4A39918  42.377  25.288   7.350
 7427POPC   C1B39919  42.525  25.057   6.450
 7427POPC   C2B39920  42.473  25.074   6.750
 7427POPC   C3B39921  42.539  25.082   7.050
 7427POPC   C4B39922  42.483  25.083   7.350
 7428POPC   NC339923  22.899  42.325   5.550
 7428POPC   PO439924  22.901  42.372   5.850
 7428POPC   GL139925  22.947  42.353   6.150
 7428POPC   GL239926  23.089  42.330   6.150
 7428POPC   C1A39927  22.982  42.301   6.450
 7428POPC   D2A39928  22.909  42.315   6.750
 7428POPC   C3A39929  22.959  42.346   7.050
 7428POPC   C4A39930  22.960  42.377   7.350
 7428POPC   C1B39931  23.229  42.232   6.450
 7428POPC   C2B39932  23.140  42.245   6.750
 7428POPC   C3B39933  23.215  42.268   7.050
 7428POPC   C4B39934  23.136  42.244   7.350
 7429POPC   NC339935  36.160   5.917   5.550
 7429POPC   PO439936  36.088   5.856   5.850
 7429POPC   GL139937  36.099   5.836   6.150
 7429POPC   GL239938  36.032   5.981   6.150
 7429POPC   C1A39939  36.085   5.852   6.450
 7429POPC   D2A39940  36.099   5.917   6.750
 7429POPC   C3A39941  36.098   5.831   7.050
 7429POPC   C4A39942  36.100   5.906   7.350
 7429POPC   C1B39943  35.886   6.060   6.450
 7429POPC   C2B39944  35.924   5.988   6.750
 7429POPC   C3B39945  35.952   6.005   7.050
 7429POPC   C4B39946  35.928   6.036   7.350
 7430POPC   NC339947  21.401   8.196   5.550
 7430POPC   PO439948  21.423   8.213   5.850
 7430POPC   GL139949  21.396   8.150   6.150
 7430POPC   GL239950  21.298   8.199   6.150
 7430POPC   C1A39951  21.366   8.212   6.450
 7430POPC   D2A39952  21.368   8.151   6.750
 7430POPC   C3A39953  21.399   8.217   7.050
 7430POPC   C4A39954  21.338   8.206   7.350
 7430POPC   C1B39955  21.129   8.162   6.450
 7430POPC   C2B39956  21.096   8.140   6.750
 7430POPC   C3B39957  21.134   8.182   7.050
 7430POPC   C4B39958  21.096   8.173   7.350
 7431POPC   NC339959  27.565  26.067   5.550
 7431POPC   PO439960  27.610  26.072   5.850
 7431POPC   GL139961  27.611  26.075   6.150
 7431POPC   GL239962  27.654  26.145   6.150
 7431POPC   C1A39963  27.629  26.023   6.450
 7431POPC   D2A39964  27.585  26.066   6.750
 7431POPC   C3A39965  27.603  26.079   7.050
 7431POPC   C4A39966  27.557  26.060   7.350
 7431POPC   C1B39967  27.779  26.253   6.450
 7431POPC   C2B39968  27.754  26.199   6.750
 7431POPC   C3B39969  27.749  26.267   7.050
 7431POPC   C4B39970  27.746  26.235   7.350
 7432POPC   NC339971   4.330  32.977   5.550
 7432POPC   PO439972   4.319  33.037   5.850
 7432POPC   GL139973   4.358  32.980   6.150
 7432POPC   GL239974   4.395  32.991   6.150
 7432POPC   C1A39975   4.309  32.982   6.450
 7432POPC   D2A39976   4.331  33.053   6.750
 7432POPC   C3A39977   4.357  33.026   7.050
 7432POPC   C4A39978   4.332  33.037   7.350
 7432POPC   C1B39979   4.490  32.836   6.450
 7432POPC   C2B39980   4.536  32.860   6.750
 7432POPC   C3B39981   4.541  32.888   7.050
 7432POPC   C4B39982   4.536  32.871   7.350
 7433POPC   NC339983   4.299  24.479   5.550
 7433POPC   PO439984   4.329  24.488   5.850
 7433POPC   GL139985   4.344  24.458   6.150
 7433POPC   GL239986   4.399  24.521   6.150
 7433POPC   C1A39987   4.363  24.461   6.450
 7433POPC   D2A39988   4.289  24.501   6.750
 7433POPC   C3A39989   4.350  24.471   7.050
 7433POPC   C4A39990   4.270  24.522   7.350
 7433POPC   C1B39991   4.557  24.496   6.450
 7433POPC   C2B39992   4.607  24.505   6.750
 7433POPC   C3B39993   4.533  24.530   7.050
 7433POPC   C4B39994   4.610  24.510   7.350
 7434POPC   NC339995  33.754  36.939   5.550
 7434POPC   PO439996  33.831  36.888   5.850
 7434POPC   GL139997  33.813  36.857   6.150
 7434POPC   GL239998  33.838  37.034   6.150
 7434POPC   C1A39999  33.801  36.863   6.450
 7434POPC   D2A40000  33.761  36.875   6.750
 7434POPC   C3A40001  33.782  36.864   7.050
 7434POPC   C4A40002  33.785  36.947   7.350
 7434POPC   C1B40003  33.882  37.074   6.450
 7434POPC   C2B40004  33.935  37.165   6.750
 7434POPC   C3B40005  33.950  37.119   7.050
 7434POPC   C4B40006  33.927  37.162   7.350
 7435POPC   NC340007  35.337  33.049   5.550
 7435POPC   PO440008  35.367  33.069   5.850
 7435POPC   GL140009  35.344  33.058   6.150
 7435POPC   GL240010  35.487  33.093   6.150
 7435POPC   C1A40011  35.395  33.015   6.450
 7435POPC   D2A40012  35.395  33.058   6.750
 7435POPC   C3A40013  35.370  33.018   7.050
 7435POPC   C4A40014  35.328  33.018   7.350
 7435POPC   C1B40015  35.541  33.196   6.450
 7435POPC   C2B40016  35.539  33.153   6.750
 7435POPC   C3B40017  35.581  33.185   7.050
 7435POPC   C4B40018  35.543  33.124   7.350
 7436POPC   NC340019  11.282  13.658   5.550
 7436POPC   PO440020  11.347  13.670   5.850
 7436POPC   GL140021  11.345  13.630   6.150
 7436POPC   GL240022  11.284  13.492   6.150
 7436POPC   C1A40023  11.258  13.591   6.450
 7436POPC   D2A40024  11.285  13.649   6.750
 7436POPC   C3A40025  11.322  13.614   7.050
 7436POPC   C4A40026  11.302  13.589   7.350
 7436POPC   C1B40027  11.211  13.395   6.450
 7436POPC   C2B40028  11.245  13.427   6.750
 7436POPC   C3B40029  11.231  13.389   7.050
 7436POPC   C4B40030  11.169  13.421   7.350
 7437POPC   NC340031  25.243   5.912   5.550
 7437POPC   PO440032  25.300   5.848   5.850
 7437POPC   GL140033  25.285   5.829   6.150
 7437POPC   GL240034  25.133   5.793   6.150
 7437POPC   C1A40035  25.310   5.876   6.450
 7437POPC   D2A40036  25.277   5.850   6.750
 7437POPC   C3A40037  25.237   5.911   7.050
 7437POPC   C4A40038  25.276   5.918   7.350
 7437POPC   C1B40039  25.124   5.660   6.450
 7437POPC   C2B40040  25.044   5.740   6.750
 7437POPC   C3B40041  25.053   5.644   7.050
 7437POPC   C4B40042  25.137   5.697   7.350
 7438POPC   NC340043  22.914   7.394   5.550
 7438POPC   PO440044  22.982   7.450   5.850
 7438POPC   GL140045  22.946   7.462   6.150
 7438POPC   GL240046  22.864   7.574   6.150
 7438POPC   C1A40047  22.965   7.437   6.450
 7438POPC   D2A40048  22.919   7.414   6.750
 7438POPC   C3A40049  22.916   7.379   7.050
 7438POPC   C4A40050  22.891   7.391   7.350
 7438POPC   C1B40051  22.880   7.705   6.450
 7438POPC   C2B40052  22.850   7.636   6.750
 7438POPC   C3B40053  22.867   7.671   7.050
 7438POPC   C4B40054  22.906   7.680   7.350
 7439POPC   NC340055   7.469  12.827   5.550
 7439POPC   PO440056   7.419  12.856   5.850
 7439POPC   GL140057   7.390  12.854   6.150
 7439POPC   GL240058   7.409  12.729   6.150
 7439POPC   C1A40059   7.459  12.854   6.450
 7439POPC   D2A40060   7.427  12.820   6.750
 7439POPC   C3A40061   7.427  12.822   7.050
 7439POPC   C4A40062   7.404  12.838   7.350
 7439POPC   C1B40063   7.394  12.557   6.450
 7439POPC   C2B40064   7.401  12.626   6.750
 7439POPC   C3B40065   7.345  12.598   7.050
 7439POPC   C4B40066   7.426  12.607   7.350
 7440POPC   NC340067  30.695  35.332   5.550
 7440POPC   PO440068  30.677  35.333   5.850
 7440POPC   GL140069  30.726  35.341   6.150
 7440POPC   GL240070  30.601  35.407   6.150
 7440POPC   C1A40071  30.681  35.350   6.450
 7440POPC   D2A40072  30.719  35.333   6.750
 7440POPC   C3A40073  30.723  35.378   7.050
 7440POPC   C4A40074  30.685  35.345   7.350
 7440POPC   C1B40075  30.463  35.461   6.450
 7440POPC   C2B40076  30.457  35.543   6.750
 7440POPC   C3B40077  30.523  35.540   7.050
 7440POPC   C4B40078  30.491  35.457   7.350
 7441POPC   NC340079  21.407  17.533   5.550
 7441POPC   PO440080  21.365  17.542   5.850
 7441POPC   GL140081  21.366  17.466   6.150
 7441POPC   GL240082  21.419  17.338   6.150
 7441POPC   C1A40083  21.396  17.487   6.450
 7441POPC   D2A40084  21.339  17.474   6.750
 7441POPC   C3A40085  21.388  17.498   7.050
 7441POPC   C4A40086  21.434  17.473   7.350
 7441POPC   C1B40087  21.358  17.223   6.450
 7441POPC   C2B40088  21.352  17.271   6.750
 7441POPC   C3B40089  21.374  17.289   7.050
 7441POPC   C4B40090  21.380  17.225   7.350
 7442POPC   NC340091  33.045  36.866   5.550
 7442POPC   PO440092  33.016  36.891   5.850
 7442POPC   GL140093  32.998  36.904   6.150
 7442POPC   GL240094  33.149  36.798   6.150
 7442POPC   C1A40095  32.993  36.952   6.450
 7442POPC   D2A40096  33.043  36.933   6.750
 7442POPC   C3A40097  33.019  36.888   7.050
 7442POPC   C4A40098  33.020  36.864   7.350
 7442POPC   C1B40099  33.231  36.673   6.450
 7442POPC   C2B40100  33.155  36.703   6.750
 7442POPC   C3B40101  33.192  36.695   7.050
 7442POPC   C4B40102  33.152  36.740   7.350
 7443POPC   NC340103  15.970   7.390   5.550
 7443POPC   PO440104  15.997   7.425   5.850
 7443POPC   GL140105  15.918   7.452   6.150
 7443POPC   GL240106  15.956   7.533   6.150
 7443POPC   C1A40107  15.956   7.422   6.450
 7443POPC   D2A40108  15.908   7.387   6.750
 7443POPC   C3A40109  15.916   7.468   7.050
 7443POPC   C4A40110  15.996   7.453   7.350
 7443POPC   C1B40111  15.914   7.676   6.450
 7443POPC   C2B40112  15.844   7.687   6.750
 7443POPC   C3B40113  15.914   7.663   7.050
 7443POPC   C4B40114  15.851   7.657   7.350
 7444POPC   NC340115  32.216  44.698   5.550
 7444POPC   PO440116  32.293  44.711   5.850
 7444POPC   GL140117  32.255  44.616   6.150
 7444POPC   GL240118  32.173  44.691   6.150
 7444POPC   C1A40119  32.204  44.712   6.450
 7444POPC   D2A40120  32.265  44.630   6.750
 7444POPC   C3A40121  32.225  44.645   7.050
 7444POPC   C4A40122  32.295  44.676   7.350
 7444POPC   C1B40123  31.970  44.662   6.450
 7444POPC   C2B40124  31.976  44.676   6.750
 7444POPC   C3B40125  31.951  44.724   7.050
 7444POPC   C4B40126  31.973  44.694   7.350
 7445POPC   NC340127  40.750   6.627   5.550
 7445POPC   PO440128  40.788   6.680   5.850
 7445POPC   GL140129  40.764   6.612   6.150
 7445POPC   GL240130  40.775   6.568   6.150
 7445POPC   C1A40131  40.772   6.617   6.450
 7445POPC   D2A40132  40.745   6.643   6.750
 7445POPC   C3A40133  40.818   6.628   7.050
 7445POPC   C4A40134  40.800   6.678   7.350
 7445POPC   C1B40135  40.809   6.394   6.450
 7445POPC   C2B40136  40.760   6.430   6.750
 7445POPC   C3B40137  40.805   6.384   7.050
 7445POPC   C4B40138  40.784   6.359   7.350
 7446POPC   NC340139  21.387  29.179   5.550
 7446POPC   PO440140  21.380  29.188   5.850
 7446POPC   GL140141  21.408  29.188   6.150
 7446POPC   GL240142  21.331  29.028   6.150
 7446POPC   C1A40143  21.410  29.160   6.450
 7446POPC   D2A40144  21.388  29.123   6.750
 7446POPC   C3A40145  21.392  29.193   7.050
 7446POPC   C4A40146  21.406  29.174   7.350
 7446POPC   C1B40147  21.340  28.858   6.450
 7446POPC   C2B40148  21.368  28.934   6.750
 7446POPC   C3B40149  21.304  28.896   7.050
 7446POPC   C4B40150  21.348  28.948   7.350
 7447POPC   NC340151  40.049  40.013   5.550
 7447POPC   PO440152  40.032  40.039   5.850
 7447POPC   GL140153  40.026  39.996   6.150
 7447POPC   GL240154  40.087  39.928   6.150
 7447POPC   C1A40155  39.986  40.046   6.450
 7447POPC   D2A40156  39.958  39.994   6.750
 7447POPC   C3A40157  40.013  40.030   7.050
 7447POPC   C4A40158  39.966  40.043   7.350
 7447POPC   C1B40159  40.248  39.907   6.450
 7447POPC   C2B40160  40.223  39.912   6.750
 7447POPC   C3B40161  40.216  39.948   7.050
 7447POPC   C4B40162  40.298  39.958   7.350
 7448POPC   NC340163  22.899  19.806   5.550
 7448POPC   PO440164  22.902  19.861   5.850
 7448POPC   GL140165  22.958  19.844   6.150
 7448POPC   GL240166  22.946  20.004   6.150
 7448POPC   C1A40167  22.968  19.876   6.450
 7448POPC   D2A40168  22.928  19.793   6.750
 7448POPC   C3A40169  22.908  19.856   7.050
 7448POPC   C4A40170  22.909  19.846   7.350
 7448POPC   C1B40171  22.858  20.049   6.450
 7448POPC   C2B40172  22.854  20.032   6.750
 7448POPC   C3B40173  22.902  20.127   7.050
 7448POPC   C4B40174  22.852  20.065   7.350
 7449POPC   NC340175   3.587   1.996   5.550
 7449POPC   PO440176   3.569   2.028   5.850
 7449POPC   GL140177   3.547   1.966   6.150
 7449POPC   GL240178   3.621   2.132   6.150
 7449POPC   C1A40179   3.537   2.037   6.450
 7449POPC   D2A40180   3.522   2.011   6.750
 7449POPC   C3A40181   3.498   1.978   7.050
 7449POPC   C4A40182   3.531   2.022   7.350
 7449POPC   C1B40183   3.647   2.259   6.450
 7449POPC   C2B40184   3.632   2.164   6.750
 7449POPC   C3B40185   3.647   2.240   7.050
 7449POPC   C4B40186   3.667   2.239   7.350
 7450POPC   NC340187  16.758   5.900   5.550
 7450POPC   PO440188  16.746   5.914   5.850
 7450POPC   GL140189  16.705   5.916   6.150
 7450POPC   GL240190  16.787   5.721   6.150
 7450POPC   C1A40191  16.719   5.873   6.450
 7450POPC   D2A40192  16.763   5.893   6.750
 7450POPC   C3A40193  16.736   5.861   7.050
 7450POPC   C4A40194  16.694   5.826   7.350
 7450POPC   C1B40195  16.779   5.664   6.450
 7450POPC   C2B40196  16.698   5.650   6.750
 7450POPC   C3B40197  16.766   5.638   7.050
 7450POPC   C4B40198  16.752   5.590   7.350
 7451POPC   NC340199  39.260  39.183   5.550
 7451POPC   PO440200  39.244  39.223   5.850
 7451POPC   GL140201  39.278  39.252   6.150
 7451POPC   GL240202  39.346  39.198   6.150
 7451POPC   C1A40203  39.183  39.189   6.450
 7451POPC   D2A40204  39.244  39.208   6.750
 7451POPC   C3A40205  39.272  39.260   7.050
 7451POPC   C4A40206  39.209  39.206   7.350
 7451POPC   C1B40207  39.396  39.046   6.450
 7451POPC   C2B40208  39.441  39.061   6.750
 7451POPC   C3B40209  39.403  39.131   7.050
 7451POPC   C4B40210  39.393  39.073   7.350
 7452POPC   NC340211  35.313  15.933   5.550
 7452POPC   PO440212  35.355  15.954   5.850
 7452POPC   GL140213  35.366  15.999   6.150
 7452POPC   GL240214  35.377  15.815   6.150
 7452POPC   C1A40215  35.310  15.907   6.450
 7452POPC   D2A40216  35.313  15.979   6.750
 7452POPC   C3A40217  35.324  15.976   7.050
 7452POPC   C4A40218  35.395  15.955   7.350
 7452POPC   C1B40219  35.393  15.666   6.450
 7452POPC   C2B40220  35.352  15.671   6.750
 7452POPC   C3B40221  35.326  15.668   7.050
 7452POPC   C4B40222  35.335  15.740   7.350
 7453POPC   NC340223   5.097  29.922   5.550
 7453POPC   PO440224   5.063  29.959   5.850
 7453POPC   GL140225   5.057  29.915   6.150
 7453POPC   GL240226   4.977  29.831   6.150
 7453POPC   C1A40227   5.048  29.920   6.450
 7453POPC   D2A40228   5.107  29.946   6.750
 7453POPC   C3A40229   5.076  29.898   7.050
 7453POPC   C4A40230   5.121  29.892   7.350
 7453POPC   C1B40231   4.883  29.748   6.450
 7453POPC   C2B40232   4.882  29.702   6.750
 7453POPC   C3B40233   4.903  29.741   7.050
 7453POPC   C4B40234   4.873  29.778   7.350
 7454POPC   NC340235   5.051   5.101   5.550
 7454POPC   PO440236   5.062   5.119   5.850
 7454POPC   GL140237   5.079   5.046   6.150
 7454POPC   GL240238   5.213   5.151   6.150
 7454POPC   C1A40239   5.113   5.129   6.450
 7454POPC   D2A40240   5.093   5.142   6.750
 7454POPC   C3A40241   5.140   5.045   7.050
 7454POPC   C4A40242   5.111   5.062   7.350
 7454POPC   C1B40243   5.285   5.191   6.450
 7454POPC   C2B40244   5.349   5.147   6.750
 7454POPC   C3B40245   5.378   5.141   7.050
 7454POPC   C4B40246   5.378   5.196   7.350
 7455POPC   NC340247  30.713  40.009   5.550
 7455POPC   PO440248  30.729  39.979   5.850
 7455POPC   GL140249  30.691  40.017   6.150
 7455POPC   GL240250  30.624  40.091   6.150
 7455POPC   C1A40251  30.720  39.989   6.450
 7455POPC   D2A40252  30.681  40.031   6.750
 7455POPC   C3A40253  30.663  40.050   7.050
 7455POPC   C4A40254  30.726  39.958   7.350
 7455POPC   C1B40255  30.443  40.062   6.450
 7455POPC   C2B40256  30.503  40.147   6.750
 7455POPC   C3B40257  30.495  40.115   7.050
 7455POPC   C4B40258  30.420  40.132   7.350
 7456POPC   NC340259  18.275  17.544   5.550
 7456POPC   PO440260  18.265  17.514   5.850
 7456POPC   GL140261  18.333  17.527   6.150
 7456POPC   GL240262  18.170  17.519   6.150
 7456POPC   C1A40263  18.245  17.504   6.450
 7456POPC   D2A40264  18.325  17.482   6.750
 7456POPC   C3A40265  18.294  17.463   7.050
 7456POPC   C4A40266  18.322  17.486   7.350
 7456POPC   C1B40267  18.045  17.564   6.450
 7456POPC   C2B40268  18.060  17.597   6.750
 7456POPC   C3B40269  18.024  17.627   7.050
 7456POPC   C4B40270  18.069  17.573   7.350
 7457POPC   NC340271   5.900   5.109   5.550
 7457POPC   PO440272   5.866   5.043   5.850
 7457POPC   GL140273   5.847   5.135   6.150
 7457POPC   GL240274   5.760   5.190   6.150
 7457POPC   C1A40275   5.865   5.098   6.450
 7457POPC   D2A40276   5.864   5.136   6.750
 7457POPC   C3A40277   5.834   5.047   7.050
 7457POPC   C4A40278   5.879   5.062   7.350
 7457POPC   C1B40279   5.681   5.279   6.450
 7457POPC   C2B40280   5.695   5.288   6.750
 7457POPC   C3B40281   5.623   5.260   7.050
 7457POPC   C4B40282   5.623   5.249   7.350
 7458POPC   NC340283   2.772   5.899   5.550
 7458POPC   PO440284   2.765   5.877   5.850
 7458POPC   GL140285   2.775   5.861   6.150
 7458POPC   GL240286   2.599   5.792   6.150
 7458POPC   C1A40287   2.806   5.858   6.450
 7458POPC   D2A40288   2.792   5.900   6.750
 7458POPC   C3A40289   2.778   5.896   7.050
 7458POPC   C4A40290   2.787   5.857   7.350
 7458POPC   C1B40291   2.560   5.808   6.450
 7458POPC   C2B40292   2.491   5.765   6.750
 7458POPC   C3B40293   2.530   5.805   7.050
 7458POPC   C4B40294   2.486   5.857   7.350
 7459POPC   NC340295  16.716   8.227   5.550
 7459POPC   PO440296  16.748   8.219   5.850
 7459POPC   GL140297  16.722   8.198   6.150
 7459POPC   GL240298  16.774   8.032   6.150
 7459POPC   C1A40299  16.686   8.219   6.450
 7459POPC   D2A40300  16.749   8.180   6.750
 7459POPC   C3A40301  16.778   8.161   7.050
 7459POPC   C4A40302  16.771   8.208   7.350
 7459POPC   C1B40303  16.757   7.937   6.450
 7459POPC   C2B40304  16.725   7.964   6.750
 7459POPC   C3B40305  16.747   7.991   7.050
 7459POPC   C4B40306  16.682   7.974   7.350
 7460POPC   NC340307  31.501  21.436   5.550
 7460POPC   PO440308  31.501  21.380   5.850
 7460POPC   GL140309  31.477  21.428   6.150
 7460POPC   GL240310  31.364  21.447   6.150
 7460POPC   C1A40311  31.482  21.390   6.450
 7460POPC   D2A40312  31.467  21.371   6.750
 7460POPC   C3A40313  31.492  21.358   7.050
 7460POPC   C4A40314  31.448  21.427   7.350
 7460POPC   C1B40315  31.317  21.588   6.450
 7460POPC   C2B40316  31.297  21.569   6.750
 7460POPC   C3B40317  31.293  21.508   7.050
 7460POPC   C4B40318  31.260  21.560   7.350
 7461POPC   NC340319  15.150  25.229   5.550
 7461POPC   PO440320  15.148  25.242   5.850
 7461POPC   GL140321  15.136  25.250   6.150
 7461POPC   GL240322  15.176  25.437   6.150
 7461POPC   C1A40323  15.131  25.310   6.450
 7461POPC   D2A40324  15.194  25.300   6.750
 7461POPC   C3A40325  15.166  25.241   7.050
 7461POPC   C4A40326  15.192  25.312   7.350
 7461POPC   C1B40327  15.245  25.551   6.450
 7461POPC   C2B40328  15.211  25.489   6.750
 7461POPC   C3B40329  15.160  25.480   7.050
 7461POPC   C4B40330  15.182  25.523   7.350
 7462POPC   NC340331   2.727  19.012   5.550
 7462POPC   PO440332   2.756  19.087   5.850
 7462POPC   GL140333   2.787  19.019   6.150
 7462POPC   GL240334   2.718  18.933   6.150
 7462POPC   C1A40335   2.788  19.021   6.450
 7462POPC   D2A40336   2.774  19.066   6.750
 7462POPC   C3A40337   2.716  19.040   7.050
 7462POPC   C4A40338   2.769  19.096   7.350
 7462POPC   C1B40339   2.653  18.811   6.450
 7462POPC   C2B40340   2.647  18.863   6.750
 7462POPC   C3B40341   2.639  18.849   7.050
 7462POPC   C4B40342   2.608  18.820   7.350
 7463POPC   NC340343   3.575  30.707   5.550
 7463POPC   PO440344   3.565  30.659   5.850
 7463POPC   GL140345   3.568  30.698   6.150
 7463POPC   GL240346   3.391  30.636   6.150
 7463POPC   C1A40347   3.533  30.737   6.450
 7463POPC   D2A40348   3.550  30.723   6.750
 7463POPC   C3A40349   3.531  30.694   7.050
 7463POPC   C4A40350   3.497  30.701   7.350
 7463POPC   C1B40351   3.244  30.637   6.450
 7463POPC   C2B40352   3.257  30.685   6.750
 7463POPC   C3B40353   3.288  30.651   7.050
 7463POPC   C4B40354   3.281  30.655   7.350
 7464POPC   NC340355  16.752  37.630   5.550
 7464POPC   PO440356  16.715  37.709   5.850
 7464POPC   GL140357  16.752  37.672   6.150
 7464POPC   GL240358  16.881  37.661   6.150
 7464POPC   C1A40359  16.754  37.714   6.450
 7464POPC   D2A40360  16.689  37.639   6.750
 7464POPC   C3A40361  16.731  37.647   7.050
 7464POPC   C4A40362  16.718  37.633   7.350
 7464POPC   C1B40363  17.002  37.712   6.450
 7464POPC   C2B40364  16.961  37.708   6.750
 7464POPC   C3B40365  16.936  37.696   7.050
 7464POPC   C4B40366  16.953  37.778   7.350
 7465POPC   NC340367  41.540  43.144   5.550
 7465POPC   PO440368  41.554  43.086   5.850
 7465POPC   GL140369  41.599  43.099   6.150
 7465POPC   GL240370  41.460  43.129   6.150
 7465POPC   C1A40371  41.580  43.160   6.450
 7465POPC   D2A40372  41.568  43.148   6.750
 7465POPC   C3A40373  41.532  43.153   7.050
 7465POPC   C4A40374  41.583  43.146   7.350
 7465POPC   C1B40375  41.341  43.139   6.450
 7465POPC   C2B40376  41.274  43.153   6.750
 7465POPC   C3B40377  41.285  43.100   7.050
 7465POPC   C4B40378  41.272  43.154   7.350
 7466POPC   NC340379  40.787   5.062   5.550
 7466POPC   PO440380  40.734   5.051   5.850
 7466POPC   GL140381  40.782   5.071   6.150
 7466POPC   GL240382  40.916   5.087   6.150
 7466POPC   C1A40383  40.737   5.080   6.450
 7466POPC   D2A40384  40.777   5.069   6.750
 7466POPC   C3A40385  40.799   5.044   7.050
 7466POPC   C4A40386  40.790   5.055   7.350
 7466POPC   C1B40387  41.022   5.128   6.450
 7466POPC   C2B40388  41.057   5.085   6.750
 7466POPC   C3B40389  40.987   5.115   7.050
 7466POPC   C4B40390  41.007   5.046   7.350
 7467POPC   NC340391  38.449  15.144   5.550
 7467POPC   PO440392  38.483  15.131   5.850
 7467POPC   GL140393  38.423  15.225   6.150
 7467POPC   GL240394  38.390  15.228   6.150
 7467POPC   C1A40395  38.415  15.195   6.450
 7467POPC   D2A40396  38.450  15.226   6.750
 7467POPC   C3A40397  38.442  15.169   7.050
 7467POPC   C4A40398  38.443  15.218   7.350
 7467POPC   C1B40399  38.274  15.256   6.450
 7467POPC   C2B40400  38.273  15.314   6.750
 7467POPC   C3B40401  38.277  15.297   7.050
 7467POPC   C4B40402  38.221  15.316   7.350
 7468POPC   NC340403   6.600  24.523   5.550
 7468POPC   PO440404   6.656  24.498   5.850
 7468POPC   GL140405   6.687  24.452   6.150
 7468POPC   GL240406   6.736  24.579   6.150
 7468POPC   C1A40407   6.634  24.522   6.450
 7468POPC   D2A40408   6.610  24.447   6.750
 7468POPC   C3A40409   6.663  24.496   7.050
 7468POPC   C4A40410   6.598  24.529   7.350
 7468POPC   C1B40411   6.875  24.575   6.450
 7468POPC   C2B40412   6.894  24.634   6.750
 7468POPC   C3B40413   6.880  24.604   7.050
 7468POPC   C4B40414   6.915  24.548   7.350
 7469POPC   NC340415  34.574  33.802   5.550
 7469POPC   PO440416  34.533  33.817   5.850
 7469POPC   GL140417  34.624  33.757   6.150
 7469POPC   GL240418  34.462  33.800   6.150
 7469POPC   C1A40419  34.598  33.809   6.450
 7469POPC   D2A40420  34.584  33.755   6.750
 7469POPC   C3A40421  34.529  33.780   7.050
 7469POPC   C4A40422  34.599  33.774   7.350
 7469POPC   C1B40423  34.303  33.737   6.450
 7469POPC   C2B40424  34.300  33.709   6.750
 7469POPC   C3B40425  34.343  33.749   7.050
 7469POPC   C4B40426  34.373  33.747   7.350
 7470POPC   NC340427   8.968   9.720   5.550
 7470POPC   PO440428   8.997   9.770   5.850
 7470POPC   GL140429   8.927   9.720   6.150
 7470POPC   GL240430   9.120   9.800   6.150
 7470POPC   C1A40431   8.952   9.722   6.450
 7470POPC   D2A40432   9.002   9.773   6.750
 7470POPC   C3A40433   9.012   9.745   7.050
 7470POPC   C4A40434   8.932   9.787   7.350
 7470POPC   C1B40435   9.173   9.844   6.450
 7470POPC   C2B40436   9.177   9.917   6.750
 7470POPC   C3B40437   9.144   9.837   7.050
 7470POPC   C4B40438   9.190   9.867   7.350
 7471POPC   NC340439  39.270  40.793   5.550
 7471POPC   PO440440  39.280  40.773   5.850
 7471POPC   GL140441  39.279  40.780   6.150
 7471POPC   GL240442  39.386  40.770   6.150
 7471POPC   C1A40443  39.225  40.794   6.450
 7471POPC   D2A40444  39.221  40.784   6.750
 7471POPC   C3A40445  39.236  40.809   7.050
 7471POPC   C4A40446  39.252  40.746   7.350
 7471POPC   C1B40447  39.525  40.831   6.450
 7471POPC   C2B40448  39.475  40.809   6.750
 7471POPC   C3B40449  39.479  40.796   7.050
 7471POPC   C4B40450  39.477  40.779   7.350
 7472POPC   NC340451   3.536  20.645   5.550
 7472POPC   PO440452   3.506  20.644   5.850
 7472POPC   GL140453   3.591  20.600   6.150
 7472POPC   GL240454   3.474  20.467   6.150
 7472POPC   C1A40455   3.539  20.585   6.450
 7472POPC   D2A40456   3.518  20.561   6.750
 7472POPC   C3A40457   3.591  20.655   7.050
 7472POPC   C4A40458   3.583  20.652   7.350
 7472POPC   C1B40459   3.398  20.336   6.450
 7472POPC   C2B40460   3.452  20.429   6.750
 7472POPC   C3B40461   3.394  20.368   7.050
 7472POPC   C4B40462   3.446  20.432   7.350
 7473POPC   NC340463  29.895  42.319   5.550
 7473POPC   PO440464  29.888  42.365   5.850
 7473POPC   GL140465  29.914  42.381   6.150
 7473POPC   GL240466  29.997  42.223   6.150
 7473POPC   C1A40467  29.908  42.379   6.450
 7473POPC   D2A40468  29.883  42.370   6.750
 7473POPC   C3A40469  29.890  42.371   7.050
 7473POPC   C4A40470  29.905  42.313   7.350
 7473POPC   C1B40471  30.107  42.094   6.450
 7473POPC   C2B40472  30.078  42.095   6.750
 7473POPC   C3B40473  30.104  42.140   7.050
 7473POPC   C4B40474  30.035  42.139   7.350
 7474POPC   NC340475  38.417  41.515   5.550
 7474POPC   PO440476  38.468  41.531   5.850
 7474POPC   GL140477  38.450  41.548   6.150
 7474POPC   GL240478  38.337  41.529   6.150
 7474POPC   C1A40479  38.443  41.515   6.450
 7474POPC   D2A40480  38.423  41.555   6.750
 7474POPC   C3A40481  38.419  41.543   7.050
 7474POPC   C4A40482  38.409  41.523   7.350
 7474POPC   C1B40483  38.211  41.459   6.450
 7474POPC   C2B40484  38.214  41.486   6.750
 7474POPC   C3B40485  38.261  41.489   7.050
 7474POPC   C4B40486  38.233  41.484   7.350
 7475POPC   NC340487   1.263  22.204   5.550
 7475POPC   PO440488   1.215  22.193   5.850
 7475POPC   GL140489   1.257  22.166   6.150
 7475POPC   GL240490   1.154  22.029   6.150
 7475POPC   C1A40491   1.196  22.141   6.450
 7475POPC   D2A40492   1.242  22.116   6.750
 7475POPC   C3A40493   1.214  22.158   7.050
 7475POPC   C4A40494   1.260  22.133   7.350
 7475POPC   C1B40495   1.027  22.043   6.450
 7475POPC   C2B40496   1.044  21.980   6.750
 7475POPC   C3B40497   1.060  21.950   7.050
 7475POPC   C4B40498   1.056  22.011   7.350
 7476POPC   NC340499   5.137   0.432   5.550
 7476POPC   PO440500   5.068   0.418   5.850
 7476POPC   GL140501   5.056   0.472   6.150
 7476POPC   GL240502   5.079   0.584   6.150
 7476POPC   C1A40503   5.107   0.456   6.450
 7476POPC   D2A40504   5.102   0.426   6.750
 7476POPC   C3A40505   5.061   0.439   7.050
 7476POPC   C4A40506   5.141   0.464   7.350
 7476POPC   C1B40507   5.020   0.630   6.450
 7476POPC   C2B40508   4.958   0.667   6.750
 7476POPC   C3B40509   4.949   0.627   7.050
 7476POPC   C4B40510   4.937   0.688   7.350
 7477POPC   NC340511  25.274  12.860   5.550
 7477POPC   PO440512  25.226  12.843   5.850
 7477POPC   GL140513  25.265  12.838   6.150
 7477POPC   GL240514  25.382  12.914   6.150
 7477POPC   C1A40515  25.238  12.841   6.450
 7477POPC   D2A40516  25.252  12.873   6.750
 7477POPC   C3A40517  25.316  12.822   7.050
 7477POPC   C4A40518  25.310  12.872   7.350
 7477POPC   C1B40519  25.497  12.963   6.450
 7477POPC   C2B40520  25.464  12.955   6.750
 7477POPC   C3B40521  25.532  12.985   7.050
 7477POPC   C4B40522  25.459  12.961   7.350
 7478POPC   NC340523   3.517   0.390   5.550
 7478POPC   PO440524   3.492   0.480   5.850
 7478POPC   GL140525   3.529   0.429   6.150
 7478POPC   GL240526   3.543   0.588   6.150
 7478POPC   C1A40527   3.578   0.423   6.450
 7478POPC   D2A40528   3.540   0.485   6.750
 7478POPC   C3A40529   3.572   0.442   7.050
 7478POPC   C4A40530   3.509   0.435   7.350
 7478POPC   C1B40531   3.586   0.730   6.450
 7478POPC   C2B40532   3.569   0.701   6.750
 7478POPC   C3B40533   3.616   0.710   7.050
 7478POPC   C4B40534   3.589   0.657   7.350
 7479POPC   NC340535  34.537  13.616   5.550
 7479POPC   PO440536  34.541  13.583   5.850
 7479POPC   GL140537  34.594  13.593   6.150
 7479POPC   GL240538  34.645  13.789   6.150
 7479POPC   C1A40539  34.616  13.664   6.450
 7479POPC   D2A40540  34.547  13.595   6.750
 7479POPC   C3A40541  34.549  13.583   7.050
 7479POPC   C4A40542  34.622  13.587   7.350
 7479POPC   C1B40543  34.601  13.845   6.450
 7479POPC   C2B40544  34.667  13.863   6.750
 7479POPC   C3B40545  34.683  13.833   7.050
 7479POPC   C4B40546  34.637  13.878   7.350
 7480POPC   NC340547   2.020  19.830   5.550
 7480POPC   PO440548   1.990  19.821   5.850
 7480POPC   GL140549   1.962  19.818   6.150
 7480POPC   GL240550   1.997  19.961   6.150
 7480POPC   C1A40551   1.997  19.884   6.450
 7480POPC   D2A40552   2.034  19.867   6.750
 7480POPC   C3A40553   1.960  19.840   7.050
 7480POPC   C4A40554   1.947  19.850   7.350
 7480POPC   C1B40555   1.994  20.065   6.450
 7480POPC   C2B40556   2.026  20.089   6.750
 7480POPC   C3B40557   2.002  20.058   7.050
 7480POPC   C4B40558   2.041  20.121   7.350
 7481POPC   NC340559  26.809  37.686   5.550
 7481POPC   PO440560  26.779  37.729   5.850
 7481POPC   GL140561  26.817  37.652   6.150
 7481POPC   GL240562  26.913  37.601   6.150
 7481POPC   C1A40563  26.801  37.638   6.450
 7481POPC   D2A40564  26.771  37.630   6.750
 7481POPC   C3A40565  26.809  37.676   7.050
 7481POPC   C4A40566  26.808  37.644   7.350
 7481POPC   C1B40567  27.014  37.485   6.450
 7481POPC   C2B40568  26.959  37.473   6.750
 7481POPC   C3B40569  26.988  37.516   7.050
 7481POPC   C4B40570  26.995  37.450   7.350
 7482POPC   NC340571  16.780  36.110   5.550
 7482POPC   PO440572  16.755  36.129   5.850
 7482POPC   GL140573  16.764  36.153   6.150
 7482POPC   GL240574  16.878  36.177   6.150
 7482POPC   C1A40575  16.692  36.150   6.450
 7482POPC   D2A40576  16.739  36.090   6.750
 7482POPC   C3A40577  16.753  36.145   7.050
 7482POPC   C4A40578  16.757  36.169   7.350
 7482POPC   C1B40579  16.995  36.151   6.450
 7482POPC   C2B40580  16.962  36.171   6.750
 7482POPC   C3B40581  16.944  36.100   7.050
 7482POPC   C4B40582  16.936  36.100   7.350
 7483POPC   NC340583  10.490  29.953   5.550
 7483POPC   PO440584  10.516  29.908   5.850
 7483POPC   GL140585  10.539  29.955   6.150
 7483POPC   GL240586  10.681  29.913   6.150
 7483POPC   C1A40587  10.491  29.888   6.450
 7483POPC   D2A40588  10.531  29.893   6.750
 7483POPC   C3A40589  10.567  29.895   7.050
 7483POPC   C4A40590  10.508  29.931   7.350
 7483POPC   C1B40591  10.800  29.962   6.450
 7483POPC   C2B40592  10.738  30.044   6.750
 7483POPC   C3B40593  10.782  30.040   7.050
 7483POPC   C4B40594  10.751  30.046   7.350
 7484POPC   NC340595  30.735  41.562   5.550
 7484POPC   PO440596  30.736  41.548   5.850
 7484POPC   GL140597  30.694  41.531   6.150
 7484POPC   GL240598  30.669  41.467   6.150
 7484POPC   C1A40599  30.706  41.563   6.450
 7484POPC   D2A40600  30.678  41.515   6.750
 7484POPC   C3A40601  30.740  41.538   7.050
 7484POPC   C4A40602  30.727  41.580   7.350
 7484POPC   C1B40603  30.682  41.302   6.450
 7484POPC   C2B40604  30.655  41.330   6.750
 7484POPC   C3B40605  30.659  41.325   7.050
 7484POPC   C4B40606  30.649  41.285   7.350
 7485POPC   NC340607  14.385  14.438   5.550
 7485POPC   PO440608  14.410  14.447   5.850
 7485POPC   GL140609  14.367  14.452   6.150
 7485POPC   GL240610  14.545  14.376   6.150
 7485POPC   C1A40611  14.448  14.431   6.450
 7485POPC   D2A40612  14.380  14.414   6.750
 7485POPC   C3A40613  14.418  14.369   7.050
 7485POPC   C4A40614  14.392  14.370   7.350
 7485POPC   C1B40615  14.676  14.299   6.450
 7485POPC   C2B40616  14.643  14.356   6.750
 7485POPC   C3B40617  14.599  14.274   7.050
 7485POPC   C4B40618  14.623  14.288   7.350
 7486POPC   NC340619  15.938  41.583   5.550
 7486POPC   PO440620  15.979  41.569   5.850
 7486POPC   GL140621  15.973  41.548   6.150
 7486POPC   GL240622  16.099  41.628   6.150
 7486POPC   C1A40623  15.959  41.571   6.450
 7486POPC   D2A40624  15.943  41.510   6.750
 7486POPC   C3A40625  16.004  41.547   7.050
 7486POPC   C4A40626  15.925  41.556   7.350
 7486POPC   C1B40627  16.123  41.708   6.450
 7486POPC   C2B40628  16.166  41.692   6.750
 7486POPC   C3B40629  16.194  41.656   7.050
 7486POPC   C4B40630  16.214  41.698   7.350
 7487POPC   NC340631   8.168   1.248   5.550
 7487POPC   PO440632   8.223   1.258   5.850
 7487POPC   GL140633   8.150   1.201   6.150
 7487POPC   GL240634   8.257   1.113   6.150
 7487POPC   C1A40635   8.234   1.245   6.450
 7487POPC   D2A40636   8.154   1.194   6.750
 7487POPC   C3A40637   8.231   1.214   7.050
 7487POPC   C4A40638   8.205   1.179   7.350
 7487POPC   C1B40639   8.423   1.050   6.450
 7487POPC   C2B40640   8.421   1.099   6.750
 7487POPC   C3B40641   8.453   1.054   7.050
 7487POPC   C4B40642   8.368   1.118   7.350
 7488POPC   NC340643  23.754   1.179   5.550
 7488POPC   PO440644  23.711   1.240   5.850
 7488POPC   GL140645  23.739   1.243   6.150
 7488POPC   GL240646  23.691   1.146   6.150
 7488POPC   C1A40647  23.732   1.179   6.450
 7488POPC   D2A40648  23.706   1.195   6.750
 7488POPC   C3A40649  23.706   1.242   7.050
 7488POPC   C4A40650  23.721   1.253   7.350
 7488POPC   C1B40651  23.594   0.964   6.450
 7488POPC   C2B40652  23.608   0.980   6.750
 7488POPC   C3B40653  23.629   1.004   7.050
 7488POPC   C4B40654  23.655   0.970   7.350
 7489POPC   NC340655  35.339   8.965   5.550
 7489POPC   PO440656  35.399   8.981   5.850
 7489POPC   GL140657  35.330   8.991   6.150
 7489POPC   GL240658  35.438   8.946   6.150
 7489POPC   C1A40659  35.313   8.982   6.450
 7489POPC   D2A40660  35.378   8.959   6.750
 7489POPC   C3A40661  35.335   8.965   7.050
 7489POPC   C4A40662  35.394   9.010   7.350
 7489POPC   C1B40663  35.553   8.986   6.450
 7489POPC   C2B40664  35.602   8.992   6.750
 7489POPC   C3B40665  35.566   8.933   7.050
 7489POPC   C4B40666  35.601   8.996   7.350
 7490POPC   NC340667  42.377   6.670   5.550
 7490POPC   PO440668  42.361   6.610   5.850
 7490POPC   GL140669  42.377   6.618   6.150
 7490POPC   GL240670  42.424   6.586   6.150
 7490POPC   C1A40671  42.343   6.617   6.450
 7490POPC   D2A40672  42.350   6.605   6.750
 7490POPC   C3A40673  42.342   6.599   7.050
 7490POPC   C4A40674  42.351   6.607   7.350
 7490POPC   C1B40675  42.470   6.433   6.450
 7490POPC   C2B40676  42.457   6.444   6.750
 7490POPC   C3B40677  42.484   6.414   7.050
 7490POPC   C4B40678  42.482   6.426   7.350
 7491POPC   NC340679  31.500  15.137   5.550
 7491POPC   PO440680  31.444  15.212   5.850
 7491POPC   GL140681  31.438  15.211   6.150
 7491POPC   GL240682  31.573  15.205   6.150
 7491POPC   C1A40683  31.429  15.190   6.450
 7491POPC   D2A40684  31.463  15.163   6.750
 7491POPC   C3A40685  31.441  15.194   7.050
 7491POPC   C4A40686  31.512  15.134   7.350
 7491POPC   C1B40687  31.743  15.212   6.450
 7491POPC   C2B40688  31.747  15.242   6.750
 7491POPC   C3B40689  31.683  15.225   7.050
 7491POPC   C4B40690  31.753  15.278   7.350
 7492POPC   NC340691  26.005   5.915   5.550
 7492POPC   PO440692  26.011   5.870   5.850
 7492POPC   GL140693  26.085   5.843   6.150
 7492POPC   GL240694  25.911   5.885   6.150
 7492POPC   C1A40695  26.022   5.871   6.450
 7492POPC   D2A40696  26.060   5.849   6.750
 7492POPC   C3A40697  26.049   5.823   7.050
 7492POPC   C4A40698  26.017   5.833   7.350
 7492POPC   C1B40699  25.815   5.944   6.450
 7492POPC   C2B40700  25.769   5.975   6.750
 7492POPC   C3B40701  25.820   5.969   7.050
 7492POPC   C4B40702  25.856   5.918   7.350
 7493POPC   NC340703  19.859  18.325   5.550
 7493POPC   PO440704  19.797  18.290   5.850
 7493POPC   GL140705  19.793  18.260   6.150
 7493POPC   GL240706  19.714  18.282   6.150
 7493POPC   C1A40707  19.815  18.329   6.450
 7493POPC   D2A40708  19.866  18.269   6.750
 7493POPC   C3A40709  19.875  18.237   7.050
 7493POPC   C4A40710  19.860  18.298   7.350
 7493POPC   C1B40711  19.625  18.332   6.450
 7493POPC   C2B40712  19.541  18.257   6.750
 7493POPC   C3B40713  19.577  18.329   7.050
 7493POPC   C4B40714  19.578  18.270   7.350
 7494POPC   NC340715   1.240  11.347   5.550
 7494POPC   PO440716   1.177  11.258   5.850
 7494POPC   GL140717   1.252  11.330   6.150
 7494POPC   GL240718   1.092  11.201   6.150
 7494POPC   C1A40719   1.226  11.349   6.450
 7494POPC   D2A40720   1.246  11.337   6.750
 7494POPC   C3A40721   1.209  11.279   7.050
 7494POPC   C4A40722   1.184  11.336   7.350
 7494POPC   C1B40723   0.978  11.179   6.450
 7494POPC   C2B40724   0.985  11.204   6.750
 7494POPC   C3B40725   1.034  11.204   7.050
 7494POPC   C4B40726   0.961  11.157   7.350
 7495POPC   NC340727  38.436  42.358   5.550
 7495POPC   PO440728  38.441  42.349   5.850
 7495POPC   GL140729  38.484  42.297   6.150
 7495POPC   GL240730  38.541  42.490   6.150
 7495POPC   C1A40731  38.481  42.347   6.450
 7495POPC   D2A40732  38.503  42.319   6.750
 7495POPC   C3A40733  38.485  42.352   7.050
 7495POPC   C4A40734  38.423  42.338   7.350
 7495POPC   C1B40735  38.540  42.572   6.450
 7495POPC   C2B40736  38.595  42.548   6.750
 7495POPC   C3B40737  38.604  42.590   7.050
 7495POPC   C4B40738  38.579  42.580   7.350
 7496POPC   NC340739  33.795   8.928   5.550
 7496POPC   PO440740  33.788   8.998   5.850
 7496POPC   GL140741  33.780   8.973   6.150
 7496POPC   GL240742  33.835   9.060   6.150
 7496POPC   C1A40743  33.752   8.970   6.450
 7496POPC   D2A40744  33.785   8.986   6.750
 7496POPC   C3A40745  33.807   8.965   7.050
 7496POPC   C4A40746  33.839   8.974   7.350
 7496POPC   C1B40747  33.914   9.172   6.450
 7496POPC   C2B40748  33.961   9.209   6.750
 7496POPC   C3B40749  33.959   9.207   7.050
 7496POPC   C4B40750  33.897   9.187   7.350
 7497POPC   NC340751  36.863  40.036   5.550
 7497POPC   PO440752  36.936  40.032   5.850
 7497POPC   GL140753  36.932  39.999   6.150
 7497POPC   GL240754  36.805  39.982   6.150
 7497POPC   C1A40755  36.889  39.970   6.450
 7497POPC   D2A40756  36.932  39.974   6.750
 7497POPC   C3A40757  36.894  39.986   7.050
 7497POPC   C4A40758  36.888  40.035   7.350
 7497POPC   C1B40759  36.627  40.006   6.450
 7497POPC   C2B40760  36.615  40.063   6.750
 7497POPC   C3B40761  36.668  40.055   7.050
 7497POPC   C4B40762  36.619  39.993   7.350
 7498POPC   NC340763  36.108   7.447   5.550
 7498POPC   PO440764  36.156   7.389   5.850
 7498POPC   GL140765  36.176   7.459   6.150
 7498POPC   GL240766  36.077   7.314   6.150
 7498POPC   C1A40767  36.164   7.423   6.450
 7498POPC   D2A40768  36.144   7.444   6.750
 7498POPC   C3A40769  36.095   7.390   7.050
 7498POPC   C4A40770  36.110   7.396   7.350
 7498POPC   C1B40771  36.029   7.194   6.450
 7498POPC   C2B40772  35.980   7.213   6.750
 7498POPC   C3B40773  35.968   7.236   7.050
 7498POPC   C4B40774  35.997   7.248   7.350
 7499POPC   NC340775  26.003  12.091   5.550
 7499POPC   PO440776  26.012  12.113   5.850
 7499POPC   GL140777  26.040  12.065   6.150
 7499POPC   GL240778  25.880  12.027   6.150
 7499POPC   C1A40779  26.038  12.103   6.450
 7499POPC   D2A40780  26.031  12.055   6.750
 7499POPC   C3A40781  26.029  12.073   7.050
 7499POPC   C4A40782  25.992  12.090   7.350
 7499POPC   C1B40783  25.749  12.102   6.450
 7499POPC   C2B40784  25.766  12.043   6.750
 7499POPC   C3B40785  25.821  12.029   7.050
 7499POPC   C4B40786  25.762  12.102   7.350
 7500POPC   NC340787   5.835  25.226   5.550
 7500POPC   PO440788   5.829  25.227   5.850
 7500POPC   GL140789   5.911  25.267   6.150
 7500POPC   GL240790   5.965  25.385   6.150
 7500POPC   C1A40791   5.914  25.228   6.450
 7500POPC   D2A40792   5.914  25.258   6.750
 7500POPC   C3A40793   5.820  25.221   7.050
 7500POPC   C4A40794   5.894  25.289   7.350
 7500POPC   C1B40795   6.024  25.428   6.450
 7500POPC   C2B40796   6.058  25.456   6.750
 7500POPC   C3B40797   6.040  25.422   7.050
 7500POPC   C4B40798   5.992  25.438   7.350
 7501POPC   NC340799  35.360  23.691   5.550
 7501POPC   PO440800  35.307  23.759   5.850
 7501POPC   GL140801  35.339  23.680   6.150
 7501POPC   GL240802  35.394  23.625   6.150
 7501POPC   C1A40803  35.309  23.688   6.450
 7501POPC   D2A40804  35.343  23.687   6.750
 7501POPC   C3A40805  35.383  23.748   7.050
 7501POPC   C4A40806  35.375  23.727   7.350
 7501POPC   C1B40807  35.430  23.509   6.450
 7501POPC   C2B40808  35.419  23.475   6.750
 7501POPC   C3B40809  35.406  23.439   7.050
 7501POPC   C4B40810  35.419  23.434   7.350
 7502POPC   NC340811  13.669  21.421   5.550
 7502POPC   PO440812  13.583  21.432   5.850
 7502POPC   GL140813  13.585  21.433   6.150
 7502POPC   GL240814  13.712  21.435   6.150
 7502POPC   C1A40815  13.662  21.436   6.450
 7502POPC   D2A40816  13.581  21.388   6.750
 7502POPC   C3A40817  13.626  21.427   7.050
 7502POPC   C4A40818  13.591  21.431   7.350
 7502POPC   C1B40819  13.819  21.549   6.450
 7502POPC   C2B40820  13.886  21.554   6.750
 7502POPC   C3B40821  13.827  21.476   7.050
 7502POPC   C4B40822  13.848  21.486   7.350
 7503POPC   NC340823  13.628   6.624   5.550
 7503POPC   PO440824  13.579   6.690   5.850
 7503POPC   GL140825  13.655   6.693   6.150
 7503POPC   GL240826  13.461   6.655   6.150
 7503POPC   C1A40827  13.615   6.658   6.450
 7503POPC   D2A40828  13.615   6.664   6.750
 7503POPC   C3A40829  13.631   6.603   7.050
 7503POPC   C4A40830  13.662   6.625   7.350
 7503POPC   C1B40831  13.412   6.661   6.450
 7503POPC   C2B40832  13.429   6.640   6.750
 7503POPC   C3B40833  13.422   6.653   7.050
 7503POPC   C4B40834  13.375   6.716   7.350
 7504POPC   NC340835   8.172   9.746   5.550
 7504POPC   PO440836   8.232   9.748   5.850
 7504POPC   GL140837   8.198   9.752   6.150
 7504POPC   GL240838   8.104   9.853   6.150
 7504POPC   C1A40839   8.219   9.716   6.450
 7504POPC   D2A40840   8.178   9.704   6.750
 7504POPC   C3A40841   8.220   9.700   7.050
 7504POPC   C4A40842   8.167   9.765   7.350
 7504POPC   C1B40843   8.140   9.984   6.450
 7504POPC   C2B40844   8.073   9.978   6.750
 7504POPC   C3B40845   8.097   9.982   7.050
 7504POPC   C4B40846   8.106   9.940   7.350
 7505POPC   NC340847  11.288   5.046   5.550
 7505POPC   PO440848  11.300   5.115   5.850
 7505POPC   GL140849  11.287   5.127   6.150
 7505POPC   GL240850  11.409   5.043   6.150
 7505POPC   C1A40851  11.265   5.049   6.450
 7505POPC   D2A40852  11.337   5.065   6.750
 7505POPC   C3A40853  11.313   5.097   7.050
 7505POPC   C4A40854  11.311   5.063   7.350
 7505POPC   C1B40855  11.579   5.126   6.450
 7505POPC   C2B40856  11.535   5.099   6.750
 7505POPC   C3B40857  11.577   5.112   7.050
 7505POPC   C4B40858  11.509   5.065   7.350
 7506POPC   NC340859  42.375  34.562   5.550
 7506POPC   PO440860  42.383  34.573   5.850
 7506POPC   GL140861  42.372  34.545   6.150
 7506POPC   GL240862  42.328  34.691   6.150
 7506POPC   C1A40863  42.314  34.574   6.450
 7506POPC   D2A40864  42.363  34.555   6.750
 7506POPC   C3A40865  42.315  34.555   7.050
 7506POPC   C4A40866  42.379  34.602   7.350
 7506POPC   C1B40867  42.336  34.792   6.450
 7506POPC   C2B40868  42.316  34.853   6.750
 7506POPC   C3B40869  42.277  34.832   7.050
 7506POPC   C4B40870  42.327  34.799   7.350
 7507POPC   NC340871  19.830  32.228   5.550
 7507POPC   PO440872  19.794  32.290   5.850
 7507POPC   GL140873  19.786  32.218   6.150
 7507POPC   GL240874  19.771  32.160   6.150
 7507POPC   C1A40875  19.787  32.276   6.450
 7507POPC   D2A40876  19.786  32.285   6.750
 7507POPC   C3A40877  19.859  32.217   7.050
 7507POPC   C4A40878  19.857  32.227   7.350
 7507POPC   C1B40879  19.650  32.121   6.450
 7507POPC   C2B40880  19.627  32.071   6.750
 7507POPC   C3B40881  19.586  32.090   7.050
 7507POPC   C4B40882  19.624  32.107   7.350
 7508POPC   NC340883  26.041  38.458   5.550
 7508POPC   PO440884  26.081  38.501   5.850
 7508POPC   GL140885  26.081  38.504   6.150
 7508POPC   GL240886  26.041  38.324   6.150
 7508POPC   C1A40887  26.076  38.423   6.450
 7508POPC   D2A40888  26.028  38.497   6.750
 7508POPC   C3A40889  26.050  38.455   7.050
 7508POPC   C4A40890  26.032  38.460   7.350
 7508POPC   C1B40891  25.924  38.193   6.450
 7508POPC   C2B40892  25.959  38.209   6.750
 7508POPC   C3B40893  25.930  38.243   7.050
 7508POPC   C4B40894  25.904  38.208   7.350
 7509POPC   NC340895  43.104  20.612   5.550
 7509POPC   PO440896  43.089  20.648   5.850
 7509POPC   GL140897  43.142  20.628   6.150
 7509POPC   GL240898  43.230  20.567   6.150
 7509POPC   C1A40899  43.091  20.585   6.450
 7509POPC   D2A40900  43.113  20.647   6.750
 7509POPC   C3A40901  43.087  20.619   7.050
 7509POPC   C4A40902  43.063  20.609   7.350
 7509POPC   C1B40903  43.408  20.652   6.450
 7509POPC   C2B40904  43.330  20.598   6.750
 7509POPC   C3B40905  43.408  20.627   7.050
 7509POPC   C4B40906  43.312  20.617   7.350
 7510POPC   NC340907  35.322  12.848   5.550
 7510POPC   PO440908  35.356  12.887   5.850
 7510POPC   GL140909  35.373  12.854   6.150
 7510POPC   GL240910  35.308  12.758   6.150
 7510POPC   C1A40911  35.312  12.804   6.450
 7510POPC   D2A40912  35.399  12.902   6.750
 7510POPC   C3A40913  35.311  12.814   7.050
 7510POPC   C4A40914  35.340  12.830   7.350
 7510POPC   C1B40915  35.268  12.585   6.450
 7510POPC   C2B40916  35.217  12.630   6.750
 7510POPC   C3B40917  35.230  12.599   7.050
 7510POPC   C4B40918  35.236  12.597   7.350
 7511POPC   NC340919  25.315   7.441   5.550
 7511POPC   PO440920  25.232   7.462   5.850
 7511POPC   GL140921  25.277   7.385   6.150
 7511POPC   GL240922  25.114   7.407   6.150
 7511POPC   C1A40923  25.232   7.424   6.450
 7511POPC   D2A40924  25.258   7.416   6.750
 7511POPC   C3A40925  25.262   7.376   7.050
 7511POPC   C4A40926  25.237   7.376   7.350
 7511POPC   C1B40927  25.040   7.442   6.450
 7511POPC   C2B40928  24.975   7.437   6.750
 7511POPC   C3B40929  24.986   7.428   7.050
 7511POPC   C4B40930  24.972   7.445   7.350
 7512POPC   NC340931  41.577  41.565   5.550
 7512POPC   PO440932  41.540  41.602   5.850
 7512POPC   GL140933  41.565  41.528   6.150
 7512POPC   GL240934  41.608  41.722   6.150
 7512POPC   C1A40935  41.584  41.601   6.450
 7512POPC   D2A40936  41.521  41.527   6.750
 7512POPC   C3A40937  41.559  41.544   7.050
 7512POPC   C4A40938  41.591  41.602   7.350
 7512POPC   C1B40939  41.570  41.787   6.450
 7512POPC   C2B40940  41.574  41.801   6.750
 7512POPC   C3B40941  41.609  41.769   7.050
 7512POPC   C4B40942  41.598  41.832   7.350
 7513POPC   NC340943  30.728  38.482   5.550
 7513POPC   PO440944  30.662  38.478   5.850
 7513POPC   GL140945  30.739  38.427   6.150
 7513POPC   GL240946  30.605  38.494   6.150
 7513POPC   C1A40947  30.697  38.422   6.450
 7513POPC   D2A40948  30.732  38.475   6.750
 7513POPC   C3A40949  30.650  38.476   7.050
 7513POPC   C4A40950  30.693  38.412   7.350
 7513POPC   C1B40951  30.479  38.616   6.450
 7513POPC   C2B40952  30.456  38.620   6.750
 7513POPC   C3B40953  30.549  38.585   7.050
 7513POPC   C4B40954  30.512  38.617   7.350
 7514POPC   NC340955  19.016  44.680   5.550
 7514POPC   PO440956  19.033  44.643   5.850
 7514POPC   GL140957  19.036  44.696   6.150
 7514POPC   GL240958  19.134  44.590   6.150
 7514POPC   C1A40959  19.041  44.674   6.450
 7514POPC   D2A40960  19.013  44.640   6.750
 7514POPC   C3A40961  19.015  44.617   7.050
 7514POPC   C4A40962  19.103  44.674   7.350
 7514POPC   C1B40963  19.195  44.480   6.450
 7514POPC   C2B40964  19.238  44.472   6.750
 7514POPC   C3B40965  19.210  44.499   7.050
 7514POPC   C4B40966  19.240  44.506   7.350
 7515POPC   NC340967  26.824  36.898   5.550
 7515POPC   PO440968  26.838  36.878   5.850
 7515POPC   GL140969  26.785  36.945   6.150
 7515POPC   GL240970  26.759  36.853   6.150
 7515POPC   C1A40971  26.768  36.913   6.450
 7515POPC   D2A40972  26.804  36.931   6.750
 7515POPC   C3A40973  26.846  36.927   7.050
 7515POPC   C4A40974  26.866  36.869   7.350
 7515POPC   C1B40975  26.608  36.747   6.450
 7515POPC   C2B40976  26.572  36.725   6.750
 7515POPC   C3B40977  26.596  36.811   7.050
 7515POPC   C4B40978  26.619  36.764   7.350
 7516POPC   NC340979  39.217  44.700   5.550
 7516POPC   PO440980  39.277  44.697   5.850
 7516POPC   GL140981  39.202  44.672   6.150
 7516POPC   GL240982  39.215  44.796   6.150
 7516POPC   C1A40983  39.230  44.633   6.450
 7516POPC   D2A40984  39.202  44.686   6.750
 7516POPC   C3A40985  39.236  44.709   7.050
 7516POPC   C4A40986  39.236  44.626   7.350
 7516POPC   C1B40987  39.243  44.869   6.450
 7516POPC   C2B40988  39.306  44.935   6.750
 7516POPC   C3B40989  39.242  44.880   7.050
 7516POPC   C4B40990  39.275  44.937   7.350
 7517POPC   NC340991  23.751  43.935   5.550
 7517POPC   PO440992  23.687  43.904   5.850
 7517POPC   GL140993  23.724  43.933   6.150
 7517POPC   GL240994  23.800  43.959   6.150
 7517POPC   C1A40995  23.723  43.888   6.450
 7517POPC   D2A40996  23.720  43.895   6.750
 7517POPC   C3A40997  23.714  43.933   7.050
 7517POPC   C4A40998  23.665  43.861   7.350
 7517POPC   C1B40999  23.806  44.110   6.450
 7517POPC   C2B41000  23.852  44.139   6.750
 7517POPC   C3B41001  23.783  44.141   7.050
 7517POPC   C4B41002  23.796  44.135   7.350
 7518POPC   NC341003  13.632   2.815   5.550
 7518POPC   PO441004  13.636   2.718   5.850
 7518POPC   GL141005  13.637   2.741   6.150
 7518POPC   GL241006  13.786   2.761   6.150
 7518POPC   C1A41007  13.607   2.751   6.450
 7518POPC   D2A41008  13.637   2.797   6.750
 7518POPC   C3A41009  13.623   2.716   7.050
 7518POPC   C4A41010  13.661   2.743   7.350
 7518POPC   C1B41011  13.816   2.697   6.450
 7518POPC   C2B41012  13.887   2.677   6.750
 7518POPC   C3B41013  13.821   2.649   7.050
 7518POPC   C4B41014  13.901   2.713   7.350
 7519POPC   NC341015  15.992   2.772   5.550
 7519POPC   PO441016  15.922   2.722   5.850
 7519POPC   GL141017  15.978   2.780   6.150
 7519POPC   GL241018  15.890   2.798   6.150
 7519POPC   C1A41019  15.947   2.760   6.450
 7519POPC   D2A41020  15.992   2.797   6.750
 7519POPC   C3A41021  15.908   2.801   7.050
 7519POPC   C4A41022  15.932   2.749   7.350
 7519POPC   C1B41023  15.754   2.838   6.450
 7519POPC   C2B41024  15.706   2.835   6.750
 7519POPC   C3B41025  15.723   2.835   7.050
 7519POPC   C4B41026  15.712   2.925   7.350
 7520POPC   NC341027   2.797   8.956   5.550
 7520POPC   PO441028   2.733   8.993   5.850
 7520POPC   GL141029   2.762   8.975   6.150
 7520POPC   GL241030   2.628   8.881   6.150
 7520POPC   C1A41031   2.721   8.972   6.450
 7520POPC   D2A41032   2.752   8.999   6.750
 7520POPC   C3A41033   2.756   8.999   7.050
 7520POPC   C4A41034   2.743   8.940   7.350
 7520POPC   C1B41035   2.538   8.824   6.450
 7520POPC   C2B41036   2.583   8.865   6.750
 7520POPC   C3B41037   2.539   8.822   7.050
 7520POPC   C4B41038   2.510   8.883   7.350
 7521POPC   NC341039  25.261  15.224   5.550
 7521POPC   PO441040  25.245  15.132   5.850
 7521POPC   GL141041  25.309  15.131   6.150
 7521POPC   GL241042  25.150  15.048   6.150
 7521POPC   C1A41043  25.312  15.183   6.450
 7521POPC   D2A41044  25.268  15.228   6.750
 7521POPC   C3A41045  25.243  15.200   7.050
 7521POPC   C4A41046  25.220  15.156   7.350
 7521POPC   C1B41047  25.131  14.948   6.450
 7521POPC   C2B41048  25.114  15.037   6.750
 7521POPC   C3B41049  25.145  15.002   7.050
 7521POPC   C4B41050  25.092  14.995   7.350
 7522POPC   NC341051  25.272  19.865   5.550
 7522POPC   PO441052  25.230  19.821   5.850
 7522POPC   GL141053  25.237  19.844   6.150
 7522POPC   GL241054  25.198  19.723   6.150
 7522POPC   C1A41055  25.298  19.864   6.450
 7522POPC   D2A41056  25.224  19.878   6.750
 7522POPC   C3A41057  25.262  19.844   7.050
 7522POPC   C4A41058  25.283  19.884   7.350
 7522POPC   C1B41059  25.113  19.730   6.450
 7522POPC   C2B41060  25.074  19.708   6.750
 7522POPC   C3B41061  25.083  19.674   7.050
 7522POPC   C4B41062  25.087  19.654   7.350
 7523POPC   NC341063   5.109   1.259   5.550
 7523POPC   PO441064   5.090   1.262   5.850
 7523POPC   GL141065   5.048   1.228   6.150
 7523POPC   GL241066   5.162   1.288   6.150
 7523POPC   C1A41067   5.059   1.230   6.450
 7523POPC   D2A41068   5.095   1.170   6.750
 7523POPC   C3A41069   5.049   1.198   7.050
 7523POPC   C4A41070   5.102   1.240   7.350
 7523POPC   C1B41071   5.194   1.396   6.450
 7523POPC   C2B41072   5.151   1.463   6.750
 7523POPC   C3B41073   5.184   1.446   7.050
 7523POPC   C4B41074   5.203   1.454   7.350
 7524POPC   NC341075  28.349   4.296   5.550
 7524POPC   PO441076  28.386   4.358   5.850
 7524POPC   GL141077  28.352   4.336   6.150
 7524POPC   GL241078  28.291   4.261   6.150
 7524POPC   C1A41079  28.413   4.324   6.450
 7524POPC   D2A41080  28.337   4.277   6.750
 7524POPC   C3A41081  28.358   4.295   7.050
 7524POPC   C4A41082  28.407   4.281   7.350
 7524POPC   C1B41083  28.212   4.160   6.450
 7524POPC   C2B41084  28.172   4.134   6.750
 7524POPC   C3B41085  28.192   4.118   7.050
 7524POPC   C4B41086  28.128   4.200   7.350
 7525POPC   NC341087   5.134  12.859   5.550
 7525POPC   PO441088   5.133  12.808   5.850
 7525POPC   GL141089   5.120  12.885   6.150
 7525POPC   GL241090   5.023  12.869   6.150
 7525POPC   C1A41091   5.087  12.890   6.450
 7525POPC   D2A41092   5.076  12.877   6.750
 7525POPC   C3A41093   5.124  12.876   7.050
 7525POPC   C4A41094   5.113  12.896   7.350
 7525POPC   C1B41095   4.876  12.994   6.450
 7525POPC   C2B41096   4.865  12.986   6.750
 7525POPC   C3B41097   4.850  12.950   7.050
 7525POPC   C4B41098   4.828  13.008   7.350
 7526POPC   NC341099   1.189  27.633   5.550
 7526POPC   PO441100   1.171  27.553   5.850
 7526POPC   GL141101   1.194  27.609   6.150
 7526POPC   GL241102   1.347  27.513   6.150
 7526POPC   C1A41103   1.250  27.640   6.450
 7526POPC   D2A41104   1.229  27.552   6.750
 7526POPC   C3A41105   1.164  27.595   7.050
 7526POPC   C4A41106   1.244  27.553   7.350
 7526POPC   C1B41107   1.447  27.460   6.450
 7526POPC   C2B41108   1.407  27.479   6.750
 7526POPC   C3B41109   1.402  27.434   7.050
 7526POPC   C4B41110   1.423  27.498   7.350
 7527POPC   NC341111  20.619  26.025   5.550
 7527POPC   PO441112  20.638  26.028   5.850
 7527POPC   GL141113  20.643  26.043   6.150
 7527POPC   GL241114  20.528  26.071   6.150
 7527POPC   C1A41115  20.639  26.086   6.450
 7527POPC   D2A41116  20.593  26.031   6.750
 7527POPC   C3A41117  20.654  26.046   7.050
 7527POPC   C4A41118  20.595  26.039   7.350
 7527POPC   C1B41119  20.390  26.022   6.450
 7527POPC   C2B41120  20.343  26.081   6.750
 7527POPC   C3B41121  20.343  26.059   7.050
 7527POPC   C4B41122  20.398  26.038   7.350
 7528POPC   NC341123  28.393  11.275   5.550
 7528POPC   PO441124  28.333  11.293   5.850
 7528POPC   GL141125  28.371  11.323   6.150
 7528POPC   GL241126  28.446  11.217   6.150
 7528POPC   C1A41127  28.358  11.337   6.450
 7528POPC   D2A41128  28.373  11.310   6.750
 7528POPC   C3A41129  28.350  11.258   7.050
 7528POPC   C4A41130  28.391  11.306   7.350
 7528POPC   C1B41131  28.499  11.092   6.450
 7528POPC   C2B41132  28.451  11.116   6.750
 7528POPC   C3B41133  28.445  11.119   7.050
 7528POPC   C4B41134  28.511  11.040   7.350
 7529POPC   NC341135  10.515  28.352   5.550
 7529POPC   PO441136  10.569  28.396   5.850
 7529POPC   GL141137  10.475  28.389   6.150
 7529POPC   GL241138  10.686  28.348   6.150
 7529POPC   C1A41139  10.515  28.406   6.450
 7529POPC   D2A41140  10.523  28.326   6.750
 7529POPC   C3A41141  10.560  28.323   7.050
 7529POPC   C4A41142  10.527  28.339   7.350
 7529POPC   C1B41143  10.818  28.370   6.450
 7529POPC   C2B41144  10.785  28.366   6.750
 7529POPC   C3B41145  10.753  28.385   7.050
 7529POPC   C4B41146  10.733  28.301   7.350
 7530POPC   NC341147  38.408   8.172   5.550
 7530POPC   PO441148  38.492   8.197   5.850
 7530POPC   GL141149  38.431   8.164   6.150
 7530POPC   GL241150  38.510   8.094   6.150
 7530POPC   C1A41151  38.499   8.226   6.450
 7530POPC   D2A41152  38.436   8.217   6.750
 7530POPC   C3A41153  38.444   8.226   7.050
 7530POPC   C4A41154  38.448   8.225   7.350
 7530POPC   C1B41155  38.620   7.982   6.450
 7530POPC   C2B41156  38.561   7.981   6.750
 7530POPC   C3B41157  38.577   7.984   7.050
 7530POPC   C4B41158  38.596   7.961   7.350
 7531POPC   NC341159  29.169  36.162   5.550
 7531POPC   PO441160  29.130  36.158   5.850
 7531POPC   GL141161  29.131  36.092   6.150
 7531POPC   GL241162  29.103  36.050   6.150
 7531POPC   C1A41163  29.142  36.166   6.450
 7531POPC   D2A41164  29.122  36.155   6.750
 7531POPC   C3A41165  29.191  36.176   7.050
 7531POPC   C4A41166  29.137  36.173   7.350
 7531POPC   C1B41167  28.995  35.925   6.450
 7531POPC   C2B41168  29.044  35.961   6.750
 7531POPC   C3B41169  28.981  35.889   7.050
 7531POPC   C4B41170  28.972  35.959   7.350
 7532POPC   NC341171  35.321  27.594   5.550
 7532POPC   PO441172  35.339  27.549   5.850
 7532POPC   GL141173  35.368  27.596   6.150
 7532POPC   GL241174  35.308  27.731   6.150
 7532POPC   C1A41175  35.339  27.552   6.450
 7532POPC   D2A41176  35.317  27.619   6.750
 7532POPC   C3A41177  35.398  27.605   7.050
 7532POPC   C4A41178  35.339  27.565   7.350
 7532POPC   C1B41179  35.265  27.864   6.450
 7532POPC   C2B41180  35.209  27.811   6.750
 7532POPC   C3B41181  35.241  27.827   7.050
 7532POPC   C4B41182  35.276  27.862   7.350
 7533POPC   NC341183   5.065  31.485   5.550
 7533POPC   PO441184   5.063  31.483   5.850
 7533POPC   GL141185   5.045  31.518   6.150
 7533POPC   GL241186   5.186  31.448   6.150
 7533POPC   C1A41187   5.068  31.510   6.450
 7533POPC   D2A41188   5.049  31.447   6.750
 7533POPC   C3A41189   5.072  31.503   7.050
 7533POPC   C4A41190   5.123  31.483   7.350
 7533POPC   C1B41191   5.370  31.336   6.450
 7533POPC   C2B41192   5.338  31.370   6.750
 7533POPC   C3B41193   5.305  31.374   7.050
 7533POPC   C4B41194   5.338  31.339   7.350
 7534POPC   NC341195  16.003  22.207   5.550
 7534POPC   PO441196  15.970  22.132   5.850
 7534POPC   GL141197  15.963  22.146   6.150
 7534POPC   GL241198  15.928  22.330   6.150
 7534POPC   C1A41199  15.917  22.209   6.450
 7534POPC   D2A41200  15.919  22.136   6.750
 7534POPC   C3A41201  15.943  22.138   7.050
 7534POPC   C4A41202  15.980  22.181   7.350
 7534POPC   C1B41203  15.877  22.447   6.450
 7534POPC   C2B41204  15.908  22.380   6.750
 7534POPC   C3B41205  15.923  22.374   7.050
 7534POPC   C4B41206  15.909  22.418   7.350
 7535POPC   NC341207   6.615  25.308   5.550
 7535POPC   PO441208   6.642  25.216   5.850
 7535POPC   GL141209   6.694  25.259   6.150
 7535POPC   GL241210   6.485  25.280   6.150
 7535POPC   C1A41211   6.620  25.301   6.450
 7535POPC   D2A41212   6.672  25.312   6.750
 7535POPC   C3A41213   6.665  25.224   7.050
 7535POPC   C4A41214   6.685  25.301   7.350
 7535POPC   C1B41215   6.411  25.348   6.450
 7535POPC   C2B41216   6.435  25.342   6.750
 7535POPC   C3B41217   6.399  25.373   7.050
 7535POPC   C4B41218   6.444  25.342   7.350
 7536POPC   NC341219   3.536  31.479   5.550
 7536POPC   PO441220   3.496  31.495   5.850
 7536POPC   GL141221   3.581  31.448   6.150
 7536POPC   GL241222   3.621  31.570   6.150
 7536POPC   C1A41223   3.535  31.473   6.450
 7536POPC   D2A41224   3.499  31.498   6.750
 7536POPC   C3A41225   3.495  31.500   7.050
 7536POPC   C4A41226   3.539  31.508   7.350
 7536POPC   C1B41227   3.660  31.708   6.450
 7536POPC   C2B41228   3.735  31.692   6.750
 7536POPC   C3B41229   3.721  31.693   7.050
 7536POPC   C4B41230   3.665  31.634   7.350
 7537POPC   NC341231   8.147   2.750   5.550
 7537POPC   PO441232   8.181   2.726   5.850
 7537POPC   GL141233   8.147   2.784   6.150
 7537POPC   GL241234   8.291   2.807   6.150
 7537POPC   C1A41235   8.179   2.777   6.450
 7537POPC   D2A41236   8.188   2.780   6.750
 7537POPC   C3A41237   8.216   2.760   7.050
 7537POPC   C4A41238   8.153   2.801   7.350
 7537POPC   C1B41239   8.436   2.823   6.450
 7537POPC   C2B41240   8.466   2.775   6.750
 7537POPC   C3B41241   8.482   2.823   7.050
 7537POPC   C4B41242   8.460   2.812   7.350
 7538POPC   NC341243  43.145  40.766   5.550
 7538POPC   PO441244  43.065  40.810   5.850
 7538POPC   GL141245  43.124  40.817   6.150
 7538POPC   GL241246  43.282  40.795   6.150
 7538POPC   C1A41247  43.089  40.809   6.450
 7538POPC   D2A41248  43.073  40.755   6.750
 7538POPC   C3A41249  43.094  40.822   7.050
 7538POPC   C4A41250  43.118  40.736   7.350
 7538POPC   C1B41251  43.348  40.746   6.450
 7538POPC   C2B41252  43.382  40.712   6.750
 7538POPC   C3B41253  43.392  40.795   7.050
 7538POPC   C4B41254  43.355  40.708   7.350
 7539POPC   NC341255   8.946  38.424   5.550
 7539POPC   PO441256   8.930  38.436   5.850
 7539POPC   GL141257   8.961  38.422   6.150
 7539POPC   GL241258   9.057  38.543   6.150
 7539POPC   C1A41259   9.022  38.457   6.450
 7539POPC   D2A41260   8.999  38.484   6.750
 7539POPC   C3A41261   8.960  38.492   7.050
 7539POPC   C4A41262   8.958  38.496   7.350
 7539POPC   C1B41263   9.214  38.574   6.450
 7539POPC   C2B41264   9.193  38.555   6.750
 7539POPC   C3B41265   9.243  38.582   7.050
 7539POPC   C4B41266   9.237  38.590   7.350
 7540POPC   NC341267  29.103  26.839   5.550
 7540POPC   PO441268  29.116  26.802   5.850
 7540POPC   GL141269  29.109  26.772   6.150
 7540POPC   GL241270  29.109  26.919   6.150
 7540POPC   C1A41271  29.181  26.852   6.450
 7540POPC   D2A41272  29.117  26.866   6.750
 7540POPC   C3A41273  29.150  26.803   7.050
 7540POPC   C4A41274  29.099  26.850   7.350
 7540POPC   C1B41275  29.006  27.042   6.450
 7540POPC   C2B41276  29.001  27.040   6.750
 7540POPC   C3B41277  28.968  27.014   7.050
 7540POPC   C4B41278  29.015  27.041   7.350
 7541POPC   NC341279  42.308   5.067   5.550
 7541POPC   PO441280  42.286   5.077   5.850
 7541POPC   GL141281  42.291   5.053   6.150
 7541POPC   GL241282  42.400   5.133   6.150
 7541POPC   C1A41283  42.352   5.096   6.450
 7541POPC   D2A41284  42.312   5.114   6.750
 7541POPC   C3A41285  42.321   5.095   7.050
 7541POPC   C4A41286  42.327   5.103   7.350
 7541POPC   C1B41287  42.579   5.141   6.450
 7541POPC   C2B41288  42.594   5.192   6.750
 7541POPC   C3B41289  42.586   5.192   7.050
 7541POPC   C4B41290  42.570   5.144   7.350
 7542POPC   NC341291  13.585  12.082   5.550
 7542POPC   PO441292  13.665  12.048   5.850
 7542POPC   GL141293  13.657  12.028   6.150
 7542POPC   GL241294  13.599  11.966   6.150
 7542POPC   C1A41295  13.628  12.052   6.450
 7542POPC   D2A41296  13.677  12.031   6.750
 7542POPC   C3A41297  13.590  12.108   7.050
 7542POPC   C4A41298  13.601  12.108   7.350
 7542POPC   C1B41299  13.569  11.855   6.450
 7542POPC   C2B41300  13.581  11.871   6.750
 7542POPC   C3B41301  13.642  11.790   7.050
 7542POPC   C4B41302  13.551  11.875   7.350
 7543POPC   NC341303  21.373  19.790   5.550
 7543POPC   PO441304  21.375  19.841   5.850
 7543POPC   GL141305  21.428  19.801   6.150
 7543POPC   GL241306  21.403  19.710   6.150
 7543POPC   C1A41307  21.410  19.865   6.450
 7543POPC   D2A41308  21.337  19.875   6.750
 7543POPC   C3A41309  21.370  19.785   7.050
 7543POPC   C4A41310  21.379  19.800   7.350
 7543POPC   C1B41311  21.303  19.577   6.450
 7543POPC   C2B41312  21.373  19.630   6.750
 7543POPC   C3B41313  21.326  19.612   7.050
 7543POPC   C4B41314  21.296  19.636   7.350
 7544POPC   NC341315   4.275  31.478   5.550
 7544POPC   PO441316   4.319  31.455   5.850
 7544POPC   GL141317   4.308  31.482   6.150
 7544POPC   GL241318   4.462  31.396   6.150
 7544POPC   C1A41319   4.357  31.471   6.450
 7544POPC   D2A41320   4.335  31.429   6.750
 7544POPC   C3A41321   4.349  31.513   7.050
 7544POPC   C4A41322   4.302  31.476   7.350
 7544POPC   C1B41323   4.515  31.292   6.450
 7544POPC   C2B41324   4.479  31.380   6.750
 7544POPC   C3B41325   4.546  31.282   7.050
 7544POPC   C4B41326   4.509  31.334   7.350
 7545POPC   NC341327   1.172  17.498   5.550
 7545POPC   PO441328   1.230  17.481   5.850
 7545POPC   GL141329   1.170  17.534   6.150
 7545POPC   GL241330   1.104  17.505   6.150
 7545POPC   C1A41331   1.205  17.494   6.450
 7545POPC   D2A41332   1.240  17.496   6.750
 7545POPC   C3A41333   1.211  17.461   7.050
 7545POPC   C4A41334   1.170  17.546   7.350
 7545POPC   C1B41335   0.998  17.537   6.450
 7545POPC   C2B41336   0.996  17.474   6.750
 7545POPC   C3B41337   0.959  17.467   7.050
 7545POPC   C4B41338   0.924  17.464   7.350
 7546POPC   NC341339  35.370  11.347   5.550
 7546POPC   PO441340  35.382  11.307   5.850
 7546POPC   GL141341  35.314  11.321   6.150
 7546POPC   GL241342  35.486  11.179   6.150
 7546POPC   C1A41343  35.388  11.331   6.450
 7546POPC   D2A41344  35.395  11.255   6.750
 7546POPC   C3A41345  35.313  11.270   7.050
 7546POPC   C4A41346  35.390  11.287   7.350
 7546POPC   C1B41347  35.550  11.112   6.450
 7546POPC   C2B41348  35.506  11.124   6.750
 7546POPC   C3B41349  35.503  11.121   7.050
 7546POPC   C4B41350  35.510  11.155   7.350
 7547POPC   NC341351  16.000  21.379   5.550
 7547POPC   PO441352  15.962  21.340   5.850
 7547POPC   GL141353  15.994  21.339   6.150
 7547POPC   GL241354  16.049  21.505   6.150
 7547POPC   C1A41355  15.992  21.421   6.450
 7547POPC   D2A41356  15.937  21.355   6.750
 7547POPC   C3A41357  15.920  21.347   7.050
 7547POPC   C4A41358  15.927  21.345   7.350
 7547POPC   C1B41359  16.093  21.647   6.450
 7547POPC   C2B41360  16.089  21.639   6.750
 7547POPC   C3B41361  16.106  21.616   7.050
 7547POPC   C4B41362  16.100  21.649   7.350
 7548POPC   NC341363  32.203  36.878   5.550
 7548POPC   PO441364  32.276  36.947   5.850
 7548POPC   GL141365  32.240  36.926   6.150
 7548POPC   GL241366  32.196  36.810   6.150
 7548POPC   C1A41367  32.298  36.948   6.450
 7548POPC   D2A41368  32.202  36.902   6.750
 7548POPC   C3A41369  32.295  36.933   7.050
 7548POPC   C4A41370  32.204  36.886   7.350
 7548POPC   C1B41371  32.030  36.754   6.450
 7548POPC   C2B41372  32.032  36.764   6.750
 7548POPC   C3B41373  32.107  36.756   7.050
 7548POPC   C4B41374  32.089  36.722   7.350
 7549POPC   NC341375   4.321  29.174   5.550
 7549POPC   PO441376   4.354  29.142   5.850
 7549POPC   GL141377   4.358  29.105   6.150
 7549POPC   GL241378   4.256  29.207   6.150
 7549POPC   C1A41379   4.366  29.175   6.450
 7549POPC   D2A41380   4.310  29.163   6.750
 7549POPC   C3A41381   4.283  29.178   7.050
 7549POPC   C4A41382   4.318  29.115   7.350
 7549POPC   C1B41383   4.235  29.394   6.450
 7549POPC   C2B41384   4.234  29.341   6.750
 7549POPC   C3B41385   4.167  29.335   7.050
 7549POPC   C4B41386   4.157  29.347   7.350
 7550POPC   NC341387  22.913  25.259   5.550
 7550POPC   PO441388  22.914  25.254   5.850
 7550POPC   GL141389  22.978  25.249   6.150
 7550POPC   GL241390  22.967  25.148   6.150
 7550POPC   C1A41391  22.921  25.314   6.450
 7550POPC   D2A41392  22.983  25.251   6.750
 7550POPC   C3A41393  22.973  25.260   7.050
 7550POPC   C4A41394  22.924  25.265   7.350
 7550POPC   C1B41395  22.965  25.005   6.450
 7550POPC   C2B41396  22.914  25.037   6.750
 7550POPC   C3B41397  22.916  25.032   7.050
 7550POPC   C4B41398  22.952  24.985   7.350
 7551POPC   NC341399  19.868  10.521   5.550
 7551POPC   PO441400  19.787  10.520   5.850
 7551POPC   GL141401  19.862  10.521   6.150
 7551POPC   GL241402  19.904  10.410   6.150
 7551POPC   C1A41403  19.805  10.475   6.450
 7551POPC   D2A41404  19.836  10.551   6.750
 7551POPC   C3A41405  19.869  10.476   7.050
 7551POPC   C4A41406  19.852  10.500   7.350
 7551POPC   C1B41407  19.856  10.314   6.450
 7551POPC   C2B41408  19.890  10.235   6.750
 7551POPC   C3B41409  19.928  10.299   7.050
 7551POPC   C4B41410  19.902  10.302   7.350
 7552POPC   NC341411  12.086  16.765   5.550
 7552POPC   PO441412  12.054  16.749   5.850
 7552POPC   GL141413  12.095  16.726   6.150
 7552POPC   GL241414  12.028  16.582   6.150
 7552POPC   C1A41415  12.066  16.708   6.450
 7552POPC   D2A41416  12.065  16.714   6.750
 7552POPC   C3A41417  12.106  16.691   7.050
 7552POPC   C4A41418  12.046  16.714   7.350
 7552POPC   C1B41419  12.005  16.492   6.450
 7552POPC   C2B41420  11.983  16.546   6.750
 7552POPC   C3B41421  11.942  16.533   7.050
 7552POPC   C4B41422  12.010  16.533   7.350
 7553POPC   NC341423  34.608  44.612   5.550
 7553POPC   PO441424  34.582  44.678   5.850
 7553POPC   GL141425  34.527  44.678   6.150
 7553POPC   GL241426  34.700  44.595   6.150
 7553POPC   C1A41427  34.575  44.643   6.450
 7553POPC   D2A41428  34.562  44.701   6.750
 7553POPC   C3A41429  34.606  44.676   7.050
 7553POPC   C4A41430  34.582  44.655   7.350
 7553POPC   C1B41431  34.726  44.422   6.450
 7553POPC   C2B41432  34.679  44.448   6.750
 7553POPC   C3B41433  34.706  44.483   7.050
 7553POPC   C4B41434  34.761  44.460   7.350
 7554POPC   NC341435  34.546   9.721   5.550
 7554POPC   PO441436  34.624   9.796   5.850
 7554POPC   GL141437  34.575   9.769   6.150
 7554POPC   GL241438  34.539   9.811   6.150
 7554POPC   C1A41439  34.574   9.794   6.450
 7554POPC   D2A41440  34.544   9.791   6.750
 7554POPC   C3A41441  34.567   9.733   7.050
 7554POPC   C4A41442  34.540   9.721   7.350
 7554POPC   C1B41443  34.465   9.939   6.450
 7554POPC   C2B41444  34.403   9.974   6.750
 7554POPC   C3B41445  34.409   9.930   7.050
 7554POPC   C4B41446  34.392   9.937   7.350
 7555POPC   NC341447  12.816  29.179   5.550
 7555POPC   PO441448  12.869  29.106   5.850
 7555POPC   GL141449  12.815  29.152   6.150
 7555POPC   GL241450  12.782  29.027   6.150
 7555POPC   C1A41451  12.869  29.157   6.450
 7555POPC   D2A41452  12.853  29.115   6.750
 7555POPC   C3A41453  12.844  29.190   7.050
 7555POPC   C4A41454  12.890  29.146   7.350
 7555POPC   C1B41455  12.733  28.936   6.450
 7555POPC   C2B41456  12.721  28.949   6.750
 7555POPC   C3B41457  12.689  28.982   7.050
 7555POPC   C4B41458  12.656  28.949   7.350
 7556POPC   NC341459   0.458  27.598   5.550
 7556POPC   PO441460   0.403  27.620   5.850
 7556POPC   GL141461   0.458  27.556   6.150
 7556POPC   GL241462   0.517  27.558   6.150
 7556POPC   C1A41463   0.390  27.613   6.450
 7556POPC   D2A41464   0.402  27.625   6.750
 7556POPC   C3A41465   0.442  27.632   7.050
 7556POPC   C4A41466   0.474  27.576   7.350
 7556POPC   C1B41467   0.596  27.482   6.450
 7556POPC   C2B41468   0.581  27.473   6.750
 7556POPC   C3B41469   0.667  27.476   7.050
 7556POPC   C4B41470   0.651  27.418   7.350
 7557POPC   NC341471   3.512  43.083   5.550
 7557POPC   PO441472   3.560  43.104   5.850
 7557POPC   GL141473   3.508  43.108   6.150
 7557POPC   GL241474   3.490  43.214   6.150
 7557POPC   C1A41475   3.564  43.111   6.450
 7557POPC   D2A41476   3.524  43.113   6.750
 7557POPC   C3A41477   3.521  43.092   7.050
 7557POPC   C4A41478   3.542  43.102   7.350
 7557POPC   C1B41479   3.507  43.337   6.450
 7557POPC   C2B41480   3.490  43.397   6.750
 7557POPC   C3B41481   3.556  43.372   7.050
 7557POPC   C4B41482   3.545  43.399   7.350
 7558POPC   NC341483  40.001  22.186   5.550
 7558POPC   PO441484  39.985  22.162   5.850
 7558POPC   GL141485  40.054  22.208   6.150
 7558POPC   GL241486  39.971  22.078   6.150
 7558POPC   C1A41487  39.966  22.207   6.450
 7558POPC   D2A41488  40.008  22.173   6.750
 7558POPC   C3A41489  39.966  22.115   7.050
 7558POPC   C4A41490  40.000  22.210   7.350
 7558POPC   C1B41491  39.916  21.896   6.450
 7558POPC   C2B41492  39.913  21.976   6.750
 7558POPC   C3B41493  39.919  21.949   7.050
 7558POPC   C4B41494  39.869  21.945   7.350
 7559POPC   NC341495  36.854   8.970   5.550
 7559POPC   PO441496  36.892   8.939   5.850
 7559POPC   GL141497  36.877   9.005   6.150
 7559POPC   GL241498  37.001   8.870   6.150
 7559POPC   C1A41499  36.855   8.937   6.450
 7559POPC   D2A41500  36.883   8.958   6.750
 7559POPC   C3A41501  36.858   9.009   7.050
 7559POPC   C4A41502  36.904   8.982   7.350
 7559POPC   C1B41503  37.133   8.882   6.450
 7559POPC   C2B41504  37.130   8.817   6.750
 7559POPC   C3B41505  37.177   8.912   7.050
 7559POPC   C4B41506  37.097   8.849   7.350
 7560POPC   NC341507  10.515  39.182   5.550
 7560POPC   PO441508  10.507  39.262   5.850
 7560POPC   GL141509  10.519  39.214   6.150
 7560POPC   GL241510  10.387  39.215   6.150
 7560POPC   C1A41511  10.490  39.206   6.450
 7560POPC   D2A41512  10.561  39.182   6.750
 7560POPC   C3A41513  10.554  39.232   7.050
 7560POPC   C4A41514  10.565  39.181   7.350
 7560POPC   C1B41515  10.273  39.107   6.450
 7560POPC   C2B41516  10.279  39.081   6.750
 7560POPC   C3B41517  10.319  39.121   7.050
 7560POPC   C4B41518  10.299  39.122   7.350
 7561POPC   NC341519  33.001  16.755   5.550
 7561POPC   PO441520  33.066  16.737   5.850
 7561POPC   GL141521  33.046  16.702   6.150
 7561POPC   GL241522  33.006  16.830   6.150
 7561POPC   C1A41523  33.055  16.713   6.450
 7561POPC   D2A41524  33.023  16.765   6.750
 7561POPC   C3A41525  33.039  16.748   7.050
 7561POPC   C4A41526  32.974  16.746   7.350
 7561POPC   C1B41527  33.007  17.005   6.450
 7561POPC   C2B41528  33.027  17.029   6.750
 7561POPC   C3B41529  32.951  16.969   7.050
 7561POPC   C4B41530  33.042  16.941   7.350
 7562POPC   NC341531  36.893  35.318   5.550
 7562POPC   PO441532  36.881  35.390   5.850
 7562POPC   GL141533  36.910  35.326   6.150
 7562POPC   GL241534  36.860  35.191   6.150
 7562POPC   C1A41535  36.895  35.398   6.450
 7562POPC   D2A41536  36.936  35.391   6.750
 7562POPC   C3A41537  36.943  35.346   7.050
 7562POPC   C4A41538  36.881  35.355   7.350
 7562POPC   C1B41539  36.844  35.122   6.450
 7562POPC   C2B41540  36.882  35.142   6.750
 7562POPC   C3B41541  36.839  35.066   7.050
 7562POPC   C4B41542  36.895  35.120   7.350
 7563POPC   NC341543   1.253  43.857   5.550
 7563POPC   PO441544   1.201  43.931   5.850
 7563POPC   GL141545   1.165  43.879   6.150
 7563POPC   GL241546   1.310  43.881   6.150
 7563POPC   C1A41547   1.252  43.918   6.450
 7563POPC   D2A41548   1.263  43.868   6.750
 7563POPC   C3A41549   1.217  43.848   7.050
 7563POPC   C4A41550   1.245  43.852   7.350
 7563POPC   C1B41551   1.497  43.876   6.450
 7563POPC   C2B41552   1.456  43.869   6.750
 7563POPC   C3B41553   1.419  43.955   7.050
 7563POPC   C4B41554   1.488  43.934   7.350
 7564POPC   NC341555  28.324   7.391   5.550
 7564POPC   PO441556  28.418   7.415   5.850
 7564POPC   GL141557  28.346   7.466   6.150
 7564POPC   GL241558  28.418   7.546   6.150
 7564POPC   C1A41559  28.345   7.377   6.450
 7564POPC   D2A41560  28.407   7.395   6.750
 7564POPC   C3A41561  28.327   7.451   7.050
 7564POPC   C4A41562  28.334   7.449   7.350
 7564POPC   C1B41563  28.377   7.636   6.450
 7564POPC   C2B41564  28.473   7.619   6.750
 7564POPC   C3B41565  28.448   7.674   7.050
 7564POPC   C4B41566  28.453   7.684   7.350
 7565POPC   NC341567  29.935  33.788   5.550
 7565POPC   PO441568  29.933  33.808   5.850
 7565POPC   GL141569  29.962  33.787   6.150
 7565POPC   GL241570  29.981  33.889   6.150
 7565POPC   C1A41571  29.928  33.784   6.450
 7565POPC   D2A41572  29.908  33.795   6.750
 7565POPC   C3A41573  29.937  33.822   7.050
 7565POPC   C4A41574  29.938  33.773   7.350
 7565POPC   C1B41575  30.032  34.003   6.450
 7565POPC   C2B41576  30.009  34.021   6.750
 7565POPC   C3B41577  30.048  34.040   7.050
 7565POPC   C4B41578  30.036  33.989   7.350
 7566POPC   NC341579  33.027  33.783   5.550
 7566POPC   PO441580  33.055  33.758   5.850
 7566POPC   GL141581  33.031  33.811   6.150
 7566POPC   GL241582  32.854  33.767   6.150
 7566POPC   C1A41583  32.979  33.775   6.450
 7566POPC   D2A41584  33.040  33.831   6.750
 7566POPC   C3A41585  32.986  33.809   7.050
 7566POPC   C4A41586  33.006  33.844   7.350
 7566POPC   C1B41587  32.779  33.778   6.450
 7566POPC   C2B41588  32.771  33.780   6.750
 7566POPC   C3B41589  32.739  33.754   7.050
 7566POPC   C4B41590  32.748  33.716   7.350
 7567POPC   NC341591   0.421  19.880   5.550
 7567POPC   PO441592   0.463  19.827   5.850
 7567POPC   GL141593   0.415  19.866   6.150
 7567POPC   GL241594   0.423  19.729   6.150
 7567POPC   C1A41595   0.401  19.793   6.450
 7567POPC   D2A41596   0.392  19.858   6.750
 7567POPC   C3A41597   0.415  19.800   7.050
 7567POPC   C4A41598   0.465  19.838   7.350
 7567POPC   C1B41599   0.506  19.580   6.450
 7567POPC   C2B41600   0.455  19.542   6.750
 7567POPC   C3B41601   0.505  19.569   7.050
 7567POPC   C4B41602   0.514  19.587   7.350
 7568POPC   NC341603  27.568  43.837   5.550
 7568POPC   PO441604  27.608  43.842   5.850
 7568POPC   GL141605  27.637  43.880   6.150
 7568POPC   GL241606  27.621  44.019   6.150
 7568POPC   C1A41607  27.570  43.885   6.450
 7568POPC   D2A41608  27.569  43.922   6.750
 7568POPC   C3A41609  27.632  43.922   7.050
 7568POPC   C4A41610  27.633  43.839   7.350
 7568POPC   C1B41611  27.745  44.132   6.450
 7568POPC   C2B41612  27.712  44.067   6.750
 7568POPC   C3B41613  27.733  44.135   7.050
 7568POPC   C4B41614  27.752  44.160   7.350
 7569POPC   NC341615  40.023  20.586   5.550
 7569POPC   PO441616  39.996  20.641   5.850
 7569POPC   GL141617  40.032  20.636   6.150
 7569POPC   GL241618  40.059  20.732   6.150
 7569POPC   C1A41619  40.045  20.602   6.450
 7569POPC   D2A41620  39.961  20.609   6.750
 7569POPC   C3A41621  39.990  20.657   7.050
 7569POPC   C4A41622  39.982  20.564   7.350
 7569POPC   C1B41623  40.184  20.845   6.450
 7569POPC   C2B41624  40.153  20.805   6.750
 7569POPC   C3B41625  40.107  20.815   7.050
 7569POPC   C4B41626  40.166  20.846   7.350
 7570POPC   NC341627  11.325  31.460   5.550
 7570POPC   PO441628  11.342  31.463   5.850
 7570POPC   GL141629  11.325  31.498   6.150
 7570POPC   GL241630  11.293  31.550   6.150
 7570POPC   C1A41631  11.318  31.444   6.450
 7570POPC   D2A41632  11.332  31.517   6.750
 7570POPC   C3A41633  11.320  31.478   7.050
 7570POPC   C4A41634  11.320  31.521   7.350
 7570POPC   C1B41635  11.231  31.750   6.450
 7570POPC   C2B41636  11.223  31.701   6.750
 7570POPC   C3B41637  11.306  31.739   7.050
 7570POPC   C4B41638  11.243  31.690   7.350
 7571POPC   NC341639  26.866   4.279   5.550
 7571POPC   PO441640  26.822   4.351   5.850
 7571POPC   GL141641  26.838   4.346   6.150
 7571POPC   GL241642  26.978   4.295   6.150
 7571POPC   C1A41643  26.789   4.364   6.450
 7571POPC   D2A41644  26.795   4.299   6.750
 7571POPC   C3A41645  26.818   4.359   7.050
 7571POPC   C4A41646  26.858   4.324   7.350
 7571POPC   C1B41647  27.040   4.348   6.450
 7571POPC   C2B41648  27.030   4.370   6.750
 7571POPC   C3B41649  27.024   4.389   7.050
 7571POPC   C4B41650  27.029   4.376   7.350
 7572POPC   NC341651  13.612   5.095   5.550
 7572POPC   PO441652  13.677   5.140   5.850
 7572POPC   GL141653  13.588   5.058   6.150
 7572POPC   GL241654  13.495   5.046   6.150
 7572POPC   C1A41655  13.598   5.074   6.450
 7572POPC   D2A41656  13.589   5.087   6.750
 7572POPC   C3A41657  13.664   5.064   7.050
 7572POPC   C4A41658  13.668   5.102   7.350
 7572POPC   C1B41659  13.434   4.921   6.450
 7572POPC   C2B41660  13.398   4.903   6.750
 7572POPC   C3B41661  13.433   4.977   7.050
 7572POPC   C4B41662  13.449   4.925   7.350
 7573POPC   NC341663  27.562  36.890   5.550
 7573POPC   PO441664  27.633  36.928   5.850
 7573POPC   GL141665  27.620  36.942   6.150
 7573POPC   GL241666  27.652  36.825   6.150
 7573POPC   C1A41667  27.584  36.888   6.450
 7573POPC   D2A41668  27.609  36.882   6.750
 7573POPC   C3A41669  27.617  36.875   7.050
 7573POPC   C4A41670  27.593  36.949   7.350
 7573POPC   C1B41671  27.755  36.758   6.450
 7573POPC   C2B41672  27.760  36.721   6.750
 7573POPC   C3B41673  27.755  36.729   7.050
 7573POPC   C4B41674  27.834  36.780   7.350
 7574POPC   NC341675  19.845  27.597   5.550
 7574POPC   PO441676  19.787  27.632   5.850
 7574POPC   GL141677  19.816  27.592   6.150
 7574POPC   GL241678  19.728  27.508   6.150
 7574POPC   C1A41679  19.865  27.615   6.450
 7574POPC   D2A41680  19.823  27.547   6.750
 7574POPC   C3A41681  19.855  27.584   7.050
 7574POPC   C4A41682  19.843  27.628   7.350
 7574POPC   C1B41683  19.593  27.542   6.450
 7574POPC   C2B41684  19.624  27.529   6.750
 7574POPC   C3B41685  19.558  27.520   7.050
 7574POPC   C4B41686  19.560  27.520   7.350
 7575POPC   NC341687  15.999   8.935   5.550
 7575POPC   PO441688  15.918   8.947   5.850
 7575POPC   GL141689  15.997   8.986   6.150
 7575POPC   GL241690  15.838   8.953   6.150
 7575POPC   C1A41691  15.940   9.004   6.450
 7575POPC   D2A41692  15.908   9.005   6.750
 7575POPC   C3A41693  15.910   8.955   7.050
 7575POPC   C4A41694  15.932   8.924   7.350
 7575POPC   C1B41695  15.773   8.790   6.450
 7575POPC   C2B41696  15.704   8.882   6.750
 7575POPC   C3B41697  15.704   8.871   7.050
 7575POPC   C4B41698  15.761   8.831   7.350
 7576POPC   NC341699  42.306  40.052   5.550
 7576POPC   PO441700  42.374  39.997   5.850
 7576POPC   GL141701  42.345  39.996   6.150
 7576POPC   GL241702  42.506  40.081   6.150
 7576POPC   C1A41703  42.378  39.979   6.450
 7576POPC   D2A41704  42.354  39.994   6.750
 7576POPC   C3A41705  42.377  40.054   7.050
 7576POPC   C4A41706  42.362  40.041   7.350
 7576POPC   C1B41707  42.611  40.010   6.450
 7576POPC   C2B41708  42.537  40.048   6.750
 7576POPC   C3B41709  42.610  40.087   7.050
 7576POPC   C4B41710  42.598  40.099   7.350
 7577POPC   NC341711   2.742  12.110   5.550
 7577POPC   PO441712   2.732  12.074   5.850
 7577POPC   GL141713   2.717  12.028   6.150
 7577POPC   GL241714   2.864  12.050   6.150
 7577POPC   C1A41715   2.799  12.065   6.450
 7577POPC   D2A41716   2.811  12.110   6.750
 7577POPC   C3A41717   2.795  12.066   7.050
 7577POPC   C4A41718   2.730  12.099   7.350
 7577POPC   C1B41719   2.970  12.094   6.450
 7577POPC   C2B41720   3.002  12.071   6.750
 7577POPC   C3B41721   3.026  12.148   7.050
 7577POPC   C4B41722   3.042  12.072   7.350
 7578POPC   NC341723  44.708  38.485   5.550
 7578POPC   PO441724  44.683  38.467   5.850
 7578POPC   GL141725  44.704  38.494   6.150
 7578POPC   GL241726  44.794  38.474   6.150
 7578POPC   C1A41727  44.652  38.492   6.450
 7578POPC   D2A41728  44.712  38.459   6.750
 7578POPC   C3A41729  44.644  38.500   7.050
 7578POPC   C4A41730  44.664  38.467   7.350
 7578POPC   C1B41731  44.858  38.541   6.450
 7578POPC   C2B41732  44.922  38.551   6.750
 7578POPC   C3B41733  44.869  38.545   7.050
 7578POPC   C4B41734  44.887  38.602   7.350
 7579POPC   NC341735   1.946  12.859   5.550
 7579POPC   PO441736   2.012  12.855   5.850
 7579POPC   GL141737   1.967  12.895   6.150
 7579POPC   GL241738   2.068  12.839   6.150
 7579POPC   C1A41739   2.030  12.879   6.450
 7579POPC   D2A41740   1.980  12.859   6.750
 7579POPC   C3A41741   2.024  12.804   7.050
 7579POPC   C4A41742   1.979  12.892   7.350
 7579POPC   C1B41743   2.229  12.805   6.450
 7579POPC   C2B41744   2.228  12.806   6.750
 7579POPC   C3B41745   2.261  12.748   7.050
 7579POPC   C4B41746   2.241  12.794   7.350
 7580POPC   NC341747  15.921  39.262   5.550
 7580POPC   PO441748  15.975  39.269   5.850
 7580POPC   GL141749  15.971  39.227   6.150
 7580POPC   GL241750  16.076  39.121   6.150
 7580POPC   C1A41751  15.921  39.199   6.450
 7580POPC   D2A41752  15.939  39.264   6.750
 7580POPC   C3A41753  15.959  39.271   7.050
 7580POPC   C4A41754  15.979  39.223   7.350
 7580POPC   C1B41755  16.137  39.127   6.450
 7580POPC   C2B41756  16.176  39.053   6.750
 7580POPC   C3B41757  16.147  39.039   7.050
 7580POPC   C4B41758  16.186  39.034   7.350
 7581POPC   NC341759   0.448  10.513   5.550
 7581POPC   PO441760   0.404  10.513   5.850
 7581POPC   GL141761   0.388  10.558   6.150
 7581POPC   GL241762   0.595  10.435   6.150
 7581POPC   C1A41763   0.475  10.475   6.450
 7581POPC   D2A41764   0.435  10.486   6.750
 7581POPC   C3A41765   0.456  10.523   7.050
 7581POPC   C4A41766   0.414  10.477   7.350
 7581POPC   C1B41767   0.668  10.394   6.450
 7581POPC   C2B41768   0.671  10.420   6.750
 7581POPC   C3B41769   0.659  10.443   7.050
 7581POPC   C4B41770   0.618  10.448   7.350
 7582POPC   NC341771   2.739  13.675   5.550
 7582POPC   PO441772   2.718  13.642   5.850
 7582POPC   GL141773   2.733  13.657   6.150
 7582POPC   GL241774   2.661  13.488   6.150
 7582POPC   C1A41775   2.739  13.610   6.450
 7582POPC   D2A41776   2.763  13.590   6.750
 7582POPC   C3A41777   2.770  13.582   7.050
 7582POPC   C4A41778   2.722  13.614   7.350
 7582POPC   C1B41779   2.588  13.422   6.450
 7582POPC   C2B41780   2.568  13.390   6.750
 7582POPC   C3B41781   2.656  13.452   7.050
 7582POPC   C4B41782   2.561  13.429   7.350
 7583POPC   NC341783  29.124   8.171   5.550
 7583POPC   PO441784  29.107   8.216   5.850
 7583POPC   GL141785  29.169   8.203   6.150
 7583POPC   GL241786  29.030   8.131   6.150
 7583POPC   C1A41787  29.123   8.190   6.450
 7583POPC   D2A41788  29.139   8.212   6.750
 7583POPC   C3A41789  29.149   8.168   7.050
 7583POPC   C4A41790  29.182   8.205   7.350
 7583POPC   C1B41791  28.889   8.201   6.450
 7583POPC   C2B41792  28.856   8.142   6.750
 7583POPC   C3B41793  28.900   8.117   7.050
 7583POPC   C4B41794  28.894   8.141   7.350
 7584POPC   NC341795  43.067  15.229   5.550
 7584POPC   PO441796  43.157  15.225   5.850
 7584POPC   GL141797  43.125  15.229   6.150
 7584POPC   GL241798  42.967  15.208   6.150
 7584POPC   C1A41799  43.093  15.160   6.450
 7584POPC   D2A41800  43.131  15.223   6.750
 7584POPC   C3A41801  43.078  15.158   7.050
 7584POPC   C4A41802  43.122  15.130   7.350
 7584POPC   C1B41803  42.887  15.209   6.450
 7584POPC   C2B41804  42.903  15.245   6.750
 7584POPC   C3B41805  42.831  15.243   7.050
 7584POPC   C4B41806  42.868  15.240   7.350
 7585POPC   NC341807   5.866  33.838   5.550
 7585POPC   PO441808   5.843  33.797   5.850
 7585POPC   GL141809   5.835  33.778   6.150
 7585POPC   GL241810   5.949  33.699   6.150
 7585POPC   C1A41811   5.884  33.769   6.450
 7585POPC   D2A41812   5.825  33.838   6.750
 7585POPC   C3A41813   5.875  33.754   7.050
 7585POPC   C4A41814   5.881  33.766   7.350
 7585POPC   C1B41815   6.031  33.641   6.450
 7585POPC   C2B41816   6.043  33.620   6.750
 7585POPC   C3B41817   6.088  33.616   7.050
 7585POPC   C4B41818   6.084  33.701   7.350
 7586POPC   NC341819  37.655  31.462   5.550
 7586POPC   PO441820  37.677  31.440   5.850
 7586POPC   GL141821  37.675  31.434   6.150
 7586POPC   GL241822  37.585  31.542   6.150
 7586POPC   C1A41823  37.651  31.433   6.450
 7586POPC   D2A41824  37.656  31.503   6.750
 7586POPC   C3A41825  37.698  31.479   7.050
 7586POPC   C4A41826  37.705  31.427   7.350
 7586POPC   C1B41827  37.565  31.618   6.450
 7586POPC   C2B41828  37.476  31.627   6.750
 7586POPC   C3B41829  37.473  31.620   7.050
 7586POPC   C4B41830  37.499  31.621   7.350
 7587POPC   NC341831   4.297   1.166   5.550
 7587POPC   PO441832   4.302   1.194   5.850
 7587POPC   GL141833   4.334   1.251   6.150
 7587POPC   GL241834   4.393   1.180   6.150
 7587POPC   C1A41835   4.364   1.232   6.450
 7587POPC   D2A41836   4.332   1.248   6.750
 7587POPC   C3A41837   4.365   1.190   7.050
 7587POPC   C4A41838   4.366   1.216   7.350
 7587POPC   C1B41839   4.573   1.129   6.450
 7587POPC   C2B41840   4.542   1.196   6.750
 7587POPC   C3B41841   4.580   1.156   7.050
 7587POPC   C4B41842   4.601   1.176   7.350
 7588POPC   NC341843  26.035   2.717   5.550
 7588POPC   PO441844  25.997   2.765   5.850
 7588POPC   GL141845  26.001   2.773   6.150
 7588POPC   GL241846  26.072   2.621   6.150
 7588POPC   C1A41847  25.995   2.750   6.450
 7588POPC   D2A41848  26.034   2.796   6.750
 7588POPC   C3A41849  26.060   2.772   7.050
 7588POPC   C4A41850  26.079   2.803   7.350
 7588POPC   C1B41851  26.107   2.481   6.450
 7588POPC   C2B41852  26.099   2.515   6.750
 7588POPC   C3B41853  26.114   2.527   7.050
 7588POPC   C4B41854  26.052   2.540   7.350
 7589POPC   NC341855   1.954  21.363   5.550
 7589POPC   PO441856   1.975  21.432   5.850
 7589POPC   GL141857   2.017  21.381   6.150
 7589POPC   GL241858   1.890  21.251   6.150
 7589POPC   C1A41859   2.036  21.380   6.450
 7589POPC   D2A41860   1.999  21.403   6.750
 7589POPC   C3A41861   2.009  21.413   7.050
 7589POPC   C4A41862   1.995  21.338   7.350
 7589POPC   C1B41863   1.769  21.178   6.450
 7589POPC   C2B41864   1.830  21.165   6.750
 7589POPC   C3B41865   1.787  21.258   7.050
 7589POPC   C4B41866   1.837  21.249   7.350
 7590POPC   NC341867  19.879  26.836   5.550
 7590POPC   PO441868  19.792  26.867   5.850
 7590POPC   GL141869  19.850  26.810   6.150
 7590POPC   GL241870  19.964  26.935   6.150
 7590POPC   C1A41871  19.826  26.846   6.450
 7590POPC   D2A41872  19.841  26.815   6.750
 7590POPC   C3A41873  19.806  26.787   7.050
 7590POPC   C4A41874  19.867  26.805   7.350
 7590POPC   C1B41875  20.028  27.022   6.450
 7590POPC   C2B41876  20.010  27.025   6.750
 7590POPC   C3B41877  19.987  26.997   7.050
 7590POPC   C4B41878  19.986  26.961   7.350
 7591POPC   NC341879   7.379   2.801   5.550
 7591POPC   PO441880   7.431   2.777   5.850
 7591POPC   GL141881   7.408   2.807   6.150
 7591POPC   GL241882   7.419   2.880   6.150
 7591POPC   C1A41883   7.435   2.775   6.450
 7591POPC   D2A41884   7.398   2.736   6.750
 7591POPC   C3A41885   7.458   2.772   7.050
 7591POPC   C4A41886   7.410   2.756   7.350
 7591POPC   C1B41887   7.487   3.005   6.450
 7591POPC   C2B41888   7.451   2.988   6.750
 7591POPC   C3B41889   7.441   2.999   7.050
 7591POPC   C4B41890   7.463   2.973   7.350
 7592POPC   NC341891   0.437  28.389   5.550
 7592POPC   PO441892   0.486  28.414   5.850
 7592POPC   GL141893   0.470  28.352   6.150
 7592POPC   GL241894   0.316  28.268   6.150
 7592POPC   C1A41895   0.467  28.366   6.450
 7592POPC   D2A41896   0.413  28.358   6.750
 7592POPC   C3A41897   0.409  28.345   7.050
 7592POPC   C4A41898   0.403  28.418   7.350
 7592POPC   C1B41899   0.169  28.248   6.450
 7592POPC   C2B41900   0.174  28.251   6.750
 7592POPC   C3B41901   0.169  28.264   7.050
 7592POPC   C4B41902   0.180  28.254   7.350
 7593POPC   NC341903  22.167  13.600   5.550
 7593POPC   PO441904  22.185  13.597   5.850
 7593POPC   GL141905  22.124  13.627   6.150
 7593POPC   GL241906  22.305  13.662   6.150
 7593POPC   C1A41907  22.144  13.625   6.450
 7593POPC   D2A41908  22.185  13.596   6.750
 7593POPC   C3A41909  22.199  13.629   7.050
 7593POPC   C4A41910  22.155  13.620   7.350
 7593POPC   C1B41911  22.428  13.734   6.450
 7593POPC   C2B41912  22.429  13.737   6.750
 7593POPC   C3B41913  22.449  13.700   7.050
 7593POPC   C4B41914  22.451  13.677   7.350
 7594POPC   NC341915  23.714  10.535   5.550
 7594POPC   PO441916  23.732  10.510   5.850
 7594POPC   GL141917  23.728  10.481   6.150
 7594POPC   GL241918  23.799  10.383   6.150
 7594POPC   C1A41919  23.715  10.563   6.450
 7594POPC   D2A41920  23.697  10.527   6.750
 7594POPC   C3A41921  23.665  10.554   7.050
 7594POPC   C4A41922  23.690  10.544   7.350
 7594POPC   C1B41923  23.861  10.377   6.450
 7594POPC   C2B41924  23.910  10.306   6.750
 7594POPC   C3B41925  23.866  10.349   7.050
 7594POPC   C4B41926  23.897  10.358   7.350
 7595POPC   NC341927   8.965  29.945   5.550
 7595POPC   PO441928   8.994  29.890   5.850
 7595POPC   GL141929   9.020  29.915   6.150
 7595POPC   GL241930   8.940  29.817   6.150
 7595POPC   C1A41931   8.984  29.926   6.450
 7595POPC   D2A41932   8.924  29.965   6.750
 7595POPC   C3A41933   8.935  29.965   7.050
 7595POPC   C4A41934   8.987  29.922   7.350
 7595POPC   C1B41935   9.020  29.628   6.450
 7595POPC   C2B41936   8.996  29.646   6.750
 7595POPC   C3B41937   9.045  29.636   7.050
 7595POPC   C4B41938   8.955  29.644   7.350
 7596POPC   NC341939   5.872  37.690   5.550
 7596POPC   PO441940   5.881  37.663   5.850
 7596POPC   GL141941   5.903  37.698   6.150
 7596POPC   GL241942   5.889  37.841   6.150
 7596POPC   C1A41943   5.905  37.679   6.450
 7596POPC   D2A41944   5.874  37.684   6.750
 7596POPC   C3A41945   5.867  37.712   7.050
 7596POPC   C4A41946   5.901  37.646   7.350
 7596POPC   C1B41947   5.780  37.911   6.450
 7596POPC   C2B41948   5.846  37.889   6.750
 7596POPC   C3B41949   5.847  37.914   7.050
 7596POPC   C4B41950   5.847  37.943   7.350
 7597POPC   NC341951  40.755   8.959   5.550
 7597POPC   PO441952  40.827   8.928   5.850
 7597POPC   GL141953  40.805   9.011   6.150
 7597POPC   GL241954  40.664   9.112   6.150
 7597POPC   C1A41955  40.773   8.925   6.450
 7597POPC   D2A41956  40.823   8.973   6.750
 7597POPC   C3A41957  40.736   8.986   7.050
 7597POPC   C4A41958  40.772   8.931   7.350
 7597POPC   C1B41959  40.620   9.215   6.450
 7597POPC   C2B41960  40.676   9.124   6.750
 7597POPC   C3B41961  40.598   9.159   7.050
 7597POPC   C4B41962  40.657   9.144   7.350
 7598POPC   NC341963   5.885   4.350   5.550
 7598POPC   PO441964   5.851   4.339   5.850
 7598POPC   GL141965   5.854   4.315   6.150
 7598POPC   GL241966   5.957   4.435   6.150
 7598POPC   C1A41967   5.887   4.320   6.450
 7598POPC   D2A41968   5.917   4.289   6.750
 7598POPC   C3A41969   5.836   4.290   7.050
 7598POPC   C4A41970   5.865   4.336   7.350
 7598POPC   C1B41971   6.028   4.570   6.450
 7598POPC   C2B41972   6.002   4.515   6.750
 7598POPC   C3B41973   6.024   4.559   7.050
 7598POPC   C4B41974   5.974   4.504   7.350
 7599POPC   NC341975  13.602  25.247   5.550
 7599POPC   PO441976  13.647  25.234   5.850
 7599POPC   GL141977  13.647  25.307   6.150
 7599POPC   GL241978  13.693  25.318   6.150
 7599POPC   C1A41979  13.592  25.250   6.450
 7599POPC   D2A41980  13.584  25.221   6.750
 7599POPC   C3A41981  13.621  25.287   7.050
 7599POPC   C4A41982  13.623  25.288   7.350
 7599POPC   C1B41983  13.805  25.417   6.450
 7599POPC   C2B41984  13.830  25.384   6.750
 7599POPC   C3B41985  13.837  25.415   7.050
 7599POPC   C4B41986  13.868  25.392   7.350
 7600POPC   NC341987   7.454  13.643   5.550
 7600POPC   PO441988   7.402  13.652   5.850
 7600POPC   GL141989   7.382  13.653   6.150
 7600POPC   GL241990   7.490  13.691   6.150
 7600POPC   C1A41991   7.416  13.632   6.450
 7600POPC   D2A41992   7.468  13.584   6.750
 7600POPC   C3A41993   7.385  13.664   7.050
 7600POPC   C4A41994   7.456  13.635   7.350
 7600POPC   C1B41995   7.657  13.800   6.450
 7600POPC   C2B41996   7.613  13.834   6.750
 7600POPC   C3B41997   7.584  13.758   7.050
 7600POPC   C4B41998   7.581  13.795   7.350
 7601POPC   NC341999  41.606   5.888   5.550
 7601POPC   PO442000  41.554   5.847   5.850
 7601POPC   GL142001  41.515   5.836   6.150
 7601POPC   GL242002  41.678   5.929   6.150
 7601POPC   C1A42003  41.552   5.845   6.450
 7601POPC   D2A42004  41.606   5.838   6.750
 7601POPC   C3A42005  41.510   5.862   7.050
 7601POPC   C4A42006  41.563   5.836   7.350
 7601POPC   C1B42007  41.821   5.907   6.450
 7601POPC   C2B42008  41.762   5.968   6.750
 7601POPC   C3B42009  41.803   5.887   7.050
 7601POPC   C4B42010  41.786   5.973   7.350
 7602POPC   NC342011  17.484  36.078   5.550
 7602POPC   PO442012  17.518  36.137   5.850
 7602POPC   GL142013  17.489  36.078   6.150
 7602POPC   GL242014  17.601  36.235   6.150
 7602POPC   C1A42015  17.472  36.106   6.450
 7602POPC   D2A42016  17.546  36.135   6.750
 7602POPC   C3A42017  17.547  36.145   7.050
 7602POPC   C4A42018  17.556  36.149   7.350
 7602POPC   C1B42019  17.750  36.266   6.450
 7602POPC   C2B42020  17.716  36.258   6.750
 7602POPC   C3B42021  17.747  36.278   7.050
 7602POPC   C4B42022  17.683  36.293   7.350
 7603POPC   NC342023  33.778   8.238   5.550
 7603POPC   PO442024  33.823   8.174   5.850
 7603POPC   GL142025  33.834   8.221   6.150
 7603POPC   GL242026  33.848   8.121   6.150
 7603POPC   C1A42027  33.824   8.238   6.450
 7603POPC   D2A42028  33.785   8.200   6.750
 7603POPC   C3A42029  33.842   8.241   7.050
 7603POPC   C4A42030  33.806   8.149   7.350
 7603POPC   C1B42031  33.914   7.957   6.450
 7603POPC   C2B42032  33.873   7.938   6.750
 7603POPC   C3B42033  33.871   7.930   7.050
 7603POPC   C4B42034  33.867   7.989   7.350
 7604POPC   NC342035  15.943  10.554   5.550
 7604POPC   PO442036  15.927  10.510   5.850
 7604POPC   GL142037  15.977  10.539   6.150
 7604POPC   GL242038  15.805  10.535   6.150
 7604POPC   C1A42039  15.922  10.560   6.450
 7604POPC   D2A42040  15.931  10.498   6.750
 7604POPC   C3A42041  15.954  10.542   7.050
 7604POPC   C4A42042  15.935  10.485   7.350
 7604POPC   C1B42043  15.749  10.550   6.450
 7604POPC   C2B42044  15.718  10.468   6.750
 7604POPC   C3B42045  15.721  10.559   7.050
 7604POPC   C4B42046  15.694  10.498   7.350
 7605POPC   NC342047  36.166  10.565   5.550
 7605POPC   PO442048  36.127  10.533   5.850
 7605POPC   GL142049  36.154  10.528   6.150
 7605POPC   GL242050  36.233  10.619   6.150
 7605POPC   C1A42051  36.098  10.507   6.450
 7605POPC   D2A42052  36.156  10.553   6.750
 7605POPC   C3A42053  36.088  10.516   7.050
 7605POPC   C4A42054  36.093  10.494   7.350
 7605POPC   C1B42055  36.271  10.681   6.450
 7605POPC   C2B42056  36.264  10.724   6.750
 7605POPC   C3B42057  36.279  10.710   7.050
 7605POPC   C4B42058  36.318  10.764   7.350
 7606POPC   NC342059   8.923   2.742   5.550
 7606POPC   PO442060   9.012   2.786   5.850
 7606POPC   GL142061   8.998   2.815   6.150
 7606POPC   GL242062   8.877   2.862   6.150
 7606POPC   C1A42063   8.968   2.738   6.450
 7606POPC   D2A42064   8.925   2.794   6.750
 7606POPC   C3A42065   9.007   2.748   7.050
 7606POPC   C4A42066   8.981   2.716   7.350
 7606POPC   C1B42067   8.802   2.981   6.450
 7606POPC   C2B42068   8.833   2.990   6.750
 7606POPC   C3B42069   8.895   3.024   7.050
 7606POPC   C4B42070   8.862   2.951   7.350
 7607POPC   NC342071  12.066  44.702   5.550
 7607POPC   PO442072  12.124  44.707   5.850
 7607POPC   GL142073  12.118  44.684   6.150
 7607POPC   GL242074  12.128  44.832   6.150
 7607POPC   C1A42075  12.104  44.616   6.450
 7607POPC   D2A42076  12.048  44.698   6.750
 7607POPC   C3A42077  12.052  44.669   7.050
 7607POPC   C4A42078  12.092  44.670   7.350
 7607POPC   C1B42079  12.136  44.914   6.450
 7607POPC   C2B42080  12.164  44.876   6.750
 7607POPC   C3B42081  12.121  44.906   7.050
 7607POPC   C4B42082  12.118  44.903   7.350
 7608POPC   NC342083  33.034  23.688   5.550
 7608POPC   PO442084  32.980  23.727   5.850
 7608POPC   GL142085  33.066  23.706   6.150
 7608POPC   GL242086  32.925  23.751   6.150
 7608POPC   C1A42087  33.002  23.679   6.450
 7608POPC   D2A42088  32.981  23.673   6.750
 7608POPC   C3A42089  33.009  23.711   7.050
 7608POPC   C4A42090  32.991  23.762   7.350
 7608POPC   C1B42091  32.831  23.826   6.450
 7608POPC   C2B42092  32.821  23.919   6.750
 7608POPC   C3B42093  32.827  23.912   7.050
 7608POPC   C4B42094  32.863  23.924   7.350
 7609POPC   NC342095   2.719  22.197   5.550
 7609POPC   PO442096   2.739  22.127   5.850
 7609POPC   GL142097   2.763  22.161   6.150
 7609POPC   GL242098   2.915  22.236   6.150
 7609POPC   C1A42099   2.734  22.182   6.450
 7609POPC   D2A42100   2.751  22.205   6.750
 7609POPC   C3A42101   2.725  22.172   7.050
 7609POPC   C4A42102   2.732  22.195   7.350
 7609POPC   C1B42103   2.976  22.327   6.450
 7609POPC   C2B42104   2.939  22.316   6.750
 7609POPC   C3B42105   2.990  22.277   7.050
 7609POPC   C4B42106   2.963  22.286   7.350
 7610POPC   NC342107  42.354   8.167   5.550
 7610POPC   PO442108  42.344   8.162   5.850
 7610POPC   GL142109  42.383   8.177   6.150
 7610POPC   GL242110  42.196   8.106   6.150
 7610POPC   C1A42111  42.335   8.189   6.450
 7610POPC   D2A42112  42.293   8.209   6.750
 7610POPC   C3A42113  42.314   8.209   7.050
 7610POPC   C4A42114  42.306   8.182   7.350
 7610POPC   C1B42115  42.122   8.052   6.450
 7610POPC   C2B42116  42.135   8.028   6.750
 7610POPC   C3B42117  42.154   8.022   7.050
 7610POPC   C4B42118  42.114   8.089   7.350
 7611POPC   NC342119  12.829   3.572   5.550
 7611POPC   PO442120  12.836   3.506   5.850
 7611POPC   GL142121  12.892   3.522   6.150
 7611POPC   GL242122  12.969   3.480   6.150
 7611POPC   C1A42123  12.886   3.517   6.450
 7611POPC   D2A42124  12.861   3.560   6.750
 7611POPC   C3A42125  12.822   3.535   7.050
 7611POPC   C4A42126  12.819   3.508   7.350
 7611POPC   C1B42127  13.033   3.445   6.450
 7611POPC   C2B42128  13.076   3.397   6.750
 7611POPC   C3B42129  13.050   3.404   7.050
 7611POPC   C4B42130  13.069   3.415   7.350
 7612POPC   NC342131   1.195   3.550   5.550
 7612POPC   PO442132   1.179   3.557   5.850
 7612POPC   GL142133   1.237   3.510   6.150
 7612POPC   GL242134   1.087   3.669   6.150
 7612POPC   C1A42135   1.205   3.518   6.450
 7612POPC   D2A42136   1.243   3.525   6.750
 7612POPC   C3A42137   1.233   3.555   7.050
 7612POPC   C4A42138   1.164   3.549   7.350
 7612POPC   C1B42139   0.996   3.759   6.450
 7612POPC   C2B42140   1.021   3.665   6.750
 7612POPC   C3B42141   1.056   3.685   7.050
 7612POPC   C4B42142   1.050   3.689   7.350
 7613POPC   NC342143   3.577  33.787   5.550
 7613POPC   PO442144   3.525  33.787   5.850
 7613POPC   GL142145   3.575  33.841   6.150
 7613POPC   GL242146   3.476  33.709   6.150
 7613POPC   C1A42147   3.509  33.788   6.450
 7613POPC   D2A42148   3.495  33.806   6.750
 7613POPC   C3A42149   3.493  33.775   7.050
 7613POPC   C4A42150   3.496  33.762   7.350
 7613POPC   C1B42151   3.460  33.523   6.450
 7613POPC   C2B42152   3.433  33.595   6.750
 7613POPC   C3B42153   3.474  33.593   7.050
 7613POPC   C4B42154   3.428  33.545   7.350
 7614POPC   NC342155  24.504   2.801   5.550
 7614POPC   PO442156  24.482   2.796   5.850
 7614POPC   GL142157  24.469   2.724   6.150
 7614POPC   GL242158  24.569   2.682   6.150
 7614POPC   C1A42159  24.476   2.782   6.450
 7614POPC   D2A42160  24.506   2.753   6.750
 7614POPC   C3A42161  24.526   2.760   7.050
 7614POPC   C4A42162  24.506   2.717   7.350
 7614POPC   C1B42163  24.639   2.568   6.450
 7614POPC   C2B42164  24.552   2.588   6.750
 7614POPC   C3B42165  24.553   2.566   7.050
 7614POPC   C4B42166  24.609   2.569   7.350
 7615POPC   NC342167  43.923  19.817   5.550
 7615POPC   PO442168  43.848  19.805   5.850
 7615POPC   GL142169  43.864  19.852   6.150
 7615POPC   GL242170  43.712  19.868   6.150
 7615POPC   C1A42171  43.891  19.816   6.450
 7615POPC   D2A42172  43.904  19.791   6.750
 7615POPC   C3A42173  43.922  19.838   7.050
 7615POPC   C4A42174  43.933  19.851   7.350
 7615POPC   C1B42175  43.604  19.870   6.450
 7615POPC   C2B42176  43.617  19.846   6.750
 7615POPC   C3B42177  43.610  19.882   7.050
 7615POPC   C4B42178  43.631  19.875   7.350
 7616POPC   NC342179  33.020  37.654   5.550
 7616POPC   PO442180  32.984  37.679   5.850
 7616POPC   GL142181  32.983  37.677   6.150
 7616POPC   GL242182  33.143  37.603   6.150
 7616POPC   C1A42183  33.042  37.664   6.450
 7616POPC   D2A42184  33.002  37.672   6.750
 7616POPC   C3A42185  33.032  37.666   7.050
 7616POPC   C4A42186  33.003  37.699   7.350
 7616POPC   C1B42187  33.223  37.611   6.450
 7616POPC   C2B42188  33.237  37.655   6.750
 7616POPC   C3B42189  33.239  37.616   7.050
 7616POPC   C4B42190  33.226  37.623   7.350
 7617POPC   NC342191  19.037   4.360   5.550
 7617POPC   PO442192  19.044   4.334   5.850
 7617POPC   GL142193  19.103   4.272   6.150
 7617POPC   GL242194  18.996   4.441   6.150
 7617POPC   C1A42195  19.096   4.268   6.450
 7617POPC   D2A42196  19.070   4.357   6.750
 7617POPC   C3A42197  19.042   4.305   7.050
 7617POPC   C4A42198  19.103   4.328   7.350
 7617POPC   C1B42199  18.891   4.520   6.450
 7617POPC   C2B42200  18.870   4.443   6.750
 7617POPC   C3B42201  18.849   4.447   7.050
 7617POPC   C4B42202  18.903   4.482   7.350
 7618POPC   NC342203  12.066   3.571   5.550
 7618POPC   PO442204  12.095   3.507   5.850
 7618POPC   GL142205  12.112   3.507   6.150
 7618POPC   GL242206  12.095   3.686   6.150
 7618POPC   C1A42207  12.055   3.591   6.450
 7618POPC   D2A42208  12.031   3.588   6.750
 7618POPC   C3A42209  12.066   3.525   7.050
 7618POPC   C4A42210  12.083   3.562   7.350
 7618POPC   C1B42211  12.103   3.733   6.450
 7618POPC   C2B42212  12.138   3.755   6.750
 7618POPC   C3B42213  12.125   3.828   7.050
 7618POPC   C4B42214  12.151   3.790   7.350
 7619POPC   NC342215  22.146  18.286   5.550
 7619POPC   PO442216  22.167  18.278   5.850
 7619POPC   GL142217  22.187  18.293   6.150
 7619POPC   GL242218  22.299  18.328   6.150
 7619POPC   C1A42219  22.198  18.267   6.450
 7619POPC   D2A42220  22.202  18.316   6.750
 7619POPC   C3A42221  22.176  18.274   7.050
 7619POPC   C4A42222  22.167  18.295   7.350
 7619POPC   C1B42223  22.348  18.428   6.450
 7619POPC   C2B42224  22.299  18.486   6.750
 7619POPC   C3B42225  22.334  18.469   7.050
 7619POPC   C4B42226  22.384  18.498   7.350
 7620POPC   NC342227  11.321  36.144   5.550
 7620POPC   PO442228  11.308  36.143   5.850
 7620POPC   GL142229  11.288  36.082   6.150
 7620POPC   GL242230  11.184  36.042   6.150
 7620POPC   C1A42231  11.282  36.173   6.450
 7620POPC   D2A42232  11.321  36.149   6.750
 7620POPC   C3A42233  11.261  36.160   7.050
 7620POPC   C4A42234  11.269  36.127   7.350
 7620POPC   C1B42235  11.050  36.060   6.450
 7620POPC   C2B42236  11.101  36.010   6.750
 7620POPC   C3B42237  11.103  36.045   7.050
 7620POPC   C4B42238  11.055  36.022   7.350
 7621POPC   NC342239  36.172  22.930   5.550
 7621POPC   PO442240  36.126  22.900   5.850
 7621POPC   GL142241  36.124  22.948   6.150
 7621POPC   GL242242  36.035  22.866   6.150
 7621POPC   C1A42243  36.158  22.922   6.450
 7621POPC   D2A42244  36.116  22.986   6.750
 7621POPC   C3A42245  36.175  22.958   7.050
 7621POPC   C4A42246  36.092  22.979   7.350
 7621POPC   C1B42247  36.014  22.689   6.450
 7621POPC   C2B42248  36.073  22.753   6.750
 7621POPC   C3B42249  36.054  22.661   7.050
 7621POPC   C4B42250  36.073  22.729   7.350
 7622POPC   NC342251  35.339  32.279   5.550
 7622POPC   PO442252  35.388  32.254   5.850
 7622POPC   GL142253  35.327  32.201   6.150
 7622POPC   GL242254  35.468  32.172   6.150
 7622POPC   C1A42255  35.317  32.259   6.450
 7622POPC   D2A42256  35.346  32.202   6.750
 7622POPC   C3A42257  35.390  32.269   7.050
 7622POPC   C4A42258  35.379  32.284   7.350
 7622POPC   C1B42259  35.520  32.071   6.450
 7622POPC   C2B42260  35.599  32.066   6.750
 7622POPC   C3B42261  35.532  32.079   7.050
 7622POPC   C4B42262  35.585  32.147   7.350
 7623POPC   NC342263   9.013  21.415   5.550
 7623POPC   PO442264   8.995  21.346   5.850
 7623POPC   GL142265   9.006  21.346   6.150
 7623POPC   GL242266   8.873  21.359   6.150
 7623POPC   C1A42267   8.955  21.367   6.450
 7623POPC   D2A42268   8.968  21.436   6.750
 7623POPC   C3A42269   9.014  21.434   7.050
 7623POPC   C4A42270   8.963  21.360   7.350
 7623POPC   C1B42271   8.685  21.391   6.450
 7623POPC   C2B42272   8.706  21.381   6.750
 7623POPC   C3B42273   8.728  21.429   7.050
 7623POPC   C4B42274   8.738  21.432   7.350
 7624POPC   NC342275   4.298   7.425   5.550
 7624POPC   PO442276   4.315   7.396   5.850
 7624POPC   GL142277   4.356   7.395   6.150
 7624POPC   GL242278   4.361   7.299   6.150
 7624POPC   C1A42279   4.282   7.454   6.450
 7624POPC   D2A42280   4.365   7.458   6.750
 7624POPC   C3A42281   4.361   7.421   7.050
 7624POPC   C4A42282   4.316   7.395   7.350
 7624POPC   C1B42283   4.486   7.248   6.450
 7624POPC   C2B42284   4.448   7.209   6.750
 7624POPC   C3B42285   4.444   7.243   7.050
 7624POPC   C4B42286   4.504   7.223   7.350
 7625POPC   NC342287  37.646  40.028   5.550
 7625POPC   PO442288  37.711  40.004   5.850
 7625POPC   GL142289  37.709  39.970   6.150
 7625POPC   GL242290  37.795  39.995   6.150
 7625POPC   C1A42291  37.727  40.051   6.450
 7625POPC   D2A42292  37.634  40.050   6.750
 7625POPC   C3A42293  37.663  39.961   7.050
 7625POPC   C4A42294  37.663  39.979   7.350
 7625POPC   C1B42295  37.957  39.937   6.450
 7625POPC   C2B42296  37.871  39.904   6.750
 7625POPC   C3B42297  37.960  39.959   7.050
 7625POPC   C4B42298  37.898  39.970   7.350
 7626POPC   NC342299  15.920   3.582   5.550
 7626POPC   PO442300  15.911   3.503   5.850
 7626POPC   GL142301  15.956   3.549   6.150
 7626POPC   GL242302  15.893   3.617   6.150
 7626POPC   C1A42303  15.952   3.581   6.450
 7626POPC   D2A42304  15.943   3.532   6.750
 7626POPC   C3A42305  15.944   3.552   7.050
 7626POPC   C4A42306  15.983   3.550   7.350
 7626POPC   C1B42307  15.885   3.736   6.450
 7626POPC   C2B42308  15.857   3.753   6.750
 7626POPC   C3B42309  15.851   3.831   7.050
 7626POPC   C4B42310  15.885   3.780   7.350
 7627POPC   NC342311   5.839   3.515   5.550
 7627POPC   PO442312   5.879   3.580   5.850
 7627POPC   GL142313   5.835   3.533   6.150
 7627POPC   GL242314   5.921   3.616   6.150
 7627POPC   C1A42315   5.882   3.590   6.450
 7627POPC   D2A42316   5.840   3.503   6.750
 7627POPC   C3A42317   5.901   3.582   7.050
 7627POPC   C4A42318   5.824   3.545   7.350
 7627POPC   C1B42319   5.950   3.748   6.450
 7627POPC   C2B42320   5.946   3.810   6.750
 7627POPC   C3B42321   5.905   3.749   7.050
 7627POPC   C4B42322   5.966   3.798   7.350
 7628POPC   NC342323  36.148  39.206   5.550
 7628POPC   PO442324  36.080  39.231   5.850
 7628POPC   GL142325  36.147  39.188   6.150
 7628POPC   GL242326  35.982  39.216   6.150
 7628POPC   C1A42327  36.109  39.233   6.450
 7628POPC   D2A42328  36.132  39.208   6.750
 7628POPC   C3A42329  36.135  39.229   7.050
 7628POPC   C4A42330  36.113  39.184   7.350
 7628POPC   C1B42331  35.895  39.178   6.450
 7628POPC   C2B42332  35.897  39.152   6.750
 7628POPC   C3B42333  35.866  39.183   7.050
 7628POPC   C4B42334  35.897  39.164   7.350
 7629POPC   NC342335  44.615  24.485   5.550
 7629POPC   PO442336  44.688  24.455   5.850
 7629POPC   GL142337  44.645  24.520   6.150
 7629POPC   GL242338  44.737  24.414   6.150
 7629POPC   C1A42339  44.674  24.452   6.450
 7629POPC   D2A42340  44.711  24.530   6.750
 7629POPC   C3A42341  44.663  24.491   7.050
 7629POPC   C4A42342  44.623  24.455   7.350
 7629POPC   C1B42343  44.863  24.374   6.450
 7629POPC   C2B42344  44.852  24.334   6.750
 7629POPC   C3B42345  44.867  24.338   7.050
 7629POPC   C4B42346  44.822  24.348   7.350
 7630POPC   NC342347  35.355  31.502   5.550
 7630POPC   PO442348  35.345  31.514   5.850
 7630POPC   GL142349  35.326  31.459   6.150
 7630POPC   GL242350  35.509  31.454   6.150
 7630POPC   C1A42351  35.374  31.425   6.450
 7630POPC   D2A42352  35.338  31.513   6.750
 7630POPC   C3A42353  35.395  31.482   7.050
 7630POPC   C4A42354  35.315  31.435   7.350
 7630POPC   C1B42355  35.591  31.348   6.450
 7630POPC   C2B42356  35.588  31.365   6.750
 7630POPC   C3B42357  35.584  31.355   7.050
 7630POPC   C4B42358  35.579  31.378   7.350
 7631POPC   NC342359  14.371   3.526   5.550
 7631POPC   PO442360  14.375   3.575   5.850
 7631POPC   GL142361  14.434   3.584   6.150
 7631POPC   GL242362  14.443   3.385   6.150
 7631POPC   C1A42363  14.374   3.537   6.450
 7631POPC   D2A42364  14.373   3.495   6.750
 7631POPC   C3A42365  14.381   3.507   7.050
 7631POPC   C4A42366  14.401   3.577   7.350
 7631POPC   C1B42367  14.430   3.325   6.450
 7631POPC   C2B42368  14.410   3.286   6.750
 7631POPC   C3B42369  14.452   3.292   7.050
 7631POPC   C4B42370  14.460   3.300   7.350
 7632POPC   NC342371  40.791  43.069   5.550
 7632POPC   PO442372  40.812  43.092   5.850
 7632POPC   GL142373  40.809  43.113   6.150
 7632POPC   GL242374  40.914  43.086   6.150
 7632POPC   C1A42375  40.830  43.135   6.450
 7632POPC   D2A42376  40.785  43.144   6.750
 7632POPC   C3A42377  40.827  43.117   7.050
 7632POPC   C4A42378  40.803  43.132   7.350
 7632POPC   C1B42379  41.001  43.100   6.450
 7632POPC   C2B42380  41.070  43.127   6.750
 7632POPC   C3B42381  41.030  43.160   7.050
 7632POPC   C4B42382  41.032  43.067   7.350
 7633POPC   NC342383  17.478  18.273   5.550
 7633POPC   PO442384  17.472  18.319   5.850
 7633POPC   GL142385  17.496  18.290   6.150
 7633POPC   GL242386  17.479  18.381   6.150
 7633POPC   C1A42387  17.476  18.302   6.450
 7633POPC   D2A42388  17.476  18.321   6.750
 7633POPC   C3A42389  17.529  18.260   7.050
 7633POPC   C4A42390  17.467  18.251   7.350
 7633POPC   C1B42391  17.468  18.546   6.450
 7633POPC   C2B42392  17.493  18.543   6.750
 7633POPC   C3B42393  17.463  18.490   7.050
 7633POPC   C4B42394  17.484  18.482   7.350
 7634POPC   NC342395  25.310  20.593   5.550
 7634POPC   PO442396  25.256  20.584   5.850
 7634POPC   GL142397  25.307  20.562   6.150
 7634POPC   GL242398  25.278  20.701   6.150
 7634POPC   C1A42399  25.303  20.586   6.450
 7634POPC   D2A42400  25.235  20.612   6.750
 7634POPC   C3A42401  25.298  20.658   7.050
 7634POPC   C4A42402  25.251  20.598   7.350
 7634POPC   C1B42403  25.278  20.860   6.450
 7634POPC   C2B42404  25.272  20.905   6.750
 7634POPC   C3B42405  25.268  20.861   7.050
 7634POPC   C4B42406  25.307  20.891   7.350
 7635POPC   NC342407   4.314  10.530   5.550
 7635POPC   PO442408   4.358  10.534   5.850
 7635POPC   GL142409   4.313  10.533   6.150
 7635POPC   GL242410   4.346  10.601   6.150
 7635POPC   C1A42411   4.357  10.508   6.450
 7635POPC   D2A42412   4.295  10.543   6.750
 7635POPC   C3A42413   4.357  10.559   7.050
 7635POPC   C4A42414   4.348  10.548   7.350
 7635POPC   C1B42415   4.430  10.689   6.450
 7635POPC   C2B42416   4.483  10.696   6.750
 7635POPC   C3B42417   4.434  10.723   7.050
 7635POPC   C4B42418   4.455  10.714   7.350
 7636POPC   NC342419  32.251  43.142   5.550
 7636POPC   PO442420  32.216  43.154   5.850
 7636POPC   GL142421  32.252  43.076   6.150
 7636POPC   GL242422  32.372  43.145   6.150
 7636POPC   C1A42423  32.216  43.090   6.450
 7636POPC   D2A42424  32.261  43.110   6.750
 7636POPC   C3A42425  32.199  43.089   7.050
 7636POPC   C4A42426  32.234  43.150   7.350
 7636POPC   C1B42427  32.414  43.284   6.450
 7636POPC   C2B42428  32.408  43.312   6.750
 7636POPC   C3B42429  32.459  43.246   7.050
 7636POPC   C4B42430  32.443  43.299   7.350
 7637POPC   NC342431  22.984   5.877   5.550
 7637POPC   PO442432  22.896   5.841   5.850
 7637POPC   GL142433  22.956   5.884   6.150
 7637POPC   GL242434  23.072   5.916   6.150
 7637POPC   C1A42435  22.959   5.908   6.450
 7637POPC   D2A42436  22.938   5.837   6.750
 7637POPC   C3A42437  22.965   5.845   7.050
 7637POPC   C4A42438  22.893   5.836   7.350
 7637POPC   C1B42439  23.163   6.071   6.450
 7637POPC   C2B42440  23.077   6.059   6.750
 7637POPC   C3B42441  23.151   6.006   7.050
 7637POPC   C4B42442  23.080   6.024   7.350
 7638POPC   NC342443  20.630   3.498   5.550
 7638POPC   PO442444  20.639   3.544   5.850
 7638POPC   GL142445  20.614   3.585   6.150
 7638POPC   GL242446  20.706   3.624   6.150
 7638POPC   C1A42447  20.654   3.522   6.450
 7638POPC   D2A42448  20.588   3.522   6.750
 7638POPC   C3A42449  20.565   3.498   7.050
 7638POPC   C4A42450  20.613   3.549   7.350
 7638POPC   C1B42451  20.854   3.631   6.450
 7638POPC   C2B42452  20.811   3.627   6.750
 7638POPC   C3B42453  20.811   3.706   7.050
 7638POPC   C4B42454  20.796   3.690   7.350
 7639POPC   NC342455  19.016  30.669   5.550
 7639POPC   PO442456  19.101  30.719   5.850
 7639POPC   GL142457  19.028  30.686   6.150
 7639POPC   GL242458  19.106  30.627   6.150
 7639POPC   C1A42459  19.088  30.708   6.450
 7639POPC   D2A42460  19.049  30.728   6.750
 7639POPC   C3A42461  19.049  30.711   7.050
 7639POPC   C4A42462  19.037  30.673   7.350
 7639POPC   C1B42463  19.198  30.421   6.450
 7639POPC   C2B42464  19.162  30.450   6.750
 7639POPC   C3B42465  19.151  30.502   7.050
 7639POPC   C4B42466  19.196  30.457   7.350
 7640POPC   NC342467  25.239  38.487   5.550
 7640POPC   PO442468  25.225  38.438   5.850
 7640POPC   GL142469  25.272  38.430   6.150
 7640POPC   GL242470  25.338  38.559   6.150
 7640POPC   C1A42471  25.235  38.501   6.450
 7640POPC   D2A42472  25.298  38.459   6.750
 7640POPC   C3A42473  25.251  38.445   7.050
 7640POPC   C4A42474  25.288  38.488   7.350
 7640POPC   C1B42475  25.422  38.630   6.450
 7640POPC   C2B42476  25.462  38.605   6.750
 7640POPC   C3B42477  25.455  38.622   7.050
 7640POPC   C4B42478  25.432  38.643   7.350
 7641POPC   NC342479  34.528  38.460   5.550
 7641POPC   PO442480  34.557  38.462   5.850
 7641POPC   GL142481  34.565  38.478   6.150
 7641POPC   GL242482  34.623  38.510   6.150
 7641POPC   C1A42483  34.532  38.420   6.450
 7641POPC   D2A42484  34.583  38.457   6.750
 7641POPC   C3A42485  34.579  38.416   7.050
 7641POPC   C4A42486  34.578  38.485   7.350
 7641POPC   C1B42487  34.734  38.692   6.450
 7641POPC   C2B42488  34.717  38.635   6.750
 7641POPC   C3B42489  34.743  38.624   7.050
 7641POPC   C4B42490  34.700  38.649   7.350
 7642POPC   NC342491  10.523  12.125   5.550
 7642POPC   PO442492  10.523  12.087   5.850
 7642POPC   GL142493  10.488  12.108   6.150
 7642POPC   GL242494  10.459  12.165   6.150
 7642POPC   C1A42495  10.498  12.086   6.450
 7642POPC   D2A42496  10.522  12.068   6.750
 7642POPC   C3A42497  10.488  12.034   7.050
 7642POPC   C4A42498  10.555  12.048   7.350
 7642POPC   C1B42499  10.402  12.274   6.450
 7642POPC   C2B42500  10.421  12.229   6.750
 7642POPC   C3B42501  10.420  12.284   7.050
 7642POPC   C4B42502  10.382  12.268   7.350
 7643POPC   NC342503  22.202  24.530   5.550
 7643POPC   PO442504  22.158  24.524   5.850
 7643POPC   GL142505  22.176  24.451   6.150
 7643POPC   GL242506  22.226  24.419   6.150
 7643POPC   C1A42507  22.134  24.479   6.450
 7643POPC   D2A42508  22.189  24.497   6.750
 7643POPC   C3A42509  22.187  24.482   7.050
 7643POPC   C4A42510  22.162  24.491   7.350
 7643POPC   C1B42511  22.290  24.238   6.450
 7643POPC   C2B42512  22.250  24.241   6.750
 7643POPC   C3B42513  22.283  24.247   7.050
 7643POPC   C4B42514  22.333  24.279   7.350
 7644POPC   NC342515   1.989   9.775   5.550
 7644POPC   PO442516   1.968   9.729   5.850
 7644POPC   GL142517   1.989   9.750   6.150
 7644POPC   GL242518   1.825   9.730   6.150
 7644POPC   C1A42519   2.018   9.728   6.450
 7644POPC   D2A42520   2.033   9.717   6.750
 7644POPC   C3A42521   1.988   9.778   7.050
 7644POPC   C4A42522   2.021   9.717   7.350
 7644POPC   C1B42523   1.779   9.736   6.450
 7644POPC   C2B42524   1.711   9.778   6.750
 7644POPC   C3B42525   1.737   9.785   7.050
 7644POPC   C4B42526   1.723   9.715   7.350
 7645POPC   NC342527   7.428  34.622   5.550
 7645POPC   PO442528   7.375  34.595   5.850
 7645POPC   GL142529   7.444  34.615   6.150
 7645POPC   GL242530   7.585  34.578   6.150
 7645POPC   C1A42531   7.392  34.604   6.450
 7645POPC   D2A42532   7.393  34.604   6.750
 7645POPC   C3A42533   7.421  34.616   7.050
 7645POPC   C4A42534   7.438  34.594   7.350
 7645POPC   C1B42535   7.638  34.523   6.450
 7645POPC   C2B42536   7.640  34.534   6.750
 7645POPC   C3B42537   7.668  34.459   7.050
 7645POPC   C4B42538   7.641  34.501   7.350
 7646POPC   NC342539  39.970  33.838   5.550
 7646POPC   PO442540  40.000  33.771   5.850
 7646POPC   GL142541  40.034  33.767   6.150
 7646POPC   GL242542  39.890  33.874   6.150
 7646POPC   C1A42543  39.964  33.800   6.450
 7646POPC   D2A42544  40.017  33.802   6.750
 7646POPC   C3A42545  40.054  33.779   7.050
 7646POPC   C4A42546  39.972  33.752   7.350
 7646POPC   C1B42547  39.863  33.964   6.450
 7646POPC   C2B42548  39.851  33.964   6.750
 7646POPC   C3B42549  39.838  34.036   7.050
 7646POPC   C4B42550  39.881  34.013   7.350
 7647POPC   NC342551   8.213  29.155   5.550
 7647POPC   PO442552   8.177  29.131   5.850
 7647POPC   GL142553   8.228  29.192   6.150
 7647POPC   GL242554   8.271  29.181   6.150
 7647POPC   C1A42555   8.149  29.097   6.450
 7647POPC   D2A42556   8.174  29.149   6.750
 7647POPC   C3A42557   8.176  29.130   7.050
 7647POPC   C4A42558   8.226  29.141   7.350
 7647POPC   C1B42559   8.406  29.267   6.450
 7647POPC   C2B42560   8.439  29.236   6.750
 7647POPC   C3B42561   8.421  29.243   7.050
 7647POPC   C4B42562   8.355  29.263   7.350
 7648POPC   NC342563  39.223  24.511   5.550
 7648POPC   PO442564  39.213  24.509   5.850
 7648POPC   GL142565  39.276  24.446   6.150
 7648POPC   GL242566  39.120  24.439   6.150
 7648POPC   C1A42567  39.194  24.506   6.450
 7648POPC   D2A42568  39.187  24.477   6.750
 7648POPC   C3A42569  39.188  24.509   7.050
 7648POPC   C4A42570  39.263  24.536   7.350
 7648POPC   C1B42571  39.109  24.338   6.450
 7648POPC   C2B42572  39.094  24.340   6.750
 7648POPC   C3B42573  39.096  24.276   7.050
 7648POPC   C4B42574  39.091  24.259   7.350
 7649POPC   NC342575  40.040   6.610   5.550
 7649POPC   PO442576  40.044   6.601   5.850
 7649POPC   GL142577  39.972   6.597   6.150
 7649POPC   GL242578  40.099   6.562   6.150
 7649POPC   C1A42579  40.041   6.629   6.450
 7649POPC   D2A42580  40.010   6.646   6.750
 7649POPC   C3A42581  40.035   6.691   7.050
 7649POPC   C4A42582  40.010   6.673   7.350
 7649POPC   C1B42583  40.118   6.464   6.450
 7649POPC   C2B42584  40.078   6.390   6.750
 7649POPC   C3B42585  40.135   6.428   7.050
 7649POPC   C4B42586  40.148   6.472   7.350
 7650POPC   NC342587  30.692  36.132   5.550
 7650POPC   PO442588  30.673  36.152   5.850
 7650POPC   GL142589  30.733  36.092   6.150
 7650POPC   GL242590  30.787  36.029   6.150
 7650POPC   C1A42591  30.687  36.119   6.450
 7650POPC   D2A42592  30.683  36.158   6.750
 7650POPC   C3A42593  30.734  36.107   7.050
 7650POPC   C4A42594  30.668  36.158   7.350
 7650POPC   C1B42595  30.751  35.846   6.450
 7650POPC   C2B42596  30.775  35.904   6.750
 7650POPC   C3B42597  30.823  35.901   7.050
 7650POPC   C4B42598  30.802  35.882   7.350
 7651POPC   NC342599  42.298  15.160   5.550
 7651POPC   PO442600  42.314  15.222   5.850
 7651POPC   GL142601  42.324  15.189   6.150
 7651POPC   GL242602  42.265  15.218   6.150
 7651POPC   C1A42603  42.333  15.194   6.450
 7651POPC   D2A42604  42.297  15.166   6.750
 7651POPC   C3A42605  42.342  15.216   7.050
 7651POPC   C4A42606  42.369  15.133   7.350
 7651POPC   C1B42607  42.085  15.291   6.450
 7651POPC   C2B42608  42.109  15.294   6.750
 7651POPC   C3B42609  42.089  15.283   7.050
 7651POPC   C4B42610  42.144  15.321   7.350
 7652POPC   NC342611  25.305  19.036   5.550
 7652POPC   PO442612  25.235  19.043   5.850
 7652POPC   GL142613  25.313  19.087   6.150
 7652POPC   GL242614  25.293  18.905   6.150
 7652POPC   C1A42615  25.313  19.034   6.450
 7652POPC   D2A42616  25.225  19.065   6.750
 7652POPC   C3A42617  25.278  19.092   7.050
 7652POPC   C4A42618  25.283  19.091   7.350
 7652POPC   C1B42619  25.271  18.768   6.450
 7652POPC   C2B42620  25.283  18.838   6.750
 7652POPC   C3B42621  25.325  18.799   7.050
 7652POPC   C4B42622  25.307  18.765   7.350
 7653POPC   NC342623  22.132  15.942   5.550
 7653POPC   PO442624  22.149  15.910   5.850
 7653POPC   GL142625  22.167  15.913   6.150
 7653POPC   GL242626  22.150  16.125   6.150
 7653POPC   C1A42627  22.119  15.930   6.450
 7653POPC   D2A42628  22.151  15.960   6.750
 7653POPC   C3A42629  22.138  15.991   7.050
 7653POPC   C4A42630  22.177  15.915   7.350
 7653POPC   C1B42631  22.181  16.217   6.450
 7653POPC   C2B42632  22.177  16.203   6.750
 7653POPC   C3B42633  22.106  16.201   7.050
 7653POPC   C4B42634  22.114  16.185   7.350
 7654POPC   NC342635  40.032   8.180   5.550
 7654POPC   PO442636  39.977   8.213   5.850
 7654POPC   GL142637  40.038   8.202   6.150
 7654POPC   GL242638  39.901   8.223   6.150
 7654POPC   C1A42639  39.971   8.246   6.450
 7654POPC   D2A42640  40.030   8.214   6.750
 7654POPC   C3A42641  40.029   8.167   7.050
 7654POPC   C4A42642  40.022   8.166   7.350
 7654POPC   C1B42643  39.808   8.276   6.450
 7654POPC   C2B42644  39.711   8.254   6.750
 7654POPC   C3B42645  39.795   8.237   7.050
 7654POPC   C4B42646  39.804   8.279   7.350
 7655POPC   NC342647   5.050   9.758   5.550
 7655POPC   PO442648   5.115   9.745   5.850
 7655POPC   GL142649   5.094   9.706   6.150
 7655POPC   GL242650   4.972   9.718   6.150
 7655POPC   C1A42651   5.142   9.766   6.450
 7655POPC   D2A42652   5.091   9.752   6.750
 7655POPC   C3A42653   5.049   9.798   7.050
 7655POPC   C4A42654   5.129   9.709   7.350
 7655POPC   C1B42655   4.847   9.756   6.450
 7655POPC   C2B42656   4.809   9.752   6.750
 7655POPC   C3B42657   4.811   9.721   7.050
 7655POPC   C4B42658   4.831   9.679   7.350
 7656POPC   NC342659  15.180  27.596   5.550
 7656POPC   PO442660  15.209  27.579   5.850
 7656POPC   GL142661  15.156  27.636   6.150
 7656POPC   GL242662  15.176  27.723   6.150
 7656POPC   C1A42663  15.209  27.584   6.450
 7656POPC   D2A42664  15.164  27.599   6.750
 7656POPC   C3A42665  15.214  27.553   7.050
 7656POPC   C4A42666  15.161  27.569   7.350
 7656POPC   C1B42667  15.086  27.864   6.450
 7656POPC   C2B42668  15.092  27.804   6.750
 7656POPC   C3B42669  15.061  27.874   7.050
 7656POPC   C4B42670  15.088  27.815   7.350
 7657POPC   NC342671  27.595  34.554   5.550
 7657POPC   PO442672  27.609  34.584   5.850
 7657POPC   GL142673  27.610  34.618   6.150
 7657POPC   GL242674  27.576  34.418   6.150
 7657POPC   C1A42675  27.607  34.527   6.450
 7657POPC   D2A42676  27.608  34.605   6.750
 7657POPC   C3A42677  27.573  34.546   7.050
 7657POPC   C4A42678  27.543  34.619   7.350
 7657POPC   C1B42679  27.458  34.372   6.450
 7657POPC   C2B42680  27.457  34.403   6.750
 7657POPC   C3B42681  27.487  34.395   7.050
 7657POPC   C4B42682  27.472  34.309   7.350
 7658POPC   NC342683  11.335  19.070   5.550
 7658POPC   PO442684  11.291  19.029   5.850
 7658POPC   GL142685  11.292  19.104   6.150
 7658POPC   GL242686  11.383  19.023   6.150
 7658POPC   C1A42687  11.349  19.031   6.450
 7658POPC   D2A42688  11.335  19.056   6.750
 7658POPC   C3A42689  11.297  19.051   7.050
 7658POPC   C4A42690  11.273  19.068   7.350
 7658POPC   C1B42691  11.490  18.889   6.450
 7658POPC   C2B42692  11.466  18.911   6.750
 7658POPC   C3B42693  11.494  18.957   7.050
 7658POPC   C4B42694  11.551  18.921   7.350
 7659POPC   NC342695  18.275  29.908   5.550
 7659POPC   PO442696  18.268  29.911   5.850
 7659POPC   GL142697  18.286  29.943   6.150
 7659POPC   GL242698  18.230  30.021   6.150
 7659POPC   C1A42699  18.264  29.960   6.450
 7659POPC   D2A42700  18.277  29.943   6.750
 7659POPC   C3A42701  18.237  29.965   7.050
 7659POPC   C4A42702  18.330  29.940   7.350
 7659POPC   C1B42703  18.080  30.024   6.450
 7659POPC   C2B42704  18.103  30.048   6.750
 7659POPC   C3B42705  18.051  30.029   7.050
 7659POPC   C4B42706  18.080  30.042   7.350
 7660POPC   NC342707  12.822  26.850   5.550
 7660POPC   PO442708  12.810  26.771   5.850
 7660POPC   GL142709  12.806  26.844   6.150
 7660POPC   GL242710  12.744  26.810   6.150
 7660POPC   C1A42711  12.879  26.799   6.450
 7660POPC   D2A42712  12.824  26.821   6.750
 7660POPC   C3A42713  12.809  26.850   7.050
 7660POPC   C4A42714  12.849  26.842   7.350
 7660POPC   C1B42715  12.622  26.929   6.450
 7660POPC   C2B42716  12.587  26.949   6.750
 7660POPC   C3B42717  12.621  26.909   7.050
 7660POPC   C4B42718  12.633  26.895   7.350
 7661POPC   NC342719  26.067   3.533   5.550
 7661POPC   PO442720  26.081   3.591   5.850
 7661POPC   GL142721  26.005   3.542   6.150
 7661POPC   GL242722  25.965   3.631   6.150
 7661POPC   C1A42723  26.090   3.498   6.450
 7661POPC   D2A42724  26.088   3.525   6.750
 7661POPC   C3A42725  26.056   3.520   7.050
 7661POPC   C4A42726  26.027   3.518   7.350
 7661POPC   C1B42727  25.915   3.744   6.450
 7661POPC   C2B42728  25.867   3.702   6.750
 7661POPC   C3B42729  25.833   3.722   7.050
 7661POPC   C4B42730  25.865   3.689   7.350
 7662POPC   NC342731  43.840  29.958   5.550
 7662POPC   PO442732  43.852  29.930   5.850
 7662POPC   GL142733  43.924  29.920   6.150
 7662POPC   GL242734  43.915  30.019   6.150
 7662POPC   C1A42735  43.878  29.913   6.450
 7662POPC   D2A42736  43.863  29.885   6.750
 7662POPC   C3A42737  43.851  29.969   7.050
 7662POPC   C4A42738  43.929  29.876   7.350
 7662POPC   C1B42739  43.973  30.156   6.450
 7662POPC   C2B42740  44.001  30.090   6.750
 7662POPC   C3B42741  44.029  30.178   7.050
 7662POPC   C4B42742  44.034  30.147   7.350
 7663POPC   NC342743  40.030  13.617   5.550
 7663POPC   PO442744  39.995  13.643   5.850
 7663POPC   GL142745  39.987  13.637   6.150
 7663POPC   GL242746  40.078  13.468   6.150
 7663POPC   C1A42747  39.991  13.609   6.450
 7663POPC   D2A42748  40.053  13.629   6.750
 7663POPC   C3A42749  40.010  13.621   7.050
 7663POPC   C4A42750  39.960  13.620   7.350
 7663POPC   C1B42751  40.098  13.366   6.450
 7663POPC   C2B42752  40.061  13.405   6.750
 7663POPC   C3B42753  40.143  13.400   7.050
 7663POPC   C4B42754  40.141  13.435   7.350
 7664POPC   NC342755  40.785  33.060   5.550
 7664POPC   PO442756  40.825  32.994   5.850
 7664POPC   GL142757  40.780  33.058   6.150
 7664POPC   GL242758  40.861  32.919   6.150
 7664POPC   C1A42759  40.805  33.063   6.450
 7664POPC   D2A42760  40.811  32.994   6.750
 7664POPC   C3A42761  40.745  32.982   7.050
 7664POPC   C4A42762  40.795  33.000   7.350
 7664POPC   C1B42763  41.020  32.833   6.450
 7664POPC   C2B42764  40.932  32.908   6.750
 7664POPC   C3B42765  40.931  32.851   7.050
 7664POPC   C4B42766  40.962  32.878   7.350
 7665POPC   NC342767  44.672  27.586   5.550
 7665POPC   PO442768  44.648  27.634   5.850
 7665POPC   GL142769  44.624  27.601   6.150
 7665POPC   GL242770  44.529  27.536   6.150
 7665POPC   C1A42771  44.653  27.556   6.450
 7665POPC   D2A42772  44.660  27.632   6.750
 7665POPC   C3A42773  44.705  27.600   7.050
 7665POPC   C4A42774  44.616  27.573   7.350
 7665POPC   C1B42775  44.406  27.492   6.450
 7665POPC   C2B42776  44.467  27.460   6.750
 7665POPC   C3B42777  44.484  27.446   7.050
 7665POPC   C4B42778  44.439  27.466   7.350
 7666POPC   NC342779  10.536  16.751   5.550
 7666POPC   PO442780  10.503  16.712   5.850
 7666POPC   GL142781  10.481  16.759   6.150
 7666POPC   GL242782  10.666  16.792   6.150
 7666POPC   C1A42783  10.555  16.765   6.450
 7666POPC   D2A42784  10.490  16.770   6.750
 7666POPC   C3A42785  10.502  16.726   7.050
 7666POPC   C4A42786  10.502  16.730   7.350
 7666POPC   C1B42787  10.748  16.883   6.450
 7666POPC   C2B42788  10.720  16.789   6.750
 7666POPC   C3B42789  10.788  16.806   7.050
 7666POPC   C4B42790  10.773  16.829   7.350
 7667POPC   NC342791  17.489  40.776   5.550
 7667POPC   PO442792  17.487  40.753   5.850
 7667POPC   GL142793  17.515  40.760   6.150
 7667POPC   GL242794  17.560  40.888   6.150
 7667POPC   C1A42795  17.537  40.749   6.450
 7667POPC   D2A42796  17.551  40.768   6.750
 7667POPC   C3A42797  17.537  40.807   7.050
 7667POPC   C4A42798  17.517  40.789   7.350
 7667POPC   C1B42799  17.506  40.990   6.450
 7667POPC   C2B42800  17.515  41.036   6.750
 7667POPC   C3B42801  17.510  40.997   7.050
 7667POPC   C4B42802  17.489  41.020   7.350
 7668POPC   NC342803  39.277   6.694   5.550
 7668POPC   PO442804  39.187   6.646   5.850
 7668POPC   GL142805  39.274   6.600   6.150
 7668POPC   GL242806  39.369   6.555   6.150
 7668POPC   C1A42807  39.271   6.646   6.450
 7668POPC   D2A42808  39.239   6.657   6.750
 7668POPC   C3A42809  39.209   6.692   7.050
 7668POPC   C4A42810  39.241   6.674   7.350
 7668POPC   C1B42811  39.425   6.543   6.450
 7668POPC   C2B42812  39.462   6.515   6.750
 7668POPC   C3B42813  39.452   6.509   7.050
 7668POPC   C4B42814  39.506   6.537   7.350
 7669POPC   NC342815  14.445  15.166   5.550
 7669POPC   PO442816  14.361  15.213   5.850
 7669POPC   GL142817  14.452  15.176   6.150
 7669POPC   GL242818  14.254  15.121   6.150
 7669POPC   C1A42819  14.365  15.195   6.450
 7669POPC   D2A42820  14.382  15.182   6.750
 7669POPC   C3A42821  14.441  15.134   7.050
 7669POPC   C4A42822  14.386  15.176   7.350
 7669POPC   C1B42823  14.156  15.146   6.450
 7669POPC   C2B42824  14.198  15.125   6.750
 7669POPC   C3B42825  14.175  15.136   7.050
 7669POPC   C4B42826  14.137  15.086   7.350
 7670POPC   NC342827  34.565   5.871   5.550
 7670POPC   PO442828  34.590   5.846   5.850
 7670POPC   GL142829  34.622   5.831   6.150
 7670POPC   GL242830  34.591   6.010   6.150
 7670POPC   C1A42831  34.546   5.850   6.450
 7670POPC   D2A42832  34.612   5.825   6.750
 7670POPC   C3A42833  34.615   5.827   7.050
 7670POPC   C4A42834  34.554   5.851   7.350
 7670POPC   C1B42835  34.577   6.116   6.450
 7670POPC   C2B42836  34.574   6.134   6.750
 7670POPC   C3B42837  34.590   6.069   7.050
 7670POPC   C4B42838  34.602   6.108   7.350
 7671POPC   NC342839  27.552  20.638   5.550
 7671POPC   PO442840  27.574  20.631   5.850
 7671POPC   GL142841  27.627  20.653   6.150
 7671POPC   GL242842  27.741  20.671   6.150
 7671POPC   C1A42843  27.612  20.599   6.450
 7671POPC   D2A42844  27.556  20.596   6.750
 7671POPC   C3A42845  27.584  20.660   7.050
 7671POPC   C4A42846  27.545  20.578   7.350
 7671POPC   C1B42847  27.825  20.700   6.450
 7671POPC   C2B42848  27.819  20.666   6.750
 7671POPC   C3B42849  27.832  20.608   7.050
 7671POPC   C4B42850  27.824  20.682   7.350
 7672POPC   NC342851  19.805   8.194   5.550
 7672POPC   PO442852  19.835   8.210   5.850
 7672POPC   GL142853  19.801   8.245   6.150
 7672POPC   GL242854  19.930   8.336   6.150
 7672POPC   C1A42855  19.838   8.213   6.450
 7672POPC   D2A42856  19.808   8.181   6.750
 7672POPC   C3A42857  19.790   8.218   7.050
 7672POPC   C4A42858  19.817   8.176   7.350
 7672POPC   C1B42859  19.990   8.366   6.450
 7672POPC   C2B42860  20.006   8.348   6.750
 7672POPC   C3B42861  19.999   8.412   7.050
 7672POPC   C4B42862  20.023   8.360   7.350
 7673POPC   NC342863  12.824  25.314   5.550
 7673POPC   PO442864  12.885  25.276   5.850
 7673POPC   GL142865  12.900  25.308   6.150
 7673POPC   GL242866  12.774  25.108   6.150
 7673POPC   C1A42867  12.813  25.311   6.450
 7673POPC   D2A42868  12.885  25.240   6.750
 7673POPC   C3A42869  12.824  25.287   7.050
 7673POPC   C4A42870  12.887  25.315   7.350
 7673POPC   C1B42871  12.765  25.071   6.450
 7673POPC   C2B42872  12.738  25.002   6.750
 7673POPC   C3B42873  12.780  25.051   7.050
 7673POPC   C4B42874  12.715  25.079   7.350
 7674POPC   NC342875  32.275  36.087   5.550
 7674POPC   PO442876  32.205  36.094   5.850
 7674POPC   GL142877  32.198  36.082   6.150
 7674POPC   GL242878  32.193  36.208   6.150
 7674POPC   C1A42879  32.225  36.116   6.450
 7674POPC   D2A42880  32.208  36.168   6.750
 7674POPC   C3A42881  32.278  36.167   7.050
 7674POPC   C4A42882  32.237  36.155   7.350
 7674POPC   C1B42883  32.036  36.328   6.450
 7674POPC   C2B42884  32.050  36.299   6.750
 7674POPC   C3B42885  32.071  36.263   7.050
 7674POPC   C4B42886  32.037  36.287   7.350
 7675POPC   NC342887  32.222  19.840   5.550
 7675POPC   PO442888  32.226  19.884   5.850
 7675POPC   GL142889  32.218  19.822   6.150
 7675POPC   GL242890  32.291  19.948   6.150
 7675POPC   C1A42891  32.219  19.805   6.450
 7675POPC   D2A42892  32.250  19.826   6.750
 7675POPC   C3A42893  32.265  19.884   7.050
 7675POPC   C4A42894  32.225  19.798   7.350
 7675POPC   C1B42895  32.461  20.069   6.450
 7675POPC   C2B42896  32.386  20.058   6.750
 7675POPC   C3B42897  32.382  19.995   7.050
 7675POPC   C4B42898  32.371  20.011   7.350
 7676POPC   NC342899  10.560  22.186   5.550
 7676POPC   PO442900  10.554  22.159   5.850
 7676POPC   GL142901  10.573  22.200   6.150
 7676POPC   GL242902  10.543  22.083   6.150
 7676POPC   C1A42903  10.561  22.149   6.450
 7676POPC   D2A42904  10.541  22.114   6.750
 7676POPC   C3A42905  10.479  22.174   7.050
 7676POPC   C4A42906  10.493  22.136   7.350
 7676POPC   C1B42907  10.614  21.906   6.450
 7676POPC   C2B42908  10.618  21.955   6.750
 7676POPC   C3B42909  10.594  21.910   7.050
 7676POPC   C4B42910  10.642  21.948   7.350
 7677POPC   NC342911  36.178  38.464   5.550
 7677POPC   PO442912  36.156  38.429   5.850
 7677POPC   GL142913  36.157  38.441   6.150
 7677POPC   GL242914  36.069  38.564   6.150
 7677POPC   C1A42915  36.132  38.477   6.450
 7677POPC   D2A42916  36.177  38.484   6.750
 7677POPC   C3A42917  36.089  38.490   7.050
 7677POPC   C4A42918  36.117  38.463   7.350
 7677POPC   C1B42919  36.075  38.725   6.450
 7677POPC   C2B42920  36.037  38.683   6.750
 7677POPC   C3B42921  36.080  38.696   7.050
 7677POPC   C4B42922  36.066  38.654   7.350
 7678POPC   NC342923  39.194  34.611   5.550
 7678POPC   PO442924  39.195  34.611   5.850
 7678POPC   GL142925  39.198  34.614   6.150
 7678POPC   GL242926  39.290  34.627   6.150
 7678POPC   C1A42927  39.221  34.539   6.450
 7678POPC   D2A42928  39.232  34.609   6.750
 7678POPC   C3A42929  39.198  34.571   7.050
 7678POPC   C4A42930  39.244  34.548   7.350
 7678POPC   C1B42931  39.418  34.717   6.450
 7678POPC   C2B42932  39.431  34.736   6.750
 7678POPC   C3B42933  39.454  34.683   7.050
 7678POPC   C4B42934  39.414  34.740   7.350
 7679POPC   NC342935   2.776   5.073   5.550
 7679POPC   PO442936   2.732   5.112   5.850
 7679POPC   GL142937   2.756   5.105   6.150
 7679POPC   GL242938   2.748   5.229   6.150
 7679POPC   C1A42939   2.782   5.139   6.450
 7679POPC   D2A42940   2.786   5.110   6.750
 7679POPC   C3A42941   2.742   5.062   7.050
 7679POPC   C4A42942   2.786   5.062   7.350
 7679POPC   C1B42943   2.729   5.298   6.450
 7679POPC   C2B42944   2.671   5.314   6.750
 7679POPC   C3B42945   2.720   5.327   7.050
 7679POPC   C4B42946   2.695   5.341   7.350
 7680POPC   NC342947   4.279  25.994   5.550
 7680POPC   PO442948   4.349  26.082   5.850
 7680POPC   GL142949   4.286  26.026   6.150
 7680POPC   GL242950   4.313  26.130   6.150
 7680POPC   C1A42951   4.332  26.088   6.450
 7680POPC   D2A42952   4.306  26.057   6.750
 7680POPC   C3A42953   4.290  25.997   7.050
 7680POPC   C4A42954   4.310  26.022   7.350
 7680POPC   C1B42955   4.342  26.339   6.450
 7680POPC   C2B42956   4.293  26.244   6.750
 7680POPC   C3B42957   4.262  26.256   7.050
 7680POPC   C4B42958   4.306  26.301   7.350
 7681POPC   NC342959  21.390   1.973   5.550
 7681POPC   PO442960  21.425   2.001   5.850
 7681POPC   GL142961  21.355   1.963   6.150
 7681POPC   GL242962  21.560   1.957   6.150
 7681POPC   C1A42963  21.346   1.970   6.450
 7681POPC   D2A42964  21.358   2.007   6.750
 7681POPC   C3A42965  21.338   1.951   7.050
 7681POPC   C4A42966  21.413   1.955   7.350
 7681POPC   C1B42967  21.668   2.009   6.450
 7681POPC   C2B42968  21.632   2.052   6.750
 7681POPC   C3B42969  21.616   2.001   7.050
 7681POPC   C4B42970  21.616   2.034   7.350
 7682POPC   NC342971   1.965  18.299   5.550
 7682POPC   PO442972   2.029  18.302   5.850
 7682POPC   GL142973   2.024  18.308   6.150
 7682POPC   GL242974   1.887  18.420   6.150
 7682POPC   C1A42975   1.970  18.263   6.450
 7682POPC   D2A42976   2.002  18.331   6.750
 7682POPC   C3A42977   1.958  18.270   7.050
 7682POPC   C4A42978   1.951  18.286   7.350
 7682POPC   C1B42979   1.857  18.470   6.450
 7682POPC   C2B42980   1.800  18.465   6.750
 7682POPC   C3B42981   1.846  18.465   7.050
 7682POPC   C4B42982   1.802  18.517   7.350
 7683POPC   NC342983   2.762  39.974   5.550
 7683POPC   PO442984   2.771  40.034   5.850
 7683POPC   GL142985   2.744  40.010   6.150
 7683POPC   GL242986   2.859  39.914   6.150
 7683POPC   C1A42987   2.734  39.986   6.450
 7683POPC   D2A42988   2.807  40.018   6.750
 7683POPC   C3A42989   2.731  40.024   7.050
 7683POPC   C4A42990   2.788  39.978   7.350
 7683POPC   C1B42991   2.894  39.828   6.450
 7683POPC   C2B42992   2.899  39.802   6.750
 7683POPC   C3B42993   2.925  39.777   7.050
 7683POPC   C4B42994   2.834  39.733   7.350
 7684POPC   NC342995  40.816  22.162   5.550
 7684POPC   PO442996  40.766  22.130   5.850
 7684POPC   GL142997  40.818  22.146   6.150
 7684POPC   GL242998  40.810  22.313   6.150
 7684POPC   C1A42999  40.777  22.197   6.450
 7684POPC   D2A43000  40.798  22.157   6.750
 7684POPC   C3A43001  40.787  22.125   7.050
 7684POPC   C4A43002  40.757  22.148   7.350
 7684POPC   C1B43003  40.904  22.362   6.450
 7684POPC   C2B43004  40.956  22.332   6.750
 7684POPC   C3B43005  40.955  22.364   7.050
 7684POPC   C4B43006  40.913  22.362   7.350
 7685POPC   NC343007  16.740  33.797   5.550
 7685POPC   PO443008  16.695  33.827   5.850
 7685POPC   GL143009  16.759  33.784   6.150
 7685POPC   GL243010  16.603  33.797   6.150
 7685POPC   C1A43011  16.755  33.813   6.450
 7685POPC   D2A43012  16.764  33.839   6.750
 7685POPC   C3A43013  16.707  33.791   7.050
 7685POPC   C4A43014  16.702  33.841   7.350
 7685POPC   C1B43015  16.443  33.719   6.450
 7685POPC   C2B43016  16.513  33.722   6.750
 7685POPC   C3B43017  16.468  33.707   7.050
 7685POPC   C4B43018  16.489  33.752   7.350
 7686POPC   NC343019   7.414  24.484   5.550
 7686POPC   PO443020   7.443  24.484   5.850
 7686POPC   GL143021   7.390  24.532   6.150
 7686POPC   GL243022   7.381  24.428   6.150
 7686POPC   C1A43023   7.372  24.471   6.450
 7686POPC   D2A43024   7.448  24.452   6.750
 7686POPC   C3A43025   7.411  24.474   7.050
 7686POPC   C4A43026   7.419  24.526   7.350
 7686POPC   C1B43027   7.263  24.261   6.450
 7686POPC   C2B43028   7.296  24.296   6.750
 7686POPC   C3B43029   7.242  24.280   7.050
 7686POPC   C4B43030   7.249  24.267   7.350
 7687POPC   NC343031  29.158   5.845   5.550
 7687POPC   PO443032  29.132   5.907   5.850
 7687POPC   GL143033  29.165   5.910   6.150
 7687POPC   GL243034  29.272   5.943   6.150
 7687POPC   C1A43035  29.180   5.868   6.450
 7687POPC   D2A43036  29.181   5.854   6.750
 7687POPC   C3A43037  29.129   5.823   7.050
 7687POPC   C4A43038  29.172   5.866   7.350
 7687POPC   C1B43039  29.345   6.038   6.450
 7687POPC   C2B43040  29.272   6.082   6.750
 7687POPC   C3B43041  29.314   6.078   7.050
 7687POPC   C4B43042  29.329   6.093   7.350
 7688POPC   NC343043  22.133  26.809   5.550
 7688POPC   PO443044  22.119  26.778   5.850
 7688POPC   GL143045  22.131  26.866   6.150
 7688POPC   GL243046  22.087  26.889   6.150
 7688POPC   C1A43047  22.129  26.781   6.450
 7688POPC   D2A43048  22.201  26.849   6.750
 7688POPC   C3A43049  22.121  26.865   7.050
 7688POPC   C4A43050  22.210  26.781   7.350
 7688POPC   C1B43051  22.028  27.046   6.450
 7688POPC   C2B43052  22.119  27.082   6.750
 7688POPC   C3B43053  22.094  27.098   7.050
 7688POPC   C4B43054  22.082  27.045   7.350
 7689POPC   NC343055  29.969   0.443   5.550
 7689POPC   PO443056  29.891   0.389   5.850
 7689POPC   GL143057  29.879   0.434   6.150
 7689POPC   GL243058  29.838   0.475   6.150
 7689POPC   C1A43059  29.968   0.444   6.450
 7689POPC   D2A43060  29.877   0.395   6.750
 7689POPC   C3A43061  29.919   0.467   7.050
 7689POPC   C4A43062  29.914   0.457   7.350
 7689POPC   C1B43063  29.711   0.471   6.450
 7689POPC   C2B43064  29.661   0.416   6.750
 7689POPC   C3B43065  29.647   0.494   7.050
 7689POPC   C4B43066  29.639   0.429   7.350
 7690POPC   NC343067  44.675  16.683   5.550
 7690POPC   PO443068  44.654  16.778   5.850
 7690POPC   GL143069  44.614  16.734   6.150
 7690POPC   GL243070  44.635  16.579   6.150
 7690POPC   C1A43071  44.636  16.781   6.450
 7690POPC   D2A43072  44.685  16.719   6.750
 7690POPC   C3A43073  44.648  16.699   7.050
 7690POPC   C4A43074  44.691  16.749   7.350
 7690POPC   C1B43075  44.721  16.532   6.450
 7690POPC   C2B43076  44.733  16.484   6.750
 7690POPC   C3B43077  44.713  16.507   7.050
 7690POPC   C4B43078  44.675  16.518   7.350
 7691POPC   NC343079  36.878  22.147   5.550
 7691POPC   PO443080  36.877  22.169   5.850
 7691POPC   GL143081  36.868  22.198   6.150
 7691POPC   GL243082  36.748  22.234   6.150
 7691POPC   C1A43083  36.947  22.128   6.450
 7691POPC   D2A43084  36.882  22.183   6.750
 7691POPC   C3A43085  36.867  22.141   7.050
 7691POPC   C4A43086  36.891  22.122   7.350
 7691POPC   C1B43087  36.647  22.165   6.450
 7691POPC   C2B43088  36.664  22.216   6.750
 7691POPC   C3B43089  36.644  22.252   7.050
 7691POPC   C4B43090  36.656  22.247   7.350
 7692POPC   NC343091   9.707  36.925   5.550
 7692POPC   PO443092   9.742  36.876   5.850
 7692POPC   GL143093   9.713  36.952   6.150
 7692POPC   GL243094   9.766  36.993   6.150
 7692POPC   C1A43095   9.699  36.933   6.450
 7692POPC   D2A43096   9.781  36.884   6.750
 7692POPC   C3A43097   9.750  36.899   7.050
 7692POPC   C4A43098   9.775  36.889   7.350
 7692POPC   C1B43099   9.771  37.185   6.450
 7692POPC   C2B43100   9.782  37.185   6.750
 7692POPC   C3B43101   9.766  37.168   7.050
 7692POPC   C4B43102   9.746  37.126   7.350
 7693POPC   NC343103   9.006   3.576   5.550
 7693POPC   PO443104   8.962   3.575   5.850
 7693POPC   GL143105   8.932   3.524   6.150
 7693POPC   GL243106   8.862   3.590   6.150
 7693POPC   C1A43107   8.985   3.537   6.450
 7693POPC   D2A43108   8.959   3.526   6.750
 7693POPC   C3A43109   8.967   3.577   7.050
 7693POPC   C4A43110   8.996   3.561   7.350
 7693POPC   C1B43111   8.690   3.600   6.450
 7693POPC   C2B43112   8.704   3.596   6.750
 7693POPC   C3B43113   8.699   3.599   7.050
 7693POPC   C4B43114   8.752   3.594   7.350
 7694POPC   NC343115  19.811   3.545   5.550
 7694POPC   PO443116  19.863   3.551   5.850
 7694POPC   GL143117  19.884   3.581   6.150
 7694POPC   GL243118  19.820   3.697   6.150
 7694POPC   C1A43119  19.831   3.526   6.450
 7694POPC   D2A43120  19.812   3.505   6.750
 7694POPC   C3A43121  19.837   3.512   7.050
 7694POPC   C4A43122  19.848   3.497   7.350
 7694POPC   C1B43123  19.792   3.778   6.450
 7694POPC   C2B43124  19.855   3.777   6.750
 7694POPC   C3B43125  19.794   3.807   7.050
 7694POPC   C4B43126  19.859   3.770   7.350
 7695POPC   NC343127  39.243   7.376   5.550
 7695POPC   PO443128  39.209   7.463   5.850
 7695POPC   GL143129  39.209   7.449   6.150
 7695POPC   GL243130  39.065   7.417   6.150
 7695POPC   C1A43131  39.193   7.409   6.450
 7695POPC   D2A43132  39.221   7.456   6.750
 7695POPC   C3A43133  39.212   7.393   7.050
 7695POPC   C4A43134  39.248   7.404   7.350
 7695POPC   C1B43135  39.032   7.514   6.450
 7695POPC   C2B43136  38.962   7.451   6.750
 7695POPC   C3B43137  38.971   7.451   7.050
 7695POPC   C4B43138  39.031   7.464   7.350
 7696POPC   NC343139  13.585   4.278   5.550
 7696POPC   PO443140  13.661   4.298   5.850
 7696POPC   GL143141  13.621   4.330   6.150
 7696POPC   GL243142  13.716   4.268   6.150
 7696POPC   C1A43143  13.614   4.293   6.450
 7696POPC   D2A43144  13.649   4.301   6.750
 7696POPC   C3A43145  13.665   4.296   7.050
 7696POPC   C4A43146  13.632   4.338   7.350
 7696POPC   C1B43147  13.862   4.333   6.450
 7696POPC   C2B43148  13.925   4.360   6.750
 7696POPC   C3B43149  13.897   4.268   7.050
 7696POPC   C4B43150  13.909   4.276   7.350
 7697POPC   NC343151  12.842  22.964   5.550
 7697POPC   PO443152  12.900  22.982   5.850
 7697POPC   GL143153  12.852  22.978   6.150
 7697POPC   GL243154  12.891  22.811   6.150
 7697POPC   C1A43155  12.821  22.969   6.450
 7697POPC   D2A43156  12.873  22.928   6.750
 7697POPC   C3A43157  12.846  22.921   7.050
 7697POPC   C4A43158  12.847  22.923   7.350
 7697POPC   C1B43159  12.978  22.756   6.450
 7697POPC   C2B43160  12.957  22.729   6.750
 7697POPC   C3B43161  12.961  22.765   7.050
 7697POPC   C4B43162  12.983  22.732   7.350
 7698POPC   NC343163  17.504  22.188   5.550
 7698POPC   PO443164  17.553  22.190   5.850
 7698POPC   GL143165  17.534  22.184   6.150
 7698POPC   GL243166  17.450  22.290   6.150
 7698POPC   C1A43167  17.483  22.124   6.450
 7698POPC   D2A43168  17.552  22.205   6.750
 7698POPC   C3A43169  17.489  22.131   7.050
 7698POPC   C4A43170  17.545  22.141   7.350
 7698POPC   C1B43171  17.459  22.440   6.450
 7698POPC   C2B43172  17.532  22.438   6.750
 7698POPC   C3B43173  17.470  22.442   7.050
 7698POPC   C4B43174  17.460  22.416   7.350
 7699POPC   NC343175  43.126  39.995   5.550
 7699POPC   PO443176  43.141  40.041   5.850
 7699POPC   GL143177  43.061  39.986   6.150
 7699POPC   GL243178  43.201  40.042   6.150
 7699POPC   C1A43179  43.118  40.053   6.450
 7699POPC   D2A43180  43.075  40.009   6.750
 7699POPC   C3A43181  43.150  40.056   7.050
 7699POPC   C4A43182  43.092  40.014   7.350
 7699POPC   C1B43183  43.332  40.181   6.450
 7699POPC   C2B43184  43.308  40.192   6.750
 7699POPC   C3B43185  43.283  40.207   7.050
 7699POPC   C4B43186  43.314  40.190   7.350
 7700POPC   NC343187  40.032  40.737   5.550
 7700POPC   PO443188  40.014  40.766   5.850
 7700POPC   GL143189  39.962  40.771   6.150
 7700POPC   GL243190  40.059  40.650   6.150
 7700POPC   C1A43191  39.983  40.807   6.450
 7700POPC   D2A43192  40.034  40.818   6.750
 7700POPC   C3A43193  39.992  40.775   7.050
 7700POPC   C4A43194  39.972  40.777   7.350
 7700POPC   C1B43195  40.124  40.555   6.450
 7700POPC   C2B43196  40.153  40.597   6.750
 7700POPC   C3B43197  40.083  40.589   7.050
 7700POPC   C4B43198  40.147  40.537   7.350
 7701POPC   NC343199   3.578  24.481   5.550
 7701POPC   PO443200   3.503  24.495   5.850
 7701POPC   GL143201   3.522  24.520   6.150
 7701POPC   GL243202   3.560  24.571   6.150
 7701POPC   C1A43203   3.591  24.517   6.450
 7701POPC   D2A43204   3.507  24.505   6.750
 7701POPC   C3A43205   3.549  24.460   7.050
 7701POPC   C4A43206   3.569  24.448   7.350
 7701POPC   C1B43207   3.525  24.748   6.450
 7701POPC   C2B43208   3.431  24.739   6.750
 7701POPC   C3B43209   3.483  24.780   7.050
 7701POPC   C4B43210   3.436  24.773   7.350
 7702POPC   NC343211   1.169  20.577   5.550
 7702POPC   PO443212   1.237  20.600   5.850
 7702POPC   GL143213   1.229  20.571   6.150
 7702POPC   GL243214   1.290  20.498   6.150
 7702POPC   C1A43215   1.211  20.645   6.450
 7702POPC   D2A43216   1.176  20.611   6.750
 7702POPC   C3A43217   1.167  20.562   7.050
 7702POPC   C4A43218   1.229  20.615   7.350
 7702POPC   C1B43219   1.327  20.349   6.450
 7702POPC   C2B43220   1.298  20.327   6.750
 7702POPC   C3B43221   1.258  20.373   7.050
 7702POPC   C4B43222   1.286  20.323   7.350
 7703POPC   NC343223  26.793  33.064   5.550
 7703POPC   PO443224  26.844  33.026   5.850
 7703POPC   GL143225  26.844  33.001   6.150
 7703POPC   GL243226  26.696  33.061   6.150
 7703POPC   C1A43227  26.864  32.982   6.450
 7703POPC   D2A43228  26.786  32.979   6.750
 7703POPC   C3A43229  26.828  33.026   7.050
 7703POPC   C4A43230  26.824  33.066   7.350
 7703POPC   C1B43231  26.589  33.135   6.450
 7703POPC   C2B43232  26.591  33.170   6.750
 7703POPC   C3B43233  26.570  33.112   7.050
 7703POPC   C4B43234  26.598  33.128   7.350
 7704POPC   NC343235  29.914  28.323   5.550
 7704POPC   PO443236  29.885  28.359   5.850
 7704POPC   GL143237  29.910  28.353   6.150
 7704POPC   GL243238  29.874  28.255   6.150
 7704POPC   C1A43239  29.886  28.385   6.450
 7704POPC   D2A43240  29.941  28.398   6.750
 7704POPC   C3A43241  29.920  28.331   7.050
 7704POPC   C4A43242  29.924  28.404   7.350
 7704POPC   C1B43243  29.803  28.102   6.450
 7704POPC   C2B43244  29.819  28.128   6.750
 7704POPC   C3B43245  29.865  28.090   7.050
 7704POPC   C4B43246  29.843  28.111   7.350
 7705POPC   NC343247   0.445  33.757   5.550
 7705POPC   PO443248   0.473  33.769   5.850
 7705POPC   GL143249   0.439  33.790   6.150
 7705POPC   GL243250   0.573  33.779   6.150
 7705POPC   C1A43251   0.391  33.835   6.450
 7705POPC   D2A43252   0.445  33.783   6.750
 7705POPC   C3A43253   0.411  33.756   7.050
 7705POPC   C4A43254   0.442  33.807   7.350
 7705POPC   C1B43255   0.614  33.648   6.450
 7705POPC   C2B43256   0.617  33.665   6.750
 7705POPC   C3B43257   0.616  33.687   7.050
 7705POPC   C4B43258   0.704  33.724   7.350
 7706POPC   NC343259  16.740   5.073   5.550
 7706POPC   PO443260  16.772   5.077   5.850
 7706POPC   GL143261  16.739   5.100   6.150
 7706POPC   GL243262  16.714   5.170   6.150
 7706POPC   C1A43263  16.708   5.080   6.450
 7706POPC   D2A43264  16.734   5.083   6.750
 7706POPC   C3A43265  16.701   5.051   7.050
 7706POPC   C4A43266  16.768   5.068   7.350
 7706POPC   C1B43267  16.733   5.348   6.450
 7706POPC   C2B43268  16.678   5.292   6.750
 7706POPC   C3B43269  16.678   5.301   7.050
 7706POPC   C4B43270  16.723   5.302   7.350
 7707POPC   NC343271  29.129  43.898   5.550
 7707POPC   PO443272  29.106  43.877   5.850
 7707POPC   GL143273  29.172  43.903   6.150
 7707POPC   GL243274  29.078  43.846   6.150
 7707POPC   C1A43275  29.142  43.872   6.450
 7707POPC   D2A43276  29.173  43.899   6.750
 7707POPC   C3A43277  29.125  43.912   7.050
 7707POPC   C4A43278  29.168  43.868   7.350
 7707POPC   C1B43279  28.944  43.819   6.450
 7707POPC   C2B43280  28.947  43.745   6.750
 7707POPC   C3B43281  28.899  43.787   7.050
 7707POPC   C4B43282  28.961  43.765   7.350
 7708POPC   NC343283  38.445  18.297   5.550
 7708POPC   PO443284  38.432  18.290   5.850
 7708POPC   GL143285  38.489  18.296   6.150
 7708POPC   GL243286  38.308  18.359   6.150
 7708POPC   C1A43287  38.466  18.296   6.450
 7708POPC   D2A43288  38.490  18.278   6.750
 7708POPC   C3A43289  38.499  18.277   7.050
 7708POPC   C4A43290  38.454  18.293   7.350
 7708POPC   C1B43291  38.245  18.345   6.450
 7708POPC   C2B43292  38.222  18.402   6.750
 7708POPC   C3B43293  38.228  18.368   7.050
 7708POPC   C4B43294  38.229  18.366   7.350
 7709POPC   NC343295  33.784  32.291   5.550
 7709POPC   PO443296  33.832  32.223   5.850
 7709POPC   GL143297  33.802  32.231   6.150
 7709POPC   GL243298  33.786  32.392   6.150
 7709POPC   C1A43299  33.777  32.276   6.450
 7709POPC   D2A43300  33.795  32.266   6.750
 7709POPC   C3A43301  33.797  32.209   7.050
 7709POPC   C4A43302  33.836  32.274   7.350
 7709POPC   C1B43303  33.652  32.438   6.450
 7709POPC   C2B43304  33.730  32.508   6.750
 7709POPC   C3B43305  33.733  32.425   7.050
 7709POPC   C4B43306  33.701  32.510   7.350
 7710POPC   NC343307  39.968  27.586   5.550
 7710POPC   PO443308  40.039  27.638   5.850
 7710POPC   GL143309  40.005  27.627   6.150
 7710POPC   GL243310  39.869  27.613   6.150
 7710POPC   C1A43311  39.987  27.558   6.450
 7710POPC   D2A43312  40.003  27.617   6.750
 7710POPC   C3A43313  39.964  27.613   7.050
 7710POPC   C4A43314  39.965  27.568   7.350
 7710POPC   C1B43315  39.792  27.774   6.450
 7710POPC   C2B43316  39.824  27.734   6.750
 7710POPC   C3B43317  39.812  27.724   7.050
 7710POPC   C4B43318  39.781  27.701   7.350
 7711POPC   NC343319  41.608  22.911   5.550
 7711POPC   PO443320  41.603  22.903   5.850
 7711POPC   GL143321  41.599  22.959   6.150
 7711POPC   GL243322  41.571  22.795   6.150
 7711POPC   C1A43323  41.529  22.930   6.450
 7711POPC   D2A43324  41.521  22.965   6.750
 7711POPC   C3A43325  41.580  22.946   7.050
 7711POPC   C4A43326  41.596  22.970   7.350
 7711POPC   C1B43327  41.443  22.727   6.450
 7711POPC   C2B43328  41.450  22.746   6.750
 7711POPC   C3B43329  41.505  22.707   7.050
 7711POPC   C4B43330  41.534  22.709   7.350
 7712POPC   NC343331  30.669  22.167   5.550
 7712POPC   PO443332  30.709  22.114   5.850
 7712POPC   GL143333  30.667  22.169   6.150
 7712POPC   GL243334  30.689  22.087   6.150
 7712POPC   C1A43335  30.674  22.118   6.450
 7712POPC   D2A43336  30.669  22.131   6.750
 7712POPC   C3A43337  30.671  22.130   7.050
 7712POPC   C4A43338  30.720  22.119   7.350
 7712POPC   C1B43339  30.759  21.882   6.450
 7712POPC   C2B43340  30.781  21.969   6.750
 7712POPC   C3B43341  30.824  21.947   7.050
 7712POPC   C4B43342  30.730  21.888   7.350
 7713POPC   NC343343  21.416  24.475   5.550
 7713POPC   PO443344  21.417  24.461   5.850
 7713POPC   GL143345  21.425  24.516   6.150
 7713POPC   GL243346  21.512  24.505   6.150
 7713POPC   C1A43347  21.337  24.524   6.450
 7713POPC   D2A43348  21.382  24.489   6.750
 7713POPC   C3A43349  21.414  24.509   7.050
 7713POPC   C4A43350  21.381  24.478   7.350
 7713POPC   C1B43351  21.607  24.620   6.450
 7713POPC   C2B43352  21.662  24.564   6.750
 7713POPC   C3B43353  21.571  24.598   7.050
 7713POPC   C4B43354  21.666  24.578   7.350
 7714POPC   NC343355  43.929   7.455   5.550
 7714POPC   PO443356  43.857   7.440   5.850
 7714POPC   GL143357  43.852   7.460   6.150
 7714POPC   GL243358  43.880   7.563   6.150
 7714POPC   C1A43359  43.855   7.402   6.450
 7714POPC   D2A43360  43.843   7.445   6.750
 7714POPC   C3A43361  43.836   7.442   7.050
 7714POPC   C4A43362  43.911   7.384   7.350
 7714POPC   C1B43363  43.859   7.650   6.450
 7714POPC   C2B43364  43.888   7.672   6.750
 7714POPC   C3B43365  43.906   7.713   7.050
 7714POPC   C4B43366  43.828   7.655   7.350
 7715POPC   NC343367  32.205   1.176   5.550
 7715POPC   PO443368  32.255   1.186   5.850
 7715POPC   GL143369  32.240   1.180   6.150
 7715POPC   GL243370  32.327   1.214   6.150
 7715POPC   C1A43371  32.257   1.230   6.450
 7715POPC   D2A43372  32.291   1.174   6.750
 7715POPC   C3A43373  32.199   1.249   7.050
 7715POPC   C4A43374  32.265   1.243   7.350
 7715POPC   C1B43375  32.457   1.159   6.450
 7715POPC   C2B43376  32.488   1.137   6.750
 7715POPC   C3B43377  32.528   1.081   7.050
 7715POPC   C4B43378  32.442   1.172   7.350
 7716POPC   NC343379  28.322  33.015   5.550
 7716POPC   PO443380  28.357  32.994   5.850
 7716POPC   GL143381  28.336  33.067   6.150
 7716POPC   GL243382  28.352  33.110   6.150
 7716POPC   C1A43383  28.373  33.034   6.450
 7716POPC   D2A43384  28.365  33.024   6.750
 7716POPC   C3A43385  28.349  33.041   7.050
 7716POPC   C4A43386  28.376  33.065   7.350
 7716POPC   C1B43387  28.412  33.311   6.450
 7716POPC   C2B43388  28.347  33.319   6.750
 7716POPC   C3B43389  28.419  33.253   7.050
 7716POPC   C4B43390  28.390  33.254   7.350
 7717POPC   NC343391  12.851  18.283   5.550
 7717POPC   PO443392  12.812  18.237   5.850
 7717POPC   GL143393  12.836  18.253   6.150
 7717POPC   GL243394  12.775  18.437   6.150
 7717POPC   C1A43395  12.883  18.287   6.450
 7717POPC   D2A43396  12.813  18.269   6.750
 7717POPC   C3A43397  12.845  18.262   7.050
 7717POPC   C4A43398  12.891  18.288   7.350
 7717POPC   C1B43399  12.823  18.510   6.450
 7717POPC   C2B43400  12.823  18.494   6.750
 7717POPC   C3B43401  12.758  18.489   7.050
 7717POPC   C4B43402  12.817  18.518   7.350
 7718POPC   NC343403   2.760  44.636   5.550
 7718POPC   PO443404   2.799  44.678   5.850
 7718POPC   GL143405   2.746  44.644   6.150
 7718POPC   GL243406   2.775  44.807   6.150
 7718POPC   C1A43407   2.749  44.662   6.450
 7718POPC   D2A43408   2.726  44.661   6.750
 7718POPC   C3A43409   2.789  44.659   7.050
 7718POPC   C4A43410   2.798  44.698   7.350
 7718POPC   C1B43411   2.803  44.879   6.450
 7718POPC   C2B43412   2.814  44.856   6.750
 7718POPC   C3B43413   2.814  44.884   7.050
 7718POPC   C4B43414   2.792  44.871   7.350
 7719POPC   NC343415  41.562  17.533   5.550
 7719POPC   PO443416  41.594  17.511   5.850
 7719POPC   GL143417  41.524  17.457   6.150
 7719POPC   GL243418  41.407  17.465   6.150
 7719POPC   C1A43419  41.595  17.520   6.450
 7719POPC   D2A43420  41.606  17.496   6.750
 7719POPC   C3A43421  41.600  17.480   7.050
 7719POPC   C4A43422  41.563  17.457   7.350
 7719POPC   C1B43423  41.274  17.399   6.450
 7719POPC   C2B43424  41.331  17.436   6.750
 7719POPC   C3B43425  41.308  17.436   7.050
 7719POPC   C4B43426  41.350  17.459   7.350
 7720POPC   NC343427   7.386  20.564   5.550
 7720POPC   PO443428   7.398  20.655   5.850
 7720POPC   GL143429   7.395  20.630   6.150
 7720POPC   GL243430   7.322  20.526   6.150
 7720POPC   C1A43431   7.455  20.585   6.450
 7720POPC   D2A43432   7.447  20.578   6.750
 7720POPC   C3A43433   7.409  20.575   7.050
 7720POPC   C4A43434   7.429  20.616   7.350
 7720POPC   C1B43435   7.289  20.403   6.450
 7720POPC   C2B43436   7.295  20.444   6.750
 7720POPC   C3B43437   7.261  20.370   7.050
 7720POPC   C4B43438   7.227  20.384   7.350
 7721POPC   NC343439   9.713  41.573   5.550
 7721POPC   PO443440   9.774  41.532   5.850
 7721POPC   GL143441   9.750  41.591   6.150
 7721POPC   GL243442   9.831  41.512   6.150
 7721POPC   C1A43443   9.717  41.532   6.450
 7721POPC   D2A43444   9.722  41.542   6.750
 7721POPC   C3A43445   9.770  41.583   7.050
 7721POPC   C4A43446   9.742  41.572   7.350
 7721POPC   C1B43447  10.025  41.562   6.450
 7721POPC   C2B43448  10.024  41.493   6.750
 7721POPC   C3B43449   9.952  41.507   7.050
 7721POPC   C4B43450  10.004  41.524   7.350
 7722POPC   NC343451  29.969  41.578   5.550
 7722POPC   PO443452  29.906  41.574   5.850
 7722POPC   GL143453  29.873  41.597   6.150
 7722POPC   GL243454  29.866  41.460   6.150
 7722POPC   C1A43455  29.965  41.598   6.450
 7722POPC   D2A43456  29.931  41.603   6.750
 7722POPC   C3A43457  29.907  41.539   7.050
 7722POPC   C4A43458  29.958  41.512   7.350
 7722POPC   C1B43459  29.794  41.275   6.450
 7722POPC   C2B43460  29.875  41.369   6.750
 7722POPC   C3B43461  29.823  41.288   7.050
 7722POPC   C4B43462  29.823  41.297   7.350
 7723POPC   NC343463   7.453  19.862   5.550
 7723POPC   PO443464   7.404  19.882   5.850
 7723POPC   GL143465   7.442  19.797   6.150
 7723POPC   GL243466   7.560  19.765   6.150
 7723POPC   C1A43467   7.420  19.840   6.450
 7723POPC   D2A43468   7.377  19.847   6.750
 7723POPC   C3A43469   7.380  19.846   7.050
 7723POPC   C4A43470   7.429  19.869   7.350
 7723POPC   C1B43471   7.619  19.657   6.450
 7723POPC   C2B43472   7.555  19.654   6.750
 7723POPC   C3B43473   7.581  19.624   7.050
 7723POPC   C4B43474   7.648  19.644   7.350
 7724POPC   NC343475  38.444  27.544   5.550
 7724POPC   PO443476  38.486  27.574   5.850
 7724POPC   GL143477  38.474  27.572   6.150
 7724POPC   GL243478  38.346  27.659   6.150
 7724POPC   C1A43479  38.426  27.638   6.450
 7724POPC   D2A43480  38.467  27.582   6.750
 7724POPC   C3A43481  38.473  27.552   7.050
 7724POPC   C4A43482  38.475  27.594   7.350
 7724POPC   C1B43483  38.233  27.666   6.450
 7724POPC   C2B43484  38.222  27.671   6.750
 7724POPC   C3B43485  38.243  27.625   7.050
 7724POPC   C4B43486  38.218  27.652   7.350
 7725POPC   NC343487  40.798  21.399   5.550
 7725POPC   PO443488  40.777  21.421   5.850
 7725POPC   GL143489  40.796  21.404   6.150
 7725POPC   GL243490  40.676  21.406   6.150
 7725POPC   C1A43491  40.832  21.352   6.450
 7725POPC   D2A43492  40.764  21.366   6.750
 7725POPC   C3A43493  40.764  21.388   7.050
 7725POPC   C4A43494  40.780  21.430   7.350
 7725POPC   C1B43495  40.602  21.527   6.450
 7725POPC   C2B43496  40.524  21.470   6.750
 7725POPC   C3B43497  40.586  21.523   7.050
 7725POPC   C4B43498  40.522  21.534   7.350
 7726POPC   NC343499  26.090  43.856   5.550
 7726POPC   PO443500  26.018  43.903   5.850
 7726POPC   GL143501  26.031  43.903   6.150
 7726POPC   GL243502  25.977  43.795   6.150
 7726POPC   C1A43503  26.081  43.908   6.450
 7726POPC   D2A43504  26.022  43.892   6.750
 7726POPC   C3A43505  26.081  43.882   7.050
 7726POPC   C4A43506  26.011  43.840   7.350
 7726POPC   C1B43507  25.894  43.699   6.450
 7726POPC   C2B43508  25.848  43.728   6.750
 7726POPC   C3B43509  25.864  43.732   7.050
 7726POPC   C4B43510  25.896  43.714   7.350
 7727POPC   NC343511  20.599  43.893   5.550
 7727POPC   PO443512  20.658  43.924   5.850
 7727POPC   GL143513  20.611  43.923   6.150
 7727POPC   GL243514  20.475  43.994   6.150
 7727POPC   C1A43515  20.644  43.855   6.450
 7727POPC   D2A43516  20.610  43.920   6.750
 7727POPC   C3A43517  20.606  43.890   7.050
 7727POPC   C4A43518  20.625  43.930   7.350
 7727POPC   C1B43519  20.395  43.996   6.450
 7727POPC   C2B43520  20.383  44.035   6.750
 7727POPC   C3B43521  20.442  44.034   7.050
 7727POPC   C4B43522  20.454  44.016   7.350
 7728POPC   NC343523  20.630  28.348   5.550
 7728POPC   PO443524  20.585  28.345   5.850
 7728POPC   GL143525  20.620  28.399   6.150
 7728POPC   GL243526  20.505  28.444   6.150
 7728POPC   C1A43527  20.594  28.340   6.450
 7728POPC   D2A43528  20.602  28.377   6.750
 7728POPC   C3A43529  20.642  28.397   7.050
 7728POPC   C4A43530  20.609  28.323   7.350
 7728POPC   C1B43531  20.437  28.556   6.450
 7728POPC   C2B43532  20.484  28.549   6.750
 7728POPC   C3B43533  20.431  28.622   7.050
 7728POPC   C4B43534  20.477  28.586   7.350
 7729POPC   NC343535  12.828  15.950   5.550
 7729POPC   PO443536  12.827  16.000   5.850
 7729POPC   GL143537  12.895  15.981   6.150
 7729POPC   GL243538  12.845  15.806   6.150
 7729POPC   C1A43539  12.892  15.906   6.450
 7729POPC   D2A43540  12.897  15.967   6.750
 7729POPC   C3A43541  12.846  15.940   7.050
 7729POPC   C4A43542  12.816  15.905   7.350
 7729POPC   C1B43543  12.875  15.714   6.450
 7729POPC   C2B43544  12.848  15.756   6.750
 7729POPC   C3B43545  12.860  15.684   7.050
 7729POPC   C4B43546  12.869  15.711   7.350
 7730POPC   NC343547  38.466  36.904   5.550
 7730POPC   PO443548  38.432  36.877   5.850
 7730POPC   GL143549  38.427  36.902   6.150
 7730POPC   GL243550  38.484  36.777   6.150
 7730POPC   C1A43551  38.490  36.894   6.450
 7730POPC   D2A43552  38.458  36.931   6.750
 7730POPC   C3A43553  38.471  36.879   7.050
 7730POPC   C4A43554  38.421  36.865   7.350
 7730POPC   C1B43555  38.439  36.636   6.450
 7730POPC   C2B43556  38.419  36.696   6.750
 7730POPC   C3B43557  38.486  36.676   7.050
 7730POPC   C4B43558  38.457  36.636   7.350
 7731POPC   NC343559  12.118  15.917   5.550
 7731POPC   PO443560  12.124  15.912   5.850
 7731POPC   GL143561  12.028  15.928   6.150
 7731POPC   GL243562  12.166  15.849   6.150
 7731POPC   C1A43563  12.118  15.954   6.450
 7731POPC   D2A43564  12.118  15.985   6.750
 7731POPC   C3A43565  12.085  15.990   7.050
 7731POPC   C4A43566  12.076  15.940   7.350
 7731POPC   C1B43567  12.252  15.847   6.450
 7731POPC   C2B43568  12.301  15.837   6.750
 7731POPC   C3B43569  12.239  15.766   7.050
 7731POPC   C4B43570  12.326  15.777   7.350
 7732POPC   NC343571  18.271  29.100   5.550
 7732POPC   PO443572  18.318  29.172   5.850
 7732POPC   GL143573  18.329  29.115   6.150
 7732POPC   GL243574  18.393  29.076   6.150
 7732POPC   C1A43575  18.273  29.167   6.450
 7732POPC   D2A43576  18.243  29.190   6.750
 7732POPC   C3A43577  18.265  29.158   7.050
 7732POPC   C4A43578  18.321  29.103   7.350
 7732POPC   C1B43579  18.543  29.039   6.450
 7732POPC   C2B43580  18.463  29.079   6.750
 7732POPC   C3B43581  18.465  29.027   7.050
 7732POPC   C4B43582  18.535  29.081   7.350
 7733POPC   NC343583  32.267  33.025   5.550
 7733POPC   PO443584  32.209  33.051   5.850
 7733POPC   GL143585  32.278  32.983   6.150
 7733POPC   GL243586  32.355  32.937   6.150
 7733POPC   C1A43587  32.256  33.060   6.450
 7733POPC   D2A43588  32.253  33.069   6.750
 7733POPC   C3A43589  32.295  33.008   7.050
 7733POPC   C4A43590  32.212  33.066   7.350
 7733POPC   C1B43591  32.451  32.883   6.450
 7733POPC   C2B43592  32.494  32.867   6.750
 7733POPC   C3B43593  32.448  32.915   7.050
 7733POPC   C4B43594  32.493  32.901   7.350
 7734POPC   NC343595   2.735  37.644   5.550
 7734POPC   PO443596   2.749  37.690   5.850
 7734POPC   GL143597   2.786  37.674   6.150
 7734POPC   GL243598   2.651  37.595   6.150
 7734POPC   C1A43599   2.718  37.666   6.450
 7734POPC   D2A43600   2.762  37.644   6.750
 7734POPC   C3A43601   2.786  37.704   7.050
 7734POPC   C4A43602   2.717  37.698   7.350
 7734POPC   C1B43603   2.633  37.465   6.450
 7734POPC   C2B43604   2.605  37.506   6.750
 7734POPC   C3B43605   2.671  37.455   7.050
 7734POPC   C4B43606   2.655  37.451   7.350
 7735POPC   NC343607   5.900  34.578   5.550
 7735POPC   PO443608   5.876  34.606   5.850
 7735POPC   GL143609   5.915  34.610   6.150
 7735POPC   GL243610   5.768  34.565   6.150
 7735POPC   C1A43611   5.885  34.532   6.450
 7735POPC   D2A43612   5.912  34.619   6.750
 7735POPC   C3A43613   5.888  34.614   7.050
 7735POPC   C4A43614   5.889  34.542   7.350
 7735POPC   C1B43615   5.613  34.605   6.450
 7735POPC   C2B43616   5.669  34.607   6.750
 7735POPC   C3B43617   5.580  34.682   7.050
 7735POPC   C4B43618   5.676  34.597   7.350
 7736POPC   NC343619  19.845   0.473   5.550
 7736POPC   PO443620  19.859   0.476   5.850
 7736POPC   GL143621  19.788   0.389   6.150
 7736POPC   GL243622  19.812   0.583   6.150
 7736POPC   C1A43623  19.826   0.401   6.450
 7736POPC   D2A43624  19.861   0.413   6.750
 7736POPC   C3A43625  19.830   0.429   7.050
 7736POPC   C4A43626  19.789   0.478   7.350
 7736POPC   C1B43627  19.739   0.677   6.450
 7736POPC   C2B43628  19.763   0.634   6.750
 7736POPC   C3B43629  19.745   0.668   7.050
 7736POPC   C4B43630  19.719   0.623   7.350
 7737POPC   NC343631  20.575   8.159   5.550
 7737POPC   PO443632  20.615   8.183   5.850
 7737POPC   GL143633  20.609   8.229   6.150
 7737POPC   GL243634  20.550   8.052   6.150
 7737POPC   C1A43635  20.589   8.152   6.450
 7737POPC   D2A43636  20.615   8.232   6.750
 7737POPC   C3A43637  20.638   8.148   7.050
 7737POPC   C4A43638  20.640   8.177   7.350
 7737POPC   C1B43639  20.532   7.976   6.450
 7737POPC   C2B43640  20.510   7.963   6.750
 7737POPC   C3B43641  20.584   7.960   7.050
 7737POPC   C4B43642  20.528   7.909   7.350
 7738POPC   NC343643   1.227  21.418   5.550
 7738POPC   PO443644   1.234  21.421   5.850
 7738POPC   GL143645   1.176  21.405   6.150
 7738POPC   GL243646   1.171  21.536   6.150
 7738POPC   C1A43647   1.222  21.391   6.450
 7738POPC   D2A43648   1.231  21.354   6.750
 7738POPC   C3A43649   1.192  21.383   7.050
 7738POPC   C4A43650   1.261  21.359   7.350
 7738POPC   C1B43651   1.167  21.602   6.450
 7738POPC   C2B43652   1.121  21.640   6.750
 7738POPC   C3B43653   1.184  21.603   7.050
 7738POPC   C4B43654   1.174  21.598   7.350
 7739POPC   NC343655  15.157  19.843   5.550
 7739POPC   PO443656  15.228  19.878   5.850
 7739POPC   GL143657  15.228  19.881   6.150
 7739POPC   GL243658  15.050  19.771   6.150
 7739POPC   C1A43659  15.133  19.852   6.450
 7739POPC   D2A43660  15.202  19.840   6.750
 7739POPC   C3A43661  15.190  19.820   7.050
 7739POPC   C4A43662  15.185  19.876   7.350
 7739POPC   C1B43663  14.959  19.685   6.450
 7739POPC   C2B43664  14.986  19.711   6.750
 7739POPC   C3B43665  14.956  19.666   7.050
 7739POPC   C4B43666  14.945  19.654   7.350
 7740POPC   NC343667  16.754  25.307   5.550
 7740POPC   PO443668  16.759  25.262   5.850
 7740POPC   GL143669  16.688  25.251   6.150
 7740POPC   GL243670  16.752  25.110   6.150
 7740POPC   C1A43671  16.699  25.284   6.450
 7740POPC   D2A43672  16.701  25.219   6.750
 7740POPC   C3A43673  16.747  25.253   7.050
 7740POPC   C4A43674  16.779  25.278   7.350
 7740POPC   C1B43675  16.760  24.971   6.450
 7740POPC   C2B43676  16.697  25.036   6.750
 7740POPC   C3B43677  16.794  24.968   7.050
 7740POPC   C4B43678  16.783  25.040   7.350
 7741POPC   NC343679  43.879  40.002   5.550
 7741POPC   PO443680  43.909  40.036   5.850
 7741POPC   GL143681  43.838  40.052   6.150
 7741POPC   GL243682  43.793  40.062   6.150
 7741POPC   C1A43683  43.906  39.984   6.450
 7741POPC   D2A43684  43.874  39.963   6.750
 7741POPC   C3A43685  43.843  39.986   7.050
 7741POPC   C4A43686  43.872  40.044   7.350
 7741POPC   C1B43687  43.680  40.071   6.450
 7741POPC   C2B43688  43.614  40.066   6.750
 7741POPC   C3B43689  43.644  40.043   7.050
 7741POPC   C4B43690  43.663  40.122   7.350
 7742POPC   NC343691   5.054  25.300   5.550
 7742POPC   PO443692   5.077  25.230   5.850
 7742POPC   GL143693   5.059  25.239   6.150
 7742POPC   GL243694   5.081  25.184   6.150
 7742POPC   C1A43695   5.103  25.296   6.450
 7742POPC   D2A43696   5.055  25.302   6.750
 7742POPC   C3A43697   5.086  25.236   7.050
 7742POPC   C4A43698   5.045  25.298   7.350
 7742POPC   C1B43699   5.081  25.023   6.450
 7742POPC   C2B43700   5.091  25.012   6.750
 7742POPC   C3B43701   5.050  25.016   7.050
 7742POPC   C4B43702   5.090  25.001   7.350
 7743POPC   NC343703  42.304  36.134   5.550
 7743POPC   PO443704  42.288  36.081   5.850
 7743POPC   GL143705  42.311  36.167   6.150
 7743POPC   GL243706  42.202  36.166   6.150
 7743POPC   C1A43707  42.330  36.106   6.450
 7743POPC   D2A43708  42.312  36.149   6.750
 7743POPC   C3A43709  42.316  36.108   7.050
 7743POPC   C4A43710  42.351  36.156   7.350
 7743POPC   C1B43711  42.062  36.224   6.450
 7743POPC   C2B43712  42.100  36.201   6.750
 7743POPC   C3B43713  42.140  36.164   7.050
 7743POPC   C4B43714  42.106  36.183   7.350
 7744POPC   NC343715   8.951  12.875   5.550
 7744POPC   PO443716   8.948  12.874   5.850
 7744POPC   GL143717   8.962  12.809   6.150
 7744POPC   GL243718   8.940  12.723   6.150
 7744POPC   C1A43719   8.974  12.860   6.450
 7744POPC   D2A43720   8.949  12.863   6.750
 7744POPC   C3A43721   8.976  12.831   7.050
 7744POPC   C4A43722   8.967  12.886   7.350
 7744POPC   C1B43723   8.824  12.702   6.450
 7744POPC   C2B43724   8.762  12.651   6.750
 7744POPC   C3B43725   8.828  12.653   7.050
 7744POPC   C4B43726   8.816  12.645   7.350
 7745POPC   NC343727   1.948  34.574   5.550
 7745POPC   PO443728   1.955  34.620   5.850
 7745POPC   GL143729   2.027  34.599   6.150
 7745POPC   GL243730   1.901  34.562   6.150
 7745POPC   C1A43731   1.968  34.548   6.450
 7745POPC   D2A43732   2.007  34.615   6.750
 7745POPC   C3A43733   2.020  34.557   7.050
 7745POPC   C4A43734   2.008  34.604   7.350
 7745POPC   C1B43735   1.777  34.627   6.450
 7745POPC   C2B43736   1.738  34.622   6.750
 7745POPC   C3B43737   1.778  34.576   7.050
 7745POPC   C4B43738   1.753  34.610   7.350
 7746POPC   NC343739  32.219  13.670   5.550
 7746POPC   PO443740  32.203  13.675   5.850
 7746POPC   GL143741  32.200  13.605   6.150
 7746POPC   GL243742  32.162  13.723   6.150
 7746POPC   C1A43743  32.242  13.673   6.450
 7746POPC   D2A43744  32.218  13.625   6.750
 7746POPC   C3A43745  32.264  13.588   7.050
 7746POPC   C4A43746  32.210  13.665   7.350
 7746POPC   C1B43747  32.019  13.733   6.450
 7746POPC   C2B43748  32.001  13.737   6.750
 7746POPC   C3B43749  32.037  13.770   7.050
 7746POPC   C4B43750  31.989  13.799   7.350
 7747POPC   NC343751  41.513   1.225   5.550
 7747POPC   PO443752  41.511   1.258   5.850
 7747POPC   GL143753  41.607   1.171   6.150
 7747POPC   GL243754  41.644   1.192   6.150
 7747POPC   C1A43755  41.518   1.227   6.450
 7747POPC   D2A43756  41.540   1.219   6.750
 7747POPC   C3A43757  41.593   1.236   7.050
 7747POPC   C4A43758  41.521   1.256   7.350
 7747POPC   C1B43759  41.735   1.102   6.450
 7747POPC   C2B43760  41.796   1.093   6.750
 7747POPC   C3B43761  41.759   1.104   7.050
 7747POPC   C4B43762  41.757   1.053   7.350
 7748POPC   NC343763   2.742  15.955   5.550
 7748POPC   PO443764   2.733  15.981   5.850
 7748POPC   GL143765   2.795  15.920   6.150
 7748POPC   GL243766   2.673  15.948   6.150
 7748POPC   C1A43767   2.814  15.967   6.450
 7748POPC   D2A43768   2.776  15.975   6.750
 7748POPC   C3A43769   2.762  15.910   7.050
 7748POPC   C4A43770   2.776  15.941   7.350
 7748POPC   C1B43771   2.576  16.046   6.450
 7748POPC   C2B43772   2.507  15.997   6.750
 7748POPC   C3B43773   2.542  16.046   7.050
 7748POPC   C4B43774   2.535  15.994   7.350
 7749POPC   NC343775  24.532  30.718   5.550
 7749POPC   PO443776  24.530  30.729   5.850
 7749POPC   GL143777  24.470  30.651   6.150
 7749POPC   GL243778  24.337  30.717   6.150
 7749POPC   C1A43779  24.530  30.743   6.450
 7749POPC   D2A43780  24.537  30.709   6.750
 7749POPC   C3A43781  24.495  30.700   7.050
 7749POPC   C4A43782  24.509  30.683   7.350
 7749POPC   C1B43783  24.271  30.668   6.450
 7749POPC   C2B43784  24.226  30.728   6.750
 7749POPC   C3B43785  24.191  30.702   7.050
 7749POPC   C4B43786  24.254  30.727   7.350
 7750POPC   NC343787   9.009  20.597   5.550
 7750POPC   PO443788   9.014  20.631   5.850
 7750POPC   GL143789   8.994  20.612   6.150
 7750POPC   GL243790   9.110  20.548   6.150
 7750POPC   C1A43791   9.004  20.563   6.450
 7750POPC   D2A43792   8.958  20.631   6.750
 7750POPC   C3A43793   8.994  20.591   7.050
 7750POPC   C4A43794   8.983  20.623   7.350
 7750POPC   C1B43795   9.151  20.474   6.450
 7750POPC   C2B43796   9.241  20.485   6.750
 7750POPC   C3B43797   9.201  20.484   7.050
 7750POPC   C4B43798   9.199  20.460   7.350
 7751POPC   NC343799  15.999   6.597   5.550
 7751POPC   PO443800  15.984   6.595   5.850
 7751POPC   GL143801  15.999   6.625   6.150
 7751POPC   GL243802  15.985   6.783   6.150
 7751POPC   C1A43803  15.958   6.651   6.450
 7751POPC   D2A43804  15.985   6.641   6.750
 7751POPC   C3A43805  15.996   6.654   7.050
 7751POPC   C4A43806  15.940   6.596   7.350
 7751POPC   C1B43807  16.044   6.857   6.450
 7751POPC   C2B43808  16.075   6.833   6.750
 7751POPC   C3B43809  16.049   6.855   7.050
 7751POPC   C4B43810  16.079   6.855   7.350
 7752POPC   NC343811  39.185  11.256   5.550
 7752POPC   PO443812  39.266  11.304   5.850
 7752POPC   GL143813  39.215  11.270   6.150
 7752POPC   GL243814  39.372  11.314   6.150
 7752POPC   C1A43815  39.257  11.280   6.450
 7752POPC   D2A43816  39.271  11.280   6.750
 7752POPC   C3A43817  39.262  11.312   7.050
 7752POPC   C4A43818  39.237  11.343   7.350
 7752POPC   C1B43819  39.488  11.280   6.450
 7752POPC   C2B43820  39.457  11.290   6.750
 7752POPC   C3B43821  39.480  11.315   7.050
 7752POPC   C4B43822  39.447  11.345   7.350
 7753POPC   NC343823  26.815  30.707   5.550
 7753POPC   PO443824  26.798  30.668   5.850
 7753POPC   GL143825  26.800  30.735   6.150
 7753POPC   GL243826  26.946  30.687   6.150
 7753POPC   C1A43827  26.859  30.683   6.450
 7753POPC   D2A43828  26.839  30.688   6.750
 7753POPC   C3A43829  26.828  30.676   7.050
 7753POPC   C4A43830  26.796  30.727   7.350
 7753POPC   C1B43831  27.019  30.678   6.450
 7753POPC   C2B43832  27.108  30.689   6.750
 7753POPC   C3B43833  27.018  30.594   7.050
 7753POPC   C4B43834  27.108  30.679   7.350
 7754POPC   NC343835   9.782  10.480   5.550
 7754POPC   PO443836   9.785  10.571   5.850
 7754POPC   GL143837   9.781  10.551   6.150
 7754POPC   GL243838   9.712  10.648   6.150
 7754POPC   C1A43839   9.768  10.479   6.450
 7754POPC   D2A43840   9.792  10.476   6.750
 7754POPC   C3A43841   9.765  10.544   7.050
 7754POPC   C4A43842   9.774  10.537   7.350
 7754POPC   C1B43843   9.777  10.803   6.450
 7754POPC   C2B43844   9.689  10.791   6.750
 7754POPC   C3B43845   9.768  10.810   7.050
 7754POPC   C4B43846   9.715  10.762   7.350
 7755POPC   NC343847  23.716  20.590   5.550
 7755POPC   PO443848  23.667  20.655   5.850
 7755POPC   GL143849  23.744  20.623   6.150
 7755POPC   GL243850  23.757  20.738   6.150
 7755POPC   C1A43851  23.756  20.565   6.450
 7755POPC   D2A43852  23.729  20.575   6.750
 7755POPC   C3A43853  23.711  20.576   7.050
 7755POPC   C4A43854  23.685  20.587   7.350
 7755POPC   C1B43855  23.781  20.827   6.450
 7755POPC   C2B43856  23.753  20.829   6.750
 7755POPC   C3B43857  23.799  20.886   7.050
 7755POPC   C4B43858  23.760  20.844   7.350
 7756POPC   NC343859  22.958  27.593   5.550
 7756POPC   PO443860  22.965  27.600   5.850
 7756POPC   GL143861  22.902  27.562   6.150
 7756POPC   GL243862  22.967  27.724   6.150
 7756POPC   C1A43863  22.906  27.572   6.450
 7756POPC   D2A43864  22.924  27.642   6.750
 7756POPC   C3A43865  22.962  27.620   7.050
 7756POPC   C4A43866  22.895  27.636   7.350
 7756POPC   C1B43867  23.055  27.846   6.450
 7756POPC   C2B43868  23.009  27.786   6.750
 7756POPC   C3B43869  23.076  27.803   7.050
 7756POPC   C4B43870  23.034  27.823   7.350
 7757POPC   NC343871  40.801  28.369   5.550
 7757POPC   PO443872  40.801  28.398   5.850
 7757POPC   GL143873  40.769  28.330   6.150
 7757POPC   GL243874  40.815  28.248   6.150
 7757POPC   C1A43875  40.790  28.350   6.450
 7757POPC   D2A43876  40.803  28.398   6.750
 7757POPC   C3A43877  40.818  28.355   7.050
 7757POPC   C4A43878  40.786  28.335   7.350
 7757POPC   C1B43879  40.972  28.127   6.450
 7757POPC   C2B43880  40.954  28.183   6.750
 7757POPC   C3B43881  40.924  28.171   7.050
 7757POPC   C4B43882  40.894  28.191   7.350
 7758POPC   NC343883  44.700  28.400   5.550
 7758POPC   PO443884  44.675  28.325   5.850
 7758POPC   GL143885  44.691  28.384   6.150
 7758POPC   GL243886  44.747  28.345   6.150
 7758POPC   C1A43887  44.676  28.355   6.450
 7758POPC   D2A43888  44.698  28.371   6.750
 7758POPC   C3A43889  44.618  28.363   7.050
 7758POPC   C4A43890  44.641  28.392   7.350
 7758POPC   C1B43891  44.835  28.214   6.450
 7758POPC   C2B43892  44.852  28.208   6.750
 7758POPC   C3B43893  44.899  28.266   7.050
 7758POPC   C4B43894  44.874  28.188   7.350
 7759POPC   NC343895  39.974  24.486   5.550
 7759POPC   PO443896  39.964  24.442   5.850
 7759POPC   GL143897  40.032  24.500   6.150
 7759POPC   GL243898  39.850  24.453   6.150
 7759POPC   C1A43899  40.023  24.447   6.450
 7759POPC   D2A43900  40.034  24.502   6.750
 7759POPC   C3A43901  39.984  24.523   7.050
 7759POPC   C4A43902  40.036  24.523   7.350
 7759POPC   C1B43903  39.800  24.348   6.450
 7759POPC   C2B43904  39.802  24.382   6.750
 7759POPC   C3B43905  39.799  24.389   7.050
 7759POPC   C4B43906  39.794  24.393   7.350
 7760POPC   NC343907  43.143  43.079   5.550
 7760POPC   PO443908  43.160  43.111   5.850
 7760POPC   GL143909  43.138  43.141   6.150
 7760POPC   GL243910  43.051  43.221   6.150
 7760POPC   C1A43911  43.159  43.143   6.450
 7760POPC   D2A43912  43.095  43.098   6.750
 7760POPC   C3A43913  43.133  43.145   7.050
 7760POPC   C4A43914  43.090  43.082   7.350
 7760POPC   C1B43915  42.930  43.329   6.450
 7760POPC   C2B43916  42.975  43.248   6.750
 7760POPC   C3B43917  42.975  43.317   7.050
 7760POPC   C4B43918  42.896  43.278   7.350
 7761POPC   NC343919  42.353  29.181   5.550
 7761POPC   PO443920  42.364  29.142   5.850
 7761POPC   GL143921  42.342  29.148   6.150
 7761POPC   GL243922  42.388  29.107   6.150
 7761POPC   C1A43923  42.329  29.143   6.450
 7761POPC   D2A43924  42.326  29.178   6.750
 7761POPC   C3A43925  42.323  29.176   7.050
 7761POPC   C4A43926  42.364  29.170   7.350
 7761POPC   C1B43927  42.485  29.012   6.450
 7761POPC   C2B43928  42.491  28.940   6.750
 7761POPC   C3B43929  42.489  29.018   7.050
 7761POPC   C4B43930  42.569  28.978   7.350
 7762POPC   NC343931   7.422  12.077   5.550
 7762POPC   PO443932   7.425  12.092   5.850
 7762POPC   GL143933   7.468  12.117   6.150
 7762POPC   GL243934   7.573  12.122   6.150
 7762POPC   C1A43935   7.439  12.066   6.450
 7762POPC   D2A43936   7.461  12.049   6.750
 7762POPC   C3A43937   7.462  12.076   7.050
 7762POPC   C4A43938   7.412  12.101   7.350
 7762POPC   C1B43939   7.714  12.079   6.450
 7762POPC   C2B43940   7.687  12.117   6.750
 7762POPC   C3B43941   7.643  12.052   7.050
 7762POPC   C4B43942   7.652  12.127   7.350
 7763POPC   NC343943  44.632   7.457   5.550
 7763POPC   PO443944  44.634   7.452   5.850
 7763POPC   GL143945  44.704   7.451   6.150
 7763POPC   GL243946  44.809   7.445   6.150
 7763POPC   C1A43947  44.677   7.464   6.450
 7763POPC   D2A43948  44.657   7.390   6.750
 7763POPC   C3A43949  44.617   7.377   7.050
 7763POPC   C4A43950  44.643   7.389   7.350
 7763POPC   C1B43951  44.863   7.582   6.450
 7763POPC   C2B43952  44.898   7.576   6.750
 7763POPC   C3B43953  44.934   7.512   7.050
 7763POPC   C4B43954  44.879   7.568   7.350
 7764POPC   NC343955  37.710  41.570   5.550
 7764POPC   PO443956  37.716  41.509   5.850
 7764POPC   GL143957  37.695  41.558   6.150
 7764POPC   GL243958  37.788  41.629   6.150
 7764POPC   C1A43959  37.675  41.584   6.450
 7764POPC   D2A43960  37.713  41.526   6.750
 7764POPC   C3A43961  37.647  41.525   7.050
 7764POPC   C4A43962  37.697  41.520   7.350
 7764POPC   C1B43963  37.847  41.717   6.450
 7764POPC   C2B43964  37.848  41.803   6.750
 7764POPC   C3B43965  37.793  41.781   7.050
 7764POPC   C4B43966  37.800  41.728   7.350
 7765POPC   NC343967  13.625  22.965   5.550
 7765POPC   PO443968  13.597  22.965   5.850
 7765POPC   GL143969  13.653  22.945   6.150
 7765POPC   GL243970  13.532  22.878   6.150
 7765POPC   C1A43971  13.602  22.939   6.450
 7765POPC   D2A43972  13.598  22.891   6.750
 7765POPC   C3A43973  13.598  22.922   7.050
 7765POPC   C4A43974  13.612  22.929   7.350
 7765POPC   C1B43975  13.403  22.896   6.450
 7765POPC   C2B43976  13.428  22.885   6.750
 7765POPC   C3B43977  13.421  22.904   7.050
 7765POPC   C4B43978  13.366  22.878   7.350
 7766POPC   NC343979  38.479  25.292   5.550
 7766POPC   PO443980  38.424  25.305   5.850
 7766POPC   GL143981  38.501  25.278   6.150
 7766POPC   GL243982  38.594  25.156   6.150
 7766POPC   C1A43983  38.466  25.291   6.450
 7766POPC   D2A43984  38.467  25.308   6.750
 7766POPC   C3A43985  38.434  25.232   7.050
 7766POPC   C4A43986  38.468  25.306   7.350
 7766POPC   C1B43987  38.697  25.174   6.450
 7766POPC   C2B43988  38.713  25.150   6.750
 7766POPC   C3B43989  38.630  25.154   7.050
 7766POPC   C4B43990  38.631  25.085   7.350
 7767POPC   NC343991  26.072  12.857   5.550
 7767POPC   PO443992  25.993  12.816   5.850
 7767POPC   GL143993  26.030  12.823   6.150
 7767POPC   GL243994  26.008  13.003   6.150
 7767POPC   C1A43995  26.039  12.834   6.450
 7767POPC   D2A43996  25.995  12.857   6.750
 7767POPC   C3A43997  26.044  12.891   7.050
 7767POPC   C4A43998  26.081  12.806   7.350
 7767POPC   C1B43999  25.979  13.087   6.450
 7767POPC   C2B44000  26.012  13.082   6.750
 7767POPC   C3B44001  25.961  13.129   7.050
 7767POPC   C4B44002  25.933  13.045   7.350
 7768POPC   NC344003  40.020  36.124   5.550
 7768POPC   PO444004  40.043  36.144   5.850
 7768POPC   GL144005  39.966  36.130   6.150
 7768POPC   GL244006  40.123  36.083   6.150
 7768POPC   C1A44007  40.032  36.167   6.450
 7768POPC   D2A44008  40.034  36.158   6.750
 7768POPC   C3A44009  40.029  36.162   7.050
 7768POPC   C4A44010  40.010  36.152   7.350
 7768POPC   C1B44011  40.218  35.938   6.450
 7768POPC   C2B44012  40.240  35.948   6.750
 7768POPC   C3B44013  40.160  35.999   7.050
 7768POPC   C4B44014  40.162  35.965   7.350
 7769POPC   NC344015   0.445  11.326   5.550
 7769POPC   PO444016   0.405  11.297   5.850
 7769POPC   GL144017   0.434  11.328   6.150
 7769POPC   GL244018   0.600  11.319   6.150
 7769POPC   C1A44019   0.476  11.252   6.450
 7769POPC   D2A44020   0.476  11.307   6.750
 7769POPC   C3A44021   0.467  11.282   7.050
 7769POPC   C4A44022   0.420  11.314   7.350
 7769POPC   C1B44023   0.633  11.376   6.450
 7769POPC   C2B44024   0.685  11.345   6.750
 7769POPC   C3B44025   0.639  11.357   7.050
 7769POPC   C4B44026   0.697  11.427   7.350
 7770POPC   NC344027  10.541  12.824   5.550
 7770POPC   PO444028  10.505  12.886   5.850
 7770POPC   GL144029  10.515  12.843   6.150
 7770POPC   GL244030  10.428  12.810   6.150
 7770POPC   C1A44031  10.539  12.870   6.450
 7770POPC   D2A44032  10.519  12.887   6.750
 7770POPC   C3A44033  10.532  12.804   7.050
 7770POPC   C4A44034  10.522  12.843   7.350
 7770POPC   C1B44035  10.254  12.840   6.450
 7770POPC   C2B44036  10.304  12.800   6.750
 7770POPC   C3B44037  10.317  12.844   7.050
 7770POPC   C4B44038  10.284  12.837   7.350
 7771POPC   NC344039  35.369  34.553   5.550
 7771POPC   PO444040  35.381  34.594   5.850
 7771POPC   GL144041  35.315  34.595   6.150
 7771POPC   GL244042  35.351  34.442   6.150
 7771POPC   C1A44043  35.354  34.548   6.450
 7771POPC   D2A44044  35.393  34.548   6.750
 7771POPC   C3A44045  35.348  34.579   7.050
 7771POPC   C4A44046  35.365  34.539   7.350
 7771POPC   C1B44047  35.342  34.277   6.450
 7771POPC   C2B44048  35.390  34.322   6.750
 7771POPC   C3B44049  35.327  34.287   7.050
 7771POPC   C4B44050  35.302  34.367   7.350
 7772POPC   NC344051  25.234  34.539   5.550
 7772POPC   PO444052  25.294  34.556   5.850
 7772POPC   GL144053  25.237  34.560   6.150
 7772POPC   GL244054  25.166  34.669   6.150
 7772POPC   C1A44055  25.271  34.580   6.450
 7772POPC   D2A44056  25.293  34.606   6.750
 7772POPC   C3A44057  25.226  34.592   7.050
 7772POPC   C4A44058  25.239  34.616   7.350
 7772POPC   C1B44059  25.044  34.688   6.450
 7772POPC   C2B44060  25.108  34.716   6.750
 7772POPC   C3B44061  25.078  34.680   7.050
 7772POPC   C4B44062  25.068  34.684   7.350
 7773POPC   NC344063   9.006  35.331   5.550
 7773POPC   PO444064   8.943  35.326   5.850
 7773POPC   GL144065   9.001  35.347   6.150
 7773POPC   GL244066   8.996  35.189   6.150
 7773POPC   C1A44067   9.007  35.399   6.450
 7773POPC   D2A44068   8.970  35.388   6.750
 7773POPC   C3A44069   8.949  35.377   7.050
 7773POPC   C4A44070   8.973  35.302   7.350
 7773POPC   C1B44071   9.009  35.111   6.450
 7773POPC   C2B44072   9.033  35.061   6.750
 7773POPC   C3B44073   8.983  35.149   7.050
 7773POPC   C4B44074   9.024  35.152   7.350
 7774POPC   NC344075  33.015  21.342   5.550
 7774POPC   PO444076  33.023  21.389   5.850
 7774POPC   GL144077  32.998  21.399   6.150
 7774POPC   GL244078  32.934  21.384   6.150
 7774POPC   C1A44079  33.053  21.395   6.450
 7774POPC   D2A44080  33.018  21.339   6.750
 7774POPC   C3A44081  32.996  21.358   7.050
 7774POPC   C4A44082  33.008  21.413   7.350
 7774POPC   C1B44083  32.795  21.500   6.450
 7774POPC   C2B44084  32.778  21.473   6.750
 7774POPC   C3B44085  32.779  21.466   7.050
 7774POPC   C4B44086  32.775  21.430   7.350
 7775POPC   NC344087  12.112  38.480   5.550
 7775POPC   PO444088  12.077  38.417   5.850
 7775POPC   GL144089  12.051  38.412   6.150
 7775POPC   GL244090  12.227  38.463   6.150
 7775POPC   C1A44091  12.070  38.415   6.450
 7775POPC   D2A44092  12.032  38.454   6.750
 7775POPC   C3A44093  12.030  38.454   7.050
 7775POPC   C4A44094  12.073  38.421   7.350
 7775POPC   C1B44095  12.337  38.581   6.450
 7775POPC   C2B44096  12.274  38.564   6.750
 7775POPC   C3B44097  12.314  38.518   7.050
 7775POPC   C4B44098  12.341  38.539   7.350
 7776POPC   NC344099  42.331  43.122   5.550
 7776POPC   PO444100  42.310  43.151   5.850
 7776POPC   GL144101  42.372  43.088   6.150
 7776POPC   GL244102  42.248  43.126   6.150
 7776POPC   C1A44103  42.306  43.148   6.450
 7776POPC   D2A44104  42.318  43.118   6.750
 7776POPC   C3A44105  42.311  43.131   7.050
 7776POPC   C4A44106  42.287  43.077   7.350
 7776POPC   C1B44107  42.074  43.175   6.450
 7776POPC   C2B44108  42.095  43.225   6.750
 7776POPC   C3B44109  42.088  43.239   7.050
 7776POPC   C4B44110  42.142  43.171   7.350
 7777POPC   NC344111  32.266  12.833   5.550
 7777POPC   PO444112  32.228  12.862   5.850
 7777POPC   GL144113  32.256  12.832   6.150
 7777POPC   GL244114  32.145  12.853   6.150
 7777POPC   C1A44115  32.213  12.861   6.450
 7777POPC   D2A44116  32.228  12.855   6.750
 7777POPC   C3A44117  32.243  12.814   7.050
 7777POPC   C4A44118  32.272  12.860   7.350
 7777POPC   C1B44119  31.992  12.972   6.450
 7777POPC   C2B44120  31.973  12.904   6.750
 7777POPC   C3B44121  32.011  12.967   7.050
 7777POPC   C4B44122  32.061  12.916   7.350
 7778POPC   NC344123  38.446  29.939   5.550
 7778POPC   PO444124  38.473  29.894   5.850
 7778POPC   GL144125  38.476  29.962   6.150
 7778POPC   GL244126  38.480  29.774   6.150
 7778POPC   C1A44127  38.450  29.927   6.450
 7778POPC   D2A44128  38.425  29.966   6.750
 7778POPC   C3A44129  38.420  29.915   7.050
 7778POPC   C4A44130  38.466  29.943   7.350
 7778POPC   C1B44131  38.522  29.636   6.450
 7778POPC   C2B44132  38.507  29.724   6.750
 7778POPC   C3B44133  38.544  29.671   7.050
 7778POPC   C4B44134  38.520  29.702   7.350
 7779POPC   NC344135  37.678  14.433   5.550
 7779POPC   PO444136  37.631  14.414   5.850
 7779POPC   GL144137  37.649  14.366   6.150
 7779POPC   GL244138  37.569  14.544   6.150
 7779POPC   C1A44139  37.659  14.437   6.450
 7779POPC   D2A44140  37.712  14.419   6.750
 7779POPC   C3A44141  37.693  14.449   7.050
 7779POPC   C4A44142  37.639  14.405   7.350
 7779POPC   C1B44143  37.518  14.571   6.450
 7779POPC   C2B44144  37.511  14.590   6.750
 7779POPC   C3B44145  37.566  14.579   7.050
 7779POPC   C4B44146  37.533  14.624   7.350
 7780POPC   NC344147  18.260  23.727   5.550
 7780POPC   PO444148  18.273  23.708   5.850
 7780POPC   GL144149  18.259  23.727   6.150
 7780POPC   GL244150  18.358  23.703   6.150
 7780POPC   C1A44151  18.328  23.722   6.450
 7780POPC   D2A44152  18.305  23.709   6.750
 7780POPC   C3A44153  18.305  23.741   7.050
 7780POPC   C4A44154  18.302  23.693   7.350
 7780POPC   C1B44155  18.491  23.711   6.450
 7780POPC   C2B44156  18.525  23.653   6.750
 7780POPC   C3B44157  18.511  23.696   7.050
 7780POPC   C4B44158  18.573  23.696   7.350
 7781POPC   NC344159  44.647  22.904   5.550
 7781POPC   PO444160  44.652  22.892   5.850
 7781POPC   GL144161  44.710  22.913   6.150
 7781POPC   GL244162  44.698  22.827   6.150
 7781POPC   C1A44163  44.612  22.940   6.450
 7781POPC   D2A44164  44.629  22.934   6.750
 7781POPC   C3A44165  44.693  22.897   7.050
 7781POPC   C4A44166  44.675  22.912   7.350
 7781POPC   C1B44167  44.698  22.689   6.450
 7781POPC   C2B44168  44.634  22.714   6.750
 7781POPC   C3B44169  44.697  22.733   7.050
 7781POPC   C4B44170  44.699  22.716   7.350
 7782POPC   NC344171  37.646  19.790   5.550
 7782POPC   PO444172  37.706  19.839   5.850
 7782POPC   GL144173  37.671  19.810   6.150
 7782POPC   GL244174  37.552  19.848   6.150
 7782POPC   C1A44175  37.648  19.873   6.450
 7782POPC   D2A44176  37.647  19.860   6.750
 7782POPC   C3A44177  37.648  19.875   7.050
 7782POPC   C4A44178  37.727  19.793   7.350
 7782POPC   C1B44179  37.401  19.935   6.450
 7782POPC   C2B44180  37.398  19.867   6.750
 7782POPC   C3B44181  37.486  19.935   7.050
 7782POPC   C4B44182  37.402  19.932   7.350
 7783POPC   NC344183  40.733   9.790   5.550
 7783POPC   PO444184  40.820   9.724   5.850
 7783POPC   GL144185  40.769   9.728   6.150
 7783POPC   GL244186  40.856   9.675   6.150
 7783POPC   C1A44187  40.750   9.711   6.450
 7783POPC   D2A44188  40.778   9.742   6.750
 7783POPC   C3A44189  40.756   9.740   7.050
 7783POPC   C4A44190  40.755   9.770   7.350
 7783POPC   C1B44191  40.921   9.569   6.450
 7783POPC   C2B44192  40.944   9.538   6.750
 7783POPC   C3B44193  40.920   9.576   7.050
 7783POPC   C4B44194  40.966   9.497   7.350
 7784POPC   NC344195  29.924   9.720   5.550
 7784POPC   PO444196  29.880   9.724   5.850
 7784POPC   GL144197  29.881   9.740   6.150
 7784POPC   GL244198  29.833   9.857   6.150
 7784POPC   C1A44199  29.958   9.738   6.450
 7784POPC   D2A44200  29.951   9.699   6.750
 7784POPC   C3A44201  29.945   9.745   7.050
 7784POPC   C4A44202  29.946   9.765   7.350
 7784POPC   C1B44203  29.792   9.892   6.450
 7784POPC   C2B44204  29.766   9.978   6.750
 7784POPC   C3B44205  29.796   9.919   7.050
 7784POPC   C4B44206  29.805   9.928   7.350
 7785POPC   NC344207  43.145   4.364   5.550
 7785POPC   PO444208  43.133   4.366   5.850
 7785POPC   GL144209  43.152   4.315   6.150
 7785POPC   GL244210  43.030   4.332   6.150
 7785POPC   C1A44211  43.136   4.289   6.450
 7785POPC   D2A44212  43.123   4.356   6.750
 7785POPC   C3A44213  43.094   4.344   7.050
 7785POPC   C4A44214  43.115   4.277   7.350
 7785POPC   C1B44215  42.899   4.376   6.450
 7785POPC   C2B44216  42.868   4.373   6.750
 7785POPC   C3B44217  42.885   4.387   7.050
 7785POPC   C4B44218  42.864   4.383   7.350
 7786POPC   NC344219  34.611   2.760   5.550
 7786POPC   PO444220  34.597   2.777   5.850
 7786POPC   GL144221  34.571   2.793   6.150
 7786POPC   GL244222  34.610   2.696   6.150
 7786POPC   C1A44223  34.545   2.731   6.450
 7786POPC   D2A44224  34.528   2.777   6.750
 7786POPC   C3A44225  34.569   2.811   7.050
 7786POPC   C4A44226  34.546   2.807   7.350
 7786POPC   C1B44227  34.650   2.525   6.450
 7786POPC   C2B44228  34.686   2.523   6.750
 7786POPC   C3B44229  34.709   2.577   7.050
 7786POPC   C4B44230  34.706   2.579   7.350
 7787POPC   NC344231  31.461  34.598   5.550
 7787POPC   PO444232  31.464  34.554   5.850
 7787POPC   GL144233  31.503  34.537   6.150
 7787POPC   GL244234  31.614  34.574   6.150
 7787POPC   C1A44235  31.440  34.575   6.450
 7787POPC   D2A44236  31.469  34.536   6.750
 7787POPC   C3A44237  31.478  34.527   7.050
 7787POPC   C4A44238  31.427  34.602   7.350
 7787POPC   C1B44239  31.760  34.576   6.450
 7787POPC   C2B44240  31.702  34.575   6.750
 7787POPC   C3B44241  31.750  34.568   7.050
 7787POPC   C4B44242  31.678  34.573   7.350
 7788POPC   NC344243  36.091  21.435   5.550
 7788POPC   PO444244  36.129  21.364   5.850
 7788POPC   GL144245  36.084  21.357   6.150
 7788POPC   GL244246  35.987  21.422   6.150
 7788POPC   C1A44247  36.146  21.340   6.450
 7788POPC   D2A44248  36.147  21.356   6.750
 7788POPC   C3A44249  36.124  21.429   7.050
 7788POPC   C4A44250  36.116  21.379   7.350
 7788POPC   C1B44251  35.946  21.528   6.450
 7788POPC   C2B44252  35.928  21.491   6.750
 7788POPC   C3B44253  35.862  21.502   7.050
 7788POPC   C4B44254  35.925  21.493   7.350
 7789POPC   NC344255   0.412  21.420   5.550
 7789POPC   PO444256   0.427  21.374   5.850
 7789POPC   GL144257   0.433  21.340   6.150
 7789POPC   GL244258   0.270  21.346   6.150
 7789POPC   C1A44259   0.415  21.347   6.450
 7789POPC   D2A44260   0.427  21.351   6.750
 7789POPC   C3A44261   0.430  21.358   7.050
 7789POPC   C4A44262   0.437  21.367   7.350
 7789POPC   C1B44263   0.146  21.377   6.450
 7789POPC   C2B44264   0.188  21.352   6.750
 7789POPC   C3B44265   0.220  21.317   7.050
 7789POPC   C4B44266   0.185  21.357   7.350
 7790POPC   NC344267  29.135  11.319   5.550
 7790POPC   PO444268  29.184  11.286   5.850
 7790POPC   GL144269  29.126  11.301   6.150
 7790POPC   GL244270  28.982  11.362   6.150
 7790POPC   C1A44271  29.156  11.291   6.450
 7790POPC   D2A44272  29.183  11.285   6.750
 7790POPC   C3A44273  29.172  11.324   7.050
 7790POPC   C4A44274  29.161  11.267   7.350
 7790POPC   C1B44275  28.921  11.293   6.450
 7790POPC   C2B44276  28.901  11.334   6.750
 7790POPC   C3B44277  28.943  11.312   7.050
 7790POPC   C4B44278  28.909  11.298   7.350
 7791POPC   NC344279  29.878  38.486   5.550
 7791POPC   PO444280  29.903  38.406   5.850
 7791POPC   GL144281  29.885  38.450   6.150
 7791POPC   GL244282  30.001  38.398   6.150
 7791POPC   C1A44283  29.967  38.452   6.450
 7791POPC   D2A44284  29.946  38.493   6.750
 7791POPC   C3A44285  29.879  38.466   7.050
 7791POPC   C4A44286  29.960  38.436   7.350
 7791POPC   C1B44287  30.122  38.439   6.450
 7791POPC   C2B44288  30.196  38.377   6.750
 7791POPC   C3B44289  30.199  38.418   7.050
 7791POPC   C4B44290  30.204  38.450   7.350
 7792POPC   NC344291  36.171  12.843   5.550
 7792POPC   PO444292  36.135  12.826   5.850
 7792POPC   GL144293  36.174  12.810   6.150
 7792POPC   GL244294  35.976  12.778   6.150
 7792POPC   C1A44295  36.129  12.828   6.450
 7792POPC   D2A44296  36.130  12.860   6.750
 7792POPC   C3A44297  36.088  12.813   7.050
 7792POPC   C4A44298  36.121  12.869   7.350
 7792POPC   C1B44299  35.861  12.779   6.450
 7792POPC   C2B44300  35.912  12.794   6.750
 7792POPC   C3B44301  35.902  12.763   7.050
 7792POPC   C4B44302  35.922  12.800   7.350
 7793POPC   NC344303  22.968  39.976   5.550
 7793POPC   PO444304  22.977  40.024   5.850
 7793POPC   GL144305  22.912  40.031   6.150
 7793POPC   GL244306  23.033  39.931   6.150
 7793POPC   C1A44307  22.940  40.051   6.450
 7793POPC   D2A44308  22.912  40.006   6.750
 7793POPC   C3A44309  22.937  39.987   7.050
 7793POPC   C4A44310  22.987  39.959   7.350
 7793POPC   C1B44311  23.154  39.965   6.450
 7793POPC   C2B44312  23.169  39.957   6.750
 7793POPC   C3B44313  23.176  39.941   7.050
 7793POPC   C4B44314  23.226  39.928   7.350
 7794POPC   NC344315  21.364  40.015   5.550
 7794POPC   PO444316  21.342  39.988   5.850
 7794POPC   GL144317  21.372  40.031   6.150
 7794POPC   GL244318  21.461  39.844   6.150
 7794POPC   C1A44319  21.424  40.005   6.450
 7794POPC   D2A44320  21.365  40.011   6.750
 7794POPC   C3A44321  21.363  39.971   7.050
 7794POPC   C4A44322  21.432  40.006   7.350
 7794POPC   C1B44323  21.472  39.755   6.450
 7794POPC   C2B44324  21.439  39.749   6.750
 7794POPC   C3B44325  21.472  39.749   7.050
 7794POPC   C4B44326  21.523  39.756   7.350
 7795POPC   NC344327  37.647  11.275   5.550
 7795POPC   PO444328  37.679  11.280   5.850
 7795POPC   GL144329  37.633  11.348   6.150
 7795POPC   GL244330  37.691  11.421   6.150
 7795POPC   C1A44331  37.703  11.315   6.450
 7795POPC   D2A44332  37.670  11.253   6.750
 7795POPC   C3A44333  37.710  11.289   7.050
 7795POPC   C4A44334  37.655  11.294   7.350
 7795POPC   C1B44335  37.713  11.501   6.450
 7795POPC   C2B44336  37.666  11.529   6.750
 7795POPC   C3B44337  37.713  11.523   7.050
 7795POPC   C4B44338  37.641  11.542   7.350
 7796POPC   NC344339   1.989  17.508   5.550
 7796POPC   PO444340   2.033  17.544   5.850
 7796POPC   GL144341   1.957  17.529   6.150
 7796POPC   GL244342   1.946  17.619   6.150
 7796POPC   C1A44343   1.945  17.466   6.450
 7796POPC   D2A44344   1.942  17.470   6.750
 7796POPC   C3A44345   2.014  17.553   7.050
 7796POPC   C4A44346   1.958  17.499   7.350
 7796POPC   C1B44347   1.943  17.804   6.450
 7796POPC   C2B44348   1.930  17.737   6.750
 7796POPC   C3B44349   1.947  17.749   7.050
 7796POPC   C4B44350   1.939  17.720   7.350
 7797POPC   NC344351   1.253  15.998   5.550
 7797POPC   PO444352   1.181  15.973   5.850
 7797POPC   GL144353   1.222  15.982   6.150
 7797POPC   GL244354   1.161  16.103   6.150
 7797POPC   C1A44355   1.238  15.940   6.450
 7797POPC   D2A44356   1.262  16.001   6.750
 7797POPC   C3A44357   1.212  15.962   7.050
 7797POPC   C4A44358   1.240  15.964   7.350
 7797POPC   C1B44359   1.117  16.167   6.450
 7797POPC   C2B44360   1.158  16.158   6.750
 7797POPC   C3B44361   1.179  16.153   7.050
 7797POPC   C4B44362   1.118  16.163   7.350
 7798POPC   NC344363  29.118  19.852   5.550
 7798POPC   PO444364  29.187  19.851   5.850
 7798POPC   GL144365  29.124  19.837   6.150
 7798POPC   GL244366  29.114  19.929   6.150
 7798POPC   C1A44367  29.165  19.835   6.450
 7798POPC   D2A44368  29.158  19.854   6.750
 7798POPC   C3A44369  29.114  19.878   7.050
 7798POPC   C4A44370  29.167  19.850   7.350
 7798POPC   C1B44371  28.981  20.090   6.450
 7798POPC   C2B44372  29.073  20.013   6.750
 7798POPC   C3B44373  29.054  20.053   7.050
 7798POPC   C4B44374  29.045  20.085   7.350
 7799POPC   NC344375  39.186  12.051   5.550
 7799POPC   PO444376  39.264  12.057   5.850
 7799POPC   GL144377  39.278  12.116   6.150
 7799POPC   GL244378  39.154  12.155   6.150
 7799POPC   C1A44379  39.279  12.113   6.450
 7799POPC   D2A44380  39.269  12.027   6.750
 7799POPC   C3A44381  39.259  12.114   7.050
 7799POPC   C4A44382  39.221  12.052   7.350
 7799POPC   C1B44383  39.053  12.162   6.450
 7799POPC   C2B44384  39.026  12.212   6.750
 7799POPC   C3B44385  39.024  12.193   7.050
 7799POPC   C4B44386  38.998  12.186   7.350
 7800POPC   NC344387   1.164  35.385   5.550
 7800POPC   PO444388   1.239  35.368   5.850
 7800POPC   GL144389   1.254  35.387   6.150
 7800POPC   GL244390   1.381  35.343   6.150
 7800POPC   C1A44391   1.217  35.316   6.450
 7800POPC   D2A44392   1.221  35.399   6.750
 7800POPC   C3A44393   1.231  35.387   7.050
 7800POPC   C4A44394   1.193  35.368   7.350
 7800POPC   C1B44395   1.441  35.282   6.450
 7800POPC   C2B44396   1.499  35.353   6.750
 7800POPC   C3B44397   1.473  35.299   7.050
 7800POPC   C4B44398   1.419  35.324   7.350
 7801POPC   NC344399  18.324  10.521   5.550
 7801POPC   PO444400  18.262  10.530   5.850
 7801POPC   GL144401  18.281  10.534   6.150
 7801POPC   GL244402  18.312  10.404   6.150
 7801POPC   C1A44403  18.239  10.503   6.450
 7801POPC   D2A44404  18.297  10.560   6.750
 7801POPC   C3A44405  18.333  10.572   7.050
 7801POPC   C4A44406  18.313  10.572   7.350
 7801POPC   C1B44407  18.305  10.321   6.450
 7801POPC   C2B44408  18.221  10.316   6.750
 7801POPC   C3B44409  18.244  10.284   7.050
 7801POPC   C4B44410  18.234  10.229   7.350
 7802POPC   NC344411  28.346  20.647   5.550
 7802POPC   PO444412  28.346  20.580   5.850
 7802POPC   GL144413  28.385  20.594   6.150
 7802POPC   GL244414  28.378  20.460   6.150
 7802POPC   C1A44415  28.341  20.628   6.450
 7802POPC   D2A44416  28.319  20.623   6.750
 7802POPC   C3A44417  28.345  20.606   7.050
 7802POPC   C4A44418  28.364  20.585   7.350
 7802POPC   C1B44419  28.243  20.336   6.450
 7802POPC   C2B44420  28.316  20.370   6.750
 7802POPC   C3B44421  28.301  20.420   7.050
 7802POPC   C4B44422  28.269  20.355   7.350
 7803POPC   NC344423  19.092  21.348   5.550
 7803POPC   PO444424  19.074  21.407   5.850
 7803POPC   GL144425  19.038  21.373   6.150
 7803POPC   GL244426  18.978  21.314   6.150
 7803POPC   C1A44427  19.039  21.411   6.450
 7803POPC   D2A44428  19.048  21.369   6.750
 7803POPC   C3A44429  19.028  21.343   7.050
 7803POPC   C4A44430  19.030  21.400   7.350
 7803POPC   C1B44431  18.922  21.150   6.450
 7803POPC   C2B44432  18.949  21.202   6.750
 7803POPC   C3B44433  18.954  21.179   7.050
 7803POPC   C4B44434  18.900  21.142   7.350
 7804POPC   NC344435  13.589  37.720   5.550
 7804POPC   PO444436  13.622  37.650   5.850
 7804POPC   GL144437  13.587  37.661   6.150
 7804POPC   GL244438  13.692  37.548   6.150
 7804POPC   C1A44439  13.647  37.719   6.450
 7804POPC   D2A44440  13.661  37.666   6.750
 7804POPC   C3A44441  13.579  37.725   7.050
 7804POPC   C4A44442  13.603  37.702   7.350
 7804POPC   C1B44443  13.739  37.455   6.450
 7804POPC   C2B44444  13.732  37.451   6.750
 7804POPC   C3B44445  13.719  37.443   7.050
 7804POPC   C4B44446  13.688  37.417   7.350
 7805POPC   NC344447  25.235   1.978   5.550
 7805POPC   PO444448  25.305   1.959   5.850
 7805POPC   GL144449  25.230   1.952   6.150
 7805POPC   GL244450  25.392   2.038   6.150
 7805POPC   C1A44451  25.310   1.991   6.450
 7805POPC   D2A44452  25.244   2.020   6.750
 7805POPC   C3A44453  25.253   1.995   7.050
 7805POPC   C4A44454  25.225   2.015   7.350
 7805POPC   C1B44455  25.542   2.022   6.450
 7805POPC   C2B44456  25.541   2.070   6.750
 7805POPC   C3B44457  25.530   2.056   7.050
 7805POPC   C4B44458  25.501   2.065   7.350
 7806POPC   NC344459  36.171  36.134   5.550
 7806POPC   PO444460  36.158  36.156   5.850
 7806POPC   GL144461  36.150  36.162   6.150
 7806POPC   GL244462  36.074  35.976   6.150
 7806POPC   C1A44463  36.177  36.135   6.450
 7806POPC   D2A44464  36.159  36.119   6.750
 7806POPC   C3A44465  36.165  36.169   7.050
 7806POPC   C4A44466  36.081  36.089   7.350
 7806POPC   C1B44467  36.103  35.923   6.450
 7806POPC   C2B44468  36.058  35.925   6.750
 7806POPC   C3B44469  36.048  35.891   7.050
 7806POPC   C4B44470  36.074  35.912   7.350
 7807POPC   NC344471   2.785  18.287   5.550
 7807POPC   PO444472   2.786  18.313   5.850
 7807POPC   GL144473   2.746  18.260   6.150
 7807POPC   GL244474   2.866  18.418   6.150
 7807POPC   C1A44475   2.784  18.288   6.450
 7807POPC   D2A44476   2.719  18.250   6.750
 7807POPC   C3A44477   2.752  18.248   7.050
 7807POPC   C4A44478   2.752  18.308   7.350
 7807POPC   C1B44479   2.919  18.555   6.450
 7807POPC   C2B44480   2.908  18.482   6.750
 7807POPC   C3B44481   2.833  18.479   7.050
 7807POPC   C4B44482   2.858  18.478   7.350
 7808POPC   NC344483   0.447  34.539   5.550
 7808POPC   PO444484   0.419  34.542   5.850
 7808POPC   GL144485   0.398  34.557   6.150
 7808POPC   GL244486   0.486  34.471   6.150
 7808POPC   C1A44487   0.394  34.551   6.450
 7808POPC   D2A44488   0.419  34.577   6.750
 7808POPC   C3A44489   0.487  34.625   7.050
 7808POPC   C4A44490   0.428  34.557   7.350
 7808POPC   C1B44491   0.493  34.320   6.450
 7808POPC   C2B44492   0.502  34.389   6.750
 7808POPC   C3B44493   0.541  34.324   7.050
 7808POPC   C4B44494   0.510  34.352   7.350
 7809POPC   NC344495  16.725  35.394   5.550
 7809POPC   PO444496  16.777  35.384   5.850
 7809POPC   GL144497  16.733  35.311   6.150
 7809POPC   GL244498  16.821  35.263   6.150
 7809POPC   C1A44499  16.757  35.387   6.450
 7809POPC   D2A44500  16.684  35.340   6.750
 7809POPC   C3A44501  16.725  35.336   7.050
 7809POPC   C4A44502  16.751  35.376   7.350
 7809POPC   C1B44503  16.948  35.141   6.450
 7809POPC   C2B44504  16.873  35.132   6.750
 7809POPC   C3B44505  16.940  35.190   7.050
 7809POPC   C4B44506  16.916  35.222   7.350
 7810POPC   NC344507   4.337   5.918   5.550
 7810POPC   PO444508   4.305   5.819   5.850
 7810POPC   GL144509   4.322   5.863   6.150
 7810POPC   GL244510   4.241   5.861   6.150
 7810POPC   C1A44511   4.286   5.896   6.450
 7810POPC   D2A44512   4.315   5.860   6.750
 7810POPC   C3A44513   4.324   5.864   7.050
 7810POPC   C4A44514   4.345   5.897   7.350
 7810POPC   C1B44515   4.053   5.797   6.450
 7810POPC   C2B44516   4.041   5.776   6.750
 7810POPC   C3B44517   4.090   5.790   7.050
 7810POPC   C4B44518   4.043   5.847   7.350
 7811POPC   NC344519  43.865  17.545   5.550
 7811POPC   PO444520  43.864  17.471   5.850
 7811POPC   GL144521  43.899  17.503   6.150
 7811POPC   GL244522  43.772  17.515   6.150
 7811POPC   C1A44523  43.901  17.478   6.450
 7811POPC   D2A44524  43.847  17.474   6.750
 7811POPC   C3A44525  43.892  17.495   7.050
 7811POPC   C4A44526  43.919  17.520   7.350
 7811POPC   C1B44527  43.633  17.587   6.450
 7811POPC   C2B44528  43.636  17.592   6.750
 7811POPC   C3B44529  43.687  17.578   7.050
 7811POPC   C4B44530  43.636  17.592   7.350
 7812POPC   NC344531  17.485  31.517   5.550
 7812POPC   PO444532  17.516  31.495   5.850
 7812POPC   GL144533  17.491  31.463   6.150
 7812POPC   GL244534  17.478  31.587   6.150
 7812POPC   C1A44535  17.541  31.438   6.450
 7812POPC   D2A44536  17.499  31.482   6.750
 7812POPC   C3A44537  17.544  31.434   7.050
 7812POPC   C4A44538  17.516  31.461   7.350
 7812POPC   C1B44539  17.510  31.713   6.450
 7812POPC   C2B44540  17.561  31.690   6.750
 7812POPC   C3B44541  17.559  31.683   7.050
 7812POPC   C4B44542  17.530  31.766   7.350
 7813POPC   NC344543  37.667  42.317   5.550
 7813POPC   PO444544  37.640  42.296   5.850
 7813POPC   GL144545  37.676  42.349   6.150
 7813POPC   GL244546  37.659  42.486   6.150
 7813POPC   C1A44547  37.686  42.302   6.450
 7813POPC   D2A44548  37.699  42.373   6.750
 7813POPC   C3A44549  37.671  42.303   7.050
 7813POPC   C4A44550  37.707  42.373   7.350
 7813POPC   C1B44551  37.643  42.523   6.450
 7813POPC   C2B44552  37.598  42.608   6.750
 7813POPC   C3B44553  37.559  42.522   7.050
 7813POPC   C4B44554  37.648  42.541   7.350
 7814POPC   NC344555  15.191  29.879   5.550
 7814POPC   PO444556  15.194  29.897   5.850
 7814POPC   GL144557  15.148  29.921   6.150
 7814POPC   GL244558  15.096  29.913   6.150
 7814POPC   C1A44559  15.221  29.900   6.450
 7814POPC   D2A44560  15.165  29.885   6.750
 7814POPC   C3A44561  15.196  29.950   7.050
 7814POPC   C4A44562  15.225  29.902   7.350
 7814POPC   C1B44563  14.983  29.816   6.450
 7814POPC   C2B44564  14.906  29.856   6.750
 7814POPC   C3B44565  14.953  29.790   7.050
 7814POPC   C4B44566  14.918  29.822   7.350
 7815POPC   NC344567  15.190  10.554   5.550
 7815POPC   PO444568  15.139  10.563   5.850
 7815POPC   GL144569  15.205  10.527   6.150
 7815POPC   GL244570  15.122  10.422   6.150
 7815POPC   C1A44571  15.169  10.521   6.450
 7815POPC   D2A44572  15.208  10.537   6.750
 7815POPC   C3A44573  15.229  10.518   7.050
 7815POPC   C4A44574  15.185  10.569   7.350
 7815POPC   C1B44575  15.053  10.320   6.450
 7815POPC   C2B44576  15.122  10.335   6.750
 7815POPC   C3B44577  15.109  10.287   7.050
 7815POPC   C4B44578  15.034  10.246   7.350
 7816POPC   NC344579  32.233  19.040   5.550
 7816POPC   PO444580  32.288  19.035   5.850
 7816POPC   GL144581  32.278  19.043   6.150
 7816POPC   GL244582  32.229  19.147   6.150
 7816POPC   C1A44583  32.212  19.023   6.450
 7816POPC   D2A44584  32.242  19.014   6.750
 7816POPC   C3A44585  32.210  19.070   7.050
 7816POPC   C4A44586  32.198  19.080   7.350
 7816POPC   C1B44587  32.348  19.331   6.450
 7816POPC   C2B44588  32.320  19.288   6.750
 7816POPC   C3B44589  32.260  19.258   7.050
 7816POPC   C4B44590  32.298  19.277   7.350
 7817POPC   NC344591  13.633   8.189   5.550
 7817POPC   PO444592  13.648   8.204   5.850
 7817POPC   GL144593  13.612   8.180   6.150
 7817POPC   GL244594  13.587   8.120   6.150
 7817POPC   C1A44595  13.594   8.240   6.450
 7817POPC   D2A44596  13.592   8.225   6.750
 7817POPC   C3A44597  13.585   8.232   7.050
 7817POPC   C4A44598  13.602   8.159   7.350
 7817POPC   C1B44599  13.624   7.967   6.450
 7817POPC   C2B44600  13.586   7.940   6.750
 7817POPC   C3B44601  13.614   7.919   7.050
 7817POPC   C4B44602  13.632   7.911   7.350
 7818POPC   NC344603  23.730  36.122   5.550
 7818POPC   PO444604  23.726  36.173   5.850
 7818POPC   GL144605  23.696  36.168   6.150
 7818POPC   GL244606  23.862  36.047   6.150
 7818POPC   C1A44607  23.705  36.132   6.450
 7818POPC   D2A44608  23.685  36.099   6.750
 7818POPC   C3A44609  23.749  36.159   7.050
 7818POPC   C4A44610  23.742  36.114   7.350
 7818POPC   C1B44611  23.969  36.031   6.450
 7818POPC   C2B44612  23.883  35.992   6.750
 7818POPC   C3B44613  23.958  36.039   7.050
 7818POPC   C4B44614  23.970  35.963   7.350
 7819POPC   NC344615  15.135  33.048   5.550
 7819POPC   PO444616  15.159  33.038   5.850
 7819POPC   GL144617  15.152  33.043   6.150
 7819POPC   GL244618  15.140  33.115   6.150
 7819POPC   C1A44619  15.134  33.062   6.450
 7819POPC   D2A44620  15.150  33.066   6.750
 7819POPC   C3A44621  15.141  32.995   7.050
 7819POPC   C4A44622  15.162  33.072   7.350
 7819POPC   C1B44623  15.098  33.232   6.450
 7819POPC   C2B44624  15.056  33.245   6.750
 7819POPC   C3B44625  15.056  33.235   7.050
 7819POPC   C4B44626  15.072  33.243   7.350
 7820POPC   NC344627  19.863  40.002   5.550
 7820POPC   PO444628  19.813  39.976   5.850
 7820POPC   GL144629  19.844  40.053   6.150
 7820POPC   GL244630  19.885  40.133   6.150
 7820POPC   C1A44631  19.831  40.031   6.450
 7820POPC   D2A44632  19.839  40.048   6.750
 7820POPC   C3A44633  19.787  39.989   7.050
 7820POPC   C4A44634  19.838  40.013   7.350
 7820POPC   C1B44635  19.895  40.299   6.450
 7820POPC   C2B44636  19.883  40.234   6.750
 7820POPC   C3B44637  19.906  40.217   7.050
 7820POPC   C4B44638  19.853  40.242   7.350
 7821POPC   NC344639   4.306  14.355   5.550
 7821POPC   PO444640   4.344  14.408   5.850
 7821POPC   GL144641   4.364  14.448   6.150
 7821POPC   GL244642   4.482  14.436   6.150
 7821POPC   C1A44643   4.340  14.361   6.450
 7821POPC   D2A44644   4.299  14.387   6.750
 7821POPC   C3A44645   4.321  14.406   7.050
 7821POPC   C4A44646   4.310  14.379   7.350
 7821POPC   C1B44647   4.597  14.468   6.450
 7821POPC   C2B44648   4.523  14.444   6.750
 7821POPC   C3B44649   4.571  14.420   7.050
 7821POPC   C4B44650   4.542  14.445   7.350
 7822POPC   NC344651  23.724  21.409   5.550
 7822POPC   PO444652  23.674  21.369   5.850
 7822POPC   GL144653  23.763  21.383   6.150
 7822POPC   GL244654  23.612  21.531   6.150
 7822POPC   C1A44655  23.731  21.392   6.450
 7822POPC   D2A44656  23.675  21.429   6.750
 7822POPC   C3A44657  23.694  21.342   7.050
 7822POPC   C4A44658  23.707  21.434   7.350
 7822POPC   C1B44659  23.510  21.586   6.450
 7822POPC   C2B44660  23.577  21.608   6.750
 7822POPC   C3B44661  23.592  21.532   7.050
 7822POPC   C4B44662  23.591  21.564   7.350
 7823POPC   NC344663  37.670   6.627   5.550
 7823POPC   PO444664  37.729   6.611   5.850
 7823POPC   GL144665  37.671   6.639   6.150
 7823POPC   GL244666  37.774   6.583   6.150
 7823POPC   C1A44667  37.670   6.649   6.450
 7823POPC   D2A44668  37.655   6.631   6.750
 7823POPC   C3A44669  37.700   6.600   7.050
 7823POPC   C4A44670  37.636   6.633   7.350
 7823POPC   C1B44671  37.941   6.496   6.450
 7823POPC   C2B44672  37.922   6.563   6.750
 7823POPC   C3B44673  37.943   6.511   7.050
 7823POPC   C4B44674  37.930   6.572   7.350
 7824POPC   NC344675  31.489  22.908   5.550
 7824POPC   PO444676  31.465  22.929   5.850
 7824POPC   GL144677  31.430  22.969   6.150
 7824POPC   GL244678  31.368  22.959   6.150
 7824POPC   C1A44679  31.466  22.983   6.450
 7824POPC   D2A44680  31.507  22.933   6.750
 7824POPC   C3A44681  31.443  22.896   7.050
 7824POPC   C4A44682  31.426  22.901   7.350
 7824POPC   C1B44683  31.198  22.914   6.450
 7824POPC   C2B44684  31.191  22.913   6.750
 7824POPC   C3B44685  31.260  22.948   7.050
 7824POPC   C4B44686  31.214  22.882   7.350
 7825POPC   NC344687  33.008  34.581   5.550
 7825POPC   PO444688  33.003  34.573   5.850
 7825POPC   GL144689  33.001  34.572   6.150
 7825POPC   GL244690  33.133  34.584   6.150
 7825POPC   C1A44691  33.073  34.563   6.450
 7825POPC   D2A44692  33.020  34.572   6.750
 7825POPC   C3A44693  33.048  34.619   7.050
 7825POPC   C4A44694  33.040  34.579   7.350
 7825POPC   C1B44695  33.280  34.589   6.450
 7825POPC   C2B44696  33.292  34.609   6.750
 7825POPC   C3B44697  33.266  34.574   7.050
 7825POPC   C4B44698  33.245  34.614   7.350
 7826POPC   NC344699  22.978  26.813   5.550
 7826POPC   PO444700  22.984  26.783   5.850
 7826POPC   GL144701  22.982  26.840   6.150
 7826POPC   GL244702  22.983  26.930   6.150
 7826POPC   C1A44703  22.906  26.816   6.450
 7826POPC   D2A44704  22.961  26.817   6.750
 7826POPC   C3A44705  22.976  26.865   7.050
 7826POPC   C4A44706  22.889  26.809   7.350
 7826POPC   C1B44707  22.952  27.098   6.450
 7826POPC   C2B44708  22.898  27.056   6.750
 7826POPC   C3B44709  22.891  27.094   7.050
 7826POPC   C4B44710  22.950  27.091   7.350
 7827POPC   NC344711  24.507  14.429   5.550
 7827POPC   PO444712  24.516  14.437   5.850
 7827POPC   GL144713  24.454  14.404   6.150
 7827POPC   GL244714  24.486  14.500   6.150
 7827POPC   C1A44715  24.518  14.372   6.450
 7827POPC   D2A44716  24.528  14.394   6.750
 7827POPC   C3A44717  24.485  14.441   7.050
 7827POPC   C4A44718  24.526  14.440   7.350
 7827POPC   C1B44719  24.376  14.679   6.450
 7827POPC   C2B44720  24.414  14.625   6.750
 7827POPC   C3B44721  24.381  14.632   7.050
 7827POPC   C4B44722  24.424  14.662   7.350
 7828POPC   NC344723  22.148  10.533   5.550
 7828POPC   PO444724  22.122  10.495   5.850
 7828POPC   GL144725  22.172  10.482   6.150
 7828POPC   GL244726  22.253  10.424   6.150
 7828POPC   C1A44727  22.180  10.529   6.450
 7828POPC   D2A44728  22.112  10.489   6.750
 7828POPC   C3A44729  22.135  10.501   7.050
 7828POPC   C4A44730  22.211  10.511   7.350
 7828POPC   C1B44731  22.250  10.346   6.450
 7828POPC   C2B44732  22.249  10.250   6.750
 7828POPC   C3B44733  22.252  10.329   7.050
 7828POPC   C4B44734  22.265  10.263   7.350
 7829POPC   NC344735  30.727  20.660   5.550
 7829POPC   PO444736  30.729  20.591   5.850
 7829POPC   GL144737  30.726  20.578   6.150
 7829POPC   GL244738  30.613  20.599   6.150
 7829POPC   C1A44739  30.707  20.637   6.450
 7829POPC   D2A44740  30.702  20.576   6.750
 7829POPC   C3A44741  30.661  20.577   7.050
 7829POPC   C4A44742  30.734  20.583   7.350
 7829POPC   C1B44743  30.507  20.533   6.450
 7829POPC   C2B44744  30.473  20.507   6.750
 7829POPC   C3B44745  30.459  20.546   7.050
 7829POPC   C4B44746  30.464  20.575   7.350
 7830POPC   NC344747  27.601   1.219   5.550
 7830POPC   PO444748  27.567   1.253   5.850
 7830POPC   GL144749  27.641   1.258   6.150
 7830POPC   GL244750  27.551   1.115   6.150
 7830POPC   C1A44751  27.570   1.239   6.450
 7830POPC   D2A44752  27.620   1.251   6.750
 7830POPC   C3A44753  27.619   1.247   7.050
 7830POPC   C4A44754  27.614   1.245   7.350
 7830POPC   C1B44755  27.467   1.062   6.450
 7830POPC   C2B44756  27.428   1.079   6.750
 7830POPC   C3B44757  27.459   1.007   7.050
 7830POPC   C4B44758  27.389   1.024   7.350
 7831POPC   NC344759   3.534  25.248   5.550
 7831POPC   PO444760   3.541  25.217   5.850
 7831POPC   GL144761   3.528  25.241   6.150
 7831POPC   GL244762   3.627  25.278   6.150
 7831POPC   C1A44763   3.562  25.217   6.450
 7831POPC   D2A44764   3.514  25.310   6.750
 7831POPC   C3A44765   3.556  25.314   7.050
 7831POPC   C4A44766   3.522  25.302   7.350
 7831POPC   C1B44767   3.805  25.271   6.450
 7831POPC   C2B44768   3.817  25.224   6.750
 7831POPC   C3B44769   3.748  25.250   7.050
 7831POPC   C4B44770   3.766  25.233   7.350
 7832POPC   NC344771  30.668  13.595   5.550
 7832POPC   PO444772  30.676  13.656   5.850
 7832POPC   GL144773  30.746  13.677   6.150
 7832POPC   GL244774  30.613  13.557   6.150
 7832POPC   C1A44775  30.648  13.629   6.450
 7832POPC   D2A44776  30.687  13.677   6.750
 7832POPC   C3A44777  30.666  13.600   7.050
 7832POPC   C4A44778  30.738  13.619   7.350
 7832POPC   C1B44779  30.625  13.415   6.450
 7832POPC   C2B44780  30.586  13.345   6.750
 7832POPC   C3B44781  30.646  13.353   7.050
 7832POPC   C4B44782  30.608  13.372   7.350
 7833POPC   NC344783  23.701   8.245   5.550
 7833POPC   PO444784  23.739   8.188   5.850
 7833POPC   GL144785  23.720   8.225   6.150
 7833POPC   GL244786  23.834   8.148   6.150
 7833POPC   C1A44787  23.724   8.233   6.450
 7833POPC   D2A44788  23.740   8.174   6.750
 7833POPC   C3A44789  23.720   8.172   7.050
 7833POPC   C4A44790  23.733   8.232   7.350
 7833POPC   C1B44791  23.907   8.006   6.450
 7833POPC   C2B44792  23.859   8.044   6.750
 7833POPC   C3B44793  23.868   8.038   7.050
 7833POPC   C4B44794  23.920   8.004   7.350
 7834POPC   NC344795  20.626  16.700   5.550
 7834POPC   PO444796  20.564  16.781   5.850
 7834POPC   GL144797  20.635  16.734   6.150
 7834POPC   GL244798  20.597  16.865   6.150
 7834POPC   C1A44799  20.633  16.762   6.450
 7834POPC   D2A44800  20.616  16.684   6.750
 7834POPC   C3A44801  20.566  16.777   7.050
 7834POPC   C4A44802  20.595  16.727   7.350
 7834POPC   C1B44803  20.503  16.944   6.450
 7834POPC   C2B44804  20.519  16.916   6.750
 7834POPC   C3B44805  20.446  16.923   7.050
 7834POPC   C4B44806  20.450  16.920   7.350
 7835POPC   NC344807   0.438   9.735   5.550
 7835POPC   PO444808   0.422   9.776   5.850
 7835POPC   GL144809   0.445   9.712   6.150
 7835POPC   GL244810   0.289   9.704   6.150
 7835POPC   C1A44811   0.430   9.711   6.450
 7835POPC   D2A44812   0.481   9.699   6.750
 7835POPC   C3A44813   0.445   9.798   7.050
 7835POPC   C4A44814   0.475   9.775   7.350
 7835POPC   C1B44815   0.242   9.664   6.450
 7835POPC   C2B44816   0.241   9.685   6.750
 7835POPC   C3B44817   0.241   9.631   7.050
 7835POPC   C4B44818   0.207   9.603   7.350
 7836POPC   NC344819  33.761  14.444   5.550
 7836POPC   PO444820  33.833  14.405   5.850
 7836POPC   GL144821  33.781  14.432   6.150
 7836POPC   GL244822  33.639  14.399   6.150
 7836POPC   C1A44823  33.779  14.434   6.450
 7836POPC   D2A44824  33.818  14.409   6.750
 7836POPC   C3A44825  33.770  14.391   7.050
 7836POPC   C4A44826  33.789  14.414   7.350
 7836POPC   C1B44827  33.559  14.417   6.450
 7836POPC   C2B44828  33.563  14.441   6.750
 7836POPC   C3B44829  33.507  14.496   7.050
 7836POPC   C4B44830  33.512  14.432   7.350
 7837POPC   NC344831  36.894  26.082   5.550
 7837POPC   PO444832  36.866  26.048   5.850
 7837POPC   GL144833  36.875  26.020   6.150
 7837POPC   GL244834  36.819  26.087   6.150
 7837POPC   C1A44835  36.941  26.050   6.450
 7837POPC   D2A44836  36.909  26.010   6.750
 7837POPC   C3A44837  36.923  26.012   7.050
 7837POPC   C4A44838  36.921  26.040   7.350
 7837POPC   C1B44839  36.708  26.220   6.450
 7837POPC   C2B44840  36.709  26.214   6.750
 7837POPC   C3B44841  36.760  26.218   7.050
 7837POPC   C4B44842  36.696  26.198   7.350
 7838POPC   NC344843  34.616  34.543   5.550
 7838POPC   PO444844  34.531  34.567   5.850
 7838POPC   GL144845  34.541  34.617   6.150
 7838POPC   GL244846  34.495  34.475   6.150
 7838POPC   C1A44847  34.616  34.623   6.450
 7838POPC   D2A44848  34.542  34.555   6.750
 7838POPC   C3A44849  34.613  34.618   7.050
 7838POPC   C4A44850  34.591  34.567   7.350
 7838POPC   C1B44851  34.483  34.404   6.450
 7838POPC   C2B44852  34.450  34.335   6.750
 7838POPC   C3B44853  34.404  34.398   7.050
 7838POPC   C4B44854  34.480  34.382   7.350
 7839POPC   NC344855   0.393  13.612   5.550
 7839POPC   PO444856   0.481  13.580   5.850
 7839POPC   GL144857   0.392  13.587   6.150
 7839POPC   GL244858   0.554  13.605   6.150
 7839POPC   C1A44859   0.417  13.656   6.450
 7839POPC   D2A44860   0.482  13.614   6.750
 7839POPC   C3A44861   0.468  13.641   7.050
 7839POPC   C4A44862   0.482  13.588   7.350
 7839POPC   C1B44863   0.699  13.652   6.450
 7839POPC   C2B44864   0.704  13.583   6.750
 7839POPC   C3B44865   0.661  13.596   7.050
 7839POPC   C4B44866   0.723  13.600   7.350
 7840POPC   NC344867  15.184  38.452   5.550
 7840POPC   PO444868  15.212  38.416   5.850
 7840POPC   GL144869  15.183  38.454   6.150
 7840POPC   GL244870  15.098  38.393   6.150
 7840POPC   C1A44871  15.195  38.409   6.450
 7840POPC   D2A44872  15.204  38.410   6.750
 7840POPC   C3A44873  15.146  38.471   7.050
 7840POPC   C4A44874  15.196  38.489   7.350
 7840POPC   C1B44875  15.017  38.333   6.450
 7840POPC   C2B44876  14.952  38.355   6.750
 7840POPC   C3B44877  14.966  38.323   7.050
 7840POPC   C4B44878  14.930  38.275   7.350
 7841POPC   NC344879  24.458  13.651   5.550
 7841POPC   PO444880  24.479  13.586   5.850
 7841POPC   GL144881  24.511  13.594   6.150
 7841POPC   GL244882  24.373  13.556   6.150
 7841POPC   C1A44883  24.495  13.622   6.450
 7841POPC   D2A44884  24.498  13.597   6.750
 7841POPC   C3A44885  24.534  13.660   7.050
 7841POPC   C4A44886  24.470  13.589   7.350
 7841POPC   C1B44887  24.316  13.456   6.450
 7841POPC   C2B44888  24.317  13.538   6.750
 7841POPC   C3B44889  24.255  13.458   7.050
 7841POPC   C4B44890  24.266  13.506   7.350
 7842POPC   NC344891  13.651   7.452   5.550
 7842POPC   PO444892  13.578   7.469   5.850
 7842POPC   GL144893  13.665   7.435   6.150
 7842POPC   GL244894  13.657   7.521   6.150
 7842POPC   C1A44895  13.579   7.373   6.450
 7842POPC   D2A44896  13.662   7.405   6.750
 7842POPC   C3A44897  13.658   7.431   7.050
 7842POPC   C4A44898  13.627   7.389   7.350
 7842POPC   C1B44899  13.737   7.636   6.450
 7842POPC   C2B44900  13.678   7.665   6.750
 7842POPC   C3B44901  13.751   7.698   7.050
 7842POPC   C4B44902  13.747   7.663   7.350
 7843POPC   NC344903   1.186  15.162   5.550
 7843POPC   PO444904   1.258  15.202   5.850
 7843POPC   GL144905   1.226  15.149   6.150
 7843POPC   GL244906   1.286  15.294   6.150
 7843POPC   C1A44907   1.252  15.194   6.450
 7843POPC   D2A44908   1.179  15.184   6.750
 7843POPC   C3A44909   1.250  15.217   7.050
 7843POPC   C4A44910   1.196  15.210   7.350
 7843POPC   C1B44911   1.436  15.406   6.450
 7843POPC   C2B44912   1.400  15.362   6.750
 7843POPC   C3B44913   1.402  15.385   7.050
 7843POPC   C4B44914   1.386  15.308   7.350
 7844POPC   NC344915  40.809  43.851   5.550
 7844POPC   PO444916  40.781  43.936   5.850
 7844POPC   GL144917  40.787  43.883   6.150
 7844POPC   GL244918  40.795  43.792   6.150
 7844POPC   C1A44919  40.769  43.850   6.450
 7844POPC   D2A44920  40.761  43.862   6.750
 7844POPC   C3A44921  40.745  43.903   7.050
 7844POPC   C4A44922  40.757  43.899   7.350
 7844POPC   C1B44923  40.840  43.652   6.450
 7844POPC   C2B44924  40.899  43.653   6.750
 7844POPC   C3B44925  40.893  43.687   7.050
 7844POPC   C4B44926  40.845  43.699   7.350
 7845POPC   NC344927   9.020  36.864   5.550
 7845POPC   PO444928   8.985  36.922   5.850
 7845POPC   GL144929   8.947  36.935   6.150
 7845POPC   GL244930   9.111  36.812   6.150
 7845POPC   C1A44931   8.953  36.913   6.450
 7845POPC   D2A44932   8.966  36.922   6.750
 7845POPC   C3A44933   8.958  36.897   7.050
 7845POPC   C4A44934   9.001  36.916   7.350
 7845POPC   C1B44935   9.160  36.719   6.450
 7845POPC   C2B44936   9.181  36.763   6.750
 7845POPC   C3B44937   9.211  36.769   7.050
 7845POPC   C4B44938   9.118  36.754   7.350
 7846POPC   NC344939  35.324  17.527   5.550
 7846POPC   PO444940  35.390  17.463   5.850
 7846POPC   GL144941  35.312  17.523   6.150
 7846POPC   GL244942  35.205  17.587   6.150
 7846POPC   C1A44943  35.355  17.484   6.450
 7846POPC   D2A44944  35.307  17.480   6.750
 7846POPC   C3A44945  35.379  17.532   7.050
 7846POPC   C4A44946  35.310  17.502   7.350
 7846POPC   C1B44947  35.144  17.587   6.450
 7846POPC   C2B44948  35.157  17.572   6.750
 7846POPC   C3B44949  35.069  17.629   7.050
 7846POPC   C4B44950  35.105  17.543   7.350
 7847POPC   NC344951  23.742  31.501   5.550
 7847POPC   PO444952  23.694  31.495   5.850
 7847POPC   GL144953  23.695  31.506   6.150
 7847POPC   GL244954  23.598  31.499   6.150
 7847POPC   C1A44955  23.712  31.519   6.450
 7847POPC   D2A44956  23.686  31.473   6.750
 7847POPC   C3A44957  23.727  31.461   7.050
 7847POPC   C4A44958  23.732  31.505   7.350
 7847POPC   C1B44959  23.502  31.580   6.450
 7847POPC   C2B44960  23.495  31.518   6.750
 7847POPC   C3B44961  23.513  31.524   7.050
 7847POPC   C4B44962  23.434  31.554   7.350
 7848POPC   NC344963  38.494  19.014   5.550
 7848POPC   PO444964  38.472  19.030   5.850
 7848POPC   GL144965  38.499  19.104   6.150
 7848POPC   GL244966  38.427  18.902   6.150
 7848POPC   C1A44967  38.417  19.082   6.450
 7848POPC   D2A44968  38.422  19.098   6.750
 7848POPC   C3A44969  38.472  19.106   7.050
 7848POPC   C4A44970  38.482  19.090   7.350
 7848POPC   C1B44971  38.324  18.794   6.450
 7848POPC   C2B44972  38.297  18.833   6.750
 7848POPC   C3B44973  38.361  18.877   7.050
 7848POPC   C4B44974  38.366  18.789   7.350
 7849POPC   NC344975  40.759  29.171   5.550
 7849POPC   PO444976  40.756  29.159   5.850
 7849POPC   GL144977  40.808  29.162   6.150
 7849POPC   GL244978  40.664  28.995   6.150
 7849POPC   C1A44979  40.769  29.133   6.450
 7849POPC   D2A44980  40.819  29.141   6.750
 7849POPC   C3A44981  40.770  29.111   7.050
 7849POPC   C4A44982  40.821  29.095   7.350
 7849POPC   C1B44983  40.587  28.897   6.450
 7849POPC   C2B44984  40.649  28.896   6.750
 7849POPC   C3B44985  40.663  28.927   7.050
 7849POPC   C4B44986  40.649  28.948   7.350
 7850POPC   NC344987  43.915  20.592   5.550
 7850POPC   PO444988  43.860  20.588   5.850
 7850POPC   GL144989  43.881  20.655   6.150
 7850POPC   GL244990  43.919  20.473   6.150
 7850POPC   C1A44991  43.906  20.561   6.450
 7850POPC   D2A44992  43.914  20.562   6.750
 7850POPC   C3A44993  43.906  20.620   7.050
 7850POPC   C4A44994  43.859  20.656   7.350
 7850POPC   C1B44995  43.949  20.375   6.450
 7850POPC   C2B44996  43.932  20.419   6.750
 7850POPC   C3B44997  43.964  20.382   7.050
 7850POPC   C4B44998  44.001  20.399   7.350
 7851POPC   NC344999  14.450  25.274   5.550
 7851POPC   PO445000  14.408  25.304   5.850
 7851POPC   GL145001  14.359  25.243   6.150
 7851POPC   GL245002  14.358  25.381   6.150
 7851POPC   C1A45003  14.370  25.315   6.450
 7851POPC   D2A45004  14.395  25.310   6.750
 7851POPC   C3A45005  14.418  25.264   7.050
 7851POPC   C4A45006  14.407  25.220   7.350
 7851POPC   C1B45007  14.221  25.447   6.450
 7851POPC   C2B45008  14.279  25.422   6.750
 7851POPC   C3B45009  14.291  25.491   7.050
 7851POPC   C4B45010  14.230  25.433   7.350
 7852POPC   NC345011  43.936   5.856   5.550
 7852POPC   PO445012  43.929   5.911   5.850
 7852POPC   GL145013  43.856   5.897   6.150
 7852POPC   GL245014  43.811   5.770   6.150
 7852POPC   C1A45015  43.875   5.820   6.450
 7852POPC   D2A45016  43.848   5.821   6.750
 7852POPC   C3A45017  43.873   5.860   7.050
 7852POPC   C4A45018  43.914   5.867   7.350
 7852POPC   C1B45019  43.771   5.594   6.450
 7852POPC   C2B45020  43.796   5.676   6.750
 7852POPC   C3B45021  43.840   5.629   7.050
 7852POPC   C4B45022  43.786   5.625   7.350
 7853POPC   NC345023  11.330  16.690   5.550
 7853POPC   PO445024  11.309  16.745   5.850
 7853POPC   GL145025  11.333  16.760   6.150
 7853POPC   GL245026  11.394  16.641   6.150
 7853POPC   C1A45027  11.260  16.687   6.450
 7853POPC   D2A45028  11.334  16.685   6.750
 7853POPC   C3A45029  11.296  16.737   7.050
 7853POPC   C4A45030  11.293  16.700   7.350
 7853POPC   C1B45031  11.544  16.534   6.450
 7853POPC   C2B45032  11.504  16.612   6.750
 7853POPC   C3B45033  11.522  16.617   7.050
 7853POPC   C4B45034  11.455  16.608   7.350
 7854POPC   NC345035  24.487  38.447   5.550
 7854POPC   PO445036  24.516  38.497   5.850
 7854POPC   GL145037  24.490  38.454   6.150
 7854POPC   GL245038  24.546  38.401   6.150
 7854POPC   C1A45039  24.516  38.407   6.450
 7854POPC   D2A45040  24.460  38.452   6.750
 7854POPC   C3A45041  24.502  38.475   7.050
 7854POPC   C4A45042  24.451  38.494   7.350
 7854POPC   C1B45043  24.641  38.259   6.450
 7854POPC   C2B45044  24.658  38.245   6.750
 7854POPC   C3B45045  24.608  38.237   7.050
 7854POPC   C4B45046  24.697  38.292   7.350
 7855POPC   NC345047  15.927  28.353   5.550
 7855POPC   PO445048  15.933  28.396   5.850
 7855POPC   GL145049  15.949  28.387   6.150
 7855POPC   GL245050  15.991  28.259   6.150
 7855POPC   C1A45051  15.910  28.416   6.450
 7855POPC   D2A45052  15.940  28.417   6.750
 7855POPC   C3A45053  15.943  28.396   7.050
 7855POPC   C4A45054  15.935  28.354   7.350
 7855POPC   C1B45055  16.084  28.210   6.450
 7855POPC   C2B45056  16.143  28.205   6.750
 7855POPC   C3B45057  16.074  28.161   7.050
 7855POPC   C4B45058  16.136  28.218   7.350
 7856POPC   NC345059  26.011   7.387   5.550
 7856POPC   PO445060  26.089   7.411   5.850
 7856POPC   GL145061  26.072   7.450   6.150
 7856POPC   GL245062  25.919   7.501   6.150
 7856POPC   C1A45063  26.080   7.464   6.450
 7856POPC   D2A45064  26.086   7.393   6.750
 7856POPC   C3A45065  26.062   7.453   7.050
 7856POPC   C4A45066  26.048   7.464   7.350
 7856POPC   C1B45067  25.847   7.600   6.450
 7856POPC   C2B45068  25.939   7.577   6.750
 7856POPC   C3B45069  25.851   7.640   7.050
 7856POPC   C4B45070  25.887   7.671   7.350
 7857POPC   NC345071  33.812   0.472   5.550
 7857POPC   PO445072  33.784   0.453   5.850
 7857POPC   GL145073  33.821   0.481   6.150
 7857POPC   GL245074  33.840   0.308   6.150
 7857POPC   C1A45075  33.828   0.422   6.450
 7857POPC   D2A45076  33.796   0.466   6.750
 7857POPC   C3A45077  33.836   0.465   7.050
 7857POPC   C4A45078  33.803   0.404   7.350
 7857POPC   C1B45079  33.758   0.227   6.450
 7857POPC   C2B45080  33.796   0.179   6.750
 7857POPC   C3B45081  33.832   0.147   7.050
 7857POPC   C4B45082  33.830   0.165   7.350
 7858POPC   NC345083  14.380   7.388   5.550
 7858POPC   PO445084  14.391   7.426   5.850
 7858POPC   GL145085  14.386   7.445   6.150
 7858POPC   GL245086  14.476   7.511   6.150
 7858POPC   C1A45087  14.449   7.387   6.450
 7858POPC   D2A45088  14.406   7.380   6.750
 7858POPC   C3A45089  14.364   7.414   7.050
 7858POPC   C4A45090  14.437   7.465   7.350
 7858POPC   C1B45091  14.558   7.538   6.450
 7858POPC   C2B45092  14.628   7.596   6.750
 7858POPC   C3B45093  14.566   7.574   7.050
 7858POPC   C4B45094  14.587   7.632   7.350
 7859POPC   NC345095   4.356  29.939   5.550
 7859POPC   PO445096   4.271  29.945   5.850
 7859POPC   GL145097   4.270  29.928   6.150
 7859POPC   GL245098   4.341  30.002   6.150
 7859POPC   C1A45099   4.315  29.896   6.450
 7859POPC   D2A45100   4.290  29.900   6.750
 7859POPC   C3A45101   4.348  29.956   7.050
 7859POPC   C4A45102   4.279  29.891   7.350
 7859POPC   C1B45103   4.346  30.128   6.450
 7859POPC   C2B45104   4.321  30.123   6.750
 7859POPC   C3B45105   4.307  30.130   7.050
 7859POPC   C4B45106   4.325  30.218   7.350
 7860POPC   NC345107  19.035   0.399   5.550
 7860POPC   PO445108  19.019   0.474   5.850
 7860POPC   GL145109  19.062   0.427   6.150
 7860POPC   GL245110  19.128   0.338   6.150
 7860POPC   C1A45111  19.012   0.484   6.450
 7860POPC   D2A45112  19.043   0.487   6.750
 7860POPC   C3A45113  19.040   0.402   7.050
 7860POPC   C4A45114  19.101   0.393   7.350
 7860POPC   C1B45115  19.188   0.278   6.450
 7860POPC   C2B45116  19.180   0.243   6.750
 7860POPC   C3B45117  19.221   0.297   7.050
 7860POPC   C4B45118  19.219   0.289   7.350
 7861POPC   NC345119  33.840  33.026   5.550
 7861POPC   PO445120  33.776  33.009   5.850
 7861POPC   GL145121  33.774  33.032   6.150
 7861POPC   GL245122  33.873  32.954   6.150
 7861POPC   C1A45123  33.811  33.064   6.450
 7861POPC   D2A45124  33.762  33.037   6.750
 7861POPC   C3A45125  33.833  33.036   7.050
 7861POPC   C4A45126  33.829  32.978   7.350
 7861POPC   C1B45127  33.892  32.817   6.450
 7861POPC   C2B45128  33.873  32.808   6.750
 7861POPC   C3B45129  33.910  32.752   7.050
 7861POPC   C4B45130  33.848  32.832   7.350
 7862POPC   NC345131  12.065   2.787   5.550
 7862POPC   PO445132  12.080   2.724   5.850
 7862POPC   GL145133  12.055   2.725   6.150
 7862POPC   GL245134  12.013   2.893   6.150
 7862POPC   C1A45135  12.083   2.768   6.450
 7862POPC   D2A45136  12.068   2.806   6.750
 7862POPC   C3A45137  12.064   2.743   7.050
 7862POPC   C4A45138  12.028   2.769   7.350
 7862POPC   C1B45139  12.024   2.980   6.450
 7862POPC   C2B45140  11.943   2.953   6.750
 7862POPC   C3B45141  12.029   3.031   7.050
 7862POPC   C4B45142  11.939   2.957   7.350
 7863POPC   NC345143   1.224  26.774   5.550
 7863POPC   PO445144   1.256  26.774   5.850
 7863POPC   GL145145   1.226  26.801   6.150
 7863POPC   GL245146   1.306  26.890   6.150
 7863POPC   C1A45147   1.197  26.774   6.450
 7863POPC   D2A45148   1.216  26.782   6.750
 7863POPC   C3A45149   1.204  26.782   7.050
 7863POPC   C4A45150   1.210  26.780   7.350
 7863POPC   C1B45151   1.464  26.903   6.450
 7863POPC   C2B45152   1.459  26.901   6.750
 7863POPC   C3B45153   1.437  26.913   7.050
 7863POPC   C4B45154   1.483  26.953   7.350
 7864POPC   NC345155  33.801   5.881   5.550
 7864POPC   PO445156  33.815   5.905   5.850
 7864POPC   GL145157  33.806   5.827   6.150
 7864POPC   GL245158  33.935   5.907   6.150
 7864POPC   C1A45159  33.779   5.854   6.450
 7864POPC   D2A45160  33.808   5.879   6.750
 7864POPC   C3A45161  33.838   5.883   7.050
 7864POPC   C4A45162  33.812   5.907   7.350
 7864POPC   C1B45163  34.050   5.852   6.450
 7864POPC   C2B45164  34.081   5.857   6.750
 7864POPC   C3B45165  34.007   5.888   7.050
 7864POPC   C4B45166  34.038   5.854   7.350
 7865POPC   NC345167   7.428   0.463   5.550
 7865POPC   PO445168   7.410   0.403   5.850
 7865POPC   GL145169   7.435   0.395   6.150
 7865POPC   GL245170   7.273   0.465   6.150
 7865POPC   C1A45171   7.394   0.439   6.450
 7865POPC   D2A45172   7.411   0.418   6.750
 7865POPC   C3A45173   7.431   0.436   7.050
 7865POPC   C4A45174   7.434   0.405   7.350
 7865POPC   C1B45175   7.144   0.388   6.450
 7865POPC   C2B45176   7.204   0.349   6.750
 7865POPC   C3B45177   7.140   0.421   7.050
 7865POPC   C4B45178   7.189   0.405   7.350
 7866POPC   NC345179  33.765  13.622   5.550
 7866POPC   PO445180  33.806  13.630   5.850
 7866POPC   GL145181  33.761  13.649   6.150
 7866POPC   GL245182  33.697  13.658   6.150
 7866POPC   C1A45183  33.819  13.597   6.450
 7866POPC   D2A45184  33.763  13.662   6.750
 7866POPC   C3A45185  33.784  13.594   7.050
 7866POPC   C4A45186  33.786  13.674   7.350
 7866POPC   C1B45187  33.606  13.776   6.450
 7866POPC   C2B45188  33.622  13.792   6.750
 7866POPC   C3B45189  33.592  13.785   7.050
 7866POPC   C4B45190  33.547  13.722   7.350
 7867POPC   NC345191  40.759  40.770   5.550
 7867POPC   PO445192  40.816  40.818   5.850
 7867POPC   GL145193  40.830  40.802   6.150
 7867POPC   GL245194  40.652  40.853   6.150
 7867POPC   C1A45195  40.758  40.793   6.450
 7867POPC   D2A45196  40.790  40.753   6.750
 7867POPC   C3A45197  40.789  40.759   7.050
 7867POPC   C4A45198  40.788  40.824   7.350
 7867POPC   C1B45199  40.506  40.845   6.450
 7867POPC   C2B45200  40.553  40.839   6.750
 7867POPC   C3B45201  40.521  40.847   7.050
 7867POPC   C4B45202  40.520  40.808   7.350
 7868POPC   NC345203   3.503   1.217   5.550
 7868POPC   PO445204   3.497   1.231   5.850
 7868POPC   GL145205   3.526   1.205   6.150
 7868POPC   GL245206   3.486   1.140   6.150
 7868POPC   C1A45207   3.535   1.227   6.450
 7868POPC   D2A45208   3.522   1.257   6.750
 7868POPC   C3A45209   3.506   1.238   7.050
 7868POPC   C4A45210   3.591   1.175   7.350
 7868POPC   C1B45211   3.456   1.002   6.450
 7868POPC   C2B45212   3.414   0.968   6.750
 7868POPC   C3B45213   3.477   0.938   7.050
 7868POPC   C4B45214   3.490   0.985   7.350
 7869POPC   NC345215  39.227  20.610   5.550
 7869POPC   PO445216  39.256  20.561   5.850
 7869POPC   GL145217  39.246  20.598   6.150
 7869POPC   GL245218  39.162  20.684   6.150
 7869POPC   C1A45219  39.262  20.613   6.450
 7869POPC   D2A45220  39.211  20.630   6.750
 7869POPC   C3A45221  39.263  20.633   7.050
 7869POPC   C4A45222  39.191  20.590   7.350
 7869POPC   C1B45223  39.052  20.792   6.450
 7869POPC   C2B45224  39.047  20.854   6.750
 7869POPC   C3B45225  39.056  20.854   7.050
 7869POPC   C4B45226  39.058  20.790   7.350
 7870POPC   NC345227  12.821   2.718   5.550
 7870POPC   PO445228  12.837   2.786   5.850
 7870POPC   GL145229  12.811   2.766   6.150
 7870POPC   GL245230  12.775   2.881   6.150
 7870POPC   C1A45231  12.830   2.767   6.450
 7870POPC   D2A45232  12.802   2.746   6.750
 7870POPC   C3A45233  12.858   2.758   7.050
 7870POPC   C4A45234  12.858   2.744   7.350
 7870POPC   C1B45235  12.686   2.874   6.450
 7870POPC   C2B45236  12.694   2.909   6.750
 7870POPC   C3B45237  12.633   2.903   7.050
 7870POPC   C4B45238  12.692   2.956   7.350
 7871POPC   NC345239  22.973  24.534   5.550
 7871POPC   PO445240  22.924  24.471   5.850
 7871POPC   GL145241  22.899  24.443   6.150
 7871POPC   GL245242  22.847  24.579   6.150
 7871POPC   C1A45243  22.967  24.484   6.450
 7871POPC   D2A45244  22.901  24.524   6.750
 7871POPC   C3A45245  22.921  24.492   7.050
 7871POPC   C4A45246  22.980  24.526   7.350
 7871POPC   C1B45247  22.807  24.730   6.450
 7871POPC   C2B45248  22.835  24.746   6.750
 7871POPC   C3B45249  22.836  24.726   7.050
 7871POPC   C4B45250  22.825  24.726   7.350
 7872POPC   NC345251  14.452  19.022   5.550
 7872POPC   PO445252  14.424  19.095   5.850
 7872POPC   GL145253  14.429  19.101   6.150
 7872POPC   GL245254  14.563  19.030   6.150
 7872POPC   C1A45255  14.442  19.066   6.450
 7872POPC   D2A45256  14.411  19.108   6.750
 7872POPC   C3A45257  14.358  19.017   7.050
 7872POPC   C4A45258  14.424  19.017   7.350
 7872POPC   C1B45259  14.654  18.953   6.450
 7872POPC   C2B45260  14.609  18.982   6.750
 7872POPC   C3B45261  14.623  18.964   7.050
 7872POPC   C4B45262  14.614  18.962   7.350
 7873POPC   NC345263   9.751  12.815   5.550
 7873POPC   PO445264   9.703  12.835   5.850
 7873POPC   GL145265   9.702  12.804   6.150
 7873POPC   GL245266   9.805  12.770   6.150
 7873POPC   C1A45267   9.788  12.886   6.450
 7873POPC   D2A45268   9.710  12.869   6.750
 7873POPC   C3A45269   9.705  12.808   7.050
 7873POPC   C4A45270   9.720  12.864   7.350
 7873POPC   C1B45271   9.860  12.628   6.450
 7873POPC   C2B45272   9.823  12.570   6.750
 7873POPC   C3B45273   9.884  12.653   7.050
 7873POPC   C4B45274   9.884  12.611   7.350
 7874POPC   NC345275  29.894  22.170   5.550
 7874POPC   PO445276  29.886  22.124   5.850
 7874POPC   GL145277  29.953  22.164   6.150
 7874POPC   GL245278  29.767  22.190   6.150
 7874POPC   C1A45279  29.876  22.142   6.450
 7874POPC   D2A45280  29.877  22.138   6.750
 7874POPC   C3A45281  29.883  22.202   7.050
 7874POPC   C4A45282  29.880  22.212   7.350
 7874POPC   C1B45283  29.721  22.174   6.450
 7874POPC   C2B45284  29.692  22.190   6.750
 7874POPC   C3B45285  29.714  22.264   7.050
 7874POPC   C4B45286  29.658  22.234   7.350
 7875POPC   NC345287   2.808  20.564   5.550
 7875POPC   PO445288   2.782  20.650   5.850
 7875POPC   GL145289   2.754  20.628   6.150
 7875POPC   GL245290   2.918  20.600   6.150
 7875POPC   C1A45291   2.776  20.636   6.450
 7875POPC   D2A45292   2.815  20.621   6.750
 7875POPC   C3A45293   2.717  20.636   7.050
 7875POPC   C4A45294   2.785  20.572   7.350
 7875POPC   C1B45295   2.978  20.499   6.450
 7875POPC   C2B45296   3.017  20.488   6.750
 7875POPC   C3B45297   2.946  20.497   7.050
 7875POPC   C4B45298   2.973  20.530   7.350
 7876POPC   NC345299   5.120  13.622   5.550
 7876POPC   PO445300   5.044  13.623   5.850
 7876POPC   GL145301   5.106  13.656   6.150
 7876POPC   GL245302   4.952  13.731   6.150
 7876POPC   C1A45303   5.093  13.666   6.450
 7876POPC   D2A45304   5.130  13.636   6.750
 7876POPC   C3A45305   5.097  13.645   7.050
 7876POPC   C4A45306   5.102  13.626   7.350
 7876POPC   C1B45307   4.838  13.741   6.450
 7876POPC   C2B45308   4.899  13.708   6.750
 7876POPC   C3B45309   4.855  13.735   7.050
 7876POPC   C4B45310   4.915  13.745   7.350
 7877POPC   NC345311  38.437  16.702   5.550
 7877POPC   PO445312  38.449  16.735   5.850
 7877POPC   GL145313  38.444  16.703   6.150
 7877POPC   GL245314  38.373  16.841   6.150
 7877POPC   C1A45315  38.453  16.771   6.450
 7877POPC   D2A45316  38.463  16.738   6.750
 7877POPC   C3A45317  38.429  16.728   7.050
 7877POPC   C4A45318  38.497  16.772   7.350
 7877POPC   C1B45319  38.257  16.903   6.450
 7877POPC   C2B45320  38.258  16.929   6.750
 7877POPC   C3B45321  38.261  16.857   7.050
 7877POPC   C4B45322  38.261  16.864   7.350
 7878POPC   NC345323  15.926  24.481   5.550
 7878POPC   PO445324  15.949  24.513   5.850
 7878POPC   GL145325  15.908  24.516   6.150
 7878POPC   GL245326  15.860  24.539   6.150
 7878POPC   C1A45327  15.951  24.516   6.450
 7878POPC   D2A45328  15.961  24.536   6.750
 7878POPC   C3A45329  15.972  24.509   7.050
 7878POPC   C4A45330  15.972  24.511   7.350
 7878POPC   C1B45331  15.733  24.537   6.450
 7878POPC   C2B45332  15.679  24.505   6.750
 7878POPC   C3B45333  15.756  24.532   7.050
 7878POPC   C4B45334  15.710  24.483   7.350
 7879POPC   NC345335  12.877  39.230   5.550
 7879POPC   PO445336  12.871  39.246   5.850
 7879POPC   GL145337  12.820  39.196   6.150
 7879POPC   GL245338  13.000  39.205   6.150
 7879POPC   C1A45339  12.836  39.235   6.450
 7879POPC   D2A45340  12.835  39.270   6.750
 7879POPC   C3A45341  12.871  39.277   7.050
 7879POPC   C4A45342  12.857  39.233   7.350
 7879POPC   C1B45343  13.136  39.188   6.450
 7879POPC   C2B45344  13.107  39.117   6.750
 7879POPC   C3B45345  13.128  39.133   7.050
 7879POPC   C4B45346  13.122  39.113   7.350
 7880POPC   NC345347   6.685  32.239   5.550
 7880POPC   PO445348   6.673  32.204   5.850
 7880POPC   GL145349   6.652  32.232   6.150
 7880POPC   GL245350   6.546  32.338   6.150
 7880POPC   C1A45351   6.595  32.275   6.450
 7880POPC   D2A45352   6.635  32.234   6.750
 7880POPC   C3A45353   6.620  32.201   7.050
 7880POPC   C4A45354   6.620  32.218   7.350
 7880POPC   C1B45355   6.459  32.372   6.450
 7880POPC   C2B45356   6.412  32.382   6.750
 7880POPC   C3B45357   6.426  32.318   7.050
 7880POPC   C4B45358   6.459  32.339   7.350
 7881POPC   NC345359  13.582  15.191   5.550
 7881POPC   PO445360  13.660  15.213   5.850
 7881POPC   GL145361  13.587  15.227   6.150
 7881POPC   GL245362  13.712  15.330   6.150
 7881POPC   C1A45363  13.656  15.224   6.450
 7881POPC   D2A45364  13.651  15.183   6.750
 7881POPC   C3A45365  13.587  15.209   7.050
 7881POPC   C4A45366  13.615  15.182   7.350
 7881POPC   C1B45367  13.723  15.398   6.450
 7881POPC   C2B45368  13.719  15.380   6.750
 7881POPC   C3B45369  13.789  15.364   7.050
 7881POPC   C4B45370  13.775  15.379   7.350
 7882POPC   NC345371  35.385   8.199   5.550
 7882POPC   PO445372  35.370   8.205   5.850
 7882POPC   GL145373  35.385   8.192   6.150
 7882POPC   GL245374  35.249   8.153   6.150
 7882POPC   C1A45375  35.333   8.188   6.450
 7882POPC   D2A45376  35.331   8.226   6.750
 7882POPC   C3A45377  35.341   8.224   7.050
 7882POPC   C4A45378  35.335   8.233   7.350
 7882POPC   C1B45379  35.081   8.056   6.450
 7882POPC   C2B45380  35.074   8.113   6.750
 7882POPC   C3B45381  35.089   8.100   7.050
 7882POPC   C4B45382  35.146   8.054   7.350
 7883POPC   NC345383  28.385  39.211   5.550
 7883POPC   PO445384  28.348  39.234   5.850
 7883POPC   GL145385  28.406  39.193   6.150
 7883POPC   GL245386  28.389  39.099   6.150
 7883POPC   C1A45387  28.402  39.258   6.450
 7883POPC   D2A45388  28.377  39.280   6.750
 7883POPC   C3A45389  28.369  39.225   7.050
 7883POPC   C4A45390  28.362  39.215   7.350
 7883POPC   C1B45391  28.374  38.997   6.450
 7883POPC   C2B45392  28.415  38.962   6.750
 7883POPC   C3B45393  28.442  38.940   7.050
 7883POPC   C4B45394  28.398  38.990   7.350
 7884POPC   NC345395  30.709  23.754   5.550
 7884POPC   PO445396  30.668  23.689   5.850
 7884POPC   GL145397  30.741  23.734   6.150
 7884POPC   GL245398  30.754  23.818   6.150
 7884POPC   C1A45399  30.661  23.735   6.450
 7884POPC   D2A45400  30.660  23.685   6.750
 7884POPC   C3A45401  30.679  23.695   7.050
 7884POPC   C4A45402  30.720  23.676   7.350
 7884POPC   C1B45403  30.817  23.917   6.450
 7884POPC   C2B45404  30.856  23.928   6.750
 7884POPC   C3B45405  30.817  23.979   7.050
 7884POPC   C4B45406  30.841  23.900   7.350
 7885POPC   NC345407  37.702  44.673   5.550
 7885POPC   PO445408  37.638  44.676   5.850
 7885POPC   GL145409  37.645  44.632   6.150
 7885POPC   GL245410  37.827  44.630   6.150
 7885POPC   C1A45411  37.642  44.676   6.450
 7885POPC   D2A45412  37.654  44.616   6.750
 7885POPC   C3A45413  37.679  44.654   7.050
 7885POPC   C4A45414  37.631  44.697   7.350
 7885POPC   C1B45415  37.929  44.546   6.450
 7885POPC   C2B45416  37.915  44.498   6.750
 7885POPC   C3B45417  37.911  44.521   7.050
 7885POPC   C4B45418  37.932  44.536   7.350
 7886POPC   NC345419  28.385  10.538   5.550
 7886POPC   PO445420  28.383  10.514   5.850
 7886POPC   GL145421  28.371  10.567   6.150
 7886POPC   GL245422  28.195  10.528   6.150
 7886POPC   C1A45423  28.355  10.531   6.450
 7886POPC   D2A45424  28.333  10.529   6.750
 7886POPC   C3A45425  28.378  10.531   7.050
 7886POPC   C4A45426  28.371  10.547   7.350
 7886POPC   C1B45427  28.132  10.482   6.450
 7886POPC   C2B45428  28.087  10.483   6.750
 7886POPC   C3B45429  28.152  10.563   7.050
 7886POPC   C4B45430  28.133  10.546   7.350
 7887POPC   NC345431  14.376   5.084   5.550
 7887POPC   PO445432  14.382   5.131   5.850
 7887POPC   GL145433  14.441   5.046   6.150
 7887POPC   GL245434  14.423   5.248   6.150
 7887POPC   C1A45435  14.407   5.045   6.450
 7887POPC   D2A45436  14.421   5.110   6.750
 7887POPC   C3A45437  14.366   5.056   7.050
 7887POPC   C4A45438  14.451   5.051   7.350
 7887POPC   C1B45439  14.450   5.342   6.450
 7887POPC   C2B45440  14.479   5.386   6.750
 7887POPC   C3B45441  14.449   5.331   7.050
 7887POPC   C4B45442  14.473   5.301   7.350
 7888POPC   NC345443  19.796  39.253   5.550
 7888POPC   PO445444  19.869  39.271   5.850
 7888POPC   GL145445  19.835  39.194   6.150
 7888POPC   GL245446  19.811  39.086   6.150
 7888POPC   C1A45447  19.797  39.276   6.450
 7888POPC   D2A45448  19.830  39.248   6.750
 7888POPC   C3A45449  19.820  39.247   7.050
 7888POPC   C4A45450  19.870  39.281   7.350
 7888POPC   C1B45451  19.871  39.023   6.450
 7888POPC   C2B45452  19.865  38.951   6.750
 7888POPC   C3B45453  19.909  38.993   7.050
 7888POPC   C4B45454  19.834  38.977   7.350
 7889POPC   NC345455   9.718   5.078   5.550
 7889POPC   PO445456   9.744   5.092   5.850
 7889POPC   GL145457   9.732   5.124   6.150
 7889POPC   GL245458   9.857   5.042   6.150
 7889POPC   C1A45459   9.776   5.142   6.450
 7889POPC   D2A45460   9.716   5.131   6.750
 7889POPC   C3A45461   9.704   5.065   7.050
 7889POPC   C4A45462   9.761   5.061   7.350
 7889POPC   C1B45463  10.014   5.104   6.450
 7889POPC   C2B45464   9.973   5.029   6.750
 7889POPC   C3B45465   9.966   5.052   7.050
 7889POPC   C4B45466   9.986   5.051   7.350
 7890POPC   NC345467  42.345  41.515   5.550
 7890POPC   PO445468  42.313  41.514   5.850
 7890POPC   GL145469  42.293  41.608   6.150
 7890POPC   GL245470  42.249  41.714   6.150
 7890POPC   C1A45471  42.329  41.570   6.450
 7890POPC   D2A45472  42.306  41.566   6.750
 7890POPC   C3A45473  42.361  41.541   7.050
 7890POPC   C4A45474  42.345  41.570   7.350
 7890POPC   C1B45475  42.220  41.770   6.450
 7890POPC   C2B45476  42.244  41.811   6.750
 7890POPC   C3B45477  42.196  41.811   7.050
 7890POPC   C4B45478  42.236  41.797   7.350
 7891POPC   NC345479  24.452  15.981   5.550
 7891POPC   PO445480  24.504  15.961   5.850
 7891POPC   GL145481  24.487  15.957   6.150
 7891POPC   GL245482  24.432  16.031   6.150
 7891POPC   C1A45483  24.531  15.992   6.450
 7891POPC   D2A45484  24.532  15.961   6.750
 7891POPC   C3A45485  24.532  15.910   7.050
 7891POPC   C4A45486  24.522  15.969   7.350
 7891POPC   C1B45487  24.352  16.164   6.450
 7891POPC   C2B45488  24.324  16.096   6.750
 7891POPC   C3B45489  24.356  16.170   7.050
 7891POPC   C4B45490  24.282  16.181   7.350
 7892POPC   NC345491  35.338  24.478   5.550
 7892POPC   PO445492  35.396  24.497   5.850
 7892POPC   GL145493  35.358  24.508   6.150
 7892POPC   GL245494  35.489  24.513   6.150
 7892POPC   C1A45495  35.370  24.447   6.450
 7892POPC   D2A45496  35.357  24.451   6.750
 7892POPC   C3A45497  35.311  24.493   7.050
 7892POPC   C4A45498  35.374  24.474   7.350
 7892POPC   C1B45499  35.647  24.472   6.450
 7892POPC   C2B45500  35.579  24.484   6.750
 7892POPC   C3B45501  35.577  24.526   7.050
 7892POPC   C4B45502  35.597  24.555   7.350
 7893POPC   NC345503  41.514  21.425   5.550
 7893POPC   PO445504  41.511  21.370   5.850
 7893POPC   GL145505  41.603  21.433   6.150
 7893POPC   GL245506  41.463  21.448   6.150
 7893POPC   C1A45507  41.511  21.396   6.450
 7893POPC   D2A45508  41.570  21.386   6.750
 7893POPC   C3A45509  41.601  21.400   7.050
 7893POPC   C4A45510  41.527  21.370   7.350
 7893POPC   C1B45511  41.270  21.476   6.450
 7893POPC   C2B45512  41.363  21.451   6.750
 7893POPC   C3B45513  41.300  21.469   7.050
 7893POPC   C4B45514  41.327  21.399   7.350
 7894POPC   NC345515  27.630  12.060   5.550
 7894POPC   PO445516  27.570  12.054   5.850
 7894POPC   GL145517  27.618  12.030   6.150
 7894POPC   GL245518  27.453  12.125   6.150
 7894POPC   C1A45519  27.609  12.087   6.450
 7894POPC   D2A45520  27.602  12.072   6.750
 7894POPC   C3A45521  27.579  12.041   7.050
 7894POPC   C4A45522  27.608  12.027   7.350
 7894POPC   C1B45523  27.360  12.145   6.450
 7894POPC   C2B45524  27.382  12.179   6.750
 7894POPC   C3B45525  27.357  12.225   7.050
 7894POPC   C4B45526  27.347  12.180   7.350
 7895POPC   NC345527  41.531  16.706   5.550
 7895POPC   PO445528  41.578  16.682   5.850
 7895POPC   GL145529  41.531  16.692   6.150
 7895POPC   GL245530  41.436  16.706   6.150
 7895POPC   C1A45531  41.605  16.693   6.450
 7895POPC   D2A45532  41.511  16.755   6.750
 7895POPC   C3A45533  41.579  16.747   7.050
 7895POPC   C4A45534  41.545  16.738   7.350
 7895POPC   C1B45535  41.282  16.787   6.450
 7895POPC   C2B45536  41.272  16.775   6.750
 7895POPC   C3B45537  41.344  16.751   7.050
 7895POPC   C4B45538  41.348  16.788   7.350
 7896POPC   NC345539  40.762  30.661   5.550
 7896POPC   PO445540  40.734  30.711   5.850
 7896POPC   GL145541  40.755  30.742   6.150
 7896POPC   GL245542  40.729  30.569   6.150
 7896POPC   C1A45543  40.765  30.739   6.450
 7896POPC   D2A45544  40.799  30.739   6.750
 7896POPC   C3A45545  40.801  30.706   7.050
 7896POPC   C4A45546  40.758  30.705   7.350
 7896POPC   C1B45547  40.690  30.507   6.450
 7896POPC   C2B45548  40.649  30.460   6.750
 7896POPC   C3B45549  40.635  30.519   7.050
 7896POPC   C4B45550  40.681  30.489   7.350
 7897POPC   NC345551   2.721  17.538   5.550
 7897POPC   PO445552   2.811  17.535   5.850
 7897POPC   GL145553   2.759  17.466   6.150
 7897POPC   GL245554   2.869  17.619   6.150
 7897POPC   C1A45555   2.751  17.467   6.450
 7897POPC   D2A45556   2.745  17.477   6.750
 7897POPC   C3A45557   2.720  17.512   7.050
 7897POPC   C4A45558   2.804  17.545   7.350
 7897POPC   C1B45559   2.947  17.678   6.450
 7897POPC   C2B45560   2.955  17.594   6.750
 7897POPC   C3B45561   2.974  17.640   7.050
 7897POPC   C4B45562   2.965  17.630   7.350
 7898POPC   NC345563   7.401  26.065   5.550
 7898POPC   PO445564   7.465  26.021   5.850
 7898POPC   GL145565   7.409  26.034   6.150
 7898POPC   GL245566   7.459  26.107   6.150
 7898POPC   C1A45567   7.460  26.003   6.450
 7898POPC   D2A45568   7.390  26.081   6.750
 7898POPC   C3A45569   7.380  26.032   7.050
 7898POPC   C4A45570   7.380  26.083   7.350
 7898POPC   C1B45571   7.508  26.261   6.450
 7898POPC   C2B45572   7.583  26.268   6.750
 7898POPC   C3B45573   7.528  26.299   7.050
 7898POPC   C4B45574   7.572  26.291   7.350
 7899POPC   NC345575  35.335   6.682   5.550
 7899POPC   PO445576  35.379   6.646   5.850
 7899POPC   GL145577  35.338   6.613   6.150
 7899POPC   GL245578  35.255   6.655   6.150
 7899POPC   C1A45579  35.349   6.645   6.450
 7899POPC   D2A45580  35.318   6.615   6.750
 7899POPC   C3A45581  35.373   6.631   7.050
 7899POPC   C4A45582  35.362   6.617   7.350
 7899POPC   C1B45583  35.072   6.674   6.450
 7899POPC   C2B45584  35.127   6.662   6.750
 7899POPC   C3B45585  35.121   6.686   7.050
 7899POPC   C4B45586  35.122   6.696   7.350
 7900POPC   NC345587  42.346  12.079   5.550
 7900POPC   PO445588  42.342  12.058   5.850
 7900POPC   GL145589  42.319  12.085   6.150
 7900POPC   GL245590  42.306  12.195   6.150
 7900POPC   C1A45591  42.329  12.056   6.450
 7900POPC   D2A45592  42.368  12.076   6.750
 7900POPC   C3A45593  42.333  12.098   7.050
 7900POPC   C4A45594  42.325  12.061   7.350
 7900POPC   C1B45595  42.295  12.294   6.450
 7900POPC   C2B45596  42.318  12.355   6.750
 7900POPC   C3B45597  42.314  12.280   7.050
 7900POPC   C4B45598  42.341  12.331   7.350
 7901POPC   NC345599  26.005   8.930   5.550
 7901POPC   PO445600  26.058   8.977   5.850
 7901POPC   GL145601  26.010   9.014   6.150
 7901POPC   GL245602  26.135   8.895   6.150
 7901POPC   C1A45603  26.042   8.974   6.450
 7901POPC   D2A45604  26.035   8.925   6.750
 7901POPC   C3A45605  26.029   8.977   7.050
 7901POPC   C4A45606  26.081   8.953   7.350
 7901POPC   C1B45607  26.227   8.777   6.450
 7901POPC   C2B45608  26.198   8.806   6.750
 7901POPC   C3B45609  26.230   8.813   7.050
 7901POPC   C4B45610  26.214   8.783   7.350
 7902POPC   NC345611  39.994  11.337   5.550
 7902POPC   PO445612  40.003  11.328   5.850
 7902POPC   GL145613  39.972  11.326   6.150
 7902POPC   GL245614  40.119  11.202   6.150
 7902POPC   C1A45615  39.996  11.279   6.450
 7902POPC   D2A45616  39.966  11.313   6.750
 7902POPC   C3A45617  39.985  11.290   7.050
 7902POPC   C4A45618  40.038  11.313   7.350
 7902POPC   C1B45619  40.224  11.161   6.450
 7902POPC   C2B45620  40.247  11.127   6.750
 7902POPC   C3B45621  40.188  11.123   7.050
 7902POPC   C4B45622  40.213  11.126   7.350
 7903POPC   NC345623  42.346  42.305   5.550
 7903POPC   PO445624  42.341  42.328   5.850
 7903POPC   GL145625  42.319  42.359   6.150
 7903POPC   GL245626  42.205  42.357   6.150
 7903POPC   C1A45627  42.369  42.379   6.450
 7903POPC   D2A45628  42.339  42.321   6.750
 7903POPC   C3A45629  42.368  42.336   7.050
 7903POPC   C4A45630  42.358  42.328   7.350
 7903POPC   C1B45631  42.148  42.456   6.450
 7903POPC   C2B45632  42.093  42.390   6.750
 7903POPC   C3B45633  42.141  42.374   7.050
 7903POPC   C4B45634  42.113  42.462   7.350
 7904POPC   NC345635  14.409  16.720   5.550
 7904POPC   PO445636  14.402  16.695   5.850
 7904POPC   GL145637  14.419  16.725   6.150
 7904POPC   GL245638  14.401  16.623   6.150
 7904POPC   C1A45639  14.412  16.698   6.450
 7904POPC   D2A45640  14.403  16.780   6.750
 7904POPC   C3A45641  14.416  16.690   7.050
 7904POPC   C4A45642  14.399  16.745   7.350
 7904POPC   C1B45643  14.337  16.497   6.450
 7904POPC   C2B45644  14.288  16.484   6.750
 7904POPC   C3B45645  14.335  16.537   7.050
 7904POPC   C4B45646  14.327  16.486   7.350
 7905POPC   NC345647  17.460  37.650   5.550
 7905POPC   PO445648  17.537  37.694   5.850
 7905POPC   GL145649  17.522  37.704   6.150
 7905POPC   GL245650  17.437  37.691   6.150
 7905POPC   C1A45651  17.489  37.657   6.450
 7905POPC   D2A45652  17.460  37.709   6.750
 7905POPC   C3A45653  17.508  37.661   7.050
 7905POPC   C4A45654  17.529  37.646   7.350
 7905POPC   C1B45655  17.250  37.716   6.450
 7905POPC   C2B45656  17.269  37.722   6.750
 7905POPC   C3B45657  17.298  37.767   7.050
 7905POPC   C4B45658  17.278  37.714   7.350
 7906POPC   NC345659   9.794   9.709   5.550
 7906POPC   PO445660   9.754   9.758   5.850
 7906POPC   GL145661   9.702   9.795   6.150
 7906POPC   GL245662   9.866   9.753   6.150
 7906POPC   C1A45663   9.741   9.793   6.450
 7906POPC   D2A45664   9.733   9.758   6.750
 7906POPC   C3A45665   9.737   9.720   7.050
 7906POPC   C4A45666   9.767   9.774   7.350
 7906POPC   C1B45667   9.988   9.846   6.450
 7906POPC   C2B45668   9.982   9.842   6.750
 7906POPC   C3B45669   9.979   9.870   7.050
 7906POPC   C4B45670   9.951   9.810   7.350
 7907POPC   NC345671  10.518  13.659   5.550
 7907POPC   PO445672  10.564  13.627   5.850
 7907POPC   GL145673  10.497  13.631   6.150
 7907POPC   GL245674  10.523  13.761   6.150
 7907POPC   C1A45675  10.506  13.600   6.450
 7907POPC   D2A45676  10.553  13.601   6.750
 7907POPC   C3A45677  10.515  13.646   7.050
 7907POPC   C4A45678  10.498  13.616   7.350
 7907POPC   C1B45679  10.432  13.824   6.450
 7907POPC   C2B45680  10.454  13.822   6.750
 7907POPC   C3B45681  10.491  13.866   7.050
 7907POPC   C4B45682  10.438  13.893   7.350
 7908POPC   NC345683  24.510  35.398   5.550
 7908POPC   PO445684  24.508  35.383   5.850
 7908POPC   GL145685  24.532  35.350   6.150
 7908POPC   GL245686  24.396  35.298   6.150
 7908POPC   C1A45687  24.442  35.320   6.450
 7908POPC   D2A45688  24.451  35.368   6.750
 7908POPC   C3A45689  24.521  35.379   7.050
 7908POPC   C4A45690  24.495  35.379   7.350
 7908POPC   C1B45691  24.351  35.178   6.450
 7908POPC   C2B45692  24.378  35.120   6.750
 7908POPC   C3B45693  24.376  35.106   7.050
 7908POPC   C4B45694  24.312  35.199   7.350
 7909POPC   NC345695  19.823  26.075   5.550
 7909POPC   PO445696  19.804  26.085   5.850
 7909POPC   GL145697  19.841  26.040   6.150
 7909POPC   GL245698  19.912  25.946   6.150
 7909POPC   C1A45699  19.884  26.090   6.450
 7909POPC   D2A45700  19.850  26.076   6.750
 7909POPC   C3A45701  19.872  26.061   7.050
 7909POPC   C4A45702  19.851  26.001   7.350
 7909POPC   C1B45703  19.973  25.805   6.450
 7909POPC   C2B45704  19.967  25.814   6.750
 7909POPC   C3B45705  20.030  25.887   7.050
 7909POPC   C4B45706  19.959  25.812   7.350
 7910POPC   NC345707   1.944  32.248   5.550
 7910POPC   PO445708   1.966  32.294   5.850
 7910POPC   GL145709   1.944  32.237   6.150
 7910POPC   GL245710   1.972  32.343   6.150
 7910POPC   C1A45711   2.007  32.267   6.450
 7910POPC   D2A45712   2.032  32.209   6.750
 7910POPC   C3A45713   1.973  32.209   7.050
 7910POPC   C4A45714   2.005  32.229   7.350
 7910POPC   C1B45715   1.892  32.425   6.450
 7910POPC   C2B45716   1.887  32.455   6.750
 7910POPC   C3B45717   1.913  32.506   7.050
 7910POPC   C4B45718   1.895  32.443   7.350
 7911POPC   NC345719   8.984  39.255   5.550
 7911POPC   PO445720   9.013  39.255   5.850
 7911POPC   GL145721   8.975  39.254   6.150
 7911POPC   GL245722   8.920  39.114   6.150
 7911POPC   C1A45723   8.939  39.213   6.450
 7911POPC   D2A45724   8.955  39.220   6.750
 7911POPC   C3A45725   8.994  39.211   7.050
 7911POPC   C4A45726   8.941  39.259   7.350
 7911POPC   C1B45727   8.933  38.981   6.450
 7911POPC   C2B45728   8.916  39.013   6.750
 7911POPC   C3B45729   8.906  38.954   7.050
 7911POPC   C4B45730   8.866  38.976   7.350
 7912POPC   NC345731  30.725  17.494   5.550
 7912POPC   PO445732  30.733  17.509   5.850
 7912POPC   GL145733  30.705  17.495   6.150
 7912POPC   GL245734  30.524  17.503   6.150
 7912POPC   C1A45735  30.691  17.525   6.450
 7912POPC   D2A45736  30.665  17.507   6.750
 7912POPC   C3A45737  30.723  17.461   7.050
 7912POPC   C4A45738  30.744  17.533   7.350
 7912POPC   C1B45739  30.479  17.521   6.450
 7912POPC   C2B45740  30.438  17.507   6.750
 7912POPC   C3B45741  30.490  17.527   7.050
 7912POPC   C4B45742  30.402  17.557   7.350
 7913POPC   NC345743   5.828  29.911   5.550
 7913POPC   PO445744   5.898  29.922   5.850
 7913POPC   GL145745   5.832  29.946   6.150
 7913POPC   GL245746   5.744  29.907   6.150
 7913POPC   C1A45747   5.905  29.925   6.450
 7913POPC   D2A45748   5.852  29.901   6.750
 7913POPC   C3A45749   5.867  29.942   7.050
 7913POPC   C4A45750   5.893  29.934   7.350
 7913POPC   C1B45751   5.594  29.837   6.450
 7913POPC   C2B45752   5.667  29.816   6.750
 7913POPC   C3B45753   5.611  29.866   7.050
 7913POPC   C4B45754   5.675  29.840   7.350
 7914POPC   NC345755   5.077   1.949   5.550
 7914POPC   PO445756   5.143   2.028   5.850
 7914POPC   GL145757   5.143   2.002   6.150
 7914POPC   GL245758   4.989   1.932   6.150
 7914POPC   C1A45759   5.137   2.014   6.450
 7914POPC   D2A45760   5.095   2.026   6.750
 7914POPC   C3A45761   5.106   1.967   7.050
 7914POPC   C4A45762   5.053   1.993   7.350
 7914POPC   C1B45763   4.881   2.001   6.450
 7914POPC   C2B45764   4.824   1.981   6.750
 7914POPC   C3B45765   4.869   1.995   7.050
 7914POPC   C4B45766   4.881   1.940   7.350
 7915POPC   NC345767  41.590   2.716   5.550
 7915POPC   PO445768  41.551   2.761   5.850
 7915POPC   GL145769  41.520   2.738   6.150
 7915POPC   GL245770  41.677   2.904   6.150
 7915POPC   C1A45771  41.539   2.743   6.450
 7915POPC   D2A45772  41.524   2.735   6.750
 7915POPC   C3A45773  41.540   2.807   7.050
 7915POPC   C4A45774  41.511   2.796   7.350
 7915POPC   C1B45775  41.747   2.960   6.450
 7915POPC   C2B45776  41.695   2.978   6.750
 7915POPC   C3B45777  41.689   2.954   7.050
 7915POPC   C4B45778  41.739   3.010   7.350
 7916POPC   NC345779   5.046  35.306   5.550
 7916POPC   PO445780   5.084  35.305   5.850
 7916POPC   GL145781   5.097  35.398   6.150
 7916POPC   GL245782   5.181  35.415   6.150
 7916POPC   C1A45783   5.118  35.393   6.450
 7916POPC   D2A45784   5.048  35.369   6.750
 7916POPC   C3A45785   5.124  35.357   7.050
 7916POPC   C4A45786   5.137  35.315   7.350
 7916POPC   C1B45787   5.313  35.416   6.450
 7916POPC   C2B45788   5.321  35.471   6.750
 7916POPC   C3B45789   5.314  35.443   7.050
 7916POPC   C4B45790   5.373  35.473   7.350
 7917POPC   NC345791   2.768  12.890   5.550
 7917POPC   PO445792   2.777  12.847   5.850
 7917POPC   GL145793   2.743  12.875   6.150
 7917POPC   GL245794   2.742  12.923   6.150
 7917POPC   C1A45795   2.730  12.853   6.450
 7917POPC   D2A45796   2.805  12.851   6.750
 7917POPC   C3A45797   2.762  12.847   7.050
 7917POPC   C4A45798   2.787  12.840   7.350
 7917POPC   C1B45799   2.679  13.030   6.450
 7917POPC   C2B45800   2.621  13.063   6.750
 7917POPC   C3B45801   2.689  13.028   7.050
 7917POPC   C4B45802   2.616  13.068   7.350
 7918POPC   NC345803  42.359   0.388   5.550
 7918POPC   PO445804  42.373   0.459   5.850
 7918POPC   GL145805  42.382   0.422   6.150
 7918POPC   GL245806  42.448   0.395   6.150
 7918POPC   C1A45807  42.358   0.441   6.450
 7918POPC   D2A45808  42.366   0.421   6.750
 7918POPC   C3A45809  42.297   0.460   7.050
 7918POPC   C4A45810  42.323   0.485   7.350
 7918POPC   C1B45811  42.564   0.378   6.450
 7918POPC   C2B45812  42.540   0.347   6.750
 7918POPC   C3B45813  42.589   0.300   7.050
 7918POPC   C4B45814  42.599   0.320   7.350
 7919POPC   NC345815  32.290  10.483   5.550
 7919POPC   PO445816  32.225  10.563   5.850
 7919POPC   GL145817  32.287  10.507   6.150
 7919POPC   GL245818  32.110  10.496   6.150
 7919POPC   C1A45819  32.287  10.482   6.450
 7919POPC   D2A45820  32.278  10.517   6.750
 7919POPC   C3A45821  32.217  10.485   7.050
 7919POPC   C4A45822  32.285  10.508   7.350
 7919POPC   C1B45823  31.964  10.526   6.450
 7919POPC   C2B45824  32.004  10.527   6.750
 7919POPC   C3B45825  31.989  10.549   7.050
 7919POPC   C4B45826  32.016  10.592   7.350
 7920POPC   NC345827  28.396  31.428   5.550
 7920POPC   PO445828  28.346  31.456   5.850
 7920POPC   GL145829  28.366  31.478   6.150
 7920POPC   GL245830  28.307  31.516   6.150
 7920POPC   C1A45831  28.406  31.484   6.450
 7920POPC   D2A45832  28.385  31.436   6.750
 7920POPC   C3A45833  28.386  31.447   7.050
 7920POPC   C4A45834  28.337  31.439   7.350
 7920POPC   C1B45835  28.177  31.542   6.450
 7920POPC   C2B45836  28.100  31.560   6.750
 7920POPC   C3B45837  28.182  31.591   7.050
 7920POPC   C4B45838  28.175  31.594   7.350
 7921POPC   NC345839  19.851  30.688   5.550
 7921POPC   PO445840  19.881  30.737   5.850
 7921POPC   GL145841  19.838  30.659   6.150
 7921POPC   GL245842  19.939  30.675   6.150
 7921POPC   C1A45843  19.789  30.710   6.450
 7921POPC   D2A45844  19.820  30.718   6.750
 7921POPC   C3A45845  19.796  30.744   7.050
 7921POPC   C4A45846  19.786  30.678   7.350
 7921POPC   C1B45847  20.090  30.661   6.450
 7921POPC   C2B45848  20.064  30.735   6.750
 7921POPC   C3B45849  20.112  30.681   7.050
 7921POPC   C4B45850  20.040  30.696   7.350
 7922POPC   NC345851  12.077  11.302   5.550
 7922POPC   PO445852  12.101  11.317   5.850
 7922POPC   GL145853  12.121  11.333   6.150
 7922POPC   GL245854  12.152  11.157   6.150
 7922POPC   C1A45855  12.094  11.256   6.450
 7922POPC   D2A45856  12.050  11.259   6.750
 7922POPC   C3A45857  12.040  11.286   7.050
 7922POPC   C4A45858  12.049  11.300   7.350
 7922POPC   C1B45859  12.187  11.039   6.450
 7922POPC   C2B45860  12.208  11.110   6.750
 7922POPC   C3B45861  12.202  11.054   7.050
 7922POPC   C4B45862  12.174  11.114   7.350
 7923POPC   NC345863  36.101  20.571   5.550
 7923POPC   PO445864  36.086  20.645   5.850
 7923POPC   GL145865  36.164  20.574   6.150
 7923POPC   GL245866  36.223  20.531   6.150
 7923POPC   C1A45867  36.100  20.647   6.450
 7923POPC   D2A45868  36.126  20.645   6.750
 7923POPC   C3A45869  36.177  20.598   7.050
 7923POPC   C4A45870  36.174  20.568   7.350
 7923POPC   C1B45871  36.211  20.419   6.450
 7923POPC   C2B45872  36.261  20.347   6.750
 7923POPC   C3B45873  36.230  20.347   7.050
 7923POPC   C4B45874  36.255  20.412   7.350
 7924POPC   NC345875  15.934  26.863   5.550
 7924POPC   PO445876  15.937  26.829   5.850
 7924POPC   GL145877  15.917  26.804   6.150
 7924POPC   GL245878  15.879  26.909   6.150
 7924POPC   C1A45879  15.993  26.843   6.450
 7924POPC   D2A45880  15.962  26.824   6.750
 7924POPC   C3A45881  15.987  26.847   7.050
 7924POPC   C4A45882  16.003  26.863   7.350
 7924POPC   C1B45883  15.747  26.942   6.450
 7924POPC   C2B45884  15.733  26.981   6.750
 7924POPC   C3B45885  15.802  26.980   7.050
 7924POPC   C4B45886  15.814  27.024   7.350
 7925POPC   NC345887  26.797   2.022   5.550
 7925POPC   PO445888  26.797   1.996   5.850
 7925POPC   GL145889  26.792   2.002   6.150
 7925POPC   GL245890  26.790   1.859   6.150
 7925POPC   C1A45891  26.799   2.025   6.450
 7925POPC   D2A45892  26.784   1.950   6.750
 7925POPC   C3A45893  26.848   2.020   7.050
 7925POPC   C4A45894  26.838   1.943   7.350
 7925POPC   C1B45895  26.763   1.706   6.450
 7925POPC   C2B45896  26.823   1.722   6.750
 7925POPC   C3B45897  26.774   1.784   7.050
 7925POPC   C4B45898  26.762   1.720   7.350
 7926POPC   NC345899  34.545  36.096   5.550
 7926POPC   PO445900  34.527  36.167   5.850
 7926POPC   GL145901  34.533  36.103   6.150
 7926POPC   GL245902  34.693  36.181   6.150
 7926POPC   C1A45903  34.543  36.110   6.450
 7926POPC   D2A45904  34.534  36.154   6.750
 7926POPC   C3A45905  34.592  36.146   7.050
 7926POPC   C4A45906  34.577  36.159   7.350
 7926POPC   C1B45907  34.794  36.212   6.450
 7926POPC   C2B45908  34.772  36.167   6.750
 7926POPC   C3B45909  34.812  36.186   7.050
 7926POPC   C4B45910  34.849  36.142   7.350
 7927POPC   NC345911  42.296  43.921   5.550
 7927POPC   PO445912  42.288  43.932   5.850
 7927POPC   GL145913  42.353  43.892   6.150
 7927POPC   GL245914  42.421  43.897   6.150
 7927POPC   C1A45915  42.309  43.854   6.450
 7927POPC   D2A45916  42.287  43.922   6.750
 7927POPC   C3A45917  42.311  43.904   7.050
 7927POPC   C4A45918  42.383  43.917   7.350
 7927POPC   C1B45919  42.551  43.875   6.450
 7927POPC   C2B45920  42.613  43.779   6.750
 7927POPC   C3B45921  42.565  43.820   7.050
 7927POPC   C4B45922  42.601  43.828   7.350
 7928POPC   NC345923  20.638  22.892   5.550
 7928POPC   PO445924  20.600  22.953   5.850
 7928POPC   GL145925  20.597  22.933   6.150
 7928POPC   GL245926  20.464  22.989   6.150
 7928POPC   C1A45927  20.616  22.949   6.450
 7928POPC   D2A45928  20.629  22.967   6.750
 7928POPC   C3A45929  20.636  22.942   7.050
 7928POPC   C4A45930  20.641  22.987   7.350
 7928POPC   C1B45931  20.342  22.947   6.450
 7928POPC   C2B45932  20.352  23.010   6.750
 7928POPC   C3B45933  20.391  22.928   7.050
 7928POPC   C4B45934  20.371  23.000   7.350
 7929POPC   NC345935   4.349  27.563   5.550
 7929POPC   PO445936   4.328  27.549   5.850
 7929POPC   GL145937   4.274  27.564   6.150
 7929POPC   GL245938   4.348  27.441   6.150
 7929POPC   C1A45939   4.273  27.596   6.450
 7929POPC   D2A45940   4.310  27.550   6.750
 7929POPC   C3A45941   4.304  27.602   7.050
 7929POPC   C4A45942   4.287  27.639   7.350
 7929POPC   C1B45943   4.311  27.308   6.450
 7929POPC   C2B45944   4.344  27.369   6.750
 7929POPC   C3B45945   4.288  27.373   7.050
 7929POPC   C4B45946   4.371  27.299   7.350
 7930POPC   NC345947  42.303  30.712   5.550
 7930POPC   PO445948  42.356  30.720   5.850
 7930POPC   GL145949  42.325  30.701   6.150
 7930POPC   GL245950  42.465  30.568   6.150
 7930POPC   C1A45951  42.331  30.708   6.450
 7930POPC   D2A45952  42.315  30.741   6.750
 7930POPC   C3A45953  42.362  30.649   7.050
 7930POPC   C4A45954  42.364  30.677   7.350
 7930POPC   C1B45955  42.479  30.508   6.450
 7930POPC   C2B45956  42.466  30.498   6.750
 7930POPC   C3B45957  42.483  30.531   7.050
 7930POPC   C4B45958  42.455  30.532   7.350
 7931POPC   NC345959   8.203  39.184   5.550
 7931POPC   PO445960   8.202  39.210   5.850
 7931POPC   GL145961   8.206  39.265   6.150
 7931POPC   GL245962   8.280  39.094   6.150
 7931POPC   C1A45963   8.237  39.200   6.450
 7931POPC   D2A45964   8.195  39.227   6.750
 7931POPC   C3A45965   8.217  39.191   7.050
 7931POPC   C4A45966   8.150  39.267   7.350
 7931POPC   C1B45967   8.344  39.096   6.450
 7931POPC   C2B45968   8.382  39.055   6.750
 7931POPC   C3B45969   8.395  39.070   7.050
 7931POPC   C4B45970   8.407  39.020   7.350
 7932POPC   NC345971  43.933  13.638   5.550
 7932POPC   PO445972  43.916  13.627   5.850
 7932POPC   GL145973  43.931  13.646   6.150
 7932POPC   GL245974  43.767  13.554   6.150
 7932POPC   C1A45975  43.861  13.631   6.450
 7932POPC   D2A45976  43.864  13.615   6.750
 7932POPC   C3A45977  43.906  13.594   7.050
 7932POPC   C4A45978  43.921  13.578   7.350
 7932POPC   C1B45979  43.650  13.582   6.450
 7932POPC   C2B45980  43.648  13.574   6.750
 7932POPC   C3B45981  43.680  13.587   7.050
 7932POPC   C4B45982  43.609  13.543   7.350
 7933POPC   NC345983   2.014  25.233   5.550
 7933POPC   PO445984   1.976  25.284   5.850
 7933POPC   GL145985   1.949  25.242   6.150
 7933POPC   GL245986   2.022  25.174   6.150
 7933POPC   C1A45987   2.036  25.309   6.450
 7933POPC   D2A45988   2.026  25.265   6.750
 7933POPC   C3A45989   2.006  25.279   7.050
 7933POPC   C4A45990   2.011  25.283   7.350
 7933POPC   C1B45991   2.069  25.049   6.450
 7933POPC   C2B45992   2.126  25.029   6.750
 7933POPC   C3B45993   2.104  25.013   7.050
 7933POPC   C4B45994   2.160  25.080   7.350
 7934POPC   NC345995  12.820  30.656   5.550
 7934POPC   PO445996  12.860  30.668   5.850
 7934POPC   GL145997  12.815  30.710   6.150
 7934POPC   GL245998  12.754  30.666   6.150
 7934POPC   C1A45999  12.898  30.709   6.450
 7934POPC   D2A46000  12.856  30.737   6.750
 7934POPC   C3A46001  12.813  30.704   7.050
 7934POPC   C4A46002  12.812  30.671   7.350
 7934POPC   C1B46003  12.605  30.687   6.450
 7934POPC   C2B46004  12.621  30.699   6.750
 7934POPC   C3B46005  12.608  30.711   7.050
 7934POPC   C4B46006  12.589  30.756   7.350
 7935POPC   NC346007  43.879  22.161   5.550
 7935POPC   PO446008  43.837  22.207   5.850
 7935POPC   GL146009  43.926  22.197   6.150
 7935POPC   GL246010  43.764  22.125   6.150
 7935POPC   C1A46011  43.856  22.133   6.450
 7935POPC   D2A46012  43.895  22.155   6.750
 7935POPC   C3A46013  43.927  22.177   7.050
 7935POPC   C4A46014  43.852  22.127   7.350
 7935POPC   C1B46015  43.713  21.972   6.450
 7935POPC   C2B46016  43.715  22.002   6.750
 7935POPC   C3B46017  43.645  22.062   7.050
 7935POPC   C4B46018  43.724  22.014   7.350
 7936POPC   NC346019  40.827  26.864   5.550
 7936POPC   PO446020  40.825  26.843   5.850
 7936POPC   GL146021  40.736  26.841   6.150
 7936POPC   GL246022  40.709  26.931   6.150
 7936POPC   C1A46023  40.741  26.796   6.450
 7936POPC   D2A46024  40.793  26.835   6.750
 7936POPC   C3A46025  40.824  26.838   7.050
 7936POPC   C4A46026  40.805  26.838   7.350
 7936POPC   C1B46027  40.682  27.043   6.450
 7936POPC   C2B46028  40.675  27.029   6.750
 7936POPC   C3B46029  40.693  27.010   7.050
 7936POPC   C4B46030  40.701  27.101   7.350
 7937POPC   NC346031   5.876   0.480   5.550
 7937POPC   PO446032   5.897   0.452   5.850
 7937POPC   GL146033   5.880   0.484   6.150
 7937POPC   GL246034   5.944   0.286   6.150
 7937POPC   C1A46035   5.881   0.448   6.450
 7937POPC   D2A46036   5.907   0.401   6.750
 7937POPC   C3A46037   5.871   0.448   7.050
 7937POPC   C4A46038   5.898   0.425   7.350
 7937POPC   C1B46039   6.023   0.207   6.450
 7937POPC   C2B46040   5.942   0.225   6.750
 7937POPC   C3B46041   5.945   0.217   7.050
 7937POPC   C4B46042   5.969   0.206   7.350
 7938POPC   NC346043  19.096  28.373   5.550
 7938POPC   PO446044  19.075  28.321   5.850
 7938POPC   GL146045  19.033  28.382   6.150
 7938POPC   GL246046  19.136  28.421   6.150
 7938POPC   C1A46047  19.052  28.332   6.450
 7938POPC   D2A46048  19.044  28.378   6.750
 7938POPC   C3A46049  19.093  28.343   7.050
 7938POPC   C4A46050  19.020  28.403   7.350
 7938POPC   C1B46051  19.283  28.493   6.450
 7938POPC   C2B46052  19.213  28.522   6.750
 7938POPC   C3B46053  19.254  28.588   7.050
 7938POPC   C4B46054  19.238  28.508   7.350
 7939POPC   NC346055  22.889   6.669   5.550
 7939POPC   PO446056  22.888   6.652   5.850
 7939POPC   GL146057  22.895   6.689   6.150
 7939POPC   GL246058  22.850   6.540   6.150
 7939POPC   C1A46059  22.984   6.649   6.450
 7939POPC   D2A46060  22.946   6.652   6.750
 7939POPC   C3A46061  22.928   6.613   7.050
 7939POPC   C4A46062  22.979   6.676   7.350
 7939POPC   C1B46063  22.724   6.530   6.450
 7939POPC   C2B46064  22.715   6.498   6.750
 7939POPC   C3B46065  22.744   6.490   7.050
 7939POPC   C4B46066  22.704   6.537   7.350
 7940POPC   NC346067  39.278  38.468   5.550
 7940POPC   PO446068  39.268  38.493   5.850
 7940POPC   GL146069  39.234  38.433   6.150
 7940POPC   GL246070  39.089  38.446   6.150
 7940POPC   C1A46071  39.218  38.414   6.450
 7940POPC   D2A46072  39.208  38.435   6.750
 7940POPC   C3A46073  39.257  38.495   7.050
 7940POPC   C4A46074  39.245  38.411   7.350
 7940POPC   C1B46075  39.047  38.309   6.450
 7940POPC   C2B46076  39.012  38.330   6.750
 7940POPC   C3B46077  38.982  38.338   7.050
 7940POPC   C4B46078  38.977  38.378   7.350
 7941POPC   NC346079  24.477   1.218   5.550
 7941POPC   PO446080  24.532   1.178   5.850
 7941POPC   GL146081  24.440   1.249   6.150
 7941POPC   GL246082  24.615   1.190   6.150
 7941POPC   C1A46083  24.456   1.237   6.450
 7941POPC   D2A46084  24.524   1.206   6.750
 7941POPC   C3A46085  24.539   1.177   7.050
 7941POPC   C4A46086  24.471   1.204   7.350
 7941POPC   C1B46087  24.768   1.162   6.450
 7941POPC   C2B46088  24.704   1.168   6.750
 7941POPC   C3B46089  24.689   1.189   7.050
 7941POPC   C4B46090  24.714   1.116   7.350
 7942POPC   NC346091  24.451  41.573   5.550
 7942POPC   PO446092  24.540  41.523   5.850
 7942POPC   GL146093  24.467  41.562   6.150
 7942POPC   GL246094  24.381  41.525   6.150
 7942POPC   C1A46095  24.503  41.585   6.450
 7942POPC   D2A46096  24.464  41.569   6.750
 7942POPC   C3A46097  24.458  41.525   7.050
 7942POPC   C4A46098  24.458  41.591   7.350
 7942POPC   C1B46099  24.266  41.406   6.450
 7942POPC   C2B46100  24.304  41.441   6.750
 7942POPC   C3B46101  24.324  41.389   7.050
 7942POPC   C4B46102  24.239  41.434   7.350
 7943POPC   NC346103  19.861  37.725   5.550
 7943POPC   PO446104  19.870  37.647   5.850
 7943POPC   GL146105  19.842  37.631   6.150
 7943POPC   GL246106  19.900  37.755   6.150
 7943POPC   C1A46107  19.813  37.630   6.450
 7943POPC   D2A46108  19.833  37.637   6.750
 7943POPC   C3A46109  19.849  37.634   7.050
 7943POPC   C4A46110  19.815  37.676   7.350
 7943POPC   C1B46111  20.043  37.811   6.450
 7943POPC   C2B46112  20.011  37.790   6.750
 7943POPC   C3B46113  20.025  37.808   7.050
 7943POPC   C4B46114  20.075  37.834   7.350
 7944POPC   NC346115  36.108   8.989   5.550
 7944POPC   PO446116  36.092   8.965   5.850
 7944POPC   GL146117  36.114   8.925   6.150
 7944POPC   GL246118  36.008   9.030   6.150
 7944POPC   C1A46119  36.161   8.966   6.450
 7944POPC   D2A46120  36.084   8.987   6.750
 7944POPC   C3A46121  36.174   8.948   7.050
 7944POPC   C4A46122  36.167   9.015   7.350
 7944POPC   C1B46123  35.885   8.982   6.450
 7944POPC   C2B46124  35.873   8.982   6.750
 7944POPC   C3B46125  35.889   8.987   7.050
 7944POPC   C4B46126  35.876   9.038   7.350
 7945POPC   NC346127  24.462  32.998   5.550
 7945POPC   PO446128  24.493  33.060   5.850
 7945POPC   GL146129  24.486  33.065   6.150
 7945POPC   GL246130  24.584  32.980   6.150
 7945POPC   C1A46131  24.460  33.047   6.450
 7945POPC   D2A46132  24.513  33.049   6.750
 7945POPC   C3A46133  24.521  32.992   7.050
 7945POPC   C4A46134  24.473  33.064   7.350
 7945POPC   C1B46135  24.733  32.946   6.450
 7945POPC   C2B46136  24.762  32.909   6.750
 7945POPC   C3B46137  24.728  32.876   7.050
 7945POPC   C4B46138  24.722  32.903   7.350
 7946POPC   NC346139   9.789  43.132   5.550
 7946POPC   PO446140   9.793  43.096   5.850
 7946POPC   GL146141   9.754  43.103   6.150
 7946POPC   GL246142   9.829  43.194   6.150
 7946POPC   C1A46143   9.730  43.114   6.450
 7946POPC   D2A46144   9.786  43.140   6.750
 7946POPC   C3A46145   9.726  43.100   7.050
 7946POPC   C4A46146   9.699  43.155   7.350
 7946POPC   C1B46147   9.960  43.293   6.450
 7946POPC   C2B46148   9.895  43.308   6.750
 7946POPC   C3B46149   9.869  43.310   7.050
 7946POPC   C4B46150   9.919  43.265   7.350
 7947POPC   NC346151  26.004  40.769   5.550
 7947POPC   PO446152  26.035  40.798   5.850
 7947POPC   GL146153  26.048  40.787   6.150
 7947POPC   GL246154  26.092  40.854   6.150
 7947POPC   C1A46155  26.075  40.735   6.450
 7947POPC   D2A46156  26.072  40.773   6.750
 7947POPC   C3A46157  26.081  40.764   7.050
 7947POPC   C4A46158  26.016  40.771   7.350
 7947POPC   C1B46159  26.170  40.972   6.450
 7947POPC   C2B46160  26.134  41.048   6.750
 7947POPC   C3B46161  26.099  41.043   7.050
 7947POPC   C4B46162  26.118  41.057   7.350
 7948POPC   NC346163  29.098  40.008   5.550
 7948POPC   PO446164  29.111  40.043   5.850
 7948POPC   GL146165  29.191  39.979   6.150
 7948POPC   GL246166  28.977  39.942   6.150
 7948POPC   C1A46167  29.101  40.025   6.450
 7948POPC   D2A46168  29.176  40.003   6.750
 7948POPC   C3A46169  29.171  40.025   7.050
 7948POPC   C4A46170  29.152  40.040   7.350
 7948POPC   C1B46171  28.929  39.955   6.450
 7948POPC   C2B46172  28.941  39.986   6.750
 7948POPC   C3B46173  28.874  39.949   7.050
 7948POPC   C4B46174  28.920  39.969   7.350
 7949POPC   NC346175  34.619   7.392   5.550
 7949POPC   PO446176  34.618   7.454   5.850
 7949POPC   GL146177  34.542   7.432   6.150
 7949POPC   GL246178  34.678   7.346   6.150
 7949POPC   C1A46179  34.564   7.390   6.450
 7949POPC   D2A46180  34.594   7.387   6.750
 7949POPC   C3A46181  34.527   7.417   7.050
 7949POPC   C4A46182  34.579   7.431   7.350
 7949POPC   C1B46183  34.705   7.273   6.450
 7949POPC   C2B46184  34.704   7.285   6.750
 7949POPC   C3B46185  34.700   7.264   7.050
 7949POPC   C4B46186  34.754   7.273   7.350
 7950POPC   NC346187  29.909  29.122   5.550
 7950POPC   PO446188  29.892  29.151   5.850
 7950POPC   GL146189  29.952  29.142   6.150
 7950POPC   GL246190  29.958  29.001   6.150
 7950POPC   C1A46191  29.911  29.142   6.450
 7950POPC   D2A46192  29.920  29.166   6.750
 7950POPC   C3A46193  29.905  29.117   7.050
 7950POPC   C4A46194  29.887  29.165   7.350
 7950POPC   C1B46195  29.944  28.944   6.450
 7950POPC   C2B46196  29.916  28.847   6.750
 7950POPC   C3B46197  29.950  28.903   7.050
 7950POPC   C4B46198  29.954  28.867   7.350
 7951POPC   NC346199  15.921  40.004   5.550
 7951POPC   PO446200  15.988  39.985   5.850
 7951POPC   GL146201  15.980  40.009   6.150
 7951POPC   GL246202  15.929  40.109   6.150
 7951POPC   C1A46203  16.001  40.010   6.450
 7951POPC   D2A46204  15.993  39.974   6.750
 7951POPC   C3A46205  15.937  39.986   7.050
 7951POPC   C4A46206  15.963  39.996   7.350
 7951POPC   C1B46207  15.856  40.162   6.450
 7951POPC   C2B46208  15.780  40.210   6.750
 7951POPC   C3B46209  15.761  40.216   7.050
 7951POPC   C4B46210  15.767  40.260   7.350
 7952POPC   NC346211  13.647  13.621   5.550
 7952POPC   PO446212  13.668  13.617   5.850
 7952POPC   GL146213  13.672  13.589   6.150
 7952POPC   GL246214  13.534  13.736   6.150
 7952POPC   C1A46215  13.590  13.582   6.450
 7952POPC   D2A46216  13.625  13.676   6.750
 7952POPC   C3A46217  13.599  13.658   7.050
 7952POPC   C4A46218  13.648  13.607   7.350
 7952POPC   C1B46219  13.383  13.721   6.450
 7952POPC   C2B46220  13.369  13.745   6.750
 7952POPC   C3B46221  13.373  13.766   7.050
 7952POPC   C4B46222  13.422  13.767   7.350
 7953POPC   NC346223   1.174  36.926   5.550
 7953POPC   PO446224   1.193  36.944   5.850
 7953POPC   GL146225   1.213  36.860   6.150
 7953POPC   GL246226   1.262  36.743   6.150
 7953POPC   C1A46227   1.169  36.912   6.450
 7953POPC   D2A46228   1.184  36.891   6.750
 7953POPC   C3A46229   1.231  36.872   7.050
 7953POPC   C4A46230   1.245  36.899   7.350
 7953POPC   C1B46231   1.304  36.662   6.450
 7953POPC   C2B46232   1.262  36.673   6.750
 7953POPC   C3B46233   1.235  36.626   7.050
 7953POPC   C4B46234   1.305  36.673   7.350
 7954POPC   NC346235   9.778  22.947   5.550
 7954POPC   PO446236   9.769  22.910   5.850
 7954POPC   GL146237   9.749  22.932   6.150
 7954POPC   GL246238   9.875  22.854   6.150
 7954POPC   C1A46239   9.742  22.928   6.450
 7954POPC   D2A46240   9.725  22.959   6.750
 7954POPC   C3A46241   9.754  22.946   7.050
 7954POPC   C4A46242   9.782  22.984   7.350
 7954POPC   C1B46243   9.933  22.743   6.450
 7954POPC   C2B46244   9.957  22.758   6.750
 7954POPC   C3B46245   9.942  22.832   7.050
 7954POPC   C4B46246   9.938  22.752   7.350
 7955POPC   NC346247  14.401  33.765   5.550
 7955POPC   PO446248  14.375  33.848   5.850
 7955POPC   GL146249  14.452  33.754   6.150
 7955POPC   GL246250  14.451  33.952   6.150
 7955POPC   C1A46251  14.446  33.806   6.450
 7955POPC   D2A46252  14.396  33.758   6.750
 7955POPC   C3A46253  14.382  33.753   7.050
 7955POPC   C4A46254  14.401  33.828   7.350
 7955POPC   C1B46255  14.520  34.046   6.450
 7955POPC   C2B46256  14.497  33.976   6.750
 7955POPC   C3B46257  14.531  33.983   7.050
 7955POPC   C4B46258  14.548  33.981   7.350
 7956POPC   NC346259  14.419  12.114   5.550
 7956POPC   PO446260  14.418  12.032   5.850
 7956POPC   GL146261  14.359  12.080   6.150
 7956POPC   GL246262  14.273  12.001   6.150
 7956POPC   C1A46263  14.372  12.077   6.450
 7956POPC   D2A46264  14.388  12.052   6.750
 7956POPC   C3A46265  14.375  12.115   7.050
 7956POPC   C4A46266  14.439  12.056   7.350
 7956POPC   C1B46267  14.158  11.964   6.450
 7956POPC   C2B46268  14.156  11.932   6.750
 7956POPC   C3B46269  14.246  11.906   7.050
 7956POPC   C4B46270  14.212  11.918   7.350
 7957POPC   NC346271  17.540  19.793   5.550
 7957POPC   PO446272  17.471  19.791   5.850
 7957POPC   GL146273  17.555  19.841   6.150
 7957POPC   GL246274  17.418  19.906   6.150
 7957POPC   C1A46275  17.546  19.853   6.450
 7957POPC   D2A46276  17.506  19.809   6.750
 7957POPC   C3A46277  17.487  19.871   7.050
 7957POPC   C4A46278  17.547  19.819   7.350
 7957POPC   C1B46279  17.390  20.019   6.450
 7957POPC   C2B46280  17.347  20.071   6.750
 7957POPC   C3B46281  17.433  20.082   7.050
 7957POPC   C4B46282  17.367  20.081   7.350
 7958POPC   NC346283  13.673  33.816   5.550
 7958POPC   PO446284  13.646  33.786   5.850
 7958POPC   GL146285  13.635  33.795   6.150
 7958POPC   GL246286  13.757  33.774   6.150
 7958POPC   C1A46287  13.645  33.815   6.450
 7958POPC   D2A46288  13.634  33.793   6.750
 7958POPC   C3A46289  13.614  33.797   7.050
 7958POPC   C4A46290  13.601  33.764   7.350
 7958POPC   C1B46291  13.830  33.713   6.450
 7958POPC   C2B46292  13.805  33.673   6.750
 7958POPC   C3B46293  13.896  33.693   7.050
 7958POPC   C4B46294  13.878  33.676   7.350
 7959POPC   NC346295   2.784  33.036   5.550
 7959POPC   PO446296   2.723  32.986   5.850
 7959POPC   GL146297   2.797  33.067   6.150
 7959POPC   GL246298   2.920  33.063   6.150
 7959POPC   C1A46299   2.751  33.026   6.450
 7959POPC   D2A46300   2.716  33.027   6.750
 7959POPC   C3A46301   2.745  33.015   7.050
 7959POPC   C4A46302   2.741  32.985   7.350
 7959POPC   C1B46303   3.001  33.106   6.450
 7959POPC   C2B46304   3.010  33.091   6.750
 7959POPC   C3B46305   3.055  33.081   7.050
 7959POPC   C4B46306   3.029  33.046   7.350
 7960POPC   NC346307  42.313  12.883   5.550
 7960POPC   PO446308  42.383  12.862   5.850
 7960POPC   GL146309  42.383  12.814   6.150
 7960POPC   GL246310  42.408  12.692   6.150
 7960POPC   C1A46311  42.306  12.856   6.450
 7960POPC   D2A46312  42.301  12.877   6.750
 7960POPC   C3A46313  42.314  12.843   7.050
 7960POPC   C4A46314  42.366  12.876   7.350
 7960POPC   C1B46315  42.453  12.623   6.450
 7960POPC   C2B46316  42.436  12.612   6.750
 7960POPC   C3B46317  42.385  12.627   7.050
 7960POPC   C4B46318  42.378  12.625   7.350
 7961POPC   NC346319  10.564  15.135   5.550
 7961POPC   PO446320  10.491  15.224   5.850
 7961POPC   GL146321  10.569  15.225   6.150
 7961POPC   GL246322  10.369  15.105   6.150
 7961POPC   C1A46323  10.567  15.190   6.450
 7961POPC   D2A46324  10.497  15.188   6.750
 7961POPC   C3A46325  10.533  15.200   7.050
 7961POPC   C4A46326  10.484  15.180   7.350
 7961POPC   C1B46327  10.308  15.070   6.450
 7961POPC   C2B46328  10.345  15.071   6.750
 7961POPC   C3B46329  10.283  15.065   7.050
 7961POPC   C4B46330  10.269  15.049   7.350
 7962POPC   NC346331  22.914  20.626   5.550
 7962POPC   PO446332  22.922  20.572   5.850
 7962POPC   GL146333  22.981  20.584   6.150
 7962POPC   GL246334  22.960  20.772   6.150
 7962POPC   C1A46335  22.964  20.640   6.450
 7962POPC   D2A46336  22.943  20.597   6.750
 7962POPC   C3A46337  22.982  20.625   7.050
 7962POPC   C4A46338  22.975  20.630   7.350
 7962POPC   C1B46339  22.848  20.895   6.450
 7962POPC   C2B46340  22.872  20.868   6.750
 7962POPC   C3B46341  22.869  20.882   7.050
 7962POPC   C4B46342  22.870  20.858   7.350
 7963POPC   NC346343  15.144   8.958   5.550
 7963POPC   PO446344  15.195   8.967   5.850
 7963POPC   GL146345  15.176   8.976   6.150
 7963POPC   GL246346  15.184   8.841   6.150
 7963POPC   C1A46347  15.137   8.989   6.450
 7963POPC   D2A46348  15.163   9.011   6.750
 7963POPC   C3A46349  15.133   9.013   7.050
 7963POPC   C4A46350  15.229   8.958   7.350
 7963POPC   C1B46351  15.262   8.728   6.450
 7963POPC   C2B46352  15.221   8.773   6.750
 7963POPC   C3B46353  15.173   8.695   7.050
 7963POPC   C4B46354  15.232   8.743   7.350
 7964POPC   NC346355  34.534  16.753   5.550
 7964POPC   PO446356  34.560  16.759   5.850
 7964POPC   GL146357  34.594  16.752   6.150
 7964POPC   GL246358  34.598  16.587   6.150
 7964POPC   C1A46359  34.547  16.699   6.450
 7964POPC   D2A46360  34.526  16.774   6.750
 7964POPC   C3A46361  34.595  16.779   7.050
 7964POPC   C4A46362  34.573  16.735   7.350
 7964POPC   C1B46363  34.696  16.467   6.450
 7964POPC   C2B46364  34.707  16.551   6.750
 7964POPC   C3B46365  34.680  16.471   7.050
 7964POPC   C4B46366  34.685  16.494   7.350
 7965POPC   NC346367  34.596  22.913   5.550
 7965POPC   PO446368  34.583  22.940   5.850
 7965POPC   GL146369  34.595  22.958   6.150
 7965POPC   GL246370  34.523  22.895   6.150
 7965POPC   C1A46371  34.624  22.908   6.450
 7965POPC   D2A46372  34.558  22.933   6.750
 7965POPC   C3A46373  34.609  22.900   7.050
 7965POPC   C4A46374  34.608  22.963   7.350
 7965POPC   C1B46375  34.382  22.779   6.450
 7965POPC   C2B46376  34.377  22.772   6.750
 7965POPC   C3B46377  34.373  22.754   7.050
 7965POPC   C4B46378  34.393  22.780   7.350
 7966POPC   NC346379   0.485  25.219   5.550
 7966POPC   PO446380   0.477  25.265   5.850
 7966POPC   GL146381   0.445  25.252   6.150
 7966POPC   GL246382   0.276  25.208   6.150
 7966POPC   C1A46383   0.417  25.313   6.450
 7966POPC   D2A46384   0.411  25.255   6.750
 7966POPC   C3A46385   0.393  25.296   7.050
 7966POPC   C4A46386   0.413  25.279   7.350
 7966POPC   C1B46387   0.145  25.245   6.450
 7966POPC   C2B46388   0.175  25.229   6.750
 7966POPC   C3B46389   0.196  25.233   7.050
 7966POPC   C4B46390   0.208  25.198   7.350
 7967POPC   NC346391  29.146  26.050   5.550
 7967POPC   PO446392  29.146  26.010   5.850
 7967POPC   GL146393  29.111  26.086   6.150
 7967POPC   GL246394  29.246  26.026   6.150
 7967POPC   C1A46395  29.099  26.008   6.450
 7967POPC   D2A46396  29.156  26.006   6.750
 7967POPC   C3A46397  29.154  26.070   7.050
 7967POPC   C4A46398  29.098  26.077   7.350
 7967POPC   C1B46399  29.415  26.008   6.450
 7967POPC   C2B46400  29.401  25.921   6.750
 7967POPC   C3B46401  29.377  26.006   7.050
 7967POPC   C4B46402  29.376  25.932   7.350
 7968POPC   NC346403  35.354  14.442   5.550
 7968POPC   PO446404  35.361  14.442   5.850
 7968POPC   GL146405  35.370  14.378   6.150
 7968POPC   GL246406  35.359  14.239   6.150
 7968POPC   C1A46407  35.323  14.451   6.450
 7968POPC   D2A46408  35.303  14.398   6.750
 7968POPC   C3A46409  35.386  14.386   7.050
 7968POPC   C4A46410  35.326  14.396   7.350
 7968POPC   C1B46411  35.318  14.183   6.450
 7968POPC   C2B46412  35.282  14.132   6.750
 7968POPC   C3B46413  35.247  14.180   7.050
 7968POPC   C4B46414  35.268  14.191   7.350
 7969POPC   NC346415  33.074   7.400   5.550
 7969POPC   PO446416  33.011   7.451   5.850
 7969POPC   GL146417  33.071   7.444   6.150
 7969POPC   GL246418  33.037   7.500   6.150
 7969POPC   C1A46419  33.041   7.383   6.450
 7969POPC   D2A46420  33.047   7.375   6.750
 7969POPC   C3A46421  33.043   7.461   7.050
 7969POPC   C4A46422  32.992   7.443   7.350
 7969POPC   C1B46423  33.011   7.638   6.450
 7969POPC   C2B46424  32.997   7.687   6.750
 7969POPC   C3B46425  33.021   7.622   7.050
 7969POPC   C4B46426  32.960   7.656   7.350
 7970POPC   NC346427  43.150  41.589   5.550
 7970POPC   PO446428  43.085  41.512   5.850
 7970POPC   GL146429  43.079  41.541   6.150
 7970POPC   GL246430  42.988  41.577   6.150
 7970POPC   C1A46431  43.129  41.588   6.450
 7970POPC   D2A46432  43.074  41.535   6.750
 7970POPC   C3A46433  43.130  41.604   7.050
 7970POPC   C4A46434  43.075  41.580   7.350
 7970POPC   C1B46435  42.848  41.570   6.450
 7970POPC   C2B46436  42.819  41.510   6.750
 7970POPC   C3B46437  42.866  41.522   7.050
 7970POPC   C4B46438  42.874  41.474   7.350
 7971POPC   NC346439  19.042  39.963   5.550
 7971POPC   PO446440  19.069  40.043   5.850
 7971POPC   GL146441  19.088  39.980   6.150
 7971POPC   GL246442  18.886  39.970   6.150
 7971POPC   C1A46443  19.065  39.999   6.450
 7971POPC   D2A46444  19.039  40.014   6.750
 7971POPC   C3A46445  19.063  40.037   7.050
 7971POPC   C4A46446  19.042  39.995   7.350
 7971POPC   C1B46447  18.781  39.963   6.450
 7971POPC   C2B46448  18.774  40.020   6.750
 7971POPC   C3B46449  18.824  40.008   7.050
 7971POPC   C4B46450  18.773  40.035   7.350
 7972POPC   NC346451  41.580  39.230   5.550
 7972POPC   PO446452  41.553  39.261   5.850
 7972POPC   GL146453  41.551  39.233   6.150
 7972POPC   GL246454  41.637  39.283   6.150
 7972POPC   C1A46455  41.581  39.191   6.450
 7972POPC   D2A46456  41.553  39.210   6.750
 7972POPC   C3A46457  41.510  39.232   7.050
 7972POPC   C4A46458  41.560  39.208   7.350
 7972POPC   C1B46459  41.722  39.405   6.450
 7972POPC   C2B46460  41.735  39.420   6.750
 7972POPC   C3B46461  41.682  39.471   7.050
 7972POPC   C4B46462  41.673  39.401   7.350
 7973POPC   NC346463  19.078  39.213   5.550
 7973POPC   PO446464  19.013  39.253   5.850
 7973POPC   GL146465  19.025  39.273   6.150
 7973POPC   GL246466  19.103  39.077   6.150
 7973POPC   C1A46467  19.010  39.243   6.450
 7973POPC   D2A46468  19.015  39.189   6.750
 7973POPC   C3A46469  19.031  39.250   7.050
 7973POPC   C4A46470  19.048  39.234   7.350
 7973POPC   C1B46471  19.150  38.980   6.450
 7973POPC   C2B46472  19.151  38.955   6.750
 7973POPC   C3B46473  19.090  38.986   7.050
 7973POPC   C4B46474  19.144  38.990   7.350
 7974POPC   NC346475  22.889  22.146   5.550
 7974POPC   PO446476  22.891  22.190   5.850
 7974POPC   GL146477  22.914  22.191   6.150
 7974POPC   GL246478  22.886  21.999   6.150
 7974POPC   C1A46479  22.919  22.194   6.450
 7974POPC   D2A46480  22.931  22.179   6.750
 7974POPC   C3A46481  22.911  22.207   7.050
 7974POPC   C4A46482  22.890  22.143   7.350
 7974POPC   C1B46483  22.896  21.948   6.450
 7974POPC   C2B46484  22.869  21.918   6.750
 7974POPC   C3B46485  22.859  21.939   7.050
 7974POPC   C4B46486  22.857  21.930   7.350
 7975POPC   NC346487   8.186  12.816   5.550
 7975POPC   PO446488   8.192  12.821   5.850
 7975POPC   GL146489   8.168  12.842   6.150
 7975POPC   GL246490   8.274  12.956   6.150
 7975POPC   C1A46491   8.205  12.855   6.450
 7975POPC   D2A46492   8.159  12.856   6.750
 7975POPC   C3A46493   8.218  12.876   7.050
 7975POPC   C4A46494   8.194  12.831   7.350
 7975POPC   C1B46495   8.308  13.119   6.450
 7975POPC   C2B46496   8.364  13.036   6.750
 7975POPC   C3B46497   8.288  13.029   7.050
 7975POPC   C4B46498   8.310  13.035   7.350
 7976POPC   NC346499  34.526  35.373   5.550
 7976POPC   PO446500  34.619  35.302   5.850
 7976POPC   GL146501  34.596  35.312   6.150
 7976POPC   GL246502  34.627  35.263   6.150
 7976POPC   C1A46503  34.541  35.303   6.450
 7976POPC   D2A46504  34.623  35.351   6.750
 7976POPC   C3A46505  34.576  35.304   7.050
 7976POPC   C4A46506  34.538  35.322   7.350
 7976POPC   C1B46507  34.781  35.227   6.450
 7976POPC   C2B46508  34.772  35.177   6.750
 7976POPC   C3B46509  34.775  35.193   7.050
 7976POPC   C4B46510  34.802  35.172   7.350
 7977POPC   NC346511  40.800  32.227   5.550
 7977POPC   PO446512  40.741  32.223   5.850
 7977POPC   GL146513  40.797  32.217   6.150
 7977POPC   GL246514  40.863  32.334   6.150
 7977POPC   C1A46515  40.746  32.269   6.450
 7977POPC   D2A46516  40.784  32.290   6.750
 7977POPC   C3A46517  40.802  32.285   7.050
 7977POPC   C4A46518  40.782  32.208   7.350
 7977POPC   C1B46519  40.919  32.433   6.450
 7977POPC   C2B46520  40.966  32.468   6.750
 7977POPC   C3B46521  40.981  32.446   7.050
 7977POPC   C4B46522  40.899  32.466   7.350
 7978POPC   NC346523   0.430  36.942   5.550
 7978POPC   PO446524   0.469  36.923   5.850
 7978POPC   GL146525   0.471  36.948   6.150
 7978POPC   GL246526   0.555  36.963   6.150
 7978POPC   C1A46527   0.413  36.922   6.450
 7978POPC   D2A46528   0.397  36.931   6.750
 7978POPC   C3A46529   0.435  36.869   7.050
 7978POPC   C4A46530   0.448  36.881   7.350
 7978POPC   C1B46531   0.696  36.953   6.450
 7978POPC   C2B46532   0.642  36.940   6.750
 7978POPC   C3B46533   0.689  37.005   7.050
 7978POPC   C4B46534   0.636  37.023   7.350
 7979POPC   NC346535  25.225  32.227   5.550
 7979POPC   PO446536  25.262  32.282   5.850
 7979POPC   GL146537  25.274  32.282   6.150
 7979POPC   GL246538  25.345  32.338   6.150
 7979POPC   C1A46539  25.306  32.257   6.450
 7979POPC   D2A46540  25.244  32.289   6.750
 7979POPC   C3A46541  25.270  32.275   7.050
 7979POPC   C4A46542  25.303  32.256   7.350
 7979POPC   C1B46543  25.512  32.331   6.450
 7979POPC   C2B46544  25.517  32.340   6.750
 7979POPC   C3B46545  25.446  32.396   7.050
 7979POPC   C4B46546  25.443  32.386   7.350
 7980POPC   NC346547  41.536   5.124   5.550
 7980POPC   PO446548  41.598   5.079   5.850
 7980POPC   GL146549  41.550   5.124   6.150
 7980POPC   GL246550  41.691   5.070   6.150
 7980POPC   C1A46551  41.552   5.084   6.450
 7980POPC   D2A46552  41.600   5.057   6.750
 7980POPC   C3A46553  41.564   5.117   7.050
 7980POPC   C4A46554  41.535   5.100   7.350
 7980POPC   C1B46555  41.818   5.016   6.450
 7980POPC   C2B46556  41.764   5.032   6.750
 7980POPC   C3B46557  41.787   5.022   7.050
 7980POPC   C4B46558  41.763   5.011   7.350
 7981POPC   NC346559  26.047   1.988   5.550
 7981POPC   PO446560  26.004   1.991   5.850
 7981POPC   GL146561  26.000   1.975   6.150
 7981POPC   GL246562  25.989   2.073   6.150
 7981POPC   C1A46563  26.037   1.955   6.450
 7981POPC   D2A46564  26.084   1.943   6.750
 7981POPC   C3A46565  26.012   1.969   7.050
 7981POPC   C4A46566  26.045   1.957   7.350
 7981POPC   C1B46567  26.014   2.207   6.450
 7981POPC   C2B46568  25.977   2.278   6.750
 7981POPC   C3B46569  25.972   2.192   7.050
 7981POPC   C4B46570  25.982   2.262   7.350
 7982POPC   NC346571   4.315  36.928   5.550
 7982POPC   PO446572   4.364  36.927   5.850
 7982POPC   GL146573   4.348  36.913   6.150
 7982POPC   GL246574   4.388  36.990   6.150
 7982POPC   C1A46575   4.350  36.858   6.450
 7982POPC   D2A46576   4.288  36.946   6.750
 7982POPC   C3A46577   4.337  36.918   7.050
 7982POPC   C4A46578   4.310  36.854   7.350
 7982POPC   C1B46579   4.562  37.057   6.450
 7982POPC   C2B46580   4.532  37.025   6.750
 7982POPC   C3B46581   4.493  37.028   7.050
 7982POPC   C4B46582   4.556  37.020   7.350
 7983POPC   NC346583   5.102  17.474   5.550
 7983POPC   PO446584   5.063  17.467   5.850
 7983POPC   GL146585   5.080  17.523   6.150
 7983POPC   GL246586   5.169  17.584   6.150
 7983POPC   C1A46587   5.098  17.545   6.450
 7983POPC   D2A46588   5.100  17.482   6.750
 7983POPC   C3A46589   5.043  17.553   7.050
 7983POPC   C4A46590   5.063  17.478   7.350
 7983POPC   C1B46591   5.274  17.732   6.450
 7983POPC   C2B46592   5.239  17.703   6.750
 7983POPC   C3B46593   5.287  17.663   7.050
 7983POPC   C4B46594   5.191  17.698   7.350
 7984POPC   NC346595   4.323  28.337   5.550
 7984POPC   PO446596   4.283  28.331   5.850
 7984POPC   GL146597   4.341  28.319   6.150
 7984POPC   GL246598   4.249  28.314   6.150
 7984POPC   C1A46599   4.268  28.326   6.450
 7984POPC   D2A46600   4.336  28.409   6.750
 7984POPC   C3A46601   4.310  28.417   7.050
 7984POPC   C4A46602   4.344  28.330   7.350
 7984POPC   C1B46603   4.138  28.188   6.450
 7984POPC   C2B46604   4.173  28.149   6.750
 7984POPC   C3B46605   4.153  28.238   7.050
 7984POPC   C4B46606   4.156  28.154   7.350
 7985POPC   NC346607  26.071  35.388   5.550
 7985POPC   PO446608  26.055  35.399   5.850
 7985POPC   GL146609  26.018  35.334   6.150
 7985POPC   GL246610  26.076  35.273   6.150
 7985POPC   C1A46611  26.042  35.375   6.450
 7985POPC   D2A46612  26.082  35.353   6.750
 7985POPC   C3A46613  26.088  35.320   7.050
 7985POPC   C4A46614  26.008  35.327   7.350
 7985POPC   C1B46615  26.087  35.069   6.450
 7985POPC   C2B46616  26.096  35.079   6.750
 7985POPC   C3B46617  26.113  35.119   7.050
 7985POPC   C4B46618  26.070  35.147   7.350
 7986POPC   NC346619  15.159  42.368   5.550
 7986POPC   PO446620  15.211  42.297   5.850
 7986POPC   GL146621  15.210  42.324   6.150
 7986POPC   GL246622  15.228  42.479   6.150
 7986POPC   C1A46623  15.136  42.376   6.450
 7986POPC   D2A46624  15.170  42.355   6.750
 7986POPC   C3A46625  15.193  42.343   7.050
 7986POPC   C4A46626  15.174  42.356   7.350
 7986POPC   C1B46627  15.359  42.517   6.450
 7986POPC   C2B46628  15.322  42.515   6.750
 7986POPC   C3B46629  15.349  42.517   7.050
 7986POPC   C4B46630  15.361  42.570   7.350
 7987POPC   NC346631   1.263   7.388   5.550
 7987POPC   PO446632   1.237   7.463   5.850
 7987POPC   GL146633   1.218   7.424   6.150
 7987POPC   GL246634   1.093   7.521   6.150
 7987POPC   C1A46635   1.245   7.385   6.450
 7987POPC   D2A46636   1.208   7.445   6.750
 7987POPC   C3A46637   1.247   7.413   7.050
 7987POPC   C4A46638   1.181   7.450   7.350
 7987POPC   C1B46639   1.001   7.618   6.450
 7987POPC   C2B46640   1.086   7.598   6.750
 7987POPC   C3B46641   1.087   7.630   7.050
 7987POPC   C4B46642   1.091   7.599   7.350
 7988POPC   NC346643   4.365   4.283   5.550
 7988POPC   PO446644   4.288   4.293   5.850
 7988POPC   GL146645   4.276   4.360   6.150
 7988POPC   GL246646   4.305   4.459   6.150
 7988POPC   C1A46647   4.362   4.353   6.450
 7988POPC   D2A46648   4.346   4.358   6.750
 7988POPC   C3A46649   4.306   4.337   7.050
 7988POPC   C4A46650   4.321   4.309   7.350
 7988POPC   C1B46651   4.311   4.578   6.450
 7988POPC   C2B46652   4.253   4.550   6.750
 7988POPC   C3B46653   4.290   4.551   7.050
 7988POPC   C4B46654   4.283   4.578   7.350
 7989POPC   NC346655  44.699  10.557   5.550
 7989POPC   PO446656  44.645  10.490   5.850
 7989POPC   GL146657  44.625  10.564   6.150
 7989POPC   GL246658  44.615  10.678   6.150
 7989POPC   C1A46659  44.613  10.554   6.450
 7989POPC   D2A46660  44.633  10.542   6.750
 7989POPC   C3A46661  44.619  10.566   7.050
 7989POPC   C4A46662  44.701  10.487   7.350
 7989POPC   C1B46663  44.569  10.771   6.450
 7989POPC   C2B46664  44.536  10.773   6.750
 7989POPC   C3B46665  44.563  10.784   7.050
 7989POPC   C4B46666  44.607  10.715   7.350
 7990POPC   NC346667   5.132  19.823   5.550
 7990POPC   PO446668   5.124  19.860   5.850
 7990POPC   GL146669   5.064  19.883   6.150
 7990POPC   GL246670   5.010  19.930   6.150
 7990POPC   C1A46671   5.086  19.825   6.450
 7990POPC   D2A46672   5.112  19.829   6.750
 7990POPC   C3A46673   5.134  19.873   7.050
 7990POPC   C4A46674   5.050  19.883   7.350
 7990POPC   C1B46675   4.846  19.958   6.450
 7990POPC   C2B46676   4.862  19.991   6.750
 7990POPC   C3B46677   4.881  19.986   7.050
 7990POPC   C4B46678   4.897  19.977   7.350
 7991POPC   NC346679  36.901  19.794   5.550
 7991POPC   PO446680  36.880  19.849   5.850
 7991POPC   GL146681  36.856  19.803   6.150
 7991POPC   GL246682  36.800  19.959   6.150
 7991POPC   C1A46683  36.866  19.867   6.450
 7991POPC   D2A46684  36.951  19.858   6.750
 7991POPC   C3A46685  36.953  19.884   7.050
 7991POPC   C4A46686  36.858  19.794   7.350
 7991POPC   C1B46687  36.781  20.031   6.450
 7991POPC   C2B46688  36.803  20.071   6.750
 7991POPC   C3B46689  36.749  20.083   7.050
 7991POPC   C4B46690  36.776  20.007   7.350
 7992POPC   NC346691  14.428  21.343   5.550
 7992POPC   PO446692  14.370  21.345   5.850
 7992POPC   GL146693  14.410  21.412   6.150
 7992POPC   GL246694  14.474  21.424   6.150
 7992POPC   C1A46695  14.448  21.434   6.450
 7992POPC   D2A46696  14.431  21.413   6.750
 7992POPC   C3A46697  14.360  21.344   7.050
 7992POPC   C4A46698  14.392  21.428   7.350
 7992POPC   C1B46699  14.609  21.533   6.450
 7992POPC   C2B46700  14.558  21.509   6.750
 7992POPC   C3B46701  14.614  21.555   7.050
 7992POPC   C4B46702  14.643  21.494   7.350
 7993POPC   NC346703  17.488  42.312   5.550
 7993POPC   PO446704  17.542  42.324   5.850
 7993POPC   GL146705  17.474  42.323   6.150
 7993POPC   GL246706  17.357  42.270   6.150
 7993POPC   C1A46707  17.523  42.348   6.450
 7993POPC   D2A46708  17.465  42.315   6.750
 7993POPC   C3A46709  17.508  42.319   7.050
 7993POPC   C4A46710  17.550  42.356   7.350
 7993POPC   C1B46711  17.241  42.240   6.450
 7993POPC   C2B46712  17.221  42.294   6.750
 7993POPC   C3B46713  17.253  42.273   7.050
 7993POPC   C4B46714  17.265  42.251   7.350
 7994POPC   NC346715  27.594   8.964   5.550
 7994POPC   PO446716  27.562   8.962   5.850
 7994POPC   GL146717  27.549   8.972   6.150
 7994POPC   GL246718  27.569   9.082   6.150
 7994POPC   C1A46719  27.574   8.991   6.450
 7994POPC   D2A46720  27.635   8.966   6.750
 7994POPC   C3A46721  27.559   8.988   7.050
 7994POPC   C4A46722  27.641   8.923   7.350
 7994POPC   C1B46723  27.660   9.260   6.450
 7994POPC   C2B46724  27.585   9.187   6.750
 7994POPC   C3B46725  27.624   9.269   7.050
 7994POPC   C4B46726  27.643   9.224   7.350
 7995POPC   NC346727  19.791  24.467   5.550
 7995POPC   PO446728  19.840  24.445   5.850
 7995POPC   GL146729  19.877  24.485   6.150
 7995POPC   GL246730  19.837  24.629   6.150
 7995POPC   C1A46731  19.883  24.502   6.450
 7995POPC   D2A46732  19.831  24.529   6.750
 7995POPC   C3A46733  19.837  24.446   7.050
 7995POPC   C4A46734  19.849  24.490   7.350
 7995POPC   C1B46735  19.896  24.702   6.450
 7995POPC   C2B46736  19.910  24.775   6.750
 7995POPC   C3B46737  19.875  24.777   7.050
 7995POPC   C4B46738  19.831  24.766   7.350
 7996POPC   NC346739   5.136  15.224   5.550
 7996POPC   PO446740   5.120  15.165   5.850
 7996POPC   GL146741   5.116  15.212   6.150
 7996POPC   GL246742   5.029  15.083   6.150
 7996POPC   C1A46743   5.114  15.188   6.450
 7996POPC   D2A46744   5.084  15.212   6.750
 7996POPC   C3A46745   5.099  15.220   7.050
 7996POPC   C4A46746   5.078  15.180   7.350
 7996POPC   C1B46747   4.989  14.935   6.450
 7996POPC   C2B46748   4.976  14.968   6.750
 7996POPC   C3B46749   4.967  14.912   7.050
 7996POPC   C4B46750   4.974  14.963   7.350
 7997POPC   NC346751  13.637   5.900   5.550
 7997POPC   PO446752  13.598   5.830   5.850
 7997POPC   GL146753  13.578   5.854   6.150
 7997POPC   GL246754  13.524   5.829   6.150
 7997POPC   C1A46755  13.636   5.878   6.450
 7997POPC   D2A46756  13.600   5.837   6.750
 7997POPC   C3A46757  13.598   5.836   7.050
 7997POPC   C4A46758  13.670   5.913   7.350
 7997POPC   C1B46759  13.407   5.810   6.450
 7997POPC   C2B46760  13.426   5.748   6.750
 7997POPC   C3B46761  13.359   5.773   7.050
 7997POPC   C4B46762  13.437   5.797   7.350
 7998POPC   NC346763  34.565   0.474   5.550
 7998POPC   PO446764  34.590   0.429   5.850
 7998POPC   GL146765  34.599   0.485   6.150
 7998POPC   GL246766  34.680   0.507   6.150
 7998POPC   C1A46767  34.594   0.415   6.450
 7998POPC   D2A46768  34.589   0.397   6.750
 7998POPC   C3A46769  34.609   0.468   7.050
 7998POPC   C4A46770  34.554   0.439   7.350
 7998POPC   C1B46771  34.743   0.625   6.450
 7998POPC   C2B46772  34.776   0.560   6.750
 7998POPC   C3B46773  34.759   0.629   7.050
 7998POPC   C4B46774  34.792   0.605   7.350
 7999POPC   NC346775  11.277   9.004   5.550
 7999POPC   PO446776  11.284   8.932   5.850
 7999POPC   GL146777  11.323   8.972   6.150
 7999POPC   GL246778  11.318   9.052   6.150
 7999POPC   C1A46779  11.312   8.959   6.450
 7999POPC   D2A46780  11.329   8.942   6.750
 7999POPC   C3A46781  11.288   8.941   7.050
 7999POPC   C4A46782  11.283   8.945   7.350
 7999POPC   C1B46783  11.326   9.259   6.450
 7999POPC   C2B46784  11.382   9.225   6.750
 7999POPC   C3B46785  11.349   9.204   7.050
 7999POPC   C4B46786  11.348   9.168   7.350
 8000POPC   NC346787  36.123  33.794   5.550
 8000POPC   PO446788  36.118  33.772   5.850
 8000POPC   GL146789  36.082  33.787   6.150
 8000POPC   GL246790  36.246  33.764   6.150
 8000POPC   C1A46791  36.137  33.794   6.450
 8000POPC   D2A46792  36.147  33.762   6.750
 8000POPC   C3A46793  36.079  33.786   7.050
 8000POPC   C4A46794  36.121  33.786   7.350
 8000POPC   C1B46795  36.349  33.714   6.450
 8000POPC   C2B46796  36.322  33.693   6.750
 8000POPC   C3B46797  36.312  33.655   7.050
 8000POPC   C4B46798  36.311  33.641   7.350
 8001POPC   NC346799  36.123  13.608   5.550
 8001POPC   PO446800  36.093  13.609   5.850
 8001POPC   GL146801  36.081  13.621   6.150
 8001POPC   GL246802  36.203  13.636   6.150
 8001POPC   C1A46803  36.139  13.672   6.450
 8001POPC   D2A46804  36.152  13.658   6.750
 8001POPC   C3A46805  36.085  13.670   7.050
 8001POPC   C4A46806  36.163  13.606   7.350
 8001POPC   C1B46807  36.353  13.558   6.450
 8001POPC   C2B46808  36.418  13.630   6.750
 8001POPC   C3B46809  36.375  13.563   7.050
 8001POPC   C4B46810  36.376  13.605   7.350
 8002POPC   NC346811   2.762  26.792   5.550
 8002POPC   PO446812   2.773  26.865   5.850
 8002POPC   GL146813   2.757  26.824   6.150
 8002POPC   GL246814   2.653  26.887   6.150
 8002POPC   C1A46815   2.813  26.827   6.450
 8002POPC   D2A46816   2.799  26.808   6.750
 8002POPC   C3A46817   2.757  26.805   7.050
 8002POPC   C4A46818   2.794  26.862   7.350
 8002POPC   C1B46819   2.559  26.862   6.450
 8002POPC   C2B46820   2.542  26.856   6.750
 8002POPC   C3B46821   2.494  26.858   7.050
 8002POPC   C4B46822   2.542  26.868   7.350
 8003POPC   NC346823   2.039   8.170   5.550
 8003POPC   PO446824   1.989   8.242   5.850
 8003POPC   GL146825   2.034   8.163   6.150
 8003POPC   GL246826   2.065   8.209   6.150
 8003POPC   C1A46827   1.979   8.149   6.450
 8003POPC   D2A46828   1.993   8.191   6.750
 8003POPC   C3A46829   1.953   8.232   7.050
 8003POPC   C4A46830   1.978   8.164   7.350
 8003POPC   C1B46831   2.214   8.116   6.450
 8003POPC   C2B46832   2.208   8.094   6.750
 8003POPC   C3B46833   2.271   8.130   7.050
 8003POPC   C4B46834   2.255   8.166   7.350
 8004POPC   NC346835  12.821   4.343   5.550
 8004POPC   PO446836  12.869   4.340   5.850
 8004POPC   GL146837  12.807   4.314   6.150
 8004POPC   GL246838  12.684   4.325   6.150
 8004POPC   C1A46839  12.854   4.340   6.450
 8004POPC   D2A46840  12.825   4.316   6.750
 8004POPC   C3A46841  12.809   4.363   7.050
 8004POPC   C4A46842  12.875   4.332   7.350
 8004POPC   C1B46843  12.598   4.290   6.450
 8004POPC   C2B46844  12.619   4.359   6.750
 8004POPC   C3B46845  12.606   4.350   7.050
 8004POPC   C4B46846  12.590   4.367   7.350
 8005POPC   NC346847  29.908  20.576   5.550
 8005POPC   PO446848  29.913  20.656   5.850
 8005POPC   GL146849  29.871  20.615   6.150
 8005POPC   GL246850  29.961  20.472   6.150
 8005POPC   C1A46851  29.893  20.595   6.450
 8005POPC   D2A46852  29.966  20.639   6.750
 8005POPC   C3A46853  29.959  20.619   7.050
 8005POPC   C4A46854  29.969  20.612   7.350
 8005POPC   C1B46855  29.974  20.380   6.450
 8005POPC   C2B46856  30.055  20.357   6.750
 8005POPC   C3B46857  30.015  20.333   7.050
 8005POPC   C4B46858  30.050  20.390   7.350
 8006POPC   NC346859  12.037   5.898   5.550
 8006POPC   PO446860  12.080   5.904   5.850
 8006POPC   GL146861  12.087   5.859   6.150
 8006POPC   GL246862  11.996   5.772   6.150
 8006POPC   C1A46863  12.114   5.828   6.450
 8006POPC   D2A46864  12.125   5.821   6.750
 8006POPC   C3A46865  12.077   5.861   7.050
 8006POPC   C4A46866  12.095   5.902   7.350
 8006POPC   C1B46867  11.927   5.672   6.450
 8006POPC   C2B46868  11.947   5.697   6.750
 8006POPC   C3B46869  11.983   5.633   7.050
 8006POPC   C4B46870  11.922   5.621   7.350
 8007POPC   NC346871  34.611  39.183   5.550
 8007POPC   PO446872  34.605  39.184   5.850
 8007POPC   GL146873  34.591  39.211   6.150
 8007POPC   GL246874  34.564  39.090   6.150
 8007POPC   C1A46875  34.603  39.195   6.450
 8007POPC   D2A46876  34.545  39.244   6.750
 8007POPC   C3A46877  34.548  39.192   7.050
 8007POPC   C4A46878  34.575  39.211   7.350
 8007POPC   C1B46879  34.498  39.013   6.450
 8007POPC   C2B46880  34.531  39.006   6.750
 8007POPC   C3B46881  34.506  38.962   7.050
 8007POPC   C4B46882  34.441  38.981   7.350
 8008POPC   NC346883  31.487  30.667   5.550
 8008POPC   PO446884  31.434  30.665   5.850
 8008POPC   GL146885  31.431  30.739   6.150
 8008POPC   GL246886  31.595  30.713   6.150
 8008POPC   C1A46887  31.427  30.704   6.450
 8008POPC   D2A46888  31.446  30.742   6.750
 8008POPC   C3A46889  31.430  30.659   7.050
 8008POPC   C4A46890  31.467  30.663   7.350
 8008POPC   C1B46891  31.764  30.715   6.450
 8008POPC   C2B46892  31.694  30.679   6.750
 8008POPC   C3B46893  31.714  30.716   7.050
 8008POPC   C4B46894  31.766  30.749   7.350
 8009POPC   NC346895   8.953  25.298   5.550
 8009POPC   PO446896   8.994  25.286   5.850
 8009POPC   GL146897   8.973  25.307   6.150
 8009POPC   GL246898   9.046  25.231   6.150
 8009POPC   C1A46899   8.938  25.244   6.450
 8009POPC   D2A46900   8.970  25.304   6.750
 8009POPC   C3A46901   8.928  25.311   7.050
 8009POPC   C4A46902   8.999  25.225   7.350
 8009POPC   C1B46903   9.136  25.107   6.450
 8009POPC   C2B46904   9.161  25.104   6.750
 8009POPC   C3B46905   9.160  25.091   7.050
 8009POPC   C4B46906   9.130  25.119   7.350
 8010POPC   NC346907  13.663  36.144   5.550
 8010POPC   PO446908  13.674  36.153   5.850
 8010POPC   GL146909  13.608  36.165   6.150
 8010POPC   GL246910  13.629  36.206   6.150
 8010POPC   C1A46911  13.600  36.106   6.450
 8010POPC   D2A46912  13.602  36.165   6.750
 8010POPC   C3A46913  13.625  36.161   7.050
 8010POPC   C4A46914  13.661  36.152   7.350
 8010POPC   C1B46915  13.676  36.406   6.450
 8010POPC   C2B46916  13.721  36.385   6.750
 8010POPC   C3B46917  13.668  36.350   7.050
 8010POPC   C4B46918  13.659  36.390   7.350
 8011POPC   NC346919  28.374  33.778   5.550
 8011POPC   PO446920  28.373  33.776   5.850
 8011POPC   GL146921  28.418  33.828   6.150
 8011POPC   GL246922  28.283  33.745   6.150
 8011POPC   C1A46923  28.383  33.788   6.450
 8011POPC   D2A46924  28.410  33.836   6.750
 8011POPC   C3A46925  28.361  33.771   7.050
 8011POPC   C4A46926  28.336  33.827   7.350
 8011POPC   C1B46927  28.232  33.599   6.450
 8011POPC   C2B46928  28.185  33.571   6.750
 8011POPC   C3B46929  28.252  33.605   7.050
 8011POPC   C4B46930  28.210  33.635   7.350
 8012POPC   NC346931  22.112  40.047   5.550
 8012POPC   PO446932  22.155  39.970   5.850
 8012POPC   GL146933  22.164  40.055   6.150
 8012POPC   GL246934  22.123  40.115   6.150
 8012POPC   C1A46935  22.198  39.993   6.450
 8012POPC   D2A46936  22.149  40.015   6.750
 8012POPC   C3A46937  22.166  39.981   7.050
 8012POPC   C4A46938  22.192  40.021   7.350
 8012POPC   C1B46939  22.113  40.209   6.450
 8012POPC   C2B46940  22.114  40.266   6.750
 8012POPC   C3B46941  22.138  40.283   7.050
 8012POPC   C4B46942  22.084  40.261   7.350
 8013POPC   NC346943   1.197  36.134   5.550
 8013POPC   PO446944   1.221  36.173   5.850
 8013POPC   GL146945   1.189  36.083   6.150
 8013POPC   GL246946   1.344  36.101   6.150
 8013POPC   C1A46947   1.240  36.096   6.450
 8013POPC   D2A46948   1.214  36.114   6.750
 8013POPC   C3A46949   1.179  36.107   7.050
 8013POPC   C4A46950   1.208  36.153   7.350
 8013POPC   C1B46951   1.413  36.159   6.450
 8013POPC   C2B46952   1.479  36.197   6.750
 8013POPC   C3B46953   1.497  36.132   7.050
 8013POPC   C4B46954   1.494  36.117   7.350
 8014POPC   NC346955  11.314  34.536   5.550
 8014POPC   PO446956  11.254  34.582   5.850
 8014POPC   GL146957  11.298  34.610   6.150
 8014POPC   GL246958  11.153  34.536   6.150
 8014POPC   C1A46959  11.321  34.527   6.450
 8014POPC   D2A46960  11.303  34.549   6.750
 8014POPC   C3A46961  11.285  34.614   7.050
 8014POPC   C4A46962  11.299  34.527   7.350
 8014POPC   C1B46963  11.061  34.560   6.450
 8014POPC   C2B46964  11.066  34.490   6.750
 8014POPC   C3B46965  11.041  34.491   7.050
 8014POPC   C4B46966  11.101  34.548   7.350
 8015POPC   NC346967  26.025   9.715   5.550
 8015POPC   PO446968  26.045   9.749   5.850
 8015POPC   GL146969  25.993   9.736   6.150
 8015POPC   GL246970  25.927   9.825   6.150
 8015POPC   C1A46971  26.049   9.704   6.450
 8015POPC   D2A46972  26.024   9.767   6.750
 8015POPC   C3A46973  26.051   9.796   7.050
 8015POPC   C4A46974  26.072   9.705   7.350
 8015POPC   C1B46975  25.798   9.818   6.450
 8015POPC   C2B46976  25.853   9.820   6.750
 8015POPC   C3B46977  25.805   9.829   7.050
 8015POPC   C4B46978  25.804   9.812   7.350
 8016POPC   NC346979  21.353  22.191   5.550
 8016POPC   PO446980  21.343  22.163   5.850
 8016POPC   GL146981  21.347  22.159   6.150
 8016POPC   GL246982  21.409  22.009   6.150
 8016POPC   C1A46983  21.420  22.152   6.450
 8016POPC   D2A46984  21.380  22.194   6.750
 8016POPC   C3A46985  21.407  22.157   7.050
 8016POPC   C4A46986  21.387  22.132   7.350
 8016POPC   C1B46987  21.327  21.926   6.450
 8016POPC   C2B46988  21.341  21.894   6.750
 8016POPC   C3B46989  21.401  21.895   7.050
 8016POPC   C4B46990  21.376  21.898   7.350
 8017POPC   NC346991  36.154  19.874   5.550
 8017POPC   PO446992  36.153  19.813   5.850
 8017POPC   GL146993  36.140  19.884   6.150
 8017POPC   GL246994  36.181  19.975   6.150
 8017POPC   C1A46995  36.151  19.855   6.450
 8017POPC   D2A46996  36.094  19.803   6.750
 8017POPC   C3A46997  36.103  19.875   7.050
 8017POPC   C4A46998  36.129  19.880   7.350
 8017POPC   C1B46999  36.268  20.027   6.450
 8017POPC   C2B47000  36.306  20.050   6.750
 8017POPC   C3B47001  36.239  20.043   7.050
 8017POPC   C4B47002  36.230  20.083   7.350
 8018POPC   NC347003  19.820  22.168   5.550
 8018POPC   PO447004  19.844  22.201   5.850
 8018POPC   GL147005  19.784  22.151   6.150
 8018POPC   GL247006  19.931  22.132   6.150
 8018POPC   C1A47007  19.840  22.185   6.450
 8018POPC   D2A47008  19.852  22.133   6.750
 8018POPC   C3A47009  19.864  22.122   7.050
 8018POPC   C4A47010  19.848  22.183   7.350
 8018POPC   C1B47011  20.082  22.085   6.450
 8018POPC   C2B47012  20.049  22.012   6.750
 8018POPC   C3B47013  20.021  22.028   7.050
 8018POPC   C4B47014  20.016  22.080   7.350
 8019POPC   NC347015  41.607  40.052   5.550
 8019POPC   PO447016  41.513  40.054   5.850
 8019POPC   GL147017  41.578  39.999   6.150
 8019POPC   GL247018  41.492  39.910   6.150
 8019POPC   C1A47019  41.559  39.986   6.450
 8019POPC   D2A47020  41.579  40.040   6.750
 8019POPC   C3A47021  41.522  40.055   7.050
 8019POPC   C4A47022  41.540  40.005   7.350
 8019POPC   C1B47023  41.403  39.781   6.450
 8019POPC   C2B47024  41.398  39.768   6.750
 8019POPC   C3B47025  41.430  39.750   7.050
 8019POPC   C4B47026  41.464  39.834   7.350
 8020POPC   NC347027   7.415   5.081   5.550
 8020POPC   PO447028   7.406   5.062   5.850
 8020POPC   GL147029   7.428   5.132   6.150
 8020POPC   GL247030   7.483   4.972   6.150
 8020POPC   C1A47031   7.387   5.070   6.450
 8020POPC   D2A47032   7.411   5.142   6.750
 8020POPC   C3A47033   7.423   5.047   7.050
 8020POPC   C4A47034   7.423   5.101   7.350
 8020POPC   C1B47035   7.541   4.832   6.450
 8020POPC   C2B47036   7.448   4.833   6.750
 8020POPC   C3B47037   7.541   4.898   7.050
 8020POPC   C4B47038   7.514   4.806   7.350
 8021POPC   NC347039  38.486  14.423   5.550
 8021POPC   PO447040  38.477  14.418   5.850
 8021POPC   GL147041  38.406  14.412   6.150
 8021POPC   GL247042  38.583  14.495   6.150
 8021POPC   C1A47043  38.432  14.445   6.450
 8021POPC   D2A47044  38.467  14.371   6.750
 8021POPC   C3A47045  38.482  14.386   7.050
 8021POPC   C4A47046  38.475  14.394   7.350
 8021POPC   C1B47047  38.667  14.454   6.450
 8021POPC   C2B47048  38.722  14.469   6.750
 8021POPC   C3B47049  38.693  14.476   7.050
 8021POPC   C4B47050  38.715  14.451   7.350
 8022POPC   NC347051  43.075   5.841   5.550
 8022POPC   PO447052  43.083   5.904   5.850
 8022POPC   GL147053  43.117   5.901   6.150
 8022POPC   GL247054  43.216   5.974   6.150
 8022POPC   C1A47055  43.082   5.906   6.450
 8022POPC   D2A47056  43.066   5.890   6.750
 8022POPC   C3A47057  43.131   5.848   7.050
 8022POPC   C4A47058  43.127   5.825   7.350
 8022POPC   C1B47059  43.302   6.028   6.450
 8022POPC   C2B47060  43.260   6.052   6.750
 8022POPC   C3B47061  43.242   6.034   7.050
 8022POPC   C4B47062  43.241   6.089   7.350
 8023POPC   NC347063   4.285   8.929   5.550
 8023POPC   PO447064   4.303   8.933   5.850
 8023POPC   GL147065   4.345   8.962   6.150
 8023POPC   GL247066   4.417   8.969   6.150
 8023POPC   C1A47067   4.270   8.954   6.450
 8023POPC   D2A47068   4.341   8.947   6.750
 8023POPC   C3A47069   4.269   9.011   7.050
 8023POPC   C4A47070   4.316   8.930   7.350
 8023POPC   C1B47071   4.590   8.944   6.450
 8023POPC   C2B47072   4.583   8.938   6.750
 8023POPC   C3B47073   4.616   8.946   7.050
 8023POPC   C4B47074   4.523   9.019   7.350
 8024POPC   NC347075  19.019   8.977   5.550
 8024POPC   PO447076  19.027   8.980   5.850
 8024POPC   GL147077  19.059   8.947   6.150
 8024POPC   GL247078  19.058   9.141   6.150
 8024POPC   C1A47079  19.046   8.967   6.450
 8024POPC   D2A47080  19.060   8.950   6.750
 8024POPC   C3A47081  19.091   8.964   7.050
 8024POPC   C4A47082  19.028   8.977   7.350
 8024POPC   C1B47083  19.155   9.221   6.450
 8024POPC   C2B47084  19.089   9.184   6.750
 8024POPC   C3B47085  19.154   9.238   7.050
 8024POPC   C4B47086  19.097   9.193   7.350
 8025POPC   NC347087  29.877  44.697   5.550
 8025POPC   PO447088  29.875  44.633   5.850
 8025POPC   GL147089  29.910  44.613   6.150
 8025POPC   GL247090  29.901  44.793   6.150
 8025POPC   C1A47091  29.970  44.686   6.450
 8025POPC   D2A47092  29.949  44.699   6.750
 8025POPC   C3A47093  29.902  44.710   7.050
 8025POPC   C4A47094  29.893  44.689   7.350
 8025POPC   C1B47095  29.932  44.898   6.450
 8025POPC   C2B47096  29.913  44.882   6.750
 8025POPC   C3B47097  29.952  44.942   7.050
 8025POPC   C4B47098  29.981  44.928   7.350
 8026POPC   NC347099   6.640  22.890   5.550
 8026POPC   PO447100   6.622  22.916   5.850
 8026POPC   GL147101   6.627  22.923   6.150
 8026POPC   GL247102   6.523  22.890   6.150
 8026POPC   C1A47103   6.601  22.956   6.450
 8026POPC   D2A47104   6.624  22.909   6.750
 8026POPC   C3A47105   6.605  22.901   7.050
 8026POPC   C4A47106   6.666  22.953   7.350
 8026POPC   C1B47107   6.445  22.841   6.450
 8026POPC   C2B47108   6.357  22.858   6.750
 8026POPC   C3B47109   6.450  22.872   7.050
 8026POPC   C4B47110   6.448  22.899   7.350
 8027POPC   NC347111  22.896   5.142   5.550
 8027POPC   PO447112  22.897   5.082   5.850
 8027POPC   GL147113  22.921   5.123   6.150
 8027POPC   GL247114  23.007   4.993   6.150
 8027POPC   C1A47115  22.946   5.142   6.450
 8027POPC   D2A47116  22.901   5.086   6.750
 8027POPC   C3A47117  22.959   5.068   7.050
 8027POPC   C4A47118  22.978   5.046   7.350
 8027POPC   C1B47119  23.156   4.956   6.450
 8027POPC   C2B47120  23.112   4.967   6.750
 8027POPC   C3B47121  23.129   4.946   7.050
 8027POPC   C4B47122  23.128   4.955   7.350
 8028POPC   NC347123  29.173   9.736   5.550
 8028POPC   PO447124  29.194   9.743   5.850
 8028POPC   GL147125  29.143   9.700   6.150
 8028POPC   GL247126  29.147   9.862   6.150
 8028POPC   C1A47127  29.102   9.750   6.450
 8028POPC   D2A47128  29.164   9.743   6.750
 8028POPC   C3A47129  29.194   9.788   7.050
 8028POPC   C4A47130  29.161   9.767   7.350
 8028POPC   C1B47131  29.273  10.030   6.450
 8028POPC   C2B47132  29.225   9.987   6.750
 8028POPC   C3B47133  29.236   9.954   7.050
 8028POPC   C4B47134  29.233   9.987   7.350
 8029POPC   NC347135  26.084  39.258   5.550
 8029POPC   PO447136  26.055  39.241   5.850
 8029POPC   GL147137  25.993  39.254   6.150
 8029POPC   GL247138  26.118  39.240   6.150
 8029POPC   C1A47139  26.004  39.213   6.450
 8029POPC   D2A47140  26.044  39.182   6.750
 8029POPC   C3A47141  26.011  39.220   7.050
 8029POPC   C4A47142  26.001  39.264   7.350
 8029POPC   C1B47143  26.307  39.199   6.450
 8029POPC   C2B47144  26.337  39.253   6.750
 8029POPC   C3B47145  26.247  39.182   7.050
 8029POPC   C4B47146  26.297  39.207   7.350
 8030POPC   NC347147   2.037   0.423   5.550
 8030POPC   PO447148   1.940   0.419   5.850
 8030POPC   GL147149   1.982   0.421   6.150
 8030POPC   GL247150   2.074   0.507   6.150
 8030POPC   C1A47151   1.969   0.469   6.450
 8030POPC   D2A47152   1.975   0.471   6.750
 8030POPC   C3A47153   2.019   0.414   7.050
 8030POPC   C4A47154   1.977   0.414   7.350
 8030POPC   C1B47155   2.095   0.693   6.450
 8030POPC   C2B47156   2.045   0.669   6.750
 8030POPC   C3B47157   2.079   0.707   7.050
 8030POPC   C4B47158   2.047   0.640   7.350
 8031POPC   NC347159  20.654  18.284   5.550
 8031POPC   PO447160  20.656  18.303   5.850
 8031POPC   GL147161  20.600  18.329   6.150
 8031POPC   GL247162  20.447  18.274   6.150
 8031POPC   C1A47163  20.620  18.251   6.450
 8031POPC   D2A47164  20.643  18.257   6.750
 8031POPC   C3A47165  20.568  18.317   7.050
 8031POPC   C4A47166  20.594  18.309   7.350
 8031POPC   C1B47167  20.394  18.375   6.450
 8031POPC   C2B47168  20.330  18.310   6.750
 8031POPC   C3B47169  20.416  18.326   7.050
 8031POPC   C4B47170  20.321  18.319   7.350
 8032POPC   NC347171  15.941  35.374   5.550
 8032POPC   PO447172  15.960  35.345   5.850
 8032POPC   GL147173  15.969  35.385   6.150
 8032POPC   GL247174  15.877  35.389   6.150
 8032POPC   C1A47175  15.952  35.358   6.450
 8032POPC   D2A47176  15.998  35.328   6.750
 8032POPC   C3A47177  15.952  35.383   7.050
 8032POPC   C4A47178  15.941  35.347   7.350
 8032POPC   C1B47179  15.715  35.368   6.450
 8032POPC   C2B47180  15.734  35.386   6.750
 8032POPC   C3B47181  15.680  35.354   7.050
 8032POPC   C4B47182  15.744  35.338   7.350
 8033POPC   NC347183  18.238   2.778   5.550
 8033POPC   PO447184  18.314   2.802   5.850
 8033POPC   GL147185  18.304   2.775   6.150
 8033POPC   GL247186  18.410   2.650   6.150
 8033POPC   C1A47187  18.297   2.723   6.450
 8033POPC   D2A47188  18.283   2.798   6.750
 8033POPC   C3A47189  18.271   2.723   7.050
 8033POPC   C4A47190  18.256   2.747   7.350
 8033POPC   C1B47191  18.462   2.605   6.450
 8033POPC   C2B47192  18.526   2.660   6.750
 8033POPC   C3B47193  18.510   2.596   7.050
 8033POPC   C4B47194  18.489   2.585   7.350
 8034POPC   NC347195  24.519  40.050   5.550
 8034POPC   PO447196  24.440  39.993   5.850
 8034POPC   GL147197  24.513  39.992   6.150
 8034POPC   GL247198  24.588  40.124   6.150
 8034POPC   C1A47199  24.476  40.036   6.450
 8034POPC   D2A47200  24.518  39.975   6.750
 8034POPC   C3A47201  24.493  39.975   7.050
 8034POPC   C4A47202  24.446  39.966   7.350
 8034POPC   C1B47203  24.617  40.179   6.450
 8034POPC   C2B47204  24.688  40.229   6.750
 8034POPC   C3B47205  24.630  40.193   7.050
 8034POPC   C4B47206  24.683  40.204   7.350
 8035POPC   NC347207   0.399  17.471   5.550
 8035POPC   PO447208   0.470  17.541   5.850
 8035POPC   GL147209   0.474  17.484   6.150
 8035POPC   GL247210   0.333  17.533   6.150
 8035POPC   C1A47211   0.429  17.486   6.450
 8035POPC   D2A47212   0.431  17.468   6.750
 8035POPC   C3A47213   0.421  17.504   7.050
 8035POPC   C4A47214   0.480  17.506   7.350
 8035POPC   C1B47215   0.266  17.649   6.450
 8035POPC   C2B47216   0.220  17.679   6.750
 8035POPC   C3B47217   0.243  17.632   7.050
 8035POPC   C4B47218   0.226  17.678   7.350
 8036POPC   NC347219  36.874  14.369   5.550
 8036POPC   PO447220  36.898  14.386   5.850
 8036POPC   GL147221  36.902  14.451   6.150
 8036POPC   GL247222  36.980  14.449   6.150
 8036POPC   C1A47223  36.877  14.444   6.450
 8036POPC   D2A47224  36.858  14.401   6.750
 8036POPC   C3A47225  36.947  14.377   7.050
 8036POPC   C4A47226  36.879  14.391   7.350
 8036POPC   C1B47227  37.180  14.386   6.450
 8036POPC   C2B47228  37.180  14.428   6.750
 8036POPC   C3B47229  37.144  14.414   7.050
 8036POPC   C4B47230  37.123  14.429   7.350
 8037POPC   NC347231   4.350  20.611   5.550
 8037POPC   PO447232   4.348  20.591   5.850
 8037POPC   GL147233   4.304  20.587   6.150
 8037POPC   GL247234   4.344  20.728   6.150
 8037POPC   C1A47235   4.354  20.627   6.450
 8037POPC   D2A47236   4.348  20.567   6.750
 8037POPC   C3A47237   4.275  20.615   7.050
 8037POPC   C4A47238   4.310  20.619   7.350
 8037POPC   C1B47239   4.393  20.880   6.450
 8037POPC   C2B47240   4.466  20.844   6.750
 8037POPC   C3B47241   4.472  20.793   7.050
 8037POPC   C4B47242   4.444  20.850   7.350
 8038POPC   NC347243  43.160  22.169   5.550
 8038POPC   PO447244  43.136  22.211   5.850
 8038POPC   GL147245  43.126  22.162   6.150
 8038POPC   GL247246  43.246  22.148   6.150
 8038POPC   C1A47247  43.125  22.166   6.450
 8038POPC   D2A47248  43.088  22.190   6.750
 8038POPC   C3A47249  43.089  22.179   7.050
 8038POPC   C4A47250  43.083  22.167   7.350
 8038POPC   C1B47251  43.388  22.104   6.450
 8038POPC   C2B47252  43.324  22.184   6.750
 8038POPC   C3B47253  43.360  22.119   7.050
 8038POPC   C4B47254  43.406  22.114   7.350
 8039POPC   NC347255  16.693  38.441   5.550
 8039POPC   PO447256  16.698  38.488   5.850
 8039POPC   GL147257  16.741  38.500   6.150
 8039POPC   GL247258  16.736  38.338   6.150
 8039POPC   C1A47259  16.773  38.468   6.450
 8039POPC   D2A47260  16.741  38.433   6.750
 8039POPC   C3A47261  16.704  38.435   7.050
 8039POPC   C4A47262  16.752  38.456   7.350
 8039POPC   C1B47263  16.787  38.177   6.450
 8039POPC   C2B47264  16.780  38.180   6.750
 8039POPC   C3B47265  16.761  38.234   7.050
 8039POPC   C4B47266  16.757  38.211   7.350
 8040POPC   NC347267  43.138   7.384   5.550
 8040POPC   PO447268  43.079   7.380   5.850
 8040POPC   GL147269  43.066   7.470   6.150
 8040POPC   GL247270  43.049   7.518   6.150
 8040POPC   C1A47271  43.153   7.394   6.450
 8040POPC   D2A47272  43.079   7.409   6.750
 8040POPC   C3A47273  43.126   7.414   7.050
 8040POPC   C4A47274  43.065   7.428   7.350
 8040POPC   C1B47275  42.879   7.533   6.450
 8040POPC   C2B47276  42.876   7.589   6.750
 8040POPC   C3B47277  42.911   7.573   7.050
 8040POPC   C4B47278  42.885   7.559   7.350
 8041POPC   NC347279   2.795   3.578   5.550
 8041POPC   PO447280   2.793   3.552   5.850
 8041POPC   GL147281   2.816   3.502   6.150
 8041POPC   GL247282   2.680   3.424   6.150
 8041POPC   C1A47283   2.746   3.546   6.450
 8041POPC   D2A47284   2.761   3.587   6.750
 8041POPC   C3A47285   2.757   3.522   7.050
 8041POPC   C4A47286   2.758   3.534   7.350
 8041POPC   C1B47287   2.559   3.354   6.450
 8041POPC   C2B47288   2.587   3.397   6.750
 8041POPC   C3B47289   2.549   3.315   7.050
 8041POPC   C4B47290   2.570   3.324   7.350
 8042POPC   NC347291  37.703  27.631   5.550
 8042POPC   PO447292  37.679  27.549   5.850
 8042POPC   GL147293  37.675  27.621   6.150
 8042POPC   GL247294  37.626  27.480   6.150
 8042POPC   C1A47295  37.702  27.630   6.450
 8042POPC   D2A47296  37.693  27.579   6.750
 8042POPC   C3A47297  37.639  27.633   7.050
 8042POPC   C4A47298  37.662  27.607   7.350
 8042POPC   C1B47299  37.676  27.389   6.450
 8042POPC   C2B47300  37.636  27.337   6.750
 8042POPC   C3B47301  37.581  27.387   7.050
 8042POPC   C4B47302  37.600  27.309   7.350
 8043POPC   NC347303  26.067   6.604   5.550
 8043POPC   PO447304  26.085   6.604   5.850
 8043POPC   GL147305  26.065   6.691   6.150
 8043POPC   GL247306  26.002   6.588   6.150
 8043POPC   C1A47307  26.074   6.622   6.450
 8043POPC   D2A47308  25.993   6.611   6.750
 8043POPC   C3A47309  26.081   6.608   7.050
 8043POPC   C4A47310  25.992   6.663   7.350
 8043POPC   C1B47311  25.875   6.415   6.450
 8043POPC   C2B47312  25.860   6.490   6.750
 8043POPC   C3B47313  25.927   6.489   7.050
 8043POPC   C4B47314  25.911   6.481   7.350
 8044POPC   NC347315  22.202   4.269   5.550
 8044POPC   PO447316  22.179   4.287   5.850
 8044POPC   GL147317  22.115   4.315   6.150
 8044POPC   GL247318  22.295   4.306   6.150
 8044POPC   C1A47319  22.151   4.327   6.450
 8044POPC   D2A47320  22.147   4.301   6.750
 8044POPC   C3A47321  22.172   4.282   7.050
 8044POPC   C4A47322  22.154   4.273   7.350
 8044POPC   C1B47323  22.429   4.294   6.450
 8044POPC   C2B47324  22.405   4.340   6.750
 8044POPC   C3B47325  22.400   4.338   7.050
 8044POPC   C4B47326  22.442   4.288   7.350
 8045POPC   NC347327  14.409  11.300   5.550
 8045POPC   PO447328  14.386  11.347   5.850
 8045POPC   GL147329  14.363  11.331   6.150
 8045POPC   GL247330  14.300  11.274   6.150
 8045POPC   C1A47331  14.409  11.270   6.450
 8045POPC   D2A47332  14.401  11.317   6.750
 8045POPC   C3A47333  14.413  11.270   7.050
 8045POPC   C4A47334  14.448  11.285   7.350
 8045POPC   C1B47335  14.207  11.378   6.450
 8045POPC   C2B47336  14.129  11.307   6.750
 8045POPC   C3B47337  14.164  11.294   7.050
 8045POPC   C4B47338  14.128  11.338   7.350
 8046POPC   NC347339  36.926  38.436   5.550
 8046POPC   PO447340  36.931  38.461   5.850
 8046POPC   GL147341  36.938  38.474   6.150
 8046POPC   GL247342  36.966  38.539   6.150
 8046POPC   C1A47343  36.889  38.469   6.450
 8046POPC   D2A47344  36.901  38.419   6.750
 8046POPC   C3A47345  36.894  38.454   7.050
 8046POPC   C4A47346  36.935  38.485   7.350
 8046POPC   C1B47347  37.074  38.644   6.450
 8046POPC   C2B47348  37.075  38.615   6.750
 8046POPC   C3B47349  37.101  38.597   7.050
 8046POPC   C4B47350  37.126  38.600   7.350
 8047POPC   NC347351  22.892   4.271   5.550
 8047POPC   PO447352  22.969   4.308   5.850
 8047POPC   GL147353  22.926   4.289   6.150
 8047POPC   GL247354  22.814   4.306   6.150
 8047POPC   C1A47355  22.919   4.302   6.450
 8047POPC   D2A47356  22.945   4.274   6.750
 8047POPC   C3A47357  22.894   4.280   7.050
 8047POPC   C4A47358  22.946   4.346   7.350
 8047POPC   C1B47359  22.725   4.355   6.450
 8047POPC   C2B47360  22.737   4.322   6.750
 8047POPC   C3B47361  22.724   4.366   7.050
 8047POPC   C4B47362  22.731   4.277   7.350
 8048POPC   NC347363  32.238  22.156   5.550
 8048POPC   PO447364  32.226  22.133   5.850
 8048POPC   GL147365  32.223  22.152   6.150
 8048POPC   GL247366  32.189  22.023   6.150
 8048POPC   C1A47367  32.293  22.118   6.450
 8048POPC   D2A47368  32.199  22.174   6.750
 8048POPC   C3A47369  32.220  22.204   7.050
 8048POPC   C4A47370  32.226  22.138   7.350
 8048POPC   C1B47371  32.083  21.992   6.450
 8048POPC   C2B47372  32.131  21.946   6.750
 8048POPC   C3B47373  32.136  21.920   7.050
 8048POPC   C4B47374  32.121  21.981   7.350
 8049POPC   NC347375  18.252  40.811   5.550
 8049POPC   PO447376  18.262  40.747   5.850
 8049POPC   GL147377  18.264  40.756   6.150
 8049POPC   GL247378  18.298  40.911   6.150
 8049POPC   C1A47379  18.234  40.831   6.450
 8049POPC   D2A47380  18.298  40.814   6.750
 8049POPC   C3A47381  18.264  40.733   7.050
 8049POPC   C4A47382  18.246  40.788   7.350
 8049POPC   C1B47383  18.376  41.046   6.450
 8049POPC   C2B47384  18.400  40.982   6.750
 8049POPC   C3B47385  18.341  40.981   7.050
 8049POPC   C4B47386  18.340  40.979   7.350
 8050POPC   NC347387   8.960  43.870   5.550
 8050POPC   PO447388   8.964  43.927   5.850
 8050POPC   GL147389   8.938  43.914   6.150
 8050POPC   GL247390   9.109  43.838   6.150
 8050POPC   C1A47391   8.962  43.840   6.450
 8050POPC   D2A47392   8.975  43.867   6.750
 8050POPC   C3A47393   8.933  43.915   7.050
 8050POPC   C4A47394   8.930  43.933   7.350
 8050POPC   C1B47395   9.194  43.841   6.450
 8050POPC   C2B47396   9.237  43.817   6.750
 8050POPC   C3B47397   9.240  43.839   7.050
 8050POPC   C4B47398   9.185  43.795   7.350
 8051POPC   NC347399  34.535  36.891   5.550
 8051POPC   PO447400  34.543  36.854   5.850
 8051POPC   GL147401  34.595  36.940   6.150
 8051POPC   GL247402  34.508  36.816   6.150
 8051POPC   C1A47403  34.550  36.859   6.450
 8051POPC   D2A47404  34.545  36.898   6.750
 8051POPC   C3A47405  34.566  36.875   7.050
 8051POPC   C4A47406  34.594  36.890   7.350
 8051POPC   C1B47407  34.446  36.662   6.450
 8051POPC   C2B47408  34.517  36.712   6.750
 8051POPC   C3B47409  34.530  36.666   7.050
 8051POPC   C4B47410  34.507  36.662   7.350
 8052POPC   NC347411  29.149  37.696   5.550
 8052POPC   PO447412  29.120  37.679   5.850
 8052POPC   GL147413  29.118  37.663   6.150
 8052POPC   GL247414  28.978  37.716   6.150
 8052POPC   C1A47415  29.101  37.631   6.450
 8052POPC   D2A47416  29.129  37.680   6.750
 8052POPC   C3A47417  29.137  37.722   7.050
 8052POPC   C4A47418  29.157  37.636   7.350
 8052POPC   C1B47419  28.886  37.678   6.450
 8052POPC   C2B47420  28.868  37.676   6.750
 8052POPC   C3B47421  28.871  37.660   7.050
 8052POPC   C4B47422  28.931  37.688   7.350
 8053POPC   NC347423  15.136  12.092   5.550
 8053POPC   PO447424  15.213  12.094   5.850
 8053POPC   GL147425  15.176  12.124   6.150
 8053POPC   GL247426  15.293  12.085   6.150
 8053POPC   C1A47427  15.134  12.083   6.450
 8053POPC   D2A47428  15.205  12.072   6.750
 8053POPC   C3A47429  15.226  12.059   7.050
 8053POPC   C4A47430  15.139  12.094   7.350
 8053POPC   C1B47431  15.432  12.182   6.450
 8053POPC   C2B47432  15.358  12.236   6.750
 8053POPC   C3B47433  15.399  12.149   7.050
 8053POPC   C4B47434  15.414  12.150   7.350
 8054POPC   NC347435  39.279  36.145   5.550
 8054POPC   PO447436  39.218  36.141   5.850
 8054POPC   GL147437  39.217  36.090   6.150
 8054POPC   GL247438  39.371  36.145   6.150
 8054POPC   C1A47439  39.232  36.166   6.450
 8054POPC   D2A47440  39.221  36.164   6.750
 8054POPC   C3A47441  39.195  36.120   7.050
 8054POPC   C4A47442  39.236  36.176   7.350
 8054POPC   C1B47443  39.443  36.053   6.450
 8054POPC   C2B47444  39.441  36.115   6.750
 8054POPC   C3B47445  39.490  36.097   7.050
 8054POPC   C4B47446  39.508  36.123   7.350
 8055POPC   NC347447  15.183  36.855   5.550
 8055POPC   PO447448  15.166  36.906   5.850
 8055POPC   GL147449  15.223  36.939   6.150
 8055POPC   GL247450  15.121  36.972   6.150
 8055POPC   C1A47451  15.171  36.949   6.450
 8055POPC   D2A47452  15.176  36.939   6.750
 8055POPC   C3A47453  15.157  36.952   7.050
 8055POPC   C4A47454  15.130  36.918   7.350
 8055POPC   C1B47455  15.055  37.117   6.450
 8055POPC   C2B47456  15.047  37.153   6.750
 8055POPC   C3B47457  15.037  37.130   7.050
 8055POPC   C4B47458  15.104  37.103   7.350
 8056POPC   NC347459  29.141   8.961   5.550
 8056POPC   PO447460  29.179   8.939   5.850
 8056POPC   GL147461  29.175   8.961   6.150
 8056POPC   GL247462  29.226   8.943   6.150
 8056POPC   C1A47463  29.152   8.973   6.450
 8056POPC   D2A47464  29.171   8.928   6.750
 8056POPC   C3A47465  29.171   8.996   7.050
 8056POPC   C4A47466  29.181   8.966   7.350
 8056POPC   C1B47467  29.375   8.924   6.450
 8056POPC   C2B47468  29.415   8.929   6.750
 8056POPC   C3B47469  29.416   8.847   7.050
 8056POPC   C4B47470  29.358   8.891   7.350
 8057POPC   NC347471  19.044  17.459   5.550
 8057POPC   PO447472  19.075  17.470   5.850
 8057POPC   GL147473  19.036  17.524   6.150
 8057POPC   GL247474  19.189  17.619   6.150
 8057POPC   C1A47475  19.039  17.548   6.450
 8057POPC   D2A47476  19.069  17.466   6.750
 8057POPC   C3A47477  19.050  17.478   7.050
 8057POPC   C4A47478  19.017  17.472   7.350
 8057POPC   C1B47479  19.227  17.677   6.450
 8057POPC   C2B47480  19.260  17.699   6.750
 8057POPC   C3B47481  19.250  17.744   7.050
 8057POPC   C4B47482  19.227  17.693   7.350
 8058POPC   NC347483  36.171  17.531   5.550
 8058POPC   PO447484  36.105  17.527   5.850
 8058POPC   GL147485  36.113  17.548   6.150
 8058POPC   GL247486  36.289  17.424   6.150
 8058POPC   C1A47487  36.153  17.492   6.450
 8058POPC   D2A47488  36.099  17.533   6.750
 8058POPC   C3A47489  36.138  17.520   7.050
 8058POPC   C4A47490  36.090  17.486   7.350
 8058POPC   C1B47491  36.379  17.460   6.450
 8058POPC   C2B47492  36.337  17.440   6.750
 8058POPC   C3B47493  36.387  17.446   7.050
 8058POPC   C4B47494  36.344  17.437   7.350
 8059POPC   NC347495   1.238   0.397   5.550
 8059POPC   PO447496   1.252   0.448   5.850
 8059POPC   GL147497   1.169   0.400   6.150
 8059POPC   GL247498   1.308   0.467   6.150
 8059POPC   C1A47499   1.256   0.408   6.450
 8059POPC   D2A47500   1.213   0.408   6.750
 8059POPC   C3A47501   1.174   0.394   7.050
 8059POPC   C4A47502   1.229   0.432   7.350
 8059POPC   C1B47503   1.455   0.465   6.450
 8059POPC   C2B47504   1.465   0.401   6.750
 8059POPC   C3B47505   1.455   0.410   7.050
 8059POPC   C4B47506   1.479   0.449   7.350
 8060POPC   NC347507  36.921  36.127   5.550
 8060POPC   PO447508  36.913  36.113   5.850
 8060POPC   GL147509  36.881  36.141   6.150
 8060POPC   GL247510  36.888  36.279   6.150
 8060POPC   C1A47511  36.906  36.177   6.450
 8060POPC   D2A47512  36.895  36.169   6.750
 8060POPC   C3A47513  36.887  36.133   7.050
 8060POPC   C4A47514  36.908  36.129   7.350
 8060POPC   C1B47515  36.959  36.378   6.450
 8060POPC   C2B47516  36.879  36.387   6.750
 8060POPC   C3B47517  36.940  36.410   7.050
 8060POPC   C4B47518  36.882  36.373   7.350
 8061POPC   NC347519  43.061  32.981   5.550
 8061POPC   PO447520  43.160  32.994   5.850
 8061POPC   GL147521  43.126  33.046   6.150
 8061POPC   GL247522  43.184  33.160   6.150
 8061POPC   C1A47523  43.118  33.011   6.450
 8061POPC   D2A47524  43.117  32.988   6.750
 8061POPC   C3A47525  43.101  33.042   7.050
 8061POPC   C4A47526  43.102  32.977   7.350
 8061POPC   C1B47527  43.223  33.282   6.450
 8061POPC   C2B47528  43.209  33.260   6.750
 8061POPC   C3B47529  43.229  33.266   7.050
 8061POPC   C4B47530  43.179  33.297   7.350
 8062POPC   NC347531   5.835  22.142   5.550
 8062POPC   PO447532   5.847  22.154   5.850
 8062POPC   GL147533   5.896  22.171   6.150
 8062POPC   GL247534   5.912  22.117   6.150
 8062POPC   C1A47535   5.865  22.114   6.450
 8062POPC   D2A47536   5.874  22.122   6.750
 8062POPC   C3A47537   5.916  22.148   7.050
 8062POPC   C4A47538   5.820  22.128   7.350
 8062POPC   C1B47539   6.006  21.942   6.450
 8062POPC   C2B47540   5.985  21.968   6.750
 8062POPC   C3B47541   5.996  21.999   7.050
 8062POPC   C4B47542   6.008  21.926   7.350
 8063POPC   NC347543  25.304   1.219   5.550
 8063POPC   PO447544  25.246   1.252   5.850
 8063POPC   GL147545  25.312   1.207   6.150
 8063POPC   GL247546  25.308   1.340   6.150
 8063POPC   C1A47547  25.294   1.237   6.450
 8063POPC   D2A47548  25.222   1.207   6.750
 8063POPC   C3A47549  25.221   1.238   7.050
 8063POPC   C4A47550  25.243   1.244   7.350
 8063POPC   C1B47551  25.351   1.454   6.450
 8063POPC   C2B47552  25.347   1.462   6.750
 8063POPC   C3B47553  25.336   1.434   7.050
 8063POPC   C4B47554  25.325   1.426   7.350
 8064POPC   NC347555  41.542   0.396   5.550
 8064POPC   PO447556  41.532   0.416   5.850
 8064POPC   GL147557  41.586   0.472   6.150
 8064POPC   GL247558  41.630   0.479   6.150
 8064POPC   C1A47559  41.544   0.460   6.450
 8064POPC   D2A47560  41.530   0.471   6.750
 8064POPC   C3A47561  41.607   0.395   7.050
 8064POPC   C4A47562  41.581   0.441   7.350
 8064POPC   C1B47563  41.770   0.601   6.450
 8064POPC   C2B47564  41.769   0.613   6.750
 8064POPC   C3B47565  41.786   0.566   7.050
 8064POPC   C4B47566  41.786   0.595   7.350
 8065POPC   NC347567  43.859  43.132   5.550
 8065POPC   PO447568  43.888  43.148   5.850
 8065POPC   GL147569  43.909  43.107   6.150
 8065POPC   GL247570  44.052  43.172   6.150
 8065POPC   C1A47571  43.933  43.120   6.450
 8065POPC   D2A47572  43.883  43.146   6.750
 8065POPC   C3A47573  43.916  43.120   7.050
 8065POPC   C4A47574  43.935  43.150   7.350
 8065POPC   C1B47575  44.168  43.121   6.450
 8065POPC   C2B47576  44.145  43.110   6.750
 8065POPC   C3B47577  44.155  43.171   7.050
 8065POPC   C4B47578  44.121  43.115   7.350
 8066POPC   NC347579   5.855  19.072   5.550
 8066POPC   PO447580   5.880  19.034   5.850
 8066POPC   GL147581   5.909  19.104   6.150
 8066POPC   GL247582   5.757  19.167   6.150
 8066POPC   C1A47583   5.841  19.106   6.450
 8066POPC   D2A47584   5.835  19.106   6.750
 8066POPC   C3A47585   5.917  19.082   7.050
 8066POPC   C4A47586   5.863  19.102   7.350
 8066POPC   C1B47587   5.703  19.272   6.450
 8066POPC   C2B47588   5.679  19.304   6.750
 8066POPC   C3B47589   5.688  19.300   7.050
 8066POPC   C4B47590   5.685  19.248   7.350
 8067POPC   NC347591   0.483  31.474   5.550
 8067POPC   PO447592   0.479  31.455   5.850
 8067POPC   GL147593   0.466  31.502   6.150
 8067POPC   GL247594   0.468  31.641   6.150
 8067POPC   C1A47595   0.427  31.423   6.450
 8067POPC   D2A47596   0.453  31.437   6.750
 8067POPC   C3A47597   0.477  31.439   7.050
 8067POPC   C4A47598   0.446  31.460   7.350
 8067POPC   C1B47599   0.522  31.692   6.450
 8067POPC   C2B47600   0.548  31.736   6.750
 8067POPC   C3B47601   0.523  31.760   7.050
 8067POPC   C4B47602   0.470  31.754   7.350
 8068POPC   NC347603  42.287  17.539   5.550
 8068POPC   PO447604  42.344  17.513   5.850
 8068POPC   GL147605  42.331  17.460   6.150
 8068POPC   GL247606  42.419  17.512   6.150
 8068POPC   C1A47607  42.383  17.487   6.450
 8068POPC   D2A47608  42.380  17.507   6.750
 8068POPC   C3A47609  42.317  17.479   7.050
 8068POPC   C4A47610  42.366  17.499   7.350
 8068POPC   C1B47611  42.548  17.482   6.450
 8068POPC   C2B47612  42.612  17.510   6.750
 8068POPC   C3B47613  42.597  17.532   7.050
 8068POPC   C4B47614  42.599  17.475   7.350
 8069POPC   NC347615  39.200  23.696   5.550
 8069POPC   PO447616  39.222  23.673   5.850
 8069POPC   GL147617  39.246  23.676   6.150
 8069POPC   GL247618  39.167  23.644   6.150
 8069POPC   C1A47619  39.255  23.738   6.450
 8069POPC   D2A47620  39.225  23.667   6.750
 8069POPC   C3A47621  39.187  23.749   7.050
 8069POPC   C4A47622  39.198  23.687   7.350
 8069POPC   C1B47623  39.025  23.521   6.450
 8069POPC   C2B47624  39.048  23.518   6.750
 8069POPC   C3B47625  39.016  23.511   7.050
 8069POPC   C4B47626  39.094  23.545   7.350
 8070POPC   NC347627  10.512  42.329   5.550
 8070POPC   PO447628  10.571  42.319   5.850
 8070POPC   GL147629  10.524  42.336   6.150
 8070POPC   GL247630  10.494  42.410   6.150
 8070POPC   C1A47631  10.566  42.359   6.450
 8070POPC   D2A47632  10.507  42.378   6.750
 8070POPC   C3A47633  10.497  42.375   7.050
 8070POPC   C4A47634  10.530  42.297   7.350
 8070POPC   C1B47635  10.378  42.546   6.450
 8070POPC   C2B47636  10.386  42.505   6.750
 8070POPC   C3B47637  10.324  42.523   7.050
 8070POPC   C4B47638  10.379  42.568   7.350
 8071POPC   NC347639  36.935  43.931   5.550
 8071POPC   PO447640  36.906  43.933   5.850
 8071POPC   GL147641  36.857  43.932   6.150
 8071POPC   GL247642  36.769  43.900   6.150
 8071POPC   C1A47643  36.949  43.899   6.450
 8071POPC   D2A47644  36.854  43.855   6.750
 8071POPC   C3A47645  36.919  43.869   7.050
 8071POPC   C4A47646  36.882  43.885   7.350
 8071POPC   C1B47647  36.679  44.004   6.450
 8071POPC   C2B47648  36.660  43.991   6.750
 8071POPC   C3B47649  36.706  43.996   7.050
 8071POPC   C4B47650  36.665  43.948   7.350
 8072POPC   NC347651   3.579   8.164   5.550
 8072POPC   PO447652   3.573   8.155   5.850
 8072POPC   GL147653   3.492   8.207   6.150
 8072POPC   GL247654   3.669   8.233   6.150
 8072POPC   C1A47655   3.569   8.239   6.450
 8072POPC   D2A47656   3.565   8.167   6.750
 8072POPC   C3A47657   3.546   8.181   7.050
 8072POPC   C4A47658   3.551   8.228   7.350
 8072POPC   C1B47659   3.730   8.308   6.450
 8072POPC   C2B47660   3.826   8.289   6.750
 8072POPC   C3B47661   3.735   8.307   7.050
 8072POPC   C4B47662   3.734   8.250   7.350
 8073POPC   NC347663  42.292   9.773   5.550
 8073POPC   PO447664  42.296   9.731   5.850
 8073POPC   GL147665  42.371   9.716   6.150
 8073POPC   GL247666  42.234   9.770   6.150
 8073POPC   C1A47667  42.355   9.732   6.450
 8073POPC   D2A47668  42.305   9.718   6.750
 8073POPC   C3A47669  42.344   9.770   7.050
 8073POPC   C4A47670  42.342   9.769   7.350
 8073POPC   C1B47671  42.108   9.836   6.450
 8073POPC   C2B47672  42.147   9.927   6.750
 8073POPC   C3B47673  42.085   9.870   7.050
 8073POPC   C4B47674  42.112   9.886   7.350
 8074POPC   NC347675   0.467  44.667   5.550
 8074POPC   PO447676   0.431  44.662   5.850
 8074POPC   GL147677   0.410  44.709   6.150
 8074POPC   GL247678   0.319  44.583   6.150
 8074POPC   C1A47679   0.467  44.651   6.450
 8074POPC   D2A47680   0.448  44.645   6.750
 8074POPC   C3A47681   0.417  44.656   7.050
 8074POPC   C4A47682   0.414  44.634   7.350
 8074POPC   C1B47683   0.224  44.599   6.450
 8074POPC   C2B47684   0.242  44.559   6.750
 8074POPC   C3B47685   0.168  44.576   7.050
 8074POPC   C4B47686   0.219  44.520   7.350
 8075POPC   NC347687   6.643  35.328   5.550
 8075POPC   PO447688   6.666  35.379   5.850
 8075POPC   GL147689   6.688  35.381   6.150
 8075POPC   GL247690   6.713  35.255   6.150
 8075POPC   C1A47691   6.654  35.305   6.450
 8075POPC   D2A47692   6.616  35.394   6.750
 8075POPC   C3A47693   6.661  35.387   7.050
 8075POPC   C4A47694   6.644  35.335   7.350
 8075POPC   C1B47695   6.756  35.070   6.450
 8075POPC   C2B47696   6.755  35.086   6.750
 8075POPC   C3B47697   6.754  35.144   7.050
 8075POPC   C4B47698   6.695  35.138   7.350
 8076POPC   NC347699  28.365  26.025   5.550
 8076POPC   PO447700  28.367  26.081   5.850
 8076POPC   GL147701  28.356  26.080   6.150
 8076POPC   GL247702  28.310  25.905   6.150
 8076POPC   C1A47703  28.339  26.037   6.450
 8076POPC   D2A47704  28.357  26.057   6.750
 8076POPC   C3A47705  28.322  26.017   7.050
 8076POPC   C4A47706  28.330  26.069   7.350
 8076POPC   C1B47707  28.210  25.788   6.450
 8076POPC   C2B47708  28.260  25.815   6.750
 8076POPC   C3B47709  28.216  25.809   7.050
 8076POPC   C4B47710  28.240  25.854   7.350
 8077POPC   NC347711  39.255  43.888   5.550
 8077POPC   PO447712  39.277  43.917   5.850
 8077POPC   GL147713  39.203  43.919   6.150
 8077POPC   GL247714  39.168  43.827   6.150
 8077POPC   C1A47715  39.253  43.907   6.450
 8077POPC   D2A47716  39.261  43.924   6.750
 8077POPC   C3A47717  39.267  43.920   7.050
 8077POPC   C4A47718  39.210  43.875   7.350
 8077POPC   C1B47719  39.057  43.646   6.450
 8077POPC   C2B47720  39.045  43.678   6.750
 8077POPC   C3B47721  39.133  43.667   7.050
 8077POPC   C4B47722  39.054  43.691   7.350
 8078POPC   NC347723  38.418  28.398   5.550
 8078POPC   PO447724  38.442  28.327   5.850
 8078POPC   GL147725  38.433  28.354   6.150
 8078POPC   GL247726  38.529  28.259   6.150
 8078POPC   C1A47727  38.423  28.368   6.450
 8078POPC   D2A47728  38.442  28.346   6.750
 8078POPC   C3A47729  38.491  28.387   7.050
 8078POPC   C4A47730  38.436  28.332   7.350
 8078POPC   C1B47731  38.529  28.118   6.450
 8078POPC   C2B47732  38.578  28.197   6.750
 8078POPC   C3B47733  38.572  28.144   7.050
 8078POPC   C4B47734  38.549  28.145   7.350
 8079POPC   NC347735  22.205  22.932   5.550
 8079POPC   PO447736  22.209  22.933   5.850
 8079POPC   GL147737  22.154  22.953   6.150
 8079POPC   GL247738  22.128  22.846   6.150
 8079POPC   C1A47739  22.127  22.980   6.450
 8079POPC   D2A47740  22.119  22.916   6.750
 8079POPC   C3A47741  22.168  22.911   7.050
 8079POPC   C4A47742  22.199  22.898   7.350
 8079POPC   C1B47743  22.079  22.733   6.450
 8079POPC   C2B47744  22.059  22.745   6.750
 8079POPC   C3B47745  22.059  22.682   7.050
 8079POPC   C4B47746  22.117  22.738   7.350
 8080POPC   NC347747  36.131  32.992   5.550
 8080POPC   PO447748  36.101  33.044   5.850
 8080POPC   GL147749  36.162  33.009   6.150
 8080POPC   GL247750  36.075  32.869   6.150
 8080POPC   C1A47751  36.108  32.976   6.450
 8080POPC   D2A47752  36.084  32.991   6.750
 8080POPC   C3A47753  36.133  32.975   7.050
 8080POPC   C4A47754  36.157  33.070   7.350
 8080POPC   C1B47755  36.011  32.758   6.450
 8080POPC   C2B47756  35.989  32.819   6.750
 8080POPC   C3B47757  35.986  32.768   7.050
 8080POPC   C4B47758  36.012  32.747   7.350
 8081POPC   NC347759  20.578  21.408   5.550
 8081POPC   PO447760  20.654  21.397   5.850
 8081POPC   GL147761  20.611  21.407   6.150
 8081POPC   GL247762  20.681  21.302   6.150
 8081POPC   C1A47763  20.579  21.386   6.450
 8081POPC   D2A47764  20.595  21.357   6.750
 8081POPC   C3A47765  20.562  21.386   7.050
 8081POPC   C4A47766  20.623  21.338   7.350
 8081POPC   C1B47767  20.828  21.152   6.450
 8081POPC   C2B47768  20.815  21.218   6.750
 8081POPC   C3B47769  20.812  21.191   7.050
 8081POPC   C4B47770  20.803  21.182   7.350
 8082POPC   NC347771   5.126  28.356   5.550
 8082POPC   PO447772   5.142  28.381   5.850
 8082POPC   GL147773   5.070  28.402   6.150
 8082POPC   GL247774   5.084  28.473   6.150
 8082POPC   C1A47775   5.094  28.390   6.450
 8082POPC   D2A47776   5.044  28.333   6.750
 8082POPC   C3A47777   5.142  28.414   7.050
 8082POPC   C4A47778   5.092  28.373   7.350
 8082POPC   C1B47779   5.121  28.582   6.450
 8082POPC   C2B47780   5.084  28.658   6.750
 8082POPC   C3B47781   5.108  28.596   7.050
 8082POPC   C4B47782   5.099  28.613   7.350
 8083POPC   NC347783  39.255  22.965   5.550
 8083POPC   PO447784  39.186  22.969   5.850
 8083POPC   GL147785  39.276  22.944   6.150
 8083POPC   GL247786  39.094  22.937   6.150
 8083POPC   C1A47787  39.230  22.963   6.450
 8083POPC   D2A47788  39.241  22.986   6.750
 8083POPC   C3A47789  39.278  22.966   7.050
 8083POPC   C4A47790  39.187  22.969   7.350
 8083POPC   C1B47791  38.962  22.954   6.450
 8083POPC   C2B47792  38.955  22.921   6.750
 8083POPC   C3B47793  38.978  22.883   7.050
 8083POPC   C4B47794  38.935  22.929   7.350
 8084POPC   NC347795   1.216   8.971   5.550
 8084POPC   PO447796   1.223   9.018   5.850
 8084POPC   GL147797   1.260   9.007   6.150
 8084POPC   GL247798   1.309   8.956   6.150
 8084POPC   C1A47799   1.210   8.934   6.450
 8084POPC   D2A47800   1.168   8.941   6.750
 8084POPC   C3A47801   1.210   8.985   7.050
 8084POPC   C4A47802   1.196   8.985   7.350
 8084POPC   C1B47803   1.438   8.878   6.450
 8084POPC   C2B47804   1.434   8.895   6.750
 8084POPC   C3B47805   1.408   8.826   7.050
 8084POPC   C4B47806   1.471   8.837   7.350
 8085POPC   NC347807  26.770  43.156   5.550
 8085POPC   PO447808  26.828  43.138   5.850
 8085POPC   GL147809  26.847  43.105   6.150
 8085POPC   GL247810  26.910  42.945   6.150
 8085POPC   C1A47811  26.839  43.118   6.450
 8085POPC   D2A47812  26.771  43.123   6.750
 8085POPC   C3A47813  26.784  43.123   7.050
 8085POPC   C4A47814  26.821  43.137   7.350
 8085POPC   C1B47815  26.904  42.832   6.450
 8085POPC   C2B47816  26.877  42.849   6.750
 8085POPC   C3B47817  26.867  42.868   7.050
 8085POPC   C4B47818  26.882  42.874   7.350
 8086POPC   NC347819  26.781  35.333   5.550
 8086POPC   PO447820  26.806  35.360   5.850
 8086POPC   GL147821  26.793  35.309   6.150
 8086POPC   GL247822  26.713  35.270   6.150
 8086POPC   C1A47823  26.850  35.391   6.450
 8086POPC   D2A47824  26.842  35.315   6.750
 8086POPC   C3A47825  26.827  35.306   7.050
 8086POPC   C4A47826  26.819  35.383   7.350
 8086POPC   C1B47827  26.625  35.156   6.450
 8086POPC   C2B47828  26.667  35.145   6.750
 8086POPC   C3B47829  26.693  35.160   7.050
 8086POPC   C4B47830  26.659  35.193   7.350
 8087POPC   NC347831  32.998  18.276   5.550
 8087POPC   PO447832  33.073  18.251   5.850
 8087POPC   GL147833  33.038  18.244   6.150
 8087POPC   GL247834  32.955  18.222   6.150
 8087POPC   C1A47835  33.022  18.323   6.450
 8087POPC   D2A47836  32.981  18.279   6.750
 8087POPC   C3A47837  33.041  18.317   7.050
 8087POPC   C4A47838  33.070  18.253   7.350
 8087POPC   C1B47839  32.911  18.076   6.450
 8087POPC   C2B47840  32.900  18.076   6.750
 8087POPC   C3B47841  32.940  18.084   7.050
 8087POPC   C4B47842  32.862  18.079   7.350
 8088POPC   NC347843  37.707  28.321   5.550
 8088POPC   PO447844  37.656  28.403   5.850
 8088POPC   GL147845  37.717  28.369   6.150
 8088POPC   GL247846  37.591  28.422   6.150
 8088POPC   C1A47847  37.637  28.360   6.450
 8088POPC   D2A47848  37.662  28.358   6.750
 8088POPC   C3A47849  37.680  28.408   7.050
 8088POPC   C4A47850  37.634  28.359   7.350
 8088POPC   C1B47851  37.443  28.476   6.450
 8088POPC   C2B47852  37.432  28.521   6.750
 8088POPC   C3B47853  37.427  28.477   7.050
 8088POPC   C4B47854  37.421  28.461   7.350
 8089POPC   NC347855  33.837  44.702   5.550
 8089POPC   PO447856  33.798  44.683   5.850
 8089POPC   GL147857  33.759  44.707   6.150
 8089POPC   GL247858  33.803  44.520   6.150
 8089POPC   C1A47859  33.790  44.691   6.450
 8089POPC   D2A47860  33.849  44.685   6.750
 8089POPC   C3A47861  33.835  44.685   7.050
 8089POPC   C4A47862  33.799  44.656   7.350
 8089POPC   C1B47863  33.935  44.426   6.450
 8089POPC   C2B47864  33.867  44.443   6.750
 8089POPC   C3B47865  33.927  44.421   7.050
 8089POPC   C4B47866  33.918  44.431   7.350
 8090POPC   NC347867  11.322  14.445   5.550
 8090POPC   PO447868  11.290  14.450   5.850
 8090POPC   GL147869  11.318  14.362   6.150
 8090POPC   GL247870  11.232  14.352   6.150
 8090POPC   C1A47871  11.310  14.448   6.450
 8090POPC   D2A47872  11.297  14.380   6.750
 8090POPC   C3A47873  11.286  14.415   7.050
 8090POPC   C4A47874  11.259  14.443   7.350
 8090POPC   C1B47875  11.064  14.284   6.450
 8090POPC   C2B47876  11.134  14.254   6.750
 8090POPC   C3B47877  11.146  14.206   7.050
 8090POPC   C4B47878  11.123  14.292   7.350
 8091POPC   NC347879  33.812  39.235   5.550
 8091POPC   PO447880  33.849  39.248   5.850
 8091POPC   GL147881  33.815  39.241   6.150
 8091POPC   GL247882  33.887  39.239   6.150
 8091POPC   C1A47883  33.774  39.246   6.450
 8091POPC   D2A47884  33.792  39.253   6.750
 8091POPC   C3A47885  33.755  39.221   7.050
 8091POPC   C4A47886  33.836  39.184   7.350
 8091POPC   C1B47887  34.091  39.181   6.450
 8091POPC   C2B47888  34.044  39.136   6.750
 8091POPC   C3B47889  34.084  39.197   7.050
 8091POPC   C4B47890  34.081  39.227   7.350
 8092POPC   NC347891  15.958  36.872   5.550
 8092POPC   PO447892  15.942  36.897   5.850
 8092POPC   GL147893  15.909  36.860   6.150
 8092POPC   GL247894  16.024  37.013   6.150
 8092POPC   C1A47895  15.999  36.951   6.450
 8092POPC   D2A47896  15.953  36.945   6.750
 8092POPC   C3A47897  15.940  36.867   7.050
 8092POPC   C4A47898  15.932  36.859   7.350
 8092POPC   C1B47899  16.128  37.079   6.450
 8092POPC   C2B47900  16.110  37.127   6.750
 8092POPC   C3B47901  16.101  37.110   7.050
 8092POPC   C4B47902  16.168  37.124   7.350
 8093POPC   NC347903   6.599   6.656   5.550
 8093POPC   PO447904   6.678   6.596   5.850
 8093POPC   GL147905   6.679   6.648   6.150
 8093POPC   GL247906   6.538   6.583   6.150
 8093POPC   C1A47907   6.642   6.667   6.450
 8093POPC   D2A47908   6.669   6.664   6.750
 8093POPC   C3A47909   6.596   6.673   7.050
 8093POPC   C4A47910   6.662   6.670   7.350
 8093POPC   C1B47911   6.386   6.473   6.450
 8093POPC   C2B47912   6.389   6.475   6.750
 8093POPC   C3B47913   6.392   6.547   7.050
 8093POPC   C4B47914   6.409   6.480   7.350
 8094POPC   NC347915  33.813  31.463   5.550
 8094POPC   PO447916  33.760  31.494   5.850
 8094POPC   GL147917  33.821  31.502   6.150
 8094POPC   GL247918  33.812  31.606   6.150
 8094POPC   C1A47919  33.803  31.445   6.450
 8094POPC   D2A47920  33.814  31.435   6.750
 8094POPC   C3A47921  33.822  31.509   7.050
 8094POPC   C4A47922  33.811  31.462   7.350
 8094POPC   C1B47923  33.824  31.715   6.450
 8094POPC   C2B47924  33.888  31.745   6.750
 8094POPC   C3B47925  33.875  31.752   7.050
 8094POPC   C4B47926  33.880  31.752   7.350
 8095POPC   NC347927  24.483  26.841   5.550
 8095POPC   PO447928  24.480  26.824   5.850
 8095POPC   GL147929  24.498  26.808   6.150
 8095POPC   GL247930  24.356  26.760   6.150
 8095POPC   C1A47931  24.443  26.777   6.450
 8095POPC   D2A47932  24.492  26.830   6.750
 8095POPC   C3A47933  24.526  26.798   7.050
 8095POPC   C4A47934  24.449  26.814   7.350
 8095POPC   C1B47935  24.271  26.718   6.450
 8095POPC   C2B47936  24.281  26.674   6.750
 8095POPC   C3B47937  24.279  26.629   7.050
 8095POPC   C4B47938  24.302  26.662   7.350
 8096POPC   NC347939  43.123  22.900   5.550
 8096POPC   PO447940  43.128  22.909   5.850
 8096POPC   GL147941  43.157  22.952   6.150
 8096POPC   GL247942  43.232  22.855   6.150
 8096POPC   C1A47943  43.091  22.905   6.450
 8096POPC   D2A47944  43.143  22.946   6.750
 8096POPC   C3A47945  43.124  22.896   7.050
 8096POPC   C4A47946  43.122  22.897   7.350
 8096POPC   C1B47947  43.283  22.813   6.450
 8096POPC   C2B47948  43.374  22.807   6.750
 8096POPC   C3B47949  43.361  22.776   7.050
 8096POPC   C4B47950  43.357  22.822   7.350
 8097POPC   NC347951  12.121   8.238   5.550
 8097POPC   PO447952  12.108   8.230   5.850
 8097POPC   GL147953  12.057   8.163   6.150
 8097POPC   GL247954  12.226   8.255   6.150
 8097POPC   C1A47955  12.095   8.151   6.450
 8097POPC   D2A47956  12.068   8.150   6.750
 8097POPC   C3A47957  12.031   8.159   7.050
 8097POPC   C4A47958  12.037   8.152   7.350
 8097POPC   C1B47959  12.266   8.285   6.450
 8097POPC   C2B47960  12.322   8.364   6.750
 8097POPC   C3B47961  12.252   8.323   7.050
 8097POPC   C4B47962  12.321   8.319   7.350
 8098POPC   NC347963  15.905  17.544   5.550
 8098POPC   PO447964  15.954  17.549   5.850
 8098POPC   GL147965  15.993  17.457   6.150
 8098POPC   GL247966  15.802  17.492   6.150
 8098POPC   C1A47967  15.969  17.491   6.450
 8098POPC   D2A47968  15.970  17.479   6.750
 8098POPC   C3A47969  15.985  17.461   7.050
 8098POPC   C4A47970  15.952  17.482   7.350
 8098POPC   C1B47971  15.695  17.474   6.450
 8098POPC   C2B47972  15.665  17.466   6.750
 8098POPC   C3B47973  15.721  17.516   7.050
 8098POPC   C4B47974  15.663  17.505   7.350
 8099POPC   NC347975  12.113  26.810   5.550
 8099POPC   PO447976  12.065  26.823   5.850
 8099POPC   GL147977  12.104  26.790   6.150
 8099POPC   GL247978  12.242  26.758   6.150
 8099POPC   C1A47979  12.028  26.778   6.450
 8099POPC   D2A47980  12.102  26.849   6.750
 8099POPC   C3A47981  12.029  26.807   7.050
 8099POPC   C4A47982  12.101  26.811   7.350
 8099POPC   C1B47983  12.360  26.716   6.450
 8099POPC   C2B47984  12.348  26.732   6.750
 8099POPC   C3B47985  12.337  26.729   7.050
 8099POPC   C4B47986  12.261  26.756   7.350
 8100POPC   NC347987  44.622  12.856   5.550
 8100POPC   PO447988  44.709  12.843   5.850
 8100POPC   GL147989  44.651  12.897   6.150
 8100POPC   GL247990  44.697  12.741   6.150
 8100POPC   C1A47991  44.673  12.846   6.450
 8100POPC   D2A47992  44.690  12.814   6.750
 8100POPC   C3A47993  44.695  12.818   7.050
 8100POPC   C4A47994  44.705  12.884   7.350
 8100POPC   C1B47995  44.772  12.659   6.450
 8100POPC   C2B47996  44.733  12.615   6.750
 8100POPC   C3B47997  44.767  12.610   7.050
 8100POPC   C4B47998  44.687  12.642   7.350
 8101POPC   NC347999  26.005  44.654   5.550
 8101POPC   PO448000  25.999  44.710   5.850
 8101POPC   GL148001  26.076  44.621   6.150
 8101POPC   GL248002  26.067  44.745   6.150
 8101POPC   C1A48003  26.058  44.619   6.450
 8101POPC   D2A48004  26.044  44.669   6.750
 8101POPC   C3A48005  26.089  44.614   7.050
 8101POPC   C4A48006  26.062  44.656   7.350
 8101POPC   C1B48007  26.108  44.933   6.450
 8101POPC   C2B48008  26.088  44.901   6.750
 8101POPC   C3B48009  26.053  44.932   7.050
 8101POPC   C4B48010  26.043  44.935   7.350
 8102POPC   NC348011  35.382  42.361   5.550
 8102POPC   PO448012  35.362  42.293   5.850
 8102POPC   GL148013  35.349  42.311   6.150
 8102POPC   GL248014  35.424  42.288   6.150
 8102POPC   C1A48015  35.362  42.328   6.450
 8102POPC   D2A48016  35.304  42.329   6.750
 8102POPC   C3A48017  35.303  42.324   7.050
 8102POPC   C4A48018  35.333  42.338   7.350
 8102POPC   C1B48019  35.552  42.164   6.450
 8102POPC   C2B48020  35.518  42.167   6.750
 8102POPC   C3B48021  35.564  42.165   7.050
 8102POPC   C4B48022  35.550  42.159   7.350
 8103POPC   NC348023  36.162  32.216   5.550
 8103POPC   PO448024  36.140  32.255   5.850
 8103POPC   GL148025  36.109  32.290   6.150
 8103POPC   GL248026  36.268  32.297   6.150
 8103POPC   C1A48027  36.078  32.233   6.450
 8103POPC   D2A48028  36.155  32.276   6.750
 8103POPC   C3A48029  36.091  32.283   7.050
 8103POPC   C4A48030  36.157  32.234   7.350
 8103POPC   C1B48031  36.337  32.369   6.450
 8103POPC   C2B48032  36.369  32.315   6.750
 8103POPC   C3B48033  36.321  32.355   7.050
 8103POPC   C4B48034  36.373  32.348   7.350
 8104POPC   NC348035  20.617  29.890   5.550
 8104POPC   PO448036  20.568  29.959   5.850
 8104POPC   GL148037  20.625  29.902   6.150
 8104POPC   GL248038  20.701  30.058   6.150
 8104POPC   C1A48039  20.571  29.885   6.450
 8104POPC   D2A48040  20.649  29.945   6.750
 8104POPC   C3A48041  20.651  29.949   7.050
 8104POPC   C4A48042  20.654  29.934   7.350
 8104POPC   C1B48043  20.712  30.193   6.450
 8104POPC   C2B48044  20.749  30.120   6.750
 8104POPC   C3B48045  20.745  30.147   7.050
 8104POPC   C4B48046  20.702  30.100   7.350
 8105POPC   NC348047  29.882   6.688   5.550
 8105POPC   PO448048  29.957   6.686   5.850
 8105POPC   GL148049  29.934   6.601   6.150
 8105POPC   GL248050  29.801   6.677   6.150
 8105POPC   C1A48051  29.965   6.654   6.450
 8105POPC   D2A48052  29.908   6.656   6.750
 8105POPC   C3A48053  29.919   6.636   7.050
 8105POPC   C4A48054  29.946   6.628   7.350
 8105POPC   C1B48055  29.693   6.583   6.450
 8105POPC   C2B48056  29.704   6.586   6.750
 8105POPC   C3B48057  29.677   6.651   7.050
 8105POPC   C4B48058  29.627   6.621   7.350
 8106POPC   NC348059  24.487  12.805   5.550
 8106POPC   PO448060  24.467  12.813   5.850
 8106POPC   GL148061  24.528  12.863   6.150
 8106POPC   GL248062  24.460  12.770   6.150
 8106POPC   C1A48063  24.441  12.858   6.450
 8106POPC   D2A48064  24.539  12.802   6.750
 8106POPC   C3A48065  24.457  12.811   7.050
 8106POPC   C4A48066  24.477  12.895   7.350
 8106POPC   C1B48067  24.440  12.606   6.450
 8106POPC   C2B48068  24.481  12.557   6.750
 8106POPC   C3B48069  24.531  12.558   7.050
 8106POPC   C4B48070  24.486  12.562   7.350
 8107POPC   NC348071   3.550  19.850   5.550
 8107POPC   PO448072   3.562  19.825   5.850
 8107POPC   GL148073   3.494  19.849   6.150
 8107POPC   GL248074   3.515  19.689   6.150
 8107POPC   C1A48075   3.519  19.837   6.450
 8107POPC   D2A48076   3.532  19.861   6.750
 8107POPC   C3A48077   3.571  19.821   7.050
 8107POPC   C4A48078   3.591  19.837   7.350
 8107POPC   C1B48079   3.473  19.635   6.450
 8107POPC   C2B48080   3.539  19.587   6.750
 8107POPC   C3B48081   3.475  19.551   7.050
 8107POPC   C4B48082   3.532  19.581   7.350
 8108POPC   NC348083  26.839   6.666   5.550
 8108POPC   PO448084  26.815   6.616   5.850
 8108POPC   GL148085  26.772   6.647   6.150
 8108POPC   GL248086  26.857   6.785   6.150
 8108POPC   C1A48087  26.772   6.612   6.450
 8108POPC   D2A48088  26.820   6.651   6.750
 8108POPC   C3A48089  26.827   6.676   7.050
 8108POPC   C4A48090  26.828   6.636   7.350
 8108POPC   C1B48091  26.973   6.813   6.450
 8108POPC   C2B48092  26.968   6.865   6.750
 8108POPC   C3B48093  27.000   6.864   7.050
 8108POPC   C4B48094  27.001   6.837   7.350
 8109POPC   NC348095   5.075  11.276   5.550
 8109POPC   PO448096   5.083  11.300   5.850
 8109POPC   GL148097   5.077  11.265   6.150
 8109POPC   GL248098   5.018  11.412   6.150
 8109POPC   C1A48099   5.083  11.321   6.450
 8109POPC   D2A48100   5.071  11.321   6.750
 8109POPC   C3A48101   5.135  11.274   7.050
 8109POPC   C4A48102   5.117  11.308   7.350
 8109POPC   C1B48103   4.906  11.479   6.450
 8109POPC   C2B48104   4.910  11.433   6.750
 8109POPC   C3B48105   4.898  11.419   7.050
 8109POPC   C4B48106   4.907  11.439   7.350
 8110POPC   NC348107  38.453  33.763   5.550
 8110POPC   PO448108  38.450  33.838   5.850
 8110POPC   GL148109  38.438  33.786   6.150
 8110POPC   GL248110  38.565  33.759   6.150
 8110POPC   C1A48111  38.504  33.809   6.450
 8110POPC   D2A48112  38.463  33.753   6.750
 8110POPC   C3A48113  38.488  33.812   7.050
 8110POPC   C4A48114  38.487  33.754   7.350
 8110POPC   C1B48115  38.689  33.759   6.450
 8110POPC   C2B48116  38.648  33.693   6.750
 8110POPC   C3B48117  38.743  33.725   7.050
 8110POPC   C4B48118  38.706  33.784   7.350
 8111POPC   NC348119  30.734  37.703   5.550
 8111POPC   PO448120  30.723  37.655   5.850
 8111POPC   GL148121  30.706  37.649   6.150
 8111POPC   GL248122  30.766  37.806   6.150
 8111POPC   C1A48123  30.679  37.705   6.450
 8111POPC   D2A48124  30.679  37.638   6.750
 8111POPC   C3A48125  30.656  37.632   7.050
 8111POPC   C4A48126  30.707  37.714   7.350
 8111POPC   C1B48127  30.885  37.790   6.450
 8111POPC   C2B48128  30.908  37.851   6.750
 8111POPC   C3B48129  30.856  37.827   7.050
 8111POPC   C4B48130  30.886  37.805   7.350
 8112POPC   NC348131   1.999  39.959   5.550
 8112POPC   PO448132   1.983  39.962   5.850
 8112POPC   GL148133   1.966  40.008   6.150
 8112POPC   GL248134   1.968  39.939   6.150
 8112POPC   C1A48135   2.021  40.016   6.450
 8112POPC   D2A48136   1.950  40.041   6.750
 8112POPC   C3A48137   1.954  39.962   7.050
 8112POPC   C4A48138   1.943  40.023   7.350
 8112POPC   C1B48139   1.843  39.756   6.450
 8112POPC   C2B48140   1.841  39.835   6.750
 8112POPC   C3B48141   1.840  39.770   7.050
 8112POPC   C4B48142   1.850  39.839   7.350
 8113POPC   NC348143  35.396   5.068   5.550
 8113POPC   PO448144  35.356   5.124   5.850
 8113POPC   GL148145  35.312   5.079   6.150
 8113POPC   GL248146  35.455   5.046   6.150
 8113POPC   C1A48147  35.353   5.088   6.450
 8113POPC   D2A48148  35.321   5.096   6.750
 8113POPC   C3A48149  35.340   5.078   7.050
 8113POPC   C4A48150  35.366   5.044   7.350
 8113POPC   C1B48151  35.490   4.924   6.450
 8113POPC   C2B48152  35.505   4.886   6.750
 8113POPC   C3B48153  35.543   4.919   7.050
 8113POPC   C4B48154  35.497   4.936   7.350
 8114POPC   NC348155  34.533  40.764   5.550
 8114POPC   PO448156  34.609  40.791   5.850
 8114POPC   GL148157  34.573  40.798   6.150
 8114POPC   GL248158  34.514  40.673   6.150
 8114POPC   C1A48159  34.614  40.814   6.450
 8114POPC   D2A48160  34.620  40.806   6.750
 8114POPC   C3A48161  34.613  40.824   7.050
 8114POPC   C4A48162  34.575  40.764   7.350
 8114POPC   C1B48163  34.380  40.653   6.450
 8114POPC   C2B48164  34.373  40.603   6.750
 8114POPC   C3B48165  34.398  40.589   7.050
 8114POPC   C4B48166  34.401  40.598   7.350
 8115POPC   NC348167  10.476  44.705   5.550
 8115POPC   PO448168  10.545  44.648   5.850
 8115POPC   GL148169  10.499  44.627   6.150
 8115POPC   GL248170  10.386  44.657   6.150
 8115POPC   C1A48171  10.547  44.625   6.450
 8115POPC   D2A48172  10.574  44.674   6.750
 8115POPC   C3A48173  10.475  44.637   7.050
 8115POPC   C4A48174  10.568  44.677   7.350
 8115POPC   C1B48175  10.240  44.527   6.450
 8115POPC   C2B48176  10.298  44.567   6.750
 8115POPC   C3B48177  10.253  44.532   7.050
 8115POPC   C4B48178  10.285  44.556   7.350
 8116POPC   NC348179  23.714   8.958   5.550
 8116POPC   PO448180  23.752   8.936   5.850
 8116POPC   GL148181  23.669   8.931   6.150
 8116POPC   GL248182  23.799   9.081   6.150
 8116POPC   C1A48183  23.754   8.944   6.450
 8116POPC   D2A48184  23.698   8.958   6.750
 8116POPC   C3A48185  23.729   8.956   7.050
 8116POPC   C4A48186  23.756   8.941   7.350
 8116POPC   C1B48187  23.906   9.121   6.450
 8116POPC   C2B48188  23.875   9.151   6.750
 8116POPC   C3B48189  23.853   9.160   7.050
 8116POPC   C4B48190  23.928   9.186   7.350
 8117POPC   NC348191  30.719  39.232   5.550
 8117POPC   PO448192  30.710  39.246   5.850
 8117POPC   GL148193  30.680  39.257   6.150
 8117POPC   GL248194  30.648  39.396   6.150
 8117POPC   C1A48195  30.677  39.233   6.450
 8117POPC   D2A48196  30.685  39.214   6.750
 8117POPC   C3A48197  30.702  39.220   7.050
 8117POPC   C4A48198  30.744  39.216   7.350
 8117POPC   C1B48199  30.603  39.493   6.450
 8117POPC   C2B48200  30.629  39.500   6.750
 8117POPC   C3B48201  30.608  39.461   7.050
 8117POPC   C4B48202  30.657  39.510   7.350
 8118POPC   NC348203  44.711  32.268   5.550
 8118POPC   PO448204  44.655  32.209   5.850
 8118POPC   GL148205  44.710  32.242   6.150
 8118POPC   GL248206  44.582  32.134   6.150
 8118POPC   C1A48207  44.635  32.283   6.450
 8118POPC   D2A48208  44.699  32.292   6.750
 8118POPC   C3A48209  44.632  32.288   7.050
 8118POPC   C4A48210  44.666  32.245   7.350
 8118POPC   C1B48211  44.429  32.129   6.450
 8118POPC   C2B48212  44.457  32.133   6.750
 8118POPC   C3B48213  44.469  32.063   7.050
 8118POPC   C4B48214  44.443  32.108   7.350
 8119POPC   NC348215  33.775  43.075   5.550
 8119POPC   PO448216  33.777  43.071   5.850
 8119POPC   GL148217  33.849  43.080   6.150
 8119POPC   GL248218  33.841  42.967   6.150
 8119POPC   C1A48219  33.791  43.114   6.450
 8119POPC   D2A48220  33.763  43.084   6.750
 8119POPC   C3A48221  33.784  43.155   7.050
 8119POPC   C4A48222  33.764  43.086   7.350
 8119POPC   C1B48223  33.908  42.917   6.450
 8119POPC   C2B48224  33.853  42.898   6.750
 8119POPC   C3B48225  33.935  42.859   7.050
 8119POPC   C4B48226  33.863  42.872   7.350
 8120POPC   NC348227  40.043  36.936   5.550
 8120POPC   PO448228  39.975  36.884   5.850
 8120POPC   GL148229  40.046  36.901   6.150
 8120POPC   GL248230  40.136  36.957   6.150
 8120POPC   C1A48231  40.016  36.895   6.450
 8120POPC   D2A48232  39.960  36.874   6.750
 8120POPC   C3A48233  40.040  36.949   7.050
 8120POPC   C4A48234  40.001  36.953   7.350
 8120POPC   C1B48235  40.289  37.017   6.450
 8120POPC   C2B48236  40.232  36.958   6.750
 8120POPC   C3B48237  40.256  36.965   7.050
 8120POPC   C4B48238  40.290  36.986   7.350
 8121POPC   NC348239  11.314   9.773   5.550
 8121POPC   PO448240  11.337   9.748   5.850
 8121POPC   GL148241  11.308   9.779   6.150
 8121POPC   GL248242  11.415   9.828   6.150
 8121POPC   C1A48243  11.281   9.793   6.450
 8121POPC   D2A48244  11.319   9.791   6.750
 8121POPC   C3A48245  11.282   9.734   7.050
 8121POPC   C4A48246  11.335   9.738   7.350
 8121POPC   C1B48247  11.560   9.818   6.450
 8121POPC   C2B48248  11.572   9.801   6.750
 8121POPC   C3B48249  11.560   9.842   7.050
 8121POPC   C4B48250  11.506   9.790   7.350
 8122POPC   NC348251   0.425   2.762   5.550
 8122POPC   PO448252   0.398   2.796   5.850
 8122POPC   GL148253   0.481   2.807   6.150
 8122POPC   GL248254   0.420   2.853   6.150
 8122POPC   C1A48255   0.449   2.781   6.450
 8122POPC   D2A48256   0.396   2.758   6.750
 8122POPC   C3A48257   0.476   2.813   7.050
 8122POPC   C4A48258   0.457   2.736   7.350
 8122POPC   C1B48259   0.495   3.044   6.450
 8122POPC   C2B48260   0.447   3.029   6.750
 8122POPC   C3B48261   0.426   3.062   7.050
 8122POPC   C4B48262   0.455   3.053   7.350
 8123POPC   NC348263  36.134   6.642   5.550
 8123POPC   PO448264  36.155   6.609   5.850
 8123POPC   GL148265  36.120   6.663   6.150
 8123POPC   GL248266  36.137   6.749   6.150
 8123POPC   C1A48267  36.138   6.665   6.450
 8123POPC   D2A48268  36.109   6.653   6.750
 8123POPC   C3A48269  36.116   6.605   7.050
 8123POPC   C4A48270  36.117   6.658   7.350
 8123POPC   C1B48271  36.203   6.893   6.450
 8123POPC   C2B48272  36.181   6.848   6.750
 8123POPC   C3B48273  36.152   6.857   7.050
 8123POPC   C4B48274  36.136   6.863   7.350
 8124POPC   NC348275  42.376  38.442   5.550
 8124POPC   PO448276  42.307  38.474   5.850
 8124POPC   GL148277  42.302  38.480   6.150
 8124POPC   GL248278  42.246  38.478   6.150
 8124POPC   C1A48279  42.305  38.442   6.450
 8124POPC   D2A48280  42.321  38.474   6.750
 8124POPC   C3A48281  42.331  38.413   7.050
 8124POPC   C4A48282  42.344  38.502   7.350
 8124POPC   C1B48283  42.173  38.580   6.450
 8124POPC   C2B48284  42.140  38.555   6.750
 8124POPC   C3B48285  42.142  38.639   7.050
 8124POPC   C4B48286  42.140  38.621   7.350
 8125POPC   NC348287  39.966  28.381   5.550
 8125POPC   PO448288  39.965  28.353   5.850
 8125POPC   GL148289  39.962  28.326   6.150
 8125POPC   GL248290  39.962  28.237   6.150
 8125POPC   C1A48291  39.985  28.324   6.450
 8125POPC   D2A48292  39.983  28.356   6.750
 8125POPC   C3A48293  40.007  28.385   7.050
 8125POPC   C4A48294  40.050  28.353   7.350
 8125POPC   C1B48295  39.844  28.194   6.450
 8125POPC   C2B48296  39.843  28.201   6.750
 8125POPC   C3B48297  39.845  28.181   7.050
 8125POPC   C4B48298  39.777  28.159   7.350
 8126POPC   NC348299  21.399   4.358   5.550
 8126POPC   PO448300  21.337   4.295   5.850
 8126POPC   GL148301  21.409   4.268   6.150
 8126POPC   GL248302  21.435   4.196   6.150
 8126POPC   C1A48303  21.376   4.336   6.450
 8126POPC   D2A48304  21.427   4.277   6.750
 8126POPC   C3A48305  21.431   4.357   7.050
 8126POPC   C4A48306  21.375   4.324   7.350
 8126POPC   C1B48307  21.553   4.049   6.450
 8126POPC   C2B48308  21.466   4.109   6.750
 8126POPC   C3B48309  21.524   4.072   7.050
 8126POPC   C4B48310  21.524   4.072   7.350
 8127POPC   NC348311  12.814  14.447   5.550
 8127POPC   PO448312  12.846  14.365   5.850
 8127POPC   GL148313  12.836  14.406   6.150
 8127POPC   GL248314  12.792  14.258   6.150
 8127POPC   C1A48315  12.881  14.359   6.450
 8127POPC   D2A48316  12.857  14.448   6.750
 8127POPC   C3A48317  12.838  14.437   7.050
 8127POPC   C4A48318  12.809  14.363   7.350
 8127POPC   C1B48319  12.782  14.212   6.450
 8127POPC   C2B48320  12.783  14.202   6.750
 8127POPC   C3B48321  12.720  14.124   7.050
 8127POPC   C4B48322  12.739  14.187   7.350
 8128POPC   NC348323   6.641  30.723   5.550
 8128POPC   PO448324   6.695  30.676   5.850
 8128POPC   GL148325   6.646  30.688   6.150
 8128POPC   GL248326   6.591  30.620   6.150
 8128POPC   C1A48327   6.624  30.693   6.450
 8128POPC   D2A48328   6.598  30.742   6.750
 8128POPC   C3A48329   6.635  30.661   7.050
 8128POPC   C4A48330   6.598  30.684   7.350
 8128POPC   C1B48331   6.528  30.473   6.450
 8128POPC   C2B48332   6.542  30.423   6.750
 8128POPC   C3B48333   6.541  30.449   7.050
 8128POPC   C4B48334   6.531  30.498   7.350
 8129POPC   NC348335  17.504  44.700   5.550
 8129POPC   PO448336  17.483  44.636   5.850
 8129POPC   GL148337  17.486  44.652   6.150
 8129POPC   GL248338  17.392  44.528   6.150
 8129POPC   C1A48339  17.469  44.705   6.450
 8129POPC   D2A48340  17.490  44.697   6.750
 8129POPC   C3A48341  17.495  44.674   7.050
 8129POPC   C4A48342  17.461  44.685   7.350
 8129POPC   C1B48343  17.377  44.489   6.450
 8129POPC   C2B48344  17.373  44.482   6.750
 8129POPC   C3B48345  17.360  44.422   7.050
 8129POPC   C4B48346  17.374  44.412   7.350
 8130POPC   NC348347  37.727  17.510   5.550
 8130POPC   PO448348  37.666  17.469   5.850
 8130POPC   GL148349  37.644  17.495   6.150
 8130POPC   GL248350  37.532  17.596   6.150
 8130POPC   C1A48351  37.705  17.534   6.450
 8130POPC   D2A48352  37.643  17.503   6.750
 8130POPC   C3A48353  37.722  17.513   7.050
 8130POPC   C4A48354  37.697  17.546   7.350
 8130POPC   C1B48355  37.398  17.619   6.450
 8130POPC   C2B48356  37.442  17.632   6.750
 8130POPC   C3B48357  37.448  17.603   7.050
 8130POPC   C4B48358  37.397  17.643   7.350
 8131POPC   NC348359  27.568  28.381   5.550
 8131POPC   PO448360  27.577  28.384   5.850
 8131POPC   GL148361  27.641  28.325   6.150
 8131POPC   GL248362  27.513  28.278   6.150
 8131POPC   C1A48363  27.548  28.381   6.450
 8131POPC   D2A48364  27.602  28.378   6.750
 8131POPC   C3A48365  27.566  28.392   7.050
 8131POPC   C4A48366  27.606  28.334   7.350
 8131POPC   C1B48367  27.413  28.209   6.450
 8131POPC   C2B48368  27.343  28.216   6.750
 8131POPC   C3B48369  27.374  28.287   7.050
 8131POPC   C4B48370  27.400  28.272   7.350
 8132POPC   NC348371  28.379  44.674   5.550
 8132POPC   PO448372  28.341  44.681   5.850
 8132POPC   GL148373  28.366  44.676   6.150
 8132POPC   GL248374  28.510  44.678   6.150
 8132POPC   C1A48375  28.376  44.625   6.450
 8132POPC   D2A48376  28.346  44.612   6.750
 8132POPC   C3A48377  28.362  44.620   7.050
 8132POPC   C4A48378  28.339  44.690   7.350
 8132POPC   C1B48379  28.641  44.793   6.450
 8132POPC   C2B48380  28.583  44.773   6.750
 8132POPC   C3B48381  28.598  44.718   7.050
 8132POPC   C4B48382  28.635  44.758   7.350
 8133POPC   NC348383  17.555   9.703   5.550
 8133POPC   PO448384  17.477   9.739   5.850
 8133POPC   GL148385  17.522   9.792   6.150
 8133POPC   GL248386  17.629   9.822   6.150
 8133POPC   C1A48387  17.489   9.729   6.450
 8133POPC   D2A48388  17.484   9.773   6.750
 8133POPC   C3A48389  17.538   9.797   7.050
 8133POPC   C4A48390  17.532   9.743   7.350
 8133POPC   C1B48391  17.721   9.878   6.450
 8133POPC   C2B48392  17.665   9.877   6.750
 8133POPC   C3B48393  17.718   9.945   7.050
 8133POPC   C4B48394  17.733   9.932   7.350
 8134POPC   NC348395  24.497  10.516   5.550
 8134POPC   PO448396  24.470  10.532   5.850
 8134POPC   GL148397  24.493  10.523   6.150
 8134POPC   GL248398  24.346  10.465   6.150
 8134POPC   C1A48399  24.528  10.563   6.450
 8134POPC   D2A48400  24.524  10.490   6.750
 8134POPC   C3A48401  24.517  10.534   7.050
 8134POPC   C4A48402  24.457  10.509   7.350
 8134POPC   C1B48403  24.258  10.532   6.450
 8134POPC   C2B48404  24.198  10.520   6.750
 8134POPC   C3B48405  24.239  10.520   7.050
 8134POPC   C4B48406  24.198  10.463   7.350
 8135POPC   NC348407  39.987  23.695   5.550
 8135POPC   PO448408  39.994  23.711   5.850
 8135POPC   GL148409  40.036  23.731   6.150
 8135POPC   GL248410  39.918  23.695   6.150
 8135POPC   C1A48411  40.049  23.724   6.450
 8135POPC   D2A48412  40.035  23.685   6.750
 8135POPC   C3A48413  40.021  23.763   7.050
 8135POPC   C4A48414  40.027  23.762   7.350
 8135POPC   C1B48415  39.773  23.675   6.450
 8135POPC   C2B48416  39.780  23.691   6.750
 8135POPC   C3B48417  39.717  23.659   7.050
 8135POPC   C4B48418  39.747  23.680   7.350
 8136POPC   NC348419  40.777  37.712   5.550
 8136POPC   PO448420  40.749  37.636   5.850
 8136POPC   GL148421  40.738  37.651   6.150
 8136POPC   GL248422  40.925  37.749   6.150
 8136POPC   C1A48423  40.756  37.725   6.450
 8136POPC   D2A48424  40.816  37.689   6.750
 8136POPC   C3A48425  40.800  37.645   7.050
 8136POPC   C4A48426  40.782  37.717   7.350
 8136POPC   C1B48427  40.982  37.747   6.450
 8136POPC   C2B48428  40.972  37.830   6.750
 8136POPC   C3B48429  41.026  37.790   7.050
 8136POPC   C4B48430  41.021  37.748   7.350
 8137POPC   NC348431  40.746  33.807   5.550
 8137POPC   PO448432  40.741  33.785   5.850
 8137POPC   GL148433  40.785  33.803   6.150
 8137POPC   GL248434  40.841  33.736   6.150
 8137POPC   C1A48435  40.761  33.819   6.450
 8137POPC   D2A48436  40.803  33.759   6.750
 8137POPC   C3A48437  40.787  33.839   7.050
 8137POPC   C4A48438  40.797  33.782   7.350
 8137POPC   C1B48439  40.928  33.650   6.450
 8137POPC   C2B48440  41.019  33.624   6.750
 8137POPC   C3B48441  41.019  33.675   7.050
 8137POPC   C4B48442  40.922  33.654   7.350
 8138POPC   NC348443   0.485  41.578   5.550
 8138POPC   PO448444   0.464  41.566   5.850
 8138POPC   GL148445   0.447  41.524   6.150
 8138POPC   GL248446   0.515  41.716   6.150
 8138POPC   C1A48447   0.471  41.542   6.450
 8138POPC   D2A48448   0.454  41.531   6.750
 8138POPC   C3A48449   0.473  41.556   7.050
 8138POPC   C4A48450   0.413  41.550   7.350
 8138POPC   C1B48451   0.537  41.775   6.450
 8138POPC   C2B48452   0.561  41.761   6.750
 8138POPC   C3B48453   0.542  41.776   7.050
 8138POPC   C4B48454   0.562  41.749   7.350
 8139POPC   NC348455  38.455  44.666   5.550
 8139POPC   PO448456  38.427  44.639   5.850
 8139POPC   GL148457  38.457  44.621   6.150
 8139POPC   GL248458  38.516  44.724   6.150
 8139POPC   C1A48459  38.437  44.668   6.450
 8139POPC   D2A48460  38.422  44.693   6.750
 8139POPC   C3A48461  38.474  44.637   7.050
 8139POPC   C4A48462  38.485  44.613   7.350
 8139POPC   C1B48463  38.681  44.803   6.450
 8139POPC   C2B48464  38.622  44.832   6.750
 8139POPC   C3B48465  38.678  44.777   7.050
 8139POPC   C4B48466  38.702  44.854   7.350
 8140POPC   NC348467  41.545  24.527   5.550
 8140POPC   PO448468  41.536  24.495   5.850
 8140POPC   GL148469  41.579  24.500   6.150
 8140POPC   GL248470  41.446  24.501   6.150
 8140POPC   C1A48471  41.548  24.445   6.450
 8140POPC   D2A48472  41.608  24.479   6.750
 8140POPC   C3A48473  41.525  24.449   7.050
 8140POPC   C4A48474  41.574  24.486   7.350
 8140POPC   C1B48475  41.269  24.467   6.450
 8140POPC   C2B48476  41.274  24.421   6.750
 8140POPC   C3B48477  41.357  24.423   7.050
 8140POPC   C4B48478  41.270  24.502   7.350
 8141POPC   NC348479  43.073  25.294   5.550
 8141POPC   PO448480  43.105  25.304   5.850
 8141POPC   GL148481  43.118  25.239   6.150
 8141POPC   GL248482  43.020  25.180   6.150
 8141POPC   C1A48483  43.064  25.289   6.450
 8141POPC   D2A48484  43.155  25.291   6.750
 8141POPC   C3A48485  43.120  25.272   7.050
 8141POPC   C4A48486  43.062  25.251   7.350
 8141POPC   C1B48487  43.010  25.076   6.450
 8141POPC   C2B48488  43.034  25.031   6.750
 8141POPC   C3B48489  42.967  25.022   7.050
 8141POPC   C4B48490  43.034  25.061   7.350
 8142POPC   NC348491  19.854   6.640   5.550
 8142POPC   PO448492  19.819   6.649   5.850
 8142POPC   GL148493  19.865   6.621   6.150
 8142POPC   GL248494  19.971   6.632   6.150
 8142POPC   C1A48495  19.853   6.662   6.450
 8142POPC   D2A48496  19.867   6.652   6.750
 8142POPC   C3A48497  19.827   6.675   7.050
 8142POPC   C4A48498  19.865   6.682   7.350
 8142POPC   C1B48499  20.112   6.686   6.450
 8142POPC   C2B48500  20.130   6.672   6.750
 8142POPC   C3B48501  20.130   6.605   7.050
 8142POPC   C4B48502  20.117   6.670   7.350
 8143POPC   NC348503  29.920  21.428   5.550
 8143POPC   PO448504  29.887  21.396   5.850
 8143POPC   GL148505  29.888  21.434   6.150
 8143POPC   GL248506  29.858  21.482   6.150
 8143POPC   C1A48507  29.879  21.414   6.450
 8143POPC   D2A48508  29.900  21.425   6.750
 8143POPC   C3A48509  29.879  21.415   7.050
 8143POPC   C4A48510  29.924  21.387   7.350
 8143POPC   C1B48511  29.666  21.501   6.450
 8143POPC   C2B48512  29.704  21.481   6.750
 8143POPC   C3B48513  29.756  21.501   7.050
 8143POPC   C4B48514  29.687  21.489   7.350
 8144POPC   NC348515   9.784  40.773   5.550
 8144POPC   PO448516   9.784  40.780   5.850
 8144POPC   GL148517   9.782  40.752   6.150
 8144POPC   GL248518   9.587  40.728   6.150
 8144POPC   C1A48519   9.726  40.810   6.450
 8144POPC   D2A48520   9.791  40.780   6.750
 8144POPC   C3A48521   9.746  40.794   7.050
 8144POPC   C4A48522   9.726  40.764   7.350
 8144POPC   C1B48523   9.531  40.703   6.450
 8144POPC   C2B48524   9.474  40.728   6.750
 8144POPC   C3B48525   9.474  40.717   7.050
 8144POPC   C4B48526   9.471  40.785   7.350
 8145POPC   NC348527  20.643  44.644   5.550
 8145POPC   PO448528  20.628  44.693   5.850
 8145POPC   GL148529  20.645  44.657   6.150
 8145POPC   GL248530  20.535  44.669   6.150
 8145POPC   C1A48531  20.605  44.618   6.450
 8145POPC   D2A48532  20.657  44.639   6.750
 8145POPC   C3A48533  20.595  44.702   7.050
 8145POPC   C4A48534  20.568  44.680   7.350
 8145POPC   C1B48535  20.359  44.624   6.450
 8145POPC   C2B48536  20.323  44.666   6.750
 8145POPC   C3B48537  20.391  44.646   7.050
 8145POPC   C4B48538  20.349  44.650   7.350
 8146POPC   NC348539  19.868   2.806   5.550
 8146POPC   PO448540  19.872   2.719   5.850
 8146POPC   GL148541  19.833   2.809   6.150
 8146POPC   GL248542  19.976   2.690   6.150
 8146POPC   C1A48543  19.797   2.758   6.450
 8146POPC   D2A48544  19.883   2.765   6.750
 8146POPC   C3A48545  19.870   2.811   7.050
 8146POPC   C4A48546  19.829   2.716   7.350
 8146POPC   C1B48547  20.090   2.677   6.450
 8146POPC   C2B48548  20.068   2.699   6.750
 8146POPC   C3B48549  20.052   2.704   7.050
 8146POPC   C4B48550  20.073   2.733   7.350
 8147POPC   NC348551  28.337  35.337   5.550
 8147POPC   PO448552  28.347  35.382   5.850
 8147POPC   GL148553  28.404  35.391   6.150
 8147POPC   GL248554  28.254  35.314   6.150
 8147POPC   C1A48555  28.379  35.392   6.450
 8147POPC   D2A48556  28.387  35.400   6.750
 8147POPC   C3A48557  28.321  35.388   7.050
 8147POPC   C4A48558  28.395  35.361   7.350
 8147POPC   C1B48559  28.170  35.217   6.450
 8147POPC   C2B48560  28.151  35.171   6.750
 8147POPC   C3B48561  28.160  35.196   7.050
 8147POPC   C4B48562  28.165  35.183   7.350
 8148POPC   NC348563  27.549  39.184   5.550
 8148POPC   PO448564  27.605  39.249   5.850
 8148POPC   GL148565  27.594  39.232   6.150
 8148POPC   GL248566  27.589  39.400   6.150
 8148POPC   C1A48567  27.569  39.278   6.450
 8148POPC   D2A48568  27.559  39.220   6.750
 8148POPC   C3A48569  27.639  39.188   7.050
 8148POPC   C4A48570  27.595  39.231   7.350
 8148POPC   C1B48571  27.535  39.472   6.450
 8148POPC   C2B48572  27.554  39.444   6.750
 8148POPC   C3B48573  27.580  39.529   7.050
 8148POPC   C4B48574  27.544  39.502   7.350
 8149POPC   NC348575  40.779   5.827   5.550
 8149POPC   PO448576  40.820   5.860   5.850
 8149POPC   GL148577  40.781   5.849   6.150
 8149POPC   GL248578  40.675   5.908   6.150
 8149POPC   C1A48579  40.822   5.877   6.450
 8149POPC   D2A48580  40.822   5.838   6.750
 8149POPC   C3A48581  40.788   5.848   7.050
 8149POPC   C4A48582  40.807   5.903   7.350
 8149POPC   C1B48583  40.577   5.894   6.450
 8149POPC   C2B48584  40.537   5.900   6.750
 8149POPC   C3B48585  40.530   5.848   7.050
 8149POPC   C4B48586  40.545   5.873   7.350
 8150POPC   NC348587  22.933  40.774   5.550
 8150POPC   PO448588  22.891  40.745   5.850
 8150POPC   GL148589  22.962  40.788   6.150
 8150POPC   GL248590  22.948  40.709   6.150
 8150POPC   C1A48591  22.900  40.815   6.450
 8150POPC   D2A48592  22.910  40.770   6.750
 8150POPC   C3A48593  22.931  40.753   7.050
 8150POPC   C4A48594  22.932  40.821   7.350
 8150POPC   C1B48595  23.022  40.588   6.450
 8150POPC   C2B48596  22.988  40.571   6.750
 8150POPC   C3B48597  23.064  40.571   7.050
 8150POPC   C4B48598  23.036  40.566   7.350
 8151POPC   NC348599  14.362  13.614   5.550
 8151POPC   PO448600  14.356  13.653   5.850
 8151POPC   GL148601  14.421  13.637   6.150
 8151POPC   GL248602  14.416  13.471   6.150
 8151POPC   C1A48603  14.397  13.582   6.450
 8151POPC   D2A48604  14.390  13.624   6.750
 8151POPC   C3A48605  14.361  13.672   7.050
 8151POPC   C4A48606  14.414  13.591   7.350
 8151POPC   C1B48607  14.350  13.374   6.450
 8151POPC   C2B48608  14.444  13.420   6.750
 8151POPC   C3B48609  14.361  13.362   7.050
 8151POPC   C4B48610  14.387  13.395   7.350
 8152POPC   NC348611  33.795  21.402   5.550
 8152POPC   PO448612  33.810  21.364   5.850
 8152POPC   GL148613  33.764  21.341   6.150
 8152POPC   GL248614  33.873  21.252   6.150
 8152POPC   C1A48615  33.760  21.348   6.450
 8152POPC   D2A48616  33.796  21.357   6.750
 8152POPC   C3A48617  33.779  21.403   7.050
 8152POPC   C4A48618  33.843  21.384   7.350
 8152POPC   C1B48619  33.864  21.195   6.450
 8152POPC   C2B48620  33.876  21.155   6.750
 8152POPC   C3B48621  33.907  21.193   7.050
 8152POPC   C4B48622  33.943  21.198   7.350
 8153POPC   NC348623  34.548  19.095   5.550
 8153POPC   PO448624  34.558  19.101   5.850
 8153POPC   GL148625  34.549  19.067   6.150
 8153POPC   GL248626  34.488  19.103   6.150
 8153POPC   C1A48627  34.535  19.106   6.450
 8153POPC   D2A48628  34.618  19.024   6.750
 8153POPC   C3A48629  34.549  19.092   7.050
 8153POPC   C4A48630  34.538  19.010   7.350
 8153POPC   C1B48631  34.347  19.092   6.450
 8153POPC   C2B48632  34.342  19.047   6.750
 8153POPC   C3B48633  34.278  19.044   7.050
 8153POPC   C4B48634  34.304  19.052   7.350
 8154POPC   NC348635   0.443   3.566   5.550
 8154POPC   PO448636   0.423   3.528   5.850
 8154POPC   GL148637   0.410   3.551   6.150
 8154POPC   GL248638   0.430   3.426   6.150
 8154POPC   C1A48639   0.445   3.534   6.450
 8154POPC   D2A48640   0.479   3.537   6.750
 8154POPC   C3A48641   0.408   3.548   7.050
 8154POPC   C4A48642   0.430   3.569   7.350
 8154POPC   C1B48643   0.407   3.342   6.450
 8154POPC   C2B48644   0.461   3.296   6.750
 8154POPC   C3B48645   0.456   3.283   7.050
 8154POPC   C4B48646   0.455   3.295   7.350
 8155POPC   NC348647  17.485  23.750   5.550
 8155POPC   PO448648  17.554  23.720   5.850
 8155POPC   GL148649  17.481  23.668   6.150
 8155POPC   GL248650  17.593  23.760   6.150
 8155POPC   C1A48651  17.482  23.672   6.450
 8155POPC   D2A48652  17.536  23.721   6.750
 8155POPC   C3A48653  17.533  23.668   7.050
 8155POPC   C4A48654  17.494  23.719   7.350
 8155POPC   C1B48655  17.763  23.784   6.450
 8155POPC   C2B48656  17.776  23.844   6.750
 8155POPC   C3B48657  17.765  23.810   7.050
 8155POPC   C4B48658  17.786  23.822   7.350
 8156POPC   NC348659  13.578  40.752   5.550
 8156POPC   PO448660  13.663  40.762   5.850
 8156POPC   GL148661  13.664  40.758   6.150
 8156POPC   GL248662  13.553  40.925   6.150
 8156POPC   C1A48663  13.614  40.740   6.450
 8156POPC   D2A48664  13.600  40.758   6.750
 8156POPC   C3A48665  13.605  40.780   7.050
 8156POPC   C4A48666  13.637  40.782   7.350
 8156POPC   C1B48667  13.454  41.014   6.450
 8156POPC   C2B48668  13.478  41.035   6.750
 8156POPC   C3B48669  13.496  41.011   7.050
 8156POPC   C4B48670  13.462  41.041   7.350
 8157POPC   NC348671  39.223  36.902   5.550
 8157POPC   PO448672  39.204  36.925   5.850
 8157POPC   GL148673  39.218  36.903   6.150
 8157POPC   GL248674  39.161  36.791   6.150
 8157POPC   C1A48675  39.207  36.902   6.450
 8157POPC   D2A48676  39.267  36.879   6.750
 8157POPC   C3A48677  39.265  36.880   7.050
 8157POPC   C4A48678  39.272  36.881   7.350
 8157POPC   C1B48679  39.037  36.734   6.450
 8157POPC   C2B48680  39.047  36.738   6.750
 8157POPC   C3B48681  39.107  36.739   7.050
 8157POPC   C4B48682  39.059  36.726   7.350
 8158POPC   NC348683  28.361  29.907   5.550
 8158POPC   PO448684  28.404  29.894   5.850
 8158POPC   GL148685  28.334  29.908   6.150
 8158POPC   GL248686  28.427  29.864   6.150
 8158POPC   C1A48687  28.389  29.885   6.450
 8158POPC   D2A48688  28.365  29.889   6.750
 8158POPC   C3A48689  28.352  29.893   7.050
 8158POPC   C4A48690  28.366  29.967   7.350
 8158POPC   C1B48691  28.586  29.767   6.450
 8158POPC   C2B48692  28.618  29.761   6.750
 8158POPC   C3B48693  28.539  29.748   7.050
 8158POPC   C4B48694  28.532  29.736   7.350
 8159POPC   NC348695   1.958  31.437   5.550
 8159POPC   PO448696   1.960  31.447   5.850
 8159POPC   GL148697   1.978  31.486   6.150
 8159POPC   GL248698   2.033  31.330   6.150
 8159POPC   C1A48699   2.031  31.457   6.450
 8159POPC   D2A48700   1.964  31.490   6.750
 8159POPC   C3A48701   1.973  31.445   7.050
 8159POPC   C4A48702   2.035  31.463   7.350
 8159POPC   C1B48703   2.169  31.223   6.450
 8159POPC   C2B48704   2.140  31.218   6.750
 8159POPC   C3B48705   2.091  31.218   7.050
 8159POPC   C4B48706   2.118  31.255   7.350
 8160POPC   NC348707  41.582  14.372   5.550
 8160POPC   PO448708  41.535  14.435   5.850
 8160POPC   GL148709  41.526  14.371   6.150
 8160POPC   GL248710  41.697  14.461   6.150
 8160POPC   C1A48711  41.605  14.418   6.450
 8160POPC   D2A48712  41.528  14.410   6.750
 8160POPC   C3A48713  41.584  14.415   7.050
 8160POPC   C4A48714  41.547  14.386   7.350
 8160POPC   C1B48715  41.765  14.592   6.450
 8160POPC   C2B48716  41.691  14.616   6.750
 8160POPC   C3B48717  41.726  14.566   7.050
 8160POPC   C4B48718  41.737  14.561   7.350
 8161POPC   NC348719  27.549   4.286   5.550
 8161POPC   PO448720  27.581   4.335   5.850
 8161POPC   GL148721  27.552   4.282   6.150
 8161POPC   GL248722  27.465   4.356   6.150
 8161POPC   C1A48723  27.570   4.281   6.450
 8161POPC   D2A48724  27.563   4.354   6.750
 8161POPC   C3A48725  27.546   4.343   7.050
 8161POPC   C4A48726  27.555   4.299   7.350
 8161POPC   C1B48727  27.350   4.304   6.450
 8161POPC   C2B48728  27.339   4.287   6.750
 8161POPC   C3B48729  27.348   4.330   7.050
 8161POPC   C4B48730  27.382   4.347   7.350
 8162POPC   NC348731  34.588  12.808   5.550
 8162POPC   PO448732  34.574  12.898   5.850
 8162POPC   GL148733  34.599  12.848   6.150
 8162POPC   GL248734  34.482  12.919   6.150
 8162POPC   C1A48735  34.532  12.848   6.450
 8162POPC   D2A48736  34.602  12.868   6.750
 8162POPC   C3A48737  34.592  12.806   7.050
 8162POPC   C4A48738  34.539  12.868   7.350
 8162POPC   C1B48739  34.380  12.994   6.450
 8162POPC   C2B48740  34.419  12.987   6.750
 8162POPC   C3B48741  34.338  12.995   7.050
 8162POPC   C4B48742  34.370  12.977   7.350
 8163POPC   NC348743   5.866  36.169   5.550
 8163POPC   PO448744   5.865  36.100   5.850
 8163POPC   GL148745   5.912  36.134   6.150
 8163POPC   GL248746   6.036  36.151   6.150
 8163POPC   C1A48747   5.827  36.161   6.450
 8163POPC   D2A48748   5.848  36.165   6.750
 8163POPC   C3A48749   5.895  36.115   7.050
 8163POPC   C4A48750   5.893  36.104   7.350
 8163POPC   C1B48751   6.156  36.187   6.450
 8163POPC   C2B48752   6.150  36.167   6.750
 8163POPC   C3B48753   6.071  36.141   7.050
 8163POPC   C4B48754   6.103  36.137   7.350
 8164POPC   NC348755  42.377  40.778   5.550
 8164POPC   PO448756  42.335  40.777   5.850
 8164POPC   GL148757  42.291  40.806   6.150
 8164POPC   GL248758  42.373  40.647   6.150
 8164POPC   C1A48759  42.341  40.785   6.450
 8164POPC   D2A48760  42.294  40.782   6.750
 8164POPC   C3A48761  42.343  40.788   7.050
 8164POPC   C4A48762  42.310  40.791   7.350
 8164POPC   C1B48763  42.448  40.593   6.450
 8164POPC   C2B48764  42.466  40.567   6.750
 8164POPC   C3B48765  42.483  40.571   7.050
 8164POPC   C4B48766  42.460  40.593   7.350
 8165POPC   NC348767  30.680  42.285   5.550
 8165POPC   PO448768  30.684  42.376   5.850
 8165POPC   GL148769  30.728  42.305   6.150
 8165POPC   GL248770  30.738  42.193   6.150
 8165POPC   C1A48771  30.720  42.296   6.450
 8165POPC   D2A48772  30.732  42.286   6.750
 8165POPC   C3A48773  30.680  42.351   7.050
 8165POPC   C4A48774  30.716  42.384   7.350
 8165POPC   C1B48775  30.859  42.109   6.450
 8165POPC   C2B48776  30.892  42.106   6.750
 8165POPC   C3B48777  30.837  42.136   7.050
 8165POPC   C4B48778  30.866  42.091   7.350
 8166POPC   NC348779  15.986  34.621   5.550
 8166POPC   PO448780  15.946  34.596   5.850
 8166POPC   GL148781  16.000  34.567   6.150
 8166POPC   GL248782  15.998  34.476   6.150
 8166POPC   C1A48783  15.977  34.551   6.450
 8166POPC   D2A48784  15.987  34.575   6.750
 8166POPC   C3A48785  15.954  34.607   7.050
 8166POPC   C4A48786  15.969  34.572   7.350
 8166POPC   C1B48787  15.995  34.346   6.450
 8166POPC   C2B48788  15.897  34.328   6.750
 8166POPC   C3B48789  15.911  34.364   7.050
 8166POPC   C4B48790  15.930  34.284   7.350
 8167POPC   NC348791   3.497   8.929   5.550
 8167POPC   PO448792   3.553   8.971   5.850
 8167POPC   GL148793   3.591   9.003   6.150
 8167POPC   GL248794   3.434   8.832   6.150
 8167POPC   C1A48795   3.538   8.928   6.450
 8167POPC   D2A48796   3.574   8.928   6.750
 8167POPC   C3A48797   3.495   8.994   7.050
 8167POPC   C4A48798   3.538   8.999   7.350
 8167POPC   C1B48799   3.389   8.825   6.450
 8167POPC   C2B48800   3.385   8.824   6.750
 8167POPC   C3B48801   3.376   8.833   7.050
 8167POPC   C4B48802   3.380   8.817   7.350
 8168POPC   NC348803  33.825  20.589   5.550
 8168POPC   PO448804  33.845  20.658   5.850
 8168POPC   GL148805  33.750  20.568   6.150
 8168POPC   GL248806  33.639  20.652   6.150
 8168POPC   C1A48807  33.769  20.651   6.450
 8168POPC   D2A48808  33.812  20.600   6.750
 8168POPC   C3A48809  33.798  20.645   7.050
 8168POPC   C4A48810  33.766  20.621   7.350
 8168POPC   C1B48811  33.546  20.692   6.450
 8168POPC   C2B48812  33.541  20.657   6.750
 8168POPC   C3B48813  33.516  20.683   7.050
 8168POPC   C4B48814  33.510  20.685   7.350
 8169POPC   NC348815   1.213  38.424   5.550
 8169POPC   PO448816   1.241  38.420   5.850
 8169POPC   GL148817   1.190  38.410   6.150
 8169POPC   GL248818   1.114  38.530   6.150
 8169POPC   C1A48819   1.257  38.446   6.450
 8169POPC   D2A48820   1.210  38.504   6.750
 8169POPC   C3A48821   1.257  38.482   7.050
 8169POPC   C4A48822   1.220  38.421   7.350
 8169POPC   C1B48823   1.051  38.641   6.450
 8169POPC   C2B48824   1.031  38.621   6.750
 8169POPC   C3B48825   1.011  38.622   7.050
 8169POPC   C4B48826   1.044  38.616   7.350
 8170POPC   NC348827  12.094  30.710   5.550
 8170POPC   PO448828  12.105  30.732   5.850
 8170POPC   GL148829  12.028  30.655   6.150
 8170POPC   GL248830  12.174  30.687   6.150
 8170POPC   C1A48831  12.098  30.713   6.450
 8170POPC   D2A48832  12.078  30.707   6.750
 8170POPC   C3A48833  12.047  30.716   7.050
 8170POPC   C4A48834  12.070  30.740   7.350
 8170POPC   C1B48835  12.346  30.733   6.450
 8170POPC   C2B48836  12.328  30.730   6.750
 8170POPC   C3B48837  12.331  30.680   7.050
 8170POPC   C4B48838  12.304  30.769   7.350
 8171POPC   NC348839  36.867  39.257   5.550
 8171POPC   PO448840  36.939  39.193   5.850
 8171POPC   GL148841  36.914  39.213   6.150
 8171POPC   GL248842  37.049  39.122   6.150
 8171POPC   C1A48843  36.919  39.239   6.450
 8171POPC   D2A48844  36.931  39.255   6.750
 8171POPC   C3A48845  36.918  39.195   7.050
 8171POPC   C4A48846  36.949  39.187   7.350
 8171POPC   C1B48847  37.143  39.105   6.450
 8171POPC   C2B48848  37.086  39.124   6.750
 8171POPC   C3B48849  37.116  39.043   7.050
 8171POPC   C4B48850  37.147  39.047   7.350
 8172POPC   NC348851  24.453   2.029   5.550
 8172POPC   PO448852  24.456   2.004   5.850
 8172POPC   GL148853  24.514   1.992   6.150
 8172POPC   GL248854  24.432   2.064   6.150
 8172POPC   C1A48855  24.451   2.033   6.450
 8172POPC   D2A48856  24.531   1.949   6.750
 8172POPC   C3A48857  24.487   2.024   7.050
 8172POPC   C4A48858  24.535   1.942   7.350
 8172POPC   C1B48859  24.307   2.142   6.450
 8172POPC   C2B48860  24.293   2.210   6.750
 8172POPC   C3B48861  24.294   2.225   7.050
 8172POPC   C4B48862  24.308   2.172   7.350
 8173POPC   NC348863   0.442  38.488   5.550
 8173POPC   PO448864   0.408  38.433   5.850
 8173POPC   GL148865   0.473  38.434   6.150
 8173POPC   GL248866   0.522  38.519   6.150
 8173POPC   C1A48867   0.410  38.477   6.450
 8173POPC   D2A48868   0.452  38.486   6.750
 8173POPC   C3A48869   0.458  38.419   7.050
 8173POPC   C4A48870   0.462  38.453   7.350
 8173POPC   C1B48871   0.670  38.611   6.450
 8173POPC   C2B48872   0.652  38.582   6.750
 8173POPC   C3B48873   0.702  38.615   7.050
 8173POPC   C4B48874   0.671  38.534   7.350
 8174POPC   NC348875  38.499  32.251   5.550
 8174POPC   PO448876  38.502  32.274   5.850
 8174POPC   GL148877  38.417  32.295   6.150
 8174POPC   GL248878  38.558  32.254   6.150
 8174POPC   C1A48879  38.493  32.252   6.450
 8174POPC   D2A48880  38.455  32.275   6.750
 8174POPC   C3A48881  38.460  32.234   7.050
 8174POPC   C4A48882  38.464  32.223   7.350
 8174POPC   C1B48883  38.665  32.299   6.450
 8174POPC   C2B48884  38.648  32.273   6.750
 8174POPC   C3B48885  38.675  32.285   7.050
 8174POPC   C4B48886  38.692  32.337   7.350
 8175POPC   NC348887  40.736  20.576   5.550
 8175POPC   PO448888  40.805  20.599   5.850
 8175POPC   GL148889  40.783  20.580   6.150
 8175POPC   GL248890  40.666  20.623   6.150
 8175POPC   C1A48891  40.825  20.598   6.450
 8175POPC   D2A48892  40.789  20.566   6.750
 8175POPC   C3A48893  40.796  20.585   7.050
 8175POPC   C4A48894  40.807  20.615   7.350
 8175POPC   C1B48895  40.580  20.585   6.450
 8175POPC   C2B48896  40.536  20.629   6.750
 8175POPC   C3B48897  40.563  20.569   7.050
 8175POPC   C4B48898  40.521  20.560   7.350
 8176POPC   NC348899  43.936  39.237   5.550
 8176POPC   PO448900  43.877  39.275   5.850
 8176POPC   GL148901  43.935  39.186   6.150
 8176POPC   GL248902  43.728  39.246   6.150
 8176POPC   C1A48903  43.906  39.273   6.450
 8176POPC   D2A48904  43.844  39.272   6.750
 8176POPC   C3A48905  43.870  39.261   7.050
 8176POPC   C4A48906  43.908  39.219   7.350
 8176POPC   C1B48907  43.633  39.237   6.450
 8176POPC   C2B48908  43.666  39.192   6.750
 8176POPC   C3B48909  43.609  39.229   7.050
 8176POPC   C4B48910  43.679  39.231   7.350
 8177POPC   NC348911  20.594   7.460   5.550
 8177POPC   PO448912  20.651   7.451   5.850
 8177POPC   GL148913  20.648   7.371   6.150
 8177POPC   GL248914  20.661   7.357   6.150
 8177POPC   C1A48915  20.589   7.439   6.450
 8177POPC   D2A48916  20.604   7.376   6.750
 8177POPC   C3A48917  20.573   7.431   7.050
 8177POPC   C4A48918  20.603   7.447   7.350
 8177POPC   C1B48919  20.808   7.241   6.450
 8177POPC   C2B48920  20.784   7.278   6.750
 8177POPC   C3B48921  20.814   7.255   7.050
 8177POPC   C4B48922  20.732   7.224   7.350
 8178POPC   NC348923  11.295  38.468   5.550
 8178POPC   PO448924  11.293  38.481   5.850
 8178POPC   GL148925  11.315  38.485   6.150
 8178POPC   GL248926  11.254  38.303   6.150
 8178POPC   C1A48927  11.286  38.464   6.450
 8178POPC   D2A48928  11.272  38.469   6.750
 8178POPC   C3A48929  11.287  38.420   7.050
 8178POPC   C4A48930  11.342  38.407   7.350
 8178POPC   C1B48931  11.226  38.176   6.450
 8178POPC   C2B48932  11.213  38.261   6.750
 8178POPC   C3B48933  11.230  38.273   7.050
 8178POPC   C4B48934  11.235  38.193   7.350
 8179POPC   NC348935  19.845  11.331   5.550
 8179POPC   PO448936  19.855  11.330   5.850
 8179POPC   GL148937  19.821  11.329   6.150
 8179POPC   GL248938  19.741  11.301   6.150
 8179POPC   C1A48939  19.811  11.326   6.450
 8179POPC   D2A48940  19.791  11.306   6.750
 8179POPC   C3A48941  19.848  11.327   7.050
 8179POPC   C4A48942  19.833  11.326   7.350
 8179POPC   C1B48943  19.636  11.294   6.450
 8179POPC   C2B48944  19.574  11.224   6.750
 8179POPC   C3B48945  19.592  11.270   7.050
 8179POPC   C4B48946  19.539  11.225   7.350
 8180POPC   NC348947  35.308  43.911   5.550
 8180POPC   PO448948  35.303  43.864   5.850
 8180POPC   GL148949  35.384  43.903   6.150
 8180POPC   GL248950  35.256  43.910   6.150
 8180POPC   C1A48951  35.307  43.839   6.450
 8180POPC   D2A48952  35.304  43.902   6.750
 8180POPC   C3A48953  35.359  43.854   7.050
 8180POPC   C4A48954  35.317  43.930   7.350
 8180POPC   C1B48955  35.096  43.919   6.450
 8180POPC   C2B48956  35.105  43.970   6.750
 8180POPC   C3B48957  35.149  43.983   7.050
 8180POPC   C4B48958  35.105  43.944   7.350
 8181POPC   NC348959  33.019  12.039   5.550
 8181POPC   PO448960  33.006  12.094   5.850
 8181POPC   GL148961  33.023  12.106   6.150
 8181POPC   GL248962  33.189  12.072   6.150
 8181POPC   C1A48963  32.996  12.072   6.450
 8181POPC   D2A48964  33.016  12.049   6.750
 8181POPC   C3A48965  33.061  12.032   7.050
 8181POPC   C4A48966  33.049  12.075   7.350
 8181POPC   C1B48967  33.269  12.040   6.450
 8181POPC   C2B48968  33.308  12.027   6.750
 8181POPC   C3B48969  33.277  12.100   7.050
 8181POPC   C4B48970  33.290  12.056   7.350
 8182POPC   NC348971  29.097  30.719   5.550
 8182POPC   PO448972  29.177  30.666   5.850
 8182POPC   GL148973  29.169  30.715   6.150
 8182POPC   GL248974  29.104  30.814   6.150
 8182POPC   C1A48975  29.164  30.685   6.450
 8182POPC   D2A48976  29.168  30.712   6.750
 8182POPC   C3A48977  29.163  30.721   7.050
 8182POPC   C4A48978  29.095  30.701   7.350
 8182POPC   C1B48979  29.128  30.929   6.450
 8182POPC   C2B48980  29.165  30.907   6.750
 8182POPC   C3B48981  29.165  30.989   7.050
 8182POPC   C4B48982  29.153  30.938   7.350
 8183POPC   NC348983  37.680  25.253   5.550
 8183POPC   PO448984  37.636  25.218   5.850
 8183POPC   GL148985  37.690  25.291   6.150
 8183POPC   GL248986  37.540  25.335   6.150
 8183POPC   C1A48987  37.663  25.277   6.450
 8183POPC   D2A48988  37.663  25.234   6.750
 8183POPC   C3A48989  37.700  25.222   7.050
 8183POPC   C4A48990  37.671  25.282   7.350
 8183POPC   C1B48991  37.509  25.433   6.450
 8183POPC   C2B48992  37.524  25.428   6.750
 8183POPC   C3B48993  37.472  25.392   7.050
 8183POPC   C4B48994  37.495  25.453   7.350
 8184POPC   NC348995  36.151  16.713   5.550
 8184POPC   PO448996  36.174  16.686   5.850
 8184POPC   GL148997  36.101  16.739   6.150
 8184POPC   GL248998  36.153  16.632   6.150
 8184POPC   C1A48999  36.116  16.763   6.450
 8184POPC   D2A49000  36.166  16.695   6.750
 8184POPC   C3A49001  36.126  16.683   7.050
 8184POPC   C4A49002  36.169  16.689   7.350
 8184POPC   C1B49003  36.159  16.472   6.450
 8184POPC   C2B49004  36.239  16.470   6.750
 8184POPC   C3B49005  36.174  16.528   7.050
 8184POPC   C4B49006  36.209  16.523   7.350
 8185POPC   NC349007  43.110  37.640   5.550
 8185POPC   PO449008  43.109  37.637   5.850
 8185POPC   GL149009  43.067  37.643   6.150
 8185POPC   GL249010  43.173  37.627   6.150
 8185POPC   C1A49011  43.120  37.650   6.450
 8185POPC   D2A49012  43.092  37.654   6.750
 8185POPC   C3A49013  43.121  37.680   7.050
 8185POPC   C4A49014  43.149  37.674   7.350
 8185POPC   C1B49015  43.252  37.472   6.450
 8185POPC   C2B49016  43.299  37.455   6.750
 8185POPC   C3B49017  43.292  37.492   7.050
 8185POPC   C4B49018  43.270  37.549   7.350
 8186POPC   NC349019  26.776   7.464   5.550
 8186POPC   PO449020  26.770   7.378   5.850
 8186POPC   GL149021  26.773   7.395   6.150
 8186POPC   GL249022  26.916   7.369   6.150
 8186POPC   C1A49023  26.805   7.430   6.450
 8186POPC   D2A49024  26.791   7.459   6.750
 8186POPC   C3A49025  26.776   7.383   7.050
 8186POPC   C4A49026  26.852   7.398   7.350
 8186POPC   C1B49027  26.938   7.277   6.450
 8186POPC   C2B49028  26.936   7.220   6.750
 8186POPC   C3B49029  27.017   7.270   7.050
 8186POPC   C4B49030  26.931   7.271   7.350
 8187POPC   NC349031  37.631  20.592   5.550
 8187POPC   PO449032  37.629  20.621   5.850
 8187POPC   GL149033  37.727  20.571   6.150
 8187POPC   GL249034  37.681  20.453   6.150
 8187POPC   C1A49035  37.700  20.653   6.450
 8187POPC   D2A49036  37.641  20.610   6.750
 8187POPC   C3A49037  37.693  20.640   7.050
 8187POPC   C4A49038  37.707  20.577   7.350
 8187POPC   C1B49039  37.635  20.376   6.450
 8187POPC   C2B49040  37.642  20.415   6.750
 8187POPC   C3B49041  37.660  20.361   7.050
 8187POPC   C4B49042  37.615  20.360   7.350
 8188POPC   NC349043  15.161  20.623   5.550
 8188POPC   PO449044  15.135  20.571   5.850
 8188POPC   GL149045  15.146  20.650   6.150
 8188POPC   GL249046  15.082  20.645   6.150
 8188POPC   C1A49047  15.200  20.617   6.450
 8188POPC   D2A49048  15.201  20.600   6.750
 8188POPC   C3A49049  15.213  20.625   7.050
 8188POPC   C4A49050  15.207  20.619   7.350
 8188POPC   C1B49051  14.901  20.567   6.450
 8188POPC   C2B49052  14.880  20.613   6.750
 8188POPC   C3B49053  14.951  20.633   7.050
 8188POPC   C4B49054  14.946  20.656   7.350
 8189POPC   NC349055   0.437   1.166   5.550
 8189POPC   PO449056   0.486   1.228   5.850
 8189POPC   GL149057   0.438   1.227   6.150
 8189POPC   GL249058   0.316   1.123   6.150
 8189POPC   C1A49059   0.389   1.242   6.450
 8189POPC   D2A49060   0.401   1.219   6.750
 8189POPC   C3A49061   0.466   1.255   7.050
 8189POPC   C4A49062   0.440   1.245   7.350
 8189POPC   C1B49063   0.225   1.006   6.450
 8189POPC   C2B49064   0.239   1.046   6.750
 8189POPC   C3B49065   0.295   1.029   7.050
 8189POPC   C4B49066   0.243   1.073   7.350
 8190POPC   NC349067   2.784  41.608   5.550
 8190POPC   PO449068   2.734  41.551   5.850
 8190POPC   GL149069   2.738  41.513   6.150
 8190POPC   GL249070   2.802  41.726   6.150
 8190POPC   C1A49071   2.806  41.597   6.450
 8190POPC   D2A49072   2.744  41.566   6.750
 8190POPC   C3A49073   2.766  41.509   7.050
 8190POPC   C4A49074   2.750  41.525   7.350
 8190POPC   C1B49075   2.838  41.793   6.450
 8190POPC   C2B49076   2.792  41.799   6.750
 8190POPC   C3B49077   2.837  41.773   7.050
 8190POPC   C4B49078   2.843  41.850   7.350
 8191POPC   NC349079  13.615   3.507   5.550
 8191POPC   PO449080  13.607   3.557   5.850
 8191POPC   GL149081  13.591   3.492   6.150
 8191POPC   GL249082  13.703   3.474   6.150
 8191POPC   C1A49083  13.631   3.495   6.450
 8191POPC   D2A49084  13.658   3.505   6.750
 8191POPC   C3A49085  13.652   3.509   7.050
 8191POPC   C4A49086  13.651   3.508   7.350
 8191POPC   C1B49087  13.826   3.425   6.450
 8191POPC   C2B49088  13.795   3.407   6.750
 8191POPC   C3B49089  13.851   3.435   7.050
 8191POPC   C4B49090  13.794   3.456   7.350
 8192POPC   NC349091  23.724  15.227   5.550
 8192POPC   PO449092  23.719  15.130   5.850
 8192POPC   GL149093  23.675  15.216   6.150
 8192POPC   GL249094  23.565  15.098   6.150
 8192POPC   C1A49095  23.720  15.137   6.450
 8192POPC   D2A49096  23.748  15.151   6.750
 8192POPC   C3A49097  23.752  15.172   7.050
 8192POPC   C4A49098  23.707  15.163   7.350
 8192POPC   C1B49099  23.496  15.053   6.450
 8192POPC   C2B49100  23.505  15.049   6.750
 8192POPC   C3B49101  23.539  15.036   7.050
 8192POPC   C4B49102  23.479  15.038   7.350
 8193POPC   NC349103  43.103   6.603   5.550
 8193POPC   PO449104  43.063   6.657   5.850
 8193POPC   GL149105  43.124   6.649   6.150
 8193POPC   GL249106  43.261   6.687   6.150
 8193POPC   C1A49107  43.159   6.693   6.450
 8193POPC   D2A49108  43.132   6.693   6.750
 8193POPC   C3A49109  43.079   6.648   7.050
 8193POPC   C4A49110  43.106   6.611   7.350
 8193POPC   C1B49111  43.348   6.748   6.450
 8193POPC   C2B49112  43.358   6.719   6.750
 8193POPC   C3B49113  43.307   6.667   7.050
 8193POPC   C4B49114  43.326   6.714   7.350
 8194POPC   NC349115  13.586  23.739   5.550
 8194POPC   PO449116  13.599  23.681   5.850
 8194POPC   GL149117  13.629  23.675   6.150
 8194POPC   GL249118  13.544  23.759   6.150
 8194POPC   C1A49119  13.583  23.743   6.450
 8194POPC   D2A49120  13.631  23.701   6.750
 8194POPC   C3A49121  13.613  23.714   7.050
 8194POPC   C4A49122  13.662  23.698   7.350
 8194POPC   C1B49123  13.389  23.726   6.450
 8194POPC   C2B49124  13.387  23.698   6.750
 8194POPC   C3B49125  13.411  23.697   7.050
 8194POPC   C4B49126  13.389  23.725   7.350
 8195POPC   NC349127  23.676  15.969   5.550
 8195POPC   PO449128  23.755  15.921   5.850
 8195POPC   GL149129  23.710  15.966   6.150
 8195POPC   GL249130  23.776  16.028   6.150
 8195POPC   C1A49131  23.692  15.991   6.450
 8195POPC   D2A49132  23.735  15.990   6.750
 8195POPC   C3A49133  23.679  15.978   7.050
 8195POPC   C4A49134  23.682  15.965   7.350
 8195POPC   C1B49135  23.888  16.059   6.450
 8195POPC   C2B49136  23.936  16.067   6.750
 8195POPC   C3B49137  23.935  16.057   7.050
 8195POPC   C4B49138  23.914  16.066   7.350
 8196POPC   NC349139  28.342  40.051   5.550
 8196POPC   PO449140  28.367  40.031   5.850
 8196POPC   GL149141  28.411  40.026   6.150
 8196POPC   GL249142  28.409  40.158   6.150
 8196POPC   C1A49143  28.409  39.983   6.450
 8196POPC   D2A49144  28.326  40.018   6.750
 8196POPC   C3A49145  28.404  39.965   7.050
 8196POPC   C4A49146  28.358  39.975   7.350
 8196POPC   C1B49147  28.485  40.250   6.450
 8196POPC   C2B49148  28.455  40.285   6.750
 8196POPC   C3B49149  28.483  40.244   7.050
 8196POPC   C4B49150  28.395  40.277   7.350
 8197POPC   NC349151  23.755  19.798   5.550
 8197POPC   PO449152  23.703  19.877   5.850
 8197POPC   GL149153  23.667  19.825   6.150
 8197POPC   GL249154  23.581  19.938   6.150
 8197POPC   C1A49155  23.685  19.873   6.450
 8197POPC   D2A49156  23.719  19.853   6.750
 8197POPC   C3A49157  23.713  19.859   7.050
 8197POPC   C4A49158  23.752  19.813   7.350
 8197POPC   C1B49159  23.508  19.953   6.450
 8197POPC   C2B49160  23.511  19.986   6.750
 8197POPC   C3B49161  23.462  19.997   7.050
 8197POPC   C4B49162  23.464  19.974   7.350
 8198POPC   NC349163  43.156  12.851   5.550
 8198POPC   PO449164  43.104  12.837   5.850
 8198POPC   GL149165  43.101  12.892   6.150
 8198POPC   GL249166  43.050  13.000   6.150
 8198POPC   C1A49167  43.124  12.864   6.450
 8198POPC   D2A49168  43.121  12.838   6.750
 8198POPC   C3A49169  43.144  12.811   7.050
 8198POPC   C4A49170  43.124  12.853   7.350
 8198POPC   C1B49171  43.003  13.132   6.450
 8198POPC   C2B49172  43.069  13.131   6.750
 8198POPC   C3B49173  43.052  13.120   7.050
 8198POPC   C4B49174  43.064  13.114   7.350
 8199POPC   NC349175  12.090  24.478   5.550
 8199POPC   PO449176  12.084  24.452   5.850
 8199POPC   GL149177  12.123  24.446   6.150
 8199POPC   GL249178  12.172  24.511   6.150
 8199POPC   C1A49179  12.083  24.498   6.450
 8199POPC   D2A49180  12.120  24.523   6.750
 8199POPC   C3A49181  12.099  24.511   7.050
 8199POPC   C4A49182  12.093  24.450   7.350
 8199POPC   C1B49183  12.247  24.578   6.450
 8199POPC   C2B49184  12.252  24.618   6.750
 8199POPC   C3B49185  12.257  24.654   7.050
 8199POPC   C4B49186  12.310  24.599   7.350
 8200POPC   NC349187  33.812  12.095   5.550
 8200POPC   PO449188  33.846  12.063   5.850
 8200POPC   GL149189  33.776  12.045   6.150
 8200POPC   GL249190  33.817  12.168   6.150
 8200POPC   C1A49191  33.797  12.123   6.450
 8200POPC   D2A49192  33.769  12.114   6.750
 8200POPC   C3A49193  33.760  12.122   7.050
 8200POPC   C4A49194  33.822  12.098   7.350
 8200POPC   C1B49195  33.750  12.267   6.450
 8200POPC   C2B49196  33.691  12.328   6.750
 8200POPC   C3B49197  33.782  12.318   7.050
 8200POPC   C4B49198  33.782  12.343   7.350
 8201POPC   NC349199  27.615   5.124   5.550
 8201POPC   PO449200  27.568   5.115   5.850
 8201POPC   GL149201  27.553   5.100   6.150
 8201POPC   GL249202  27.487   5.114   6.150
 8201POPC   C1A49203  27.591   5.116   6.450
 8201POPC   D2A49204  27.613   5.124   6.750
 8201POPC   C3A49205  27.587   5.094   7.050
 8201POPC   C4A49206  27.576   5.089   7.350
 8201POPC   C1B49207  27.349   5.162   6.450
 8201POPC   C2B49208  27.317   5.143   6.750
 8201POPC   C3B49209  27.386   5.193   7.050
 8201POPC   C4B49210  27.304   5.153   7.350
 8202POPC   NC349211  33.829  26.011   5.550
 8202POPC   PO449212  33.782  26.009   5.850
 8202POPC   GL149213  33.838  26.072   6.150
 8202POPC   GL249214  33.817  26.169   6.150
 8202POPC   C1A49215  33.825  26.079   6.450
 8202POPC   D2A49216  33.829  26.048   6.750
 8202POPC   C3A49217  33.836  26.036   7.050
 8202POPC   C4A49218  33.801  26.047   7.350
 8202POPC   C1B49219  33.886  26.289   6.450
 8202POPC   C2B49220  33.901  26.243   6.750
 8202POPC   C3B49221  33.903  26.301   7.050
 8202POPC   C4B49222  33.903  26.275   7.350
 8203POPC   NC349223  14.381  36.882   5.550
 8203POPC   PO449224  14.401  36.869   5.850
 8203POPC   GL149225  14.357  36.947   6.150
 8203POPC   GL249226  14.296  37.022   6.150
 8203POPC   C1A49227  14.446  36.872   6.450
 8203POPC   D2A49228  14.367  36.913   6.750
 8203POPC   C3A49229  14.445  36.934   7.050
 8203POPC   C4A49230  14.413  36.946   7.350
 8203POPC   C1B49231  14.173  37.101   6.450
 8203POPC   C2B49232  14.186  37.093   6.750
 8203POPC   C3B49233  14.243  37.053   7.050
 8203POPC   C4B49234  14.174  37.115   7.350
 8204POPC   NC349235   8.972  36.078   5.550
 8204POPC   PO449236   8.964  36.083   5.850
 8204POPC   GL149237   8.961  36.161   6.150
 8204POPC   GL249238   9.084  36.078   6.150
 8204POPC   C1A49239   9.020  36.113   6.450
 8204POPC   D2A49240   8.988  36.129   6.750
 8204POPC   C3A49241   9.009  36.153   7.050
 8204POPC   C4A49242   8.943  36.159   7.350
 8204POPC   C1B49243   9.163  35.953   6.450
 8204POPC   C2B49244   9.205  35.912   6.750
 8204POPC   C3B49245   9.163  35.964   7.050
 8204POPC   C4B49246   9.147  35.916   7.350
 8205POPC   NC349247  19.069  24.487   5.550
 8205POPC   PO449248  19.054  24.476   5.850
 8205POPC   GL149249  19.047  24.518   6.150
 8205POPC   GL249250  19.053  24.326   6.150
 8205POPC   C1A49251  19.028  24.507   6.450
 8205POPC   D2A49252  19.061  24.461   6.750
 8205POPC   C3A49253  19.018  24.485   7.050
 8205POPC   C4A49254  19.038  24.506   7.350
 8205POPC   C1B49255  19.037  24.205   6.450
 8205POPC   C2B49256  19.015  24.229   6.750
 8205POPC   C3B49257  18.999  24.192   7.050
 8205POPC   C4B49258  19.000  24.261   7.350
 8206POPC   NC349259  37.648  36.140   5.550
 8206POPC   PO449260  37.719  36.090   5.850
 8206POPC   GL149261  37.639  36.120   6.150
 8206POPC   GL249262  37.712  35.989   6.150
 8206POPC   C1A49263  37.660  36.148   6.450
 8206POPC   D2A49264  37.704  36.145   6.750
 8206POPC   C3A49265  37.710  36.111   7.050
 8206POPC   C4A49266  37.726  36.081   7.350
 8206POPC   C1B49267  37.738  35.941   6.450
 8206POPC   C2B49268  37.802  35.901   6.750
 8206POPC   C3B49269  37.743  35.917   7.050
 8206POPC   C4B49270  37.714  35.919   7.350
 8207POPC   NC349271   1.165  33.013   5.550
 8207POPC   PO449272   1.235  33.040   5.850
 8207POPC   GL149273   1.209  32.995   6.150
 8207POPC   GL249274   1.163  32.894   6.150
 8207POPC   C1A49275   1.213  33.073   6.450
 8207POPC   D2A49276   1.199  33.012   6.750
 8207POPC   C3A49277   1.248  33.073   7.050
 8207POPC   C4A49278   1.256  33.058   7.350
 8207POPC   C1B49279   1.160  32.830   6.450
 8207POPC   C2B49280   1.165  32.826   6.750
 8207POPC   C3B49281   1.098  32.763   7.050
 8207POPC   C4B49282   1.088  32.776   7.350
 8208POPC   NC349283  12.073  15.195   5.550
 8208POPC   PO449284  12.082  15.158   5.850
 8208POPC   GL149285  12.043  15.184   6.150
 8208POPC   GL249286  11.972  15.247   6.150
 8208POPC   C1A49287  12.093  15.192   6.450
 8208POPC   D2A49288  12.084  15.196   6.750
 8208POPC   C3A49289  12.093  15.138   7.050
 8208POPC   C4A49290  12.109  15.155   7.350
 8208POPC   C1B49291  11.847  15.363   6.450
 8208POPC   C2B49292  11.925  15.317   6.750
 8208POPC   C3B49293  11.873  15.377   7.050
 8208POPC   C4B49294  11.843  15.314   7.350
 8209POPC   NC349295   9.798   6.684   5.550
 8209POPC   PO449296   9.767   6.695   5.850
 8209POPC   GL149297   9.743   6.677   6.150
 8209POPC   GL249298   9.738   6.570   6.150
 8209POPC   C1A49299   9.703   6.665   6.450
 8209POPC   D2A49300   9.718   6.662   6.750
 8209POPC   C3A49301   9.770   6.635   7.050
 8209POPC   C4A49302   9.788   6.663   7.350
 8209POPC   C1B49303   9.728   6.362   6.450
 8209POPC   C2B49304   9.726   6.435   6.750
 8209POPC   C3B49305   9.687   6.404   7.050
 8209POPC   C4B49306   9.693   6.376   7.350
 8210POPC   NC349307  30.717  12.070   5.550
 8210POPC   PO449308  30.745  12.036   5.850
 8210POPC   GL149309  30.654  12.035   6.150
 8210POPC   GL249310  30.574  12.054   6.150
 8210POPC   C1A49311  30.662  12.063   6.450
 8210POPC   D2A49312  30.701  12.086   6.750
 8210POPC   C3A49313  30.670  12.105   7.050
 8210POPC   C4A49314  30.700  12.036   7.350
 8210POPC   C1B49315  30.440  12.060   6.450
 8210POPC   C2B49316  30.492  12.035   6.750
 8210POPC   C3B49317  30.414  12.101   7.050
 8210POPC   C4B49318  30.474  12.105   7.350
 8211POPC   NC349319  18.287   5.092   5.550
 8211POPC   PO449320  18.282   5.141   5.850
 8211POPC   GL149321  18.269   5.065   6.150
 8211POPC   GL249322  18.204   5.025   6.150
 8211POPC   C1A49323  18.303   5.085   6.450
 8211POPC   D2A49324  18.265   5.064   6.750
 8211POPC   C3A49325  18.297   5.045   7.050
 8211POPC   C4A49326  18.296   5.122   7.350
 8211POPC   C1B49327  18.106   4.839   6.450
 8211POPC   C2B49328  18.185   4.860   6.750
 8211POPC   C3B49329  18.151   4.921   7.050
 8211POPC   C4B49330  18.176   4.892   7.350
 8212POPC   NC349331   0.487   4.318   5.550
 8212POPC   PO449332   0.466   4.289   5.850
 8212POPC   GL149333   0.413   4.308   6.150
 8212POPC   GL249334   0.432   4.425   6.150
 8212POPC   C1A49335   0.477   4.344   6.450
 8212POPC   D2A49336   0.450   4.329   6.750
 8212POPC   C3A49337   0.450   4.331   7.050
 8212POPC   C4A49338   0.458   4.299   7.350
 8212POPC   C1B49339   0.490   4.588   6.450
 8212POPC   C2B49340   0.447   4.549   6.750
 8212POPC   C3B49341   0.514   4.535   7.050
 8212POPC   C4B49342   0.491   4.564   7.350
 8213POPC   NC349343  35.376  40.812   5.550
 8213POPC   PO449344  35.377  40.777   5.850
 8213POPC   GL149345  35.347  40.831   6.150
 8213POPC   GL249346  35.341  40.620   6.150
 8213POPC   C1A49347  35.341  40.822   6.450
 8213POPC   D2A49348  35.374  40.798   6.750
 8213POPC   C3A49349  35.317  40.754   7.050
 8213POPC   C4A49350  35.340  40.736   7.350
 8213POPC   C1B49351  35.391  40.580   6.450
 8213POPC   C2B49352  35.375  40.539   6.750
 8213POPC   C3B49353  35.365  40.520   7.050
 8213POPC   C4B49354  35.363  40.582   7.350
 8214POPC   NC349355  36.112  15.998   5.550
 8214POPC   PO449356  36.082  15.906   5.850
 8214POPC   GL149357  36.132  15.999   6.150
 8214POPC   GL249358  36.257  15.912   6.150
 8214POPC   C1A49359  36.085  15.987   6.450
 8214POPC   D2A49360  36.130  15.918   6.750
 8214POPC   C3A49361  36.142  15.999   7.050
 8214POPC   C4A49362  36.119  15.908   7.350
 8214POPC   C1B49363  36.315  15.810   6.450
 8214POPC   C2B49364  36.349  15.789   6.750
 8214POPC   C3B49365  36.320  15.745   7.050
 8214POPC   C4B49366  36.309  15.796   7.350
 8215POPC   NC349367   8.206  31.436   5.550
 8215POPC   PO449368   8.213  31.423   5.850
 8215POPC   GL149369   8.156  31.423   6.150
 8215POPC   GL249370   8.144  31.335   6.150
 8215POPC   C1A49371   8.195  31.506   6.450
 8215POPC   D2A49372   8.186  31.436   6.750
 8215POPC   C3A49373   8.214  31.488   7.050
 8215POPC   C4A49374   8.180  31.478   7.350
 8215POPC   C1B49375   8.027  31.316   6.450
 8215POPC   C2B49376   8.063  31.242   6.750
 8215POPC   C3B49377   8.057  31.252   7.050
 8215POPC   C4B49378   8.091  31.293   7.350
 8216POPC   NC349379  21.400  11.258   5.550
 8216POPC   PO449380  21.361  11.256   5.850
 8216POPC   GL149381  21.392  11.269   6.150
 8216POPC   GL249382  21.488  11.275   6.150
 8216POPC   C1A49383  21.381  11.282   6.450
 8216POPC   D2A49384  21.433  11.332   6.750
 8216POPC   C3A49385  21.380  11.337   7.050
 8216POPC   C4A49386  21.428  11.337   7.350
 8216POPC   C1B49387  21.604  11.251   6.450
 8216POPC   C2B49388  21.652  11.330   6.750
 8216POPC   C3B49389  21.633  11.316   7.050
 8216POPC   C4B49390  21.595  11.332   7.350
 8217POPC   NC349391   6.628  23.745   5.550
 8217POPC   PO449392   6.681  23.715   5.850
 8217POPC   GL149393   6.681  23.685   6.150
 8217POPC   GL249394   6.775  23.648   6.150
 8217POPC   C1A49395   6.659  23.723   6.450
 8217POPC   D2A49396   6.637  23.685   6.750
 8217POPC   C3A49397   6.625  23.669   7.050
 8217POPC   C4A49398   6.661  23.738   7.350
 8217POPC   C1B49399   6.833  23.540   6.450
 8217POPC   C2B49400   6.773  23.521   6.750
 8217POPC   C3B49401   6.814  23.493   7.050
 8217POPC   C4B49402   6.781  23.542   7.350
 8218POPC   NC349403  33.785  23.703   5.550
 8218POPC   PO449404  33.761  23.680   5.850
 8218POPC   GL149405  33.809  23.719   6.150
 8218POPC   GL249406  33.658  23.688   6.150
 8218POPC   C1A49407  33.778  23.676   6.450
 8218POPC   D2A49408  33.827  23.702   6.750
 8218POPC   C3A49409  33.791  23.667   7.050
 8218POPC   C4A49410  33.828  23.711   7.350
 8218POPC   C1B49411  33.610  23.641   6.450
 8218POPC   C2B49412  33.589  23.635   6.750
 8218POPC   C3B49413  33.521  23.628   7.050
 8218POPC   C4B49414  33.580  23.654   7.350
 8219POPC   NC349415   8.927  24.447   5.550
 8219POPC   PO449416   8.944  24.462   5.850
 8219POPC   GL149417   8.953  24.444   6.150
 8219POPC   GL249418   8.917  24.420   6.150
 8219POPC   C1A49419   8.962  24.451   6.450
 8219POPC   D2A49420   9.017  24.521   6.750
 8219POPC   C3A49421   8.932  24.498   7.050
 8219POPC   C4A49422   8.976  24.480   7.350
 8219POPC   C1B49423   8.814  24.350   6.450
 8219POPC   C2B49424   8.827  24.286   6.750
 8219POPC   C3B49425   8.793  24.308   7.050
 8219POPC   C4B49426   8.748  24.345   7.350
 8220POPC   NC349427   8.212  33.000   5.550
 8220POPC   PO449428   8.243  33.040   5.850
 8220POPC   GL149429   8.172  32.976   6.150
 8220POPC   GL249430   8.091  32.993   6.150
 8220POPC   C1A49431   8.176  32.981   6.450
 8220POPC   D2A49432   8.153  33.008   6.750
 8220POPC   C3A49433   8.190  33.048   7.050
 8220POPC   C4A49434   8.187  33.034   7.350
 8220POPC   C1B49435   7.989  32.853   6.450
 8220POPC   C2B49436   8.006  32.883   6.750
 8220POPC   C3B49437   7.995  32.854   7.050
 8220POPC   C4B49438   8.040  32.916   7.350
 8221POPC   NC349439   9.753  44.670   5.550
 8221POPC   PO449440   9.752  44.708   5.850
 8221POPC   GL149441   9.767  44.643   6.150
 8221POPC   GL249442   9.696  44.490   6.150
 8221POPC   C1A49443   9.700  44.669   6.450
 8221POPC   D2A49444   9.792  44.636   6.750
 8221POPC   C3A49445   9.791  44.628   7.050
 8221POPC   C4A49446   9.720  44.693   7.350
 8221POPC   C1B49447   9.674  44.455   6.450
 8221POPC   C2B49448   9.700  44.407   6.750
 8221POPC   C3B49449   9.709  44.418   7.050
 8221POPC   C4B49450   9.709  44.407   7.350
 8222POPC   NC349451  30.706  21.354   5.550
 8222POPC   PO449452  30.739  21.339   5.850
 8222POPC   GL149453  30.667  21.371   6.150
 8222POPC   GL249454  30.785  21.435   6.150
 8222POPC   C1A49455  30.674  21.362   6.450
 8222POPC   D2A49456  30.718  21.418   6.750
 8222POPC   C3A49457  30.738  21.394   7.050
 8222POPC   C4A49458  30.665  21.381   7.350
 8222POPC   C1B49459  30.891  21.514   6.450
 8222POPC   C2B49460  30.835  21.588   6.750
 8222POPC   C3B49461  30.905  21.516   7.050
 8222POPC   C4B49462  30.848  21.540   7.350
 8223POPC   NC349463  12.066  13.608   5.550
 8223POPC   PO449464  12.068  13.620   5.850
 8223POPC   GL149465  12.045  13.674   6.150
 8223POPC   GL249466  12.157  13.729   6.150
 8223POPC   C1A49467  12.118  13.674   6.450
 8223POPC   D2A49468  12.069  13.648   6.750
 8223POPC   C3A49469  12.037  13.649   7.050
 8223POPC   C4A49470  12.107  13.607   7.350
 8223POPC   C1B49471  12.259  13.786   6.450
 8223POPC   C2B49472  12.274  13.827   6.750
 8223POPC   C3B49473  12.282  13.777   7.050
 8223POPC   C4B49474  12.250  13.794   7.350
 8224POPC   NC349475  10.520   2.023   5.550
 8224POPC   PO449476  10.558   1.949   5.850
 8224POPC   GL149477  10.552   2.012   6.150
 8224POPC   GL249478  10.461   1.904   6.150
 8224POPC   C1A49479  10.520   1.981   6.450
 8224POPC   D2A49480  10.523   2.038   6.750
 8224POPC   C3A49481  10.485   2.033   7.050
 8224POPC   C4A49482  10.524   1.993   7.350
 8224POPC   C1B49483  10.439   1.783   6.450
 8224POPC   C2B49484  10.433   1.732   6.750
 8224POPC   C3B49485  10.515   1.713   7.050
 8224POPC   C4B49486  10.442   1.715   7.350
 8225POPC   NC349487  43.869  15.207   5.550
 8225POPC   PO449488  43.837  15.210   5.850
 8225POPC   GL149489  43.871  15.203   6.150
 8225POPC   GL249490  43.896  15.327   6.150
 8225POPC   C1A49491  43.876  15.164   6.450
 8225POPC   D2A49492  43.901  15.201   6.750
 8225POPC   C3A49493  43.895  15.164   7.050
 8225POPC   C4A49494  43.926  15.147   7.350
 8225POPC   C1B49495  43.934  15.453   6.450
 8225POPC   C2B49496  43.962  15.371   6.750
 8225POPC   C3B49497  43.900  15.407   7.050
 8225POPC   C4B49498  43.948  15.420   7.350
 8226POPC   NC349499  23.672  32.977   5.550
 8226POPC   PO449500  23.683  33.021   5.850
 8226POPC   GL149501  23.746  33.059   6.150
 8226POPC   GL249502  23.552  33.092   6.150
 8226POPC   C1A49503  23.679  33.057   6.450
 8226POPC   D2A49504  23.743  32.985   6.750
 8226POPC   C3A49505  23.722  33.066   7.050
 8226POPC   C4A49506  23.698  33.035   7.350
 8226POPC   C1B49507  23.419  33.082   6.450
 8226POPC   C2B49508  23.423  33.106   6.750
 8226POPC   C3B49509  23.444  33.019   7.050
 8226POPC   C4B49510  23.458  33.108   7.350
 8227POPC   NC349511  44.681  40.768   5.550
 8227POPC   PO449512  44.643  40.823   5.850
 8227POPC   GL149513  44.685  40.751   6.150
 8227POPC   GL249514  44.592  40.913   6.150
 8227POPC   C1A49515  44.631  40.828   6.450
 8227POPC   D2A49516  44.640  40.745   6.750
 8227POPC   C3A49517  44.711  40.825   7.050
 8227POPC   C4A49518  44.613  40.810   7.350
 8227POPC   C1B49519  44.632  41.069   6.450
 8227POPC   C2B49520  44.601  40.986   6.750
 8227POPC   C3B49521  44.615  40.989   7.050
 8227POPC   C4B49522  44.569  41.056   7.350
 8228POPC   NC349523  11.323   7.448   5.550
 8228POPC   PO449524  11.348   7.413   5.850
 8228POPC   GL149525  11.313   7.437   6.150
 8228POPC   GL249526  11.187   7.385   6.150
 8228POPC   C1A49527  11.326   7.469   6.450
 8228POPC   D2A49528  11.328   7.468   6.750
 8228POPC   C3A49529  11.275   7.378   7.050
 8228POPC   C4A49530  11.255   7.442   7.350
 8228POPC   C1B49531  11.142   7.237   6.450
 8228POPC   C2B49532  11.135   7.243   6.750
 8228POPC   C3B49533  11.101   7.223   7.050
 8228POPC   C4B49534  11.074   7.284   7.350
 8229POPC   NC349535  16.001   5.057   5.550
 8229POPC   PO449536  15.972   5.054   5.850
 8229POPC   GL149537  15.933   5.083   6.150
 8229POPC   GL249538  15.853   5.122   6.150
 8229POPC   C1A49539  15.989   5.085   6.450
 8229POPC   D2A49540  15.988   5.128   6.750
 8229POPC   C3A49541  15.916   5.082   7.050
 8229POPC   C4A49542  15.963   5.095   7.350
 8229POPC   C1B49543  15.687   5.099   6.450
 8229POPC   C2B49544  15.716   5.126   6.750
 8229POPC   C3B49545  15.660   5.138   7.050
 8229POPC   C4B49546  15.755   5.072   7.350
 8230POPC   NC349547  28.379   0.487   5.550
 8230POPC   PO449548  28.362   0.467   5.850
 8230POPC   GL149549  28.404   0.425   6.150
 8230POPC   GL249550  28.475   0.387   6.150
 8230POPC   C1A49551  28.418   0.453   6.450
 8230POPC   D2A49552  28.407   0.483   6.750
 8230POPC   C3A49553  28.350   0.474   7.050
 8230POPC   C4A49554  28.396   0.475   7.350
 8230POPC   C1B49555  28.581   0.293   6.450
 8230POPC   C2B49556  28.591   0.362   6.750
 8230POPC   C3B49557  28.605   0.302   7.050
 8230POPC   C4B49558  28.563   0.306   7.350
 8231POPC   NC349559   5.870  33.058   5.550
 8231POPC   PO449560   5.890  32.975   5.850
 8231POPC   GL149561   5.829  33.006   6.150
 8231POPC   GL249562   5.965  33.163   6.150
 8231POPC   C1A49563   5.844  32.993   6.450
 8231POPC   D2A49564   5.853  33.026   6.750
 8231POPC   C3A49565   5.863  33.028   7.050
 8231POPC   C4A49566   5.874  33.000   7.350
 8231POPC   C1B49567   6.004  33.167   6.450
 8231POPC   C2B49568   6.035  33.258   6.750
 8231POPC   C3B49569   5.983  33.189   7.050
 8231POPC   C4B49570   6.032  33.172   7.350
 8232POPC   NC349571   3.533  15.986   5.550
 8232POPC   PO449572   3.584  15.919   5.850
 8232POPC   GL149573   3.562  15.915   6.150
 8232POPC   GL249574   3.509  15.833   6.150
 8232POPC   C1A49575   3.577  15.934   6.450
 8232POPC   D2A49576   3.570  15.933   6.750
 8232POPC   C3A49577   3.512  15.946   7.050
 8232POPC   C4A49578   3.571  15.976   7.350
 8232POPC   C1B49579   3.476  15.659   6.450
 8232POPC   C2B49580   3.519  15.661   6.750
 8232POPC   C3B49581   3.564  15.690   7.050
 8232POPC   C4B49582   3.553  15.714   7.350
 8233POPC   NC349583   6.668  27.556   5.550
 8233POPC   PO449584   6.597  27.593   5.850
 8233POPC   GL149585   6.672  27.559   6.150
 8233POPC   GL249586   6.712  27.508   6.150
 8233POPC   C1A49587   6.691  27.584   6.450
 8233POPC   D2A49588   6.668  27.619   6.750
 8233POPC   C3A49589   6.666  27.624   7.050
 8233POPC   C4A49590   6.597  27.597   7.350
 8233POPC   C1B49591   6.725  27.354   6.450
 8233POPC   C2B49592   6.726  27.351   6.750
 8233POPC   C3B49593   6.687  27.320   7.050
 8233POPC   C4B49594   6.715  27.390   7.350
 8234POPC   NC349595  29.943  40.021   5.550
 8234POPC   PO449596  29.879  39.992   5.850
 8234POPC   GL149597  29.891  39.964   6.150
 8234POPC   GL249598  30.007  39.949   6.150
 8234POPC   C1A49599  29.922  40.053   6.450
 8234POPC   D2A49600  29.924  40.002   6.750
 8234POPC   C3A49601  29.959  39.975   7.050
 8234POPC   C4A49602  29.934  40.002   7.350
 8234POPC   C1B49603  30.127  39.783   6.450
 8234POPC   C2B49604  30.132  39.831   6.750
 8234POPC   C3B49605  30.050  39.831   7.050
 8234POPC   C4B49606  30.059  39.847   7.350
 8235POPC   NC349607  37.696  37.714   5.550
 8235POPC   PO449608  37.671  37.682   5.850
 8235POPC   GL149609  37.708  37.640   6.150
 8235POPC   GL249610  37.559  37.680   6.150
 8235POPC   C1A49611  37.670  37.692   6.450
 8235POPC   D2A49612  37.656  37.713   6.750
 8235POPC   C3A49613  37.691  37.722   7.050
 8235POPC   C4A49614  37.644  37.720   7.350
 8235POPC   C1B49615  37.443  37.552   6.450
 8235POPC   C2B49616  37.397  37.641   6.750
 8235POPC   C3B49617  37.402  37.566   7.050
 8235POPC   C4B49618  37.404  37.568   7.350
 8236POPC   NC349619  12.861  36.146   5.550
 8236POPC   PO449620  12.856  36.120   5.850
 8236POPC   GL149621  12.826  36.164   6.150
 8236POPC   GL249622  12.842  36.285   6.150
 8236POPC   C1A49623  12.886  36.128   6.450
 8236POPC   D2A49624  12.852  36.093   6.750
 8236POPC   C3A49625  12.830  36.170   7.050
 8236POPC   C4A49626  12.861  36.105   7.350
 8236POPC   C1B49627  12.814  36.392   6.450
 8236POPC   C2B49628  12.829  36.350   6.750
 8236POPC   C3B49629  12.846  36.362   7.050
 8236POPC   C4B49630  12.783  36.346   7.350
 8237POPC   NC349631  22.159  28.357   5.550
 8237POPC   PO449632  22.191  28.323   5.850
 8237POPC   GL149633  22.143  28.404   6.150
 8237POPC   GL249634  22.229  28.284   6.150
 8237POPC   C1A49635  22.206  28.402   6.450
 8237POPC   D2A49636  22.119  28.367   6.750
 8237POPC   C3A49637  22.141  28.345   7.050
 8237POPC   C4A49638  22.122  28.401   7.350
 8237POPC   C1B49639  22.305  28.167   6.450
 8237POPC   C2B49640  22.348  28.177   6.750
 8237POPC   C3B49641  22.353  28.228   7.050
 8237POPC   C4B49642  22.334  28.168   7.350
 8238POPC   NC349643  42.314  18.251   5.550
 8238POPC   PO449644  42.377  18.267   5.850
 8238POPC   GL149645  42.325  18.327   6.150
 8238POPC   GL249646  42.336  18.445   6.150
 8238POPC   C1A49647  42.365  18.259   6.450
 8238POPC   D2A49648  42.365  18.314   6.750
 8238POPC   C3A49649  42.296  18.290   7.050
 8238POPC   C4A49650  42.359  18.244   7.350
 8238POPC   C1B49651  42.282  18.508   6.450
 8238POPC   C2B49652  42.311  18.579   6.750
 8238POPC   C3B49653  42.309  18.528   7.050
 8238POPC   C4B49654  42.320  18.544   7.350
 8239POPC   NC349655   0.410  26.858   5.550
 8239POPC   PO449656   0.447  26.790   5.850
 8239POPC   GL149657   0.464  26.782   6.150
 8239POPC   GL249658   0.474  26.717   6.150
 8239POPC   C1A49659   0.423  26.828   6.450
 8239POPC   D2A49660   0.461  26.846   6.750
 8239POPC   C3A49661   0.461  26.839   7.050
 8239POPC   C4A49662   0.444  26.842   7.350
 8239POPC   C1B49663   0.582  26.586   6.450
 8239POPC   C2B49664   0.566  26.647   6.750
 8239POPC   C3B49665   0.623  26.579   7.050
 8239POPC   C4B49666   0.556  26.567   7.350
 8240POPC   NC349667  14.382  34.549   5.550
 8240POPC   PO449668  14.422  34.552   5.850
 8240POPC   GL149669  14.426  34.538   6.150
 8240POPC   GL249670  14.308  34.647   6.150
 8240POPC   C1A49671  14.447  34.608   6.450
 8240POPC   D2A49672  14.414  34.617   6.750
 8240POPC   C3A49673  14.437  34.550   7.050
 8240POPC   C4A49674  14.439  34.595   7.350
 8240POPC   C1B49675  14.170  34.700   6.450
 8240POPC   C2B49676  14.259  34.783   6.750
 8240POPC   C3B49677  14.222  34.787   7.050
 8240POPC   C4B49678  14.216  34.750   7.350
 8241POPC   NC349679   3.517  39.186   5.550
 8241POPC   PO449680   3.571  39.246   5.850
 8241POPC   GL149681   3.547  39.215   6.150
 8241POPC   GL249682   3.456  39.284   6.150
 8241POPC   C1A49683   3.579  39.268   6.450
 8241POPC   D2A49684   3.528  39.213   6.750
 8241POPC   C3A49685   3.567  39.246   7.050
 8241POPC   C4A49686   3.578  39.275   7.350
 8241POPC   C1B49687   3.373  39.392   6.450
 8241POPC   C2B49688   3.394  39.393   6.750
 8241POPC   C3B49689   3.383  39.411   7.050
 8241POPC   C4B49690   3.325  39.369   7.350
 8242POPC   NC349691  34.618  25.226   5.550
 8242POPC   PO449692  34.545  25.244   5.850
 8242POPC   GL149693  34.595  25.272   6.150
 8242POPC   GL249694  34.411  25.258   6.150
 8242POPC   C1A49695  34.546  25.294   6.450
 8242POPC   D2A49696  34.571  25.223   6.750
 8242POPC   C3A49697  34.625  25.231   7.050
 8242POPC   C4A49698  34.537  25.262   7.350
 8242POPC   C1B49699  34.357  25.193   6.450
 8242POPC   C2B49700  34.314  25.159   6.750
 8242POPC   C3B49701  34.332  25.167   7.050
 8242POPC   C4B49702  34.297  25.224   7.350
 8243POPC   NC349703   5.830  35.310   5.550
 8243POPC   PO449704   5.908  35.356   5.850
 8243POPC   GL149705   5.855  35.335   6.150
 8243POPC   GL249706   5.975  35.406   6.150
 8243POPC   C1A49707   5.886  35.367   6.450
 8243POPC   D2A49708   5.914  35.311   6.750
 8243POPC   C3A49709   5.826  35.383   7.050
 8243POPC   C4A49710   5.859  35.337   7.350
 8243POPC   C1B49711   6.069  35.499   6.450
 8243POPC   C2B49712   6.077  35.467   6.750
 8243POPC   C3B49713   6.146  35.431   7.050
 8243POPC   C4B49714   6.103  35.432   7.350
 8244POPC   NC349715  29.932  12.862   5.550
 8244POPC   PO449716  29.878  12.899   5.850
 8244POPC   GL149717  29.906  12.849   6.150
 8244POPC   GL249718  29.840  12.879   6.150
 8244POPC   C1A49719  29.907  12.884   6.450
 8244POPC   D2A49720  29.889  12.840   6.750
 8244POPC   C3A49721  29.873  12.834   7.050
 8244POPC   C4A49722  29.879  12.871   7.350
 8244POPC   C1B49723  29.727  12.953   6.450
 8244POPC   C2B49724  29.668  12.969   6.750
 8244POPC   C3B49725  29.702  12.910   7.050
 8244POPC   C4B49726  29.706  12.961   7.350
 8245POPC   NC349727  21.356   2.739   5.550
 8245POPC   PO449728  21.372   2.723   5.850
 8245POPC   GL149729  21.375   2.785   6.150
 8245POPC   GL249730  21.251   2.766   6.150
 8245POPC   C1A49731  21.383   2.797   6.450
 8245POPC   D2A49732  21.404   2.723   6.750
 8245POPC   C3A49733  21.352   2.772   7.050
 8245POPC   C4A49734  21.398   2.750   7.350
 8245POPC   C1B49735  21.110   2.785   6.450
 8245POPC   C2B49736  21.157   2.763   6.750
 8245POPC   C3B49737  21.163   2.817   7.050
 8245POPC   C4B49738  21.095   2.784   7.350
 8246POPC   NC349739  41.556   8.152   5.550
 8246POPC   PO449740  41.599   8.212   5.850
 8246POPC   GL149741  41.525   8.226   6.150
 8246POPC   GL249742  41.554   8.125   6.150
 8246POPC   C1A49743  41.595   8.184   6.450
 8246POPC   D2A49744  41.554   8.236   6.750
 8246POPC   C3A49745  41.518   8.235   7.050
 8246POPC   C4A49746  41.515   8.217   7.350
 8246POPC   C1B49747  41.623   7.910   6.450
 8246POPC   C2B49748  41.598   7.922   6.750
 8246POPC   C3B49749  41.661   7.922   7.050
 8246POPC   C4B49750  41.591   7.990   7.350
 8247POPC   NC349751   2.737  29.926   5.550
 8247POPC   PO449752   2.777  29.960   5.850
 8247POPC   GL149753   2.765  29.936   6.150
 8247POPC   GL249754   2.848  29.885   6.150
 8247POPC   C1A49755   2.800  29.966   6.450
 8247POPC   D2A49756   2.728  29.890   6.750
 8247POPC   C3A49757   2.801  29.872   7.050
 8247POPC   C4A49758   2.813  29.877   7.350
 8247POPC   C1B49759   3.051  29.873   6.450
 8247POPC   C2B49760   2.978  29.810   6.750
 8247POPC   C3B49761   3.018  29.813   7.050
 8247POPC   C4B49762   2.972  29.888   7.350
 8248POPC   NC349763  16.767  39.964   5.550
 8248POPC   PO449764  16.775  39.959   5.850
 8248POPC   GL149765  16.689  39.994   6.150
 8248POPC   GL249766  16.584  40.057   6.150
 8248POPC   C1A49767  16.698  39.958   6.450
 8248POPC   D2A49768  16.734  39.989   6.750
 8248POPC   C3A49769  16.756  39.959   7.050
 8248POPC   C4A49770  16.751  40.047   7.350
 8248POPC   C1B49771  16.441  39.970   6.450
 8248POPC   C2B49772  16.506  39.996   6.750
 8248POPC   C3B49773  16.514  39.989   7.050
 8248POPC   C4B49774  16.460  40.065   7.350
 8249POPC   NC349775  26.770  33.826   5.550
 8249POPC   PO449776  26.774  33.808   5.850
 8249POPC   GL149777  26.821  33.809   6.150
 8249POPC   GL249778  26.695  33.834   6.150
 8249POPC   C1A49779  26.853  33.784   6.450
 8249POPC   D2A49780  26.777  33.828   6.750
 8249POPC   C3A49781  26.795  33.829   7.050
 8249POPC   C4A49782  26.858  33.820   7.350
 8249POPC   C1B49783  26.604  33.932   6.450
 8249POPC   C2B49784  26.619  33.972   6.750
 8249POPC   C3B49785  26.558  33.917   7.050
 8249POPC   C4B49786  26.576  33.918   7.350
 8250POPC   NC349787  29.166  28.410   5.550
 8250POPC   PO449788  29.173  28.363   5.850
 8250POPC   GL149789  29.183  28.341   6.150
 8250POPC   GL249790  29.277  28.479   6.150
 8250POPC   C1A49791  29.187  28.327   6.450
 8250POPC   D2A49792  29.184  28.398   6.750
 8250POPC   C3A49793  29.127  28.351   7.050
 8250POPC   C4A49794  29.165  28.394   7.350
 8250POPC   C1B49795  29.339  28.589   6.450
 8250POPC   C2B49796  29.283  28.532   6.750
 8250POPC   C3B49797  29.279  28.507   7.050
 8250POPC   C4B49798  29.278  28.546   7.350
 8251POPC   NC349799  41.546  36.130   5.550
 8251POPC   PO449800  41.520  36.096   5.850
 8251POPC   GL149801  41.540  36.099   6.150
 8251POPC   GL249802  41.614  36.016   6.150
 8251POPC   C1A49803  41.581  36.123   6.450
 8251POPC   D2A49804  41.582  36.135   6.750
 8251POPC   C3A49805  41.550  36.149   7.050
 8251POPC   C4A49806  41.583  36.126   7.350
 8251POPC   C1B49807  41.726  36.026   6.450
 8251POPC   C2B49808  41.805  36.035   6.750
 8251POPC   C3B49809  41.732  35.976   7.050
 8251POPC   C4B49810  41.723  35.954   7.350
 8252POPC   NC349811   8.224  41.550   5.550
 8252POPC   PO449812   8.186  41.511   5.850
 8252POPC   GL149813   8.205  41.539   6.150
 8252POPC   GL249814   8.280  41.662   6.150
 8252POPC   C1A49815   8.198  41.582   6.450
 8252POPC   D2A49816   8.169  41.511   6.750
 8252POPC   C3A49817   8.163  41.572   7.050
 8252POPC   C4A49818   8.219  41.537   7.350
 8252POPC   C1B49819   8.346  41.769   6.450
 8252POPC   C2B49820   8.377  41.709   6.750
 8252POPC   C3B49821   8.326  41.719   7.050
 8252POPC   C4B49822   8.409  41.739   7.350
 8253POPC   NC349823  41.597  44.615   5.550
 8253POPC   PO449824  41.603  44.634   5.850
 8253POPC   GL149825  41.519  44.617   6.150
 8253POPC   GL249826  41.472  44.706   6.150
 8253POPC   C1A49827  41.524  44.659   6.450
 8253POPC   D2A49828  41.562  44.684   6.750
 8253POPC   C3A49829  41.509  44.637   7.050
 8253POPC   C4A49830  41.564  44.685   7.350
 8253POPC   C1B49831  41.414  44.871   6.450
 8253POPC   C2B49832  41.365  44.787   6.750
 8253POPC   C3B49833  41.409  44.819   7.050
 8253POPC   C4B49834  41.383  44.807   7.350
 8254POPC   NC349835   4.344  13.602   5.550
 8254POPC   PO449836   4.278  13.671   5.850
 8254POPC   GL149837   4.291  13.620   6.150
 8254POPC   GL249838   4.415  13.712   6.150
 8254POPC   C1A49839   4.354  13.606   6.450
 8254POPC   D2A49840   4.283  13.599   6.750
 8254POPC   C3A49841   4.323  13.628   7.050
 8254POPC   C4A49842   4.362  13.623   7.350
 8254POPC   C1B49843   4.504  13.769   6.450
 8254POPC   C2B49844   4.584  13.767   6.750
 8254POPC   C3B49845   4.501  13.721   7.050
 8254POPC   C4B49846   4.555  13.707   7.350
 8255POPC   NC349847   8.968  30.666   5.550
 8255POPC   PO449848   9.017  30.718   5.850
 8255POPC   GL149849   9.010  30.701   6.150
 8255POPC   GL249850   8.877  30.603   6.150
 8255POPC   C1A49851   9.019  30.725   6.450
 8255POPC   D2A49852   9.002  30.667   6.750
 8255POPC   C3A49853   9.022  30.727   7.050
 8255POPC   C4A49854   8.957  30.663   7.350
 8255POPC   C1B49855   8.908  30.486   6.450
 8255POPC   C2B49856   8.916  30.470   6.750
 8255POPC   C3B49857   8.919  30.490   7.050
 8255POPC   C4B49858   8.889  30.485   7.350
 8256POPC   NC349859  29.953  32.203   5.550
 8256POPC   PO449860  29.899  32.281   5.850
 8256POPC   GL149861  29.890  32.226   6.150
 8256POPC   GL249862  29.770  32.350   6.150
 8256POPC   C1A49863  29.926  32.228   6.450
 8256POPC   D2A49864  29.899  32.281   6.750
 8256POPC   C3A49865  29.961  32.277   7.050
 8256POPC   C4A49866  29.933  32.204   7.350
 8256POPC   C1B49867  29.697  32.423   6.450
 8256POPC   C2B49868  29.673  32.352   6.750
 8256POPC   C3B49869  29.733  32.410   7.050
 8256POPC   C4B49870  29.743  32.412   7.350
 8257POPC   NC349871  31.505  13.587   5.550
 8257POPC   PO449872  31.427  13.635   5.850
 8257POPC   GL149873  31.434  13.669   6.150
 8257POPC   GL249874  31.546  13.695   6.150
 8257POPC   C1A49875  31.480  13.594   6.450
 8257POPC   D2A49876  31.430  13.660   6.750
 8257POPC   C3A49877  31.471  13.633   7.050
 8257POPC   C4A49878  31.493  13.590   7.350
 8257POPC   C1B49879  31.588  13.802   6.450
 8257POPC   C2B49880  31.629  13.866   6.750
 8257POPC   C3B49881  31.643  13.810   7.050
 8257POPC   C4B49882  31.677  13.791   7.350
 8258POPC   NC349883  43.923   1.969   5.550
 8258POPC   PO449884  43.924   1.941   5.850
 8258POPC   GL149885  43.924   2.006   6.150
 8258POPC   GL249886  43.997   1.912   6.150
 8258POPC   C1A49887  43.858   1.956   6.450
 8258POPC   D2A49888  43.900   2.034   6.750
 8258POPC   C3A49889  43.878   2.031   7.050
 8258POPC   C4A49890  43.908   1.995   7.350
 8258POPC   C1B49891  44.076   1.905   6.450
 8258POPC   C2B49892  44.145   1.885   6.750
 8258POPC   C3B49893  44.145   1.923   7.050
 8258POPC   C4B49894  44.067   1.891   7.350
 8259POPC   NC349895  20.634  11.336   5.550
 8259POPC   PO449896  20.624  11.300   5.850
 8259POPC   GL149897  20.599  11.256   6.150
 8259POPC   GL249898  20.613  11.442   6.150
 8259POPC   C1A49899  20.651  11.260   6.450
 8259POPC   D2A49900  20.601  11.270   6.750
 8259POPC   C3A49901  20.644  11.264   7.050
 8259POPC   C4A49902  20.594  11.308   7.350
 8259POPC   C1B49903  20.678  11.578   6.450
 8259POPC   C2B49904  20.653  11.584   6.750
 8259POPC   C3B49905  20.681  11.503   7.050
 8259POPC   C4B49906  20.651  11.574   7.350
 8260POPC   NC349907  26.076   1.213   5.550
 8260POPC   PO449908  26.004   1.188   5.850
 8260POPC   GL149909  26.030   1.189   6.150
 8260POPC   GL249910  26.083   1.125   6.150
 8260POPC   C1A49911  26.012   1.170   6.450
 8260POPC   D2A49912  26.064   1.195   6.750
 8260POPC   C3A49913  26.027   1.205   7.050
 8260POPC   C4A49914  26.070   1.165   7.350
 8260POPC   C1B49915  26.150   0.999   6.450
 8260POPC   C2B49916  26.222   1.032   6.750
 8260POPC   C3B49917  26.194   1.051   7.050
 8260POPC   C4B49918  26.217   1.021   7.350
 8261POPC   NC349919  21.381  27.555   5.550
 8261POPC   PO449920  21.352  27.583   5.850
 8261POPC   GL149921  21.435  27.551   6.150
 8261POPC   GL249922  21.306  27.455   6.150
 8261POPC   C1A49923  21.357  27.604   6.450
 8261POPC   D2A49924  21.389  27.575   6.750
 8261POPC   C3A49925  21.427  27.636   7.050
 8261POPC   C4A49926  21.421  27.595   7.350
 8261POPC   C1B49927  21.201  27.420   6.450
 8261POPC   C2B49928  21.205  27.369   6.750
 8261POPC   C3B49929  21.245  27.433   7.050
 8261POPC   C4B49930  21.248  27.375   7.350
 8262POPC   NC349931  39.260  14.374   5.550
 8262POPC   PO449932  39.218  14.397   5.850
 8262POPC   GL149933  39.213  14.446   6.150
 8262POPC   GL249934  39.144  14.289   6.150
 8262POPC   C1A49935  39.186  14.404   6.450
 8262POPC   D2A49936  39.233  14.440   6.750
 8262POPC   C3A49937  39.194  14.429   7.050
 8262POPC   C4A49938  39.246  14.430   7.350
 8262POPC   C1B49939  39.071  14.226   6.450
 8262POPC   C2B49940  39.057  14.230   6.750
 8262POPC   C3B49941  39.064  14.207   7.050
 8262POPC   C4B49942  39.071  14.168   7.350
 8263POPC   NC349943  43.855  33.806   5.550
 8263POPC   PO449944  43.885  33.779   5.850
 8263POPC   GL149945  43.866  33.826   6.150
 8263POPC   GL249946  43.859  33.872   6.150
 8263POPC   C1A49947  43.925  33.761   6.450
 8263POPC   D2A49948  43.844  33.844   6.750
 8263POPC   C3A49949  43.883  33.850   7.050
 8263POPC   C4A49950  43.936  33.760   7.350
 8263POPC   C1B49951  43.803  34.077   6.450
 8263POPC   C2B49952  43.819  34.049   6.750
 8263POPC   C3B49953  43.831  34.021   7.050
 8263POPC   C4B49954  43.798  34.056   7.350
 8264POPC   NC349955  30.741  18.249   5.550
 8264POPC   PO449956  30.659  18.272   5.850
 8264POPC   GL149957  30.649  18.329   6.150
 8264POPC   GL249958  30.648  18.342   6.150
 8264POPC   C1A49959  30.725  18.252   6.450
 8264POPC   D2A49960  30.675  18.254   6.750
 8264POPC   C3A49961  30.699  18.321   7.050
 8264POPC   C4A49962  30.700  18.245   7.350
 8264POPC   C1B49963  30.558  18.481   6.450
 8264POPC   C2B49964  30.545  18.423   6.750
 8264POPC   C3B49965  30.550  18.466   7.050
 8264POPC   C4B49966  30.571  18.497   7.350
 8265POPC   NC349967  43.140   0.402   5.550
 8265POPC   PO449968  43.147   0.487   5.850
 8265POPC   GL149969  43.085   0.478   6.150
 8265POPC   GL249970  42.992   0.491   6.150
 8265POPC   C1A49971  43.141   0.419   6.450
 8265POPC   D2A49972  43.108   0.402   6.750
 8265POPC   C3A49973  43.132   0.446   7.050
 8265POPC   C4A49974  43.072   0.465   7.350
 8265POPC   C1B49975  42.893   0.590   6.450
 8265POPC   C2B49976  42.918   0.639   6.750
 8265POPC   C3B49977  42.963   0.625   7.050
 8265POPC   C4B49978  42.955   0.636   7.350
 8266POPC   NC349979   1.203  32.230   5.550
 8266POPC   PO449980   1.254  32.259   5.850
 8266POPC   GL149981   1.250  32.274   6.150
 8266POPC   GL249982   1.153  32.159   6.150
 8266POPC   C1A49983   1.174  32.268   6.450
 8266POPC   D2A49984   1.164  32.208   6.750
 8266POPC   C3A49985   1.209  32.210   7.050
 8266POPC   C4A49986   1.257  32.243   7.350
 8266POPC   C1B49987   1.086  31.994   6.450
 8266POPC   C2B49988   1.049  31.987   6.750
 8266POPC   C3B49989   1.050  32.033   7.050
 8266POPC   C4B49990   1.068  31.987   7.350
 8267POPC   NC349991   0.426  19.064   5.550
 8267POPC   PO449992   0.398  19.079   5.850
 8267POPC   GL149993   0.475  19.060   6.150
 8267POPC   GL249994   0.562  18.956   6.150
 8267POPC   C1A49995   0.435  19.025   6.450
 8267POPC   D2A49996   0.477  19.014   6.750
 8267POPC   C3A49997   0.401  19.088   7.050
 8267POPC   C4A49998   0.472  19.105   7.350
 8267POPC   C1B49999   0.541  18.827   6.450
 8267POPC   C2B50000   0.543  18.854   6.750
 8267POPC   C3B50001   0.633  18.908   7.050
 8267POPC   C4B50002   0.569  18.867   7.350
 8268POPC   NC350003  26.778  43.914   5.550
 8268POPC   PO450004  26.860  43.870   5.850
 8268POPC   GL150005  26.837  43.928   6.150
 8268POPC   GL250006  26.666  43.847   6.150
 8268POPC   C1A50007  26.793  43.892   6.450
 8268POPC   D2A50008  26.785  43.869   6.750
 8268POPC   C3A50009  26.771  43.874   7.050
 8268POPC   C4A50010  26.801  43.842   7.350
 8268POPC   C1B50011  26.592  43.854   6.450
 8268POPC   C2B50012  26.573  43.876   6.750
 8268POPC   C3B50013  26.589  43.855   7.050
 8268POPC   C4B50014  26.554  43.868   7.350
 8269POPC   NC350015  29.936  30.667   5.550
 8269POPC   PO450016  29.940  30.664   5.850
 8269POPC   GL150017  29.895  30.713   6.150
 8269POPC   GL250018  30.017  30.763   6.150
 8269POPC   C1A50019  29.961  30.715   6.450
 8269POPC   D2A50020  29.967  30.684   6.750
 8269POPC   C3A50021  29.938  30.745   7.050
 8269POPC   C4A50022  29.872  30.650   7.350
 8269POPC   C1B50023  30.119  30.768   6.450
 8269POPC   C2B50024  30.199  30.717   6.750
 8269POPC   C3B50025  30.123  30.729   7.050
 8269POPC   C4B50026  30.126  30.783   7.350
 8270POPC   NC350027  14.400   9.708   5.550
 8270POPC   PO450028  14.401   9.733   5.850
 8270POPC   GL150029  14.357   9.782   6.150
 8270POPC   GL250030  14.303   9.690   6.150
 8270POPC   C1A50031  14.444   9.764   6.450
 8270POPC   D2A50032  14.382   9.709   6.750
 8270POPC   C3A50033  14.426   9.758   7.050
 8270POPC   C4A50034  14.412   9.792   7.350
 8270POPC   C1B50035  14.246   9.628   6.450
 8270POPC   C2B50036  14.173   9.623   6.750
 8270POPC   C3B50037  14.165   9.563   7.050
 8270POPC   C4B50038  14.200   9.555   7.350
 8271POPC   NC350039  29.956   8.193   5.550
 8271POPC   PO450040  29.959   8.167   5.850
 8271POPC   GL150041  29.881   8.203   6.150
 8271POPC   GL250042  29.862   8.096   6.150
 8271POPC   C1A50043  29.956   8.156   6.450
 8271POPC   D2A50044  29.956   8.161   6.750
 8271POPC   C3A50045  29.898   8.148   7.050
 8271POPC   C4A50046  29.932   8.240   7.350
 8271POPC   C1B50047  29.858   7.930   6.450
 8271POPC   C2B50048  29.880   7.998   6.750
 8271POPC   C3B50049  29.919   7.911   7.050
 8271POPC   C4B50050  29.920   7.940   7.350
 8272POPC   NC350051  25.232  27.585   5.550
 8272POPC   PO450052  25.264  27.612   5.850
 8272POPC   GL150053  25.233  27.608   6.150
 8272POPC   GL250054  25.362  27.577   6.150
 8272POPC   C1A50055  25.228  27.590   6.450
 8272POPC   D2A50056  25.235  27.544   6.750
 8272POPC   C3A50057  25.308  27.605   7.050
 8272POPC   C4A50058  25.262  27.604   7.350
 8272POPC   C1B50059  25.542  27.654   6.450
 8272POPC   C2B50060  25.481  27.631   6.750
 8272POPC   C3B50061  25.529  27.613   7.050
 8272POPC   C4B50062  25.490  27.605   7.350
 8273POPC   NC350063   2.766  36.895   5.550
 8273POPC   PO450064   2.796  36.914   5.850
 8273POPC   GL150065   2.740  36.890   6.150
 8273POPC   GL250066   2.892  36.871   6.150
 8273POPC   C1A50067   2.760  36.877   6.450
 8273POPC   D2A50068   2.729  36.931   6.750
 8273POPC   C3A50069   2.807  36.888   7.050
 8273POPC   C4A50070   2.785  36.950   7.350
 8273POPC   C1B50071   2.981  36.812   6.450
 8273POPC   C2B50072   2.977  36.857   6.750
 8273POPC   C3B50073   3.015  36.880   7.050
 8273POPC   C4B50074   2.963  36.887   7.350
 8274POPC   NC350075   5.843  24.460   5.550
 8274POPC   PO450076   5.904  24.458   5.850
 8274POPC   GL150077   5.863  24.505   6.150
 8274POPC   GL250078   5.717  24.450   6.150
 8274POPC   C1A50079   5.838  24.523   6.450
 8274POPC   D2A50080   5.895  24.498   6.750
 8274POPC   C3A50081   5.844  24.446   7.050
 8274POPC   C4A50082   5.825  24.511   7.350
 8274POPC   C1B50083   5.634  24.457   6.450
 8274POPC   C2B50084   5.656  24.397   6.750
 8274POPC   C3B50085   5.596  24.372   7.050
 8274POPC   C4B50086   5.626  24.451   7.350
 8275POPC   NC350087  33.785  19.095   5.550
 8275POPC   PO450088  33.809  19.102   5.850
 8275POPC   GL150089  33.808  19.029   6.150
 8275POPC   GL250090  33.895  19.095   6.150
 8275POPC   C1A50091  33.810  19.063   6.450
 8275POPC   D2A50092  33.799  19.046   6.750
 8275POPC   C3A50093  33.753  19.011   7.050
 8275POPC   C4A50094  33.788  19.084   7.350
 8275POPC   C1B50095  34.036  19.231   6.450
 8275POPC   C2B50096  34.008  19.193   6.750
 8275POPC   C3B50097  34.057  19.220   7.050
 8275POPC   C4B50098  34.003  19.176   7.350
 8276POPC   NC350099   1.942  28.367   5.550
 8276POPC   PO450100   2.028  28.353   5.850
 8276POPC   GL150101   1.980  28.391   6.150
 8276POPC   GL250102   2.017  28.271   6.150
 8276POPC   C1A50103   1.944  28.397   6.450
 8276POPC   D2A50104   1.996  28.377   6.750
 8276POPC   C3A50105   2.016  28.339   7.050
 8276POPC   C4A50106   2.026  28.364   7.350
 8276POPC   C1B50107   2.014  28.163   6.450
 8276POPC   C2B50108   2.019  28.115   6.750
 8276POPC   C3B50109   1.965  28.134   7.050
 8276POPC   C4B50110   1.970  28.164   7.350
 8277POPC   NC350111  27.548  19.847   5.550
 8277POPC   PO450112  27.563  19.809   5.850
 8277POPC   GL150113  27.548  19.873   6.150
 8277POPC   GL250114  27.629  19.725   6.150
 8277POPC   C1A50115  27.607  19.868   6.450
 8277POPC   D2A50116  27.545  19.823   6.750
 8277POPC   C3A50117  27.581  19.884   7.050
 8277POPC   C4A50118  27.565  19.792   7.350
 8277POPC   C1B50119  27.660  19.581   6.450
 8277POPC   C2B50120  27.651  19.626   6.750
 8277POPC   C3B50121  27.668  19.590   7.050
 8277POPC   C4B50122  27.616  19.602   7.350
 8278POPC   NC350123  11.267   2.009   5.550
 8278POPC   PO450124  11.321   1.962   5.850
 8278POPC   GL150125  11.322   1.971   6.150
 8278POPC   GL250126  11.286   2.125   6.150
 8278POPC   C1A50127  11.276   1.952   6.450
 8278POPC   D2A50128  11.267   1.955   6.750
 8278POPC   C3A50129  11.339   1.953   7.050
 8278POPC   C4A50130  11.314   1.942   7.350
 8278POPC   C1B50131  11.327   2.257   6.450
 8278POPC   C2B50132  11.286   2.237   6.750
 8278POPC   C3B50133  11.242   2.261   7.050
 8278POPC   C4B50134  11.264   2.220   7.350
 8279POPC   NC350135  11.263  24.495   5.550
 8279POPC   PO450136  11.327  24.535   5.850
 8279POPC   GL150137  11.337  24.528   6.150
 8279POPC   GL250138  11.294  24.338   6.150
 8279POPC   C1A50139  11.323  24.500   6.450
 8279POPC   D2A50140  11.302  24.483   6.750
 8279POPC   C3A50141  11.332  24.524   7.050
 8279POPC   C4A50142  11.310  24.463   7.350
 8279POPC   C1B50143  11.346  24.282   6.450
 8279POPC   C2B50144  11.339  24.225   6.750
 8279POPC   C3B50145  11.330  24.209   7.050
 8279POPC   C4B50146  11.316  24.277   7.350
 8280POPC   NC350147   3.526  13.592   5.550
 8280POPC   PO450148   3.558  13.614   5.850
 8280POPC   GL150149   3.561  13.661   6.150
 8280POPC   GL250150   3.429  13.485   6.150
 8280POPC   C1A50151   3.506  13.666   6.450
 8280POPC   D2A50152   3.578  13.640   6.750
 8280POPC   C3A50153   3.514  13.606   7.050
 8280POPC   C4A50154   3.557  13.629   7.350
 8280POPC   C1B50155   3.430  13.380   6.450
 8280POPC   C2B50156   3.453  13.400   6.750
 8280POPC   C3B50157   3.416  13.440   7.050
 8280POPC   C4B50158   3.428  13.427   7.350
 8281POPC   NC350159  28.335  42.332   5.550
 8281POPC   PO450160  28.384  42.319   5.850
 8281POPC   GL150161  28.386  42.309   6.150
 8281POPC   GL250162  28.511  42.266   6.150
 8281POPC   C1A50163  28.368  42.377   6.450
 8281POPC   D2A50164  28.388  42.371   6.750
 8281POPC   C3A50165  28.357  42.329   7.050
 8281POPC   C4A50166  28.411  42.288   7.350
 8281POPC   C1B50167  28.590  42.136   6.450
 8281POPC   C2B50168  28.561  42.135   6.750
 8281POPC   C3B50169  28.595  42.165   7.050
 8281POPC   C4B50170  28.590  42.120   7.350
 8282POPC   NC350171  31.510  12.886   5.550
 8282POPC   PO450172  31.513  12.828   5.850
 8282POPC   GL150173  31.506  12.829   6.150
 8282POPC   GL250174  31.588  12.910   6.150
 8282POPC   C1A50175  31.435  12.896   6.450
 8282POPC   D2A50176  31.471  12.885   6.750
 8282POPC   C3A50177  31.500  12.835   7.050
 8282POPC   C4A50178  31.468  12.851   7.350
 8282POPC   C1B50179  31.683  13.051   6.450
 8282POPC   C2B50180  31.634  13.024   6.750
 8282POPC   C3B50181  31.647  13.074   7.050
 8282POPC   C4B50182  31.610  12.999   7.350
 8283POPC   NC350183  15.223  33.811   5.550
 8283POPC   PO450184  15.144  33.753   5.850
 8283POPC   GL150185  15.176  33.821   6.150
 8283POPC   GL250186  15.199  33.693   6.150
 8283POPC   C1A50187  15.147  33.830   6.450
 8283POPC   D2A50188  15.201  33.784   6.750
 8283POPC   C3A50189  15.134  33.766   7.050
 8283POPC   C4A50190  15.185  33.799   7.350
 8283POPC   C1B50191  15.159  33.600   6.450
 8283POPC   C2B50192  15.208  33.523   6.750
 8283POPC   C3B50193  15.154  33.587   7.050
 8283POPC   C4B50194  15.210  33.573   7.350
 8284POPC   NC350195  15.940  25.997   5.550
 8284POPC   PO450196  15.953  26.005   5.850
 8284POPC   GL150197  15.917  26.023   6.150
 8284POPC   GL250198  15.819  25.915   6.150
 8284POPC   C1A50199  15.997  26.029   6.450
 8284POPC   D2A50200  15.984  26.032   6.750
 8284POPC   C3A50201  15.978  26.038   7.050
 8284POPC   C4A50202  15.948  26.052   7.350
 8284POPC   C1B50203  15.779  25.890   6.450
 8284POPC   C2B50204  15.735  25.882   6.750
 8284POPC   C3B50205  15.818  25.889   7.050
 8284POPC   C4B50206  15.814  25.828   7.350
 8285POPC   NC350207  23.682  29.963   5.550
 8285POPC   PO450208  23.704  29.913   5.850
 8285POPC   GL150209  23.675  29.958   6.150
 8285POPC   GL250210  23.799  30.008   6.150
 8285POPC   C1A50211  23.691  29.885   6.450
 8285POPC   D2A50212  23.707  29.898   6.750
 8285POPC   C3A50213  23.731  29.886   7.050
 8285POPC   C4A50214  23.734  29.953   7.350
 8285POPC   C1B50215  23.783  30.118   6.450
 8285POPC   C2B50216  23.860  30.144   6.750
 8285POPC   C3B50217  23.828  30.101   7.050
 8285POPC   C4B50218  23.841  30.139   7.350
 8286POPC   NC350219  24.532  12.042   5.550
 8286POPC   PO450220  24.462  12.090   5.850
 8286POPC   GL150221  24.512  12.035   6.150
 8286POPC   GL250222  24.578  12.177   6.150
 8286POPC   C1A50223  24.452  12.112   6.450
 8286POPC   D2A50224  24.504  12.054   6.750
 8286POPC   C3A50225  24.488  12.031   7.050
 8286POPC   C4A50226  24.531  12.037   7.350
 8286POPC   C1B50227  24.665  12.280   6.450
 8286POPC   C2B50228  24.627  12.338   6.750
 8286POPC   C3B50229  24.604  12.324   7.050
 8286POPC   C4B50230  24.643  12.334   7.350
 8287POPC   NC350231  39.190   8.952   5.550
 8287POPC   PO450232  39.250   9.019   5.850
 8287POPC   GL150233  39.236   9.005   6.150
 8287POPC   GL250234  39.216   9.146   6.150
 8287POPC   C1A50235  39.197   9.008   6.450
 8287POPC   D2A50236  39.264   8.945   6.750
 8287POPC   C3A50237  39.209   8.972   7.050
 8287POPC   C4A50238  39.235   8.960   7.350
 8287POPC   C1B50239  39.240   9.222   6.450
 8287POPC   C2B50240  39.269   9.239   6.750
 8287POPC   C3B50241  39.259   9.233   7.050
 8287POPC   C4B50242  39.233   9.199   7.350
 8288POPC   NC350243   6.606  36.165   5.550
 8288POPC   PO450244   6.685  36.131   5.850
 8288POPC   GL150245   6.656  36.152   6.150
 8288POPC   GL250246   6.793  36.172   6.150
 8288POPC   C1A50247   6.623  36.174   6.450
 8288POPC   D2A50248   6.654  36.092   6.750
 8288POPC   C3A50249   6.668  36.150   7.050
 8288POPC   C4A50250   6.657  36.107   7.350
 8288POPC   C1B50251   6.874  36.200   6.450
 8288POPC   C2B50252   6.934  36.212   6.750
 8288POPC   C3B50253   6.845  36.181   7.050
 8288POPC   C4B50254   6.844  36.121   7.350
 8289POPC   NC350255  19.805  43.071   5.550
 8289POPC   PO450256  19.851  43.099   5.850
 8289POPC   GL150257  19.813  43.093   6.150
 8289POPC   GL250258  19.726  43.039   6.150
 8289POPC   C1A50259  19.850  43.119   6.450
 8289POPC   D2A50260  19.793  43.122   6.750
 8289POPC   C3A50261  19.860  43.115   7.050
 8289POPC   C4A50262  19.809  43.144   7.350
 8289POPC   C1B50263  19.573  43.017   6.450
 8289POPC   C2B50264  19.591  43.038   6.750
 8289POPC   C3B50265  19.590  42.955   7.050
 8289POPC   C4B50266  19.659  42.949   7.350
 8290POPC   NC350267  12.843   8.989   5.550
 8290POPC   PO450268  12.877   8.968   5.850
 8290POPC   GL150269  12.821   8.951   6.150
 8290POPC   GL250270  12.993   8.972   6.150
 8290POPC   C1A50271  12.803   8.989   6.450
 8290POPC   D2A50272  12.897   8.966   6.750
 8290POPC   C3A50273  12.900   8.968   7.050
 8290POPC   C4A50274  12.820   8.938   7.350
 8290POPC   C1B50275  13.137   8.946   6.450
 8290POPC   C2B50276  13.108   8.887   6.750
 8290POPC   C3B50277  13.082   8.929   7.050
 8290POPC   C4B50278  13.068   8.894   7.350
 8291POPC   NC350279  41.575  26.793   5.550
 8291POPC   PO450280  41.544  26.838   5.850
 8291POPC   GL150281  41.606  26.840   6.150
 8291POPC   GL250282  41.435  26.749   6.150
 8291POPC   C1A50283  41.586  26.821   6.450
 8291POPC   D2A50284  41.571  26.797   6.750
 8291POPC   C3A50285  41.522  26.833   7.050
 8291POPC   C4A50286  41.558  26.824   7.350
 8291POPC   C1B50287  41.354  26.691   6.450
 8291POPC   C2B50288  41.322  26.682   6.750
 8291POPC   C3B50289  41.315  26.684   7.050
 8291POPC   C4B50290  41.361  26.715   7.350
 8292POPC   NC350291   5.106  27.582   5.550
 8292POPC   PO450292   5.098  27.549   5.850
 8292POPC   GL150293   5.115  27.560   6.150
 8292POPC   GL250294   5.050  27.756   6.150
 8292POPC   C1A50295   5.106  27.568   6.450
 8292POPC   D2A50296   5.134  27.593   6.750
 8292POPC   C3A50297   5.082  27.599   7.050
 8292POPC   C4A50298   5.090  27.566   7.350
 8292POPC   C1B50299   5.065  27.808   6.450
 8292POPC   C2B50300   5.060  27.836   6.750
 8292POPC   C3B50301   5.060  27.833   7.050
 8292POPC   C4B50302   5.096  27.889   7.350
 8293POPC   NC350303   1.250   6.632   5.550
 8293POPC   PO450304   1.174   6.691   5.850
 8293POPC   GL150305   1.182   6.670   6.150
 8293POPC   GL250306   1.129   6.681   6.150
 8293POPC   C1A50307   1.212   6.687   6.450
 8293POPC   D2A50308   1.243   6.660   6.750
 8293POPC   C3A50309   1.201   6.606   7.050
 8293POPC   C4A50310   1.257   6.620   7.350
 8293POPC   C1B50311   1.006   6.741   6.450
 8293POPC   C2B50312   1.033   6.766   6.750
 8293POPC   C3B50313   0.983   6.765   7.050
 8293POPC   C4B50314   0.961   6.817   7.350
 8294POPC   NC350315   7.456  29.152   5.550
 8294POPC   PO450316   7.421  29.164   5.850
 8294POPC   GL150317   7.396  29.150   6.150
 8294POPC   GL250318   7.541  29.229   6.150
 8294POPC   C1A50319   7.461  29.161   6.450
 8294POPC   D2A50320   7.381  29.189   6.750
 8294POPC   C3A50321   7.437  29.125   7.050
 8294POPC   C4A50322   7.424  29.099   7.350
 8294POPC   C1B50323   7.600  29.255   6.450
 8294POPC   C2B50324   7.610  29.305   6.750
 8294POPC   C3B50325   7.610  29.248   7.050
 8294POPC   C4B50326   7.675  29.241   7.350
 8295POPC   NC350327   2.792  25.311   5.550
 8295POPC   PO450328   2.737  25.260   5.850
 8295POPC   GL150329   2.805  25.313   6.150
 8295POPC   GL250330   2.910  25.297   6.150
 8295POPC   C1A50331   2.791  25.301   6.450
 8295POPC   D2A50332   2.790  25.256   6.750
 8295POPC   C3A50333   2.780  25.218   7.050
 8295POPC   C4A50334   2.727  25.265   7.350
 8295POPC   C1B50335   2.977  25.401   6.450
 8295POPC   C2B50336   2.969  25.401   6.750
 8295POPC   C3B50337   3.001  25.394   7.050
 8295POPC   C4B50338   2.960  25.364   7.350
 8296POPC   NC350339  29.160  35.352   5.550
 8296POPC   PO450340  29.158  35.317   5.850
 8296POPC   GL150341  29.171  35.347   6.150
 8296POPC   GL250342  28.973  35.374   6.150
 8296POPC   C1A50343  29.112  35.360   6.450
 8296POPC   D2A50344  29.166  35.388   6.750
 8296POPC   C3A50345  29.138  35.386   7.050
 8296POPC   C4A50346  29.109  35.306   7.350
 8296POPC   C1B50347  28.907  35.401   6.450
 8296POPC   C2B50348  28.929  35.366   6.750
 8296POPC   C3B50349  28.858  35.395   7.050
 8296POPC   C4B50350  28.930  35.366   7.350
 8297POPC   NC350351  43.141  29.154   5.550
 8297POPC   PO450352  43.069  29.106   5.850
 8297POPC   GL150353  43.158  29.106   6.150
 8297POPC   GL250354  43.168  29.058   6.150
 8297POPC   C1A50355  43.141  29.105   6.450
 8297POPC   D2A50356  43.095  29.131   6.750
 8297POPC   C3A50357  43.114  29.168   7.050
 8297POPC   C4A50358  43.148  29.116   7.350
 8297POPC   C1B50359  43.273  28.992   6.450
 8297POPC   C2B50360  43.333  29.034   6.750
 8297POPC   C3B50361  43.307  29.043   7.050
 8297POPC   C4B50362  43.309  29.046   7.350
 8298POPC   NC350363  43.857  34.601   5.550
 8298POPC   PO450364  43.843  34.584   5.850
 8298POPC   GL150365  43.861  34.600   6.150
 8298POPC   GL250366  43.818  34.487   6.150
 8298POPC   C1A50367  43.907  34.566   6.450
 8298POPC   D2A50368  43.846  34.591   6.750
 8298POPC   C3A50369  43.887  34.531   7.050
 8298POPC   C4A50370  43.852  34.595   7.350
 8298POPC   C1B50371  43.684  34.431   6.450
 8298POPC   C2B50372  43.702  34.451   6.750
 8298POPC   C3B50373  43.627  34.444   7.050
 8298POPC   C4B50374  43.681  34.482   7.350
 8299POPC   NC350375  16.732  26.860   5.550
 8299POPC   PO450376  16.742  26.794   5.850
 8299POPC   GL150377  16.681  26.793   6.150
 8299POPC   GL250378  16.880  26.845   6.150
 8299POPC   C1A50379  16.737  26.848   6.450
 8299POPC   D2A50380  16.761  26.824   6.750
 8299POPC   C3A50381  16.751  26.828   7.050
 8299POPC   C4A50382  16.740  26.838   7.350
 8299POPC   C1B50383  16.976  26.771   6.450
 8299POPC   C2B50384  16.971  26.778   6.750
 8299POPC   C3B50385  16.960  26.793   7.050
 8299POPC   C4B50386  16.990  26.781   7.350
 8300POPC   NC350387  17.517  21.372   5.550
 8300POPC   PO450388  17.554  21.365   5.850
 8300POPC   GL150389  17.517  21.383   6.150
 8300POPC   GL250390  17.652  21.443   6.150
 8300POPC   C1A50391  17.535  21.371   6.450
 8300POPC   D2A50392  17.494  21.349   6.750
 8300POPC   C3A50393  17.505  21.370   7.050
 8300POPC   C4A50394  17.539  21.431   7.350
 8300POPC   C1B50395  17.730  21.556   6.450
 8300POPC   C2B50396  17.716  21.500   6.750
 8300POPC   C3B50397  17.720  21.508   7.050
 8300POPC   C4B50398  17.705  21.509   7.350
 8301POPC   NC350399  18.302   7.398   5.550
 8301POPC   PO450400  18.266   7.452   5.850
 8301POPC   GL150401  18.308   7.410   6.150
 8301POPC   GL250402  18.128   7.453   6.150
 8301POPC   C1A50403  18.323   7.381   6.450
 8301POPC   D2A50404  18.255   7.382   6.750
 8301POPC   C3A50405  18.240   7.404   7.050
 8301POPC   C4A50406  18.257   7.447   7.350
 8301POPC   C1B50407  18.045   7.398   6.450
 8301POPC   C2B50408  18.049   7.479   6.750
 8301POPC   C3B50409  18.064   7.426   7.050
 8301POPC   C4B50410  18.045   7.399   7.350
 8302POPC   NC350411   4.281   8.218   5.550
 8302POPC   PO450412   4.286   8.241   5.850
 8302POPC   GL150413   4.316   8.204   6.150
 8302POPC   GL250414   4.248   8.349   6.150
 8302POPC   C1A50415   4.283   8.167   6.450
 8302POPC   D2A50416   4.359   8.216   6.750
 8302POPC   C3A50417   4.285   8.240   7.050
 8302POPC   C4A50418   4.321   8.154   7.350
 8302POPC   C1B50419   4.250   8.443   6.450
 8302POPC   C2B50420   4.221   8.407   6.750
 8302POPC   C3B50421   4.264   8.457   7.050
 8302POPC   C4B50422   4.300   8.432   7.350
 8303POPC   NC350423  22.127  44.691   5.550
 8303POPC   PO450424  22.154  44.624   5.850
 8303POPC   GL150425  22.133  44.687   6.150
 8303POPC   GL250426  22.035  44.594   6.150
 8303POPC   C1A50427  22.175  44.656   6.450
 8303POPC   D2A50428  22.162  44.613   6.750
 8303POPC   C3A50429  22.191  44.683   7.050
 8303POPC   C4A50430  22.148  44.629   7.350
 8303POPC   C1B50431  21.968  44.508   6.450
 8303POPC   C2B50432  21.976  44.558   6.750
 8303POPC   C3B50433  21.921  44.486   7.050
 8303POPC   C4B50434  21.931  44.479   7.350
 8304POPC   NC350435  10.567  29.153   5.550
 8304POPC   PO450436  10.485  29.163   5.850
 8304POPC   GL150437  10.558  29.161   6.150
 8304POPC   GL250438  10.645  29.280   6.150
 8304POPC   C1A50439  10.536  29.107   6.450
 8304POPC   D2A50440  10.548  29.113   6.750
 8304POPC   C3A50441  10.513  29.156   7.050
 8304POPC   C4A50442  10.483  29.186   7.350
 8304POPC   C1B50443  10.681  29.302   6.450
 8304POPC   C2B50444  10.699  29.380   6.750
 8304POPC   C3B50445  10.668  29.314   7.050
 8304POPC   C4B50446  10.660  29.311   7.350
 8305POPC   NC350447   1.967  37.672   5.550
 8305POPC   PO450448   1.951  37.636   5.850
 8305POPC   GL150449   1.963  37.722   6.150
 8305POPC   GL250450   2.047  37.585   6.150
 8305POPC   C1A50451   2.039  37.674   6.450
 8305POPC   D2A50452   1.970  37.698   6.750
 8305POPC   C3A50453   2.007  37.636   7.050
 8305POPC   C4A50454   1.977  37.706   7.350
 8305POPC   C1B50455   2.126  37.443   6.450
 8305POPC   C2B50456   2.138  37.518   6.750
 8305POPC   C3B50457   2.188  37.508   7.050
 8305POPC   C4B50458   2.158  37.476   7.350
 8306POPC   NC350459  44.667  14.408   5.550
 8306POPC   PO450460  44.656  14.441   5.850
 8306POPC   GL150461  44.630  14.356   6.150
 8306POPC   GL250462  44.715  14.311   6.150
 8306POPC   C1A50463  44.705  14.354   6.450
 8306POPC   D2A50464  44.613  14.363   6.750
 8306POPC   C3A50465  44.616  14.361   7.050
 8306POPC   C4A50466  44.664  14.421   7.350
 8306POPC   C1B50467  44.766  14.154   6.450
 8306POPC   C2B50468  44.817  14.228   6.750
 8306POPC   C3B50469  44.749  14.222   7.050
 8306POPC   C4B50470  44.819  14.141   7.350
 8307POPC   NC350471  16.745   9.729   5.550
 8307POPC   PO450472  16.699   9.726   5.850
 8307POPC   GL150473  16.747   9.766   6.150
 8307POPC   GL250474  16.875   9.818   6.150
 8307POPC   C1A50475  16.774   9.699   6.450
 8307POPC   D2A50476  16.703   9.743   6.750
 8307POPC   C3A50477  16.700   9.762   7.050
 8307POPC   C4A50478  16.740   9.705   7.350
 8307POPC   C1B50479  16.967   9.938   6.450
 8307POPC   C2B50480  16.944   9.907   6.750
 8307POPC   C3B50481  16.921   9.875   7.050
 8307POPC   C4B50482  16.984   9.881   7.350
 8308POPC   NC350483  31.469  35.378   5.550
 8308POPC   PO450484  31.493  35.326   5.850
 8308POPC   GL150485  31.520  35.362   6.150
 8308POPC   GL250486  31.392  35.321   6.150
 8308POPC   C1A50487  31.488  35.360   6.450
 8308POPC   D2A50488  31.501  35.389   6.750
 8308POPC   C3A50489  31.439  35.398   7.050
 8308POPC   C4A50490  31.445  35.388   7.350
 8308POPC   C1B50491  31.175  35.319   6.450
 8308POPC   C2B50492  31.200  35.358   6.750
 8308POPC   C3B50493  31.255  35.377   7.050
 8308POPC   C4B50494  31.201  35.355   7.350
 8309POPC   NC350495  39.213  29.141   5.550
 8309POPC   PO450496  39.215  29.173   5.850
 8309POPC   GL150497  39.232  29.120   6.150
 8309POPC   GL250498  39.248  29.297   6.150
 8309POPC   C1A50499  39.208  29.165   6.450
 8309POPC   D2A50500  39.238  29.178   6.750
 8309POPC   C3A50501  39.255  29.106   7.050
 8309POPC   C4A50502  39.247  29.183   7.350
 8309POPC   C1B50503  39.242  29.439   6.450
 8309POPC   C2B50504  39.230  29.425   6.750
 8309POPC   C3B50505  39.225  29.438   7.050
 8309POPC   C4B50506  39.250  29.445   7.350
 8310POPC   NC350507   1.222  22.892   5.550
 8310POPC   PO450508   1.172  22.898   5.850
 8310POPC   GL150509   1.252  22.954   6.150
 8310POPC   GL250510   1.346  22.923   6.150
 8310POPC   C1A50511   1.246  22.970   6.450
 8310POPC   D2A50512   1.176  22.936   6.750
 8310POPC   C3A50513   1.221  22.949   7.050
 8310POPC   C4A50514   1.222  22.954   7.350
 8310POPC   C1B50515   1.414  22.914   6.450
 8310POPC   C2B50516   1.464  22.880   6.750
 8310POPC   C3B50517   1.419  22.829   7.050
 8310POPC   C4B50518   1.501  22.833   7.350
 8311POPC   NC350519   2.782  28.366   5.550
 8311POPC   PO450520   2.731  28.385   5.850
 8311POPC   GL150521   2.746  28.407   6.150
 8311POPC   GL250522   2.793  28.290   6.150
 8311POPC   C1A50523   2.787  28.403   6.450
 8311POPC   D2A50524   2.744  28.419   6.750
 8311POPC   C3A50525   2.799  28.320   7.050
 8311POPC   C4A50526   2.741  28.414   7.350
 8311POPC   C1B50527   2.747  28.102   6.450
 8311POPC   C2B50528   2.700  28.140   6.750
 8311POPC   C3B50529   2.691  28.104   7.050
 8311POPC   C4B50530   2.694  28.085   7.350
 8312POPC   NC350531  42.367  21.409   5.550
 8312POPC   PO450532  42.288  21.422   5.850
 8312POPC   GL150533  42.313  21.394   6.150
 8312POPC   GL250534  42.352  21.500   6.150
 8312POPC   C1A50535  42.298  21.396   6.450
 8312POPC   D2A50536  42.291  21.416   6.750
 8312POPC   C3A50537  42.370  21.356   7.050
 8312POPC   C4A50538  42.298  21.390   7.350
 8312POPC   C1B50539  42.407  21.603   6.450
 8312POPC   C2B50540  42.369  21.573   6.750
 8312POPC   C3B50541  42.463  21.628   7.050
 8312POPC   C4B50542  42.385  21.655   7.350
 8313POPC   NC350543  15.927  16.748   5.550
 8313POPC   PO450544  15.981  16.769   5.850
 8313POPC   GL150545  15.961  16.755   6.150
 8313POPC   GL250546  15.945  16.642   6.150
 8313POPC   C1A50547  15.977  16.755   6.450
 8313POPC   D2A50548  15.949  16.733   6.750
 8313POPC   C3A50549  15.978  16.700   7.050
 8313POPC   C4A50550  15.998  16.728   7.350
 8313POPC   C1B50551  15.865  16.507   6.450
 8313POPC   C2B50552  15.811  16.542   6.750
 8313POPC   C3B50553  15.873  16.462   7.050
 8313POPC   C4B50554  15.801  16.490   7.350
 8314POPC   NC350555  13.632  15.965   5.550
 8314POPC   PO450556  13.663  15.969   5.850
 8314POPC   GL150557  13.667  16.005   6.150
 8314POPC   GL250558  13.787  16.036   6.150
 8314POPC   C1A50559  13.585  15.963   6.450
 8314POPC   D2A50560  13.598  15.978   6.750
 8314POPC   C3A50561  13.608  15.928   7.050
 8314POPC   C4A50562  13.644  15.907   7.350
 8314POPC   C1B50563  13.903  16.062   6.450
 8314POPC   C2B50564  13.819  16.052   6.750
 8314POPC   C3B50565  13.883  16.018   7.050
 8314POPC   C4B50566  13.874  16.002   7.350
 8315POPC   NC350567  20.567  25.273   5.550
 8315POPC   PO450568  20.644  25.260   5.850
 8315POPC   GL150569  20.648  25.222   6.150
 8315POPC   GL250570  20.504  25.326   6.150
 8315POPC   C1A50571  20.657  25.285   6.450
 8315POPC   D2A50572  20.594  25.266   6.750
 8315POPC   C3A50573  20.571  25.246   7.050
 8315POPC   C4A50574  20.649  25.241   7.350
 8315POPC   C1B50575  20.417  25.359   6.450
 8315POPC   C2B50576  20.356  25.386   6.750
 8315POPC   C3B50577  20.416  25.364   7.050
 8315POPC   C4B50578  20.377  25.379   7.350
 8316POPC   NC350579   8.971   5.129   5.550
 8316POPC   PO450580   8.929   5.100   5.850
 8316POPC   GL150581   8.952   5.063   6.150
 8316POPC   GL250582   9.037   5.005   6.150
 8316POPC   C1A50583   8.937   5.055   6.450
 8316POPC   D2A50584   9.012   5.143   6.750
 8316POPC   C3A50585   8.984   5.124   7.050
 8316POPC   C4A50586   8.988   5.063   7.350
 8316POPC   C1B50587   9.208   4.930   6.450
 8316POPC   C2B50588   9.164   4.900   6.750
 8316POPC   C3B50589   9.133   4.955   7.050
 8316POPC   C4B50590   9.202   4.970   7.350
 8317POPC   NC350591  22.155   6.665   5.550
 8317POPC   PO450592  22.119   6.692   5.850
 8317POPC   GL150593  22.126   6.609   6.150
 8317POPC   GL250594  22.067   6.725   6.150
 8317POPC   C1A50595  22.135   6.623   6.450
 8317POPC   D2A50596  22.212   6.694   6.750
 8317POPC   C3A50597  22.195   6.636   7.050
 8317POPC   C4A50598  22.165   6.613   7.350
 8317POPC   C1B50599  21.885   6.731   6.450
 8317POPC   C2B50600  21.904   6.762   6.750
 8317POPC   C3B50601  21.970   6.746   7.050
 8317POPC   C4B50602  21.901   6.745   7.350
 8318POPC   NC350603  22.893  28.414   5.550
 8318POPC   PO450604  22.936  28.350   5.850
 8318POPC   GL150605  22.915  28.417   6.150
 8318POPC   GL250606  23.042  28.483   6.150
 8318POPC   C1A50607  22.964  28.365   6.450
 8318POPC   D2A50608  22.956  28.331   6.750
 8318POPC   C3A50609  22.945  28.365   7.050
 8318POPC   C4A50610  22.968  28.335   7.350
 8318POPC   C1B50611  23.071  28.599   6.450
 8318POPC   C2B50612  23.068  28.591   6.750
 8318POPC   C3B50613  23.033  28.620   7.050
 8318POPC   C4B50614  23.072  28.576   7.350
 8319POPC   NC350615  20.659  16.001   5.550
 8319POPC   PO450616  20.596  15.970   5.850
 8319POPC   GL150617  20.642  15.927   6.150
 8319POPC   GL250618  20.674  15.990   6.150
 8319POPC   C1A50619  20.658  15.927   6.450
 8319POPC   D2A50620  20.646  15.972   6.750
 8319POPC   C3A50621  20.605  15.993   7.050
 8319POPC   C4A50622  20.590  15.951   7.350
 8319POPC   C1B50623  20.798  16.058   6.450
 8319POPC   C2B50624  20.819  16.029   6.750
 8319POPC   C3B50625  20.837  16.061   7.050
 8319POPC   C4B50626  20.863  16.028   7.350
 8320POPC   NC350627   1.205  34.583   5.550
 8320POPC   PO450628   1.205  34.558   5.850
 8320POPC   GL150629   1.198  34.571   6.150
 8320POPC   GL250630   1.154  34.714   6.150
 8320POPC   C1A50631   1.232  34.600   6.450
 8320POPC   D2A50632   1.256  34.537   6.750
 8320POPC   C3A50633   1.206  34.603   7.050
 8320POPC   C4A50634   1.190  34.618   7.350
 8320POPC   C1B50635   1.092  34.760   6.450
 8320POPC   C2B50636   1.081  34.777   6.750
 8320POPC   C3B50637   1.075  34.778   7.050
 8320POPC   C4B50638   1.157  34.782   7.350
 8321POPC   NC350639  33.020  17.525   5.550
 8321POPC   PO450640  33.030  17.499   5.850
 8321POPC   GL150641  32.995  17.513   6.150
 8321POPC   GL250642  32.979  17.623   6.150
 8321POPC   C1A50643  33.001  17.531   6.450
 8321POPC   D2A50644  33.017  17.488   6.750
 8321POPC   C3A50645  33.018  17.468   7.050
 8321POPC   C4A50646  33.054  17.520   7.350
 8321POPC   C1B50647  32.950  17.701   6.450
 8321POPC   C2B50648  32.959  17.774   6.750
 8321POPC   C3B50649  32.875  17.763   7.050
 8321POPC   C4B50650  32.951  17.713   7.350
 8322POPC   NC350651  26.862   2.737   5.550
 8322POPC   PO450652  26.809   2.788   5.850
 8322POPC   GL150653  26.783   2.796   6.150
 8322POPC   GL250654  26.670   2.651   6.150
 8322POPC   C1A50655  26.826   2.767   6.450
 8322POPC   D2A50656  26.835   2.749   6.750
 8322POPC   C3A50657  26.779   2.735   7.050
 8322POPC   C4A50658  26.812   2.724   7.350
 8322POPC   C1B50659  26.629   2.570   6.450
 8322POPC   C2B50660  26.580   2.631   6.750
 8322POPC   C3B50661  26.577   2.580   7.050
 8322POPC   C4B50662  26.582   2.576   7.350
 8323POPC   NC350663  16.770  23.705   5.550
 8323POPC   PO450664  16.681  23.749   5.850
 8323POPC   GL150665  16.712  23.690   6.150
 8323POPC   GL250666  16.860  23.728   6.150
 8323POPC   C1A50667  16.705  23.669   6.450
 8323POPC   D2A50668  16.731  23.746   6.750
 8323POPC   C3A50669  16.736  23.693   7.050
 8323POPC   C4A50670  16.777  23.669   7.350
 8323POPC   C1B50671  16.964  23.720   6.450
 8323POPC   C2B50672  16.952  23.707   6.750
 8323POPC   C3B50673  16.953  23.758   7.050
 8323POPC   C4B50674  17.009  23.717   7.350
 8324POPC   NC350675   3.532  36.097   5.550
 8324POPC   PO450676   3.563  36.092   5.850
 8324POPC   GL150677   3.558  36.078   6.150
 8324POPC   GL250678   3.457  36.165   6.150
 8324POPC   C1A50679   3.500  36.111   6.450
 8324POPC   D2A50680   3.516  36.138   6.750
 8324POPC   C3A50681   3.566  36.131   7.050
 8324POPC   C4A50682   3.548  36.083   7.350
 8324POPC   C1B50683   3.269  36.158   6.450
 8324POPC   C2B50684   3.265  36.158   6.750
 8324POPC   C3B50685   3.255  36.161   7.050
 8324POPC   C4B50686   3.289  36.183   7.350
 8325POPC   NC350687  18.273  26.030   5.550
 8325POPC   PO450688  18.323  26.008   5.850
 8325POPC   GL150689  18.258  26.087   6.150
 8325POPC   GL250690  18.139  25.962   6.150
 8325POPC   C1A50691  18.248  26.065   6.450
 8325POPC   D2A50692  18.245  26.056   6.750
 8325POPC   C3A50693  18.285  26.067   7.050
 8325POPC   C4A50694  18.312  26.044   7.350
 8325POPC   C1B50695  18.078  25.916   6.450
 8325POPC   C2B50696  18.076  25.995   6.750
 8325POPC   C3B50697  18.008  25.966   7.050
 8325POPC   C4B50698  17.999  25.960   7.350
 8326POPC   NC350699  37.642  26.089   5.550
 8326POPC   PO450700  37.691  26.041   5.850
 8326POPC   GL150701  37.722  26.090   6.150
 8326POPC   GL250702  37.599  26.135   6.150
 8326POPC   C1A50703  37.712  26.029   6.450
 8326POPC   D2A50704  37.689  26.007   6.750
 8326POPC   C3A50705  37.640  25.997   7.050
 8326POPC   C4A50706  37.729  26.061   7.350
 8326POPC   C1B50707  37.532  26.206   6.450
 8326POPC   C2B50708  37.560  26.192   6.750
 8326POPC   C3B50709  37.488  26.248   7.050
 8326POPC   C4B50710  37.481  26.267   7.350
 8327POPC   NC350711  22.965  43.891   5.550
 8327POPC   PO450712  22.981  43.933   5.850
 8327POPC   GL150713  22.969  43.924   6.150
 8327POPC   GL250714  23.006  44.005   6.150
 8327POPC   C1A50715  22.909  43.886   6.450
 8327POPC   D2A50716  22.941  43.916   6.750
 8327POPC   C3A50717  22.946  43.890   7.050
 8327POPC   C4A50718  22.930  43.879   7.350
 8327POPC   C1B50719  23.007  44.145   6.450
 8327POPC   C2B50720  23.006  44.120   6.750
 8327POPC   C3B50721  23.058  44.137   7.050
 8327POPC   C4B50722  23.017  44.123   7.350
 8328POPC   NC350723  24.452  43.897   5.550
 8328POPC   PO450724  24.536  43.873   5.850
 8328POPC   GL150725  24.467  43.843   6.150
 8328POPC   GL250726  24.526  43.806   6.150
 8328POPC   C1A50727  24.511  43.886   6.450
 8328POPC   D2A50728  24.454  43.892   6.750
 8328POPC   C3A50729  24.506  43.927   7.050
 8328POPC   C4A50730  24.462  43.915   7.350
 8328POPC   C1B50731  24.479  43.653   6.450
 8328POPC   C2B50732  24.449  43.633   6.750
 8328POPC   C3B50733  24.530  43.614   7.050
 8328POPC   C4B50734  24.514  43.637   7.350
 8329POPC   NC350735  32.237  11.293   5.550
 8329POPC   PO450736  32.276  11.347   5.850
 8329POPC   GL150737  32.230  11.327   6.150
 8329POPC   GL250738  32.371  11.274   6.150
 8329POPC   C1A50739  32.240  11.272   6.450
 8329POPC   D2A50740  32.289  11.320   6.750
 8329POPC   C3A50741  32.280  11.316   7.050
 8329POPC   C4A50742  32.228  11.346   7.350
 8329POPC   C1B50743  32.504  11.183   6.450
 8329POPC   C2B50744  32.479  11.183   6.750
 8329POPC   C3B50745  32.483  11.218   7.050
 8329POPC   C4B50746  32.461  11.209   7.350
 8330POPC   NC350747  37.706  43.126   5.550
 8330POPC   PO450748  37.704  43.095   5.850
 8330POPC   GL150749  37.657  43.074   6.150
 8330POPC   GL250750  37.525  43.069   6.150
 8330POPC   C1A50751  37.654  43.077   6.450
 8330POPC   D2A50752  37.673  43.120   6.750
 8330POPC   C3A50753  37.675  43.151   7.050
 8330POPC   C4A50754  37.705  43.120   7.350
 8330POPC   C1B50755  37.467  43.082   6.450
 8330POPC   C2B50756  37.409  43.053   6.750
 8330POPC   C3B50757  37.434  43.006   7.050
 8330POPC   C4B50758  37.428  43.003   7.350
 8331POPC   NC350759  40.736  35.320   5.550
 8331POPC   PO450760  40.791  35.348   5.850
 8331POPC   GL150761  40.759  35.346   6.150
 8331POPC   GL250762  40.797  35.483   6.150
 8331POPC   C1A50763  40.765  35.347   6.450
 8331POPC   D2A50764  40.752  35.390   6.750
 8331POPC   C3A50765  40.828  35.315   7.050
 8331POPC   C4A50766  40.796  35.312   7.350
 8331POPC   C1B50767  40.858  35.575   6.450
 8331POPC   C2B50768  40.884  35.548   6.750
 8331POPC   C3B50769  40.845  35.544   7.050
 8331POPC   C4B50770  40.929  35.588   7.350
 8332POPC   NC350771  35.391  13.624   5.550
 8332POPC   PO450772  35.314  13.591   5.850
 8332POPC   GL150773  35.318  13.677   6.150
 8332POPC   GL250774  35.248  13.589   6.150
 8332POPC   C1A50775  35.359  13.627   6.450
 8332POPC   D2A50776  35.339  13.648   6.750
 8332POPC   C3A50777  35.373  13.635   7.050
 8332POPC   C4A50778  35.320  13.644   7.350
 8332POPC   C1B50779  35.116  13.592   6.450
 8332POPC   C2B50780  35.117  13.612   6.750
 8332POPC   C3B50781  35.091  13.640   7.050
 8332POPC   C4B50782  35.093  13.591   7.350
 8333POPC   NC350783   9.722  37.717   5.550
 8333POPC   PO450784   9.715  37.719   5.850
 8333POPC   GL150785   9.785  37.709   6.150
 8333POPC   GL250786   9.860  37.547   6.150
 8333POPC   C1A50787   9.797  37.698   6.450
 8333POPC   D2A50788   9.722  37.696   6.750
 8333POPC   C3A50789   9.741  37.707   7.050
 8333POPC   C4A50790   9.788  37.694   7.350
 8333POPC   C1B50791   9.915  37.481   6.450
 8333POPC   C2B50792   9.906  37.489   6.750
 8333POPC   C3B50793   9.866  37.499   7.050
 8333POPC   C4B50794   9.945  37.472   7.350
 8334POPC   NC350795  15.957  36.087   5.550
 8334POPC   PO450796  15.940  36.148   5.850
 8334POPC   GL150797  15.954  36.088   6.150
 8334POPC   GL250798  15.897  35.961   6.150
 8334POPC   C1A50799  15.984  36.138   6.450
 8334POPC   D2A50800  15.924  36.147   6.750
 8334POPC   C3A50801  15.998  36.169   7.050
 8334POPC   C4A50802  15.945  36.098   7.350
 8334POPC   C1B50803  15.925  35.898   6.450
 8334POPC   C2B50804  15.928  35.835   6.750
 8334POPC   C3B50805  15.865  35.865   7.050
 8334POPC   C4B50806  15.928  35.861   7.350
 8335POPC   NC350807  41.510  11.345   5.550
 8335POPC   PO450808  41.582  11.301   5.850
 8335POPC   GL150809  41.605  11.331   6.150
 8335POPC   GL250810  41.637  11.308   6.150
 8335POPC   C1A50811  41.525  11.339   6.450
 8335POPC   D2A50812  41.527  11.266   6.750
 8335POPC   C3A50813  41.608  11.310   7.050
 8335POPC   C4A50814  41.540  11.269   7.350
 8335POPC   C1B50815  41.813  11.325   6.450
 8335POPC   C2B50816  41.794  11.303   6.750
 8335POPC   C3B50817  41.761  11.284   7.050
 8335POPC   C4B50818  41.785  11.269   7.350
 8336POPC   NC350819  17.521  17.490   5.550
 8336POPC   PO450820  17.466  17.479   5.850
 8336POPC   GL150821  17.478  17.555   6.150
 8336POPC   GL250822  17.466  17.579   6.150
 8336POPC   C1A50823  17.507  17.532   6.450
 8336POPC   D2A50824  17.514  17.525   6.750
 8336POPC   C3A50825  17.501  17.507   7.050
 8336POPC   C4A50826  17.477  17.473   7.350
 8336POPC   C1B50827  17.429  17.781   6.450
 8336POPC   C2B50828  17.478  17.730   6.750
 8336POPC   C3B50829  17.447  17.709   7.050
 8336POPC   C4B50830  17.420  17.761   7.350
 8337POPC   NC350831   3.573  12.109   5.550
 8337POPC   PO450832   3.493  12.082   5.850
 8337POPC   GL150833   3.572  12.049   6.150
 8337POPC   GL250834   3.585  12.235   6.150
 8337POPC   C1A50835   3.517  12.042   6.450
 8337POPC   D2A50836   3.529  12.106   6.750
 8337POPC   C3A50837   3.580  12.103   7.050
 8337POPC   C4A50838   3.506  12.115   7.350
 8337POPC   C1B50839   3.611  12.304   6.450
 8337POPC   C2B50840   3.630  12.316   6.750
 8337POPC   C3B50841   3.600  12.292   7.050
 8337POPC   C4B50842   3.619  12.283   7.350
 8338POPC   NC350843   6.633   8.923   5.550
 8338POPC   PO450844   6.645   9.004   5.850
 8338POPC   GL150845   6.651   8.949   6.150
 8338POPC   GL250846   6.564   8.931   6.150
 8338POPC   C1A50847   6.613   8.929   6.450
 8338POPC   D2A50848   6.678   9.015   6.750
 8338POPC   C3A50849   6.680   8.965   7.050
 8338POPC   C4A50850   6.664   8.924   7.350
 8338POPC   C1B50851   6.447   8.789   6.450
 8338POPC   C2B50852   6.399   8.794   6.750
 8338POPC   C3B50853   6.465   8.811   7.050
 8338POPC   C4B50854   6.448   8.842   7.350
 8339POPC   NC350855  17.495  26.022   5.550
 8339POPC   PO450856  17.497  26.055   5.850
 8339POPC   GL150857  17.467  26.089   6.150
 8339POPC   GL250858  17.519  26.180   6.150
 8339POPC   C1A50859  17.477  26.000   6.450
 8339POPC   D2A50860  17.469  26.021   6.750
 8339POPC   C3A50861  17.510  26.061   7.050
 8339POPC   C4A50862  17.547  26.074   7.350
 8339POPC   C1B50863  17.629  26.253   6.450
 8339POPC   C2B50864  17.576  26.289   6.750
 8339POPC   C3B50865  17.578  26.289   7.050
 8339POPC   C4B50866  17.620  26.243   7.350
 8340POPC   NC350867  40.751   7.402   5.550
 8340POPC   PO450868  40.749   7.388   5.850
 8340POPC   GL150869  40.766   7.458   6.150
 8340POPC   GL250870  40.932   7.413   6.150
 8340POPC   C1A50871  40.782   7.449   6.450
 8340POPC   D2A50872  40.776   7.440   6.750
 8340POPC   C3A50873  40.794   7.466   7.050
 8340POPC   C4A50874  40.751   7.376   7.350
 8340POPC   C1B50875  41.030   7.408   6.450
 8340POPC   C2B50876  41.064   7.466   6.750
 8340POPC   C3B50877  41.078   7.420   7.050
 8340POPC   C4B50878  41.072   7.411   7.350
 8341POPC   NC350879  12.101  14.450   5.550
 8341POPC   PO450880  12.075  14.390   5.850
 8341POPC   GL150881  12.028  14.424   6.150
 8341POPC   GL250882  12.180  14.277   6.150
 8341POPC   C1A50883  12.102  14.361   6.450
 8341POPC   D2A50884  12.056  14.368   6.750
 8341POPC   C3A50885  12.081  14.379   7.050
 8341POPC   C4A50886  12.028  14.424   7.350
 8341POPC   C1B50887  12.223  14.197   6.450
 8341POPC   C2B50888  12.202  14.195   6.750
 8341POPC   C3B50889  12.273  14.180   7.050
 8341POPC   C4B50890  12.196  14.257   7.350
 8342POPC   NC350891  31.438  20.655   5.550
 8342POPC   PO450892  31.435  20.574   5.850
 8342POPC   GL150893  31.455  20.629   6.150
 8342POPC   GL250894  31.380  20.740   6.150
 8342POPC   C1A50895  31.492  20.589   6.450
 8342POPC   D2A50896  31.426  20.612   6.750
 8342POPC   C3A50897  31.438  20.633   7.050
 8342POPC   C4A50898  31.459  20.573   7.350
 8342POPC   C1B50899  31.297  20.776   6.450
 8342POPC   C2B50900  31.347  20.760   6.750
 8342POPC   C3B50901  31.319  20.742   7.050
 8342POPC   C4B50902  31.325  20.796   7.350
 8343POPC   NC350903  38.420  43.892   5.550
 8343POPC   PO450904  38.413  43.871   5.850
 8343POPC   GL150905  38.423  43.915   6.150
 8343POPC   GL250906  38.482  43.990   6.150
 8343POPC   C1A50907  38.486  43.852   6.450
 8343POPC   D2A50908  38.460  43.886   6.750
 8343POPC   C3A50909  38.429  43.900   7.050
 8343POPC   C4A50910  38.439  43.913   7.350
 8343POPC   C1B50911  38.484  44.119   6.450
 8343POPC   C2B50912  38.508  44.158   6.750
 8343POPC   C3B50913  38.511  44.124   7.050
 8343POPC   C4B50914  38.552  44.121   7.350
 8344POPC   NC350915  36.089  25.254   5.550
 8344POPC   PO450916  36.098  25.258   5.850
 8344POPC   GL150917  36.145  25.314   6.150
 8344POPC   GL250918  36.006  25.362   6.150
 8344POPC   C1A50919  36.127  25.261   6.450
 8344POPC   D2A50920  36.131  25.264   6.750
 8344POPC   C3A50921  36.171  25.233   7.050
 8344POPC   C4A50922  36.109  25.310   7.350
 8344POPC   C1B50923  35.900  25.381   6.450
 8344POPC   C2B50924  35.945  25.363   6.750
 8344POPC   C3B50925  35.891  25.347   7.050
 8344POPC   C4B50926  35.903  25.401   7.350
 8345POPC   NC350927   0.432  23.680   5.550
 8345POPC   PO450928   0.451  23.672   5.850
 8345POPC   GL150929   0.414  23.720   6.150
 8345POPC   GL250930   0.528  23.604   6.150
 8345POPC   C1A50931   0.458  23.689   6.450
 8345POPC   D2A50932   0.406  23.697   6.750
 8345POPC   C3A50933   0.436  23.734   7.050
 8345POPC   C4A50934   0.421  23.702   7.350
 8345POPC   C1B50935   0.609  23.551   6.450
 8345POPC   C2B50936   0.651  23.563   6.750
 8345POPC   C3B50937   0.654  23.558   7.050
 8345POPC   C4B50938   0.635  23.566   7.350
 8346POPC   NC350939  15.924  18.265   5.550
 8346POPC   PO450940  15.927  18.330   5.850
 8346POPC   GL150941  15.993  18.244   6.150
 8346POPC   GL250942  15.863  18.167   6.150
 8346POPC   C1A50943  15.996  18.233   6.450
 8346POPC   D2A50944  15.911  18.273   6.750
 8346POPC   C3A50945  15.965  18.300   7.050
 8346POPC   C4A50946  15.930  18.295   7.350
 8346POPC   C1B50947  15.871  18.043   6.450
 8346POPC   C2B50948  15.908  18.007   6.750
 8346POPC   C3B50949  15.857  18.041   7.050
 8346POPC   C4B50950  15.907  18.014   7.350
 8347POPC   NC350951  38.476  11.345   5.550
 8347POPC   PO450952  38.428  11.335   5.850
 8347POPC   GL150953  38.459  11.295   6.150
 8347POPC   GL250954  38.378  11.195   6.150
 8347POPC   C1A50955  38.463  11.318   6.450
 8347POPC   D2A50956  38.489  11.349   6.750
 8347POPC   C3A50957  38.467  11.321   7.050
 8347POPC   C4A50958  38.456  11.316   7.350
 8347POPC   C1B50959  38.428  11.094   6.450
 8347POPC   C2B50960  38.434  11.046   6.750
 8347POPC   C3B50961  38.386  11.038   7.050
 8347POPC   C4B50962  38.437  11.105   7.350
 8348POPC   NC350963  22.131  36.917   5.550
 8348POPC   PO450964  22.118  36.865   5.850
 8348POPC   GL150965  22.158  36.870   6.150
 8348POPC   GL250966  22.130  36.767   6.150
 8348POPC   C1A50967  22.205  36.862   6.450
 8348POPC   D2A50968  22.157  36.873   6.750
 8348POPC   C3A50969  22.185  36.923   7.050
 8348POPC   C4A50970  22.183  36.920   7.350
 8348POPC   C1B50971  22.123  36.673   6.450
 8348POPC   C2B50972  22.158  36.689   6.750
 8348POPC   C3B50973  22.153  36.688   7.050
 8348POPC   C4B50974  22.102  36.654   7.350
 8349POPC   NC350975   2.767  32.232   5.550
 8349POPC   PO450976   2.753  32.200   5.850
 8349POPC   GL150977   2.758  32.266   6.150
 8349POPC   GL250978   2.861  32.245   6.150
 8349POPC   C1A50979   2.770  32.297   6.450
 8349POPC   D2A50980   2.773  32.216   6.750
 8349POPC   C3A50981   2.748  32.285   7.050
 8349POPC   C4A50982   2.766  32.257   7.350
 8349POPC   C1B50983   2.974  32.206   6.450
 8349POPC   C2B50984   2.988  32.134   6.750
 8349POPC   C3B50985   2.995  32.146   7.050
 8349POPC   C4B50986   3.025  32.150   7.350
 8350POPC   NC350987  34.566  43.874   5.550
 8350POPC   PO450988  34.575  43.869   5.850
 8350POPC   GL150989  34.622  43.864   6.150
 8350POPC   GL250990  34.468  43.886   6.150
 8350POPC   C1A50991  34.612  43.861   6.450
 8350POPC   D2A50992  34.526  43.910   6.750
 8350POPC   C3A50993  34.538  43.858   7.050
 8350POPC   C4A50994  34.583  43.918   7.350
 8350POPC   C1B50995  34.363  43.790   6.450
 8350POPC   C2B50996  34.345  43.837   6.750
 8350POPC   C3B50997  34.343  43.772   7.050
 8350POPC   C4B50998  34.345  43.845   7.350
 8351POPC   NC350999  32.273  39.228   5.550
 8351POPC   PO451000  32.251  39.261   5.850
 8351POPC   GL151001  32.273  39.212   6.150
 8351POPC   GL251002  32.188  39.319   6.150
 8351POPC   C1A51003  32.210  39.201   6.450
 8351POPC   D2A51004  32.237  39.190   6.750
 8351POPC   C3A51005  32.261  39.220   7.050
 8351POPC   C4A51006  32.211  39.245   7.350
 8351POPC   C1B51007  32.121  39.463   6.450
 8351POPC   C2B51008  32.124  39.500   6.750
 8351POPC   C3B51009  32.115  39.451   7.050
 8351POPC   C4B51010  32.193  39.473   7.350
 8352POPC   NC351011  19.872  40.769   5.550
 8352POPC   PO451012  19.829  40.738   5.850
 8352POPC   GL151013  19.798  40.795   6.150
 8352POPC   GL251014  19.782  40.928   6.150
 8352POPC   C1A51015  19.851  40.816   6.450
 8352POPC   D2A51016  19.843  40.782   6.750
 8352POPC   C3A51017  19.818  40.808   7.050
 8352POPC   C4A51018  19.834  40.810   7.350
 8352POPC   C1B51019  19.688  41.001   6.450
 8352POPC   C2B51020  19.673  40.963   6.750
 8352POPC   C3B51021  19.716  40.934   7.050
 8352POPC   C4B51022  19.693  40.966   7.350
 8353POPC   NC351023  26.845  19.107   5.550
 8353POPC   PO451024  26.813  19.035   5.850
 8353POPC   GL151025  26.786  19.070   6.150
 8353POPC   GL251026  26.975  19.086   6.150
 8353POPC   C1A51027  26.783  19.019   6.450
 8353POPC   D2A51028  26.852  19.097   6.750
 8353POPC   C3A51029  26.840  19.015   7.050
 8353POPC   C4A51030  26.814  19.078   7.350
 8353POPC   C1B51031  27.085  19.048   6.450
 8353POPC   C2B51032  27.095  19.085   6.750
 8353POPC   C3B51033  27.085  19.126   7.050
 8353POPC   C4B51034  27.074  19.059   7.350
 8354POPC   NC351035   4.343  35.399   5.550
 8354POPC   PO451036   4.291  35.338   5.850
 8354POPC   GL151037   4.280  35.367   6.150
 8354POPC   GL251038   4.317  35.206   6.150
 8354POPC   C1A51039   4.301  35.349   6.450
 8354POPC   D2A51040   4.335  35.379   6.750
 8354POPC   C3A51041   4.293  35.304   7.050
 8354POPC   C4A51042   4.288  35.310   7.350
 8354POPC   C1B51043   4.188  35.146   6.450
 8354POPC   C2B51044   4.273  35.101   6.750
 8354POPC   C3B51045   4.178  35.108   7.050
 8354POPC   C4B51046   4.234  35.168   7.350
 8355POPC   NC351047  31.440  24.478   5.550
 8355POPC   PO451048  31.458  24.443   5.850
 8355POPC   GL151049  31.433  24.441   6.150
 8355POPC   GL251050  31.355  24.405   6.150
 8355POPC   C1A51051  31.445  24.492   6.450
 8355POPC   D2A51052  31.440  24.468   6.750
 8355POPC   C3A51053  31.456  24.443   7.050
 8355POPC   C4A51054  31.499  24.447   7.350
 8355POPC   C1B51055  31.293  24.277   6.450
 8355POPC   C2B51056  31.299  24.255   6.750
 8355POPC   C3B51057  31.318  24.285   7.050
 8355POPC   C4B51058  31.361  24.329   7.350
 8356POPC   NC351059   8.161  26.064   5.550
 8356POPC   PO451060   8.164  26.018   5.850
 8356POPC   GL151061   8.196  26.025   6.150
 8356POPC   GL251062   8.159  26.139   6.150
 8356POPC   C1A51063   8.227  25.997   6.450
 8356POPC   D2A51064   8.244  25.995   6.750
 8356POPC   C3A51065   8.196  26.037   7.050
 8356POPC   C4A51066   8.244  26.009   7.350
 8356POPC   C1B51067   8.229  26.325   6.450
 8356POPC   C2B51068   8.218  26.260   6.750
 8356POPC   C3B51069   8.183  26.336   7.050
 8356POPC   C4B51070   8.199  26.251   7.350
 8357POPC   NC351071  25.995  33.073   5.550
 8357POPC   PO451072  26.074  33.011   5.850
 8357POPC   GL151073  26.068  33.032   6.150
 8357POPC   GL251074  26.155  33.037   6.150
 8357POPC   C1A51075  26.017  32.981   6.450
 8357POPC   D2A51076  26.061  33.067   6.750
 8357POPC   C3A51077  26.033  32.994   7.050
 8357POPC   C4A51078  25.998  33.056   7.350
 8357POPC   C1B51079  26.243  33.091   6.450
 8357POPC   C2B51080  26.280  33.067   6.750
 8357POPC   C3B51081  26.228  33.067   7.050
 8357POPC   C4B51082  26.321  33.118   7.350
 8358POPC   NC351083   5.823  31.467   5.550
 8358POPC   PO451084   5.839  31.495   5.850
 8358POPC   GL151085   5.907  31.481   6.150
 8358POPC   GL251086   5.746  31.377   6.150
 8358POPC   C1A51087   5.821  31.517   6.450
 8358POPC   D2A51088   5.828  31.494   6.750
 8358POPC   C3A51089   5.843  31.428   7.050
 8358POPC   C4A51090   5.915  31.498   7.350
 8358POPC   C1B51091   5.690  31.306   6.450
 8358POPC   C2B51092   5.750  31.270   6.750
 8358POPC   C3B51093   5.749  31.330   7.050
 8358POPC   C4B51094   5.696  31.258   7.350
 8359POPC   NC351095   9.018  28.394   5.550
 8359POPC   PO451096   8.930  28.391   5.850
 8359POPC   GL151097   8.993  28.367   6.150
 8359POPC   GL251098   8.859  28.282   6.150
 8359POPC   C1A51099   8.934  28.322   6.450
 8359POPC   D2A51100   8.945  28.357   6.750
 8359POPC   C3A51101   8.990  28.388   7.050
 8359POPC   C4A51102   9.015  28.376   7.350
 8359POPC   C1B51103   8.818  28.158   6.450
 8359POPC   C2B51104   8.772  28.231   6.750
 8359POPC   C3B51105   8.814  28.162   7.050
 8359POPC   C4B51106   8.761  28.238   7.350
 8360POPC   NC351107  10.535   7.393   5.550
 8360POPC   PO451108  10.496   7.449   5.850
 8360POPC   GL151109  10.557   7.428   6.150
 8360POPC   GL251110  10.429   7.479   6.150
 8360POPC   C1A51111  10.511   7.466   6.450
 8360POPC   D2A51112  10.558   7.390   6.750
 8360POPC   C3A51113  10.566   7.468   7.050
 8360POPC   C4A51114  10.502   7.405   7.350
 8360POPC   C1B51115  10.337   7.577   6.450
 8360POPC   C2B51116  10.329   7.590   6.750
 8360POPC   C3B51117  10.325   7.626   7.050
 8360POPC   C4B51118  10.339   7.632   7.350
 8361POPC   NC351119   4.335  22.194   5.550
 8361POPC   PO451120   4.294  22.136   5.850
 8361POPC   GL151121   4.302  22.176   6.150
 8361POPC   GL251122   4.406  22.090   6.150
 8361POPC   C1A51123   4.355  22.129   6.450
 8361POPC   D2A51124   4.325  22.201   6.750
 8361POPC   C3A51125   4.332  22.160   7.050
 8361POPC   C4A51126   4.328  22.141   7.350
 8361POPC   C1B51127   4.505  21.942   6.450
 8361POPC   C2B51128   4.486  21.966   6.750
 8361POPC   C3B51129   4.486  22.002   7.050
 8361POPC   C4B51130   4.469  21.959   7.350
 8362POPC   NC351131  32.204  40.747   5.550
 8362POPC   PO451132  32.218  40.804   5.850
 8362POPC   GL151133  32.265  40.746   6.150
 8362POPC   GL251134  32.338  40.836   6.150
 8362POPC   C1A51135  32.243  40.783   6.450
 8362POPC   D2A51136  32.270  40.759   6.750
 8362POPC   C3A51137  32.283  40.737   7.050
 8362POPC   C4A51138  32.264  40.754   7.350
 8362POPC   C1B51139  32.420  41.022   6.450
 8362POPC   C2B51140  32.423  40.961   6.750
 8362POPC   C3B51141  32.367  40.979   7.050
 8362POPC   C4B51142  32.425  41.020   7.350
 8363POPC   NC351143  14.392  25.995   5.550
 8363POPC   PO451144  14.398  26.089   5.850
 8363POPC   GL151145  14.453  26.074   6.150
 8363POPC   GL251146  14.410  25.905   6.150
 8363POPC   C1A51147  14.360  26.078   6.450
 8363POPC   D2A51148  14.403  26.017   6.750
 8363POPC   C3A51149  14.452  25.995   7.050
 8363POPC   C4A51150  14.379  26.035   7.350
 8363POPC   C1B51151  14.395  25.764   6.450
 8363POPC   C2B51152  14.414  25.748   6.750
 8363POPC   C3B51153  14.383  25.756   7.050
 8363POPC   C4B51154  14.435  25.784   7.350
 8364POPC   NC351155   9.742  40.001   5.550
 8364POPC   PO451156   9.785  40.036   5.850
 8364POPC   GL151157   9.756  40.013   6.150
 8364POPC   GL251158   9.646  39.929   6.150
 8364POPC   C1A51159   9.713  39.976   6.450
 8364POPC   D2A51160   9.789  40.010   6.750
 8364POPC   C3A51161   9.742  40.030   7.050
 8364POPC   C4A51162   9.783  39.992   7.350
 8364POPC   C1B51163   9.645  39.758   6.450
 8364POPC   C2B51164   9.666  39.748   6.750
 8364POPC   C3B51165   9.603  39.779   7.050
 8364POPC   C4B51166   9.666  39.776   7.350
 8365POPC   NC351167   8.200   4.287   5.550
 8365POPC   PO451168   8.169   4.320   5.850
 8365POPC   GL151169   8.151   4.356   6.150
 8365POPC   GL251170   8.250   4.243   6.150
 8365POPC   C1A51171   8.228   4.352   6.450
 8365POPC   D2A51172   8.209   4.361   6.750
 8365POPC   C3A51173   8.237   4.357   7.050
 8365POPC   C4A51174   8.189   4.278   7.350
 8365POPC   C1B51175   8.204   4.055   6.450
 8365POPC   C2B51176   8.249   4.102   6.750
 8365POPC   C3B51177   8.253   4.078   7.050
 8365POPC   C4B51178   8.299   4.094   7.350
 8366POPC   NC351179   5.103  15.943   5.550
 8366POPC   PO451180   5.053  15.930   5.850
 8366POPC   GL151181   5.117  15.924   6.150
 8366POPC   GL251182   5.015  15.874   6.150
 8366POPC   C1A51183   5.111  15.910   6.450
 8366POPC   D2A51184   5.112  15.931   6.750
 8366POPC   C3A51185   5.071  15.956   7.050
 8366POPC   C4A51186   5.071  15.972   7.350
 8366POPC   C1B51187   4.905  15.738   6.450
 8366POPC   C2B51188   4.888  15.823   6.750
 8366POPC   C3B51189   4.871  15.820   7.050
 8366POPC   C4B51190   4.878  15.764   7.350
 8367POPC   NC351191  25.261  29.185   5.550
 8367POPC   PO451192  25.290  29.120   5.850
 8367POPC   GL151193  25.315  29.141   6.150
 8367POPC   GL251194  25.125  29.235   6.150
 8367POPC   C1A51195  25.311  29.167   6.450
 8367POPC   D2A51196  25.289  29.104   6.750
 8367POPC   C3A51197  25.220  29.126   7.050
 8367POPC   C4A51198  25.276  29.172   7.350
 8367POPC   C1B51199  25.025  29.234   6.450
 8367POPC   C2B51200  25.033  29.247   6.750
 8367POPC   C3B51201  25.071  29.270   7.050
 8367POPC   C4B51202  25.018  29.217   7.350
 8368POPC   NC351203  26.850  10.477   5.550
 8368POPC   PO451204  26.789  10.563   5.850
 8368POPC   GL151205  26.818  10.520   6.150
 8368POPC   GL251206  26.933  10.447   6.150
 8368POPC   C1A51207  26.772  10.537   6.450
 8368POPC   D2A51208  26.786  10.475   6.750
 8368POPC   C3A51209  26.777  10.488   7.050
 8368POPC   C4A51210  26.856  10.546   7.350
 8368POPC   C1B51211  26.947  10.293   6.450
 8368POPC   C2B51212  26.903  10.284   6.750
 8368POPC   C3B51213  26.995  10.292   7.050
 8368POPC   C4B51214  26.977  10.344   7.350
 8369POPC   NC351215   0.412  12.062   5.550
 8369POPC   PO451216   0.396  12.105   5.850
 8369POPC   GL151217   0.438  12.047   6.150
 8369POPC   GL251218   0.348  12.065   6.150
 8369POPC   C1A51219   0.462  12.107   6.450
 8369POPC   D2A51220   0.421  12.092   6.750
 8369POPC   C3A51221   0.457  12.100   7.050
 8369POPC   C4A51222   0.423  12.060   7.350
 8369POPC   C1B51223   0.245  12.194   6.450
 8369POPC   C2B51224   0.187  12.163   6.750
 8369POPC   C3B51225   0.170  12.168   7.050
 8369POPC   C4B51226   0.243  12.171   7.350
 8370POPC   NC351227  15.968  37.638   5.550
 8370POPC   PO451228  15.975  37.721   5.850
 8370POPC   GL151229  15.977  37.669   6.150
 8370POPC   GL251230  15.888  37.740   6.150
 8370POPC   C1A51231  15.968  37.713   6.450
 8370POPC   D2A51232  15.909  37.673   6.750
 8370POPC   C3A51233  15.994  37.658   7.050
 8370POPC   C4A51234  15.967  37.718   7.350
 8370POPC   C1B51235  15.757  37.802   6.450
 8370POPC   C2B51236  15.748  37.779   6.750
 8370POPC   C3B51237  15.733  37.746   7.050
 8370POPC   C4B51238  15.726  37.792   7.350
 8371POPC   NC351239  43.891  31.510   5.550
 8371POPC   PO451240  43.892  31.485   5.850
 8371POPC   GL151241  43.924  31.466   6.150
 8371POPC   GL251242  43.965  31.630   6.150
 8371POPC   C1A51243  43.933  31.437   6.450
 8371POPC   D2A51244  43.854  31.471   6.750
 8371POPC   C3A51245  43.840  31.467   7.050
 8371POPC   C4A51246  43.887  31.515   7.350
 8371POPC   C1B51247  43.959  31.680   6.450
 8371POPC   C2B51248  43.939  31.728   6.750
 8371POPC   C3B51249  43.992  31.726   7.050
 8371POPC   C4B51250  43.921  31.707   7.350
 8372POPC   NC351251  17.525   8.939   5.550
 8372POPC   PO451252  17.515   8.969   5.850
 8372POPC   GL151253  17.473   8.992   6.150
 8372POPC   GL251254  17.564   8.897   6.150
 8372POPC   C1A51255  17.522   8.942   6.450
 8372POPC   D2A51256  17.543   8.970   6.750
 8372POPC   C3A51257  17.531   8.926   7.050
 8372POPC   C4A51258  17.470   8.936   7.350
 8372POPC   C1B51259  17.560   8.720   6.450
 8372POPC   C2B51260  17.517   8.734   6.750
 8372POPC   C3B51261  17.570   8.710   7.050
 8372POPC   C4B51262  17.531   8.686   7.350
 8373POPC   NC351263  33.841  12.873   5.550
 8373POPC   PO451264  33.769  12.854   5.850
 8373POPC   GL151265  33.790  12.807   6.150
 8373POPC   GL251266  33.913  12.789   6.150
 8373POPC   C1A51267  33.781  12.849   6.450
 8373POPC   D2A51268  33.836  12.871   6.750
 8373POPC   C3A51269  33.792  12.854   7.050
 8373POPC   C4A51270  33.762  12.884   7.350
 8373POPC   C1B51271  33.915  12.633   6.450
 8373POPC   C2B51272  33.943  12.639   6.750
 8373POPC   C3B51273  33.958  12.688   7.050
 8373POPC   C4B51274  33.947  12.669   7.350
 8374POPC   NC351275  18.317  27.576   5.550
 8374POPC   PO451276  18.280  27.629   5.850
 8374POPC   GL151277  18.318  27.553   6.150
 8374POPC   GL251278  18.258  27.752   6.150
 8374POPC   C1A51279  18.328  27.635   6.450
 8374POPC   D2A51280  18.256  27.597   6.750
 8374POPC   C3A51281  18.269  27.559   7.050
 8374POPC   C4A51282  18.259  27.616   7.350
 8374POPC   C1B51283  18.295  27.816   6.450
 8374POPC   C2B51284  18.285  27.869   6.750
 8374POPC   C3B51285  18.263  27.880   7.050
 8374POPC   C4B51286  18.287  27.884   7.350
 8375POPC   NC351287  40.813  36.087   5.550
 8375POPC   PO451288  40.806  36.131   5.850
 8375POPC   GL151289  40.794  36.162   6.150
 8375POPC   GL251290  40.628  36.047   6.150
 8375POPC   C1A51291  40.824  36.146   6.450
 8375POPC   D2A51292  40.741  36.103   6.750
 8375POPC   C3A51293  40.739  36.135   7.050
 8375POPC   C4A51294  40.733  36.128   7.350
 8375POPC   C1B51295  40.620  36.013   6.450
 8375POPC   C2B51296  40.524  36.033   6.750
 8375POPC   C3B51297  40.539  36.010   7.050
 8375POPC   C4B51298  40.606  35.978   7.350
 8376POPC   NC351299  12.899   5.047   5.550
 8376POPC   PO451300  12.894   5.080   5.850
 8376POPC   GL151301  12.814   5.121   6.150
 8376POPC   GL251302  12.779   5.172   6.150
 8376POPC   C1A51303  12.845   5.134   6.450
 8376POPC   D2A51304  12.841   5.138   6.750
 8376POPC   C3A51305  12.844   5.094   7.050
 8376POPC   C4A51306  12.828   5.117   7.350
 8376POPC   C1B51307  12.765   5.337   6.450
 8376POPC   C2B51308  12.828   5.298   6.750
 8376POPC   C3B51309  12.819   5.375   7.050
 8376POPC   C4B51310  12.759   5.293   7.350
 8377POPC   NC351311  43.102  11.251   5.550
 8377POPC   PO451312  43.066  11.278   5.850
 8377POPC   GL151313  43.132  11.349   6.150
 8377POPC   GL251314  43.162  11.200   6.150
 8377POPC   C1A51315  43.133  11.333   6.450
 8377POPC   D2A51316  43.152  11.317   6.750
 8377POPC   C3A51317  43.146  11.298   7.050
 8377POPC   C4A51318  43.098  11.328   7.350
 8377POPC   C1B51319  43.287  11.072   6.450
 8377POPC   C2B51320  43.239  11.105   6.750
 8377POPC   C3B51321  43.313  11.146   7.050
 8377POPC   C4B51322  43.316  11.078   7.350
 8378POPC   NC351323   5.107  20.626   5.550
 8378POPC   PO451324   5.099  20.562   5.850
 8378POPC   GL151325   5.078  20.635   6.150
 8378POPC   GL251326   5.080  20.699   6.150
 8378POPC   C1A51327   5.095  20.638   6.450
 8378POPC   D2A51328   5.058  20.626   6.750
 8378POPC   C3A51329   5.077  20.643   7.050
 8378POPC   C4A51330   5.139  20.588   7.350
 8378POPC   C1B51331   5.019  20.867   6.450
 8378POPC   C2B51332   5.015  20.853   6.750
 8378POPC   C3B51333   4.986  20.842   7.050
 8378POPC   C4B51334   4.995  20.851   7.350
 8379POPC   NC351335  36.949   5.830   5.550
 8379POPC   PO451336  36.897   5.887   5.850
 8379POPC   GL151337  36.896   5.829   6.150
 8379POPC   GL251338  36.798   5.915   6.150
 8379POPC   C1A51339  36.927   5.899   6.450
 8379POPC   D2A51340  36.884   5.912   6.750
 8379POPC   C3A51341  36.876   5.917   7.050
 8379POPC   C4A51342  36.896   5.828   7.350
 8379POPC   C1B51343  36.698   5.996   6.450
 8379POPC   C2B51344  36.704   6.026   6.750
 8379POPC   C3B51345  36.725   6.065   7.050
 8379POPC   C4B51346  36.740   6.059   7.350
 8380POPC   NC351347  36.945  34.538   5.550
 8380POPC   PO451348  36.929  34.530   5.850
 8380POPC   GL151349  36.912  34.548   6.150
 8380POPC   GL251350  36.848  34.527   6.150
 8380POPC   C1A51351  36.873  34.595   6.450
 8380POPC   D2A51352  36.886  34.615   6.750
 8380POPC   C3A51353  36.938  34.564   7.050
 8380POPC   C4A51354  36.891  34.545   7.350
 8380POPC   C1B51355  36.693  34.365   6.450
 8380POPC   C2B51356  36.757  34.403   6.750
 8380POPC   C3B51357  36.684  34.416   7.050
 8380POPC   C4B51358  36.681  34.443   7.350
 8381POPC   NC351359  24.493  29.104   5.550
 8381POPC   PO451360  24.525  29.100   5.850
 8381POPC   GL151361  24.490  29.171   6.150
 8381POPC   GL251362  24.576  29.262   6.150
 8381POPC   C1A51363  24.440  29.169   6.450
 8381POPC   D2A51364  24.440  29.134   6.750
 8381POPC   C3A51365  24.461  29.152   7.050
 8381POPC   C4A51366  24.503  29.097   7.350
 8381POPC   C1B51367  24.642  29.347   6.450
 8381POPC   C2B51368  24.632  29.311   6.750
 8381POPC   C3B51369  24.585  29.342   7.050
 8381POPC   C4B51370  24.620  29.348   7.350
 8382POPC   NC351371  27.609  42.382   5.550
 8382POPC   PO451372  27.563  42.325   5.850
 8382POPC   GL151373  27.626  42.322   6.150
 8382POPC   GL251374  27.608  42.178   6.150
 8382POPC   C1A51375  27.616  42.299   6.450
 8382POPC   D2A51376  27.609  42.291   6.750
 8382POPC   C3A51377  27.549  42.380   7.050
 8382POPC   C4A51378  27.614  42.320   7.350
 8382POPC   C1B51379  27.523  42.078   6.450
 8382POPC   C2B51380  27.492  42.080   6.750
 8382POPC   C3B51381  27.552  42.098   7.050
 8382POPC   C4B51382  27.504  42.130   7.350
 8383POPC   NC351383   8.981  37.712   5.550
 8383POPC   PO451384   8.979  37.712   5.850
 8383POPC   GL151385   9.009  37.719   6.150
 8383POPC   GL251386   8.962  37.812   6.150
 8383POPC   C1A51387   8.948  37.689   6.450
 8383POPC   D2A51388   9.021  37.694   6.750
 8383POPC   C3A51389   9.010  37.647   7.050
 8383POPC   C4A51390   9.011  37.634   7.350
 8383POPC   C1B51391   8.844  37.939   6.450
 8383POPC   C2B51392   8.876  37.914   6.750
 8383POPC   C3B51393   8.854  37.940   7.050
 8383POPC   C4B51394   8.882  37.906   7.350
 8384POPC   NC351395   7.434  39.265   5.550
 8384POPC   PO451396   7.430  39.211   5.850
 8384POPC   GL151397   7.377  39.195   6.150
 8384POPC   GL251398   7.299  39.292   6.150
 8384POPC   C1A51399   7.418  39.189   6.450
 8384POPC   D2A51400   7.380  39.264   6.750
 8384POPC   C3A51401   7.422  39.254   7.050
 8384POPC   C4A51402   7.458  39.274   7.350
 8384POPC   C1B51403   7.218  39.412   6.450
 8384POPC   C2B51404   7.217  39.440   6.750
 8384POPC   C3B51405   7.237  39.391   7.050
 8384POPC   C4B51406   7.217  39.396   7.350
 8385POPC   NC351407  37.699  38.491   5.550
 8385POPC   PO451408  37.723  38.473   5.850
 8385POPC   GL151409  37.712  38.463   6.150
 8385POPC   GL251410  37.600  38.465   6.150
 8385POPC   C1A51411  37.637  38.455   6.450
 8385POPC   D2A51412  37.692  38.432   6.750
 8385POPC   C3A51413  37.722  38.430   7.050
 8385POPC   C4A51414  37.709  38.488   7.350
 8385POPC   C1B51415  37.435  38.561   6.450
 8385POPC   C2B51416  37.497  38.562   6.750
 8385POPC   C3B51417  37.504  38.598   7.050
 8385POPC   C4B51418  37.414  38.612   7.350
 8386POPC   NC351419  29.129  12.832   5.550
 8386POPC   PO451420  29.104  12.806   5.850
 8386POPC   GL151421  29.133  12.850   6.150
 8386POPC   GL251422  29.194  12.696   6.150
 8386POPC   C1A51423  29.171  12.819   6.450
 8386POPC   D2A51424  29.191  12.862   6.750
 8386POPC   C3A51425  29.141  12.805   7.050
 8386POPC   C4A51426  29.096  12.846   7.350
 8386POPC   C1B51427  29.208  12.633   6.450
 8386POPC   C2B51428  29.213  12.584   6.750
 8386POPC   C3B51429  29.211  12.588   7.050
 8386POPC   C4B51430  29.158  12.649   7.350
 8387POPC   NC351431  14.451  28.329   5.550
 8387POPC   PO451432  14.432  28.407   5.850
 8387POPC   GL151433  14.453  28.384   6.150
 8387POPC   GL251434  14.285  28.308   6.150
 8387POPC   C1A51435  14.390  28.374   6.450
 8387POPC   D2A51436  14.369  28.357   6.750
 8387POPC   C3A51437  14.413  28.347   7.050
 8387POPC   C4A51438  14.404  28.322   7.350
 8387POPC   C1B51439  14.202  28.214   6.450
 8387POPC   C2B51440  14.199  28.173   6.750
 8387POPC   C3B51441  14.238  28.225   7.050
 8387POPC   C4B51442  14.231  28.186   7.350
 8388POPC   NC351443  11.303  19.835   5.550
 8388POPC   PO451444  11.331  19.868   5.850
 8388POPC   GL151445  11.270  19.816   6.150
 8388POPC   GL251446  11.380  19.737   6.150
 8388POPC   C1A51447  11.341  19.866   6.450
 8388POPC   D2A51448  11.340  19.791   6.750
 8388POPC   C3A51449  11.284  19.864   7.050
 8388POPC   C4A51450  11.335  19.851   7.350
 8388POPC   C1B51451  11.481  19.689   6.450
 8388POPC   C2B51452  11.472  19.724   6.750
 8388POPC   C3B51453  11.536  19.703   7.050
 8388POPC   C4B51454  11.541  19.728   7.350
 8389POPC   NC351455   7.396   8.180   5.550
 8389POPC   PO451456   7.428   8.237   5.850
 8389POPC   GL151457   7.388   8.212   6.150
 8389POPC   GL251458   7.353   8.235   6.150
 8389POPC   C1A51459   7.437   8.211   6.450
 8389POPC   D2A51460   7.384   8.198   6.750
 8389POPC   C3A51461   7.410   8.196   7.050
 8389POPC   C4A51462   7.406   8.224   7.350
 8389POPC   C1B51463   7.215   8.339   6.450
 8389POPC   C2B51464   7.264   8.342   6.750
 8389POPC   C3B51465   7.175   8.357   7.050
 8389POPC   C4B51466   7.168   8.357   7.350
 8390POPC   NC351467   2.791  35.374   5.550
 8390POPC   PO451468   2.777  35.396   5.850
 8390POPC   GL151469   2.741  35.337   6.150
 8390POPC   GL251470   2.910  35.291   6.150
 8390POPC   C1A51471   2.767  35.349   6.450
 8390POPC   D2A51472   2.793  35.377   6.750
 8390POPC   C3A51473   2.784  35.328   7.050
 8390POPC   C4A51474   2.750  35.345   7.350
 8390POPC   C1B51475   3.007  35.183   6.450
 8390POPC   C2B51476   2.995  35.174   6.750
 8390POPC   C3B51477   2.999  35.169   7.050
 8390POPC   C4B51478   2.963  35.213   7.350
 8391POPC   NC351479   2.022   4.272   5.550
 8391POPC   PO451480   1.977   4.314   5.850
 8391POPC   GL151481   2.039   4.339   6.150
 8391POPC   GL251482   1.992   4.143   6.150
 8391POPC   C1A51483   1.996   4.321   6.450
 8391POPC   D2A51484   1.984   4.283   6.750
 8391POPC   C3A51485   1.952   4.301   7.050
 8391POPC   C4A51486   2.038   4.319   7.350
 8391POPC   C1B51487   2.010   4.089   6.450
 8391POPC   C2B51488   2.004   4.051   6.750
 8391POPC   C3B51489   2.028   4.018   7.050
 8391POPC   C4B51490   2.030   4.028   7.350
 8392POPC   NC351491  17.496  26.855   5.550
 8392POPC   PO451492  17.557  26.828   5.850
 8392POPC   GL151493  17.491  26.793   6.150
 8392POPC   GL251494  17.627  26.727   6.150
 8392POPC   C1A51495  17.519  26.814   6.450
 8392POPC   D2A51496  17.460  26.782   6.750
 8392POPC   C3A51497  17.524  26.789   7.050
 8392POPC   C4A51498  17.496  26.859   7.350
 8392POPC   C1B51499  17.699  26.735   6.450
 8392POPC   C2B51500  17.757  26.665   6.750
 8392POPC   C3B51501  17.728  26.760   7.050
 8392POPC   C4B51502  17.744  26.696   7.350
 8393POPC   NC351503  15.145   5.876   5.550
 8393POPC   PO451504  15.216   5.869   5.850
 8393POPC   GL151505  15.223   5.821   6.150
 8393POPC   GL251506  15.023   5.919   6.150
 8393POPC   C1A51507  15.209   5.918   6.450
 8393POPC   D2A51508  15.191   5.883   6.750
 8393POPC   C3A51509  15.180   5.887   7.050
 8393POPC   C4A51510  15.212   5.904   7.350
 8393POPC   C1B51511  14.962   5.886   6.450
 8393POPC   C2B51512  14.890   5.943   6.750
 8393POPC   C3B51513  14.928   5.897   7.050
 8393POPC   C4B51514  14.935   5.874   7.350
 8394POPC   NC351515   5.840  29.139   5.550
 8394POPC   PO451516   5.876  29.137   5.850
 8394POPC   GL151517   5.830  29.187   6.150
 8394POPC   GL251518   5.733  29.051   6.150
 8394POPC   C1A51519   5.844  29.184   6.450
 8394POPC   D2A51520   5.849  29.104   6.750
 8394POPC   C3A51521   5.835  29.175   7.050
 8394POPC   C4A51522   5.892  29.114   7.350
 8394POPC   C1B51523   5.691  28.955   6.450
 8394POPC   C2B51524   5.718  28.975   6.750
 8394POPC   C3B51525   5.649  28.941   7.050
 8394POPC   C4B51526   5.673  28.964   7.350
 8395POPC   NC351527  43.086  12.079   5.550
 8395POPC   PO451528  43.111  12.096   5.850
 8395POPC   GL151529  43.062  12.028   6.150
 8395POPC   GL251530  43.042  11.972   6.150
 8395POPC   C1A51531  43.114  12.115   6.450
 8395POPC   D2A51532  43.146  12.069   6.750
 8395POPC   C3A51533  43.157  12.124   7.050
 8395POPC   C4A51534  43.133  12.104   7.350
 8395POPC   C1B51535  42.892  11.855   6.450
 8395POPC   C2B51536  42.961  11.865   6.750
 8395POPC   C3B51537  42.902  11.924   7.050
 8395POPC   C4B51538  42.916  11.874   7.350
 8396POPC   NC351539  28.363   1.185   5.550
 8396POPC   PO451540  28.389   1.172   5.850
 8396POPC   GL151541  28.353   1.212   6.150
 8396POPC   GL251542  28.256   1.182   6.150
 8396POPC   C1A51543  28.411   1.170   6.450
 8396POPC   D2A51544  28.380   1.202   6.750
 8396POPC   C3A51545  28.401   1.183   7.050
 8396POPC   C4A51546  28.364   1.202   7.350
 8396POPC   C1B51547  28.092   1.140   6.450
 8396POPC   C2B51548  28.190   1.160   6.750
 8396POPC   C3B51549  28.117   1.113   7.050
 8396POPC   C4B51550  28.103   1.118   7.350
 8397POPC   NC351551   8.969  32.996   5.550
 8397POPC   PO451552   8.973  32.995   5.850
 8397POPC   GL151553   8.984  33.033   6.150
 8397POPC   GL251554   9.030  33.091   6.150
 8397POPC   C1A51555   9.021  33.074   6.450
 8397POPC   D2A51556   8.996  33.052   6.750
 8397POPC   C3A51557   8.984  33.026   7.050
 8397POPC   C4A51558   9.002  33.041   7.350
 8397POPC   C1B51559   9.127  33.220   6.450
 8397POPC   C2B51560   9.121  33.277   6.750
 8397POPC   C3B51561   9.133  33.225   7.050
 8397POPC   C4B51562   9.067  33.239   7.350
 8398POPC   NC351563  43.908  26.011   5.550
 8398POPC   PO451564  43.882  26.028   5.850
 8398POPC   GL151565  43.875  26.038   6.150
 8398POPC   GL251566  43.806  26.185   6.150
 8398POPC   C1A51567  43.934  26.010   6.450
 8398POPC   D2A51568  43.902  26.089   6.750
 8398POPC   C3A51569  43.903  26.041   7.050
 8398POPC   C4A51570  43.849  26.023   7.350
 8398POPC   C1B51571  43.814  26.300   6.450
 8398POPC   C2B51572  43.755  26.240   6.750
 8398POPC   C3B51573  43.804  26.304   7.050
 8398POPC   C4B51574  43.754  26.274   7.350
 8399POPC   NC351575  15.953  33.015   5.550
 8399POPC   PO451576  15.944  33.074   5.850
 8399POPC   GL151577  15.926  32.998   6.150
 8399POPC   GL251578  15.970  33.132   6.150
 8399POPC   C1A51579  15.947  33.029   6.450
 8399POPC   D2A51580  15.945  33.023   6.750
 8399POPC   C3A51581  15.991  33.067   7.050
 8399POPC   C4A51582  15.999  32.991   7.350
 8399POPC   C1B51583  15.983  33.303   6.450
 8399POPC   C2B51584  16.019  33.294   6.750
 8399POPC   C3B51585  16.056  33.313   7.050
 8399POPC   C4B51586  15.984  33.257   7.350
 8400POPC   NC351587  10.475  37.711   5.550
 8400POPC   PO451588  10.564  37.681   5.850
 8400POPC   GL151589  10.502  37.677   6.150
 8400POPC   GL251590  10.430  37.793   6.150
 8400POPC   C1A51591  10.551  37.632   6.450
 8400POPC   D2A51592  10.548  37.648   6.750
 8400POPC   C3A51593  10.519  37.645   7.050
 8400POPC   C4A51594  10.564  37.653   7.350
 8400POPC   C1B51595  10.379  37.889   6.450
 8400POPC   C2B51596  10.416  37.846   6.750
 8400POPC   C3B51597  10.411  37.838   7.050
 8400POPC   C4B51598  10.399  37.844   7.350
 8401POPC   NC351599  33.761  16.734   5.550
 8401POPC   PO451600  33.758  16.748   5.850
 8401POPC   GL151601  33.791  16.719   6.150
 8401POPC   GL251602  33.672  16.663   6.150
 8401POPC   C1A51603  33.818  16.729   6.450
 8401POPC   D2A51604  33.785  16.720   6.750
 8401POPC   C3A51605  33.835  16.701   7.050
 8401POPC   C4A51606  33.763  16.781   7.350
 8401POPC   C1B51607  33.598  16.585   6.450
 8401POPC   C2B51608  33.581  16.635   6.750
 8401POPC   C3B51609  33.589  16.661   7.050
 8401POPC   C4B51610  33.572  16.563   7.350
 8402POPC   NC351611  11.338  12.889   5.550
 8402POPC   PO451612  11.340  12.840   5.850
 8402POPC   GL151613  11.326  12.832   6.150
 8402POPC   GL251614  11.449  12.895   6.150
 8402POPC   C1A51615  11.278  12.894   6.450
 8402POPC   D2A51616  11.268  12.872   6.750
 8402POPC   C3A51617  11.263  12.811   7.050
 8402POPC   C4A51618  11.261  12.875   7.350
 8402POPC   C1B51619  11.504  12.802   6.450
 8402POPC   C2B51620  11.521  12.803   6.750
 8402POPC   C3B51621  11.522  12.860   7.050
 8402POPC   C4B51622  11.520  12.859   7.350
 8403POPC   NC351623  11.300  28.416   5.550
 8403POPC   PO451624  11.274  28.417   5.850
 8403POPC   GL151625  11.321  28.381   6.150
 8403POPC   GL251626  11.143  28.344   6.150
 8403POPC   C1A51627  11.301  28.327   6.450
 8403POPC   D2A51628  11.274  28.414   6.750
 8403POPC   C3A51629  11.327  28.384   7.050
 8403POPC   C4A51630  11.267  28.417   7.350
 8403POPC   C1B51631  11.037  28.348   6.450
 8403POPC   C2B51632  11.093  28.388   6.750
 8403POPC   C3B51633  11.057  28.399   7.050
 8403POPC   C4B51634  11.070  28.409   7.350
 8404POPC   NC351635  13.677  26.832   5.550
 8404POPC   PO451636  13.621  26.826   5.850
 8404POPC   GL151637  13.663  26.851   6.150
 8404POPC   GL251638  13.541  26.879   6.150
 8404POPC   C1A51639  13.621  26.775   6.450
 8404POPC   D2A51640  13.676  26.770   6.750
 8404POPC   C3A51641  13.634  26.801   7.050
 8404POPC   C4A51642  13.593  26.800   7.350
 8404POPC   C1B51643  13.408  26.919   6.450
 8404POPC   C2B51644  13.454  26.964   6.750
 8404POPC   C3B51645  13.391  26.960   7.050
 8404POPC   C4B51646  13.421  26.930   7.350
 8405POPC   NC351647  35.362  25.226   5.550
 8405POPC   PO451648  35.348  25.272   5.850
 8405POPC   GL151649  35.371  25.239   6.150
 8405POPC   GL251650  35.504  25.345   6.150
 8405POPC   C1A51651  35.349  25.246   6.450
 8405POPC   D2A51652  35.359  25.281   6.750
 8405POPC   C3A51653  35.372  25.270   7.050
 8405POPC   C4A51654  35.399  25.256   7.350
 8405POPC   C1B51655  35.635  25.354   6.450
 8405POPC   C2B51656  35.571  25.313   6.750
 8405POPC   C3B51657  35.554  25.375   7.050
 8405POPC   C4B51658  35.558  25.314   7.350
 8406POPC   NC351659   5.905  36.873   5.550
 8406POPC   PO451660   5.843  36.914   5.850
 8406POPC   GL151661   5.902  36.925   6.150
 8406POPC   GL251662   5.902  37.015   6.150
 8406POPC   C1A51663   5.851  36.872   6.450
 8406POPC   D2A51664   5.851  36.919   6.750
 8406POPC   C3A51665   5.896  36.938   7.050
 8406POPC   C4A51666   5.883  36.948   7.350
 8406POPC   C1B51667   5.908  37.139   6.450
 8406POPC   C2B51668   5.893  37.107   6.750
 8406POPC   C3B51669   5.902  37.121   7.050
 8406POPC   C4B51670   5.841  37.146   7.350
 8407POPC   NC351671  36.863  40.753   5.550
 8407POPC   PO451672  36.946  40.798   5.850
 8407POPC   GL151673  36.952  40.777   6.150
 8407POPC   GL251674  37.048  40.724   6.150
 8407POPC   C1A51675  36.925  40.800   6.450
 8407POPC   D2A51676  36.917  40.772   6.750
 8407POPC   C3A51677  36.945  40.745   7.050
 8407POPC   C4A51678  36.933  40.832   7.350
 8407POPC   C1B51679  37.092  40.636   6.450
 8407POPC   C2B51680  37.158  40.685   6.750
 8407POPC   C3B51681  37.085  40.647   7.050
 8407POPC   C4B51682  37.127  40.698   7.350
 8408POPC   NC351683  22.917  11.315   5.550
 8408POPC   PO451684  22.970  11.325   5.850
 8408POPC   GL151685  22.933  11.347   6.150
 8408POPC   GL251686  22.824  11.366   6.150
 8408POPC   C1A51687  22.978  11.257   6.450
 8408POPC   D2A51688  22.910  11.318   6.750
 8408POPC   C3A51689  22.943  11.271   7.050
 8408POPC   C4A51690  22.974  11.348   7.350
 8408POPC   C1B51691  22.714  11.378   6.450
 8408POPC   C2B51692  22.703  11.361   6.750
 8408POPC   C3B51693  22.730  11.315   7.050
 8408POPC   C4B51694  22.652  11.388   7.350
 8409POPC   NC351695  15.191  24.494   5.550
 8409POPC   PO451696  15.140  24.503   5.850
 8409POPC   GL151697  15.191  24.474   6.150
 8409POPC   GL251698  15.084  24.480   6.150
 8409POPC   C1A51699  15.174  24.465   6.450
 8409POPC   D2A51700  15.211  24.507   6.750
 8409POPC   C3A51701  15.193  24.475   7.050
 8409POPC   C4A51702  15.167  24.477   7.350
 8409POPC   C1B51703  14.914  24.354   6.450
 8409POPC   C2B51704  14.928  24.374   6.750
 8409POPC   C3B51705  14.990  24.369   7.050
 8409POPC   C4B51706  14.904  24.379   7.350
 8410POPC   NC351707   5.892  12.085   5.550
 8410POPC   PO451708   5.856  12.082   5.850
 8410POPC   GL151709   5.819  12.064   6.150
 8410POPC   GL251710   5.907  12.149   6.150
 8410POPC   C1A51711   5.836  12.031   6.450
 8410POPC   D2A51712   5.831  12.044   6.750
 8410POPC   C3A51713   5.862  12.063   7.050
 8410POPC   C4A51714   5.912  12.038   7.350
 8410POPC   C1B51715   5.930  12.295   6.450
 8410POPC   C2B51716   5.947  12.315   6.750
 8410POPC   C3B51717   5.943  12.319   7.050
 8410POPC   C4B51718   5.985  12.280   7.350
 8411POPC   NC351719  24.512  32.204   5.550
 8411POPC   PO451720  24.525  32.241   5.850
 8411POPC   GL151721  24.445  32.285   6.150
 8411POPC   GL251722  24.623  32.186   6.150
 8411POPC   C1A51723  24.501  32.228   6.450
 8411POPC   D2A51724  24.508  32.231   6.750
 8411POPC   C3A51725  24.466  32.263   7.050
 8411POPC   C4A51726  24.444  32.241   7.350
 8411POPC   C1B51727  24.692  32.084   6.450
 8411POPC   C2B51728  24.733  32.068   6.750
 8411POPC   C3B51729  24.721  32.118   7.050
 8411POPC   C4B51730  24.684  32.089   7.350
 8412POPC   NC351731  39.246  22.203   5.550
 8412POPC   PO451732  39.267  22.137   5.850
 8412POPC   GL151733  39.273  22.122   6.150
 8412POPC   GL251734  39.272  22.303   6.150
 8412POPC   C1A51735  39.206  22.209   6.450
 8412POPC   D2A51736  39.194  22.124   6.750
 8412POPC   C3A51737  39.190  22.181   7.050
 8412POPC   C4A51738  39.194  22.127   7.350
 8412POPC   C1B51739  39.360  22.348   6.450
 8412POPC   C2B51740  39.293  22.350   6.750
 8412POPC   C3B51741  39.367  22.394   7.050
 8412POPC   C4B51742  39.350  22.432   7.350
 8413POPC   NC351743  43.070  33.789   5.550
 8413POPC   PO451744  43.101  33.785   5.850
 8413POPC   GL151745  43.080  33.831   6.150
 8413POPC   GL251746  43.221  33.757   6.150
 8413POPC   C1A51747  43.139  33.790   6.450
 8413POPC   D2A51748  43.085  33.797   6.750
 8413POPC   C3A51749  43.156  33.763   7.050
 8413POPC   C4A51750  43.139  33.844   7.350
 8413POPC   C1B51751  43.306  33.693   6.450
 8413POPC   C2B51752  43.372  33.775   6.750
 8413POPC   C3B51753  43.313  33.733   7.050
 8413POPC   C4B51754  43.357  33.736   7.350
 8414POPC   NC351755  43.115  23.687   5.550
 8414POPC   PO451756  43.154  23.664   5.850
 8414POPC   GL151757  43.124  23.763   6.150
 8414POPC   GL251758  43.232  23.615   6.150
 8414POPC   C1A51759  43.160  23.694   6.450
 8414POPC   D2A51760  43.110  23.709   6.750
 8414POPC   C3A51761  43.153  23.756   7.050
 8414POPC   C4A51762  43.132  23.761   7.350
 8414POPC   C1B51763  43.277  23.550   6.450
 8414POPC   C2B51764  43.331  23.608   6.750
 8414POPC   C3B51765  43.308  23.559   7.050
 8414POPC   C4B51766  43.272  23.604   7.350
 8415POPC   NC351767  17.556  29.192   5.550
 8415POPC   PO451768  17.470  29.114   5.850
 8415POPC   GL151769  17.498  29.160   6.150
 8415POPC   GL251770  17.400  29.149   6.150
 8415POPC   C1A51771  17.462  29.145   6.450
 8415POPC   D2A51772  17.497  29.110   6.750
 8415POPC   C3A51773  17.496  29.190   7.050
 8415POPC   C4A51774  17.533  29.159   7.350
 8415POPC   C1B51775  17.297  29.064   6.450
 8415POPC   C2B51776  17.245  29.084   6.750
 8415POPC   C3B51777  17.272  29.129   7.050
 8415POPC   C4B51778  17.226  29.089   7.350
 8416POPC   NC351779  15.223  19.037   5.550
 8416POPC   PO451780  15.210  19.072   5.850
 8416POPC   GL151781  15.153  19.042   6.150
 8416POPC   GL251782  15.182  19.174   6.150
 8416POPC   C1A51783  15.216  19.060   6.450
 8416POPC   D2A51784  15.155  19.074   6.750
 8416POPC   C3A51785  15.202  19.036   7.050
 8416POPC   C4A51786  15.177  19.033   7.350
 8416POPC   C1B51787  15.133  19.321   6.450
 8416POPC   C2B51788  15.097  19.291   6.750
 8416POPC   C3B51789  15.163  19.352   7.050
 8416POPC   C4B51790  15.124  19.317   7.350
 8417POPC   NC351791  38.417  40.796   5.550
 8417POPC   PO451792  38.415  40.813   5.850
 8417POPC   GL151793  38.482  40.766   6.150
 8417POPC   GL251794  38.503  40.703   6.150
 8417POPC   C1A51795  38.411  40.770   6.450
 8417POPC   D2A51796  38.499  40.774   6.750
 8417POPC   C3A51797  38.478  40.783   7.050
 8417POPC   C4A51798  38.437  40.812   7.350
 8417POPC   C1B51799  38.556  40.560   6.450
 8417POPC   C2B51800  38.570  40.557   6.750
 8417POPC   C3B51801  38.625  40.604   7.050
 8417POPC   C4B51802  38.557  40.554   7.350
 8418POPC   NC351803  18.271   1.950   5.550
 8418POPC   PO451804  18.321   1.961   5.850
 8418POPC   GL151805  18.292   2.008   6.150
 8418POPC   GL251806  18.229   1.896   6.150
 8418POPC   C1A51807  18.257   2.039   6.450
 8418POPC   D2A51808  18.292   1.958   6.750
 8418POPC   C3A51809  18.289   2.032   7.050
 8418POPC   C4A51810  18.233   2.011   7.350
 8418POPC   C1B51811  18.108   1.869   6.450
 8418POPC   C2B51812  18.043   1.817   6.750
 8418POPC   C3B51813  18.132   1.815   7.050
 8418POPC   C4B51814  18.140   1.823   7.350
 8419POPC   NC351815  39.959  37.712   5.550
 8419POPC   PO451816  40.054  37.728   5.850
 8419POPC   GL151817  40.040  37.693   6.150
 8419POPC   GL251818  40.102  37.576   6.150
 8419POPC   C1A51819  40.026  37.632   6.450
 8419POPC   D2A51820  40.029  37.632   6.750
 8419POPC   C3A51821  40.022  37.702   7.050
 8419POPC   C4A51822  40.003  37.714   7.350
 8419POPC   C1B51823  40.193  37.560   6.450
 8419POPC   C2B51824  40.161  37.516   6.750
 8419POPC   C3B51825  40.229  37.577   7.050
 8419POPC   C4B51826  40.198  37.505   7.350
 8420POPC   NC351827   4.344  36.096   5.550
 8420POPC   PO451828   4.321  36.140   5.850
 8420POPC   GL151829   4.313  36.107   6.150
 8420POPC   GL251830   4.205  36.142   6.150
 8420POPC   C1A51831   4.317  36.109   6.450
 8420POPC   D2A51832   4.303  36.129   6.750
 8420POPC   C3A51833   4.322  36.147   7.050
 8420POPC   C4A51834   4.340  36.141   7.350
 8420POPC   C1B51835   4.035  36.077   6.450
 8420POPC   C2B51836   4.073  36.131   6.750
 8420POPC   C3B51837   4.096  36.127   7.050
 8420POPC   C4B51838   4.034  36.111   7.350
 8421POPC   NC351839  32.979  11.313   5.550
 8421POPC   PO451840  33.008  11.300   5.850
 8421POPC   GL151841  33.033  11.293   6.150
 8421POPC   GL251842  33.095  11.231   6.150
 8421POPC   C1A51843  33.022  11.341   6.450
 8421POPC   D2A51844  33.074  11.330   6.750
 8421POPC   C3A51845  32.992  11.293   7.050
 8421POPC   C4A51846  33.013  11.334   7.350
 8421POPC   C1B51847  33.240  11.162   6.450
 8421POPC   C2B51848  33.275  11.133   6.750
 8421POPC   C3B51849  33.257  11.193   7.050
 8421POPC   C4B51850  33.243  11.131   7.350
 8422POPC   NC351851  12.085  23.720   5.550
 8422POPC   PO451852  12.030  23.709   5.850
 8422POPC   GL151853  12.117  23.757   6.150
 8422POPC   GL251854  11.955  23.776   6.150
 8422POPC   C1A51855  12.059  23.735   6.450
 8422POPC   D2A51856  12.107  23.687   6.750
 8422POPC   C3A51857  12.071  23.729   7.050
 8422POPC   C4A51858  12.117  23.721   7.350
 8422POPC   C1B51859  11.874  23.883   6.450
 8422POPC   C2B51860  11.817  23.815   6.750
 8422POPC   C3B51861  11.834  23.875   7.050
 8422POPC   C4B51862  11.872  23.801   7.350
 8423POPC   NC351863  17.546  39.219   5.550
 8423POPC   PO451864  17.463  39.230   5.850
 8423POPC   GL151865  17.547  39.261   6.150
 8423POPC   GL251866  17.633  39.174   6.150
 8423POPC   C1A51867  17.516  39.271   6.450
 8423POPC   D2A51868  17.528  39.278   6.750
 8423POPC   C3A51869  17.476  39.246   7.050
 8423POPC   C4A51870  17.537  39.228   7.350
 8423POPC   C1B51871  17.673  39.099   6.450
 8423POPC   C2B51872  17.735  39.051   6.750
 8423POPC   C3B51873  17.660  39.028   7.050
 8423POPC   C4B51874  17.715  39.052   7.350
 8424POPC   NC351875  20.622  19.851   5.550
 8424POPC   PO451876  20.648  19.850   5.850
 8424POPC   GL151877  20.567  19.804   6.150
 8424POPC   GL251878  20.589  19.739   6.150
 8424POPC   C1A51879  20.561  19.786   6.450
 8424POPC   D2A51880  20.598  19.792   6.750
 8424POPC   C3A51881  20.658  19.842   7.050
 8424POPC   C4A51882  20.628  19.821   7.350
 8424POPC   C1B51883  20.553  19.585   6.450
 8424POPC   C2B51884  20.578  19.572   6.750
 8424POPC   C3B51885  20.528  19.624   7.050
 8424POPC   C4B51886  20.610  19.563   7.350
 8425POPC   NC351887  10.497  22.896   5.550
 8425POPC   PO451888  10.535  22.910   5.850
 8425POPC   GL151889  10.501  22.908   6.150
 8425POPC   GL251890  10.620  23.018   6.150
 8425POPC   C1A51891  10.495  22.987   6.450
 8425POPC   D2A51892  10.483  22.940   6.750
 8425POPC   C3A51893  10.511  22.899   7.050
 8425POPC   C4A51894  10.553  22.903   7.350
 8425POPC   C1B51895  10.656  23.165   6.450
 8425POPC   C2B51896  10.631  23.164   6.750
 8425POPC   C3B51897  10.676  23.187   7.050
 8425POPC   C4B51898  10.655  23.128   7.350
 8426POPC   NC351899  12.113   9.772   5.550
 8426POPC   PO451900  12.091   9.779   5.850
 8426POPC   GL151901  12.089   9.766   6.150
 8426POPC   GL251902  12.040   9.602   6.150
 8426POPC   C1A51903  12.110   9.711   6.450
 8426POPC   D2A51904  12.082   9.723   6.750
 8426POPC   C3A51905  12.045   9.716   7.050
 8426POPC   C4A51906  12.107   9.771   7.350
 8426POPC   C1B51907  11.984   9.477   6.450
 8426POPC   C2B51908  11.976   9.497   6.750
 8426POPC   C3B51909  11.937   9.555   7.050
 8426POPC   C4B51910  12.029   9.547   7.350
 8427POPC   NC351911  13.623  39.262   5.550
 8427POPC   PO451912  13.610  39.280   5.850
 8427POPC   GL151913  13.621  39.183   6.150
 8427POPC   GL251914  13.698  39.147   6.150
 8427POPC   C1A51915  13.647  39.206   6.450
 8427POPC   D2A51916  13.607  39.223   6.750
 8427POPC   C3A51917  13.646  39.226   7.050
 8427POPC   C4A51918  13.619  39.241   7.350
 8427POPC   C1B51919  13.741  39.008   6.450
 8427POPC   C2B51920  13.732  39.052   6.750
 8427POPC   C3B51921  13.779  39.009   7.050
 8427POPC   C4B51922  13.794  39.022   7.350
 8428POPC   NC351923  14.439  37.674   5.550
 8428POPC   PO451924  14.451  37.715   5.850
 8428POPC   GL151925  14.403  37.719   6.150
 8428POPC   GL251926  14.283  37.568   6.150
 8428POPC   C1A51927  14.383  37.709   6.450
 8428POPC   D2A51928  14.440  37.663   6.750
 8428POPC   C3A51929  14.432  37.681   7.050
 8428POPC   C4A51930  14.436  37.644   7.350
 8428POPC   C1B51931  14.200  37.495   6.450
 8428POPC   C2B51932  14.243  37.566   6.750
 8428POPC   C3B51933  14.235  37.534   7.050
 8428POPC   C4B51934  14.193  37.546   7.350
 8429POPC   NC351935   8.999   7.398   5.550
 8429POPC   PO451936   8.928   7.384   5.850
 8429POPC   GL151937   9.021   7.373   6.150
 8429POPC   GL251938   8.881   7.386   6.150
 8429POPC   C1A51939   8.984   7.441   6.450
 8429POPC   D2A51940   8.971   7.446   6.750
 8429POPC   C3A51941   8.961   7.413   7.050
 8429POPC   C4A51942   8.971   7.466   7.350
 8429POPC   C1B51943   8.682   7.394   6.450
 8429POPC   C2B51944   8.736   7.365   6.750
 8429POPC   C3B51945   8.691   7.366   7.050
 8429POPC   C4B51946   8.771   7.335   7.350
 8430POPC   NC351947  31.469  32.244   5.550
 8430POPC   PO451948  31.444  32.232   5.850
 8430POPC   GL151949  31.484  32.243   6.150
 8430POPC   GL251950  31.586  32.127   6.150
 8430POPC   C1A51951  31.428  32.209   6.450
 8430POPC   D2A51952  31.509  32.199   6.750
 8430POPC   C3A51953  31.470  32.266   7.050
 8430POPC   C4A51954  31.505  32.220   7.350
 8430POPC   C1B51955  31.617  32.052   6.450
 8430POPC   C2B51956  31.631  32.081   6.750
 8430POPC   C3B51957  31.631  32.061   7.050
 8430POPC   C4B51958  31.601  32.035   7.350
 8431POPC   NC351959  43.129  18.264   5.550
 8431POPC   PO451960  43.134  18.298   5.850
 8431POPC   GL151961  43.156  18.235   6.150
 8431POPC   GL251962  43.009  18.302   6.150
 8431POPC   C1A51963  43.158  18.315   6.450
 8431POPC   D2A51964  43.088  18.300   6.750
 8431POPC   C3A51965  43.129  18.251   7.050
 8431POPC   C4A51966  43.087  18.295   7.350
 8431POPC   C1B51967  42.893  18.270   6.450
 8431POPC   C2B51968  42.890  18.341   6.750
 8431POPC   C3B51969  42.886  18.272   7.050
 8431POPC   C4B51970  42.887  18.345   7.350
 8432POPC   NC351971  31.510  36.931   5.550
 8432POPC   PO451972  31.465  36.870   5.850
 8432POPC   GL151973  31.458  36.859   6.150
 8432POPC   GL251974  31.575  36.979   6.150
 8432POPC   C1A51975  31.467  36.876   6.450
 8432POPC   D2A51976  31.457  36.868   6.750
 8432POPC   C3A51977  31.471  36.916   7.050
 8432POPC   C4A51978  31.438  36.932   7.350
 8432POPC   C1B51979  31.666  37.063   6.450
 8432POPC   C2B51980  31.648  37.056   6.750
 8432POPC   C3B51981  31.603  37.086   7.050
 8432POPC   C4B51982  31.643  37.128   7.350
 8433POPC   NC351983   1.978  22.904   5.550
 8433POPC   PO451984   1.959  22.888   5.850
 8433POPC   GL151985   1.994  22.892   6.150
 8433POPC   GL251986   2.130  22.913   6.150
 8433POPC   C1A51987   1.983  22.935   6.450
 8433POPC   D2A51988   1.941  22.983   6.750
 8433POPC   C3A51989   1.969  22.946   7.050
 8433POPC   C4A51990   2.038  22.890   7.350
 8433POPC   C1B51991   2.241  22.931   6.450
 8433POPC   C2B51992   2.265  22.850   6.750
 8433POPC   C3B51993   2.223  22.912   7.050
 8433POPC   C4B51994   2.232  22.899   7.350
 8434POPC   NC351995  28.369  34.610   5.550
 8434POPC   PO451996  28.320  34.613   5.850
 8434POPC   GL151997  28.336  34.579   6.150
 8434POPC   GL251998  28.501  34.540   6.150
 8434POPC   C1A51999  28.377  34.526   6.450
 8434POPC   D2A52000  28.350  34.586   6.750
 8434POPC   C3A52001  28.331  34.568   7.050
 8434POPC   C4A52002  28.399  34.596   7.350
 8434POPC   C1B52003  28.585  34.460   6.450
 8434POPC   C2B52004  28.568  34.479   6.750
 8434POPC   C3B52005  28.570  34.484   7.050
 8434POPC   C4B52006  28.609  34.520   7.350
 8435POPC   NC352007  42.354   3.519   5.550
 8435POPC   PO452008  42.353   3.508   5.850
 8435POPC   GL152009  42.324   3.501   6.150
 8435POPC   GL252010  42.308   3.655   6.150
 8435POPC   C1A52011  42.378   3.591   6.450
 8435POPC   D2A52012  42.371   3.499   6.750
 8435POPC   C3A52013  42.356   3.520   7.050
 8435POPC   C4A52014  42.299   3.546   7.350
 8435POPC   C1B52015  42.255   3.781   6.450
 8435POPC   C2B52016  42.228   3.807   6.750
 8435POPC   C3B52017  42.260   3.758   7.050
 8435POPC   C4B52018  42.223   3.801   7.350
 8436POPC   NC352019  42.336  36.859   5.550
 8436POPC   PO452020  42.350  36.895   5.850
 8436POPC   GL152021  42.344  36.885   6.150
 8436POPC   GL252022  42.166  36.953   6.150
 8436POPC   C1A52023  42.295  36.898   6.450
 8436POPC   D2A52024  42.333  36.921   6.750
 8436POPC   C3A52025  42.364  36.861   7.050
 8436POPC   C4A52026  42.346  36.871   7.350
 8436POPC   C1B52027  42.130  36.931   6.450
 8436POPC   C2B52028  42.131  36.971   6.750
 8436POPC   C3B52029  42.101  36.935   7.050
 8436POPC   C4B52030  42.052  36.926   7.350
 8437POPC   NC352031  39.960  25.287   5.550
 8437POPC   PO452032  40.013  25.295   5.850
 8437POPC   GL152033  40.036  25.231   6.150
 8437POPC   GL252034  39.901  25.323   6.150
 8437POPC   C1A52035  40.005  25.229   6.450
 8437POPC   D2A52036  40.014  25.266   6.750
 8437POPC   C3A52037  39.988  25.220   7.050
 8437POPC   C4A52038  40.008  25.234   7.350
 8437POPC   C1B52039  39.803  25.480   6.450
 8437POPC   C2B52040  39.801  25.415   6.750
 8437POPC   C3B52041  39.869  25.431   7.050
 8437POPC   C4B52042  39.872  25.437   7.350
 8438POPC   NC352043  17.471  24.465   5.550
 8438POPC   PO452044  17.491  24.499   5.850
 8438POPC   GL152045  17.507  24.475   6.150
 8438POPC   GL252046  17.537  24.345   6.150
 8438POPC   C1A52047  17.481  24.526   6.450
 8438POPC   D2A52048  17.508  24.534   6.750
 8438POPC   C3A52049  17.542  24.479   7.050
 8438POPC   C4A52050  17.528  24.539   7.350
 8438POPC   C1B52051  17.678  24.275   6.450
 8438POPC   C2B52052  17.690  24.256   6.750
 8438POPC   C3B52053  17.629  24.242   7.050
 8438POPC   C4B52054  17.652  24.316   7.350
 8439POPC   NC352055   5.882  27.569   5.550
 8439POPC   PO452056   5.879  27.560   5.850
 8439POPC   GL152057   5.886  27.588   6.150
 8439POPC   GL252058   5.974  27.569   6.150
 8439POPC   C1A52059   5.885  27.570   6.450
 8439POPC   D2A52060   5.919  27.625   6.750
 8439POPC   C3A52061   5.826  27.608   7.050
 8439POPC   C4A52062   5.901  27.597   7.350
 8439POPC   C1B52063   6.151  27.644   6.450
 8439POPC   C2B52064   6.163  27.638   6.750
 8439POPC   C3B52065   6.136  27.590   7.050
 8439POPC   C4B52066   6.066  27.676   7.350
 8440POPC   NC352067  20.587   1.232   5.550
 8440POPC   PO452068  20.593   1.168   5.850
 8440POPC   GL152069  20.608   1.184   6.150
 8440POPC   GL252070  20.467   1.232   6.150
 8440POPC   C1A52071  20.629   1.193   6.450
 8440POPC   D2A52072  20.596   1.234   6.750
 8440POPC   C3A52073  20.658   1.191   7.050
 8440POPC   C4A52074  20.586   1.164   7.350
 8440POPC   C1B52075  20.337   1.332   6.450
 8440POPC   C2B52076  20.397   1.305   6.750
 8440POPC   C3B52077  20.369   1.281   7.050
 8440POPC   C4B52078  20.422   1.275   7.350
 8441POPC   NC352079  22.204  23.719   5.550
 8441POPC   PO452080  22.161  23.745   5.850
 8441POPC   GL152081  22.173  23.665   6.150
 8441POPC   GL252082  22.255  23.851   6.150
 8441POPC   C1A52083  22.193  23.760   6.450
 8441POPC   D2A52084  22.149  23.736   6.750
 8441POPC   C3A52085  22.114  23.670   7.050
 8441POPC   C4A52086  22.123  23.669   7.350
 8441POPC   C1B52087  22.287  23.910   6.450
 8441POPC   C2B52088  22.324  23.952   6.750
 8441POPC   C3B52089  22.310  23.891   7.050
 8441POPC   C4B52090  22.278  23.909   7.350
 8442POPC   NC352091  43.081   8.240   5.550
 8442POPC   PO452092  43.158   8.195   5.850
 8442POPC   GL152093  43.120   8.202   6.150
 8442POPC   GL252094  43.072   8.318   6.150
 8442POPC   C1A52095  43.150   8.198   6.450
 8442POPC   D2A52096  43.105   8.207   6.750
 8442POPC   C3A52097  43.146   8.179   7.050
 8442POPC   C4A52098  43.119   8.195   7.350
 8442POPC   C1B52099  42.945   8.435   6.450
 8442POPC   C2B52100  43.001   8.431   6.750
 8442POPC   C3B52101  43.013   8.429   7.050
 8442POPC   C4B52102  43.031   8.445   7.350
 8443POPC   NC352103  16.767  29.191   5.550
 8443POPC   PO452104  16.699  29.169   5.850
 8443POPC   GL152105  16.757  29.116   6.150
 8443POPC   GL252106  16.739  29.000   6.150
 8443POPC   C1A52107  16.735  29.123   6.450
 8443POPC   D2A52108  16.745  29.165   6.750
 8443POPC   C3A52109  16.743  29.156   7.050
 8443POPC   C4A52110  16.777  29.144   7.350
 8443POPC   C1B52111  16.727  28.942   6.450
 8443POPC   C2B52112  16.759  28.935   6.750
 8443POPC   C3B52113  16.702  28.893   7.050
 8443POPC   C4B52114  16.726  28.915   7.350
 8444POPC   NC352115  36.856  36.918   5.550
 8444POPC   PO452116  36.910  36.929   5.850
 8444POPC   GL152117  36.897  36.904   6.150
 8444POPC   GL252118  36.987  37.043   6.150
 8444POPC   C1A52119  36.884  36.855   6.450
 8444POPC   D2A52120  36.866  36.910   6.750
 8444POPC   C3A52121  36.917  36.945   7.050
 8444POPC   C4A52122  36.927  36.925   7.350
 8444POPC   C1B52123  37.083  37.073   6.450
 8444POPC   C2B52124  37.098  37.119   6.750
 8444POPC   C3B52125  37.091  37.107   7.050
 8444POPC   C4B52126  37.022  37.128   7.350
 8445POPC   NC352127   4.327   0.485   5.550
 8445POPC   PO452128   4.359   0.472   5.850
 8445POPC   GL152129   4.327   0.397   6.150
 8445POPC   GL252130   4.335   0.547   6.150
 8445POPC   C1A52131   4.328   0.397   6.450
 8445POPC   D2A52132   4.268   0.450   6.750
 8445POPC   C3A52133   4.296   0.486   7.050
 8445POPC   C4A52134   4.334   0.487   7.350
 8445POPC   C1B52135   4.284   0.677   6.450
 8445POPC   C2B52136   4.245   0.701   6.750
 8445POPC   C3B52137   4.331   0.643   7.050
 8445POPC   C4B52138   4.332   0.735   7.350
 8446POPC   NC352139  10.549   5.842   5.550
 8446POPC   PO452140  10.483   5.895   5.850
 8446POPC   GL152141  10.486   5.875   6.150
 8446POPC   GL252142  10.406   5.775   6.150
 8446POPC   C1A52143  10.530   5.849   6.450
 8446POPC   D2A52144  10.529   5.917   6.750
 8446POPC   C3A52145  10.497   5.886   7.050
 8446POPC   C4A52146  10.529   5.853   7.350
 8446POPC   C1B52147  10.316   5.714   6.450
 8446POPC   C2B52148  10.314   5.726   6.750
 8446POPC   C3B52149  10.333   5.672   7.050
 8446POPC   C4B52150  10.324   5.677   7.350
 8447POPC   NC352151  35.383   7.465   5.550
 8447POPC   PO452152  35.305   7.376   5.850
 8447POPC   GL152153  35.345   7.451   6.150
 8447POPC   GL252154  35.343   7.287   6.150
 8447POPC   C1A52155  35.377   7.446   6.450
 8447POPC   D2A52156  35.399   7.425   6.750
 8447POPC   C3A52157  35.367   7.383   7.050
 8447POPC   C4A52158  35.381   7.390   7.350
 8447POPC   C1B52159  35.341   7.188   6.450
 8447POPC   C2B52160  35.364   7.133   6.750
 8447POPC   C3B52161  35.352   7.218   7.050
 8447POPC   C4B52162  35.365   7.200   7.350
 8448POPC   NC352163  23.677  36.876   5.550
 8448POPC   PO452164  23.668  36.929   5.850
 8448POPC   GL152165  23.754  36.912   6.150
 8448POPC   GL252166  23.688  36.739   6.150
 8448POPC   C1A52167  23.680  36.909   6.450
 8448POPC   D2A52168  23.674  36.939   6.750
 8448POPC   C3A52169  23.703  36.864   7.050
 8448POPC   C4A52170  23.676  36.876   7.350
 8448POPC   C1B52171  23.719  36.615   6.450
 8448POPC   C2B52172  23.707  36.646   6.750
 8448POPC   C3B52173  23.723  36.611   7.050
 8448POPC   C4B52174  23.784  36.660   7.350
 8449POPC   NC352175  10.480  24.504   5.550
 8449POPC   PO452176  10.502  24.511   5.850
 8449POPC   GL152177  10.565  24.454   6.150
 8449POPC   GL252178  10.489  24.357   6.150
 8449POPC   C1A52179  10.540  24.521   6.450
 8449POPC   D2A52180  10.544  24.520   6.750
 8449POPC   C3A52181  10.568  24.444   7.050
 8449POPC   C4A52182  10.537  24.450   7.350
 8449POPC   C1B52183  10.474  24.291   6.450
 8449POPC   C2B52184  10.491  24.231   6.750
 8449POPC   C3B52185  10.465  24.216   7.050
 8449POPC   C4B52186  10.529  24.242   7.350
 8450POPC   NC352187  42.350  22.165   5.550
 8450POPC   PO452188  42.370  22.124   5.850
 8450POPC   GL152189  42.361  22.122   6.150
 8450POPC   GL252190  42.424  22.075   6.150
 8450POPC   C1A52191  42.353  22.167   6.450
 8450POPC   D2A52192  42.370  22.177   6.750
 8450POPC   C3A52193  42.307  22.154   7.050
 8450POPC   C4A52194  42.297  22.164   7.350
 8450POPC   C1B52195  42.613  22.040   6.450
 8450POPC   C2B52196  42.537  22.039   6.750
 8450POPC   C3B52197  42.583  22.081   7.050
 8450POPC   C4B52198  42.594  22.044   7.350
 8451POPC   NC352199   7.470  28.345   5.550
 8451POPC   PO452200   7.418  28.402   5.850
 8451POPC   GL152201   7.380  28.393   6.150
 8451POPC   GL252202   7.254  28.406   6.150
 8451POPC   C1A52203   7.457  28.413   6.450
 8451POPC   D2A52204   7.442  28.375   6.750
 8451POPC   C3A52205   7.381  28.320   7.050
 8451POPC   C4A52206   7.422  28.378   7.350
 8451POPC   C1B52207   7.199  28.407   6.450
 8451POPC   C2B52208   7.140  28.353   6.750
 8451POPC   C3B52209   7.143  28.351   7.050
 8451POPC   C4B52210   7.203  28.366   7.350
 8452POPC   NC352211  40.737  18.246   5.550
 8452POPC   PO452212  40.790  18.271   5.850
 8452POPC   GL152213  40.828  18.270   6.150
 8452POPC   GL252214  40.710  18.219   6.150
 8452POPC   C1A52215  40.808  18.304   6.450
 8452POPC   D2A52216  40.791  18.327   6.750
 8452POPC   C3A52217  40.812  18.329   7.050
 8452POPC   C4A52218  40.736  18.276   7.350
 8452POPC   C1B52219  40.545  18.246   6.450
 8452POPC   C2B52220  40.553  18.207   6.750
 8452POPC   C3B52221  40.549  18.210   7.050
 8452POPC   C4B52222  40.577  18.228   7.350
 8453POPC   NC352223   2.723  23.764   5.550
 8453POPC   PO452224   2.809  23.692   5.850
 8453POPC   GL152225   2.765  23.733   6.150
 8453POPC   GL252226   2.684  23.637   6.150
 8453POPC   C1A52227   2.803  23.686   6.450
 8453POPC   D2A52228   2.774  23.691   6.750
 8453POPC   C3A52229   2.758  23.696   7.050
 8453POPC   C4A52230   2.770  23.680   7.350
 8453POPC   C1B52231   2.525  23.631   6.450
 8453POPC   C2B52232   2.477  23.659   6.750
 8453POPC   C3B52233   2.559  23.700   7.050
 8453POPC   C4B52234   2.566  23.679   7.350
 8454POPC   NC352235   0.393  25.996   5.550
 8454POPC   PO452236   0.462  26.046   5.850
 8454POPC   GL152237   0.454  26.080   6.150
 8454POPC   GL252238   0.577  26.122   6.150
 8454POPC   C1A52239   0.433  26.004   6.450
 8454POPC   D2A52240   0.472  26.070   6.750
 8454POPC   C3A52241   0.419  26.030   7.050
 8454POPC   C4A52242   0.463  26.055   7.350
 8454POPC   C1B52243   0.701  26.176   6.450
 8454POPC   C2B52244   0.630  26.104   6.750
 8454POPC   C3B52245   0.673  26.130   7.050
 8454POPC   C4B52246   0.637  26.168   7.350
 8455POPC   NC352247  34.536  12.115   5.550
 8455POPC   PO452248  34.531  12.094   5.850
 8455POPC   GL152249  34.544  12.085   6.150
 8455POPC   GL252250  34.551  11.914   6.150
 8455POPC   C1A52251  34.610  12.064   6.450
 8455POPC   D2A52252  34.611  12.120   6.750
 8455POPC   C3A52253  34.564  12.086   7.050
 8455POPC   C4A52254  34.563  12.034   7.350
 8455POPC   C1B52255  34.528  11.804   6.450
 8455POPC   C2B52256  34.527  11.803   6.750
 8455POPC   C3B52257  34.492  11.844   7.050
 8455POPC   C4B52258  34.493  11.872   7.350
 8456POPC   NC352259   6.638  21.423   5.550
 8456POPC   PO452260   6.694  21.375   5.850
 8456POPC   GL152261   6.626  21.391   6.150
 8456POPC   GL252262   6.621  21.508   6.150
 8456POPC   C1A52263   6.599  21.408   6.450
 8456POPC   D2A52264   6.600  21.382   6.750
 8456POPC   C3A52265   6.677  21.416   7.050
 8456POPC   C4A52266   6.631  21.420   7.350
 8456POPC   C1B52267   6.576  21.605   6.450
 8456POPC   C2B52268   6.643  21.609   6.750
 8456POPC   C3B52269   6.574  21.681   7.050
 8456POPC   C4B52270   6.598  21.630   7.350
 8457POPC   NC352271  21.399  15.919   5.550
 8457POPC   PO452272  21.396  15.994   5.850
 8457POPC   GL152273  21.386  15.974   6.150
 8457POPC   GL252274  21.359  15.850   6.150
 8457POPC   C1A52275  21.433  15.986   6.450
 8457POPC   D2A52276  21.372  15.995   6.750
 8457POPC   C3A52277  21.435  15.947   7.050
 8457POPC   C4A52278  21.339  15.943   7.350
 8457POPC   C1B52279  21.321  15.773   6.450
 8457POPC   C2B52280  21.273  15.679   6.750
 8457POPC   C3B52281  21.310  15.683   7.050
 8457POPC   C4B52282  21.309  15.770   7.350
 8458POPC   NC352283  10.520  19.828   5.550
 8458POPC   PO452284  10.548  19.794   5.850
 8458POPC   GL152285  10.517  19.879   6.150
 8458POPC   GL252286  10.396  19.714   6.150
 8458POPC   C1A52287  10.494  19.811   6.450
 8458POPC   D2A52288  10.485  19.805   6.750
 8458POPC   C3A52289  10.533  19.822   7.050
 8458POPC   C4A52290  10.481  19.785   7.350
 8458POPC   C1B52291  10.355  19.602   6.450
 8458POPC   C2B52292  10.403  19.655   6.750
 8458POPC   C3B52293  10.350  19.611   7.050
 8458POPC   C4B52294  10.338  19.635   7.350
 8459POPC   NC352295  24.505  36.117   5.550
 8459POPC   PO452296  24.463  36.087   5.850
 8459POPC   GL152297  24.491  36.097   6.150
 8459POPC   GL252298  24.460  36.057   6.150
 8459POPC   C1A52299  24.491  36.174   6.450
 8459POPC   D2A52300  24.513  36.115   6.750
 8459POPC   C3A52301  24.454  36.124   7.050
 8459POPC   C4A52302  24.496  36.128   7.350
 8459POPC   C1B52303  24.299  35.943   6.450
 8459POPC   C2B52304  24.341  35.907   6.750
 8459POPC   C3B52305  24.319  35.876   7.050
 8459POPC   C4B52306  24.311  35.885   7.350
 8460POPC   NC352307   3.554  40.056   5.550
 8460POPC   PO452308   3.556  40.051   5.850
 8460POPC   GL152309   3.571  39.985   6.150
 8460POPC   GL252310   3.633  40.087   6.150
 8460POPC   C1A52311   3.557  39.985   6.450
 8460POPC   D2A52312   3.493  39.992   6.750
 8460POPC   C3A52313   3.585  40.056   7.050
 8460POPC   C4A52314   3.492  39.994   7.350
 8460POPC   C1B52315   3.708  40.202   6.450
 8460POPC   C2B52316   3.659  40.208   6.750
 8460POPC   C3B52317   3.679  40.188   7.050
 8460POPC   C4B52318   3.620  40.230   7.350
 8461POPC   NC352319  18.298   9.010   5.550
 8461POPC   PO452320  18.254   8.943   5.850
 8461POPC   GL152321  18.236   8.979   6.150
 8461POPC   GL252322  18.406   8.878   6.150
 8461POPC   C1A52323  18.296   8.970   6.450
 8461POPC   D2A52324  18.284   8.947   6.750
 8461POPC   C3A52325  18.259   9.018   7.050
 8461POPC   C4A52326  18.250   9.013   7.350
 8461POPC   C1B52327  18.522   8.827   6.450
 8461POPC   C2B52328  18.433   8.843   6.750
 8461POPC   C3B52329  18.499   8.833   7.050
 8461POPC   C4B52330  18.462   8.836   7.350
 8462POPC   NC352331  25.312  28.406   5.550
 8462POPC   PO452332  25.218  28.350   5.850
 8462POPC   GL152333  25.272  28.396   6.150
 8462POPC   GL252334  25.111  28.408   6.150
 8462POPC   C1A52335  25.299  28.418   6.450
 8462POPC   D2A52336  25.309  28.325   6.750
 8462POPC   C3A52337  25.293  28.321   7.050
 8462POPC   C4A52338  25.242  28.409   7.350
 8462POPC   C1B52339  25.003  28.416   6.450
 8462POPC   C2B52340  25.022  28.417   6.750
 8462POPC   C3B52341  24.997  28.407   7.050
 8462POPC   C4B52342  24.997  28.400   7.350
 8463POPC   NC352343  17.542  20.655   5.550
 8463POPC   PO452344  17.477  20.607   5.850
 8463POPC   GL152345  17.495  20.598   6.150
 8463POPC   GL252346  17.521  20.774   6.150
 8463POPC   C1A52347  17.554  20.631   6.450
 8463POPC   D2A52348  17.536  20.660   6.750
 8463POPC   C3A52349  17.472  20.659   7.050
 8463POPC   C4A52350  17.499  20.659   7.350
 8463POPC   C1B52351  17.465  20.887   6.450
 8463POPC   C2B52352  17.478  20.895   6.750
 8463POPC   C3B52353  17.492  20.853   7.050
 8463POPC   C4B52354  17.492  20.821   7.350
 8464POPC   NC352355  19.054   3.584   5.550
 8464POPC   PO452356  19.011   3.506   5.850
 8464POPC   GL152357  19.019   3.591   6.150
 8464POPC   GL252358  19.187   3.493   6.150
 8464POPC   C1A52359  19.016   3.552   6.450
 8464POPC   D2A52360  19.017   3.591   6.750
 8464POPC   C3A52361  19.035   3.578   7.050
 8464POPC   C4A52362  19.099   3.541   7.350
 8464POPC   C1B52363  19.304   3.534   6.450
 8464POPC   C2B52364  19.293   3.576   6.750
 8464POPC   C3B52365  19.328   3.564   7.050
 8464POPC   C4B52366  19.312   3.586   7.350
 8465POPC   NC352367  33.024  19.857   5.550
 8465POPC   PO452368  33.012  19.802   5.850
 8465POPC   GL152369  33.008  19.847   6.150
 8465POPC   GL252370  32.928  19.985   6.150
 8465POPC   C1A52371  33.056  19.847   6.450
 8465POPC   D2A52372  33.046  19.864   6.750
 8465POPC   C3A52373  33.036  19.882   7.050
 8465POPC   C4A52374  33.053  19.857   7.350
 8465POPC   C1B52375  32.949  20.092   6.450
 8465POPC   C2B52376  32.907  20.108   6.750
 8465POPC   C3B52377  32.897  20.090   7.050
 8465POPC   C4B52378  32.913  20.028   7.350
 8466POPC   NC352379   5.881   5.829   5.550
 8466POPC   PO452380   5.843   5.878   5.850
 8466POPC   GL152381   5.834   5.906   6.150
 8466POPC   GL252382   5.862   5.790   6.150
 8466POPC   C1A52383   5.843   5.851   6.450
 8466POPC   D2A52384   5.831   5.837   6.750
 8466POPC   C3A52385   5.876   5.911   7.050
 8466POPC   C4A52386   5.894   5.910   7.350
 8466POPC   C1B52387   5.779   5.644   6.450
 8466POPC   C2B52388   5.815   5.620   6.750
 8466POPC   C3B52389   5.875   5.631   7.050
 8466POPC   C4B52390   5.824   5.631   7.350
 8467POPC   NC352391   2.776   9.742   5.550
 8467POPC   PO452392   2.724   9.711   5.850
 8467POPC   GL152393   2.784   9.787   6.150
 8467POPC   GL252394   2.834   9.919   6.150
 8467POPC   C1A52395   2.772   9.790   6.450
 8467POPC   D2A52396   2.719   9.770   6.750
 8467POPC   C3A52397   2.814   9.737   7.050
 8467POPC   C4A52398   2.778   9.757   7.350
 8467POPC   C1B52399   2.784   9.960   6.450
 8467POPC   C2B52400   2.813  10.040   6.750
 8467POPC   C3B52401   2.849   9.988   7.050
 8467POPC   C4B52402   2.762   9.956   7.350
 8468POPC   NC352403  20.591  39.279   5.550
 8468POPC   PO452404  20.563  39.252   5.850
 8468POPC   GL152405  20.655  39.191   6.150
 8468POPC   GL252406  20.705  39.175   6.150
 8468POPC   C1A52407  20.612  39.186   6.450
 8468POPC   D2A52408  20.622  39.265   6.750
 8468POPC   C3A52409  20.577  39.273   7.050
 8468POPC   C4A52410  20.568  39.208   7.350
 8468POPC   C1B52411  20.802  39.071   6.450
 8468POPC   C2B52412  20.722  39.036   6.750
 8468POPC   C3B52413  20.723  38.984   7.050
 8468POPC   C4B52414  20.771  39.070   7.350
 8469POPC   NC352415  14.358  10.474   5.550
 8469POPC   PO452416  14.373  10.566   5.850
 8469POPC   GL152417  14.358  10.569   6.150
 8469POPC   GL252418  14.365  10.426   6.150
 8469POPC   C1A52419  14.384  10.485   6.450
 8469POPC   D2A52420  14.434  10.486   6.750
 8469POPC   C3A52421  14.402  10.542   7.050
 8469POPC   C4A52422  14.366  10.535   7.350
 8469POPC   C1B52423  14.330  10.299   6.450
 8469POPC   C2B52424  14.341  10.312   6.750
 8469POPC   C3B52425  14.380  10.251   7.050
 8469POPC   C4B52426  14.357  10.309   7.350
 8470POPC   NC352427  18.297  36.170   5.550
 8470POPC   PO452428  18.273  36.117   5.850
 8470POPC   GL152429  18.309  36.123   6.150
 8470POPC   GL252430  18.276  36.259   6.150
 8470POPC   C1A52431  18.292  36.122   6.450
 8470POPC   D2A52432  18.264  36.100   6.750
 8470POPC   C3A52433  18.252  36.158   7.050
 8470POPC   C4A52434  18.299  36.174   7.350
 8470POPC   C1B52435  18.308  36.377   6.450
 8470POPC   C2B52436  18.216  36.404   6.750
 8470POPC   C3B52437  18.260  36.372   7.050
 8470POPC   C4B52438  18.256  36.369   7.350
 8471POPC   NC352439   7.466  22.905   5.550
 8471POPC   PO452440   7.378  22.966   5.850
 8471POPC   GL152441   7.421  22.982   6.150
 8471POPC   GL252442   7.286  22.913   6.150
 8471POPC   C1A52443   7.374  22.981   6.450
 8471POPC   D2A52444   7.385  22.964   6.750
 8471POPC   C3A52445   7.379  22.941   7.050
 8471POPC   C4A52446   7.401  22.985   7.350
 8471POPC   C1B52447   7.198  22.977   6.450
 8471POPC   C2B52448   7.135  22.979   6.750
 8471POPC   C3B52449   7.169  22.933   7.050
 8471POPC   C4B52450   7.215  22.938   7.350
 8472POPC   NC352451  12.883  22.152   5.550
 8472POPC   PO452452  12.870  22.208   5.850
 8472POPC   GL152453  12.892  22.127   6.150
 8472POPC   GL252454  12.890  21.999   6.150
 8472POPC   C1A52455  12.877  22.188   6.450
 8472POPC   D2A52456  12.821  22.188   6.750
 8472POPC   C3A52457  12.806  22.154   7.050
 8472POPC   C4A52458  12.887  22.149   7.350
 8472POPC   C1B52459  12.867  21.884   6.450
 8472POPC   C2B52460  12.915  21.964   6.750
 8472POPC   C3B52461  12.925  21.896   7.050
 8472POPC   C4B52462  12.938  21.942   7.350
 8473POPC   NC352463  40.761  26.023   5.550
 8473POPC   PO452464  40.791  26.031   5.850
 8473POPC   GL152465  40.794  26.014   6.150
 8473POPC   GL252466  40.841  26.114   6.150
 8473POPC   C1A52467  40.789  26.014   6.450
 8473POPC   D2A52468  40.803  26.080   6.750
 8473POPC   C3A52469  40.786  26.000   7.050
 8473POPC   C4A52470  40.750  26.081   7.350
 8473POPC   C1B52471  40.999  26.133   6.450
 8473POPC   C2B52472  40.977  26.143   6.750
 8473POPC   C3B52473  41.010  26.124   7.050
 8473POPC   C4B52474  41.001  26.196   7.350
 8474POPC   NC352475  21.401   3.567   5.550
 8474POPC   PO452476  21.370   3.505   5.850
 8474POPC   GL152477  21.357   3.589   6.150
 8474POPC   GL252478  21.439   3.387   6.150
 8474POPC   C1A52479  21.432   3.546   6.450
 8474POPC   D2A52480  21.420   3.591   6.750
 8474POPC   C3A52481  21.374   3.521   7.050
 8474POPC   C4A52482  21.416   3.524   7.350
 8474POPC   C1B52483  21.480   3.292   6.450
 8474POPC   C2B52484  21.532   3.370   6.750
 8474POPC   C3B52485  21.511   3.371   7.050
 8474POPC   C4B52486  21.510   3.362   7.350
 8475POPC   NC352487  24.480  19.101   5.550
 8475POPC   PO452488  24.504  19.031   5.850
 8475POPC   GL152489  24.504  19.019   6.150
 8475POPC   GL252490  24.547  19.170   6.150
 8475POPC   C1A52491  24.479  19.075   6.450
 8475POPC   D2A52492  24.452  19.095   6.750
 8475POPC   C3A52493  24.464  19.033   7.050
 8475POPC   C4A52494  24.445  19.060   7.350
 8475POPC   C1B52495  24.502  19.285   6.450
 8475POPC   C2B52496  24.569  19.334   6.750
 8475POPC   C3B52497  24.524  19.328   7.050
 8475POPC   C4B52498  24.540  19.264   7.350
 8476POPC   NC352499  26.084  33.766   5.550
 8476POPC   PO452500  26.012  33.755   5.850
 8476POPC   GL152501  26.064  33.834   6.150
 8476POPC   GL252502  26.116  33.632   6.150
 8476POPC   C1A52503  26.036  33.787   6.450
 8476POPC   D2A52504  25.998  33.800   6.750
 8476POPC   C3A52505  26.005  33.838   7.050
 8476POPC   C4A52506  26.040  33.783   7.350
 8476POPC   C1B52507  26.075  33.596   6.450
 8476POPC   C2B52508  26.110  33.602   6.750
 8476POPC   C3B52509  26.078  33.575   7.050
 8476POPC   C4B52510  26.055  33.537   7.350
 8477POPC   NC352511  34.550  22.175   5.550
 8477POPC   PO452512  34.578  22.211   5.850
 8477POPC   GL152513  34.614  22.195   6.150
 8477POPC   GL252514  34.470  22.253   6.150
 8477POPC   C1A52515  34.599  22.121   6.450
 8477POPC   D2A52516  34.558  22.157   6.750
 8477POPC   C3A52517  34.615  22.211   7.050
 8477POPC   C4A52518  34.542  22.146   7.350
 8477POPC   C1B52519  34.412  22.374   6.450
 8477POPC   C2B52520  34.401  22.359   6.750
 8477POPC   C3B52521  34.354  22.379   7.050
 8477POPC   C4B52522  34.360  22.319   7.350
 8478POPC   NC352523   1.185  41.599   5.550
 8478POPC   PO452524   1.186  41.524   5.850
 8478POPC   GL152525   1.234  41.536   6.150
 8478POPC   GL252526   1.101  41.572   6.150
 8478POPC   C1A52527   1.180  41.605   6.450
 8478POPC   D2A52528   1.174  41.589   6.750
 8478POPC   C3A52529   1.203  41.598   7.050
 8478POPC   C4A52530   1.246  41.603   7.350
 8478POPC   C1B52531   0.968  41.474   6.450
 8478POPC   C2B52532   0.989  41.472   6.750
 8478POPC   C3B52533   0.963  41.530   7.050
 8478POPC   C4B52534   0.923  41.512   7.350
 8479POPC   NC352535  40.762  12.100   5.550
 8479POPC   PO452536  40.811  12.100   5.850
 8479POPC   GL152537  40.815  12.041   6.150
 8479POPC   GL252538  40.940  12.104   6.150
 8479POPC   C1A52539  40.826  12.092   6.450
 8479POPC   D2A52540  40.795  12.073   6.750
 8479POPC   C3A52541  40.796  12.031   7.050
 8479POPC   C4A52542  40.735  12.108   7.350
 8479POPC   C1B52543  41.027  12.145   6.450
 8479POPC   C2B52544  41.080  12.126   6.750
 8479POPC   C3B52545  40.987  12.093   7.050
 8479POPC   C4B52546  41.061  12.153   7.350
 8480POPC   NC352547   2.805  15.182   5.550
 8480POPC   PO452548   2.765  15.178   5.850
 8480POPC   GL152549   2.722  15.144   6.150
 8480POPC   GL252550   2.750  15.084   6.150
 8480POPC   C1A52551   2.789  15.212   6.450
 8480POPC   D2A52552   2.723  15.200   6.750
 8480POPC   C3A52553   2.720  15.148   7.050
 8480POPC   C4A52554   2.800  15.190   7.350
 8480POPC   C1B52555   2.686  14.932   6.450
 8480POPC   C2B52556   2.660  14.908   6.750
 8480POPC   C3B52557   2.699  14.899   7.050
 8480POPC   C4B52558   2.712  14.960   7.350
 8481POPC   NC352559  19.803   8.956   5.550
 8481POPC   PO452560  19.794   8.974   5.850
 8481POPC   GL152561  19.866   8.981   6.150
 8481POPC   GL252562  19.934   8.882   6.150
 8481POPC   C1A52563  19.789   8.945   6.450
 8481POPC   D2A52564  19.808   8.953   6.750
 8481POPC   C3A52565  19.790   8.935   7.050
 8481POPC   C4A52566  19.797   8.988   7.350
 8481POPC   C1B52567  19.985   8.740   6.450
 8481POPC   C2B52568  19.928   8.767   6.750
 8481POPC   C3B52569  19.980   8.746   7.050
 8481POPC   C4B52570  19.946   8.800   7.350
 8482POPC   NC352571  37.681  29.908   5.550
 8482POPC   PO452572  37.679  29.937   5.850
 8482POPC   GL152573  37.694  29.932   6.150
 8482POPC   GL252574  37.636  29.774   6.150
 8482POPC   C1A52575  37.725  29.892   6.450
 8482POPC   D2A52576  37.725  29.938   6.750
 8482POPC   C3A52577  37.692  29.940   7.050
 8482POPC   C4A52578  37.704  29.903   7.350
 8482POPC   C1B52579  37.708  29.682   6.450
 8482POPC   C2B52580  37.685  29.667   6.750
 8482POPC   C3B52581  37.731  29.622   7.050
 8482POPC   C4B52582  37.651  29.696   7.350
 8483POPC   NC352583  37.709  40.830   5.550
 8483POPC   PO452584  37.656  40.783   5.850
 8483POPC   GL152585  37.684  40.743   6.150
 8483POPC   GL252586  37.710  40.906   6.150
 8483POPC   C1A52587  37.660  40.774   6.450
 8483POPC   D2A52588  37.639  40.798   6.750
 8483POPC   C3A52589  37.677  40.829   7.050
 8483POPC   C4A52590  37.699  40.790   7.350
 8483POPC   C1B52591  37.632  40.992   6.450
 8483POPC   C2B52592  37.650  41.052   6.750
 8483POPC   C3B52593  37.700  41.066   7.050
 8483POPC   C4B52594  37.714  41.007   7.350
 8484POPC   NC352595  19.040   7.382   5.550
 8484POPC   PO452596  19.016   7.378   5.850
 8484POPC   GL152597  19.037   7.389   6.150
 8484POPC   GL252598  18.952   7.290   6.150
 8484POPC   C1A52599  19.083   7.376   6.450
 8484POPC   D2A52600  19.029   7.386   6.750
 8484POPC   C3A52601  19.033   7.411   7.050
 8484POPC   C4A52602  19.067   7.458   7.350
 8484POPC   C1B52603  18.899   7.255   6.450
 8484POPC   C2B52604  18.947   7.202   6.750
 8484POPC   C3B52605  18.937   7.187   7.050
 8484POPC   C4B52606  18.957   7.216   7.350
 8485POPC   NC352607  15.156   9.766   5.550
 8485POPC   PO452608  15.198   9.776   5.850
 8485POPC   GL152609  15.138   9.791   6.150
 8485POPC   GL252610  15.216   9.878   6.150
 8485POPC   C1A52611  15.143   9.715   6.450
 8485POPC   D2A52612  15.220   9.787   6.750
 8485POPC   C3A52613  15.196   9.770   7.050
 8485POPC   C4A52614  15.176   9.744   7.350
 8485POPC   C1B52615  15.221  10.022   6.450
 8485POPC   C2B52616  15.266   9.980   6.750
 8485POPC   C3B52617  15.302   9.952   7.050
 8485POPC   C4B52618  15.242  10.001   7.350
 8486POPC   NC352619   1.945  33.798   5.550
 8486POPC   PO452620   2.016  33.772   5.850
 8486POPC   GL152621   2.003  33.821   6.150
 8486POPC   GL252622   1.916  33.717   6.150
 8486POPC   C1A52623   2.011  33.817   6.450
 8486POPC   D2A52624   1.949  33.776   6.750
 8486POPC   C3A52625   1.949  33.807   7.050
 8486POPC   C4A52626   1.959  33.817   7.350
 8486POPC   C1B52627   1.938  33.552   6.450
 8486POPC   C2B52628   1.979  33.563   6.750
 8486POPC   C3B52629   1.944  33.566   7.050
 8486POPC   C4B52630   1.918  33.510   7.350
 8487POPC   NC352631  20.581  42.315   5.550
 8487POPC   PO452632  20.566  42.352   5.850
 8487POPC   GL152633  20.602  42.308   6.150
 8487POPC   GL252634  20.717  42.470   6.150
 8487POPC   C1A52635  20.625  42.297   6.450
 8487POPC   D2A52636  20.609  42.326   6.750
 8487POPC   C3A52637  20.605  42.359   7.050
 8487POPC   C4A52638  20.599  42.304   7.350
 8487POPC   C1B52639  20.786  42.564   6.450
 8487POPC   C2B52640  20.803  42.518   6.750
 8487POPC   C3B52641  20.823  42.501   7.050
 8487POPC   C4B52642  20.785  42.532   7.350
 8488POPC   NC352643  11.312  35.396   5.550
 8488POPC   PO452644  11.317  35.381   5.850
 8488POPC   GL152645  11.252  35.306   6.150
 8488POPC   GL252646  11.418  35.396   6.150
 8488POPC   C1A52647  11.274  35.343   6.450
 8488POPC   D2A52648  11.317  35.399   6.750
 8488POPC   C3A52649  11.290  35.392   7.050
 8488POPC   C4A52650  11.348  35.388   7.350
 8488POPC   C1B52651  11.510  35.386   6.450
 8488POPC   C2B52652  11.526  35.386   6.750
 8488POPC   C3B52653  11.562  35.361   7.050
 8488POPC   C4B52654  11.558  35.375   7.350
 8489POPC   NC352655  16.766  29.891   5.550
 8489POPC   PO452656  16.694  29.911   5.850
 8489POPC   GL152657  16.693  29.966   6.150
 8489POPC   GL252658  16.805  29.822   6.150
 8489POPC   C1A52659  16.760  29.961   6.450
 8489POPC   D2A52660  16.730  29.893   6.750
 8489POPC   C3A52661  16.769  29.895   7.050
 8489POPC   C4A52662  16.764  29.959   7.350
 8489POPC   C1B52663  16.843  29.752   6.450
 8489POPC   C2B52664  16.888  29.669   6.750
 8489POPC   C3B52665  16.839  29.690   7.050
 8489POPC   C4B52666  16.833  29.728   7.350
 8490POPC   NC352667  44.625  23.670   5.550
 8490POPC   PO452668  44.707  23.753   5.850
 8490POPC   GL152669  44.693  23.666   6.150
 8490POPC   GL252670  44.704  23.556   6.150
 8490POPC   C1A52671  44.632  23.759   6.450
 8490POPC   D2A52672  44.705  23.675   6.750
 8490POPC   C3A52673  44.633  23.704   7.050
 8490POPC   C4A52674  44.682  23.738   7.350
 8490POPC   C1B52675  44.735  23.430   6.450
 8490POPC   C2B52676  44.735  23.467   6.750
 8490POPC   C3B52677  44.690  23.432   7.050
 8490POPC   C4B52678  44.756  23.447   7.350
 8491POPC   NC352679  15.202  23.665   5.550
 8491POPC   PO452680  15.228  23.749   5.850
 8491POPC   GL152681  15.175  23.716   6.150
 8491POPC   GL252682  15.068  23.762   6.150
 8491POPC   C1A52683  15.223  23.741   6.450
 8491POPC   D2A52684  15.220  23.703   6.750
 8491POPC   C3A52685  15.201  23.677   7.050
 8491POPC   C4A52686  15.192  23.757   7.350
 8491POPC   C1B52687  14.973  23.934   6.450
 8491POPC   C2B52688  15.047  23.876   6.750
 8491POPC   C3B52689  15.034  23.941   7.050
 8491POPC   C4B52690  14.969  23.899   7.350
 8492POPC   NC352691   7.433   9.785   5.550
 8492POPC   PO452692   7.376   9.776   5.850
 8492POPC   GL152693   7.454   9.792   6.150
 8492POPC   GL252694   7.355   9.689   6.150
 8492POPC   C1A52695   7.423   9.738   6.450
 8492POPC   D2A52696   7.403   9.749   6.750
 8492POPC   C3A52697   7.372   9.718   7.050
 8492POPC   C4A52698   7.393   9.797   7.350
 8492POPC   C1B52699   7.238   9.629   6.450
 8492POPC   C2B52700   7.162   9.619   6.750
 8492POPC   C3B52701   7.211   9.674   7.050
 8492POPC   C4B52702   7.167   9.696   7.350
 8493POPC   NC352703   3.559  26.851   5.550
 8493POPC   PO452704   3.559  26.778   5.850
 8493POPC   GL152705   3.497  26.859   6.150
 8493POPC   GL252706   3.568  26.889   6.150
 8493POPC   C1A52707   3.514  26.863   6.450
 8493POPC   D2A52708   3.535  26.786   6.750
 8493POPC   C3A52709   3.545  26.846   7.050
 8493POPC   C4A52710   3.526  26.771   7.350
 8493POPC   C1B52711   3.623  27.030   6.450
 8493POPC   C2B52712   3.595  27.007   6.750
 8493POPC   C3B52713   3.583  27.097   7.050
 8493POPC   C4B52714   3.658  27.036   7.350
 8494POPC   NC352715  10.561  34.555   5.550
 8494POPC   PO452716  10.523  34.619   5.850
 8494POPC   GL152717  10.535  34.584   6.150
 8494POPC   GL252718  10.676  34.586   6.150
 8494POPC   C1A52719  10.550  34.588   6.450
 8494POPC   D2A52720  10.506  34.551   6.750
 8494POPC   C3A52721  10.516  34.547   7.050
 8494POPC   C4A52722  10.567  34.586   7.350
 8494POPC   C1B52723  10.724  34.550   6.450
 8494POPC   C2B52724  10.723  34.517   6.750
 8494POPC   C3B52725  10.727  34.555   7.050
 8494POPC   C4B52726  10.750  34.549   7.350
 8495POPC   NC352727  44.635  30.714   5.550
 8495POPC   PO452728  44.653  30.664   5.850
 8495POPC   GL152729  44.694  30.662   6.150
 8495POPC   GL252730  44.516  30.733   6.150
 8495POPC   C1A52731  44.648  30.730   6.450
 8495POPC   D2A52732  44.687  30.663   6.750
 8495POPC   C3A52733  44.644  30.743   7.050
 8495POPC   C4A52734  44.628  30.659   7.350
 8495POPC   C1B52735  44.471  30.843   6.450
 8495POPC   C2B52736  44.473  30.829   6.750
 8495POPC   C3B52737  44.418  30.869   7.050
 8495POPC   C4B52738  44.450  30.866   7.350
 8496POPC   NC352739   2.740  40.754   5.550
 8496POPC   PO452740   2.744  40.765   5.850
 8496POPC   GL152741   2.776  40.733   6.150
 8496POPC   GL252742   2.658  40.713   6.150
 8496POPC   C1A52743   2.753  40.784   6.450
 8496POPC   D2A52744   2.768  40.802   6.750
 8496POPC   C3A52745   2.751  40.758   7.050
 8496POPC   C4A52746   2.777  40.739   7.350
 8496POPC   C1B52747   2.561  40.633   6.450
 8496POPC   C2B52748   2.542  40.575   6.750
 8496POPC   C3B52749   2.551  40.667   7.050
 8496POPC   C4B52750   2.529  40.584   7.350
 8497POPC   NC352751  16.001  20.616   5.550
 8497POPC   PO452752  15.927  20.571   5.850
 8497POPC   GL152753  15.986  20.565   6.150
 8497POPC   GL252754  15.849  20.696   6.150
 8497POPC   C1A52755  15.956  20.611   6.450
 8497POPC   D2A52756  15.955  20.656   6.750
 8497POPC   C3A52757  15.979  20.566   7.050
 8497POPC   C4A52758  15.917  20.608   7.350
 8497POPC   C1B52759  15.769  20.756   6.450
 8497POPC   C2B52760  15.828  20.801   6.750
 8497POPC   C3B52761  15.788  20.829   7.050
 8497POPC   C4B52762  15.772  20.845   7.350
 8498POPC   NC352763  37.653  35.400   5.550
 8498POPC   PO452764  37.651  35.377   5.850
 8498POPC   GL152765  37.701  35.324   6.150
 8498POPC   GL252766  37.764  35.464   6.150
 8498POPC   C1A52767  37.678  35.364   6.450
 8498POPC   D2A52768  37.642  35.372   6.750
 8498POPC   C3A52769  37.682  35.356   7.050
 8498POPC   C4A52770  37.651  35.313   7.350
 8498POPC   C1B52771  37.827  35.553   6.450
 8498POPC   C2B52772  37.902  35.497   6.750
 8498POPC   C3B52773  37.866  35.555   7.050
 8498POPC   C4B52774  37.887  35.502   7.350
 8499POPC   NC352775  16.708  30.690   5.550
 8499POPC   PO452776  16.749  30.663   5.850
 8499POPC   GL152777  16.714  30.738   6.150
 8499POPC   GL252778  16.820  30.739   6.150
 8499POPC   C1A52779  16.681  30.693   6.450
 8499POPC   D2A52780  16.737  30.720   6.750
 8499POPC   C3A52781  16.722  30.674   7.050
 8499POPC   C4A52782  16.763  30.716   7.350
 8499POPC   C1B52783  16.997  30.771   6.450
 8499POPC   C2B52784  17.021  30.765   6.750
 8499POPC   C3B52785  16.996  30.786   7.050
 8499POPC   C4B52786  16.943  30.751   7.350
 8500POPC   NC352787   9.791  26.069   5.550
 8500POPC   PO452788   9.773  25.994   5.850
 8500POPC   GL152789   9.770  26.082   6.150
 8500POPC   GL252790   9.804  25.954   6.150
 8500POPC   C1A52791   9.755  26.033   6.450
 8500POPC   D2A52792   9.744  26.003   6.750
 8500POPC   C3A52793   9.766  26.029   7.050
 8500POPC   C4A52794   9.753  26.022   7.350
 8500POPC   C1B52795   9.927  25.822   6.450
 8500POPC   C2B52796   9.931  25.823   6.750
 8500POPC   C3B52797   9.859  25.825   7.050
 8500POPC   C4B52798   9.906  25.817   7.350
 8501POPC   NC352799  33.043  35.361   5.550
 8501POPC   PO452800  33.005  35.336   5.850
 8501POPC   GL152801  32.990  35.390   6.150
 8501POPC   GL252802  33.060  35.478   6.150
 8501POPC   C1A52803  33.056  35.325   6.450
 8501POPC   D2A52804  33.001  35.308   6.750
 8501POPC   C3A52805  33.064  35.365   7.050
 8501POPC   C4A52806  33.038  35.312   7.350
 8501POPC   C1B52807  33.133  35.622   6.450
 8501POPC   C2B52808  33.055  35.584   6.750
 8501POPC   C3B52809  33.054  35.554   7.050
 8501POPC   C4B52810  33.086  35.594   7.350
 8502POPC   NC352811  18.325   3.581   5.550
 8502POPC   PO452812  18.318   3.550   5.850
 8502POPC   GL152813  18.318   3.572   6.150
 8502POPC   GL252814  18.185   3.610   6.150
 8502POPC   C1A52815  18.237   3.509   6.450
 8502POPC   D2A52816  18.243   3.560   6.750
 8502POPC   C3A52817  18.308   3.540   7.050
 8502POPC   C4A52818  18.333   3.557   7.350
 8502POPC   C1B52819  18.015   3.574   6.450
 8502POPC   C2B52820  18.021   3.642   6.750
 8502POPC   C3B52821  18.079   3.624   7.050
 8502POPC   C4B52822  18.074   3.624   7.350
 8503POPC   NC352823  30.709  44.654   5.550
 8503POPC   PO452824  30.693  44.691   5.850
 8503POPC   GL152825  30.738  44.655   6.150
 8503POPC   GL252826  30.791  44.643   6.150
 8503POPC   C1A52827  30.732  44.678   6.450
 8503POPC   D2A52828  30.688  44.637   6.750
 8503POPC   C3A52829  30.733  44.641   7.050
 8503POPC   C4A52830  30.682  44.653   7.350
 8503POPC   C1B52831  30.928  44.696   6.450
 8503POPC   C2B52832  30.934  44.722   6.750
 8503POPC   C3B52833  30.975  44.683   7.050
 8503POPC   C4B52834  30.928  44.669   7.350
 8504POPC   NC352835  22.914  12.830   5.550
 8504POPC   PO452836  22.971  12.840   5.850
 8504POPC   GL152837  22.975  12.898   6.150
 8504POPC   GL252838  22.850  12.899   6.150
 8504POPC   C1A52839  22.922  12.825   6.450
 8504POPC   D2A52840  22.949  12.898   6.750
 8504POPC   C3A52841  22.943  12.815   7.050
 8504POPC   C4A52842  22.902  12.883   7.350
 8504POPC   C1B52843  22.758  12.962   6.450
 8504POPC   C2B52844  22.697  12.954   6.750
 8504POPC   C3B52845  22.772  12.968   7.050
 8504POPC   C4B52846  22.739  12.962   7.350
 8505POPC   NC352847   8.192  30.727   5.550
 8505POPC   PO452848   8.177  30.665   5.850
 8505POPC   GL152849   8.195  30.678   6.150
 8505POPC   GL252850   8.114  30.569   6.150
 8505POPC   C1A52851   8.217  30.738   6.450
 8505POPC   D2A52852   8.219  30.674   6.750
 8505POPC   C3A52853   8.188  30.730   7.050
 8505POPC   C4A52854   8.231  30.656   7.350
 8505POPC   C1B52855   8.110  30.414   6.450
 8505POPC   C2B52856   8.138  30.434   6.750
 8505POPC   C3B52857   8.169  30.445   7.050
 8505POPC   C4B52858   8.136  30.423   7.350
 8506POPC   NC352859  26.808  40.042   5.550
 8506POPC   PO452860  26.856  40.022   5.850
 8506POPC   GL152861  26.795  40.013   6.150
 8506POPC   GL252862  26.917  39.936   6.150
 8506POPC   C1A52863  26.860  40.051   6.450
 8506POPC   D2A52864  26.795  40.035   6.750
 8506POPC   C3A52865  26.791  39.976   7.050
 8506POPC   C4A52866  26.848  40.016   7.350
 8506POPC   C1B52867  27.018  39.813   6.450
 8506POPC   C2B52868  26.991  39.893   6.750
 8506POPC   C3B52869  27.043  39.830   7.050
 8506POPC   C4B52870  27.042  39.844   7.350
 8507POPC   NC352871   3.551  22.136   5.550
 8507POPC   PO452872   3.546  22.168   5.850
 8507POPC   GL152873   3.558  22.130   6.150
 8507POPC   GL252874   3.440  22.155   6.150
 8507POPC   C1A52875   3.503  22.124   6.450
 8507POPC   D2A52876   3.588  22.210   6.750
 8507POPC   C3A52877   3.528  22.124   7.050
 8507POPC   C4A52878   3.513  22.171   7.350
 8507POPC   C1B52879   3.307  22.107   6.450
 8507POPC   C2B52880   3.303  22.121   6.750
 8507POPC   C3B52881   3.254  22.114   7.050
 8507POPC   C4B52882   3.280  22.161   7.350
 8508POPC   NC352883  25.277  31.522   5.550
 8508POPC   PO452884  25.315  31.521   5.850
 8508POPC   GL152885  25.242  31.474   6.150
 8508POPC   GL252886  25.276  31.410   6.150
 8508POPC   C1A52887  25.308  31.480   6.450
 8508POPC   D2A52888  25.254  31.504   6.750
 8508POPC   C3A52889  25.273  31.445   7.050
 8508POPC   C4A52890  25.271  31.491   7.350
 8508POPC   C1B52891  25.420  31.297   6.450
 8508POPC   C2B52892  25.365  31.256   6.750
 8508POPC   C3B52893  25.418  31.299   7.050
 8508POPC   C4B52894  25.343  31.218   7.350
 8509POPC   NC352895  25.315   2.762   5.550
 8509POPC   PO452896  25.277   2.795   5.850
 8509POPC   GL152897  25.233   2.723   6.150
 8509POPC   GL252898  25.281   2.649   6.150
 8509POPC   C1A52899  25.254   2.744   6.450
 8509POPC   D2A52900  25.221   2.807   6.750
 8509POPC   C3A52901  25.225   2.782   7.050
 8509POPC   C4A52902  25.293   2.728   7.350
 8509POPC   C1B52903  25.245   2.500   6.450
 8509POPC   C2B52904  25.200   2.491   6.750
 8509POPC   C3B52905  25.231   2.563   7.050
 8509POPC   C4B52906  25.176   2.497   7.350
 8510POPC   NC352907  21.397  15.135   5.550
 8510POPC   PO452908  21.379  15.171   5.850
 8510POPC   GL152909  21.353  15.139   6.150
 8510POPC   GL252910  21.443  15.300   6.150
 8510POPC   C1A52911  21.371  15.139   6.450
 8510POPC   D2A52912  21.371  15.163   6.750
 8510POPC   C3A52913  21.416  15.167   7.050
 8510POPC   C4A52914  21.420  15.138   7.350
 8510POPC   C1B52915  21.534  15.338   6.450
 8510POPC   C2B52916  21.552  15.406   6.750
 8510POPC   C3B52917  21.581  15.339   7.050
 8510POPC   C4B52918  21.545  15.341   7.350
 8511POPC   NC352919  39.208  35.334   5.550
 8511POPC   PO452920  39.208  35.315   5.850
 8511POPC   GL152921  39.191  35.323   6.150
 8511POPC   GL252922  39.259  35.442   6.150
 8511POPC   C1A52923  39.255  35.379   6.450
 8511POPC   D2A52924  39.277  35.325   6.750
 8511POPC   C3A52925  39.271  35.349   7.050
 8511POPC   C4A52926  39.244  35.310   7.350
 8511POPC   C1B52927  39.311  35.594   6.450
 8511POPC   C2B52928  39.267  35.552   6.750
 8511POPC   C3B52929  39.293  35.631   7.050
 8511POPC   C4B52930  39.249  35.580   7.350
 8512POPC   NC352931   0.466  20.615   5.550
 8512POPC   PO452932   0.421  20.636   5.850
 8512POPC   GL152933   0.476  20.579   6.150
 8512POPC   GL252934   0.454  20.450   6.150
 8512POPC   C1A52935   0.398  20.583   6.450
 8512POPC   D2A52936   0.395  20.632   6.750
 8512POPC   C3A52937   0.428  20.660   7.050
 8512POPC   C4A52938   0.461  20.606   7.350
 8512POPC   C1B52939   0.548  20.430   6.450
 8512POPC   C2B52940   0.562  20.392   6.750
 8512POPC   C3B52941   0.519  20.383   7.050
 8512POPC   C4B52942   0.549  20.399   7.350
 8513POPC   NC352943  38.492   8.942   5.550
 8513POPC   PO452944  38.477   9.009   5.850
 8513POPC   GL152945  38.438   9.020   6.150
 8513POPC   GL252946  38.609   8.900   6.150
 8513POPC   C1A52947  38.464   9.014   6.450
 8513POPC   D2A52948  38.431   9.011   6.750
 8513POPC   C3A52949  38.490   8.983   7.050
 8513POPC   C4A52950  38.429   8.986   7.350
 8513POPC   C1B52951  38.676   8.889   6.450
 8513POPC   C2B52952  38.678   8.824   6.750
 8513POPC   C3B52953  38.662   8.911   7.050
 8513POPC   C4B52954  38.657   8.856   7.350
 8514POPC   NC352955  27.569  36.081   5.550
 8514POPC   PO452956  27.627  36.124   5.850
 8514POPC   GL152957  27.544  36.090   6.150
 8514POPC   GL252958  27.456  36.096   6.150
 8514POPC   C1A52959  27.587  36.094   6.450
 8514POPC   D2A52960  27.568  36.078   6.750
 8514POPC   C3A52961  27.588  36.079   7.050
 8514POPC   C4A52962  27.553  36.086   7.350
 8514POPC   C1B52963  27.311  36.083   6.450
 8514POPC   C2B52964  27.340  36.089   6.750
 8514POPC   C3B52965  27.350  36.113   7.050
 8514POPC   C4B52966  27.324  36.021   7.350
 8515POPC   NC352967  43.076  42.375   5.550
 8515POPC   PO452968  43.160  42.315   5.850
 8515POPC   GL152969  43.114  42.368   6.150
 8515POPC   GL252970  43.231  42.333   6.150
 8515POPC   C1A52971  43.148  42.368   6.450
 8515POPC   D2A52972  43.087  42.373   6.750
 8515POPC   C3A52973  43.149  42.341   7.050
 8515POPC   C4A52974  43.126  42.293   7.350
 8515POPC   C1B52975  43.373  42.338   6.450
 8515POPC   C2B52976  43.404  42.313   6.750
 8515POPC   C3B52977  43.382  42.337   7.050
 8515POPC   C4B52978  43.367  42.358   7.350
 8516POPC   NC352979  21.369  43.842   5.550
 8516POPC   PO452980  21.403  43.895   5.850
 8516POPC   GL152981  21.337  43.932   6.150
 8516POPC   GL252982  21.481  43.877   6.150
 8516POPC   C1A52983  21.365  43.890   6.450
 8516POPC   D2A52984  21.416  43.890   6.750
 8516POPC   C3A52985  21.407  43.874   7.050
 8516POPC   C4A52986  21.352  43.888   7.350
 8516POPC   C1B52987  21.612  43.771   6.450
 8516POPC   C2B52988  21.579  43.758   6.750
 8516POPC   C3B52989  21.662  43.784   7.050
 8516POPC   C4B52990  21.604  43.798   7.350
 8517POPC   NC352991  26.839  42.336   5.550
 8517POPC   PO452992  26.793  42.368   5.850
 8517POPC   GL152993  26.836  42.317   6.150
 8517POPC   GL252994  26.649  42.345   6.150
 8517POPC   C1A52995  26.794  42.330   6.450
 8517POPC   D2A52996  26.791  42.295   6.750
 8517POPC   C3A52997  26.811  42.328   7.050
 8517POPC   C4A52998  26.836  42.344   7.350
 8517POPC   C1B52999  26.531  42.371   6.450
 8517POPC   C2B53000  26.597  42.369   6.750
 8517POPC   C3B53001  26.574  42.444   7.050
 8517POPC   C4B53002  26.600  42.370   7.350
 8518POPC   NC353003  21.428   5.858   5.550
 8518POPC   PO453004  21.360   5.850   5.850
 8518POPC   GL153005  21.395   5.825   6.150
 8518POPC   GL253006  21.412   5.786   6.150
 8518POPC   C1A53007  21.434   5.888   6.450
 8518POPC   D2A53008  21.372   5.896   6.750
 8518POPC   C3A53009  21.410   5.905   7.050
 8518POPC   C4A53010  21.424   5.827   7.350
 8518POPC   C1B53011  21.518   5.629   6.450
 8518POPC   C2B53012  21.513   5.633   6.750
 8518POPC   C3B53013  21.436   5.612   7.050
 8518POPC   C4B53014  21.434   5.662   7.350
 8519POPC   NC353015  26.791  36.166   5.550
 8519POPC   PO453016  26.861  36.119   5.850
 8519POPC   GL153017  26.807  36.117   6.150
 8519POPC   GL253018  26.944  36.079   6.150
 8519POPC   C1A53019  26.819  36.110   6.450
 8519POPC   D2A53020  26.862  36.115   6.750
 8519POPC   C3A53021  26.814  36.172   7.050
 8519POPC   C4A53022  26.793  36.093   7.350
 8519POPC   C1B53023  27.053  36.093   6.450
 8519POPC   C2B53024  27.072  36.090   6.750
 8519POPC   C3B53025  27.016  36.074   7.050
 8519POPC   C4B53026  27.058  36.102   7.350
 8520POPC   NC353027  42.300  20.609   5.550
 8520POPC   PO453028  42.344  20.621   5.850
 8520POPC   GL153029  42.313  20.608   6.150
 8520POPC   GL253030  42.183  20.537   6.150
 8520POPC   C1A53031  42.332  20.601   6.450
 8520POPC   D2A53032  42.344  20.582   6.750
 8520POPC   C3A53033  42.345  20.561   7.050
 8520POPC   C4A53034  42.359  20.616   7.350
 8520POPC   C1B53035  42.106  20.487   6.450
 8520POPC   C2B53036  42.058  20.543   6.750
 8520POPC   C3B53037  42.089  20.523   7.050
 8520POPC   C4B53038  42.074  20.502   7.350
 8521POPC   NC353039  24.508  36.924   5.550
 8521POPC   PO453040  24.442  36.942   5.850
 8521POPC   GL153041  24.470  36.929   6.150
 8521POPC   GL253042  24.450  36.818   6.150
 8521POPC   C1A53043  24.511  36.873   6.450
 8521POPC   D2A53044  24.535  36.917   6.750
 8521POPC   C3A53045  24.467  36.908   7.050
 8521POPC   C4A53046  24.491  36.948   7.350
 8521POPC   C1B53047  24.496  36.620   6.450
 8521POPC   C2B53048  24.477  36.608   6.750
 8521POPC   C3B53049  24.500  36.621   7.050
 8521POPC   C4B53050  24.534  36.654   7.350
 8522POPC   NC353051   9.747  27.614   5.550
 8522POPC   PO453052   9.738  27.594   5.850
 8522POPC   GL153053   9.746  27.626   6.150
 8522POPC   GL253054   9.748  27.434   6.150
 8522POPC   C1A53055   9.792  27.628   6.450
 8522POPC   D2A53056   9.732  27.625   6.750
 8522POPC   C3A53057   9.760  27.631   7.050
 8522POPC   C4A53058   9.770  27.599   7.350
 8522POPC   C1B53059   9.770  27.307   6.450
 8522POPC   C2B53060   9.801  27.359   6.750
 8522POPC   C3B53061   9.789  27.361   7.050
 8522POPC   C4B53062   9.813  27.385   7.350
 8523POPC   NC353063  39.274  19.835   5.550
 8523POPC   PO453064  39.232  19.853   5.850
 8523POPC   GL153065  39.253  19.805   6.150
 8523POPC   GL253066  39.087  19.799   6.150
 8523POPC   C1A53067  39.185  19.841   6.450
 8523POPC   D2A53068  39.257  19.817   6.750
 8523POPC   C3A53069  39.251  19.850   7.050
 8523POPC   C4A53070  39.267  19.842   7.350
 8523POPC   C1B53071  39.064  19.649   6.450
 8523POPC   C2B53072  39.007  19.655   6.750
 8523POPC   C3B53073  39.086  19.624   7.050
 8523POPC   C4B53074  39.001  19.664   7.350
 8524POPC   NC353075   5.063  22.128   5.550
 8524POPC   PO453076   5.133  22.190   5.850
 8524POPC   GL153077   5.078  22.162   6.150
 8524POPC   GL253078   5.027  22.186   6.150
 8524POPC   C1A53079   5.051  22.201   6.450
 8524POPC   D2A53080   5.088  22.115   6.750
 8524POPC   C3A53081   5.059  22.144   7.050
 8524POPC   C4A53082   5.095  22.131   7.350
 8524POPC   C1B53083   4.900  22.314   6.450
 8524POPC   C2B53084   4.833  22.270   6.750
 8524POPC   C3B53085   4.905  22.274   7.050
 8524POPC   C4B53086   4.851  22.297   7.350
 8525POPC   NC353087  34.618   6.602   5.550
 8525POPC   PO453088  34.592   6.677   5.850
 8525POPC   GL153089  34.614   6.604   6.150
 8525POPC   GL253090  34.709   6.747   6.150
 8525POPC   C1A53091  34.563   6.618   6.450
 8525POPC   D2A53092  34.609   6.692   6.750
 8525POPC   C3A53093  34.579   6.618   7.050
 8525POPC   C4A53094  34.595   6.644   7.350
 8525POPC   C1B53095  34.810   6.762   6.450
 8525POPC   C2B53096  34.776   6.802   6.750
 8525POPC   C3B53097  34.834   6.788   7.050
 8525POPC   C4B53098  34.842   6.719   7.350
 8526POPC   NC353099  29.118  10.501   5.550
 8526POPC   PO453100  29.174  10.486   5.850
 8526POPC   GL153101  29.127  10.481   6.150
 8526POPC   GL253102  29.273  10.554   6.150
 8526POPC   C1A53103  29.123  10.490   6.450
 8526POPC   D2A53104  29.182  10.550   6.750
 8526POPC   C3A53105  29.128  10.515   7.050
 8526POPC   C4A53106  29.128  10.566   7.350
 8526POPC   C1B53107  29.393  10.530   6.450
 8526POPC   C2B53108  29.440  10.479   6.750
 8526POPC   C3B53109  29.437  10.508   7.050
 8526POPC   C4B53110  29.350  10.555   7.350
 8527POPC   NC353111   5.096  24.525   5.550
 8527POPC   PO453112   5.124  24.534   5.850
 8527POPC   GL153113   5.079  24.462   6.150
 8527POPC   GL253114   5.158  24.566   6.150
 8527POPC   C1A53115   5.063  24.464   6.450
 8527POPC   D2A53116   5.072  24.470   6.750
 8527POPC   C3A53117   5.071  24.467   7.050
 8527POPC   C4A53118   5.052  24.508   7.350
 8527POPC   C1B53119   5.240  24.639   6.450
 8527POPC   C2B53120   5.270  24.695   6.750
 8527POPC   C3B53121   5.280  24.680   7.050
 8527POPC   C4B53122   5.262  24.655   7.350
 8528POPC   NC353123  27.599   3.561   5.550
 8528POPC   PO453124  27.623   3.527   5.850
 8528POPC   GL153125  27.620   3.583   6.150
 8528POPC   GL253126  27.737   3.637   6.150
 8528POPC   C1A53127  27.565   3.565   6.450
 8528POPC   D2A53128  27.623   3.507   6.750
 8528POPC   C3A53129  27.581   3.503   7.050
 8528POPC   C4A53130  27.638   3.496   7.350
 8528POPC   C1B53131  27.778   3.620   6.450
 8528POPC   C2B53132  27.804   3.623   6.750
 8528POPC   C3B53133  27.825   3.715   7.050
 8528POPC   C4B53134  27.826   3.717   7.350
 8529POPC   NC353135  38.434   9.714   5.550
 8529POPC   PO453136  38.456   9.787   5.850
 8529POPC   GL153137  38.486   9.757   6.150
 8529POPC   GL253138  38.582   9.672   6.150
 8529POPC   C1A53139  38.470   9.713   6.450
 8529POPC   D2A53140  38.467   9.704   6.750
 8529POPC   C3A53141  38.481   9.777   7.050
 8529POPC   C4A53142  38.445   9.774   7.350
 8529POPC   C1B53143  38.664   9.630   6.450
 8529POPC   C2B53144  38.687   9.600   6.750
 8529POPC   C3B53145  38.642   9.640   7.050
 8529POPC   C4B53146  38.642   9.620   7.350
 8530POPC   NC353147   0.446   6.691   5.550
 8530POPC   PO453148   0.436   6.600   5.850
 8530POPC   GL153149   0.462   6.615   6.150
 8530POPC   GL253150   0.428   6.560   6.150
 8530POPC   C1A53151   0.424   6.692   6.450
 8530POPC   D2A53152   0.391   6.608   6.750
 8530POPC   C3A53153   0.482   6.625   7.050
 8530POPC   C4A53154   0.446   6.600   7.350
 8530POPC   C1B53155   0.430   6.402   6.450
 8530POPC   C2B53156   0.446   6.417   6.750
 8530POPC   C3B53157   0.423   6.374   7.050
 8530POPC   C4B53158   0.456   6.378   7.350
 8531POPC   NC353159   7.466  33.038   5.550
 8531POPC   PO453160   7.416  33.033   5.850
 8531POPC   GL153161   7.389  33.066   6.150
 8531POPC   GL253162   7.276  32.974   6.150
 8531POPC   C1A53163   7.467  33.074   6.450
 8531POPC   D2A53164   7.384  33.036   6.750
 8531POPC   C3A53165   7.424  33.024   7.050
 8531POPC   C4A53166   7.417  33.017   7.350
 8531POPC   C1B53167   7.236  32.891   6.450
 8531POPC   C2B53168   7.190  32.820   6.750
 8531POPC   C3B53169   7.183  32.872   7.050
 8531POPC   C4B53170   7.271  32.836   7.350
 8532POPC   NC353171  33.036  41.578   5.550
 8532POPC   PO453172  33.039  41.542   5.850
 8532POPC   GL153173  32.995  41.584   6.150
 8532POPC   GL253174  33.100  41.552   6.150
 8532POPC   C1A53175  33.058  41.541   6.450
 8532POPC   D2A53176  32.984  41.587   6.750
 8532POPC   C3A53177  33.045  41.559   7.050
 8532POPC   C4A53178  33.018  41.524   7.350
 8532POPC   C1B53179  33.240  41.555   6.450
 8532POPC   C2B53180  33.309  41.493   6.750
 8532POPC   C3B53181  33.307  41.486   7.050
 8532POPC   C4B53182  33.298  41.491   7.350
 8533POPC   NC353183  35.383   0.401   5.550
 8533POPC   PO453184  35.348   0.481   5.850
 8533POPC   GL153185  35.347   0.487   6.150
 8533POPC   GL253186  35.472   0.397   6.150
 8533POPC   C1A53187  35.360   0.482   6.450
 8533POPC   D2A53188  35.383   0.478   6.750
 8533POPC   C3A53189  35.388   0.424   7.050
 8533POPC   C4A53190  35.372   0.390   7.350
 8533POPC   C1B53191  35.612   0.369   6.450
 8533POPC   C2B53192  35.624   0.404   6.750
 8533POPC   C3B53193  35.640   0.443   7.050
 8533POPC   C4B53194  35.641   0.372   7.350
 8534POPC   NC353195   5.043  39.194   5.550
 8534POPC   PO453196   5.095  39.259   5.850
 8534POPC   GL153197   5.080  39.263   6.150
 8534POPC   GL253198   5.140  39.369   6.150
 8534POPC   C1A53199   5.072  39.244   6.450
 8534POPC   D2A53200   5.059  39.229   6.750
 8534POPC   C3A53201   5.103  39.238   7.050
 8534POPC   C4A53202   5.060  39.236   7.350
 8534POPC   C1B53203   5.254  39.421   6.450
 8534POPC   C2B53204   5.194  39.488   6.750
 8534POPC   C3B53205   5.274  39.414   7.050
 8534POPC   C4B53206   5.264  39.409   7.350
 8535POPC   NC353207  29.951  40.742   5.550
 8535POPC   PO453208  29.903  40.817   5.850
 8535POPC   GL153209  29.883  40.743   6.150
 8535POPC   GL253210  29.998  40.661   6.150
 8535POPC   C1A53211  29.932  40.770   6.450
 8535POPC   D2A53212  29.942  40.765   6.750
 8535POPC   C3A53213  29.889  40.737   7.050
 8535POPC   C4A53214  29.884  40.768   7.350
 8535POPC   C1B53215  29.953  40.570   6.450
 8535POPC   C2B53216  29.967  40.534   6.750
 8535POPC   C3B53217  29.927  40.543   7.050
 8535POPC   C4B53218  29.966  40.564   7.350
 8536POPC   NC353219  20.629   2.000   5.550
 8536POPC   PO453220  20.563   1.955   5.850
 8536POPC   GL153221  20.600   1.972   6.150
 8536POPC   GL253222  20.567   1.823   6.150
 8536POPC   C1A53223  20.580   1.979   6.450
 8536POPC   D2A53224  20.624   1.965   6.750
 8536POPC   C3A53225  20.651   2.038   7.050
 8536POPC   C4A53226  20.646   2.013   7.350
 8536POPC   C1B53227  20.541   1.781   6.450
 8536POPC   C2B53228  20.536   1.728   6.750
 8536POPC   C3B53229  20.526   1.705   7.050
 8536POPC   C4B53230  20.505   1.730   7.350
 8537POPC   NC353231  36.123  30.664   5.550
 8537POPC   PO453232  36.143  30.740   5.850
 8537POPC   GL153233  36.105  30.737   6.150
 8537POPC   GL253234  36.273  30.615   6.150
 8537POPC   C1A53235  36.162  30.648   6.450
 8537POPC   D2A53236  36.152  30.657   6.750
 8537POPC   C3A53237  36.124  30.735   7.050
 8537POPC   C4A53238  36.173  30.704   7.350
 8537POPC   C1B53239  36.360  30.656   6.450
 8537POPC   C2B53240  36.334  30.584   6.750
 8537POPC   C3B53241  36.319  30.667   7.050
 8537POPC   C4B53242  36.350  30.636   7.350
 8538POPC   NC353243  27.609  30.735   5.550
 8538POPC   PO453244  27.573  30.734   5.850
 8538POPC   GL153245  27.640  30.704   6.150
 8538POPC   GL253246  27.479  30.545   6.150
 8538POPC   C1A53247  27.605  30.724   6.450
 8538POPC   D2A53248  27.558  30.651   6.750
 8538POPC   C3A53249  27.564  30.682   7.050
 8538POPC   C4A53250  27.629  30.703   7.350
 8538POPC   C1B53251  27.445  30.528   6.450
 8538POPC   C2B53252  27.458  30.491   6.750
 8538POPC   C3B53253  27.450  30.437   7.050
 8538POPC   C4B53254  27.476  30.497   7.350
 8539POPC   NC353255  19.796   7.424   5.550
 8539POPC   PO453256  19.869   7.411   5.850
 8539POPC   GL153257  19.856   7.446   6.150
 8539POPC   GL253258  19.964   7.545   6.150
 8539POPC   C1A53259  19.872   7.465   6.450
 8539POPC   D2A53260  19.795   7.436   6.750
 8539POPC   C3A53261  19.875   7.453   7.050
 8539POPC   C4A53262  19.801   7.412   7.350
 8539POPC   C1B53263  19.986   7.588   6.450
 8539POPC   C2B53264  20.015   7.589   6.750
 8539POPC   C3B53265  20.058   7.598   7.050
 8539POPC   C4B53266  20.051   7.599   7.350
 8540POPC   NC353267  23.702  14.400   5.550
 8540POPC   PO453268  23.758  14.367   5.850
 8540POPC   GL153269  23.737  14.452   6.150
 8540POPC   GL253270  23.723  14.301   6.150
 8540POPC   C1A53271  23.716  14.435   6.450
 8540POPC   D2A53272  23.741  14.393   6.750
 8540POPC   C3A53273  23.738  14.385   7.050
 8540POPC   C4A53274  23.714  14.381   7.350
 8540POPC   C1B53275  23.675  14.191   6.450
 8540POPC   C2B53276  23.699  14.120   6.750
 8540POPC   C3B53277  23.650  14.126   7.050
 8540POPC   C4B53278  23.638  14.178   7.350
 8541POPC   NC353279  33.763  36.136   5.550
 8541POPC   PO453280  33.753  36.111   5.850
 8541POPC   GL153281  33.795  36.159   6.150
 8541POPC   GL253282  33.741  36.030   6.150
 8541POPC   C1A53283  33.769  36.153   6.450
 8541POPC   D2A53284  33.820  36.141   6.750
 8541POPC   C3A53285  33.809  36.127   7.050
 8541POPC   C4A53286  33.758  36.090   7.350
 8541POPC   C1B53287  33.746  35.917   6.450
 8541POPC   C2B53288  33.821  35.925   6.750
 8541POPC   C3B53289  33.827  35.867   7.050
 8541POPC   C4B53290  33.830  35.849   7.350
 8542POPC   NC353291  26.040  37.704   5.550
 8542POPC   PO453292  25.998  37.705   5.850
 8542POPC   GL153293  26.026  37.650   6.150
 8542POPC   GL253294  26.102  37.542   6.150
 8542POPC   C1A53295  26.015  37.709   6.450
 8542POPC   D2A53296  26.052  37.670   6.750
 8542POPC   C3A53297  26.052  37.654   7.050
 8542POPC   C4A53298  26.039  37.688   7.350
 8542POPC   C1B53299  26.157  37.463   6.450
 8542POPC   C2B53300  26.106  37.426   6.750
 8542POPC   C3B53301  26.174  37.427   7.050
 8542POPC   C4B53302  26.107  37.429   7.350
 8543POPC   NC353303  36.116  29.124   5.550
 8543POPC   PO453304  36.172  29.182   5.850
 8543POPC   GL153305  36.126  29.108   6.150
 8543POPC   GL253306  36.050  29.266   6.150
 8543POPC   C1A53307  36.093  29.160   6.450
 8543POPC   D2A53308  36.112  29.166   6.750
 8543POPC   C3A53309  36.129  29.114   7.050
 8543POPC   C4A53310  36.169  29.104   7.350
 8543POPC   C1B53311  36.009  29.403   6.450
 8543POPC   C2B53312  36.082  29.422   6.750
 8543POPC   C3B53313  36.024  29.342   7.050
 8543POPC   C4B53314  36.018  29.405   7.350
 8544POPC   NC353315  21.337  39.232   5.550
 8544POPC   PO453316  21.419  39.186   5.850
 8544POPC   GL153317  21.376  39.244   6.150
 8544POPC   GL253318  21.439  39.308   6.150
 8544POPC   C1A53319  21.383  39.224   6.450
 8544POPC   D2A53320  21.393  39.259   6.750
 8544POPC   C3A53321  21.430  39.208   7.050
 8544POPC   C4A53322  21.351  39.237   7.350
 8544POPC   C1B53323  21.549  39.395   6.450
 8544POPC   C2B53324  21.544  39.437   6.750
 8544POPC   C3B53325  21.571  39.407   7.050
 8544POPC   C4B53326  21.600  39.438   7.350
 8545POPC   NC353327  23.743  40.797   5.550
 8545POPC   PO453328  23.727  40.802   5.850
 8545POPC   GL153329  23.742  40.813   6.150
 8545POPC   GL253330  23.792  40.710   6.150
 8545POPC   C1A53331  23.671  40.817   6.450
 8545POPC   D2A53332  23.750  40.824   6.750
 8545POPC   C3A53333  23.702  40.792   7.050
 8545POPC   C4A53334  23.730  40.788   7.350
 8545POPC   C1B53335  23.931  40.709   6.450
 8545POPC   C2B53336  23.991  40.743   6.750
 8545POPC   C3B53337  23.968  40.707   7.050
 8545POPC   C4B53338  23.959  40.730   7.350
 8546POPC   NC353339  31.430  18.257   5.550
 8546POPC   PO453340  31.467  18.253   5.850
 8546POPC   GL153341  31.447  18.262   6.150
 8546POPC   GL253342  31.356  18.271   6.150
 8546POPC   C1A53343  31.483  18.311   6.450
 8546POPC   D2A53344  31.484  18.298   6.750
 8546POPC   C3A53345  31.465  18.263   7.050
 8546POPC   C4A53346  31.515  18.247   7.350
 8546POPC   C1B53347  31.209  18.235   6.450
 8546POPC   C2B53348  31.284  18.242   6.750
 8546POPC   C3B53349  31.282  18.250   7.050
 8546POPC   C4B53350  31.236  18.153   7.350
 8547POPC   NC353351  36.931  21.345   5.550
 8547POPC   PO453352  36.942  21.347   5.850
 8547POPC   GL153353  36.913  21.377   6.150
 8547POPC   GL253354  36.775  21.259   6.150
 8547POPC   C1A53355  36.862  21.356   6.450
 8547POPC   D2A53356  36.870  21.382   6.750
 8547POPC   C3A53357  36.945  21.385   7.050
 8547POPC   C4A53358  36.934  21.396   7.350
 8547POPC   C1B53359  36.698  21.229   6.450
 8547POPC   C2B53360  36.740  21.207   6.750
 8547POPC   C3B53361  36.700  21.241   7.050
 8547POPC   C4B53362  36.744  21.186   7.350
 8548POPC   NC353363   8.161  33.779   5.550
 8548POPC   PO453364   8.230  33.784   5.850
 8548POPC   GL153365   8.221  33.798   6.150
 8548POPC   GL253366   8.192  33.947   6.150
 8548POPC   C1A53367   8.246  33.809   6.450
 8548POPC   D2A53368   8.202  33.769   6.750
 8548POPC   C3A53369   8.234  33.790   7.050
 8548POPC   C4A53370   8.208  33.792   7.350
 8548POPC   C1B53371   8.137  34.061   6.450
 8548POPC   C2B53372   8.214  34.004   6.750
 8548POPC   C3B53373   8.125  34.090   7.050
 8548POPC   C4B53374   8.122  34.052   7.350
 8549POPC   NC353375  20.614  19.037   5.550
 8549POPC   PO453376  20.601  19.054   5.850
 8549POPC   GL153377  20.592  19.070   6.150
 8549POPC   GL253378  20.713  19.105   6.150
 8549POPC   C1A53379  20.659  19.063   6.450
 8549POPC   D2A53380  20.628  19.102   6.750
 8549POPC   C3A53381  20.656  19.103   7.050
 8549POPC   C4A53382  20.633  19.063   7.350
 8549POPC   C1B53383  20.868  19.132   6.450
 8549POPC   C2B53384  20.902  19.094   6.750
 8549POPC   C3B53385  20.811  19.086   7.050
 8549POPC   C4B53386  20.898  19.082   7.350
 8550POPC   NC353387  16.711   7.397   5.550
 8550POPC   PO453388  16.719   7.412   5.850
 8550POPC   GL153389  16.734   7.437   6.150
 8550POPC   GL253390  16.653   7.574   6.150
 8550POPC   C1A53391  16.702   7.462   6.450
 8550POPC   D2A53392  16.763   7.408   6.750
 8550POPC   C3A53393  16.778   7.399   7.050
 8550POPC   C4A53394  16.700   7.422   7.350
 8550POPC   C1B53395  16.713   7.690   6.450
 8550POPC   C2B53396  16.634   7.703   6.750
 8550POPC   C3B53397  16.680   7.656   7.050
 8550POPC   C4B53398  16.619   7.685   7.350
 8551POPC   NC353399  28.358   8.936   5.550
 8551POPC   PO453400  28.417   9.015   5.850
 8551POPC   GL153401  28.402   8.959   6.150
 8551POPC   GL253402  28.395   9.080   6.150
 8551POPC   C1A53403  28.343   8.943   6.450
 8551POPC   D2A53404  28.390   8.926   6.750
 8551POPC   C3A53405  28.367   9.019   7.050
 8551POPC   C4A53406  28.340   8.974   7.350
 8551POPC   C1B53407  28.450   9.192   6.450
 8551POPC   C2B53408  28.463   9.151   6.750
 8551POPC   C3B53409  28.473   9.241   7.050
 8551POPC   C4B53410  28.537   9.198   7.350
 8552POPC   NC353411  27.561  26.812   5.550
 8552POPC   PO453412  27.595  26.787   5.850
 8552POPC   GL153413  27.558  26.827   6.150
 8552POPC   GL253414  27.494  26.856   6.150
 8552POPC   C1A53415  27.639  26.862   6.450
 8552POPC   D2A53416  27.595  26.847   6.750
 8552POPC   C3A53417  27.629  26.827   7.050
 8552POPC   C4A53418  27.640  26.793   7.350
 8552POPC   C1B53419  27.384  26.968   6.450
 8552POPC   C2B53420  27.427  26.932   6.750
 8552POPC   C3B53421  27.362  26.944   7.050
 8552POPC   C4B53422  27.427  26.991   7.350
 8553POPC   NC353423   1.970  38.452   5.550
 8553POPC   PO453424   2.038  38.475   5.850
 8553POPC   GL153425   1.949  38.441   6.150
 8553POPC   GL253426   1.943  38.418   6.150
 8553POPC   C1A53427   2.014  38.457   6.450
 8553POPC   D2A53428   1.974  38.486   6.750
 8553POPC   C3A53429   1.993  38.423   7.050
 8553POPC   C4A53430   1.952  38.428   7.350
 8553POPC   C1B53431   1.834  38.331   6.450
 8553POPC   C2B53432   1.781  38.245   6.750
 8553POPC   C3B53433   1.786  38.240   7.050
 8553POPC   C4B53434   1.851  38.293   7.350
 8554POPC   NC353435   5.060  36.881   5.550
 8554POPC   PO453436   5.093  36.862   5.850
 8554POPC   GL153437   5.044  36.893   6.150
 8554POPC   GL253438   5.235  36.957   6.150
 8554POPC   C1A53439   5.088  36.885   6.450
 8554POPC   D2A53440   5.060  36.922   6.750
 8554POPC   C3A53441   5.054  36.920   7.050
 8554POPC   C4A53442   5.056  36.949   7.350
 8554POPC   C1B53443   5.374  36.996   6.450
 8554POPC   C2B53444   5.333  36.918   6.750
 8554POPC   C3B53445   5.288  36.928   7.050
 8554POPC   C4B53446   5.371  36.979   7.350
 8555POPC   NC353447  36.946  33.756   5.550
 8555POPC   PO453448  36.857  33.808   5.850
 8555POPC   GL153449  36.866  33.832   6.150
 8555POPC   GL253450  36.806  33.939   6.150
 8555POPC   C1A53451  36.855  33.838   6.450
 8555POPC   D2A53452  36.877  33.845   6.750
 8555POPC   C3A53453  36.909  33.818   7.050
 8555POPC   C4A53454  36.893  33.774   7.350
 8555POPC   C1B53455  36.751  34.028   6.450
 8555POPC   C2B53456  36.760  34.007   6.750
 8555POPC   C3B53457  36.763  33.980   7.050
 8555POPC   C4B53458  36.808  33.966   7.350
 8556POPC   NC353459  41.550  12.110   5.550
 8556POPC   PO453460  41.542  12.096   5.850
 8556POPC   GL153461  41.582  12.066   6.150
 8556POPC   GL253462  41.589  12.220   6.150
 8556POPC   C1A53463  41.543  12.121   6.450
 8556POPC   D2A53464  41.524  12.054   6.750
 8556POPC   C3A53465  41.526  12.122   7.050
 8556POPC   C4A53466  41.598  12.032   7.350
 8556POPC   C1B53467  41.654  12.285   6.450
 8556POPC   C2B53468  41.615  12.307   6.750
 8556POPC   C3B53469  41.601  12.300   7.050
 8556POPC   C4B53470  41.624  12.346   7.350
 8557POPC   NC353471  36.921   8.204   5.550
 8557POPC   PO453472  36.910   8.218   5.850
 8557POPC   GL153473  36.869   8.154   6.150
 8557POPC   GL253474  37.006   8.117   6.150
 8557POPC   C1A53475  36.886   8.233   6.450
 8557POPC   D2A53476  36.866   8.239   6.750
 8557POPC   C3A53477  36.855   8.241   7.050
 8557POPC   C4A53478  36.947   8.244   7.350
 8557POPC   C1B53479  37.063   8.006   6.450
 8557POPC   C2B53480  37.105   8.068   6.750
 8557POPC   C3B53481  37.064   8.017   7.050
 8557POPC   C4B53482  37.074   7.993   7.350
 8558POPC   NC353483   6.632   5.089   5.550
 8558POPC   PO453484   6.683   5.103   5.850
 8558POPC   GL153485   6.630   5.056   6.150
 8558POPC   GL253486   6.556   4.999   6.150
 8558POPC   C1A53487   6.678   5.113   6.450
 8558POPC   D2A53488   6.624   5.141   6.750
 8558POPC   C3A53489   6.619   5.093   7.050
 8558POPC   C4A53490   6.686   5.104   7.350
 8558POPC   C1B53491   6.371   4.963   6.450
 8558POPC   C2B53492   6.438   5.035   6.750
 8558POPC   C3B53493   6.447   4.994   7.050
 8558POPC   C4B53494   6.402   4.987   7.350
 8559POPC   NC353495  40.041  21.430   5.550
 8559POPC   PO453496  40.025  21.353   5.850
 8559POPC   GL153497  39.980  21.349   6.150
 8559POPC   GL253498  40.043  21.247   6.150
 8559POPC   C1A53499  40.039  21.392   6.450
 8559POPC   D2A53500  40.004  21.346   6.750
 8559POPC   C3A53501  39.965  21.370   7.050
 8559POPC   C4A53502  40.056  21.391   7.350
 8559POPC   C1B53503  40.043  21.172   6.450
 8559POPC   C2B53504  40.005  21.109   6.750
 8559POPC   C3B53505  40.029  21.142   7.050
 8559POPC   C4B53506  40.027  21.115   7.350
 8560POPC   NC353507   0.423  15.210   5.550
 8560POPC   PO453508   0.480  15.226   5.850
 8560POPC   GL153509   0.419  15.216   6.150
 8560POPC   GL253510   0.560  15.133   6.150
 8560POPC   C1A53511   0.477  15.223   6.450
 8560POPC   D2A53512   0.412  15.159   6.750
 8560POPC   C3A53513   0.394  15.182   7.050
 8560POPC   C4A53514   0.466  15.180   7.350
 8560POPC   C1B53515   0.720  15.126   6.450
 8560POPC   C2B53516   0.658  15.176   6.750
 8560POPC   C3B53517   0.728  15.143   7.050
 8560POPC   C4B53518   0.700  15.139   7.350
 8561POPC   NC353519  36.084  40.004   5.550
 8561POPC   PO453520  36.114  40.048   5.850
 8561POPC   GL153521  36.159  40.028   6.150
 8561POPC   GL253522  36.214  40.006   6.150
 8561POPC   C1A53523  36.129  40.024   6.450
 8561POPC   D2A53524  36.139  39.989   6.750
 8561POPC   C3A53525  36.088  39.960   7.050
 8561POPC   C4A53526  36.120  40.002   7.350
 8561POPC   C1B53527  36.355  40.071   6.450
 8561POPC   C2B53528  36.352  40.029   6.750
 8561POPC   C3B53529  36.377  40.039   7.050
 8561POPC   C4B53530  36.394  40.048   7.350
 8562POPC   NC353531  39.253  30.742   5.550
 8562POPC   PO453532  39.270  30.722   5.850
 8562POPC   GL153533  39.209  30.715   6.150
 8562POPC   GL253534  39.070  30.621   6.150
 8562POPC   C1A53535  39.223  30.727   6.450
 8562POPC   D2A53536  39.210  30.720   6.750
 8562POPC   C3A53537  39.247  30.652   7.050
 8562POPC   C4A53538  39.257  30.738   7.350
 8562POPC   C1B53539  38.959  30.631   6.450
 8562POPC   C2B53540  39.021  30.618   6.750
 8562POPC   C3B53541  39.038  30.555   7.050
 8562POPC   C4B53542  38.955  30.614   7.350
 8563POPC   NC353543  24.468   0.474   5.550
 8563POPC   PO453544  24.457   0.467   5.850
 8563POPC   GL153545  24.481   0.390   6.150
 8563POPC   GL253546  24.359   0.370   6.150
 8563POPC   C1A53547  24.539   0.410   6.450
 8563POPC   D2A53548  24.535   0.457   6.750
 8563POPC   C3A53549  24.476   0.441   7.050
 8563POPC   C4A53550  24.455   0.406   7.350
 8563POPC   C1B53551  24.220   0.412   6.450
 8563POPC   C2B53552  24.206   0.350   6.750
 8563POPC   C3B53553  24.244   0.378   7.050
 8563POPC   C4B53554  24.288   0.409   7.350
 8564POPC   NC353555   6.639   0.454   5.550
 8564POPC   PO453556   6.675   0.399   5.850
 8564POPC   GL153557   6.603   0.445   6.150
 8564POPC   GL253558   6.729   0.372   6.150
 8564POPC   C1A53559   6.623   0.403   6.450
 8564POPC   D2A53560   6.661   0.457   6.750
 8564POPC   C3A53561   6.693   0.412   7.050
 8564POPC   C4A53562   6.641   0.478   7.350
 8564POPC   C1B53563   6.762   0.161   6.450
 8564POPC   C2B53564   6.770   0.204   6.750
 8564POPC   C3B53565   6.701   0.250   7.050
 8564POPC   C4B53566   6.731   0.233   7.350
 8565POPC   NC353567  10.479   8.153   5.550
 8565POPC   PO453568  10.532   8.208   5.850
 8565POPC   GL153569  10.564   8.209   6.150
 8565POPC   GL253570  10.593   8.319   6.150
 8565POPC   C1A53571  10.541   8.190   6.450
 8565POPC   D2A53572  10.548   8.160   6.750
 8565POPC   C3A53573  10.509   8.200   7.050
 8565POPC   C4A53574  10.571   8.163   7.350
 8565POPC   C1B53575  10.647   8.431   6.450
 8565POPC   C2B53576  10.658   8.360   6.750
 8565POPC   C3B53577  10.695   8.376   7.050
 8565POPC   C4B53578  10.668   8.411   7.350
 8566POPC   NC353579  12.026  21.407   5.550
 8566POPC   PO453580  12.092  21.354   5.850
 8566POPC   GL153581  12.082  21.357   6.150
 8566POPC   GL253582  12.221  21.349   6.150
 8566POPC   C1A53583  12.064  21.422   6.450
 8566POPC   D2A53584  12.111  21.376   6.750
 8566POPC   C3A53585  12.035  21.392   7.050
 8566POPC   C4A53586  12.069  21.415   7.350
 8566POPC   C1B53587  12.284  21.295   6.450
 8566POPC   C2B53588  12.256  21.268   6.750
 8566POPC   C3B53589  12.321  21.309   7.050
 8566POPC   C4B53590  12.291  21.278   7.350
 8567POPC   NC353591  17.478   8.205   5.550
 8567POPC   PO453592  17.546   8.157   5.850
 8567POPC   GL153593  17.540   8.170   6.150
 8567POPC   GL253594  17.636   8.229   6.150
 8567POPC   C1A53595  17.478   8.208   6.450
 8567POPC   D2A53596  17.553   8.208   6.750
 8567POPC   C3A53597  17.552   8.152   7.050
 8567POPC   C4A53598  17.519   8.152   7.350
 8567POPC   C1B53599  17.734   8.290   6.450
 8567POPC   C2B53600  17.709   8.328   6.750
 8567POPC   C3B53601  17.741   8.239   7.050
 8567POPC   C4B53602  17.778   8.259   7.350
 8568POPC   NC353603  26.858   5.874   5.550
 8568POPC   PO453604  26.779   5.850   5.850
 8568POPC   GL153605  26.774   5.859   6.150
 8568POPC   GL253606  26.933   5.959   6.150
 8568POPC   C1A53607  26.858   5.882   6.450
 8568POPC   D2A53608  26.793   5.910   6.750
 8568POPC   C3A53609  26.841   5.823   7.050
 8568POPC   C4A53610  26.796   5.896   7.350
 8568POPC   C1B53611  26.940   6.030   6.450
 8568POPC   C2B53612  26.992   6.124   6.750
 8568POPC   C3B53613  26.971   6.054   7.050
 8568POPC   C4B53614  27.004   6.063   7.350
 8569POPC   NC353615  43.922  40.776   5.550
 8569POPC   PO453616  43.902  40.740   5.850
 8569POPC   GL153617  43.911  40.807   6.150
 8569POPC   GL253618  43.950  40.893   6.150
 8569POPC   C1A53619  43.929  40.824   6.450
 8569POPC   D2A53620  43.921  40.804   6.750
 8569POPC   C3A53621  43.924  40.741   7.050
 8569POPC   C4A53622  43.891  40.805   7.350
 8569POPC   C1B53623  44.016  41.008   6.450
 8569POPC   C2B53624  43.950  41.066   6.750
 8569POPC   C3B53625  43.950  41.042   7.050
 8569POPC   C4B53626  43.945  41.017   7.350
 8570POPC   NC353627  43.870  28.414   5.550
 8570POPC   PO453628  43.894  28.352   5.850
 8570POPC   GL153629  43.859  28.389   6.150
 8570POPC   GL253630  43.750  28.291   6.150
 8570POPC   C1A53631  43.884  28.325   6.450
 8570POPC   D2A53632  43.901  28.398   6.750
 8570POPC   C3A53633  43.917  28.324   7.050
 8570POPC   C4A53634  43.900  28.329   7.350
 8570POPC   C1B53635  43.711  28.234   6.450
 8570POPC   C2B53636  43.706  28.210   6.750
 8570POPC   C3B53637  43.661  28.272   7.050
 8570POPC   C4B53638  43.641  28.241   7.350
 8571POPC   NC353639  34.543  40.025   5.550
 8571POPC   PO453640  34.533  40.020   5.850
 8571POPC   GL153641  34.618  40.055   6.150
 8571POPC   GL253642  34.560  39.913   6.150
 8571POPC   C1A53643  34.541  40.016   6.450
 8571POPC   D2A53644  34.528  39.988   6.750
 8571POPC   C3A53645  34.528  40.005   7.050
 8571POPC   C4A53646  34.557  40.016   7.350
 8571POPC   C1B53647  34.462  39.742   6.450
 8571POPC   C2B53648  34.464  39.821   6.750
 8571POPC   C3B53649  34.434  39.775   7.050
 8571POPC   C4B53650  34.471  39.781   7.350
 8572POPC   NC353651   6.660   2.815   5.550
 8572POPC   PO453652   6.636   2.780   5.850
 8572POPC   GL153653   6.642   2.749   6.150
 8572POPC   GL253654   6.637   2.611   6.150
 8572POPC   C1A53655   6.609   2.721   6.450
 8572POPC   D2A53656   6.651   2.806   6.750
 8572POPC   C3A53657   6.666   2.720   7.050
 8572POPC   C4A53658   6.646   2.740   7.350
 8572POPC   C1B53659   6.570   2.524   6.450
 8572POPC   C2B53660   6.518   2.534   6.750
 8572POPC   C3B53661   6.581   2.532   7.050
 8572POPC   C4B53662   6.560   2.547   7.350
 8573POPC   NC353663  29.884  27.617   5.550
 8573POPC   PO453664  29.878  27.578   5.850
 8573POPC   GL153665  29.892  27.553   6.150
 8573POPC   GL253666  29.934  27.742   6.150
 8573POPC   C1A53667  29.914  27.601   6.450
 8573POPC   D2A53668  29.944  27.578   6.750
 8573POPC   C3A53669  29.944  27.627   7.050
 8573POPC   C4A53670  29.875  27.562   7.350
 8573POPC   C1B53671  29.910  27.835   6.450
 8573POPC   C2B53672  29.894  27.852   6.750
 8573POPC   C3B53673  29.958  27.868   7.050
 8573POPC   C4B53674  29.908  27.884   7.350
 8574POPC   NC353675  40.735   8.214   5.550
 8574POPC   PO453676  40.776   8.213   5.850
 8574POPC   GL153677  40.784   8.182   6.150
 8574POPC   GL253678  40.861   8.227   6.150
 8574POPC   C1A53679  40.783   8.163   6.450
 8574POPC   D2A53680  40.778   8.191   6.750
 8574POPC   C3A53681  40.785   8.199   7.050
 8574POPC   C4A53682  40.756   8.220   7.350
 8574POPC   C1B53683  40.967   8.310   6.450
 8574POPC   C2B53684  40.973   8.321   6.750
 8574POPC   C3B53685  41.035   8.353   7.050
 8574POPC   C4B53686  41.000   8.375   7.350
 8575POPC   NC353687   0.434  37.727   5.550
 8575POPC   PO453688   0.441  37.669   5.850
 8575POPC   GL153689   0.486  37.728   6.150
 8575POPC   GL253690   0.508  37.618   6.150
 8575POPC   C1A53691   0.422  37.688   6.450
 8575POPC   D2A53692   0.388  37.683   6.750
 8575POPC   C3A53693   0.459  37.644   7.050
 8575POPC   C4A53694   0.428  37.711   7.350
 8575POPC   C1B53695   0.601  37.503   6.450
 8575POPC   C2B53696   0.596  37.460   6.750
 8575POPC   C3B53697   0.603  37.441   7.050
 8575POPC   C4B53698   0.576  37.489   7.350
 8576POPC   NC353699   7.373  27.631   5.550
 8576POPC   PO453700   7.431  27.589   5.850
 8576POPC   GL153701   7.455  27.642   6.150
 8576POPC   GL253702   7.348  27.710   6.150
 8576POPC   C1A53703   7.420  27.549   6.450
 8576POPC   D2A53704   7.434  27.551   6.750
 8576POPC   C3A53705   7.376  27.630   7.050
 8576POPC   C4A53706   7.384  27.638   7.350
 8576POPC   C1B53707   7.172  27.723   6.450
 8576POPC   C2B53708   7.223  27.708   6.750
 8576POPC   C3B53709   7.228  27.750   7.050
 8576POPC   C4B53710   7.218  27.685   7.350
 8577POPC   NC353711  15.133  40.038   5.550
 8577POPC   PO453712  15.220  40.005   5.850
 8577POPC   GL153713  15.148  40.055   6.150
 8577POPC   GL253714  15.183  39.923   6.150
 8577POPC   C1A53715  15.151  39.961   6.450
 8577POPC   D2A53716  15.151  40.029   6.750
 8577POPC   C3A53717  15.173  40.003   7.050
 8577POPC   C4A53718  15.174  39.961   7.350
 8577POPC   C1B53719  15.229  39.785   6.450
 8577POPC   C2B53720  15.242  39.732   6.750
 8577POPC   C3B53721  15.189  39.720   7.050
 8577POPC   C4B53722  15.282  39.805   7.350
 8578POPC   NC353723   9.764  29.928   5.550
 8578POPC   PO453724   9.758  29.924   5.850
 8578POPC   GL153725   9.767  29.923   6.150
 8578POPC   GL253726   9.832  29.871   6.150
 8578POPC   C1A53727   9.794  29.890   6.450
 8578POPC   D2A53728   9.748  29.898   6.750
 8578POPC   C3A53729   9.704  29.872   7.050
 8578POPC   C4A53730   9.738  29.958   7.350
 8578POPC   C1B53731  10.008  29.835   6.450
 8578POPC   C2B53732   9.961  29.802   6.750
 8578POPC   C3B53733   9.915  29.817   7.050
 8578POPC   C4B53734  10.002  29.811   7.350
 8579POPC   NC353735   2.022  36.893   5.550
 8579POPC   PO453736   2.032  36.940   5.850
 8579POPC   GL153737   2.022  36.889   6.150
 8579POPC   GL253738   1.860  36.788   6.150
 8579POPC   C1A53739   2.024  36.935   6.450
 8579POPC   D2A53740   2.026  36.891   6.750
 8579POPC   C3A53741   1.947  36.860   7.050
 8579POPC   C4A53742   2.033  36.939   7.350
 8579POPC   C1B53743   1.769  36.744   6.450
 8579POPC   C2B53744   1.843  36.729   6.750
 8579POPC   C3B53745   1.843  36.753   7.050
 8579POPC   C4B53746   1.793  36.712   7.350
 8580POPC   NC353747   5.858  15.193   5.550
 8580POPC   PO453748   5.915  15.202   5.850
 8580POPC   GL153749   5.905  15.164   6.150
 8580POPC   GL253750   5.921  15.063   6.150
 8580POPC   C1A53751   5.902  15.196   6.450
 8580POPC   D2A53752   5.883  15.170   6.750
 8580POPC   C3A53753   5.820  15.217   7.050
 8580POPC   C4A53754   5.858  15.164   7.350
 8580POPC   C1B53755   5.988  14.919   6.450
 8580POPC   C2B53756   5.928  14.928   6.750
 8580POPC   C3B53757   5.923  14.918   7.050
 8580POPC   C4B53758   5.984  14.952   7.350
 8581POPC   NC353759  23.687  37.678   5.550
 8581POPC   PO453760  23.708  37.697   5.850
 8581POPC   GL153761  23.762  37.648   6.150
 8581POPC   GL253762  23.638  37.738   6.150
 8581POPC   C1A53763  23.736  37.717   6.450
 8581POPC   D2A53764  23.729  37.714   6.750
 8581POPC   C3A53765  23.705  37.708   7.050
 8581POPC   C4A53766  23.679  37.674   7.350
 8581POPC   C1B53767  23.522  37.742   6.450
 8581POPC   C2B53768  23.459  37.794   6.750
 8581POPC   C3B53769  23.506  37.824   7.050
 8581POPC   C4B53770  23.520  37.764   7.350
 8582POPC   NC353771  27.565  32.984   5.550
 8582POPC   PO453772  27.592  33.068   5.850
 8582POPC   GL153773  27.614  32.987   6.150
 8582POPC   GL253774  27.656  32.933   6.150
 8582POPC   C1A53775  27.602  32.988   6.450
 8582POPC   D2A53776  27.594  32.977   6.750
 8582POPC   C3A53777  27.579  33.025   7.050
 8582POPC   C4A53778  27.590  33.050   7.350
 8582POPC   C1B53779  27.691  32.752   6.450
 8582POPC   C2B53780  27.668  32.745   6.750
 8582POPC   C3B53781  27.669  32.790   7.050
 8582POPC   C4B53782  27.634  32.759   7.350
 8583POPC   NC353783  26.091  18.265   5.550
 8583POPC   PO453784  26.002  18.248   5.850
 8583POPC   GL153785  26.064  18.249   6.150
 8583POPC   GL253786  25.955  18.327   6.150
 8583POPC   C1A53787  26.080  18.275   6.450
 8583POPC   D2A53788  26.053  18.243   6.750
 8583POPC   C3A53789  26.086  18.255   7.050
 8583POPC   C4A53790  26.061  18.265   7.350
 8583POPC   C1B53791  25.833  18.440   6.450
 8583POPC   C2B53792  25.883  18.450   6.750
 8583POPC   C3B53793  25.829  18.495   7.050
 8583POPC   C4B53794  25.914  18.430   7.350
 8584POPC   NC353795   5.824  30.670   5.550
 8584POPC   PO453796   5.905  30.681   5.850
 8584POPC   GL153797   5.891  30.724   6.150
 8584POPC   GL253798   5.946  30.791   6.150
 8584POPC   C1A53799   5.894  30.665   6.450
 8584POPC   D2A53800   5.884  30.717   6.750
 8584POPC   C3A53801   5.857  30.720   7.050
 8584POPC   C4A53802   5.844  30.700   7.350
 8584POPC   C1B53803   6.008  30.896   6.450
 8584POPC   C2B53804   5.985  30.939   6.750
 8584POPC   C3B53805   5.974  30.915   7.050
 8584POPC   C4B53806   6.015  30.888   7.350
 8585POPC   NC353807  44.703  21.435   5.550
 8585POPC   PO453808  44.616  21.415   5.850
 8585POPC   GL153809  44.711  21.339   6.150
 8585POPC   GL253810  44.510  21.324   6.150
 8585POPC   C1A53811  44.694  21.426   6.450
 8585POPC   D2A53812  44.662  21.362   6.750
 8585POPC   C3A53813  44.640  21.373   7.050
 8585POPC   C4A53814  44.675  21.356   7.350
 8585POPC   C1B53815  44.467  21.362   6.450
 8585POPC   C2B53816  44.440  21.323   6.750
 8585POPC   C3B53817  44.462  21.370   7.050
 8585POPC   C4B53818  44.375  21.306   7.350
 8586POPC   NC353819   7.390  11.313   5.550
 8586POPC   PO453820   7.371  11.331   5.850
 8586POPC   GL153821   7.455  11.340   6.150
 8586POPC   GL253822   7.541  11.176   6.150
 8586POPC   C1A53823   7.388  11.340   6.450
 8586POPC   D2A53824   7.454  11.301   6.750
 8586POPC   C3A53825   7.410  11.305   7.050
 8586POPC   C4A53826   7.396  11.276   7.350
 8586POPC   C1B53827   7.610  11.168   6.450
 8586POPC   C2B53828   7.590  11.165   6.750
 8586POPC   C3B53829   7.627  11.094   7.050
 8586POPC   C4B53830   7.573  11.083   7.350
 8587POPC   NC353831   1.201   5.083   5.550
 8587POPC   PO453832   1.207   5.092   5.850
 8587POPC   GL153833   1.186   5.064   6.150
 8587POPC   GL253834   1.292   5.136   6.150
 8587POPC   C1A53835   1.240   5.066   6.450
 8587POPC   D2A53836   1.213   5.093   6.750
 8587POPC   C3A53837   1.204   5.044   7.050
 8587POPC   C4A53838   1.242   5.137   7.350
 8587POPC   C1B53839   1.381   5.240   6.450
 8587POPC   C2B53840   1.340   5.297   6.750
 8587POPC   C3B53841   1.350   5.313   7.050
 8587POPC   C4B53842   1.389   5.299   7.350
 8588POPC   NC353843  12.857  33.840   5.550
 8588POPC   PO453844  12.888  33.761   5.850
 8588POPC   GL153845  12.880  33.825   6.150
 8588POPC   GL253846  12.756  33.908   6.150
 8588POPC   C1A53847  12.852  33.803   6.450
 8588POPC   D2A53848  12.857  33.800   6.750
 8588POPC   C3A53849  12.875  33.827   7.050
 8588POPC   C4A53850  12.900  33.797   7.350
 8588POPC   C1B53851  12.681  33.960   6.450
 8588POPC   C2B53852  12.702  34.033   6.750
 8588POPC   C3B53853  12.739  34.037   7.050
 8588POPC   C4B53854  12.707  33.986   7.350
 8589POPC   NC353855  38.473  24.444   5.550
 8589POPC   PO453856  38.480  24.447   5.850
 8589POPC   GL153857  38.495  24.511   6.150
 8589POPC   GL253858  38.361  24.592   6.150
 8589POPC   C1A53859  38.411  24.450   6.450
 8589POPC   D2A53860  38.409  24.525   6.750
 8589POPC   C3A53861  38.487  24.457   7.050
 8589POPC   C4A53862  38.478  24.489   7.350
 8589POPC   C1B53863  38.256  24.653   6.450
 8589POPC   C2B53864  38.291  24.699   6.750
 8589POPC   C3B53865  38.220  24.680   7.050
 8589POPC   C4B53866  38.308  24.683   7.350
 8590POPC   NC353867  35.394  38.422   5.550
 8590POPC   PO453868  35.353  38.451   5.850
 8590POPC   GL153869  35.355  38.411   6.150
 8590POPC   GL253870  35.282  38.338   6.150
 8590POPC   C1A53871  35.398  38.412   6.450
 8590POPC   D2A53872  35.366  38.437   6.750
 8590POPC   C3A53873  35.354  38.466   7.050
 8590POPC   C4A53874  35.307  38.460   7.350
 8590POPC   C1B53875  35.172  38.246   6.450
 8590POPC   C2B53876  35.115  38.261   6.750
 8590POPC   C3B53877  35.195  38.269   7.050
 8590POPC   C4B53878  35.198  38.256   7.350
 8591POPC   NC353879  20.589  41.522   5.550
 8591POPC   PO453880  20.601  41.517   5.850
 8591POPC   GL153881  20.594  41.528   6.150
 8591POPC   GL253882  20.710  41.493   6.150
 8591POPC   C1A53883  20.633  41.579   6.450
 8591POPC   D2A53884  20.617  41.608   6.750
 8591POPC   C3A53885  20.630  41.600   7.050
 8591POPC   C4A53886  20.622  41.607   7.350
 8591POPC   C1B53887  20.869  41.516   6.450
 8591POPC   C2B53888  20.905  41.500   6.750
 8591POPC   C3B53889  20.822  41.490   7.050
 8591POPC   C4B53890  20.878  41.503   7.350
 8592POPC   NC353891  12.885  27.584   5.550
 8592POPC   PO453892  12.886  27.551   5.850
 8592POPC   GL153893  12.814  27.640   6.150
 8592POPC   GL253894  12.923  27.581   6.150
 8592POPC   C1A53895  12.869  27.549   6.450
 8592POPC   D2A53896  12.850  27.578   6.750
 8592POPC   C3A53897  12.838  27.600   7.050
 8592POPC   C4A53898  12.873  27.551   7.350
 8592POPC   C1B53899  13.095  27.631   6.450
 8592POPC   C2B53900  13.137  27.644   6.750
 8592POPC   C3B53901  13.095  27.678   7.050
 8592POPC   C4B53902  13.121  27.633   7.350
 8593POPC   NC353903  29.193  31.457   5.550
 8593POPC   PO453904  29.156  31.515   5.850
 8593POPC   GL153905  29.177  31.424   6.150
 8593POPC   GL253906  29.233  31.347   6.150
 8593POPC   C1A53907  29.155  31.485   6.450
 8593POPC   D2A53908  29.183  31.461   6.750
 8593POPC   C3A53909  29.134  31.452   7.050
 8593POPC   C4A53910  29.124  31.510   7.350
 8593POPC   C1B53911  29.305  31.210   6.450
 8593POPC   C2B53912  29.219  31.218   6.750
 8593POPC   C3B53913  29.270  31.248   7.050
 8593POPC   C4B53914  29.279  31.255   7.350
 8594POPC   NC353915  33.023  44.630   5.550
 8594POPC   PO453916  33.025  44.698   5.850
 8594POPC   GL153917  33.067  44.653   6.150
 8594POPC   GL253918  32.999  44.730   6.150
 8594POPC   C1A53919  33.052  44.622   6.450
 8594POPC   D2A53920  32.978  44.660   6.750
 8594POPC   C3A53921  33.068  44.683   7.050
 8594POPC   C4A53922  33.029  44.626   7.350
 8594POPC   C1B53923  32.904  44.930   6.450
 8594POPC   C2B53924  32.873  44.859   6.750
 8594POPC   C3B53925  32.887  44.836   7.050
 8594POPC   C4B53926  32.899  44.930   7.350
 8595POPC   NC353927   4.295  22.964   5.550
 8595POPC   PO453928   4.307  22.904   5.850
 8595POPC   GL153929   4.323  22.969   6.150
 8595POPC   GL253930   4.330  23.043   6.150
 8595POPC   C1A53931   4.301  22.941   6.450
 8595POPC   D2A53932   4.309  22.977   6.750
 8595POPC   C3A53933   4.344  22.967   7.050
 8595POPC   C4A53934   4.282  22.910   7.350
 8595POPC   C1B53935   4.361  23.137   6.450
 8595POPC   C2B53936   4.373  23.210   6.750
 8595POPC   C3B53937   4.401  23.202   7.050
 8595POPC   C4B53938   4.420  23.198   7.350
 8596POPC   NC353939  41.553   8.981   5.550
 8596POPC   PO453940  41.522   9.021   5.850
 8596POPC   GL153941  41.567   9.015   6.150
 8596POPC   GL253942  41.723   8.923   6.150
 8596POPC   C1A53943  41.585   8.979   6.450
 8596POPC   D2A53944  41.535   9.003   6.750
 8596POPC   C3A53945  41.572   8.930   7.050
 8596POPC   C4A53946  41.606   8.975   7.350
 8596POPC   C1B53947  41.770   8.917   6.450
 8596POPC   C2B53948  41.790   8.887   6.750
 8596POPC   C3B53949  41.756   8.858   7.050
 8596POPC   C4B53950  41.768   8.861   7.350
 8597POPC   NC353951  37.684  33.068   5.550
 8597POPC   PO453952  37.672  32.994   5.850
 8597POPC   GL153953  37.672  33.021   6.150
 8597POPC   GL253954  37.820  33.061   6.150
 8597POPC   C1A53955  37.722  32.997   6.450
 8597POPC   D2A53956  37.716  32.981   6.750
 8597POPC   C3A53957  37.702  33.005   7.050
 8597POPC   C4A53958  37.675  33.069   7.350
 8597POPC   C1B53959  37.912  33.135   6.450
 8597POPC   C2B53960  37.931  33.179   6.750
 8597POPC   C3B53961  37.857  33.152   7.050
 8597POPC   C4B53962  37.890  33.114   7.350
 8598POPC   NC353963  41.515  19.831   5.550
 8598POPC   PO453964  41.522  19.786   5.850
 8598POPC   GL153965  41.520  19.804   6.150
 8598POPC   GL253966  41.697  19.761   6.150
 8598POPC   C1A53967  41.545  19.824   6.450
 8598POPC   D2A53968  41.524  19.860   6.750
 8598POPC   C3A53969  41.574  19.855   7.050
 8598POPC   C4A53970  41.535  19.883   7.350
 8598POPC   C1B53971  41.812  19.724   6.450
 8598POPC   C2B53972  41.734  19.761   6.750
 8598POPC   C3B53973  41.810  19.705   7.050
 8598POPC   C4B53974  41.807  19.731   7.350
 8599POPC   NC353975  32.223   9.796   5.550
 8599POPC   PO453976  32.285   9.718   5.850
 8599POPC   GL153977  32.247   9.778   6.150
 8599POPC   GL253978  32.244   9.633   6.150
 8599POPC   C1A53979  32.292   9.725   6.450
 8599POPC   D2A53980  32.290   9.752   6.750
 8599POPC   C3A53981  32.238   9.736   7.050
 8599POPC   C4A53982  32.257   9.746   7.350
 8599POPC   C1B53983  32.361   9.476   6.450
 8599POPC   C2B53984  32.303   9.514   6.750
 8599POPC   C3B53985  32.304   9.521   7.050
 8599POPC   C4B53986  32.331   9.514   7.350
 8600POPC   NC353987  11.298  30.734   5.550
 8600POPC   PO453988  11.301  30.682   5.850
 8600POPC   GL153989  11.303  30.710   6.150
 8600POPC   GL253990  11.219  30.597   6.150
 8600POPC   C1A53991  11.336  30.654   6.450
 8600POPC   D2A53992  11.284  30.688   6.750
 8600POPC   C3A53993  11.305  30.719   7.050
 8600POPC   C4A53994  11.333  30.721   7.350
 8600POPC   C1B53995  11.122  30.508   6.450
 8600POPC   C2B53996  11.112  30.486   6.750
 8600POPC   C3B53997  11.132  30.491   7.050
 8600POPC   C4B53998  11.109  30.488   7.350
 8601POPC   NC353999  16.769   3.541   5.550
 8601POPC   PO454000  16.751   3.492   5.850
 8601POPC   GL154001  16.696   3.526   6.150
 8601POPC   GL254002  16.825   3.512   6.150
 8601POPC   C1A54003  16.724   3.546   6.450
 8601POPC   D2A54004  16.712   3.549   6.750
 8601POPC   C3A54005  16.701   3.525   7.050
 8601POPC   C4A54006  16.758   3.545   7.350
 8601POPC   C1B54007  16.975   3.409   6.450
 8601POPC   C2B54008  16.909   3.417   6.750
 8601POPC   C3B54009  16.979   3.366   7.050
 8601POPC   C4B54010  16.948   3.423   7.350
 8602POPC   NC354011   2.811  34.583   5.550
 8602POPC   PO454012   2.762  34.527   5.850
 8602POPC   GL154013   2.774  34.590   6.150
 8602POPC   GL254014   2.868  34.546   6.150
 8602POPC   C1A54015   2.740  34.546   6.450
 8602POPC   D2A54016   2.724  34.534   6.750
 8602POPC   C3A54017   2.796  34.609   7.050
 8602POPC   C4A54018   2.813  34.541   7.350
 8602POPC   C1B54019   3.009  34.502   6.450
 8602POPC   C2B54020   2.972  34.488   6.750
 8602POPC   C3B54021   3.039  34.432   7.050
 8602POPC   C4B54022   2.952  34.444   7.350
 8603POPC   NC354023  43.079  29.876   5.550
 8603POPC   PO454024  43.135  29.902   5.850
 8603POPC   GL154025  43.066  29.941   6.150
 8603POPC   GL254026  43.267  30.009   6.150
 8603POPC   C1A54027  43.127  29.906   6.450
 8603POPC   D2A54028  43.147  29.938   6.750
 8603POPC   C3A54029  43.134  29.920   7.050
 8603POPC   C4A54030  43.112  29.956   7.350
 8603POPC   C1B54031  43.278  30.066   6.450
 8603POPC   C2B54032  43.354  30.061   6.750
 8603POPC   C3B54033  43.360  30.083   7.050
 8603POPC   C4B54034  43.282  30.028   7.350
 8604POPC   NC354035   2.007   6.621   5.550
 8604POPC   PO454036   1.998   6.670   5.850
 8604POPC   GL154037   1.990   6.640   6.150
 8604POPC   GL254038   1.952   6.541   6.150
 8604POPC   C1A54039   1.942   6.620   6.450
 8604POPC   D2A54040   1.991   6.637   6.750
 8604POPC   C3A54041   2.030   6.652   7.050
 8604POPC   C4A54042   2.033   6.681   7.350
 8604POPC   C1B54043   1.893   6.466   6.450
 8604POPC   C2B54044   1.887   6.398   6.750
 8604POPC   C3B54045   1.854   6.458   7.050
 8604POPC   C4B54046   1.877   6.485   7.350
 8605POPC   NC354047  28.329   6.677   5.550
 8605POPC   PO454048  28.351   6.600   5.850
 8605POPC   GL154049  28.327   6.647   6.150
 8605POPC   GL254050  28.421   6.560   6.150
 8605POPC   C1A54051  28.357   6.618   6.450
 8605POPC   D2A54052  28.398   6.656   6.750
 8605POPC   C3A54053  28.342   6.596   7.050
 8605POPC   C4A54054  28.388   6.681   7.350
 8605POPC   C1B54055  28.484   6.394   6.450
 8605POPC   C2B54056  28.550   6.481   6.750
 8605POPC   C3B54057  28.479   6.433   7.050
 8605POPC   C4B54058  28.472   6.394   7.350
 8606POPC   NC354059  41.517  43.854   5.550
 8606POPC   PO454060  41.571  43.917   5.850
 8606POPC   GL154061  41.604  43.929   6.150
 8606POPC   GL254062  41.464  43.911   6.150
 8606POPC   C1A54063  41.539  43.927   6.450
 8606POPC   D2A54064  41.531  43.908   6.750
 8606POPC   C3A54065  41.520  43.866   7.050
 8606POPC   C4A54066  41.555  43.890   7.350
 8606POPC   C1B54067  41.291  43.946   6.450
 8606POPC   C2B54068  41.288  43.889   6.750
 8606POPC   C3B54069  41.295  43.929   7.050
 8606POPC   C4B54070  41.287  43.936   7.350
 8607POPC   NC354071  27.639   8.174   5.550
 8607POPC   PO454072  27.625   8.224   5.850
 8607POPC   GL154073  27.585   8.222   6.150
 8607POPC   GL254074  27.696   8.241   6.150
 8607POPC   C1A54075  27.552   8.177   6.450
 8607POPC   D2A54076  27.546   8.216   6.750
 8607POPC   C3A54077  27.600   8.184   7.050
 8607POPC   C4A54078  27.636   8.208   7.350
 8607POPC   C1B54079  27.869   8.192   6.450
 8607POPC   C2B54080  27.856   8.221   6.750
 8607POPC   C3B54081  27.809   8.158   7.050
 8607POPC   C4B54082  27.853   8.169   7.350
 8608POPC   NC354083  22.150   3.571   5.550
 8608POPC   PO454084  22.132   3.540   5.850
 8608POPC   GL154085  22.138   3.571   6.150
 8608POPC   GL254086  22.141   3.461   6.150
 8608POPC   C1A54087  22.202   3.493   6.450
 8608POPC   D2A54088  22.117   3.540   6.750
 8608POPC   C3A54089  22.133   3.571   7.050
 8608POPC   C4A54090  22.184   3.532   7.350
 8608POPC   C1B54091  22.111   3.327   6.450
 8608POPC   C2B54092  22.150   3.282   6.750
 8608POPC   C3B54093  22.190   3.293   7.050
 8608POPC   C4B54094  22.170   3.305   7.350
 8609POPC   NC354095  29.136  27.634   5.550
 8609POPC   PO454096  29.183  27.626   5.850
 8609POPC   GL154097  29.187  27.594   6.150
 8609POPC   GL254098  29.052  27.719   6.150
 8609POPC   C1A54099  29.152  27.562   6.450
 8609POPC   D2A54100  29.157  27.614   6.750
 8609POPC   C3A54101  29.135  27.568   7.050
 8609POPC   C4A54102  29.096  27.614   7.350
 8609POPC   C1B54103  28.999  27.816   6.450
 8609POPC   C2B54104  29.089  27.814   6.750
 8609POPC   C3B54105  29.032  27.812   7.050
 8609POPC   C4B54106  29.078  27.846   7.350
 8610POPC   NC354107  35.315  16.696   5.550
 8610POPC   PO454108  35.329  16.693   5.850
 8610POPC   GL154109  35.346  16.703   6.150
 8610POPC   GL254110  35.415  16.680   6.150
 8610POPC   C1A54111  35.390  16.765   6.450
 8610POPC   D2A54112  35.360  16.700   6.750
 8610POPC   C3A54113  35.398  16.723   7.050
 8610POPC   C4A54114  35.359  16.764   7.350
 8610POPC   C1B54115  35.538  16.573   6.450
 8610POPC   C2B54116  35.498  16.524   6.750
 8610POPC   C3B54117  35.554  16.580   7.050
 8610POPC   C4B54118  35.541  16.590   7.350
 8611POPC   NC354119  15.909  22.902   5.550
 8611POPC   PO454120  15.962  22.932   5.850
 8611POPC   GL154121  15.964  22.957   6.150
 8611POPC   GL254122  16.021  23.019   6.150
 8611POPC   C1A54123  15.909  22.953   6.450
 8611POPC   D2A54124  15.918  22.922   6.750
 8611POPC   C3A54125  15.946  22.970   7.050
 8611POPC   C4A54126  15.959  22.981   7.350
 8611POPC   C1B54127  16.065  23.153   6.450
 8611POPC   C2B54128  15.983  23.136   6.750
 8611POPC   C3B54129  16.050  23.145   7.050
 8611POPC   C4B54130  15.975  23.153   7.350
 8612POPC   NC354131  39.226  31.513   5.550
 8612POPC   PO454132  39.274  31.487   5.850
 8612POPC   GL154133  39.273  31.512   6.150
 8612POPC   GL254134  39.384  31.519   6.150
 8612POPC   C1A54135  39.205  31.474   6.450
 8612POPC   D2A54136  39.267  31.442   6.750
 8612POPC   C3A54137  39.241  31.498   7.050
 8612POPC   C4A54138  39.256  31.422   7.350
 8612POPC   C1B54139  39.454  31.589   6.450
 8612POPC   C2B54140  39.416  31.553   6.750
 8612POPC   C3B54141  39.479  31.548   7.050
 8612POPC   C4B54142  39.507  31.619   7.350
 8613POPC   NC354143   6.658  34.585   5.550
 8613POPC   PO454144   6.626  34.588   5.850
 8613POPC   GL154145   6.614  34.575   6.150
 8613POPC   GL254146   6.787  34.589   6.150
 8613POPC   C1A54147   6.596  34.531   6.450
 8613POPC   D2A54148   6.630  34.593   6.750
 8613POPC   C3A54149   6.688  34.533   7.050
 8613POPC   C4A54150   6.664  34.609   7.350
 8613POPC   C1B54151   6.848  34.580   6.450
 8613POPC   C2B54152   6.878  34.614   6.750
 8613POPC   C3B54153   6.860  34.612   7.050
 8613POPC   C4B54154   6.904  34.588   7.350
 8614POPC   NC354155  29.143   1.172   5.550
 8614POPC   PO454156  29.098   1.215   5.850
 8614POPC   GL154157  29.099   1.186   6.150
 8614POPC   GL254158  29.254   1.128   6.150
 8614POPC   C1A54159  29.116   1.245   6.450
 8614POPC   D2A54160  29.181   1.192   6.750
 8614POPC   C3A54161  29.117   1.175   7.050
 8614POPC   C4A54162  29.101   1.233   7.350
 8614POPC   C1B54163  29.329   1.056   6.450
 8614POPC   C2B54164  29.336   1.109   6.750
 8614POPC   C3B54165  29.402   1.134   7.050
 8614POPC   C4B54166  29.405   1.101   7.350
 8615POPC   NC354167  28.355  19.059   5.550
 8615POPC   PO454168  28.404  19.058   5.850
 8615POPC   GL154169  28.320  19.066   6.150
 8615POPC   GL254170  28.341  18.970   6.150
 8615POPC   C1A54171  28.410  19.051   6.450
 8615POPC   D2A54172  28.397  19.101   6.750
 8615POPC   C3A54173  28.325  19.086   7.050
 8615POPC   C4A54174  28.363  19.074   7.350
 8615POPC   C1B54175  28.193  18.800   6.450
 8615POPC   C2B54176  28.223  18.837   6.750
 8615POPC   C3B54177  28.239  18.845   7.050
 8615POPC   C4B54178  28.191  18.818   7.350
 8616POPC   NC354179  15.193  34.585   5.550
 8616POPC   PO454180  15.161  34.580   5.850
 8616POPC   GL154181  15.200  34.567   6.150
 8616POPC   GL254182  15.299  34.520   6.150
 8616POPC   C1A54183  15.150  34.611   6.450
 8616POPC   D2A54184  15.212  34.616   6.750
 8616POPC   C3A54185  15.212  34.569   7.050
 8616POPC   C4A54186  15.161  34.615   7.350
 8616POPC   C1B54187  15.437  34.396   6.450
 8616POPC   C2B54188  15.439  34.461   6.750
 8616POPC   C3B54189  15.403  34.438   7.050
 8616POPC   C4B54190  15.391  34.486   7.350
 8617POPC   NC354191  21.390  19.034   5.550
 8617POPC   PO454192  21.394  19.049   5.850
 8617POPC   GL154193  21.434  19.095   6.150
 8617POPC   GL254194  21.495  18.953   6.150
 8617POPC   C1A54195  21.362  19.027   6.450
 8617POPC   D2A54196  21.432  19.063   6.750
 8617POPC   C3A54197  21.397  19.028   7.050
 8617POPC   C4A54198  21.357  19.064   7.350
 8617POPC   C1B54199  21.620  18.917   6.450
 8617POPC   C2B54200  21.579  18.962   6.750
 8617POPC   C3B54201  21.554  18.958   7.050
 8617POPC   C4B54202  21.611  18.898   7.350
 8618POPC   NC354203  42.357  22.974   5.550
 8618POPC   PO454204  42.339  22.924   5.850
 8618POPC   GL154205  42.362  22.888   6.150
 8618POPC   GL254206  42.260  23.065   6.150
 8618POPC   C1A54207  42.365  22.924   6.450
 8618POPC   D2A54208  42.366  22.927   6.750
 8618POPC   C3A54209  42.376  22.935   7.050
 8618POPC   C4A54210  42.371  22.944   7.350
 8618POPC   C1B54211  42.273  23.175   6.450
 8618POPC   C2B54212  42.206  23.209   6.750
 8618POPC   C3B54213  42.249  23.205   7.050
 8618POPC   C4B54214  42.231  23.193   7.350
 8619POPC   NC354215  15.907  32.251   5.550
 8619POPC   PO454216  15.989  32.205   5.850
 8619POPC   GL154217  15.930  32.274   6.150
 8619POPC   GL254218  15.977  32.171   6.150
 8619POPC   C1A54219  15.949  32.266   6.450
 8619POPC   D2A54220  15.928  32.277   6.750
 8619POPC   C3A54221  15.968  32.283   7.050
 8619POPC   C4A54222  15.934  32.222   7.350
 8619POPC   C1B54223  15.961  32.045   6.450
 8619POPC   C2B54224  15.937  32.029   6.750
 8619POPC   C3B54225  15.937  32.044   7.050
 8619POPC   C4B54226  15.958  31.979   7.350
 8620POPC   NC354227  14.371  17.505   5.550
 8620POPC   PO454228  14.396  17.472   5.850
 8620POPC   GL154229  14.431  17.553   6.150
 8620POPC   GL254230  14.275  17.484   6.150
 8620POPC   C1A54231  14.437  17.533   6.450
 8620POPC   D2A54232  14.389  17.512   6.750
 8620POPC   C3A54233  14.362  17.520   7.050
 8620POPC   C4A54234  14.411  17.547   7.350
 8620POPC   C1B54235  14.162  17.522   6.450
 8620POPC   C2B54236  14.128  17.457   6.750
 8620POPC   C3B54237  14.107  17.461   7.050
 8620POPC   C4B54238  14.135  17.507   7.350
 8621POPC   NC354239   1.964   2.023   5.550
 8621POPC   PO454240   1.977   2.019   5.850
 8621POPC   GL154241   2.017   1.986   6.150
 8621POPC   GL254242   2.022   2.111   6.150
 8621POPC   C1A54243   1.944   1.978   6.450
 8621POPC   D2A54244   2.034   2.038   6.750
 8621POPC   C3A54245   1.946   2.013   7.050
 8621POPC   C4A54246   1.943   1.942   7.350
 8621POPC   C1B54247   2.121   2.213   6.450
 8621POPC   C2B54248   2.129   2.181   6.750
 8621POPC   C3B54249   2.113   2.255   7.050
 8621POPC   C4B54250   2.075   2.169   7.350
 8622POPC   NC354251  37.679  22.985   5.550
 8622POPC   PO454252  37.643  22.967   5.850
 8622POPC   GL154253  37.680  22.935   6.150
 8622POPC   GL254254  37.632  23.033   6.150
 8622POPC   C1A54255  37.640  22.925   6.450
 8622POPC   D2A54256  37.684  22.961   6.750
 8622POPC   C3A54257  37.660  22.942   7.050
 8622POPC   C4A54258  37.657  22.926   7.350
 8622POPC   C1B54259  37.697  23.151   6.450
 8622POPC   C2B54260  37.637  23.172   6.750
 8622POPC   C3B54261  37.620  23.229   7.050
 8622POPC   C4B54262  37.675  23.181   7.350
 8623POPC   NC354263  21.343  29.943   5.550
 8623POPC   PO454264  21.372  29.878   5.850
 8623POPC   GL154265  21.420  29.917   6.150
 8623POPC   GL254266  21.259  30.009   6.150
 8623POPC   C1A54267  21.407  29.919   6.450
 8623POPC   D2A54268  21.345  29.918   6.750
 8623POPC   C3A54269  21.365  29.952   7.050
 8623POPC   C4A54270  21.380  29.898   7.350
 8623POPC   C1B54271  21.265  30.125   6.450
 8623POPC   C2B54272  21.211  30.154   6.750
 8623POPC   C3B54273  21.194  30.066   7.050
 8623POPC   C4B54274  21.192  30.129   7.350
 8624POPC   NC354275  27.595   9.731   5.550
 8624POPC   PO454276  27.622   9.772   5.850
 8624POPC   GL154277  27.638   9.707   6.150
 8624POPC   GL254278  27.463   9.799   6.150
 8624POPC   C1A54279  27.554   9.753   6.450
 8624POPC   D2A54280  27.602   9.788   6.750
 8624POPC   C3A54281  27.587   9.718   7.050
 8624POPC   C4A54282  27.587   9.779   7.350
 8624POPC   C1B54283  27.473   9.895   6.450
 8624POPC   C2B54284  27.449   9.982   6.750
 8624POPC   C3B54285  27.459   9.938   7.050
 8624POPC   C4B54286  27.473   9.894   7.350
 8625POPC   NC354287  17.526  10.515   5.550
 8625POPC   PO454288  17.536  10.504   5.850
 8625POPC   GL154289  17.527  10.501   6.150
 8625POPC   GL254290  17.453  10.668   6.150
 8625POPC   C1A54291  17.463  10.480   6.450
 8625POPC   D2A54292  17.546  10.552   6.750
 8625POPC   C3A54293  17.493  10.542   7.050
 8625POPC   C4A54294  17.550  10.564   7.350
 8625POPC   C1B54295  17.522  10.802   6.450
 8625POPC   C2B54296  17.522  10.776   6.750
 8625POPC   C3B54297  17.443  10.802   7.050
 8625POPC   C4B54298  17.516  10.722   7.350
 8626POPC   NC354299  27.596  10.561   5.550
 8626POPC   PO454300  27.566  10.508   5.850
 8626POPC   GL154301  27.558  10.480   6.150
 8626POPC   GL254302  27.610  10.617   6.150
 8626POPC   C1A54303  27.612  10.532   6.450
 8626POPC   D2A54304  27.613  10.483   6.750
 8626POPC   C3A54305  27.631  10.547   7.050
 8626POPC   C4A54306  27.582  10.498   7.350
 8626POPC   C1B54307  27.749  10.790   6.450
 8626POPC   C2B54308  27.707  10.718   6.750
 8626POPC   C3B54309  27.673  10.780   7.050
 8626POPC   C4B54310  27.710  10.736   7.350
 8627POPC   NC354311  36.870  28.336   5.550
 8627POPC   PO454312  36.949  28.409   5.850
 8627POPC   GL154313  36.859  28.352   6.150
 8627POPC   GL254314  36.997  28.398   6.150
 8627POPC   C1A54315  36.925  28.370   6.450
 8627POPC   D2A54316  36.876  28.408   6.750
 8627POPC   C3A54317  36.861  28.377   7.050
 8627POPC   C4A54318  36.934  28.415   7.350
 8627POPC   C1B54319  37.150  28.405   6.450
 8627POPC   C2B54320  37.197  28.366   6.750
 8627POPC   C3B54321  37.160  28.387   7.050
 8627POPC   C4B54322  37.113  28.394   7.350
 8628POPC   NC354323   5.835  13.641   5.550
 8628POPC   PO454324   5.879  13.602   5.850
 8628POPC   GL154325   5.884  13.621   6.150
 8628POPC   GL254326   5.982  13.581   6.150
 8628POPC   C1A54327   5.833  13.615   6.450
 8628POPC   D2A54328   5.833  13.616   6.750
 8628POPC   C3A54329   5.900  13.664   7.050
 8628POPC   C4A54330   5.826  13.653   7.350
 8628POPC   C1B54331   6.074  13.565   6.450
 8628POPC   C2B54332   6.058  13.570   6.750
 8628POPC   C3B54333   6.100  13.509   7.050
 8628POPC   C4B54334   6.129  13.541   7.350
 8629POPC   NC354335  39.243  19.062   5.550
 8629POPC   PO454336  39.229  19.020   5.850
 8629POPC   GL154337  39.202  19.102   6.150
 8629POPC   GL254338  39.073  19.043   6.150
 8629POPC   C1A54339  39.276  19.048   6.450
 8629POPC   D2A54340  39.262  19.101   6.750
 8629POPC   C3A54341  39.255  19.074   7.050
 8629POPC   C4A54342  39.215  19.061   7.350
 8629POPC   C1B54343  38.989  19.039   6.450
 8629POPC   C2B54344  39.004  19.099   6.750
 8629POPC   C3B54345  39.017  19.053   7.050
 8629POPC   C4B54346  38.994  19.084   7.350
 8630POPC   NC354347   9.003   1.956   5.550
 8630POPC   PO454348   8.924   1.952   5.850
 8630POPC   GL154349   8.973   2.024   6.150
 8630POPC   GL254350   9.056   1.881   6.150
 8630POPC   C1A54351   8.982   1.948   6.450
 8630POPC   D2A54352   8.987   2.025   6.750
 8630POPC   C3A54353   9.005   2.026   7.050
 8630POPC   C4A54354   8.985   2.010   7.350
 8630POPC   C1B54355   9.156   1.780   6.450
 8630POPC   C2B54356   9.088   1.788   6.750
 8630POPC   C3B54357   9.107   1.794   7.050
 8630POPC   C4B54358   9.103   1.802   7.350
 8631POPC   NC354359  15.935  11.261   5.550
 8631POPC   PO454360  15.984  11.317   5.850
 8631POPC   GL154361  15.934  11.292   6.150
 8631POPC   GL254362  15.856  11.350   6.150
 8631POPC   C1A54363  15.943  11.304   6.450
 8631POPC   D2A54364  15.998  11.346   6.750
 8631POPC   C3A54365  15.991  11.334   7.050
 8631POPC   C4A54366  15.918  11.337   7.350
 8631POPC   C1B54367  15.818  11.503   6.450
 8631POPC   C2B54368  15.826  11.437   6.750
 8631POPC   C3B54369  15.748  11.461   7.050
 8631POPC   C4B54370  15.749  11.491   7.350
 8632POPC   NC354371   3.586  22.895   5.550
 8632POPC   PO454372   3.512  22.940   5.850
 8632POPC   GL154373   3.501  22.890   6.150
 8632POPC   GL254374   3.481  22.825   6.150
 8632POPC   C1A54375   3.538  22.955   6.450
 8632POPC   D2A54376   3.540  22.943   6.750
 8632POPC   C3A54377   3.551  22.919   7.050
 8632POPC   C4A54378   3.567  22.899   7.350
 8632POPC   C1B54379   3.531  22.655   6.450
 8632POPC   C2B54380   3.492  22.736   6.750
 8632POPC   C3B54381   3.513  22.664   7.050
 8632POPC   C4B54382   3.508  22.680   7.350
 8633POPC   NC354383  41.523  19.102   5.550
 8633POPC   PO454384  41.548  19.037   5.850
 8633POPC   GL154385  41.604  19.034   6.150
 8633POPC   GL254386  41.673  19.000   6.150
 8633POPC   C1A54387  41.590  19.060   6.450
 8633POPC   D2A54388  41.556  19.034   6.750
 8633POPC   C3A54389  41.509  19.083   7.050
 8633POPC   C4A54390  41.554  19.099   7.350
 8633POPC   C1B54391  41.792  18.991   6.450
 8633POPC   C2B54392  41.835  19.029   6.750
 8633POPC   C3B54393  41.840  18.953   7.050
 8633POPC   C4B54394  41.774  19.016   7.350
 8634POPC   NC354395  26.826  19.871   5.550
 8634POPC   PO454396  26.806  19.847   5.850
 8634POPC   GL154397  26.819  19.786   6.150
 8634POPC   GL254398  26.805  19.744   6.150
 8634POPC   C1A54399  26.832  19.881   6.450
 8634POPC   D2A54400  26.849  19.875   6.750
 8634POPC   C3A54401  26.770  19.791   7.050
 8634POPC   C4A54402  26.783  19.884   7.350
 8634POPC   C1B54403  26.739  19.629   6.450
 8634POPC   C2B54404  26.730  19.639   6.750
 8634POPC   C3B54405  26.710  19.595   7.050
 8634POPC   C4B54406  26.774  19.630   7.350
 8635POPC   NC354407  16.716  26.040   5.550
 8635POPC   PO454408  16.685  26.042   5.850
 8635POPC   GL154409  16.718  25.994   6.150
 8635POPC   GL254410  16.750  25.908   6.150
 8635POPC   C1A54411  16.742  26.068   6.450
 8635POPC   D2A54412  16.705  26.049   6.750
 8635POPC   C3A54413  16.761  26.008   7.050
 8635POPC   C4A54414  16.722  26.025   7.350
 8635POPC   C1B54415  16.803  25.786   6.450
 8635POPC   C2B54416  16.853  25.785   6.750
 8635POPC   C3B54417  16.776  25.824   7.050
 8635POPC   C4B54418  16.779  25.786   7.350
 8636POPC   NC354419  25.217  36.940   5.550
 8636POPC   PO454420  25.314  36.928   5.850
 8636POPC   GL154421  25.238  36.924   6.150
 8636POPC   GL254422  25.228  37.020   6.150
 8636POPC   C1A54423  25.295  36.861   6.450
 8636POPC   D2A54424  25.285  36.878   6.750
 8636POPC   C3A54425  25.266  36.913   7.050
 8636POPC   C4A54426  25.243  36.868   7.350
 8636POPC   C1B54427  25.212  37.127   6.450
 8636POPC   C2B54428  25.218  37.144   6.750
 8636POPC   C3B54429  25.228  37.113   7.050
 8636POPC   C4B54430  25.232  37.122   7.350
 8637POPC   NC354431  22.929  26.024   5.550
 8637POPC   PO454432  22.969  26.017   5.850
 8637POPC   GL154433  22.953  26.038   6.150
 8637POPC   GL254434  23.062  25.981   6.150
 8637POPC   C1A54435  22.946  26.022   6.450
 8637POPC   D2A54436  22.899  26.040   6.750
 8637POPC   C3A54437  22.930  26.003   7.050
 8637POPC   C4A54438  22.968  26.021   7.350
 8637POPC   C1B54439  23.155  25.955   6.450
 8637POPC   C2B54440  23.107  25.949   6.750
 8637POPC   C3B54441  23.194  25.888   7.050
 8637POPC   C4B54442  23.147  25.901   7.350
 8638POPC   NC354443  12.084   8.929   5.550
 8638POPC   PO454444  12.125   8.948   5.850
 8638POPC   GL154445  12.126   8.970   6.150
 8638POPC   GL254446  11.975   8.949   6.150
 8638POPC   C1A54447  12.039   8.924   6.450
 8638POPC   D2A54448  12.072   8.968   6.750
 8638POPC   C3A54449  12.093   8.985   7.050
 8638POPC   C4A54450  12.028   8.939   7.350
 8638POPC   C1B54451  11.804   8.987   6.450
 8638POPC   C2B54452  11.822   8.982   6.750
 8638POPC   C3B54453  11.796   8.981   7.050
 8638POPC   C4B54454  11.818   9.040   7.350
 8639POPC   NC354455  14.435  40.056   5.550
 8639POPC   PO454456  14.356  40.016   5.850
 8639POPC   GL154457  14.376  39.994   6.150
 8639POPC   GL254458  14.346  40.091   6.150
 8639POPC   C1A54459  14.375  40.020   6.450
 8639POPC   D2A54460  14.395  40.054   6.750
 8639POPC   C3A54461  14.412  40.001   7.050
 8639POPC   C4A54462  14.391  39.969   7.350
 8639POPC   C1B54463  14.208  40.162   6.450
 8639POPC   C2B54464  14.210  40.120   6.750
 8639POPC   C3B54465  14.232  40.132   7.050
 8639POPC   C4B54466  14.212  40.215   7.350
 8640POPC   NC354467  38.440  20.617   5.550
 8640POPC   PO454468  38.434  20.657   5.850
 8640POPC   GL154469  38.429  20.561   6.150
 8640POPC   GL254470  38.401  20.511   6.150
 8640POPC   C1A54471  38.460  20.621   6.450
 8640POPC   D2A54472  38.444  20.563   6.750
 8640POPC   C3A54473  38.492  20.607   7.050
 8640POPC   C4A54474  38.475  20.653   7.350
 8640POPC   C1B54475  38.330  20.383   6.450
 8640POPC   C2B54476  38.270  20.466   6.750
 8640POPC   C3B54477  38.282  20.464   7.050
 8640POPC   C4B54478  38.286  20.431   7.350
 8641POPC   NC354479  27.582  11.322   5.550
 8641POPC   PO454480  27.613  11.261   5.850
 8641POPC   GL154481  27.571  11.316   6.150
 8641POPC   GL254482  27.669  11.419   6.150
 8641POPC   C1A54483  27.611  11.285   6.450
 8641POPC   D2A54484  27.591  11.261   6.750
 8641POPC   C3A54485  27.555  11.301   7.050
 8641POPC   C4A54486  27.583  11.264   7.350
 8641POPC   C1B54487  27.643  11.584   6.450
 8641POPC   C2B54488  27.716  11.549   6.750
 8641POPC   C3B54489  27.627  11.580   7.050
 8641POPC   C4B54490  27.673  11.506   7.350
 8642POPC   NC354491  39.223  13.594   5.550
 8642POPC   PO454492  39.222  13.652   5.850
 8642POPC   GL154493  39.211  13.650   6.150
 8642POPC   GL254494  39.369  13.733   6.150
 8642POPC   C1A54495  39.247  13.637   6.450
 8642POPC   D2A54496  39.264  13.584   6.750
 8642POPC   C3A54497  39.244  13.632   7.050
 8642POPC   C4A54498  39.264  13.580   7.350
 8642POPC   C1B54499  39.481  13.783   6.450
 8642POPC   C2B54500  39.415  13.791   6.750
 8642POPC   C3B54501  39.477  13.748   7.050
 8642POPC   C4B54502  39.448  13.740   7.350
 8643POPC   NC354503  39.958  19.825   5.550
 8643POPC   PO454504  40.015  19.826   5.850
 8643POPC   GL154505  40.023  19.855   6.150
 8643POPC   GL254506  39.921  19.843   6.150
 8643POPC   C1A54507  40.042  19.836   6.450
 8643POPC   D2A54508  40.054  19.880   6.750
 8643POPC   C3A54509  40.043  19.832   7.050
 8643POPC   C4A54510  40.042  19.790   7.350
 8643POPC   C1B54511  39.718  19.808   6.450
 8643POPC   C2B54512  39.761  19.852   6.750
 8643POPC   C3B54513  39.792  19.801   7.050
 8643POPC   C4B54514  39.720  19.785   7.350
 8644POPC   NC354515  21.375  13.583   5.550
 8644POPC   PO454516  21.384  13.626   5.850
 8644POPC   GL154517  21.394  13.592   6.150
 8644POPC   GL254518  21.342  13.753   6.150
 8644POPC   C1A54519  21.352  13.581   6.450
 8644POPC   D2A54520  21.351  13.651   6.750
 8644POPC   C3A54521  21.436  13.664   7.050
 8644POPC   C4A54522  21.404  13.641   7.350
 8644POPC   C1B54523  21.343  13.922   6.450
 8644POPC   C2B54524  21.388  13.840   6.750
 8644POPC   C3B54525  21.379  13.838   7.050
 8644POPC   C4B54526  21.326  13.863   7.350
 8645POPC   NC354527  29.940   7.457   5.550
 8645POPC   PO454528  29.914   7.434   5.850
 8645POPC   GL154529  29.922   7.402   6.150
 8645POPC   GL254530  29.885   7.563   6.150
 8645POPC   C1A54531  29.909   7.449   6.450
 8645POPC   D2A54532  29.904   7.426   6.750
 8645POPC   C3A54533  29.872   7.419   7.050
 8645POPC   C4A54534  29.915   7.419   7.350
 8645POPC   C1B54535  29.922   7.690   6.450
 8645POPC   C2B54536  29.919   7.639   6.750
 8645POPC   C3B54537  29.860   7.696   7.050
 8645POPC   C4B54538  29.905   7.667   7.350
 8646POPC   NC354539   8.997  34.554   5.550
 8646POPC   PO454540   8.964  34.579   5.850
 8646POPC   GL154541   8.938  34.541   6.150
 8646POPC   GL254542   8.857  34.609   6.150
 8646POPC   C1A54543   8.995  34.527   6.450
 8646POPC   D2A54544   8.950  34.621   6.750
 8646POPC   C3A54545   8.931  34.584   7.050
 8646POPC   C4A54546   8.990  34.559   7.350
 8646POPC   C1B54547   8.735  34.691   6.450
 8646POPC   C2B54548   8.722  34.710   6.750
 8646POPC   C3B54549   8.760  34.668   7.050
 8646POPC   C4B54550   8.742  34.664   7.350
 8647POPC   NC354551  26.861  34.531   5.550
 8647POPC   PO454552  26.823  34.589   5.850
 8647POPC   GL154553  26.771  34.593   6.150
 8647POPC   GL254554  26.708  34.521   6.150
 8647POPC   C1A54555  26.819  34.592   6.450
 8647POPC   D2A54556  26.781  34.574   6.750
 8647POPC   C3A54557  26.810  34.527   7.050
 8647POPC   C4A54558  26.788  34.583   7.350
 8647POPC   C1B54559  26.596  34.482   6.450
 8647POPC   C2B54560  26.571  34.537   6.750
 8647POPC   C3B54561  26.560  34.549   7.050
 8647POPC   C4B54562  26.606  34.493   7.350
 8648POPC   NC354563  40.019  33.015   5.550
 8648POPC   PO454564  39.993  33.064   5.850
 8648POPC   GL154565  39.967  33.020   6.150
 8648POPC   GL254566  39.935  32.909   6.150
 8648POPC   C1A54567  39.988  32.993   6.450
 8648POPC   D2A54568  40.054  33.064   6.750
 8648POPC   C3A54569  40.017  33.049   7.050
 8648POPC   C4A54570  39.977  33.007   7.350
 8648POPC   C1B54571  39.778  32.849   6.450
 8648POPC   C2B54572  39.788  32.845   6.750
 8648POPC   C3B54573  39.797  32.867   7.050
 8648POPC   C4B54574  39.815  32.850   7.350
 8649POPC   NC354575  13.589  19.833   5.550
 8649POPC   PO454576  13.629  19.787   5.850
 8649POPC   GL154577  13.644  19.799   6.150
 8649POPC   GL254578  13.493  19.784   6.150
 8649POPC   C1A54579  13.581  19.859   6.450
 8649POPC   D2A54580  13.662  19.863   6.750
 8649POPC   C3A54581  13.633  19.856   7.050
 8649POPC   C4A54582  13.634  19.870   7.350
 8649POPC   C1B54583  13.381  19.767   6.450
 8649POPC   C2B54584  13.369  19.762   6.750
 8649POPC   C3B54585  13.361  19.769   7.050
 8649POPC   C4B54586  13.392  19.781   7.350
 8650POPC   NC354587  15.946  30.744   5.550
 8650POPC   PO454588  15.997  30.740   5.850
 8650POPC   GL154589  15.962  30.736   6.150
 8650POPC   GL254590  16.034  30.723   6.150
 8650POPC   C1A54591  16.002  30.716   6.450
 8650POPC   D2A54592  15.969  30.651   6.750
 8650POPC   C3A54593  15.959  30.655   7.050
 8650POPC   C4A54594  15.997  30.658   7.350
 8650POPC   C1B54595  16.220  30.738   6.450
 8650POPC   C2B54596  16.161  30.764   6.750
 8650POPC   C3B54597  16.246  30.702   7.050
 8650POPC   C4B54598  16.179  30.715   7.350
 8651POPC   NC354599  32.292   0.451   5.550
 8651POPC   PO454600  32.212   0.461   5.850
 8651POPC   GL154601  32.264   0.395   6.150
 8651POPC   GL254602  32.284   0.320   6.150
 8651POPC   C1A54603  32.243   0.396   6.450
 8651POPC   D2A54604  32.268   0.425   6.750
 8651POPC   C3A54605  32.217   0.405   7.050
 8651POPC   C4A54606  32.249   0.486   7.350
 8651POPC   C1B54607  32.401   0.251   6.450
 8651POPC   C2B54608  32.405   0.223   6.750
 8651POPC   C3B54609  32.392   0.207   7.050
 8651POPC   C4B54610  32.359   0.252   7.350
 8652POPC   NC354611  19.846  42.326   5.550
 8652POPC   PO454612  19.878  42.330   5.850
 8652POPC   GL154613  19.869  42.325   6.150
 8652POPC   GL254614  19.908  42.483   6.150
 8652POPC   C1A54615  19.799  42.376   6.450
 8652POPC   D2A54616  19.846  42.328   6.750
 8652POPC   C3A54617  19.809  42.321   7.050
 8652POPC   C4A54618  19.788  42.318   7.350
 8652POPC   C1B54619  19.911  42.556   6.450
 8652POPC   C2B54620  19.884  42.595   6.750
 8652POPC   C3B54621  19.920  42.614   7.050
 8652POPC   C4B54622  19.932  42.567   7.350
 8653POPC   NC354623  35.358  22.903   5.550
 8653POPC   PO454624  35.321  22.930   5.850
 8653POPC   GL154625  35.319  22.954   6.150
 8653POPC   GL254626  35.192  22.875   6.150
 8653POPC   C1A54627  35.380  22.928   6.450
 8653POPC   D2A54628  35.329  22.899   6.750
 8653POPC   C3A54629  35.368  22.916   7.050
 8653POPC   C4A54630  35.391  22.978   7.350
 8653POPC   C1B54631  35.079  22.925   6.450
 8653POPC   C2B54632  35.060  22.912   6.750
 8653POPC   C3B54633  35.147  22.926   7.050
 8653POPC   C4B54634  35.073  22.874   7.350
 8654POPC   NC354635  43.157  36.876   5.550
 8654POPC   PO454636  43.121  36.873   5.850
 8654POPC   GL154637  43.079  36.883   6.150
 8654POPC   GL254638  43.256  36.803   6.150
 8654POPC   C1A54639  43.153  36.944   6.450
 8654POPC   D2A54640  43.153  36.909   6.750
 8654POPC   C3A54641  43.144  36.927   7.050
 8654POPC   C4A54642  43.133  36.915   7.350
 8654POPC   C1B54643  43.297  36.758   6.450
 8654POPC   C2B54644  43.379  36.801   6.750
 8654POPC   C3B54645  43.361  36.751   7.050
 8654POPC   C4B54646  43.323  36.739   7.350
 8655POPC   NC354647   8.971   4.326   5.550
 8655POPC   PO454648   8.960   4.363   5.850
 8655POPC   GL154649   8.943   4.336   6.150
 8655POPC   GL254650   9.115   4.373   6.150
 8655POPC   C1A54651   8.949   4.300   6.450
 8655POPC   D2A54652   8.982   4.278   6.750
 8655POPC   C3A54653   9.009   4.305   7.050
 8655POPC   C4A54654   8.979   4.307   7.350
 8655POPC   C1B54655   9.197   4.388   6.450
 8655POPC   C2B54656   9.210   4.409   6.750
 8655POPC   C3B54657   9.216   4.368   7.050
 8655POPC   C4B54658   9.186   4.390   7.350
 8656POPC   NC354659   4.285   6.686   5.550
 8656POPC   PO454660   4.291   6.634   5.850
 8656POPC   GL154661   4.286   6.598   6.150
 8656POPC   GL254662   4.404   6.715   6.150
 8656POPC   C1A54663   4.318   6.630   6.450
 8656POPC   D2A54664   4.327   6.684   6.750
 8656POPC   C3A54665   4.348   6.603   7.050
 8656POPC   C4A54666   4.275   6.626   7.350
 8656POPC   C1B54667   4.481   6.761   6.450
 8656POPC   C2B54668   4.481   6.819   6.750
 8656POPC   C3B54669   4.552   6.806   7.050
 8656POPC   C4B54670   4.489   6.759   7.350
 8657POPC   NC354671  12.864   5.871   5.550
 8657POPC   PO454672  12.825   5.912   5.850
 8657POPC   GL154673  12.844   5.867   6.150
 8657POPC   GL254674  12.952   5.800   6.150
 8657POPC   C1A54675  12.863   5.881   6.450
 8657POPC   D2A54676  12.839   5.879   6.750
 8657POPC   C3A54677  12.875   5.860   7.050
 8657POPC   C4A54678  12.818   5.827   7.350
 8657POPC   C1B54679  13.049   5.738   6.450
 8657POPC   C2B54680  13.040   5.768   6.750
 8657POPC   C3B54681  13.049   5.742   7.050
 8657POPC   C4B54682  13.011   5.758   7.350
 8658POPC   NC354683  20.565   8.987   5.550
 8658POPC   PO454684  20.660   9.006   5.850
 8658POPC   GL154685  20.590   9.000   6.150
 8658POPC   GL254686  20.742   9.051   6.150
 8658POPC   C1A54687  20.585   9.015   6.450
 8658POPC   D2A54688  20.641   9.012   6.750
 8658POPC   C3A54689  20.645   9.010   7.050
 8658POPC   C4A54690  20.575   8.999   7.350
 8658POPC   C1B54691  20.838   9.026   6.450
 8658POPC   C2B54692  20.831   9.090   6.750
 8658POPC   C3B54693  20.889   9.053   7.050
 8658POPC   C4B54694  20.810   9.041   7.350
 8659POPC   NC354695  16.751  28.386   5.550
 8659POPC   PO454696  16.705  28.327   5.850
 8659POPC   GL154697  16.683  28.329   6.150
 8659POPC   GL254698  16.743  28.235   6.150
 8659POPC   C1A54699  16.692  28.339   6.450
 8659POPC   D2A54700  16.779  28.322   6.750
 8659POPC   C3A54701  16.713  28.342   7.050
 8659POPC   C4A54702  16.755  28.414   7.350
 8659POPC   C1B54703  16.712  28.134   6.450
 8659POPC   C2B54704  16.756  28.123   6.750
 8659POPC   C3B54705  16.687  28.158   7.050
 8659POPC   C4B54706  16.753  28.133   7.350
 8660POPC   NC354707  18.236  22.947   5.550
 8660POPC   PO454708  18.292  22.953   5.850
 8660POPC   GL154709  18.274  22.906   6.150
 8660POPC   GL254710  18.330  22.871   6.150
 8660POPC   C1A54711  18.245  22.951   6.450
 8660POPC   D2A54712  18.306  22.936   6.750
 8660POPC   C3A54713  18.318  22.933   7.050
 8660POPC   C4A54714  18.312  22.961   7.350
 8660POPC   C1B54715  18.416  22.728   6.450
 8660POPC   C2B54716  18.409  22.683   6.750
 8660POPC   C3B54717  18.426  22.720   7.050
 8660POPC   C4B54718  18.375  22.738   7.350
 8661POPC   NC354719  12.104  29.108   5.550
 8661POPC   PO454720  12.114  29.106   5.850
 8661POPC   GL154721  12.103  29.189   6.150
 8661POPC   GL254722  11.990  29.204   6.150
 8661POPC   C1A54723  12.052  29.132   6.450
 8661POPC   D2A54724  12.070  29.115   6.750
 8661POPC   C3A54725  12.109  29.112   7.050
 8661POPC   C4A54726  12.062  29.143   7.350
 8661POPC   C1B54727  11.867  29.202   6.450
 8661POPC   C2B54728  11.800  29.259   6.750
 8661POPC   C3B54729  11.839  29.287   7.050
 8661POPC   C4B54730  11.846  29.219   7.350
 8662POPC   NC354731  39.207  28.345   5.550
 8662POPC   PO454732  39.203  28.381   5.850
 8662POPC   GL154733  39.216  28.373   6.150
 8662POPC   GL254734  39.084  28.397   6.150
 8662POPC   C1A54735  39.184  28.326   6.450
 8662POPC   D2A54736  39.227  28.402   6.750
 8662POPC   C3A54737  39.198  28.373   7.050
 8662POPC   C4A54738  39.270  28.333   7.350
 8662POPC   C1B54739  39.015  28.463   6.450
 8662POPC   C2B54740  38.997  28.439   6.750
 8662POPC   C3B54741  38.952  28.411   7.050
 8662POPC   C4B54742  39.011  28.480   7.350
 8663POPC   NC354743  13.631  26.039   5.550
 8663POPC   PO454744  13.610  26.083   5.850
 8663POPC   GL154745  13.646  26.032   6.150
 8663POPC   GL254746  13.581  26.146   6.150
 8663POPC   C1A54747  13.592  26.026   6.450
 8663POPC   D2A54748  13.607  26.087   6.750
 8663POPC   C3A54749  13.677  26.055   7.050
 8663POPC   C4A54750  13.622  25.998   7.350
 8663POPC   C1B54751  13.643  26.243   6.450
 8663POPC   C2B54752  13.635  26.322   6.750
 8663POPC   C3B54753  13.606  26.285   7.050
 8663POPC   C4B54754  13.613  26.341   7.350
 8664POPC   NC354755   3.556   3.499   5.550
 8664POPC   PO454756   3.536   3.577   5.850
 8664POPC   GL154757   3.513   3.578   6.150
 8664POPC   GL254758   3.566   3.635   6.150
 8664POPC   C1A54759   3.577   3.583   6.450
 8664POPC   D2A54760   3.492   3.550   6.750
 8664POPC   C3A54761   3.531   3.537   7.050
 8664POPC   C4A54762   3.513   3.504   7.350
 8664POPC   C1B54763   3.561   3.789   6.450
 8664POPC   C2B54764   3.478   3.741   6.750
 8664POPC   C3B54765   3.544   3.829   7.050
 8664POPC   C4B54766   3.517   3.781   7.350
 8665POPC   NC354767  34.576  10.509   5.550
 8665POPC   PO454768  34.605  10.522   5.850
 8665POPC   GL154769  34.620  10.490   6.150
 8665POPC   GL254770  34.478  10.602   6.150
 8665POPC   C1A54771  34.622  10.500   6.450
 8665POPC   D2A54772  34.624  10.502   6.750
 8665POPC   C3A54773  34.577  10.527   7.050
 8665POPC   C4A54774  34.562  10.557   7.350
 8665POPC   C1B54775  34.334  10.670   6.450
 8665POPC   C2B54776  34.350  10.646   6.750
 8665POPC   C3B54777  34.398  10.617   7.050
 8665POPC   C4B54778  34.334  10.642   7.350
 8666POPC   NC354779  43.844   0.439   5.550
 8666POPC   PO454780  43.903   0.438   5.850
 8666POPC   GL154781  43.847   0.450   6.150
 8666POPC   GL254782  43.827   0.521   6.150
 8666POPC   C1A54783  43.929   0.409   6.450
 8666POPC   D2A54784  43.935   0.459   6.750
 8666POPC   C3A54785  43.898   0.483   7.050
 8666POPC   C4A54786  43.903   0.420   7.350
 8666POPC   C1B54787  43.763   0.643   6.450
 8666POPC   C2B54788  43.740   0.683   6.750
 8666POPC   C3B54789  43.732   0.607   7.050
 8666POPC   C4B54790  43.757   0.615   7.350
 8667POPC   NC354791  15.965  33.756   5.550
 8667POPC   PO454792  15.984  33.837   5.850
 8667POPC   GL154793  15.915  33.769   6.150
 8667POPC   GL254794  15.864  33.783   6.150
 8667POPC   C1A54795  15.978  33.833   6.450
 8667POPC   D2A54796  15.964  33.794   6.750
 8667POPC   C3A54797  15.967  33.826   7.050
 8667POPC   C4A54798  15.950  33.767   7.350
 8667POPC   C1B54799  15.760  33.725   6.450
 8667POPC   C2B54800  15.718  33.770   6.750
 8667POPC   C3B54801  15.752  33.734   7.050
 8667POPC   C4B54802  15.680  33.728   7.350
 8668POPC   NC354803  14.431  41.597   5.550
 8668POPC   PO454804  14.365  41.547   5.850
 8668POPC   GL154805  14.356  41.572   6.150
 8668POPC   GL254806  14.423  41.676   6.150
 8668POPC   C1A54807  14.379  41.520   6.450
 8668POPC   D2A54808  14.395  41.569   6.750
 8668POPC   C3A54809  14.449  41.558   7.050
 8668POPC   C4A54810  14.406  41.595   7.350
 8668POPC   C1B54811  14.494  41.787   6.450
 8668POPC   C2B54812  14.457  41.796   6.750
 8668POPC   C3B54813  14.459  41.744   7.050
 8668POPC   C4B54814  14.508  41.743   7.350
 8669POPC   NC354815  13.583  30.698   5.550
 8669POPC   PO454816  13.661  30.699   5.850
 8669POPC   GL154817  13.590  30.689   6.150
 8669POPC   GL254818  13.482  30.707   6.150
 8669POPC   C1A54819  13.678  30.742   6.450
 8669POPC   D2A54820  13.595  30.730   6.750
 8669POPC   C3A54821  13.593  30.674   7.050
 8669POPC   C4A54822  13.595  30.659   7.350
 8669POPC   C1B54823  13.447  30.775   6.450
 8669POPC   C2B54824  13.371  30.836   6.750
 8669POPC   C3B54825  13.436  30.780   7.050
 8669POPC   C4B54826  13.424  30.776   7.350
 8670POPC   NC354827  42.372  10.497   5.550
 8670POPC   PO454828  42.332  10.519   5.850
 8670POPC   GL154829  42.366  10.480   6.150
 8670POPC   GL254830  42.469  10.485   6.150
 8670POPC   C1A54831  42.367  10.484   6.450
 8670POPC   D2A54832  42.285  10.571   6.750
 8670POPC   C3A54833  42.331  10.516   7.050
 8670POPC   C4A54834  42.293  10.543   7.350
 8670POPC   C1B54835  42.499  10.354   6.450
 8670POPC   C2B54836  42.515  10.312   6.750
 8670POPC   C3B54837  42.490  10.309   7.050
 8670POPC   C4B54838  42.517  10.404   7.350
 8671POPC   NC354839   1.223   2.799   5.550
 8671POPC   PO454840   1.249   2.731   5.850
 8671POPC   GL154841   1.165   2.766   6.150
 8671POPC   GL254842   1.177   2.918   6.150
 8671POPC   C1A54843   1.205   2.746   6.450
 8671POPC   D2A54844   1.193   2.755   6.750
 8671POPC   C3A54845   1.174   2.781   7.050
 8671POPC   C4A54846   1.181   2.806   7.350
 8671POPC   C1B54847   1.060   2.982   6.450
 8671POPC   C2B54848   1.033   3.015   6.750
 8671POPC   C3B54849   1.080   2.956   7.050
 8671POPC   C4B54850   1.083   2.959   7.350
 8672POPC   NC354851   8.158   9.022   5.550
 8672POPC   PO454852   8.188   8.953   5.850
 8672POPC   GL154853   8.246   8.939   6.150
 8672POPC   GL254854   8.186   8.856   6.150
 8672POPC   C1A54855   8.225   8.971   6.450
 8672POPC   D2A54856   8.155   8.923   6.750
 8672POPC   C3A54857   8.191   9.006   7.050
 8672POPC   C4A54858   8.235   8.984   7.350
 8672POPC   C1B54859   8.124   8.728   6.450
 8672POPC   C2B54860   8.169   8.697   6.750
 8672POPC   C3B54861   8.171   8.739   7.050
 8672POPC   C4B54862   8.210   8.692   7.350
 8673POPC   NC354863   3.515  37.666   5.550
 8673POPC   PO454864   3.495  37.651   5.850
 8673POPC   GL154865   3.510  37.650   6.150
 8673POPC   GL254866   3.635  37.607   6.150
 8673POPC   C1A54867   3.588  37.715   6.450
 8673POPC   D2A54868   3.572  37.687   6.750
 8673POPC   C3A54869   3.528  37.724   7.050
 8673POPC   C4A54870   3.583  37.688   7.350
 8673POPC   C1B54871   3.729  37.536   6.450
 8673POPC   C2B54872   3.802  37.530   6.750
 8673POPC   C3B54873   3.762  37.572   7.050
 8673POPC   C4B54874   3.735  37.608   7.350
 8674POPC   NC354875  43.907   4.296   5.550
 8674POPC   PO454876  43.890   4.314   5.850
 8674POPC   GL154877  43.934   4.365   6.150
 8674POPC   GL254878  44.002   4.221   6.150
 8674POPC   C1A54879  43.925   4.299   6.450
 8674POPC   D2A54880  43.911   4.338   6.750
 8674POPC   C3A54881  43.932   4.356   7.050
 8674POPC   C4A54882  43.868   4.346   7.350
 8674POPC   C1B54883  44.069   4.135   6.450
 8674POPC   C2B54884  44.042   4.135   6.750
 8674POPC   C3B54885  44.070   4.150   7.050
 8674POPC   C4B54886  44.022   4.131   7.350
 8675POPC   NC354887  40.016  26.777   5.550
 8675POPC   PO454888  39.981  26.810   5.850
 8675POPC   GL154889  40.036  26.803   6.150
 8675POPC   GL254890  39.997  26.927   6.150
 8675POPC   C1A54891  40.055  26.813   6.450
 8675POPC   D2A54892  40.034  26.784   6.750
 8675POPC   C3A54893  39.988  26.833   7.050
 8675POPC   C4A54894  40.024  26.806   7.350
 8675POPC   C1B54895  39.861  27.074   6.450
 8675POPC   C2B54896  39.922  26.997   6.750
 8675POPC   C3B54897  39.847  27.008   7.050
 8675POPC   C4B54898  39.903  27.043   7.350
 8676POPC   NC354899  30.661   9.793   5.550
 8676POPC   PO454900  30.703   9.722   5.850
 8676POPC   GL154901  30.684   9.711   6.150
 8676POPC   GL254902  30.586   9.677   6.150
 8676POPC   C1A54903  30.733   9.728   6.450
 8676POPC   D2A54904  30.650   9.725   6.750
 8676POPC   C3A54905  30.721   9.749   7.050
 8676POPC   C4A54906  30.713   9.769   7.350
 8676POPC   C1B54907  30.459   9.703   6.450
 8676POPC   C2B54908  30.492   9.691   6.750
 8676POPC   C3B54909  30.432   9.675   7.050
 8676POPC   C4B54910  30.416   9.664   7.350
 8677POPC   NC354911   4.361  19.843   5.550
 8677POPC   PO454912   4.354  19.847   5.850
 8677POPC   GL154913   4.325  19.809   6.150
 8677POPC   GL254914   4.224  19.775   6.150
 8677POPC   C1A54915   4.348  19.785   6.450
 8677POPC   D2A54916   4.366  19.834   6.750
 8677POPC   C3A54917   4.282  19.825   7.050
 8677POPC   C4A54918   4.296  19.821   7.350
 8677POPC   C1B54919   4.179  19.657   6.450
 8677POPC   C2B54920   4.201  19.624   6.750
 8677POPC   C3B54921   4.147  19.628   7.050
 8677POPC   C4B54922   4.205  19.664   7.350
 8678POPC   NC354923  15.961  14.362   5.550
 8678POPC   PO454924  15.970  14.368   5.850
 8678POPC   GL154925  15.966  14.400   6.150
 8678POPC   GL254926  15.900  14.324   6.150
 8678POPC   C1A54927  16.000  14.395   6.450
 8678POPC   D2A54928  15.974  14.444   6.750
 8678POPC   C3A54929  15.910  14.413   7.050
 8678POPC   C4A54930  15.961  14.429   7.350
 8678POPC   C1B54931  15.795  14.208   6.450
 8678POPC   C2B54932  15.776  14.196   6.750
 8678POPC   C3B54933  15.729  14.256   7.050
 8678POPC   C4B54934  15.725  14.271   7.350
 8679POPC   NC354935  25.233   0.454   5.550
 8679POPC   PO454936  25.240   0.449   5.850
 8679POPC   GL154937  25.266   0.445   6.150
 8679POPC   GL254938  25.196   0.337   6.150
 8679POPC   C1A54939  25.258   0.424   6.450
 8679POPC   D2A54940  25.257   0.427   6.750
 8679POPC   C3A54941  25.256   0.418   7.050
 8679POPC   C4A54942  25.265   0.460   7.350
 8679POPC   C1B54943  25.153   0.200   6.450
 8679POPC   C2B54944  25.195   0.236   6.750
 8679POPC   C3B54945  25.160   0.195   7.050
 8679POPC   C4B54946  25.141   0.189   7.350
 8680POPC   NC354947  42.342  23.677   5.550
 8680POPC   PO454948  42.328  23.730   5.850
 8680POPC   GL154949  42.341  23.726   6.150
 8680POPC   GL254950  42.467  23.757   6.150
 8680POPC   C1A54951  42.380  23.678   6.450
 8680POPC   D2A54952  42.351  23.705   6.750
 8680POPC   C3A54953  42.341  23.687   7.050
 8680POPC   C4A54954  42.329  23.666   7.350
 8680POPC   C1B54955  42.555  23.731   6.450
 8680POPC   C2B54956  42.549  23.729   6.750
 8680POPC   C3B54957  42.631  23.690   7.050
 8680POPC   C4B54958  42.596  23.674   7.350
 8681POPC   NC354959   6.693  38.480   5.550
 8681POPC   PO454960   6.619  38.452   5.850
 8681POPC   GL154961   6.683  38.417   6.150
 8681POPC   GL254962   6.777  38.408   6.150
 8681POPC   C1A54963   6.632  38.491   6.450
 8681POPC   D2A54964   6.684  38.472   6.750
 8681POPC   C3A54965   6.684  38.456   7.050
 8681POPC   C4A54966   6.687  38.476   7.350
 8681POPC   C1B54967   6.882  38.355   6.450
 8681POPC   C2B54968   6.864  38.287   6.750
 8681POPC   C3B54969   6.877  38.335   7.050
 8681POPC   C4B54970   6.822  38.273   7.350
 8682POPC   NC354971  36.137  29.964   5.550
 8682POPC   PO454972  36.127  29.917   5.850
 8682POPC   GL154973  36.142  29.897   6.150
 8682POPC   GL254974  36.234  29.812   6.150
 8682POPC   C1A54975  36.113  29.883   6.450
 8682POPC   D2A54976  36.094  29.941   6.750
 8682POPC   C3A54977  36.089  29.954   7.050
 8682POPC   C4A54978  36.110  29.894   7.350
 8682POPC   C1B54979  36.314  29.716   6.450
 8682POPC   C2B54980  36.252  29.750   6.750
 8682POPC   C3B54981  36.254  29.754   7.050
 8682POPC   C4B54982  36.242  29.715   7.350
 8683POPC   NC354983  39.228  33.791   5.550
 8683POPC   PO454984  39.274  33.790   5.850
 8683POPC   GL154985  39.279  33.809   6.150
 8683POPC   GL254986  39.229  33.960   6.150
 8683POPC   C1A54987  39.260  33.779   6.450
 8683POPC   D2A54988  39.242  33.835   6.750
 8683POPC   C3A54989  39.210  33.774   7.050
 8683POPC   C4A54990  39.183  33.823   7.350
 8683POPC   C1B54991  39.204  34.037   6.450
 8683POPC   C2B54992  39.229  34.075   6.750
 8683POPC   C3B54993  39.191  34.054   7.050
 8683POPC   C4B54994  39.233  34.037   7.350
 8684POPC   NC354995  33.814  40.826   5.550
 8684POPC   PO454996  33.806  40.787   5.850
 8684POPC   GL154997  33.821  40.830   6.150
 8684POPC   GL254998  33.675  40.855   6.150
 8684POPC   C1A54999  33.781  40.795   6.450
 8684POPC   D2A55000  33.786  40.765   6.750
 8684POPC   C3A55001  33.757  40.828   7.050
 8684POPC   C4A55002  33.786  40.829   7.350
 8684POPC   C1B55003  33.608  40.918   6.450
 8684POPC   C2B55004  33.545  40.921   6.750
 8684POPC   C3B55005  33.622  40.917   7.050
 8684POPC   C4B55006  33.525  40.933   7.350
 8685POPC   NC355007  26.823   5.079   5.550
 8685POPC   PO455008  26.768   5.070   5.850
 8685POPC   GL155009  26.784   5.073   6.150
 8685POPC   GL255010  26.898   5.170   6.150
 8685POPC   C1A55011  26.830   5.120   6.450
 8685POPC   D2A55012  26.807   5.082   6.750
 8685POPC   C3A55013  26.864   5.140   7.050
 8685POPC   C4A55014  26.799   5.108   7.350
 8685POPC   C1B55015  26.943   5.361   6.450
 8685POPC   C2B55016  26.956   5.356   6.750
 8685POPC   C3B55017  26.907   5.353   7.050
 8685POPC   C4B55018  26.886   5.326   7.350
 8686POPC   NC355019  15.216  36.166   5.550
 8686POPC   PO455020  15.172  36.105   5.850
 8686POPC   GL155021  15.183  36.169   6.150
 8686POPC   GL255022  15.220  35.986   6.150
 8686POPC   C1A55023  15.175  36.160   6.450
 8686POPC   D2A55024  15.203  36.137   6.750
 8686POPC   C3A55025  15.145  36.175   7.050
 8686POPC   C4A55026  15.143  36.152   7.350
 8686POPC   C1B55027  15.294  35.940   6.450
 8686POPC   C2B55028  15.335  35.936   6.750
 8686POPC   C3B55029  15.282  35.965   7.050
 8686POPC   C4B55030  15.320  35.891   7.350
 8687POPC   NC355031  39.199  17.476   5.550
 8687POPC   PO455032  39.272  17.540   5.850
 8687POPC   GL155033  39.254  17.490   6.150
 8687POPC   GL255034  39.281  17.437   6.150
 8687POPC   C1A55035  39.279  17.544   6.450
 8687POPC   D2A55036  39.211  17.541   6.750
 8687POPC   C3A55037  39.268  17.528   7.050
 8687POPC   C4A55038  39.193  17.557   7.350
 8687POPC   C1B55039  39.401  17.348   6.450
 8687POPC   C2B55040  39.417  17.336   6.750
 8687POPC   C3B55041  39.379  17.344   7.050
 8687POPC   C4B55042  39.386  17.372   7.350
 8688POPC   NC355043  32.216  17.555   5.550
 8688POPC   PO455044  32.258  17.502   5.850
 8688POPC   GL155045  32.237  17.507   6.150
 8688POPC   GL255046  32.194  17.396   6.150
 8688POPC   C1A55047  32.198  17.545   6.450
 8688POPC   D2A55048  32.255  17.483   6.750
 8688POPC   C3A55049  32.291  17.555   7.050
 8688POPC   C4A55050  32.217  17.520   7.350
 8688POPC   C1B55051  32.122  17.257   6.450
 8688POPC   C2B55052  32.128  17.262   6.750
 8688POPC   C3B55053  32.107  17.285   7.050
 8688POPC   C4B55054  32.142  17.302   7.350
 8689POPC   NC355055  11.319  23.691   5.550
 8689POPC   PO455056  11.318  23.712   5.850
 8689POPC   GL155057  11.325  23.677   6.150
 8689POPC   GL255058  11.298  23.619   6.150
 8689POPC   C1A55059  11.295  23.691   6.450
 8689POPC   D2A55060  11.335  23.704   6.750
 8689POPC   C3A55061  11.297  23.719   7.050
 8689POPC   C4A55062  11.267  23.694   7.350
 8689POPC   C1B55063  11.357  23.516   6.450
 8689POPC   C2B55064  11.333  23.436   6.750
 8689POPC   C3B55065  11.371  23.435   7.050
 8689POPC   C4B55066  11.365  23.430   7.350
 8690POPC   NC355067  40.823  29.914   5.550
 8690POPC   PO455068  40.757  29.905   5.850
 8690POPC   GL155069  40.831  29.900   6.150
 8690POPC   GL255070  40.852  30.050   6.150
 8690POPC   C1A55071  40.768  29.969   6.450
 8690POPC   D2A55072  40.818  29.952   6.750
 8690POPC   C3A55073  40.817  29.926   7.050
 8690POPC   C4A55074  40.821  29.924   7.350
 8690POPC   C1B55075  40.931  30.068   6.450
 8690POPC   C2B55076  40.964  30.115   6.750
 8690POPC   C3B55077  40.970  30.140   7.050
 8690POPC   C4B55078  40.920  30.153   7.350
 8691POPC   NC355079  38.471  13.616   5.550
 8691POPC   PO455080  38.488  13.583   5.850
 8691POPC   GL155081  38.423  13.584   6.150
 8691POPC   GL255082  38.558  13.609   6.150
 8691POPC   C1A55083  38.436  13.600   6.450
 8691POPC   D2A55084  38.406  13.600   6.750
 8691POPC   C3A55085  38.476  13.621   7.050
 8691POPC   C4A55086  38.457  13.598   7.350
 8691POPC   C1B55087  38.652  13.506   6.450
 8691POPC   C2B55088  38.658  13.570   6.750
 8691POPC   C3B55089  38.656  13.538   7.050
 8691POPC   C4B55090  38.710  13.527   7.350
 8692POPC   NC355091   1.170  29.144   5.550
 8692POPC   PO455092   1.185  29.171   5.850
 8692POPC   GL155093   1.180  29.191   6.150
 8692POPC   GL255094   1.207  29.267   6.150
 8692POPC   C1A55095   1.219  29.119   6.450
 8692POPC   D2A55096   1.177  29.153   6.750
 8692POPC   C3A55097   1.231  29.148   7.050
 8692POPC   C4A55098   1.218  29.111   7.350
 8692POPC   C1B55099   1.126  29.395   6.450
 8692POPC   C2B55100   1.108  29.409   6.750
 8692POPC   C3B55101   1.159  29.386   7.050
 8692POPC   C4B55102   1.177  29.382   7.350
 8693POPC   NC355103   8.195  13.619   5.550
 8693POPC   PO455104   8.222  13.661   5.850
 8693POPC   GL155105   8.226  13.603   6.150
 8693POPC   GL255106   8.110  13.687   6.150
 8693POPC   C1A55107   8.231  13.591   6.450
 8693POPC   D2A55108   8.217  13.616   6.750
 8693POPC   C3A55109   8.175  13.667   7.050
 8693POPC   C4A55110   8.162  13.609   7.350
 8693POPC   C1B55111   7.936  13.627   6.450
 8693POPC   C2B55112   7.951  13.674   6.750
 8693POPC   C3B55113   7.944  13.641   7.050
 8693POPC   C4B55114   7.916  13.682   7.350
 8694POPC   NC355115  15.161  26.850   5.550
 8694POPC   PO455116  15.132  26.842   5.850
 8694POPC   GL155117  15.157  26.850   6.150
 8694POPC   GL255118  15.255  26.939   6.150
 8694POPC   C1A55119  15.138  26.867   6.450
 8694POPC   D2A55120  15.210  26.789   6.750
 8694POPC   C3A55121  15.206  26.794   7.050
 8694POPC   C4A55122  15.219  26.786   7.350
 8694POPC   C1B55123  15.252  27.086   6.450
 8694POPC   C2B55124  15.297  27.057   6.750
 8694POPC   C3B55125  15.221  27.024   7.050
 8694POPC   C4B55126  15.287  27.102   7.350
 8695POPC   NC355127  31.447  11.288   5.550
 8695POPC   PO455128  31.440  11.345   5.850
 8695POPC   GL155129  31.433  11.291   6.150
 8695POPC   GL255130  31.572  11.413   6.150
 8695POPC   C1A55131  31.490  11.276   6.450
 8695POPC   D2A55132  31.429  11.324   6.750
 8695POPC   C3A55133  31.456  11.280   7.050
 8695POPC   C4A55134  31.471  11.252   7.350
 8695POPC   C1B55135  31.628  11.474   6.450
 8695POPC   C2B55136  31.636  11.471   6.750
 8695POPC   C3B55137  31.659  11.461   7.050
 8695POPC   C4B55138  31.642  11.419   7.350
 8696POPC   NC355139  43.116   9.707   5.550
 8696POPC   PO455140  43.134   9.742   5.850
 8696POPC   GL155141  43.062   9.739   6.150
 8696POPC   GL255142  43.001   9.809   6.150
 8696POPC   C1A55143  43.157   9.750   6.450
 8696POPC   D2A55144  43.085   9.777   6.750
 8696POPC   C3A55145  43.070   9.787   7.050
 8696POPC   C4A55146  43.093   9.753   7.350
 8696POPC   C1B55147  42.883   9.834   6.450
 8696POPC   C2B55148  42.840   9.813   6.750
 8696POPC   C3B55149  42.916   9.842   7.050
 8696POPC   C4B55150  42.911   9.874   7.350
 8697POPC   NC355151  31.465  31.457   5.550
 8697POPC   PO455152  31.458  31.512   5.850
 8697POPC   GL155153  31.423  31.479   6.150
 8697POPC   GL255154  31.388  31.333   6.150
 8697POPC   C1A55155  31.512  31.482   6.450
 8697POPC   D2A55156  31.522  31.471   6.750
 8697POPC   C3A55157  31.453  31.439   7.050
 8697POPC   C4A55158  31.488  31.473   7.350
 8697POPC   C1B55159  31.422  31.201   6.450
 8697POPC   C2B55160  31.381  31.228   6.750
 8697POPC   C3B55161  31.407  31.244   7.050
 8697POPC   C4B55162  31.345  31.204   7.350
 8698POPC   NC355163  33.763  40.046   5.550
 8698POPC   PO455164  33.782  39.980   5.850
 8698POPC   GL155165  33.755  40.020   6.150
 8698POPC   GL255166  33.676  40.134   6.150
 8698POPC   C1A55167  33.780  39.998   6.450
 8698POPC   D2A55168  33.770  39.981   6.750
 8698POPC   C3A55169  33.846  39.999   7.050
 8698POPC   C4A55170  33.841  39.983   7.350
 8698POPC   C1B55171  33.649  40.232   6.450
 8698POPC   C2B55172  33.600  40.240   6.750
 8698POPC   C3B55173  33.683  40.209   7.050
 8698POPC   C4B55174  33.656  40.188   7.350
 8699POPC   NC355175  42.346  11.303   5.550
 8699POPC   PO455176  42.343  11.258   5.850
 8699POPC   GL155177  42.376  11.273   6.150
 8699POPC   GL255178  42.257  11.318   6.150
 8699POPC   C1A55179  42.331  11.267   6.450
 8699POPC   D2A55180  42.352  11.329   6.750
 8699POPC   C3A55181  42.325  11.291   7.050
 8699POPC   C4A55182  42.348  11.337   7.350
 8699POPC   C1B55183  42.064  11.347   6.450
 8699POPC   C2B55184  42.057  11.344   6.750
 8699POPC   C3B55185  42.134  11.381   7.050
 8699POPC   C4B55186  42.102  11.359   7.350
 8700POPC   NC355187  23.695  25.311   5.550
 8700POPC   PO455188  23.668  25.297   5.850
 8700POPC   GL155189  23.680  25.309   6.150
 8700POPC   GL255190  23.758  25.354   6.150
 8700POPC   C1A55191  23.696  25.291   6.450
 8700POPC   D2A55192  23.688  25.222   6.750
 8700POPC   C3A55193  23.705  25.281   7.050
 8700POPC   C4A55194  23.734  25.241   7.350
 8700POPC   C1B55195  23.775  25.467   6.450
 8700POPC   C2B55196  23.788  25.513   6.750
 8700POPC   C3B55197  23.783  25.456   7.050
 8700POPC   C4B55198  23.835  25.447   7.350
 8701POPC   NC355199  12.814  10.547   5.550
 8701POPC   PO455200  12.866  10.500   5.850
 8701POPC   GL155201  12.889  10.520   6.150
 8701POPC   GL255202  12.784  10.612   6.150
 8701POPC   C1A55203  12.857  10.542   6.450
 8701POPC   D2A55204  12.839  10.540   6.750
 8701POPC   C3A55205  12.899  10.552   7.050
 8701POPC   C4A55206  12.899  10.554   7.350
 8701POPC   C1B55207  12.666  10.622   6.450
 8701POPC   C2B55208  12.655  10.574   6.750
 8701POPC   C3B55209  12.622  10.597   7.050
 8701POPC   C4B55210  12.658  10.588   7.350
 8702POPC   NC355211  40.002  35.400   5.550
 8702POPC   PO455212  39.962  35.348   5.850
 8702POPC   GL155213  39.982  35.312   6.150
 8702POPC   GL255214  39.987  35.451   6.150
 8702POPC   C1A55215  40.031  35.343   6.450
 8702POPC   D2A55216  40.018  35.321   6.750
 8702POPC   C3A55217  40.037  35.336   7.050
 8702POPC   C4A55218  39.967  35.375   7.350
 8702POPC   C1B55219  39.937  35.558   6.450
 8702POPC   C2B55220  39.949  35.621   6.750
 8702POPC   C3B55221  39.935  35.584   7.050
 8702POPC   C4B55222  39.935  35.536   7.350
 8703POPC   NC355223  22.919  31.480   5.550
 8703POPC   PO455224  22.923  31.477   5.850
 8703POPC   GL155225  22.893  31.460   6.150
 8703POPC   GL255226  23.004  31.300   6.150
 8703POPC   C1A55227  22.975  31.464   6.450
 8703POPC   D2A55228  22.921  31.431   6.750
 8703POPC   C3A55229  22.973  31.510   7.050
 8703POPC   C4A55230  22.955  31.494   7.350
 8703POPC   C1B55231  22.994  31.244   6.450
 8703POPC   C2B55232  23.035  31.259   6.750
 8703POPC   C3B55233  23.025  31.270   7.050
 8703POPC   C4B55234  22.974  31.192   7.350
 8704POPC   NC355235   0.451  30.665   5.550
 8704POPC   PO455236   0.477  30.713   5.850
 8704POPC   GL155237   0.425  30.682   6.150
 8704POPC   GL255238   0.457  30.822   6.150
 8704POPC   C1A55239   0.480  30.661   6.450
 8704POPC   D2A55240   0.438  30.647   6.750
 8704POPC   C3A55241   0.422  30.717   7.050
 8704POPC   C4A55242   0.402  30.743   7.350
 8704POPC   C1B55243   0.440  30.975   6.450
 8704POPC   C2B55244   0.492  30.941   6.750
 8704POPC   C3B55245   0.499  30.908   7.050
 8704POPC   C4B55246   0.501  30.908   7.350
 8705POPC   NC355247  30.727  15.186   5.550
 8705POPC   PO455248  30.657  15.186   5.850
 8705POPC   GL155249  30.699  15.206   6.150
 8705POPC   GL255250  30.574  15.145   6.150
 8705POPC   C1A55251  30.660  15.136   6.450
 8705POPC   D2A55252  30.704  15.180   6.750
 8705POPC   C3A55253  30.673  15.130   7.050
 8705POPC   C4A55254  30.690  15.146   7.350
 8705POPC   C1B55255  30.481  15.220   6.450
 8705POPC   C2B55256  30.482  15.182   6.750
 8705POPC   C3B55257  30.413  15.158   7.050
 8705POPC   C4B55258  30.469  15.156   7.350
 8706POPC   NC355259  27.551  27.554   5.550
 8706POPC   PO455260  27.640  27.624   5.850
 8706POPC   GL155261  27.632  27.565   6.150
 8706POPC   GL255262  27.676  27.619   6.150
 8706POPC   C1A55263  27.623  27.550   6.450
 8706POPC   D2A55264  27.631  27.604   6.750
 8706POPC   C3A55265  27.566  27.572   7.050
 8706POPC   C4A55266  27.604  27.598   7.350
 8706POPC   C1B55267  27.853  27.716   6.450
 8706POPC   C2B55268  27.792  27.702   6.750
 8706POPC   C3B55269  27.839  27.706   7.050
 8706POPC   C4B55270  27.825  27.698   7.350
 8707POPC   NC355271  39.207  39.967   5.550
 8707POPC   PO455272  39.210  39.973   5.850
 8707POPC   GL155273  39.270  40.047   6.150
 8707POPC   GL255274  39.269  40.087   6.150
 8707POPC   C1A55275  39.231  40.002   6.450
 8707POPC   D2A55276  39.246  39.997   6.750
 8707POPC   C3A55277  39.215  40.016   7.050
 8707POPC   C4A55278  39.191  40.027   7.350
 8707POPC   C1B55279  39.359  40.180   6.450
 8707POPC   C2B55280  39.406  40.211   6.750
 8707POPC   C3B55281  39.316  40.216   7.050
 8707POPC   C4B55282  39.329  40.265   7.350
 8708POPC   NC355283  30.739  36.909   5.550
 8708POPC   PO455284  30.687  36.919   5.850
 8708POPC   GL155285  30.668  36.885   6.150
 8708POPC   GL255286  30.576  36.848   6.150
 8708POPC   C1A55287  30.675  36.882   6.450
 8708POPC   D2A55288  30.666  36.868   6.750
 8708POPC   C3A55289  30.700  36.879   7.050
 8708POPC   C4A55290  30.668  36.918   7.350
 8708POPC   C1B55291  30.432  36.798   6.450
 8708POPC   C2B55292  30.491  36.816   6.750
 8708POPC   C3B55293  30.417  36.790   7.050
 8708POPC   C4B55294  30.509  36.850   7.350
 8709POPC   NC355295  42.372   9.012   5.550
 8709POPC   PO455296  42.356   8.937   5.850
 8709POPC   GL155297  42.356   9.006   6.150
 8709POPC   GL255298  42.465   8.879   6.150
 8709POPC   C1A55299  42.336   9.009   6.450
 8709POPC   D2A55300  42.335   9.002   6.750
 8709POPC   C3A55301  42.325   8.959   7.050
 8709POPC   C4A55302  42.331   8.944   7.350
 8709POPC   C1B55303  42.480   8.775   6.450
 8709POPC   C2B55304  42.484   8.787   6.750
 8709POPC   C3B55305  42.515   8.792   7.050
 8709POPC   C4B55306  42.510   8.777   7.350
 8710POPC   NC355307  12.123  10.516   5.550
 8710POPC   PO455308  12.117  10.494   5.850
 8710POPC   GL155309  12.032  10.533   6.150
 8710POPC   GL255310  12.026  10.397   6.150
 8710POPC   C1A55311  12.081  10.513   6.450
 8710POPC   D2A55312  12.064  10.526   6.750
 8710POPC   C3A55313  12.081  10.544   7.050
 8710POPC   C4A55314  12.033  10.488   7.350
 8710POPC   C1B55315  11.955  10.320   6.450
 8710POPC   C2B55316  12.011  10.274   6.750
 8710POPC   C3B55317  11.934  10.269   7.050
 8710POPC   C4B55318  11.920  10.296   7.350
 8711POPC   NC355319  20.577   6.652   5.550
 8711POPC   PO455320  20.606   6.616   5.850
 8711POPC   GL155321  20.593   6.640   6.150
 8711POPC   GL255322  20.600   6.729   6.150
 8711POPC   C1A55323  20.589   6.622   6.450
 8711POPC   D2A55324  20.625   6.602   6.750
 8711POPC   C3A55325  20.581   6.674   7.050
 8711POPC   C4A55326  20.569   6.595   7.350
 8711POPC   C1B55327  20.618   6.882   6.450
 8711POPC   C2B55328  20.613   6.922   6.750
 8711POPC   C3B55329  20.649   6.859   7.050
 8711POPC   C4B55330  20.683   6.861   7.350
 8712POPC   NC355331  18.235  41.595   5.550
 8712POPC   PO455332  18.314  41.587   5.850
 8712POPC   GL155333  18.317  41.529   6.150
 8712POPC   GL255334  18.241  41.626   6.150
 8712POPC   C1A55335  18.273  41.602   6.450
 8712POPC   D2A55336  18.304  41.514   6.750
 8712POPC   C3A55337  18.332  41.551   7.050
 8712POPC   C4A55338  18.293  41.564   7.350
 8712POPC   C1B55339  18.150  41.801   6.450
 8712POPC   C2B55340  18.192  41.792   6.750
 8712POPC   C3B55341  18.221  41.781   7.050
 8712POPC   C4B55342  18.216  41.780   7.350
 8713POPC   NC355343  37.697   7.429   5.550
 8713POPC   PO455344  37.696   7.442   5.850
 8713POPC   GL155345  37.652   7.425   6.150
 8713POPC   GL255346  37.609   7.521   6.150
 8713POPC   C1A55347  37.652   7.376   6.450
 8713POPC   D2A55348  37.688   7.387   6.750
 8713POPC   C3A55349  37.635   7.450   7.050
 8713POPC   C4A55350  37.680   7.410   7.350
 8713POPC   C1B55351  37.426   7.511   6.450
 8713POPC   C2B55352  37.408   7.520   6.750
 8713POPC   C3B55353  37.411   7.508   7.050
 8713POPC   C4B55354  37.402   7.485   7.350
 8714POPC   NC355355  12.851   9.701   5.550
 8714POPC   PO455356  12.812   9.710   5.850
 8714POPC   GL155357  12.837   9.699   6.150
 8714POPC   GL255358  12.830   9.581   6.150
 8714POPC   C1A55359  12.835   9.726   6.450
 8714POPC   D2A55360  12.808   9.746   6.750
 8714POPC   C3A55361  12.890   9.739   7.050
 8714POPC   C4A55362  12.830   9.797   7.350
 8714POPC   C1B55363  12.829   9.538   6.450
 8714POPC   C2B55364  12.777   9.457   6.750
 8714POPC   C3B55365  12.763   9.513   7.050
 8714POPC   C4B55366  12.786   9.551   7.350
 8715POPC   NC355367  11.278  39.189   5.550
 8715POPC   PO455368  11.346  39.235   5.850
 8715POPC   GL155369  11.273  39.184   6.150
 8715POPC   GL255370  11.309  39.123   6.150
 8715POPC   C1A55371  11.283  39.240   6.450
 8715POPC   D2A55372  11.268  39.226   6.750
 8715POPC   C3A55373  11.264  39.243   7.050
 8715POPC   C4A55374  11.303  39.225   7.350
 8715POPC   C1B55375  11.318  39.031   6.450
 8715POPC   C2B55376  11.401  38.992   6.750
 8715POPC   C3B55377  11.403  38.999   7.050
 8715POPC   C4B55378  11.343  38.985   7.350
 8716POPC   NC355379  29.892  25.222   5.550
 8716POPC   PO455380  29.971  25.293   5.850
 8716POPC   GL155381  29.938  25.234   6.150
 8716POPC   GL255382  29.853  25.098   6.150
 8716POPC   C1A55383  29.958  25.251   6.450
 8716POPC   D2A55384  29.930  25.293   6.750
 8716POPC   C3A55385  29.903  25.281   7.050
 8716POPC   C4A55386  29.896  25.263   7.350
 8716POPC   C1B55387  29.847  25.072   6.450
 8716POPC   C2B55388  29.893  25.063   6.750
 8716POPC   C3B55389  29.815  24.978   7.050
 8716POPC   C4B55390  29.891  24.994   7.350
 8717POPC   NC355391  13.590  34.616   5.550
 8717POPC   PO455392  13.674  34.611   5.850
 8717POPC   GL155393  13.671  34.564   6.150
 8717POPC   GL255394  13.731  34.589   6.150
 8717POPC   C1A55395  13.663  34.612   6.450
 8717POPC   D2A55396  13.579  34.585   6.750
 8717POPC   C3A55397  13.632  34.586   7.050
 8717POPC   C4A55398  13.647  34.624   7.350
 8717POPC   C1B55399  13.897  34.632   6.450
 8717POPC   C2B55400  13.925  34.578   6.750
 8717POPC   C3B55401  13.859  34.630   7.050
 8717POPC   C4B55402  13.909  34.628   7.350
 8718POPC   NC355403  39.230  27.548   5.550
 8718POPC   PO455404  39.206  27.550   5.850
 8718POPC   GL155405  39.241  27.560   6.150
 8718POPC   GL255406  39.319  27.752   6.150
 8718POPC   C1A55407  39.230  27.606   6.450
 8718POPC   D2A55408  39.190  27.583   6.750
 8718POPC   C3A55409  39.203  27.545   7.050
 8718POPC   C4A55410  39.229  27.565   7.350
 8718POPC   C1B55411  39.337  27.783   6.450
 8718POPC   C2B55412  39.373  27.837   6.750
 8718POPC   C3B55413  39.350  27.846   7.050
 8718POPC   C4B55414  39.368  27.829   7.350
 8719POPC   NC355415  37.678  29.141   5.550
 8719POPC   PO455416  37.701  29.159   5.850
 8719POPC   GL155417  37.700  29.099   6.150
 8719POPC   GL255418  37.762  29.224   6.150
 8719POPC   C1A55419  37.695  29.097   6.450
 8719POPC   D2A55420  37.671  29.186   6.750
 8719POPC   C3A55421  37.700  29.192   7.050
 8719POPC   C4A55422  37.646  29.151   7.350
 8719POPC   C1B55423  37.888  29.299   6.450
 8719POPC   C2B55424  37.860  29.312   6.750
 8719POPC   C3B55425  37.937  29.256   7.050
 8719POPC   C4B55426  37.916  29.223   7.350
 8720POPC   NC355427   2.735  19.840   5.550
 8720POPC   PO455428   2.747  19.879   5.850
 8720POPC   GL155429   2.783  19.884   6.150
 8720POPC   GL255430   2.693  19.731   6.150
 8720POPC   C1A55431   2.721  19.853   6.450
 8720POPC   D2A55432   2.774  19.879   6.750
 8720POPC   C3A55433   2.738  19.812   7.050
 8720POPC   C4A55434   2.720  19.824   7.350
 8720POPC   C1B55435   2.668  19.638   6.450
 8720POPC   C2B55436   2.692  19.545   6.750
 8720POPC   C3B55437   2.685  19.576   7.050
 8720POPC   C4B55438   2.709  19.552   7.350
 8721POPC   NC355439  38.504  23.741   5.550
 8721POPC   PO455440  38.473  23.704   5.850
 8721POPC   GL155441  38.500  23.736   6.150
 8721POPC   GL255442  38.510  23.809   6.150
 8721POPC   C1A55443  38.492  23.714   6.450
 8721POPC   D2A55444  38.423  23.756   6.750
 8721POPC   C3A55445  38.434  23.742   7.050
 8721POPC   C4A55446  38.483  23.692   7.350
 8721POPC   C1B55447  38.671  23.842   6.450
 8721POPC   C2B55448  38.630  23.871   6.750
 8721POPC   C3B55449  38.611  23.852   7.050
 8721POPC   C4B55450  38.590  23.917   7.350
 8722POPC   NC355451  40.030  32.267   5.550
 8722POPC   PO455452  39.998  32.201   5.850
 8722POPC   GL155453  39.981  32.202   6.150
 8722POPC   GL255454  40.105  32.341   6.150
 8722POPC   C1A55455  39.978  32.283   6.450
 8722POPC   D2A55456  39.984  32.245   6.750
 8722POPC   C3A55457  40.050  32.232   7.050
 8722POPC   C4A55458  40.056  32.202   7.350
 8722POPC   C1B55459  40.184  32.431   6.450
 8722POPC   C2B55460  40.151  32.417   6.750
 8722POPC   C3B55461  40.142  32.401   7.050
 8722POPC   C4B55462  40.183  32.470   7.350
 8723POPC   NC355463  18.263  37.698   5.550
 8723POPC   PO455464  18.293  37.694   5.850
 8723POPC   GL155465  18.289  37.637   6.150
 8723POPC   GL255466  18.287  37.851   6.150
 8723POPC   C1A55467  18.284  37.658   6.450
 8723POPC   D2A55468  18.235  37.711   6.750
 8723POPC   C3A55469  18.280  37.650   7.050
 8723POPC   C4A55470  18.300  37.716   7.350
 8723POPC   C1B55471  18.233  37.888   6.450
 8723POPC   C2B55472  18.316  37.931   6.750
 8723POPC   C3B55473  18.310  37.885   7.050
 8723POPC   C4B55474  18.241  37.925   7.350
 8724POPC   NC355475  38.497  15.987   5.550
 8724POPC   PO455476  38.437  15.916   5.850
 8724POPC   GL155477  38.494  15.979   6.150
 8724POPC   GL255478  38.612  16.010   6.150
 8724POPC   C1A55479  38.433  15.964   6.450
 8724POPC   D2A55480  38.479  15.940   6.750
 8724POPC   C3A55481  38.426  15.982   7.050
 8724POPC   C4A55482  38.441  15.944   7.350
 8724POPC   C1B55483  38.737  15.982   6.450
 8724POPC   C2B55484  38.728  15.994   6.750
 8724POPC   C3B55485  38.701  15.927   7.050
 8724POPC   C4B55486  38.655  15.928   7.350
 8725POPC   NC355487  39.249  32.276   5.550
 8725POPC   PO455488  39.270  32.273   5.850
 8725POPC   GL155489  39.226  32.276   6.150
 8725POPC   GL255490  39.184  32.318   6.150
 8725POPC   C1A55491  39.217  32.296   6.450
 8725POPC   D2A55492  39.223  32.214   6.750
 8725POPC   C3A55493  39.236  32.208   7.050
 8725POPC   C4A55494  39.223  32.263   7.350
 8725POPC   C1B55495  39.055  32.415   6.450
 8725POPC   C2B55496  39.016  32.393   6.750
 8725POPC   C3B55497  39.024  32.413   7.050
 8725POPC   C4B55498  39.098  32.439   7.350
 8726POPC   NC355499  11.280  32.251   5.550
 8726POPC   PO455500  11.281  32.284   5.850
 8726POPC   GL155501  11.268  32.290   6.150
 8726POPC   GL255502  11.253  32.317   6.150
 8726POPC   C1A55503  11.264  32.202   6.450
 8726POPC   D2A55504  11.283  32.218   6.750
 8726POPC   C3A55505  11.347  32.291   7.050
 8726POPC   C4A55506  11.267  32.280   7.350
 8726POPC   C1B55507  11.176  32.443   6.450
 8726POPC   C2B55508  11.172  32.411   6.750
 8726POPC   C3B55509  11.146  32.427   7.050
 8726POPC   C4B55510  11.087  32.479   7.350
 8727POPC   NC355511   2.756  43.126   5.550
 8727POPC   PO455512   2.808  43.106   5.850
 8727POPC   GL155513   2.800  43.106   6.150
 8727POPC   GL255514   2.634  43.037   6.150
 8727POPC   C1A55515   2.809  43.071   6.450
 8727POPC   D2A55516   2.774  43.148   6.750
 8727POPC   C3A55517   2.784  43.070   7.050
 8727POPC   C4A55518   2.809  43.129   7.350
 8727POPC   C1B55519   2.568  42.879   6.450
 8727POPC   C2B55520   2.577  42.897   6.750
 8727POPC   C3B55521   2.622  42.965   7.050
 8727POPC   C4B55522   2.623  42.939   7.350
 8728POPC   NC355523  24.474   5.067   5.550
 8728POPC   PO455524  24.529   5.095   5.850
 8728POPC   GL155525  24.498   5.077   6.150
 8728POPC   GL255526  24.612   5.104   6.150
 8728POPC   C1A55527  24.459   5.053   6.450
 8728POPC   D2A55528  24.487   5.136   6.750
 8728POPC   C3A55529  24.441   5.126   7.050
 8728POPC   C4A55530  24.461   5.123   7.350
 8728POPC   C1B55531  24.715   5.087   6.450
 8728POPC   C2B55532  24.734   5.084   6.750
 8728POPC   C3B55533  24.775   5.117   7.050
 8728POPC   C4B55534  24.746   5.055   7.350
 8729POPC   NC355535  39.970  15.945   5.550
 8729POPC   PO455536  40.028  15.931   5.850
 8729POPC   GL155537  39.961  15.995   6.150
 8729POPC   GL255538  40.002  15.886   6.150
 8729POPC   C1A55539  39.991  15.963   6.450
 8729POPC   D2A55540  39.967  15.999   6.750
 8729POPC   C3A55541  39.976  15.968   7.050
 8729POPC   C4A55542  40.037  15.917   7.350
 8729POPC   C1B55543  39.903  15.730   6.450
 8729POPC   C2B55544  39.908  15.716   6.750
 8729POPC   C3B55545  39.866  15.757   7.050
 8729POPC   C4B55546  39.853  15.726   7.350
 8730POPC   NC355547  12.034  32.226   5.550
 8730POPC   PO455548  12.119  32.279   5.850
 8730POPC   GL155549  12.113  32.202   6.150
 8730POPC   GL255550  12.195  32.336   6.150
 8730POPC   C1A55551  12.081  32.249   6.450
 8730POPC   D2A55552  12.045  32.226   6.750
 8730POPC   C3A55553  12.099  32.266   7.050
 8730POPC   C4A55554  12.099  32.205   7.350
 8730POPC   C1B55555  12.219  32.385   6.450
 8730POPC   C2B55556  12.229  32.398   6.750
 8730POPC   C3B55557  12.255  32.365   7.050
 8730POPC   C4B55558  12.227  32.395   7.350
 8731POPC   NC355559  41.525  37.705   5.550
 8731POPC   PO455560  41.550  37.681   5.850
 8731POPC   GL155561  41.566  37.711   6.150
 8731POPC   GL255562  41.700  37.637   6.150
 8731POPC   C1A55563  41.582  37.678   6.450
 8731POPC   D2A55564  41.535  37.669   6.750
 8731POPC   C3A55565  41.577  37.686   7.050
 8731POPC   C4A55566  41.525  37.699   7.350
 8731POPC   C1B55567  41.785  37.656   6.450
 8731POPC   C2B55568  41.796  37.619   6.750
 8731POPC   C3B55569  41.818  37.621   7.050
 8731POPC   C4B55570  41.781  37.625   7.350
 8732POPC   NC355571  40.824  41.566   5.550
 8732POPC   PO455572  40.766  41.608   5.850
 8732POPC   GL155573  40.755  41.555   6.150
 8732POPC   GL255574  40.835  41.439   6.150
 8732POPC   C1A55575  40.771  41.544   6.450
 8732POPC   D2A55576  40.748  41.516   6.750
 8732POPC   C3A55577  40.807  41.532   7.050
 8732POPC   C4A55578  40.808  41.514   7.350
 8732POPC   C1B55579  40.859  41.285   6.450
 8732POPC   C2B55580  40.903  41.328   6.750
 8732POPC   C3B55581  40.937  41.314   7.050
 8732POPC   C4B55582  40.918  41.289   7.350
 8733POPC   NC355583  31.486  16.684   5.550
 8733POPC   PO455584  31.486  16.717   5.850
 8733POPC   GL155585  31.509  16.728   6.150
 8733POPC   GL255586  31.459  16.843   6.150
 8733POPC   C1A55587  31.453  16.712   6.450
 8733POPC   D2A55588  31.456  16.702   6.750
 8733POPC   C3A55589  31.504  16.753   7.050
 8733POPC   C4A55590  31.467  16.685   7.350
 8733POPC   C1B55591  31.529  16.981   6.450
 8733POPC   C2B55592  31.541  16.996   6.750
 8733POPC   C3B55593  31.550  16.944   7.050
 8733POPC   C4B55594  31.501  16.980   7.350
 8734POPC   NC355595  43.060  26.785   5.550
 8734POPC   PO455596  43.102  26.776   5.850
 8734POPC   GL155597  43.112  26.850   6.150
 8734POPC   GL255598  42.991  26.871   6.150
 8734POPC   C1A55599  43.157  26.807   6.450
 8734POPC   D2A55600  43.144  26.793   6.750
 8734POPC   C3A55601  43.080  26.795   7.050
 8734POPC   C4A55602  43.074  26.770   7.350
 8734POPC   C1B55603  42.827  26.868   6.450
 8734POPC   C2B55604  42.877  26.871   6.750
 8734POPC   C3B55605  42.833  26.879   7.050
 8734POPC   C4B55606  42.905  26.859   7.350
 8735POPC   NC355607  20.624  22.183   5.550
 8735POPC   PO455608  20.651  22.162   5.850
 8735POPC   GL155609  20.618  22.203   6.150
 8735POPC   GL255610  20.492  22.167   6.150
 8735POPC   C1A55611  20.609  22.194   6.450
 8735POPC   D2A55612  20.619  22.186   6.750
 8735POPC   C3A55613  20.645  22.204   7.050
 8735POPC   C4A55614  20.615  22.137   7.350
 8735POPC   C1B55615  20.343  22.163   6.450
 8735POPC   C2B55616  20.364  22.222   6.750
 8735POPC   C3B55617  20.402  22.193   7.050
 8735POPC   C4B55618  20.379  22.191   7.350
 8736POPC   NC355619   8.151  44.613   5.550
 8736POPC   PO455620   8.219  44.644   5.850
 8736POPC   GL155621   8.245  44.698   6.150
 8736POPC   GL255622   8.237  44.503   6.150
 8736POPC   C1A55623   8.197  44.628   6.450
 8736POPC   D2A55624   8.213  44.697   6.750
 8736POPC   C3A55625   8.162  44.631   7.050
 8736POPC   C4A55626   8.183  44.694   7.350
 8736POPC   C1B55627   8.334  44.478   6.450
 8736POPC   C2B55628   8.283  44.425   6.750
 8736POPC   C3B55629   8.285  44.484   7.050
 8736POPC   C4B55630   8.269  44.409   7.350
 8737POPC   NC355631  43.159   5.067   5.550
 8737POPC   PO455632  43.123   5.081   5.850
 8737POPC   GL155633  43.132   5.103   6.150
 8737POPC   GL255634  43.075   5.191   6.150
 8737POPC   C1A55635  43.101   5.050   6.450
 8737POPC   D2A55636  43.061   5.133   6.750
 8737POPC   C3A55637  43.150   5.045   7.050
 8737POPC   C4A55638  43.132   5.089   7.350
 8737POPC   C1B55639  42.982   5.332   6.450
 8737POPC   C2B55640  42.972   5.321   6.750
 8737POPC   C3B55641  42.968   5.308   7.050
 8737POPC   C4B55642  42.996   5.304   7.350
 8738POPC   NC355643   8.974  31.499   5.550
 8738POPC   PO455644   8.957  31.482   5.850
 8738POPC   GL155645   8.942  31.479   6.150
 8738POPC   GL255646   9.047  31.308   6.150
 8738POPC   C1A55647   8.991  31.485   6.450
 8738POPC   D2A55648   8.963  31.478   6.750
 8738POPC   C3A55649   8.982  31.519   7.050
 8738POPC   C4A55650   8.923  31.500   7.350
 8738POPC   C1B55651   9.039  31.262   6.450
 8738POPC   C2B55652   9.042  31.240   6.750
 8738POPC   C3B55653   9.085  31.240   7.050
 8738POPC   C4B55654   9.051  31.202   7.350
 8739POPC   NC355655  15.993  27.588   5.550
 8739POPC   PO455656  15.995  27.583   5.850
 8739POPC   GL155657  15.988  27.546   6.150
 8739POPC   GL255658  15.837  27.592   6.150
 8739POPC   C1A55659  15.967  27.558   6.450
 8739POPC   D2A55660  15.957  27.559   6.750
 8739POPC   C3A55661  15.982  27.582   7.050
 8739POPC   C4A55662  15.991  27.611   7.350
 8739POPC   C1B55663  15.755  27.573   6.450
 8739POPC   C2B55664  15.693  27.552   6.750
 8739POPC   C3B55665  15.727  27.524   7.050
 8739POPC   C4B55666  15.726  27.616   7.350
 8740POPC   NC355667   2.766  36.096   5.550
 8740POPC   PO455668   2.783  36.152   5.850
 8740POPC   GL155669   2.791  36.177   6.150
 8740POPC   GL255670   2.861  36.190   6.150
 8740POPC   C1A55671   2.725  36.094   6.450
 8740POPC   D2A55672   2.806  36.086   6.750
 8740POPC   C3A55673   2.790  36.148   7.050
 8740POPC   C4A55674   2.809  36.165   7.350
 8740POPC   C1B55675   3.016  36.111   6.450
 8740POPC   C2B55676   3.043  36.119   6.750
 8740POPC   C3B55677   3.026  36.169   7.050
 8740POPC   C4B55678   3.048  36.188   7.350
 8741POPC   NC355679  19.796  44.632   5.550
 8741POPC   PO455680  19.799  44.672   5.850
 8741POPC   GL155681  19.847  44.627   6.150
 8741POPC   GL255682  19.754  44.646   6.150
 8741POPC   C1A55683  19.860  44.712   6.450
 8741POPC   D2A55684  19.845  44.625   6.750
 8741POPC   C3A55685  19.863  44.625   7.050
 8741POPC   C4A55686  19.841  44.659   7.350
 8741POPC   C1B55687  19.591  44.595   6.450
 8741POPC   C2B55688  19.647  44.570   6.750
 8741POPC   C3B55689  19.599  44.509   7.050
 8741POPC   C4B55690  19.579  44.526   7.350
 8742POPC   NC355691  38.478   5.878   5.550
 8742POPC   PO455692  38.440   5.845   5.850
 8742POPC   GL155693  38.454   5.895   6.150
 8742POPC   GL255694  38.344   5.932   6.150
 8742POPC   C1A55695  38.479   5.836   6.450
 8742POPC   D2A55696  38.468   5.847   6.750
 8742POPC   C3A55697  38.415   5.906   7.050
 8742POPC   C4A55698  38.431   5.872   7.350
 8742POPC   C1B55699  38.193   5.893   6.450
 8742POPC   C2B55700  38.163   5.853   6.750
 8742POPC   C3B55701  38.231   5.896   7.050
 8742POPC   C4B55702  38.236   5.889   7.350
 8743POPC   NC355703   8.231   5.866   5.550
 8743POPC   PO455704   8.204   5.896   5.850
 8743POPC   GL155705   8.168   5.836   6.150
 8743POPC   GL255706   8.125   5.938   6.150
 8743POPC   C1A55707   8.192   5.865   6.450
 8743POPC   D2A55708   8.223   5.833   6.750
 8743POPC   C3A55709   8.161   5.842   7.050
 8743POPC   C4A55710   8.241   5.857   7.350
 8743POPC   C1B55711   8.087   6.120   6.450
 8743POPC   C2B55712   8.090   6.073   6.750
 8743POPC   C3B55713   8.004   6.036   7.050
 8743POPC   C4B55714   8.055   6.087   7.350
 8744POPC   NC355715   3.591  41.560   5.550
 8744POPC   PO455716   3.542  41.557   5.850
 8744POPC   GL155717   3.541  41.586   6.150
 8744POPC   GL255718   3.648  41.665   6.150
 8744POPC   C1A55719   3.507  41.550   6.450
 8744POPC   D2A55720   3.586  41.586   6.750
 8744POPC   C3A55721   3.509  41.526   7.050
 8744POPC   C4A55722   3.584  41.588   7.350
 8744POPC   C1B55723   3.720  41.687   6.450
 8744POPC   C2B55724   3.746  41.677   6.750
 8744POPC   C3B55725   3.732  41.685   7.050
 8744POPC   C4B55726   3.746  41.721   7.350
 8745POPC   NC355727  29.183  21.391   5.550
 8745POPC   PO455728  29.097  21.426   5.850
 8745POPC   GL155729  29.157  21.379   6.150
 8745POPC   GL255730  29.069  21.302   6.150
 8745POPC   C1A55731  29.133  21.364   6.450
 8745POPC   D2A55732  29.136  21.385   6.750
 8745POPC   C3A55733  29.156  21.399   7.050
 8745POPC   C4A55734  29.105  21.374   7.350
 8745POPC   C1B55735  29.005  21.210   6.450
 8745POPC   C2B55736  29.003  21.155   6.750
 8745POPC   C3B55737  28.954  21.210   7.050
 8745POPC   C4B55738  28.978  21.174   7.350
 8746POPC   NC355739  19.076  19.854   5.550
 8746POPC   PO455740  19.021  19.828   5.850
 8746POPC   GL155741  19.009  19.866   6.150
 8746POPC   GL255742  19.134  19.678   6.150
 8746POPC   C1A55743  19.089  19.873   6.450
 8746POPC   D2A55744  19.013  19.859   6.750
 8746POPC   C3A55745  19.049  19.797   7.050
 8746POPC   C4A55746  19.094  19.823   7.350
 8746POPC   C1B55747  19.187  19.575   6.450
 8746POPC   C2B55748  19.154  19.653   6.750
 8746POPC   C3B55749  19.205  19.642   7.050
 8746POPC   C4B55750  19.201  19.618   7.350
 8747POPC   NC355751   1.972   7.458   5.550
 8747POPC   PO455752   1.944   7.468   5.850
 8747POPC   GL155753   2.015   7.427   6.150
 8747POPC   GL255754   1.882   7.532   6.150
 8747POPC   C1A55755   2.011   7.419   6.450
 8747POPC   D2A55756   1.948   7.371   6.750
 8747POPC   C3A55757   1.994   7.435   7.050
 8747POPC   C4A55758   2.004   7.447   7.350
 8747POPC   C1B55759   1.855   7.590   6.450
 8747POPC   C2B55760   1.816   7.593   6.750
 8747POPC   C3B55761   1.835   7.588   7.050
 8747POPC   C4B55762   1.822   7.581   7.350
 8748POPC   NC355763  36.138  31.505   5.550
 8748POPC   PO455764  36.140  31.443   5.850
 8748POPC   GL155765  36.176  31.441   6.150
 8748POPC   GL255766  36.000  31.492   6.150
 8748POPC   C1A55767  36.134  31.464   6.450
 8748POPC   D2A55768  36.103  31.423   6.750
 8748POPC   C3A55769  36.153  31.448   7.050
 8748POPC   C4A55770  36.123  31.519   7.350
 8748POPC   C1B55771  35.925  31.439   6.450
 8748POPC   C2B55772  35.859  31.427   6.750
 8748POPC   C3B55773  35.893  31.500   7.050
 8748POPC   C4B55774  35.845  31.426   7.350
 8749POPC   NC355775  22.134  29.874   5.550
 8749POPC   PO455776  22.129  29.936   5.850
 8749POPC   GL155777  22.141  29.893   6.150
 8749POPC   GL255778  22.059  29.836   6.150
 8749POPC   C1A55779  22.198  29.953   6.450
 8749POPC   D2A55780  22.174  29.948   6.750
 8749POPC   C3A55781  22.198  29.896   7.050
 8749POPC   C4A55782  22.208  29.909   7.350
 8749POPC   C1B55783  21.925  29.802   6.450
 8749POPC   C2B55784  21.903  29.894   6.750
 8749POPC   C3B55785  21.942  29.829   7.050
 8749POPC   C4B55786  21.952  29.888   7.350
 8750POPC   NC355787  43.063  10.543   5.550
 8750POPC   PO455788  43.115  10.531   5.850
 8750POPC   GL155789  43.157  10.564   6.150
 8750POPC   GL255790  43.132  10.411   6.150
 8750POPC   C1A55791  43.126  10.564   6.450
 8750POPC   D2A55792  43.068  10.538   6.750
 8750POPC   C3A55793  43.125  10.562   7.050
 8750POPC   C4A55794  43.103  10.563   7.350
 8750POPC   C1B55795  43.215  10.338   6.450
 8750POPC   C2B55796  43.209  10.314   6.750
 8750POPC   C3B55797  43.270  10.360   7.050
 8750POPC   C4B55798  43.278  10.315   7.350
 8751POPC   NC355799   7.439  33.788   5.550
 8751POPC   PO455800   7.450  33.763   5.850
 8751POPC   GL155801   7.447  33.754   6.150
 8751POPC   GL255802   7.476  33.953   6.150
 8751POPC   C1A55803   7.387  33.782   6.450
 8751POPC   D2A55804   7.376  33.799   6.750
 8751POPC   C3A55805   7.403  33.834   7.050
 8751POPC   C4A55806   7.416  33.788   7.350
 8751POPC   C1B55807   7.482  34.082   6.450
 8751POPC   C2B55808   7.446  34.027   6.750
 8751POPC   C3B55809   7.487  34.020   7.050
 8751POPC   C4B55810   7.450  34.084   7.350
 8752POPC   NC355811  35.388  33.807   5.550
 8752POPC   PO455812  35.382  33.842   5.850
 8752POPC   GL155813  35.387  33.820   6.150
 8752POPC   GL255814  35.207  33.825   6.150
 8752POPC   C1A55815  35.386  33.780   6.450
 8752POPC   D2A55816  35.328  33.781   6.750
 8752POPC   C3A55817  35.375  33.838   7.050
 8752POPC   C4A55818  35.332  33.778   7.350
 8752POPC   C1B55819  35.059  33.787   6.450
 8752POPC   C2B55820  35.116  33.762   6.750
 8752POPC   C3B55821  35.071  33.831   7.050
 8752POPC   C4B55822  35.059  33.858   7.350
 8753POPC   NC355823  22.976  36.152   5.550
 8753POPC   PO455824  22.959  36.142   5.850
 8753POPC   GL155825  22.895  36.104   6.150
 8753POPC   GL255826  22.803  36.065   6.150
 8753POPC   C1A55827  22.914  36.160   6.450
 8753POPC   D2A55828  22.987  36.092   6.750
 8753POPC   C3A55829  22.944  36.107   7.050
 8753POPC   C4A55830  22.982  36.137   7.350
 8753POPC   C1B55831  22.801  35.906   6.450
 8753POPC   C2B55832  22.741  35.976   6.750
 8753POPC   C3B55833  22.758  35.905   7.050
 8753POPC   C4B55834  22.743  35.938   7.350
 8754POPC   NC355835  21.363  16.779   5.550
 8754POPC   PO455836  21.394  16.737   5.850
 8754POPC   GL155837  21.426  16.684   6.150
 8754POPC   GL255838  21.491  16.752   6.150
 8754POPC   C1A55839  21.368  16.772   6.450
 8754POPC   D2A55840  21.373  16.755   6.750
 8754POPC   C3A55841  21.431  16.713   7.050
 8754POPC   C4A55842  21.363  16.739   7.350
 8754POPC   C1B55843  21.663  16.737   6.450
 8754POPC   C2B55844  21.610  16.758   6.750
 8754POPC   C3B55845  21.640  16.795   7.050
 8754POPC   C4B55846  21.615  16.755   7.350
 8755POPC   NC355847  25.292  26.025   5.550
 8755POPC   PO455848  25.296  25.997   5.850
 8755POPC   GL155849  25.291  26.056   6.150
 8755POPC   GL255850  25.189  26.001   6.150
 8755POPC   C1A55851  25.260  26.043   6.450
 8755POPC   D2A55852  25.269  26.058   6.750
 8755POPC   C3A55853  25.298  26.008   7.050
 8755POPC   C4A55854  25.289  26.014   7.350
 8755POPC   C1B55855  25.037  25.966   6.450
 8755POPC   C2B55856  25.059  25.977   6.750
 8755POPC   C3B55857  25.067  26.011   7.050
 8755POPC   C4B55858  25.042  25.972   7.350
 8756POPC   NC355859  12.888   6.612   5.550
 8756POPC   PO455860  12.889   6.646   5.850
 8756POPC   GL155861  12.874   6.672   6.150
 8756POPC   GL255862  12.816   6.731   6.150
 8756POPC   C1A55863  12.852   6.619   6.450
 8756POPC   D2A55864  12.854   6.695   6.750
 8756POPC   C3A55865  12.844   6.647   7.050
 8756POPC   C4A55866  12.861   6.686   7.350
 8756POPC   C1B55867  12.814   6.937   6.450
 8756POPC   C2B55868  12.851   6.938   6.750
 8756POPC   C3B55869  12.802   6.929   7.050
 8756POPC   C4B55870  12.800   6.888   7.350
 8757POPC   NC355871   7.426   8.956   5.550
 8757POPC   PO455872   7.417   8.954   5.850
 8757POPC   GL155873   7.464   8.986   6.150
 8757POPC   GL255874   7.450   8.877   6.150
 8757POPC   C1A55875   7.422   8.993   6.450
 8757POPC   D2A55876   7.386   8.992   6.750
 8757POPC   C3A55877   7.443   9.006   7.050
 8757POPC   C4A55878   7.459   8.964   7.350
 8757POPC   C1B55879   7.380   8.700   6.450
 8757POPC   C2B55880   7.391   8.770   6.750
 8757POPC   C3B55881   7.353   8.730   7.050
 8757POPC   C4B55882   7.426   8.762   7.350
 8758POPC   NC355883   0.392  32.205   5.550
 8758POPC   PO455884   0.476  32.237   5.850
 8758POPC   GL155885   0.402  32.260   6.150
 8758POPC   GL255886   0.434  32.169   6.150
 8758POPC   C1A55887   0.391  32.212   6.450
 8758POPC   D2A55888   0.445  32.267   6.750
 8758POPC   C3A55889   0.394  32.290   7.050
 8758POPC   C4A55890   0.406  32.249   7.350
 8758POPC   C1B55891   0.493  32.048   6.450
 8758POPC   C2B55892   0.426  32.036   6.750
 8758POPC   C3B55893   0.474  31.977   7.050
 8758POPC   C4B55894   0.417  32.044   7.350
 8759POPC   NC355895  15.988  29.909   5.550
 8759POPC   PO455896  15.985  29.958   5.850
 8759POPC   GL155897  15.968  29.935   6.150
 8759POPC   GL255898  16.041  29.980   6.150
 8759POPC   C1A55899  15.917  29.940   6.450
 8759POPC   D2A55900  15.994  29.947   6.750
 8759POPC   C3A55901  15.915  29.936   7.050
 8759POPC   C4A55902  15.981  29.970   7.350
 8759POPC   C1B55903  16.117  30.048   6.450
 8759POPC   C2B55904  16.163  30.125   6.750
 8759POPC   C3B55905  16.181  30.119   7.050
 8759POPC   C4B55906  16.100  30.115   7.350
 8760POPC   NC355907  12.031  37.662   5.550
 8760POPC   PO455908  12.076  37.697   5.850
 8760POPC   GL155909  12.046  37.671   6.150
 8760POPC   GL255910  12.109  37.851   6.150
 8760POPC   C1A55911  12.028  37.677   6.450
 8760POPC   D2A55912  12.099  37.672   6.750
 8760POPC   C3A55913  12.105  37.706   7.050
 8760POPC   C4A55914  12.057  37.699   7.350
 8760POPC   C1B55915  12.040  37.922   6.450
 8760POPC   C2B55916  12.115  37.907   6.750
 8760POPC   C3B55917  12.028  37.965   7.050
 8760POPC   C4B55918  12.087  37.897   7.350
 8761POPC   NC355919   5.065  19.106   5.550
 8761POPC   PO455920   5.048  19.066   5.850
 8761POPC   GL155921   5.097  19.090   6.150
 8761POPC   GL255922   5.072  18.937   6.150
 8761POPC   C1A55923   5.068  19.041   6.450
 8761POPC   D2A55924   5.127  19.108   6.750
 8761POPC   C3A55925   5.114  19.018   7.050
 8761POPC   C4A55926   5.074  19.044   7.350
 8761POPC   C1B55927   5.071  18.803   6.450
 8761POPC   C2B55928   5.064  18.816   6.750
 8761POPC   C3B55929   5.139  18.813   7.050
 8761POPC   C4B55930   5.111  18.810   7.350
 8762POPC   NC355931  26.839  29.098   5.550
 8762POPC   PO455932  26.861  29.114   5.850
 8762POPC   GL155933  26.832  29.149   6.150
 8762POPC   GL255934  26.662  29.213   6.150
 8762POPC   C1A55935  26.848  29.149   6.450
 8762POPC   D2A55936  26.779  29.119   6.750
 8762POPC   C3A55937  26.845  29.188   7.050
 8762POPC   C4A55938  26.819  29.146   7.350
 8762POPC   C1B55939  26.571  29.219   6.450
 8762POPC   C2B55940  26.550  29.230   6.750
 8762POPC   C3B55941  26.587  29.179   7.050
 8762POPC   C4B55942  26.602  29.159   7.350
 8763POPC   NC355943  14.426   5.840   5.550
 8763POPC   PO455944  14.443   5.875   5.850
 8763POPC   GL155945  14.416   5.898   6.150
 8763POPC   GL255946  14.513   5.943   6.150
 8763POPC   C1A55947  14.388   5.898   6.450
 8763POPC   D2A55948  14.437   5.856   6.750
 8763POPC   C3A55949  14.440   5.905   7.050
 8763POPC   C4A55950  14.404   5.848   7.350
 8763POPC   C1B55951  14.587   6.053   6.450
 8763POPC   C2B55952  14.584   6.069   6.750
 8763POPC   C3B55953  14.567   6.009   7.050
 8763POPC   C4B55954  14.554   6.043   7.350
 8764POPC   NC355955  19.106   9.717   5.550
 8764POPC   PO455956  19.045   9.734   5.850
 8764POPC   GL155957  19.106   9.714   6.150
 8764POPC   GL255958  18.960   9.708   6.150
 8764POPC   C1A55959  19.092   9.766   6.450
 8764POPC   D2A55960  19.089   9.792   6.750
 8764POPC   C3A55961  19.026   9.785   7.050
 8764POPC   C4A55962  19.089   9.723   7.350
 8764POPC   C1B55963  18.846   9.590   6.450
 8764POPC   C2B55964  18.833   9.647   6.750
 8764POPC   C3B55965  18.792   9.583   7.050
 8764POPC   C4B55966  18.863   9.612   7.350
 8765POPC   NC355967  12.081  39.976   5.550
 8765POPC   PO455968  12.102  39.975   5.850
 8765POPC   GL155969  12.111  40.042   6.150
 8765POPC   GL255970  12.045  40.155   6.150
 8765POPC   C1A55971  12.106  40.049   6.450
 8765POPC   D2A55972  12.027  39.991   6.750
 8765POPC   C3A55973  12.060  40.032   7.050
 8765POPC   C4A55974  12.074  40.041   7.350
 8765POPC   C1B55975  12.032  40.293   6.450
 8765POPC   C2B55976  11.959  40.217   6.750
 8765POPC   C3B55977  12.022  40.241   7.050
 8765POPC   C4B55978  12.050  40.198   7.350
 8766POPC   NC355979  44.648  36.885   5.550
 8766POPC   PO455980  44.616  36.882   5.850
 8766POPC   GL155981  44.638  36.905   6.150
 8766POPC   GL255982  44.567  36.783   6.150
 8766POPC   C1A55983  44.645  36.945   6.450
 8766POPC   D2A55984  44.633  36.879   6.750
 8766POPC   C3A55985  44.658  36.895   7.050
 8766POPC   C4A55986  44.632  36.875   7.350
 8766POPC   C1B55987  44.562  36.630   6.450
 8766POPC   C2B55988  44.508  36.650   6.750
 8766POPC   C3B55989  44.558  36.715   7.050
 8766POPC   C4B55990  44.537  36.702   7.350
 8767POPC   NC355991   5.048  12.072   5.550
 8767POPC   PO455992   5.050  12.123   5.850
 8767POPC   GL155993   5.053  12.122   6.150
 8767POPC   GL255994   4.947  11.977   6.150
 8767POPC   C1A55995   5.136  12.122   6.450
 8767POPC   D2A55996   5.130  12.091   6.750
 8767POPC   C3A55997   5.110  12.043   7.050
 8767POPC   C4A55998   5.125  12.089   7.350
 8767POPC   C1B55999   4.888  11.944   6.450
 8767POPC   C2B56000   4.903  11.946   6.750
 8767POPC   C3B56001   4.837  11.910   7.050
 8767POPC   C4B56002   4.916  11.961   7.350
 8768POPC   NC356003   5.883   8.197   5.550
 8768POPC   PO456004   5.874   8.183   5.850
 8768POPC   GL156005   5.907   8.163   6.150
 8768POPC   GL256006   5.790   8.073   6.150
 8768POPC   C1A56007   5.823   8.211   6.450
 8768POPC   D2A56008   5.877   8.147   6.750
 8768POPC   C3A56009   5.831   8.213   7.050
 8768POPC   C4A56010   5.871   8.188   7.350
 8768POPC   C1B56011   5.821   7.952   6.450
 8768POPC   C2B56012   5.736   7.981   6.750
 8768POPC   C3B56013   5.814   7.978   7.050
 8768POPC   C4B56014   5.802   7.951   7.350
 8769POPC   NC356015   3.560  17.544   5.550
 8769POPC   PO456016   3.522  17.466   5.850
 8769POPC   GL156017   3.545  17.517   6.150
 8769POPC   GL256018   3.389  17.515   6.150
 8769POPC   C1A56019   3.584  17.526   6.450
 8769POPC   D2A56020   3.516  17.469   6.750
 8769POPC   C3A56021   3.531  17.472   7.050
 8769POPC   C4A56022   3.548  17.538   7.350
 8769POPC   C1B56023   3.317  17.473   6.450
 8769POPC   C2B56024   3.345  17.444   6.750
 8769POPC   C3B56025   3.337  17.437   7.050
 8769POPC   C4B56026   3.354  17.453   7.350
 8770POPC   NC356027  32.985  31.449   5.550
 8770POPC   PO456028  33.033  31.424   5.850
 8770POPC   GL156029  33.011  31.464   6.150
 8770POPC   GL256030  32.956  31.618   6.150
 8770POPC   C1A56031  33.003  31.431   6.450
 8770POPC   D2A56032  33.011  31.522   6.750
 8770POPC   C3A56033  33.074  31.473   7.050
 8770POPC   C4A56034  33.021  31.521   7.350
 8770POPC   C1B56035  32.906  31.679   6.450
 8770POPC   C2B56036  32.930  31.667   6.750
 8770POPC   C3B56037  32.959  31.665   7.050
 8770POPC   C4B56038  32.905  31.689   7.350
 8771POPC   NC356039  21.407  44.709   5.550
 8771POPC   PO456040  21.433  44.648   5.850
 8771POPC   GL156041  21.376  44.703   6.150
 8771POPC   GL256042  21.221  44.732   6.150
 8771POPC   C1A56043  21.357  44.641   6.450
 8771POPC   D2A56044  21.420  44.629   6.750
 8771POPC   C3A56045  21.422  44.620   7.050
 8771POPC   C4A56046  21.404  44.642   7.350
 8771POPC   C1B56047  21.177  44.722   6.450
 8771POPC   C2B56048  21.158  44.808   6.750
 8771POPC   C3B56049  21.176  44.782   7.050
 8771POPC   C4B56050  21.115  44.774   7.350
 8772POPC   NC356051  26.863  38.436   5.550
 8772POPC   PO456052  26.818  38.450   5.850
 8772POPC   GL156053  26.819  38.435   6.150
 8772POPC   GL256054  26.732  38.354   6.150
 8772POPC   C1A56055  26.812  38.489   6.450
 8772POPC   D2A56056  26.839  38.430   6.750
 8772POPC   C3A56057  26.775  38.420   7.050
 8772POPC   C4A56058  26.787  38.491   7.350
 8772POPC   C1B56059  26.679  38.220   6.450
 8772POPC   C2B56060  26.718  38.225   6.750
 8772POPC   C3B56061  26.662  38.269   7.050
 8772POPC   C4B56062  26.707  38.203   7.350
 8773POPC   NC356063   7.379  31.492   5.550
 8773POPC   PO456064   7.460  31.484   5.850
 8773POPC   GL156065   7.410  31.511   6.150
 8773POPC   GL256066   7.349  31.504   6.150
 8773POPC   C1A56067   7.465  31.468   6.450
 8773POPC   D2A56068   7.402  31.483   6.750
 8773POPC   C3A56069   7.407  31.502   7.050
 8773POPC   C4A56070   7.418  31.427   7.350
 8773POPC   C1B56071   7.223  31.544   6.450
 8773POPC   C2B56072   7.176  31.551   6.750
 8773POPC   C3B56073   7.166  31.550   7.050
 8773POPC   C4B56074   7.149  31.619   7.350
 8774POPC   NC356075  22.909   3.525   5.550
 8774POPC   PO456076  22.969   3.516   5.850
 8774POPC   GL156077  22.898   3.543   6.150
 8774POPC   GL256078  23.086   3.478   6.150
 8774POPC   C1A56079  22.905   3.507   6.450
 8774POPC   D2A56080  22.922   3.584   6.750
 8774POPC   C3A56081  22.936   3.535   7.050
 8774POPC   C4A56082  22.901   3.553   7.350
 8774POPC   C1B56083  23.121   3.428   6.450
 8774POPC   C2B56084  23.164   3.480   6.750
 8774POPC   C3B56085  23.124   3.489   7.050
 8774POPC   C4B56086  23.195   3.410   7.350
 8775POPC   NC356087  25.238   9.794   5.550
 8775POPC   PO456088  25.221   9.759   5.850
 8775POPC   GL156089  25.230   9.715   6.150
 8775POPC   GL256090  25.269   9.835   6.150
 8775POPC   C1A56091  25.292   9.724   6.450
 8775POPC   D2A56092  25.288   9.741   6.750
 8775POPC   C3A56093  25.234   9.709   7.050
 8775POPC   C4A56094  25.301   9.783   7.350
 8775POPC   C1B56095  25.230   9.960   6.450
 8775POPC   C2B56096  25.224  10.044   6.750
 8775POPC   C3B56097  25.281   9.948   7.050
 8775POPC   C4B56098  25.185   9.981   7.350
 8776POPC   NC356099   9.723  42.378   5.550
 8776POPC   PO456100   9.755  42.332   5.850
 8776POPC   GL156101   9.701  42.341   6.150
 8776POPC   GL256102   9.822  42.239   6.150
 8776POPC   C1A56103   9.712  42.376   6.450
 8776POPC   D2A56104   9.700  42.365   6.750
 8776POPC   C3A56105   9.737  42.343   7.050
 8776POPC   C4A56106   9.751  42.309   7.350
 8776POPC   C1B56107   9.849  42.111   6.450
 8776POPC   C2B56108   9.884  42.156   6.750
 8776POPC   C3B56109   9.825  42.113   7.050
 8776POPC   C4B56110   9.896  42.094   7.350
 8777POPC   NC356111   3.562   7.444   5.550
 8777POPC   PO456112   3.556   7.467   5.850
 8777POPC   GL156113   3.510   7.463   6.150
 8777POPC   GL256114   3.642   7.502   6.150
 8777POPC   C1A56115   3.507   7.405   6.450
 8777POPC   D2A56116   3.553   7.435   6.750
 8777POPC   C3A56117   3.523   7.413   7.050
 8777POPC   C4A56118   3.520   7.391   7.350
 8777POPC   C1B56119   3.742   7.456   6.450
 8777POPC   C2B56120   3.807   7.443   6.750
 8777POPC   C3B56121   3.829   7.515   7.050
 8777POPC   C4B56122   3.746   7.505   7.350
 8778POPC   NC356123  28.334   9.707   5.550
 8778POPC   PO456124  28.381   9.707   5.850
 8778POPC   GL156125  28.331   9.713   6.150
 8778POPC   GL256126  28.307   9.652   6.150
 8778POPC   C1A56127  28.396   9.714   6.450
 8778POPC   D2A56128  28.409   9.758   6.750
 8778POPC   C3A56129  28.348   9.768   7.050
 8778POPC   C4A56130  28.384   9.702   7.350
 8778POPC   C1B56131  28.217   9.502   6.450
 8778POPC   C2B56132  28.243   9.544   6.750
 8778POPC   C3B56133  28.216   9.524   7.050
 8778POPC   C4B56134  28.204   9.600   7.350
 8779POPC   NC356135  13.644  28.394   5.550
 8779POPC   PO456136  13.661  28.330   5.850
 8779POPC   GL156137  13.649  28.414   6.150
 8779POPC   GL256138  13.558  28.514   6.150
 8779POPC   C1A56139  13.648  28.407   6.450
 8779POPC   D2A56140  13.633  28.382   6.750
 8779POPC   C3A56141  13.656  28.366   7.050
 8779POPC   C4A56142  13.630  28.326   7.350
 8779POPC   C1B56143  13.521  28.526   6.450
 8779POPC   C2B56144  13.432  28.520   6.750
 8779POPC   C3B56145  13.423  28.555   7.050
 8779POPC   C4B56146  13.496  28.594   7.350
 8780POPC   NC356147  35.362  19.792   5.550
 8780POPC   PO456148  35.384  19.874   5.850
 8780POPC   GL156149  35.376  19.788   6.150
 8780POPC   GL256150  35.266  19.839   6.150
 8780POPC   C1A56151  35.333  19.840   6.450
 8780POPC   D2A56152  35.340  19.853   6.750
 8780POPC   C3A56153  35.369  19.837   7.050
 8780POPC   C4A56154  35.324  19.808   7.350
 8780POPC   C1B56155  35.112  19.767   6.450
 8780POPC   C2B56156  35.127  19.806   6.750
 8780POPC   C3B56157  35.106  19.800   7.050
 8780POPC   C4B56158  35.060  19.799   7.350
 8781POPC   NC356159   8.203  20.602   5.550
 8781POPC   PO456160   8.153  20.634   5.850
 8781POPC   GL156161   8.184  20.570   6.150
 8781POPC   GL256162   8.126  20.512   6.150
 8781POPC   C1A56163   8.154  20.624   6.450
 8781POPC   D2A56164   8.154  20.575   6.750
 8781POPC   C3A56165   8.198  20.648   7.050
 8781POPC   C4A56166   8.236  20.588   7.350
 8781POPC   C1B56167   8.009  20.419   6.450
 8781POPC   C2B56168   8.063  20.463   6.750
 8781POPC   C3B56169   7.997  20.457   7.050
 8781POPC   C4B56170   8.071  20.478   7.350
 8782POPC   NC356171  12.089   7.404   5.550
 8782POPC   PO456172  12.120   7.457   5.850
 8782POPC   GL156173  12.080   7.396   6.150
 8782POPC   GL256174  12.190   7.354   6.150
 8782POPC   C1A56175  12.118   7.445   6.450
 8782POPC   D2A56176  12.051   7.378   6.750
 8782POPC   C3A56177  12.032   7.382   7.050
 8782POPC   C4A56178  12.066   7.402   7.350
 8782POPC   C1B56179  12.277   7.362   6.450
 8782POPC   C2B56180  12.372   7.333   6.750
 8782POPC   C3B56181  12.280   7.333   7.050
 8782POPC   C4B56182  12.294   7.378   7.350
 8783POPC   NC356183  36.866   9.765   5.550
 8783POPC   PO456184  36.926   9.701   5.850
 8783POPC   GL156185  36.895   9.728   6.150
 8783POPC   GL256186  36.913   9.865   6.150
 8783POPC   C1A56187  36.900   9.785   6.450
 8783POPC   D2A56188  36.908   9.731   6.750
 8783POPC   C3A56189  36.924   9.717   7.050
 8783POPC   C4A56190  36.857   9.738   7.350
 8783POPC   C1B56191  36.944  10.000   6.450
 8783POPC   C2B56192  36.922  10.013   6.750
 8783POPC   C3B56193  36.967   9.955   7.050
 8783POPC   C4B56194  36.916   9.978   7.350
 8784POPC   NC356195   3.548  26.059   5.550
 8784POPC   PO456196   3.550  25.999   5.850
 8784POPC   GL156197   3.535  26.046   6.150
 8784POPC   GL256198   3.546  26.168   6.150
 8784POPC   C1A56199   3.541  26.091   6.450
 8784POPC   D2A56200   3.557  26.006   6.750
 8784POPC   C3A56201   3.560  26.042   7.050
 8784POPC   C4A56202   3.569  26.078   7.350
 8784POPC   C1B56203   3.534  26.293   6.450
 8784POPC   C2B56204   3.536  26.291   6.750
 8784POPC   C3B56205   3.544  26.327   7.050
 8784POPC   C4B56206   3.512  26.321   7.350
 8785POPC   NC356207  43.856  36.910   5.550
 8785POPC   PO456208  43.878  36.908   5.850
 8785POPC   GL156209  43.930  36.897   6.150
 8785POPC   GL256210  43.887  36.741   6.150
 8785POPC   C1A56211  43.869  36.951   6.450
 8785POPC   D2A56212  43.902  36.893   6.750
 8785POPC   C3A56213  43.854  36.896   7.050
 8785POPC   C4A56214  43.857  36.942   7.350
 8785POPC   C1B56215  43.843  36.605   6.450
 8785POPC   C2B56216  43.832  36.675   6.750
 8785POPC   C3B56217  43.818  36.623   7.050
 8785POPC   C4B56218  43.840  36.642   7.350
 8786POPC   NC356219   8.978  26.787   5.550
 8786POPC   PO456220   8.965  26.824   5.850
 8786POPC   GL156221   9.000  26.842   6.150
 8786POPC   GL256222   9.039  26.703   6.150
 8786POPC   C1A56223   8.987  26.798   6.450
 8786POPC   D2A56224   8.944  26.778   6.750
 8786POPC   C3A56225   9.006  26.819   7.050
 8786POPC   C4A56226   8.981  26.847   7.350
 8786POPC   C1B56227   9.125  26.598   6.450
 8786POPC   C2B56228   9.124  26.616   6.750
 8786POPC   C3B56229   9.149  26.588   7.050
 8786POPC   C4B56230   9.068  26.620   7.350
 8787POPC   NC356231  35.309  15.202   5.550
 8787POPC   PO456232  35.386  15.140   5.850
 8787POPC   GL156233  35.315  15.171   6.150
 8787POPC   GL256234  35.466  15.194   6.150
 8787POPC   C1A56235  35.313  15.157   6.450
 8787POPC   D2A56236  35.345  15.202   6.750
 8787POPC   C3A56237  35.314  15.153   7.050
 8787POPC   C4A56238  35.330  15.195   7.350
 8787POPC   C1B56239  35.605  15.156   6.450
 8787POPC   C2B56240  35.591  15.231   6.750
 8787POPC   C3B56241  35.578  15.208   7.050
 8787POPC   C4B56242  35.584  15.201   7.350
 8788POPC   NC356243  14.448  22.923   5.550
 8788POPC   PO456244  14.400  22.936   5.850
 8788POPC   GL156245  14.370  22.919   6.150
 8788POPC   GL256246  14.447  22.825   6.150
 8788POPC   C1A56247  14.416  22.908   6.450
 8788POPC   D2A56248  14.422  22.894   6.750
 8788POPC   C3A56249  14.407  22.896   7.050
 8788POPC   C4A56250  14.423  22.979   7.350
 8788POPC   C1B56251  14.402  22.733   6.450
 8788POPC   C2B56252  14.372  22.686   6.750
 8788POPC   C3B56253  14.407  22.646   7.050
 8788POPC   C4B56254  14.405  22.659   7.350
 8789POPC   NC356255  43.146  19.805   5.550
 8789POPC   PO456256  43.113  19.808   5.850
 8789POPC   GL156257  43.090  19.881   6.150
 8789POPC   GL256258  43.203  19.938   6.150
 8789POPC   C1A56259  43.142  19.882   6.450
 8789POPC   D2A56260  43.118  19.803   6.750
 8789POPC   C3A56261  43.062  19.809   7.050
 8789POPC   C4A56262  43.120  19.870   7.350
 8789POPC   C1B56263  43.232  20.043   6.450
 8789POPC   C2B56264  43.196  20.029   6.750
 8789POPC   C3B56265  43.245  20.054   7.050
 8789POPC   C4B56266  43.227  20.040   7.350
 8790POPC   NC356267   5.106  30.673   5.550
 8790POPC   PO456268   5.140  30.649   5.850
 8790POPC   GL156269   5.080  30.700   6.150
 8790POPC   GL256270   5.177  30.812   6.150
 8790POPC   C1A56271   5.140  30.693   6.450
 8790POPC   D2A56272   5.051  30.663   6.750
 8790POPC   C3A56273   5.128  30.691   7.050
 8790POPC   C4A56274   5.123  30.698   7.350
 8790POPC   C1B56275   5.291  30.863   6.450
 8790POPC   C2B56276   5.307  30.849   6.750
 8790POPC   C3B56277   5.279  30.859   7.050
 8790POPC   C4B56278   5.229  30.833   7.350
 8791POPC   NC356279  14.441  29.908   5.550
 8791POPC   PO456280  14.388  29.957   5.850
 8791POPC   GL156281  14.431  29.871   6.150
 8791POPC   GL256282  14.482  29.810   6.150
 8791POPC   C1A56283  14.419  29.947   6.450
 8791POPC   D2A56284  14.431  29.928   6.750
 8791POPC   C3A56285  14.408  29.948   7.050
 8791POPC   C4A56286  14.452  29.875   7.350
 8791POPC   C1B56287  14.442  29.682   6.450
 8791POPC   C2B56288  14.488  29.721   6.750
 8791POPC   C3B56289  14.506  29.689   7.050
 8791POPC   C4B56290  14.443  29.649   7.350
 8792POPC   NC356291  29.170  33.808   5.550
 8792POPC   PO456292  29.096  33.783   5.850
 8792POPC   GL156293  29.125  33.773   6.150
 8792POPC   GL256294  29.270  33.821   6.150
 8792POPC   C1A56295  29.133  33.799   6.450
 8792POPC   D2A56296  29.189  33.846   6.750
 8792POPC   C3A56297  29.149  33.768   7.050
 8792POPC   C4A56298  29.096  33.766   7.350
 8792POPC   C1B56299  29.390  33.924   6.450
 8792POPC   C2B56300  29.388  33.861   6.750
 8792POPC   C3B56301  29.372  33.874   7.050
 8792POPC   C4B56302  29.337  33.927   7.350
 8793POPC   NC356303  39.980  43.142   5.550
 8793POPC   PO456304  40.028  43.095   5.850
 8793POPC   GL156305  40.030  43.066   6.150
 8793POPC   GL256306  40.059  43.021   6.150
 8793POPC   C1A56307  40.034  43.091   6.450
 8793POPC   D2A56308  39.980  43.086   6.750
 8793POPC   C3A56309  40.002  43.103   7.050
 8793POPC   C4A56310  40.023  43.127   7.350
 8793POPC   C1B56311  40.131  42.881   6.450
 8793POPC   C2B56312  40.143  42.917   6.750
 8793POPC   C3B56313  40.141  42.838   7.050
 8793POPC   C4B56314  40.085  42.902   7.350
 8794POPC   NC356315  15.205  22.207   5.550
 8794POPC   PO456316  15.149  22.159   5.850
 8794POPC   GL156317  15.157  22.163   6.150
 8794POPC   GL256318  15.278  22.036   6.150
 8794POPC   C1A56319  15.141  22.128   6.450
 8794POPC   D2A56320  15.193  22.154   6.750
 8794POPC   C3A56321  15.186  22.166   7.050
 8794POPC   C4A56322  15.210  22.189   7.350
 8794POPC   C1B56323  15.266  21.971   6.450
 8794POPC   C2B56324  15.271  21.945   6.750
 8794POPC   C3B56325  15.297  21.985   7.050
 8794POPC   C4B56326  15.260  21.971   7.350
 8795POPC   NC356327  23.673   6.671   5.550
 8795POPC   PO456328  23.734   6.648   5.850
 8795POPC   GL156329  23.725   6.671   6.150
 8795POPC   GL256330  23.776   6.567   6.150
 8795POPC   C1A56331  23.665   6.656   6.450
 8795POPC   D2A56332  23.756   6.621   6.750
 8795POPC   C3A56333  23.761   6.601   7.050
 8795POPC   C4A56334  23.692   6.639   7.350
 8795POPC   C1B56335  23.898   6.529   6.450
 8795POPC   C2B56336  23.903   6.527   6.750
 8795POPC   C3B56337  23.959   6.510   7.050
 8795POPC   C4B56338  23.971   6.562   7.350
 8796POPC   NC356339  35.401  44.637   5.550
 8796POPC   PO456340  35.334  44.690   5.850
 8796POPC   GL156341  35.354  44.706   6.150
 8796POPC   GL256342  35.290  44.771   6.150
 8796POPC   C1A56343  35.350  44.652   6.450
 8796POPC   D2A56344  35.366  44.690   6.750
 8796POPC   C3A56345  35.317  44.639   7.050
 8796POPC   C4A56346  35.342  44.698   7.350
 8796POPC   C1B56347  35.311  44.932   6.450
 8796POPC   C2B56348  35.349  44.901   6.750
 8796POPC   C3B56349  35.348  44.910   7.050
 8796POPC   C4B56350  35.264  44.952   7.350
 8797POPC   NC356351  29.150  19.101   5.550
 8797POPC   PO456352  29.129  19.106   5.850
 8797POPC   GL156353  29.107  19.065   6.150
 8797POPC   GL256354  29.098  19.196   6.150
 8797POPC   C1A56355  29.179  19.018   6.450
 8797POPC   D2A56356  29.122  19.016   6.750
 8797POPC   C3A56357  29.195  19.009   7.050
 8797POPC   C4A56358  29.184  19.080   7.350
 8797POPC   C1B56359  29.013  19.291   6.450
 8797POPC   C2B56360  28.934  19.288   6.750
 8797POPC   C3B56361  28.970  19.288   7.050
 8797POPC   C4B56362  28.986  19.286   7.350
 8798POPC   NC356363  29.927  36.931   5.550
 8798POPC   PO456364  29.902  36.915   5.850
 8798POPC   GL156365  29.948  36.907   6.150
 8798POPC   GL256366  30.034  36.829   6.150
 8798POPC   C1A56367  29.917  36.939   6.450
 8798POPC   D2A56368  29.890  36.856   6.750
 8798POPC   C3A56369  29.941  36.916   7.050
 8798POPC   C4A56370  29.884  36.910   7.350
 8798POPC   C1B56371  30.123  36.847   6.450
 8798POPC   C2B56372  30.126  36.787   6.750
 8798POPC   C3B56373  30.196  36.813   7.050
 8798POPC   C4B56374  30.182  36.833   7.350
 8799POPC   NC356375  44.623  18.311   5.550
 8799POPC   PO456376  44.656  18.326   5.850
 8799POPC   GL156377  44.692  18.316   6.150
 8799POPC   GL256378  44.825  18.209   6.150
 8799POPC   C1A56379  44.616  18.274   6.450
 8799POPC   D2A56380  44.654  18.311   6.750
 8799POPC   C3A56381  44.618  18.247   7.050
 8799POPC   C4A56382  44.649  18.286   7.350
 8799POPC   C1B56383  44.857  18.131   6.450
 8799POPC   C2B56384  44.884  18.137   6.750
 8799POPC   C3B56385  44.883  18.163   7.050
 8799POPC   C4B56386  44.918  18.140   7.350
 8800POPC   NC356387  27.622   0.405   5.550
 8800POPC   PO456388  27.587   0.483   5.850
 8800POPC   GL156389  27.551   0.442   6.150
 8800POPC   GL256390  27.587   0.280   6.150
 8800POPC   C1A56391  27.573   0.408   6.450
 8800POPC   D2A56392  27.616   0.458   6.750
 8800POPC   C3A56393  27.576   0.447   7.050
 8800POPC   C4A56394  27.606   0.473   7.350
 8800POPC   C1B56395  27.613   0.186   6.450
 8800POPC   C2B56396  27.640   0.240   6.750
 8800POPC   C3B56397  27.623   0.240   7.050
 8800POPC   C4B56398  27.594   0.152   7.350
 8801POPC   NC356399   7.421  10.559   5.550
 8801POPC   PO456400   7.392  10.487   5.850
 8801POPC   GL156401   7.389  10.496   6.150
 8801POPC   GL256402   7.539  10.435   6.150
 8801POPC   C1A56403   7.379  10.525   6.450
 8801POPC   D2A56404   7.434  10.478   6.750
 8801POPC   C3A56405   7.397  10.537   7.050
 8801POPC   C4A56406   7.378  10.528   7.350
 8801POPC   C1B56407   7.524  10.296   6.450
 8801POPC   C2B56408   7.588  10.359   6.750
 8801POPC   C3B56409   7.605  10.364   7.050
 8801POPC   C4B56410   7.605  10.335   7.350
 8802POPC   NC356411  33.778  10.509   5.550
 8802POPC   PO456412  33.813  10.486   5.850
 8802POPC   GL156413  33.816  10.563   6.150
 8802POPC   GL256414  33.881  10.640   6.150
 8802POPC   C1A56415  33.785  10.490   6.450
 8802POPC   D2A56416  33.838  10.536   6.750
 8802POPC   C3A56417  33.845  10.565   7.050
 8802POPC   C4A56418  33.770  10.539   7.350
 8802POPC   C1B56419  33.942  10.789   6.450
 8802POPC   C2B56420  33.940  10.714   6.750
 8802POPC   C3B56421  33.893  10.722   7.050
 8802POPC   C4B56422  33.911  10.747   7.350
 8803POPC   NC356423   8.162   1.999   5.550
 8803POPC   PO456424   8.230   1.978   5.850
 8803POPC   GL156425   8.154   2.020   6.150
 8803POPC   GL256426   8.207   2.074   6.150
 8803POPC   C1A56427   8.153   2.025   6.450
 8803POPC   D2A56428   8.223   1.986   6.750
 8803POPC   C3A56429   8.173   1.982   7.050
 8803POPC   C4A56430   8.171   2.036   7.350
 8803POPC   C1B56431   8.148   2.249   6.450
 8803POPC   C2B56432   8.218   2.251   6.750
 8803POPC   C3B56433   8.183   2.209   7.050
 8803POPC   C4B56434   8.233   2.212   7.350
 8804POPC   NC356435  25.255   6.676   5.550
 8804POPC   PO456436  25.310   6.628   5.850
 8804POPC   GL156437  25.288   6.659   6.150
 8804POPC   GL256438  25.385   6.647   6.150
 8804POPC   C1A56439  25.229   6.692   6.450
 8804POPC   D2A56440  25.278   6.638   6.750
 8804POPC   C3A56441  25.230   6.601   7.050
 8804POPC   C4A56442  25.290   6.615   7.350
 8804POPC   C1B56443  25.553   6.679   6.450
 8804POPC   C2B56444  25.476   6.755   6.750
 8804POPC   C3B56445  25.493   6.740   7.050
 8804POPC   C4B56446  25.547   6.667   7.350
 8805POPC   NC356447  40.746  31.423   5.550
 8805POPC   PO456448  40.826  31.439   5.850
 8805POPC   GL156449  40.808  31.487   6.150
 8805POPC   GL256450  40.654  31.463   6.150
 8805POPC   C1A56451  40.788  31.444   6.450
 8805POPC   D2A56452  40.818  31.518   6.750
 8805POPC   C3A56453  40.770  31.468   7.050
 8805POPC   C4A56454  40.763  31.469   7.350
 8805POPC   C1B56455  40.513  31.442   6.450
 8805POPC   C2B56456  40.526  31.417   6.750
 8805POPC   C3B56457  40.542  31.467   7.050
 8805POPC   C4B56458  40.531  31.466   7.350
 8806POPC   NC356459  25.219  11.310   5.550
 8806POPC   PO456460  25.242  11.298   5.850
 8806POPC   GL156461  25.298  11.258   6.150
 8806POPC   GL256462  25.378  11.223   6.150
 8806POPC   C1A56463  25.288  11.281   6.450
 8806POPC   D2A56464  25.231  11.297   6.750
 8806POPC   C3A56465  25.248  11.325   7.050
 8806POPC   C4A56466  25.244  11.311   7.350
 8806POPC   C1B56467  25.518  11.199   6.450
 8806POPC   C2B56468  25.516  11.188   6.750
 8806POPC   C3B56469  25.484  11.151   7.050
 8806POPC   C4B56470  25.422  11.138   7.350
 8807POPC   NC356471  44.635   5.126   5.550
 8807POPC   PO456472  44.692   5.120   5.850
 8807POPC   GL156473  44.645   5.072   6.150
 8807POPC   GL256474  44.567   5.055   6.150
 8807POPC   C1A56475  44.684   5.117   6.450
 8807POPC   D2A56476  44.630   5.115   6.750
 8807POPC   C3A56477  44.624   5.121   7.050
 8807POPC   C4A56478  44.616   5.068   7.350
 8807POPC   C1B56479  44.450   5.050   6.450
 8807POPC   C2B56480  44.464   5.028   6.750
 8807POPC   C3B56481  44.375   4.993   7.050
 8807POPC   C4B56482  44.454   5.002   7.350
 8808POPC   NC356483  13.672  18.326   5.550
 8808POPC   PO456484  13.660  18.234   5.850
 8808POPC   GL156485  13.669  18.310   6.150
 8808POPC   GL256486  13.603  18.209   6.150
 8808POPC   C1A56487  13.618  18.271   6.450
 8808POPC   D2A56488  13.661  18.234   6.750
 8808POPC   C3A56489  13.669  18.285   7.050
 8808POPC   C4A56490  13.666  18.316   7.350
 8808POPC   C1B56491  13.559  18.024   6.450
 8808POPC   C2B56492  13.588  18.059   6.750
 8808POPC   C3B56493  13.556  18.059   7.050
 8808POPC   C4B56494  13.616  18.060   7.350
 8809POPC   NC356495  18.308  26.852   5.550
 8809POPC   PO456496  18.261  26.796   5.850
 8809POPC   GL156497  18.273  26.799   6.150
 8809POPC   GL256498  18.148  26.806   6.150
 8809POPC   C1A56499  18.233  26.800   6.450
 8809POPC   D2A56500  18.249  26.833   6.750
 8809POPC   C3A56501  18.320  26.773   7.050
 8809POPC   C4A56502  18.296  26.804   7.350
 8809POPC   C1B56503  17.990  26.804   6.450
 8809POPC   C2B56504  17.991  26.768   6.750
 8809POPC   C3B56505  18.010  26.854   7.050
 8809POPC   C4B56506  17.998  26.778   7.350
 8810POPC   NC356507  44.613   9.744   5.550
 8810POPC   PO456508  44.628   9.788   5.850
 8810POPC   GL156509  44.647   9.768   6.150
 8810POPC   GL256510  44.741   9.709   6.150
 8810POPC   C1A56511  44.661   9.758   6.450
 8810POPC   D2A56512  44.617   9.707   6.750
 8810POPC   C3A56513  44.689   9.791   7.050
 8810POPC   C4A56514  44.660   9.760   7.350
 8810POPC   C1B56515  44.887   9.667   6.450
 8810POPC   C2B56516  44.915   9.674   6.750
 8810POPC   C3B56517  44.874   9.708   7.050
 8810POPC   C4B56518  44.876   9.676   7.350
 8811POPC   NC356519   1.227  42.357   5.550
 8811POPC   PO456520   1.168  42.373   5.850
 8811POPC   GL156521   1.221  42.327   6.150
 8811POPC   GL256522   1.385  42.299   6.150
 8811POPC   C1A56523   1.216  42.346   6.450
 8811POPC   D2A56524   1.216  42.359   6.750
 8811POPC   C3A56525   1.235  42.356   7.050
 8811POPC   C4A56526   1.178  42.296   7.350
 8811POPC   C1B56527   1.483  42.271   6.450
 8811POPC   C2B56528   1.470  42.251   6.750
 8811POPC   C3B56529   1.447  42.262   7.050
 8811POPC   C4B56530   1.428  42.327   7.350
 8812POPC   NC356531  24.511  37.630   5.550
 8812POPC   PO456532  24.512  37.642   5.850
 8812POPC   GL156533  24.452  37.673   6.150
 8812POPC   GL256534  24.495  37.793   6.150
 8812POPC   C1A56535  24.495  37.630   6.450
 8812POPC   D2A56536  24.486  37.700   6.750
 8812POPC   C3A56537  24.492  37.721   7.050
 8812POPC   C4A56538  24.538  37.665   7.350
 8812POPC   C1B56539  24.471  37.938   6.450
 8812POPC   C2B56540  24.544  37.913   6.750
 8812POPC   C3B56541  24.492  37.968   7.050
 8812POPC   C4B56542  24.541  37.881   7.350
 8813POPC   NC356543  28.394  19.817   5.550
 8813POPC   PO456544  28.410  19.862   5.850
 8813POPC   GL156545  28.375  19.834   6.150
 8813POPC   GL256546  28.325  19.726   6.150
 8813POPC   C1A56547  28.372  19.865   6.450
 8813POPC   D2A56548  28.339  19.827   6.750
 8813POPC   C3A56549  28.350  19.822   7.050
 8813POPC   C4A56550  28.361  19.820   7.350
 8813POPC   C1B56551  28.323  19.551   6.450
 8813POPC   C2B56552  28.375  19.579   6.750
 8813POPC   C3B56553  28.355  19.570   7.050
 8813POPC   C4B56554  28.339  19.560   7.350
 8814POPC   NC356555  40.040  18.247   5.550
 8814POPC   PO456556  40.033  18.274   5.850
 8814POPC   GL156557  40.007  18.330   6.150
 8814POPC   GL256558  40.142  18.271   6.150
 8814POPC   C1A56559  40.012  18.269   6.450
 8814POPC   D2A56560  39.984  18.308   6.750
 8814POPC   C3A56561  39.966  18.243   7.050
 8814POPC   C4A56562  39.997  18.259   7.350
 8814POPC   C1B56563  40.256  18.247   6.450
 8814POPC   C2B56564  40.235  18.279   6.750
 8814POPC   C3B56565  40.224  18.257   7.050
 8814POPC   C4B56566  40.259  18.250   7.350
 8815POPC   NC356567  19.785  17.463   5.550
 8815POPC   PO456568  19.835  17.469   5.850
 8815POPC   GL156569  19.856  17.468   6.150
 8815POPC   GL256570  19.840  17.382   6.150
 8815POPC   C1A56571  19.827  17.532   6.450
 8815POPC   D2A56572  19.842  17.524   6.750
 8815POPC   C3A56573  19.861  17.499   7.050
 8815POPC   C4A56574  19.860  17.473   7.350
 8815POPC   C1B56575  19.880  17.246   6.450
 8815POPC   C2B56576  19.910  17.210   6.750
 8815POPC   C3B56577  19.905  17.251   7.050
 8815POPC   C4B56578  19.850  17.278   7.350
 8816POPC   NC356579  19.025  29.903   5.550
 8816POPC   PO456580  19.060  29.965   5.850
 8816POPC   GL156581  19.071  29.925   6.150
 8816POPC   GL256582  18.895  29.914   6.150
 8816POPC   C1A56583  19.025  29.925   6.450
 8816POPC   D2A56584  19.080  29.872   6.750
 8816POPC   C3A56585  19.049  29.950   7.050
 8816POPC   C4A56586  19.026  29.961   7.350
 8816POPC   C1B56587  18.786  29.848   6.450
 8816POPC   C2B56588  18.852  29.870   6.750
 8816POPC   C3B56589  18.823  29.846   7.050
 8816POPC   C4B56590  18.794  29.868   7.350
 8817POPC   NC356591  19.866   9.796   5.550
 8817POPC   PO456592  19.844   9.790   5.850
 8817POPC   GL156593  19.851   9.716   6.150
 8817POPC   GL256594  19.913   9.631   6.150
 8817POPC   C1A56595  19.805   9.771   6.450
 8817POPC   D2A56596  19.795   9.726   6.750
 8817POPC   C3A56597  19.848   9.721   7.050
 8817POPC   C4A56598  19.829   9.758   7.350
 8817POPC   C1B56599  19.981   9.566   6.450
 8817POPC   C2B56600  19.943   9.503   6.750
 8817POPC   C3B56601  19.890   9.476   7.050
 8817POPC   C4B56602  19.929   9.480   7.350
 8818POPC   NC356603  32.219  12.053   5.550
 8818POPC   PO456604  32.204  12.048   5.850
 8818POPC   GL156605  32.225  12.033   6.150
 8818POPC   GL256606  32.311  12.149   6.150
 8818POPC   C1A56607  32.287  12.093   6.450
 8818POPC   D2A56608  32.288  12.108   6.750
 8818POPC   C3A56609  32.240  12.120   7.050
 8818POPC   C4A56610  32.229  12.027   7.350
 8818POPC   C1B56611  32.420  12.285   6.450
 8818POPC   C2B56612  32.463  12.260   6.750
 8818POPC   C3B56613  32.458  12.285   7.050
 8818POPC   C4B56614  32.453  12.213   7.350
 8819POPC   NC356615   8.161  21.378   5.550
 8819POPC   PO456616   8.171  21.340   5.850
 8819POPC   GL156617   8.185  21.348   6.150
 8819POPC   GL256618   8.320  21.302   6.150
 8819POPC   C1A56619   8.196  21.408   6.450
 8819POPC   D2A56620   8.210  21.350   6.750
 8819POPC   C3A56621   8.170  21.350   7.050
 8819POPC   C4A56622   8.243  21.417   7.350
 8819POPC   C1B56623   8.413  21.256   6.450
 8819POPC   C2B56624   8.408  21.265   6.750
 8819POPC   C3B56625   8.346  21.189   7.050
 8819POPC   C4B56626   8.334  21.265   7.350
 8820POPC   NC356627  32.220  39.988   5.550
 8820POPC   PO456628  32.201  40.038   5.850
 8820POPC   GL156629  32.234  40.050   6.150
 8820POPC   GL256630  32.134  40.100   6.150
 8820POPC   C1A56631  32.212  39.958   6.450
 8820POPC   D2A56632  32.250  40.053   6.750
 8820POPC   C3A56633  32.284  40.056   7.050
 8820POPC   C4A56634  32.276  40.009   7.350
 8820POPC   C1B56635  32.120  40.258   6.450
 8820POPC   C2B56636  32.098  40.172   6.750
 8820POPC   C3B56637  32.149  40.210   7.050
 8820POPC   C4B56638  32.072  40.167   7.350
 8821POPC   NC356639  34.583  18.300   5.550
 8821POPC   PO456640  34.620  18.262   5.850
 8821POPC   GL156641  34.624  18.284   6.150
 8821POPC   GL256642  34.726  18.358   6.150
 8821POPC   C1A56643  34.623  18.241   6.450
 8821POPC   D2A56644  34.600  18.254   6.750
 8821POPC   C3A56645  34.600  18.235   7.050
 8821POPC   C4A56646  34.578  18.261   7.350
 8821POPC   C1B56647  34.780  18.325   6.450
 8821POPC   C2B56648  34.782  18.383   6.750
 8821POPC   C3B56649  34.792  18.396   7.050
 8821POPC   C4B56650  34.823  18.387   7.350
 8822POPC   NC356651   8.203  22.928   5.550
 8822POPC   PO456652   8.238  22.909   5.850
 8822POPC   GL156653   8.216  22.956   6.150
 8822POPC   GL256654   8.128  23.004   6.150
 8822POPC   C1A56655   8.186  22.971   6.450
 8822POPC   D2A56656   8.200  22.980   6.750
 8822POPC   C3A56657   8.234  22.980   7.050
 8822POPC   C4A56658   8.201  22.958   7.350
 8822POPC   C1B56659   7.978  23.143   6.450
 8822POPC   C2B56660   7.975  23.089   6.750
 8822POPC   C3B56661   7.980  23.146   7.050
 8822POPC   C4B56662   8.035  23.152   7.350
 8823POPC   NC356663  11.302  20.623   5.550
 8823POPC   PO456664  11.281  20.639   5.850
 8823POPC   GL156665  11.278  20.585   6.150
 8823POPC   GL256666  11.331  20.477   6.150
 8823POPC   C1A56667  11.306  20.623   6.450
 8823POPC   D2A56668  11.300  20.649   6.750
 8823POPC   C3A56669  11.253  20.592   7.050
 8823POPC   C4A56670  11.325  20.655   7.350
 8823POPC   C1B56671  11.441  20.374   6.450
 8823POPC   C2B56672  11.447  20.393   6.750
 8823POPC   C3B56673  11.415  20.395   7.050
 8823POPC   C4B56674  11.418  20.435   7.350
 8824POPC   NC356675  23.690   0.467   5.550
 8824POPC   PO456676  23.700   0.455   5.850
 8824POPC   GL156677  23.683   0.456   6.150
 8824POPC   GL256678  23.540   0.474   6.150
 8824POPC   C1A56679  23.762   0.420   6.450
 8824POPC   D2A56680  23.720   0.454   6.750
 8824POPC   C3A56681  23.761   0.412   7.050
 8824POPC   C4A56682  23.742   0.430   7.350
 8824POPC   C1B56683  23.501   0.431   6.450
 8824POPC   C2B56684  23.497   0.462   6.750
 8824POPC   C3B56685  23.505   0.415   7.050
 8824POPC   C4B56686  23.503   0.463   7.350
 8825POPC   NC356687  21.413   7.455   5.550
 8825POPC   PO456688  21.412   7.410   5.850
 8825POPC   GL156689  21.389   7.403   6.150
 8825POPC   GL256690  21.279   7.315   6.150
 8825POPC   C1A56691  21.393   7.464   6.450
 8825POPC   D2A56692  21.420   7.456   6.750
 8825POPC   C3A56693  21.357   7.373   7.050
 8825POPC   C4A56694  21.340   7.426   7.350
 8825POPC   C1B56695  21.217   7.251   6.450
 8825POPC   C2B56696  21.215   7.247   6.750
 8825POPC   C3B56697  21.184   7.206   7.050
 8825POPC   C4B56698  21.225   7.266   7.350
 8826POPC   NC356699  43.101  36.086   5.550
 8826POPC   PO456700  43.101  36.103   5.850
 8826POPC   GL156701  43.103  36.081   6.150
 8826POPC   GL256702  43.042  36.254   6.150
 8826POPC   C1A56703  43.128  36.142   6.450
 8826POPC   D2A56704  43.131  36.150   6.750
 8826POPC   C3A56705  43.067  36.115   7.050
 8826POPC   C4A56706  43.074  36.085   7.350
 8826POPC   C1B56707  42.928  36.323   6.450
 8826POPC   C2B56708  42.891  36.279   6.750
 8826POPC   C3B56709  42.896  36.322   7.050
 8826POPC   C4B56710  42.923  36.272   7.350
 8827POPC   NC356711   2.015   3.516   5.550
 8827POPC   PO456712   1.964   3.522   5.850
 8827POPC   GL156713   2.023   3.515   6.150
 8827POPC   GL256714   1.882   3.484   6.150
 8827POPC   C1A56715   2.023   3.493   6.450
 8827POPC   D2A56716   2.024   3.542   6.750
 8827POPC   C3A56717   1.997   3.571   7.050
 8827POPC   C4A56718   1.974   3.495   7.350
 8827POPC   C1B56719   1.816   3.312   6.450
 8827POPC   C2B56720   1.816   3.301   6.750
 8827POPC   C3B56721   1.822   3.364   7.050
 8827POPC   C4B56722   1.852   3.380   7.350
 8828POPC   NC356723  43.073  24.494   5.550
 8828POPC   PO456724  43.114  24.458   5.850
 8828POPC   GL156725  43.126  24.512   6.150
 8828POPC   GL256726  43.073  24.629   6.150
 8828POPC   C1A56727  43.132  24.459   6.450
 8828POPC   D2A56728  43.093  24.539   6.750
 8828POPC   C3A56729  43.138  24.495   7.050
 8828POPC   C4A56730  43.105  24.452   7.350
 8828POPC   C1B56731  43.141  24.705   6.450
 8828POPC   C2B56732  43.083  24.744   6.750
 8828POPC   C3B56733  43.084  24.770   7.050
 8828POPC   C4B56734  43.124  24.777   7.350
 8829POPC   NC356735   1.227  25.229   5.550
 8829POPC   PO456736   1.195  25.284   5.850
 8829POPC   GL156737   1.193  25.306   6.150
 8829POPC   GL256738   1.126  25.220   6.150
 8829POPC   C1A56739   1.253  25.261   6.450
 8829POPC   D2A56740   1.174  25.226   6.750
 8829POPC   C3A56741   1.179  25.268   7.050
 8829POPC   C4A56742   1.184  25.265   7.350
 8829POPC   C1B56743   0.964  25.125   6.450
 8829POPC   C2B56744   0.993  25.168   6.750
 8829POPC   C3B56745   1.037  25.159   7.050
 8829POPC   C4B56746   0.961  25.173   7.350
 8830POPC   NC356747  17.474   7.457   5.550
 8830POPC   PO456748  17.483   7.424   5.850
 8830POPC   GL156749  17.471   7.448   6.150
 8830POPC   GL256750  17.379   7.368   6.150
 8830POPC   C1A56751  17.474   7.442   6.450
 8830POPC   D2A56752  17.498   7.376   6.750
 8830POPC   C3A56753  17.468   7.412   7.050
 8830POPC   C4A56754  17.517   7.404   7.350
 8830POPC   C1B56755  17.268   7.238   6.450
 8830POPC   C2B56756  17.274   7.291   6.750
 8830POPC   C3B56757  17.285   7.294   7.050
 8830POPC   C4B56758  17.326   7.281   7.350
 8831POPC   NC356759   4.305  25.241   5.550
 8831POPC   PO456760   4.289  25.223   5.850
 8831POPC   GL156761   4.356  25.282   6.150
 8831POPC   GL256762   4.402  25.308   6.150
 8831POPC   C1A56763   4.270  25.313   6.450
 8831POPC   D2A56764   4.330  25.252   6.750
 8831POPC   C3A56765   4.305  25.305   7.050
 8831POPC   C4A56766   4.276  25.315   7.350
 8831POPC   C1B56767   4.480  25.380   6.450
 8831POPC   C2B56768   4.540  25.409   6.750
 8831POPC   C3B56769   4.554  25.445   7.050
 8831POPC   C4B56770   4.491  25.359   7.350
 8832POPC   NC356771  44.662  29.183   5.550
 8832POPC   PO456772  44.659  29.164   5.850
 8832POPC   GL156773  44.696  29.141   6.150
 8832POPC   GL256774  44.531  29.190   6.150
 8832POPC   C1A56775  44.637  29.171   6.450
 8832POPC   D2A56776  44.698  29.106   6.750
 8832POPC   C3A56777  44.674  29.121   7.050
 8832POPC   C4A56778  44.702  29.153   7.350
 8832POPC   C1B56779  44.478  29.341   6.450
 8832POPC   C2B56780  44.456  29.291   6.750
 8832POPC   C3B56781  44.415  29.274   7.050
 8832POPC   C4B56782  44.418  29.258   7.350
 8833POPC   NC356783  36.945  20.573   5.550
 8833POPC   PO456784  36.872  20.593   5.850
 8833POPC   GL156785  36.948  20.630   6.150
 8833POPC   GL256786  36.865  20.686   6.150
 8833POPC   C1A56787  36.917  20.566   6.450
 8833POPC   D2A56788  36.924  20.628   6.750
 8833POPC   C3A56789  36.890  20.604   7.050
 8833POPC   C4A56790  36.947  20.582   7.350
 8833POPC   C1B56791  36.773  20.867   6.450
 8833POPC   C2B56792  36.849  20.886   6.750
 8833POPC   C3B56793  36.813  20.804   7.050
 8833POPC   C4B56794  36.794  20.834   7.350
 8834POPC   NC356795  29.152  41.534   5.550
 8834POPC   PO456796  29.163  41.531   5.850
 8834POPC   GL156797  29.141  41.516   6.150
 8834POPC   GL256798  29.249  41.536   6.150
 8834POPC   C1A56799  29.139  41.596   6.450
 8834POPC   D2A56800  29.170  41.575   6.750
 8834POPC   C3A56801  29.130  41.561   7.050
 8834POPC   C4A56802  29.129  41.586   7.350
 8834POPC   C1B56803  29.424  41.573   6.450
 8834POPC   C2B56804  29.382  41.569   6.750
 8834POPC   C3B56805  29.434  41.578   7.050
 8834POPC   C4B56806  29.398  41.554   7.350
 8835POPC   NC356807   5.842  10.562   5.550
 8835POPC   PO456808   5.884  10.493   5.850
 8835POPC   GL156809   5.855  10.516   6.150
 8835POPC   GL256810   5.762  10.411   6.150
 8835POPC   C1A56811   5.836  10.491   6.450
 8835POPC   D2A56812   5.869  10.517   6.750
 8835POPC   C3A56813   5.883  10.520   7.050
 8835POPC   C4A56814   5.842  10.568   7.350
 8835POPC   C1B56815   5.718  10.352   6.450
 8835POPC   C2B56816   5.732  10.286   6.750
 8835POPC   C3B56817   5.706  10.323   7.050
 8835POPC   C4B56818   5.770  10.272   7.350
 8836POPC   NC356819  40.025  31.502   5.550
 8836POPC   PO456820  40.041  31.513   5.850
 8836POPC   GL156821  40.041  31.478   6.150
 8836POPC   GL256822  40.131  31.415   6.150
 8836POPC   C1A56823  40.041  31.474   6.450
 8836POPC   D2A56824  39.994  31.515   6.750
 8836POPC   C3A56825  40.035  31.506   7.050
 8836POPC   C4A56826  39.958  31.448   7.350
 8836POPC   C1B56827  40.263  31.329   6.450
 8836POPC   C2B56828  40.225  31.359   6.750
 8836POPC   C3B56829  40.230  31.332   7.050
 8836POPC   C4B56830  40.228  31.385   7.350
 8837POPC   NC356831  41.536  30.693   5.550
 8837POPC   PO456832  41.510  30.746   5.850
 8837POPC   GL156833  41.547  30.733   6.150
 8837POPC   GL256834  41.472  30.804   6.150
 8837POPC   C1A56835  41.554  30.670   6.450
 8837POPC   D2A56836  41.538  30.664   6.750
 8837POPC   C3A56837  41.549  30.658   7.050
 8837POPC   C4A56838  41.555  30.696   7.350
 8837POPC   C1B56839  41.455  30.975   6.450
 8837POPC   C2B56840  41.422  30.966   6.750
 8837POPC   C3B56841  41.483  30.976   7.050
 8837POPC   C4B56842  41.431  30.974   7.350
 8838POPC   NC356843  43.072  38.462   5.550
 8838POPC   PO456844  43.117  38.482   5.850
 8838POPC   GL156845  43.073  38.415   6.150
 8838POPC   GL256846  43.024  38.528   6.150
 8838POPC   C1A56847  43.134  38.486   6.450
 8838POPC   D2A56848  43.100  38.428   6.750
 8838POPC   C3A56849  43.132  38.463   7.050
 8838POPC   C4A56850  43.128  38.465   7.350
 8838POPC   C1B56851  42.995  38.645   6.450
 8838POPC   C2B56852  43.049  38.683   6.750
 8838POPC   C3B56853  42.972  38.656   7.050
 8838POPC   C4B56854  43.039  38.673   7.350
 8839POPC   NC356855  33.006  38.408   5.550
 8839POPC   PO456856  32.978  38.495   5.850
 8839POPC   GL156857  33.000  38.501   6.150
 8839POPC   GL256858  33.013  38.367   6.150
 8839POPC   C1A56859  32.984  38.505   6.450
 8839POPC   D2A56860  33.036  38.460   6.750
 8839POPC   C3A56861  33.067  38.436   7.050
 8839POPC   C4A56862  33.032  38.430   7.350
 8839POPC   C1B56863  33.059  38.208   6.450
 8839POPC   C2B56864  33.077  38.174   6.750
 8839POPC   C3B56865  33.071  38.218   7.050
 8839POPC   C4B56866  33.112  38.202   7.350
 8840POPC   NC356867  35.401   2.784   5.550
 8840POPC   PO456868  35.304   2.784   5.850
 8840POPC   GL156869  35.392   2.780   6.150
 8840POPC   GL256870  35.417   2.683   6.150
 8840POPC   C1A56871  35.360   2.807   6.450
 8840POPC   D2A56872  35.389   2.723   6.750
 8840POPC   C3A56873  35.314   2.742   7.050
 8840POPC   C4A56874  35.322   2.751   7.350
 8840POPC   C1B56875  35.547   2.601   6.450
 8840POPC   C2B56876  35.592   2.605   6.750
 8840POPC   C3B56877  35.527   2.619   7.050
 8840POPC   C4B56878  35.512   2.648   7.350
 8841POPC   NC356879  39.199   8.213   5.550
 8841POPC   PO456880  39.198   8.239   5.850
 8841POPC   GL156881  39.195   8.152   6.150
 8841POPC   GL256882  39.344   8.202   6.150
 8841POPC   C1A56883  39.250   8.218   6.450
 8841POPC   D2A56884  39.233   8.175   6.750
 8841POPC   C3A56885  39.277   8.187   7.050
 8841POPC   C4A56886  39.243   8.213   7.350
 8841POPC   C1B56887  39.525   8.217   6.450
 8841POPC   C2B56888  39.448   8.195   6.750
 8841POPC   C3B56889  39.529   8.210   7.050
 8841POPC   C4B56890  39.514   8.229   7.350
 8842POPC   NC356891   1.980  36.080   5.550
 8842POPC   PO456892   1.964  36.153   5.850
 8842POPC   GL156893   1.942  36.092   6.150
 8842POPC   GL256894   1.866  36.162   6.150
 8842POPC   C1A56895   1.956  36.104   6.450
 8842POPC   D2A56896   2.000  36.091   6.750
 8842POPC   C3A56897   2.021  36.111   7.050
 8842POPC   C4A56898   1.945  36.090   7.350
 8842POPC   C1B56899   1.700  36.147   6.450
 8842POPC   C2B56900   1.728  36.094   6.750
 8842POPC   C3B56901   1.722  36.150   7.050
 8842POPC   C4B56902   1.699  36.149   7.350
 8843POPC   NC356903  36.082  23.725   5.550
 8843POPC   PO456904  36.080  23.719   5.850
 8843POPC   GL156905  36.095  23.687   6.150
 8843POPC   GL256906  36.025  23.663   6.150
 8843POPC   C1A56907  36.111  23.694   6.450
 8843POPC   D2A56908  36.168  23.666   6.750
 8843POPC   C3A56909  36.119  23.745   7.050
 8843POPC   C4A56910  36.086  23.675   7.350
 8843POPC   C1B56911  35.972  23.560   6.450
 8843POPC   C2B56912  35.955  23.544   6.750
 8843POPC   C3B56913  35.913  23.567   7.050
 8843POPC   C4B56914  35.927  23.542   7.350
 8844POPC   NC356915  34.593  23.666   5.550
 8844POPC   PO456916  34.563  23.683   5.850
 8844POPC   GL156917  34.542  23.739   6.150
 8844POPC   GL256918  34.688  23.792   6.150
 8844POPC   C1A56919  34.576  23.701   6.450
 8844POPC   D2A56920  34.531  23.679   6.750
 8844POPC   C3A56921  34.536  23.746   7.050
 8844POPC   C4A56922  34.625  23.696   7.350
 8844POPC   C1B56923  34.774  23.917   6.450
 8844POPC   C2B56924  34.794  23.917   6.750
 8844POPC   C3B56925  34.745  23.932   7.050
 8844POPC   C4B56926  34.763  23.896   7.350
 8845POPC   NC356927  33.798   1.190   5.550
 8845POPC   PO456928  33.837   1.178   5.850
 8845POPC   GL156929  33.774   1.217   6.150
 8845POPC   GL256930  33.901   1.291   6.150
 8845POPC   C1A56931  33.796   1.195   6.450
 8845POPC   D2A56932  33.785   1.263   6.750
 8845POPC   C3A56933  33.799   1.256   7.050
 8845POPC   C4A56934  33.814   1.259   7.350
 8845POPC   C1B56935  33.930   1.436   6.450
 8845POPC   C2B56936  33.960   1.442   6.750
 8845POPC   C3B56937  33.891   1.460   7.050
 8845POPC   C4B56938  33.918   1.432   7.350
 8846POPC   NC356939  10.483  38.448   5.550
 8846POPC   PO456940  10.489  38.453   5.850
 8846POPC   GL156941  10.498  38.445   6.150
 8846POPC   GL256942  10.614  38.577   6.150
 8846POPC   C1A56943  10.520  38.431   6.450
 8846POPC   D2A56944  10.554  38.460   6.750
 8846POPC   C3A56945  10.492  38.412   7.050
 8846POPC   C4A56946  10.477  38.467   7.350
 8846POPC   C1B56947  10.703  38.614   6.450
 8846POPC   C2B56948  10.683  38.629   6.750
 8846POPC   C3B56949  10.673  38.639   7.050
 8846POPC   C4B56950  10.727  38.655   7.350
 8847POPC   NC356951  32.247  23.705   5.550
 8847POPC   PO456952  32.221  23.725   5.850
 8847POPC   GL156953  32.268  23.722   6.150
 8847POPC   GL256954  32.334  23.614   6.150
 8847POPC   C1A56955  32.221  23.763   6.450
 8847POPC   D2A56956  32.270  23.708   6.750
 8847POPC   C3A56957  32.227  23.730   7.050
 8847POPC   C4A56958  32.199  23.685   7.350
 8847POPC   C1B56959  32.444  23.619   6.450
 8847POPC   C2B56960  32.509  23.568   6.750
 8847POPC   C3B56961  32.457  23.645   7.050
 8847POPC   C4B56962  32.484  23.571   7.350
 8848POPC   NC356963  22.156   7.388   5.550
 8848POPC   PO456964  22.207   7.378   5.850
 8848POPC   GL156965  22.168   7.388   6.150
 8848POPC   GL256966  21.999   7.443   6.150
 8848POPC   C1A56967  22.162   7.410   6.450
 8848POPC   D2A56968  22.136   7.439   6.750
 8848POPC   C3A56969  22.133   7.401   7.050
 8848POPC   C4A56970  22.143   7.397   7.350
 8848POPC   C1B56971  21.911   7.440   6.450
 8848POPC   C2B56972  21.944   7.478   6.750
 8848POPC   C3B56973  21.887   7.470   7.050
 8848POPC   C4B56974  21.922   7.522   7.350
 8849POPC   NC356975  11.312  33.767   5.550
 8849POPC   PO456976  11.285  33.789   5.850
 8849POPC   GL156977  11.285  33.843   6.150
 8849POPC   GL256978  11.451  33.683   6.150
 8849POPC   C1A56979  11.321  33.752   6.450
 8849POPC   D2A56980  11.328  33.819   6.750
 8849POPC   C3A56981  11.342  33.778   7.050
 8849POPC   C4A56982  11.287  33.805   7.350
 8849POPC   C1B56983  11.496  33.684   6.450
 8849POPC   C2B56984  11.530  33.643   6.750
 8849POPC   C3B56985  11.544  33.638   7.050
 8849POPC   C4B56986  11.466  33.631   7.350
 8850POPC   NC356987   1.955  24.510   5.550
 8850POPC   PO456988   1.982  24.450   5.850
 8850POPC   GL156989   2.034  24.443   6.150
 8850POPC   GL256990   1.929  24.372   6.150
 8850POPC   C1A56991   2.005  24.458   6.450
 8850POPC   D2A56992   2.000  24.482   6.750
 8850POPC   C3A56993   2.017  24.448   7.050
 8850POPC   C4A56994   1.952  24.450   7.350
 8850POPC   C1B56995   1.917  24.275   6.450
 8850POPC   C2B56996   1.913  24.212   6.750
 8850POPC   C3B56997   1.884  24.243   7.050
 8850POPC   C4B56998   1.964  24.231   7.350
 8851POPC   NC356999   2.722  14.356   5.550
 8851POPC   PO457000   2.740  14.428   5.850
 8851POPC   GL157001   2.743  14.449   6.150
 8851POPC   GL257002   2.877  14.361   6.150
 8851POPC   C1A57003   2.724  14.396   6.450
 8851POPC   D2A57004   2.771  14.391   6.750
 8851POPC   C3A57005   2.791  14.357   7.050
 8851POPC   C4A57006   2.754  14.443   7.350
 8851POPC   C1B57007   3.061  14.436   6.450
 8851POPC   C2B57008   3.012  14.375   6.750
 8851POPC   C3B57009   3.038  14.427   7.050
 8851POPC   C4B57010   3.016  14.426   7.350
 8852POPC   NC357011   4.325   2.009   5.550
 8852POPC   PO457012   4.278   1.996   5.850
 8852POPC   GL157013   4.311   1.963   6.150
 8852POPC   GL257014   4.470   1.928   6.150
 8852POPC   C1A57015   4.360   1.959   6.450
 8852POPC   D2A57016   4.335   2.011   6.750
 8852POPC   C3A57017   4.327   2.023   7.050
 8852POPC   C4A57018   4.287   1.966   7.350
 8852POPC   C1B57019   4.517   1.884   6.450
 8852POPC   C2B57020   4.536   1.816   6.750
 8852POPC   C3B57021   4.522   1.853   7.050
 8852POPC   C4B57022   4.554   1.863   7.350
 8853POPC   NC357023  22.928  19.092   5.550
 8853POPC   PO457024  22.954  19.032   5.850
 8853POPC   GL157025  22.900  19.021   6.150
 8853POPC   GL257026  22.874  18.970   6.150
 8853POPC   C1A57027  22.964  19.029   6.450
 8853POPC   D2A57028  22.959  19.022   6.750
 8853POPC   C3A57029  22.889  19.108   7.050
 8853POPC   C4A57030  22.914  19.106   7.350
 8853POPC   C1B57031  22.787  18.834   6.450
 8853POPC   C2B57032  22.861  18.836   6.750
 8853POPC   C3B57033  22.817  18.815   7.050
 8853POPC   C4B57034  22.834  18.786   7.350
 8854POPC   NC357035  12.854  32.248   5.550
 8854POPC   PO457036  12.844  32.297   5.850
 8854POPC   GL157037  12.819  32.247   6.150
 8854POPC   GL257038  12.930  32.218   6.150
 8854POPC   C1A57039  12.884  32.245   6.450
 8854POPC   D2A57040  12.893  32.268   6.750
 8854POPC   C3A57041  12.897  32.204   7.050
 8854POPC   C4A57042  12.838  32.229   7.350
 8854POPC   C1B57043  13.047  32.136   6.450
 8854POPC   C2B57044  13.016  32.110   6.750
 8854POPC   C3B57045  13.005  32.055   7.050
 8854POPC   C4B57046  13.059  32.059   7.350
 8855POPC   NC357047  15.988  23.686   5.550
 8855POPC   PO457048  15.995  23.712   5.850
 8855POPC   GL157049  15.989  23.754   6.150
 8855POPC   GL257050  15.916  23.827   6.150
 8855POPC   C1A57051  15.972  23.697   6.450
 8855POPC   D2A57052  15.935  23.720   6.750
 8855POPC   C3A57053  15.962  23.684   7.050
 8855POPC   C4A57054  15.920  23.693   7.350
 8855POPC   C1B57055  15.913  23.965   6.450
 8855POPC   C2B57056  15.933  23.952   6.750
 8855POPC   C3B57057  15.885  23.965   7.050
 8855POPC   C4B57058  15.943  23.920   7.350
 8856POPC   NC357059   2.003  33.007   5.550
 8856POPC   PO457060   1.978  33.069   5.850
 8856POPC   GL157061   1.985  32.985   6.150
 8856POPC   GL257062   1.916  33.015   6.150
 8856POPC   C1A57063   1.977  33.059   6.450
 8856POPC   D2A57064   2.039  33.042   6.750
 8856POPC   C3A57065   1.979  33.000   7.050
 8856POPC   C4A57066   1.945  33.006   7.350
 8856POPC   C1B57067   1.740  32.949   6.450
 8856POPC   C2B57068   1.717  33.037   6.750
 8856POPC   C3B57069   1.731  32.982   7.050
 8856POPC   C4B57070   1.779  32.988   7.350
 8857POPC   NC357071  29.154  44.673   5.550
 8857POPC   PO457072  29.159  44.637   5.850
 8857POPC   GL157073  29.172  44.708   6.150
 8857POPC   GL257074  29.106  44.797   6.150
 8857POPC   C1A57075  29.140  44.675   6.450
 8857POPC   D2A57076  29.110  44.674   6.750
 8857POPC   C3A57077  29.192  44.626   7.050
 8857POPC   C4A57078  29.143  44.710   7.350
 8857POPC   C1B57079  29.029  44.840   6.450
 8857POPC   C2B57080  28.975  44.904   6.750
 8857POPC   C3B57081  29.031  44.917   7.050
 8857POPC   C4B57082  29.034  44.864   7.350
 8858POPC   NC357083  13.623  17.535   5.550
 8858POPC   PO457084  13.658  17.483   5.850
 8858POPC   GL157085  13.645  17.459   6.150
 8858POPC   GL257086  13.713  17.435   6.150
 8858POPC   C1A57087  13.608  17.507   6.450
 8858POPC   D2A57088  13.588  17.556   6.750
 8858POPC   C3A57089  13.672  17.504   7.050
 8858POPC   C4A57090  13.605  17.520   7.350
 8858POPC   C1B57091  13.882  17.437   6.450
 8858POPC   C2B57092  13.856  17.409   6.750
 8858POPC   C3B57093  13.861  17.360   7.050
 8858POPC   C4B57094  13.847  17.415   7.350
 8859POPC   NC357095  15.187  39.234   5.550
 8859POPC   PO457096  15.207  39.208   5.850
 8859POPC   GL157097  15.148  39.265   6.150
 8859POPC   GL257098  15.233  39.402   6.150
 8859POPC   C1A57099  15.215  39.244   6.450
 8859POPC   D2A57100  15.195  39.188   6.750
 8859POPC   C3A57101  15.202  39.214   7.050
 8859POPC   C4A57102  15.155  39.248   7.350
 8859POPC   C1B57103  15.231  39.521   6.450
 8859POPC   C2B57104  15.260  39.430   6.750
 8859POPC   C3B57105  15.217  39.508   7.050
 8859POPC   C4B57106  15.196  39.485   7.350
 8860POPC   NC357107   5.889   6.628   5.550
 8860POPC   PO457108   5.846   6.692   5.850
 8860POPC   GL157109   5.892   6.668   6.150
 8860POPC   GL257110   5.946   6.645   6.150
 8860POPC   C1A57111   5.905   6.648   6.450
 8860POPC   D2A57112   5.848   6.686   6.750
 8860POPC   C3A57113   5.890   6.678   7.050
 8860POPC   C4A57114   5.896   6.663   7.350
 8860POPC   C1B57115   6.134   6.603   6.450
 8860POPC   C2B57116   6.126   6.594   6.750
 8860POPC   C3B57117   6.145   6.600   7.050
 8860POPC   C4B57118   6.103   6.606   7.350
 8861POPC   NC357119  39.982  10.509   5.550
 8861POPC   PO457120  39.967  10.505   5.850
 8861POPC   GL157121  40.030  10.494   6.150
 8861POPC   GL257122  40.095  10.437   6.150
 8861POPC   C1A57123  40.020  10.571   6.450
 8861POPC   D2A57124  40.034  10.486   6.750
 8861POPC   C3A57125  40.022  10.560   7.050
 8861POPC   C4A57126  39.968  10.543   7.350
 8861POPC   C1B57127  40.194  10.337   6.450
 8861POPC   C2B57128  40.164  10.339   6.750
 8861POPC   C3B57129  40.193  10.299   7.050
 8861POPC   C4B57130  40.204  10.279   7.350
 8862POPC   NC357131  23.690  26.026   5.550
 8862POPC   PO457132  23.753  26.081   5.850
 8862POPC   GL157133  23.679  26.008   6.150
 8862POPC   GL257134  23.772  26.140   6.150
 8862POPC   C1A57135  23.741  26.089   6.450
 8862POPC   D2A57136  23.750  26.013   6.750
 8862POPC   C3A57137  23.687  26.020   7.050
 8862POPC   C4A57138  23.710  26.031   7.350
 8862POPC   C1B57139  23.875  26.281   6.450
 8862POPC   C2B57140  23.814  26.234   6.750
 8862POPC   C3B57141  23.827  26.194   7.050
 8862POPC   C4B57142  23.830  26.262   7.350
 8863POPC   NC357143  21.371  22.940   5.550
 8863POPC   PO457144  21.392  22.973   5.850
 8863POPC   GL157145  21.347  22.890   6.150
 8863POPC   GL257146  21.395  23.105   6.150
 8863POPC   C1A57147  21.364  22.956   6.450
 8863POPC   D2A57148  21.403  22.968   6.750
 8863POPC   C3A57149  21.378  22.933   7.050
 8863POPC   C4A57150  21.378  22.920   7.350
 8863POPC   C1B57151  21.413  23.228   6.450
 8863POPC   C2B57152  21.401  23.198   6.750
 8863POPC   C3B57153  21.457  23.171   7.050
 8863POPC   C4B57154  21.405  23.166   7.350
 8864POPC   NC357155   1.231  43.102   5.550
 8864POPC   PO457156   1.237  43.065   5.850
 8864POPC   GL157157   1.206  43.108   6.150
 8864POPC   GL257158   1.275  42.944   6.150
 8864POPC   C1A57159   1.244  43.061   6.450
 8864POPC   D2A57160   1.234  43.105   6.750
 8864POPC   C3A57161   1.244  43.108   7.050
 8864POPC   C4A57162   1.190  43.126   7.350
 8864POPC   C1B57163   1.234  42.815   6.450
 8864POPC   C2B57164   1.253  42.850   6.750
 8864POPC   C3B57165   1.215  42.905   7.050
 8864POPC   C4B57166   1.256  42.852   7.350
 8865POPC   NC357167  43.157  26.085   5.550
 8865POPC   PO457168  43.113  26.056   5.850
 8865POPC   GL157169  43.141  26.090   6.150
 8865POPC   GL257170  43.120  26.126   6.150
 8865POPC   C1A57171  43.071  26.061   6.450
 8865POPC   D2A57172  43.151  26.015   6.750
 8865POPC   C3A57173  43.111  26.072   7.050
 8865POPC   C4A57174  43.110  26.051   7.350
 8865POPC   C1B57175  43.172  26.270   6.450
 8865POPC   C2B57176  43.119  26.246   6.750
 8865POPC   C3B57177  43.160  26.331   7.050
 8865POPC   C4B57178  43.116  26.241   7.350
 8866POPC   NC357179  30.664  26.046   5.550
 8866POPC   PO457180  30.707  26.019   5.850
 8866POPC   GL157181  30.666  26.043   6.150
 8866POPC   GL257182  30.712  26.168   6.150
 8866POPC   C1A57183  30.707  26.036   6.450
 8866POPC   D2A57184  30.744  26.077   6.750
 8866POPC   C3A57185  30.657  25.997   7.050
 8866POPC   C4A57186  30.697  26.020   7.350
 8866POPC   C1B57187  30.735  26.250   6.450
 8866POPC   C2B57188  30.731  26.290   6.750
 8866POPC   C3B57189  30.658  26.260   7.050
 8866POPC   C4B57190  30.648  26.294   7.350
 8867POPC   NC357191   2.015  35.324   5.550
 8867POPC   PO457192   2.011  35.323   5.850
 8867POPC   GL157193   1.985  35.305   6.150
 8867POPC   GL257194   2.026  35.426   6.150
 8867POPC   C1A57195   2.039  35.344   6.450
 8867POPC   D2A57196   1.971  35.390   6.750
 8867POPC   C3A57197   1.989  35.308   7.050
 8867POPC   C4A57198   1.988  35.382   7.350
 8867POPC   C1B57199   2.115  35.570   6.450
 8867POPC   C2B57200   2.205  35.566   6.750
 8867POPC   C3B57201   2.210  35.533   7.050
 8867POPC   C4B57202   2.149  35.528   7.350
 8868POPC   NC357203  35.399  19.056   5.550
 8868POPC   PO457204  35.357  19.046   5.850
 8868POPC   GL157205  35.310  19.063   6.150
 8868POPC   GL257206  35.216  18.980   6.150
 8868POPC   C1A57207  35.322  19.074   6.450
 8868POPC   D2A57208  35.309  19.071   6.750
 8868POPC   C3A57209  35.316  19.103   7.050
 8868POPC   C4A57210  35.356  19.019   7.350
 8868POPC   C1B57211  35.140  18.915   6.450
 8868POPC   C2B57212  35.143  18.932   6.750
 8868POPC   C3B57213  35.101  18.903   7.050
 8868POPC   C4B57214  35.097  18.983   7.350
 8869POPC   NC357215  32.271  14.447   5.550
 8869POPC   PO457216  32.239  14.419   5.850
 8869POPC   GL157217  32.221  14.441   6.150
 8869POPC   GL257218  32.124  14.364   6.150
 8869POPC   C1A57219  32.241  14.356   6.450
 8869POPC   D2A57220  32.266  14.398   6.750
 8869POPC   C3A57221  32.210  14.430   7.050
 8869POPC   C4A57222  32.267  14.392   7.350
 8869POPC   C1B57223  32.019  14.391   6.450
 8869POPC   C2B57224  32.000  14.418   6.750
 8869POPC   C3B57225  31.991  14.432   7.050
 8869POPC   C4B57226  31.966  14.363   7.350
 8870POPC   NC357227  29.114  33.045   5.550
 8870POPC   PO457228  29.144  32.985   5.850
 8870POPC   GL157229  29.127  32.996   6.150
 8870POPC   GL257230  29.017  33.024   6.150
 8870POPC   C1A57231  29.162  32.993   6.450
 8870POPC   D2A57232  29.105  33.032   6.750
 8870POPC   C3A57233  29.153  33.048   7.050
 8870POPC   C4A57234  29.173  33.034   7.350
 8870POPC   C1B57235  28.886  32.944   6.450
 8870POPC   C2B57236  28.917  32.935   6.750
 8870POPC   C3B57237  28.940  32.922   7.050
 8870POPC   C4B57238  28.959  32.909   7.350
 8871POPC   NC357239  31.446  40.000   5.550
 8871POPC   PO457240  31.429  40.048   5.850
 8871POPC   GL157241  31.450  39.975   6.150
 8871POPC   GL257242  31.461  39.925   6.150
 8871POPC   C1A57243  31.436  40.000   6.450
 8871POPC   D2A57244  31.482  39.990   6.750
 8871POPC   C3A57245  31.441  40.005   7.050
 8871POPC   C4A57246  31.507  40.038   7.350
 8871POPC   C1B57247  31.358  39.761   6.450
 8871POPC   C2B57248  31.311  39.799   6.750
 8871POPC   C3B57249  31.354  39.816   7.050
 8871POPC   C4B57250  31.309  39.767   7.350
 8872POPC   NC357251  29.161   6.684   5.550
 8872POPC   PO457252  29.175   6.687   5.850
 8872POPC   GL157253  29.165   6.626   6.150
 8872POPC   GL257254  29.224   6.674   6.150
 8872POPC   C1A57255  29.163   6.632   6.450
 8872POPC   D2A57256  29.190   6.613   6.750
 8872POPC   C3A57257  29.150   6.597   7.050
 8872POPC   C4A57258  29.163   6.646   7.350
 8872POPC   C1B57259  29.356   6.676   6.450
 8872POPC   C2B57260  29.382   6.631   6.750
 8872POPC   C3B57261  29.437   6.662   7.050
 8872POPC   C4B57262  29.429   6.614   7.350
 8873POPC   NC357263   2.772   0.456   5.550
 8873POPC   PO457264   2.791   0.411   5.850
 8873POPC   GL157265   2.776   0.397   6.150
 8873POPC   GL257266   2.872   0.310   6.150
 8873POPC   C1A57267   2.789   0.403   6.450
 8873POPC   D2A57268   2.743   0.395   6.750
 8873POPC   C3A57269   2.792   0.467   7.050
 8873POPC   C4A57270   2.761   0.394   7.350
 8873POPC   C1B57271   2.991   0.293   6.450
 8873POPC   C2B57272   2.981   0.259   6.750
 8873POPC   C3B57273   2.918   0.247   7.050
 8873POPC   C4B57274   2.906   0.270   7.350
 8874POPC   NC357275   1.177  39.979   5.550
 8874POPC   PO457276   1.249  40.034   5.850
 8874POPC   GL157277   1.177  40.015   6.150
 8874POPC   GL257278   1.321  39.898   6.150
 8874POPC   C1A57279   1.211  40.039   6.450
 8874POPC   D2A57280   1.255  39.966   6.750
 8874POPC   C3A57281   1.175  39.959   7.050
 8874POPC   C4A57282   1.244  39.977   7.350
 8874POPC   C1B57283   1.446  39.855   6.450
 8874POPC   C2B57284   1.448  39.826   6.750
 8874POPC   C3B57285   1.419  39.818   7.050
 8874POPC   C4B57286   1.389  39.853   7.350
 8875POPC   NC357287  14.388  31.471   5.550
 8875POPC   PO457288  14.395  31.462   5.850
 8875POPC   GL157289  14.394  31.441   6.150
 8875POPC   GL257290  14.260  31.453   6.150
 8875POPC   C1A57291  14.411  31.464   6.450
 8875POPC   D2A57292  14.378  31.488   6.750
 8875POPC   C3A57293  14.414  31.443   7.050
 8875POPC   C4A57294  14.425  31.423   7.350
 8875POPC   C1B57295  14.186  31.364   6.450
 8875POPC   C2B57296  14.215  31.409   6.750
 8875POPC   C3B57297  14.152  31.398   7.050
 8875POPC   C4B57298  14.134  31.413   7.350
 8876POPC   NC357299  28.353  12.084   5.550
 8876POPC   PO457300  28.344  12.076   5.850
 8876POPC   GL157301  28.383  12.075   6.150
 8876POPC   GL257302  28.460  12.021   6.150
 8876POPC   C1A57303  28.405  12.111   6.450
 8876POPC   D2A57304  28.373  12.068   6.750
 8876POPC   C3A57305  28.396  12.106   7.050
 8876POPC   C4A57306  28.381  12.044   7.350
 8876POPC   C1B57307  28.576  11.926   6.450
 8876POPC   C2B57308  28.645  11.990   6.750
 8876POPC   C3B57309  28.574  11.933   7.050
 8876POPC   C4B57310  28.602  11.949   7.350
 8877POPC   NC357311  36.873  23.680   5.550
 8877POPC   PO457312  36.886  23.669   5.850
 8877POPC   GL157313  36.899  23.723   6.150
 8877POPC   GL257314  36.835  23.573   6.150
 8877POPC   C1A57315  36.945  23.754   6.450
 8877POPC   D2A57316  36.889  23.761   6.750
 8877POPC   C3A57317  36.929  23.741   7.050
 8877POPC   C4A57318  36.856  23.706   7.350
 8877POPC   C1B57319  36.793  23.474   6.450
 8877POPC   C2B57320  36.797  23.443   6.750
 8877POPC   C3B57321  36.828  23.505   7.050
 8877POPC   C4B57322  36.857  23.464   7.350
 8878POPC   NC357323  15.130  14.394   5.550
 8878POPC   PO457324  15.167  14.393   5.850
 8878POPC   GL157325  15.171  14.382   6.150
 8878POPC   GL257326  15.135  14.550   6.150
 8878POPC   C1A57327  15.135  14.380   6.450
 8878POPC   D2A57328  15.137  14.408   6.750
 8878POPC   C3A57329  15.159  14.370   7.050
 8878POPC   C4A57330  15.146  14.436   7.350
 8878POPC   C1B57331  15.132  14.644   6.450
 8878POPC   C2B57332  15.154  14.632   6.750
 8878POPC   C3B57333  15.146  14.640   7.050
 8878POPC   C4B57334  15.140  14.664   7.350
 8879POPC   NC357335  28.416  37.639   5.550
 8879POPC   PO457336  28.395  37.716   5.850
 8879POPC   GL157337  28.384  37.643   6.150
 8879POPC   GL257338  28.477  37.714   6.150
 8879POPC   C1A57339  28.387  37.644   6.450
 8879POPC   D2A57340  28.335  37.728   6.750
 8879POPC   C3A57341  28.362  37.721   7.050
 8879POPC   C4A57342  28.356  37.692   7.350
 8879POPC   C1B57343  28.600  37.703   6.450
 8879POPC   C2B57344  28.615  37.724   6.750
 8879POPC   C3B57345  28.655  37.686   7.050
 8879POPC   C4B57346  28.668  37.655   7.350
 8880POPC   NC357347   6.608   3.510   5.550
 8880POPC   PO457348   6.689   3.589   5.850
 8880POPC   GL157349   6.630   3.546   6.150
 8880POPC   GL257350   6.816   3.566   6.150
 8880POPC   C1A57351   6.627   3.524   6.450
 8880POPC   D2A57352   6.616   3.519   6.750
 8880POPC   C3A57353   6.681   3.528   7.050
 8880POPC   C4A57354   6.605   3.569   7.350
 8880POPC   C1B57355   6.933   3.514   6.450
 8880POPC   C2B57356   6.860   3.576   6.750
 8880POPC   C3B57357   6.905   3.594   7.050
 8880POPC   C4B57358   6.858   3.525   7.350
 8881POPC   NC357359  16.687  10.490   5.550
 8881POPC   PO457360  16.751  10.501   5.850
 8881POPC   GL157361  16.695  10.502   6.150
 8881POPC   GL257362  16.745  10.374   6.150
 8881POPC   C1A57363  16.699  10.534   6.450
 8881POPC   D2A57364  16.719  10.508   6.750
 8881POPC   C3A57365  16.707  10.528   7.050
 8881POPC   C4A57366  16.781  10.519   7.350
 8881POPC   C1B57367  16.773  10.267   6.450
 8881POPC   C2B57368  16.826  10.318   6.750
 8881POPC   C3B57369  16.772  10.324   7.050
 8881POPC   C4B57370  16.771  10.318   7.350
 8882POPC   NC357371  11.284   2.719   5.550
 8882POPC   PO457372  11.254   2.727   5.850
 8882POPC   GL157373  11.273   2.745   6.150
 8882POPC   GL257374  11.169   2.789   6.150
 8882POPC   C1A57375  11.345   2.811   6.450
 8882POPC   D2A57376  11.311   2.806   6.750
 8882POPC   C3A57377  11.342   2.774   7.050
 8882POPC   C4A57378  11.274   2.748   7.350
 8882POPC   C1B57379  11.037   2.767   6.450
 8882POPC   C2B57380  11.027   2.788   6.750
 8882POPC   C3B57381  11.058   2.825   7.050
 8882POPC   C4B57382  11.044   2.760   7.350
 8883POPC   NC357383  25.315  16.757   5.550
 8883POPC   PO457384  25.312  16.730   5.850
 8883POPC   GL157385  25.234  16.712   6.150
 8883POPC   GL257386  25.355  16.760   6.150
 8883POPC   C1A57387  25.312  16.756   6.450
 8883POPC   D2A57388  25.275  16.740   6.750
 8883POPC   C3A57389  25.257  16.700   7.050
 8883POPC   C4A57390  25.224  16.761   7.350
 8883POPC   C1B57391  25.510  16.753   6.450
 8883POPC   C2B57392  25.555  16.703   6.750
 8883POPC   C3B57393  25.554  16.691   7.050
 8883POPC   C4B57394  25.491  16.726   7.350
 8884POPC   NC357395  33.800  19.795   5.550
 8884POPC   PO457396  33.813  19.846   5.850
 8884POPC   GL157397  33.785  19.800   6.150
 8884POPC   GL257398  33.732  19.960   6.150
 8884POPC   C1A57399  33.834  19.804   6.450
 8884POPC   D2A57400  33.797  19.790   6.750
 8884POPC   C3A57401  33.800  19.876   7.050
 8884POPC   C4A57402  33.798  19.883   7.350
 8884POPC   C1B57403  33.684  20.030   6.450
 8884POPC   C2B57404  33.681  20.057   6.750
 8884POPC   C3B57405  33.655  20.069   7.050
 8884POPC   C4B57406  33.666  20.018   7.350
 8885POPC   NC357407   1.204  30.719   5.550
 8885POPC   PO457408   1.236  30.687   5.850
 8885POPC   GL157409   1.201  30.732   6.150
 8885POPC   GL257410   1.118  30.836   6.150
 8885POPC   C1A57411   1.171  30.658   6.450
 8885POPC   D2A57412   1.189  30.663   6.750
 8885POPC   C3A57413   1.184  30.660   7.050
 8885POPC   C4A57414   1.219  30.691   7.350
 8885POPC   C1B57415   1.120  30.937   6.450
 8885POPC   C2B57416   1.109  30.895   6.750
 8885POPC   C3B57417   1.119  30.950   7.050
 8885POPC   C4B57418   1.099  30.968   7.350
 8886POPC   NC357419  15.939   4.284   5.550
 8886POPC   PO457420  15.921   4.357   5.850
 8886POPC   GL157421  15.944   4.289   6.150
 8886POPC   GL257422  15.852   4.446   6.150
 8886POPC   C1A57423  15.984   4.353   6.450
 8886POPC   D2A57424  15.946   4.308   6.750
 8886POPC   C3A57425  15.953   4.329   7.050
 8886POPC   C4A57426  15.922   4.272   7.350
 8886POPC   C1B57427  15.827   4.479   6.450
 8886POPC   C2B57428  15.795   4.493   6.750
 8886POPC   C3B57429  15.780   4.488   7.050
 8886POPC   C4B57430  15.834   4.514   7.350
 8887POPC   NC357431  43.842  12.085   5.550
 8887POPC   PO457432  43.921  12.078   5.850
 8887POPC   GL157433  43.849  12.095   6.150
 8887POPC   GL257434  43.853  12.237   6.150
 8887POPC   C1A57435  43.839  12.109   6.450
 8887POPC   D2A57436  43.876  12.035   6.750
 8887POPC   C3A57437  43.911  12.060   7.050
 8887POPC   C4A57438  43.922  12.029   7.350
 8887POPC   C1B57439  43.776  12.291   6.450
 8887POPC   C2B57440  43.726  12.272   6.750
 8887POPC   C3B57441  43.729  12.273   7.050
 8887POPC   C4B57442  43.780  12.293   7.350
 8888POPC   NC357443  41.528  29.894   5.550
 8888POPC   PO457444  41.575  29.944   5.850
 8888POPC   GL157445  41.582  29.915   6.150
 8888POPC   GL257446  41.657  29.868   6.150
 8888POPC   C1A57447  41.593  29.900   6.450
 8888POPC   D2A57448  41.606  29.944   6.750
 8888POPC   C3A57449  41.521  29.894   7.050
 8888POPC   C4A57450  41.580  29.880   7.350
 8888POPC   C1B57451  41.772  29.932   6.450
 8888POPC   C2B57452  41.817  29.910   6.750
 8888POPC   C3B57453  41.780  29.941   7.050
 8888POPC   C4B57454  41.845  29.946   7.350
 8889POPC   NC357455   0.391  16.721   5.550
 8889POPC   PO457456   0.409  16.720   5.850
 8889POPC   GL157457   0.467  16.685   6.150
 8889POPC   GL257458   0.492  16.850   6.150
 8889POPC   C1A57459   0.455  16.702   6.450
 8889POPC   D2A57460   0.436  16.769   6.750
 8889POPC   C3A57461   0.434  16.706   7.050
 8889POPC   C4A57462   0.405  16.753   7.350
 8889POPC   C1B57463   0.607  16.895   6.450
 8889POPC   C2B57464   0.573  16.947   6.750
 8889POPC   C3B57465   0.642  16.887   7.050
 8889POPC   C4B57466   0.626  16.934   7.350
 8890POPC   NC357467  22.206   5.119   5.550
 8890POPC   PO457468  22.175   5.050   5.850
 8890POPC   GL157469  22.116   5.065   6.150
 8890POPC   GL257470  22.224   4.994   6.150
 8890POPC   C1A57471  22.155   5.140   6.450
 8890POPC   D2A57472  22.115   5.060   6.750
 8890POPC   C3A57473  22.127   5.049   7.050
 8890POPC   C4A57474  22.157   5.121   7.350
 8890POPC   C1B57475  22.240   4.881   6.450
 8890POPC   C2B57476  22.233   4.900   6.750
 8890POPC   C3B57477  22.255   4.814   7.050
 8890POPC   C4B57478  22.210   4.813   7.350
 8891POPC   NC357479  11.292  18.253   5.550
 8891POPC   PO457480  11.317  18.278   5.850
 8891POPC   GL157481  11.306  18.301   6.150
 8891POPC   GL257482  11.376  18.428   6.150
 8891POPC   C1A57483  11.337  18.321   6.450
 8891POPC   D2A57484  11.332  18.326   6.750
 8891POPC   C3A57485  11.323  18.298   7.050
 8891POPC   C4A57486  11.314  18.238   7.350
 8891POPC   C1B57487  11.418  18.450   6.450
 8891POPC   C2B57488  11.428  18.475   6.750
 8891POPC   C3B57489  11.466  18.523   7.050
 8891POPC   C4B57490  11.435  18.489   7.350
 8892POPC   NC357491   2.734  42.351   5.550
 8892POPC   PO457492   2.721  42.285   5.850
 8892POPC   GL157493   2.776  42.343   6.150
 8892POPC   GL257494   2.630  42.451   6.150
 8892POPC   C1A57495   2.726  42.303   6.450
 8892POPC   D2A57496   2.784  42.373   6.750
 8892POPC   C3A57497   2.774  42.383   7.050
 8892POPC   C4A57498   2.804  42.368   7.350
 8892POPC   C1B57499   2.586  42.518   6.450
 8892POPC   C2B57500   2.553  42.456   6.750
 8892POPC   C3B57501   2.580  42.513   7.050
 8892POPC   C4B57502   2.569  42.449   7.350
 8893POPC   NC357503  29.109  40.806   5.550
 8893POPC   PO457504  29.155  40.806   5.850
 8893POPC   GL157505  29.192  40.739   6.150
 8893POPC   GL257506  29.008  40.850   6.150
 8893POPC   C1A57507  29.166  40.787   6.450
 8893POPC   D2A57508  29.191  40.744   6.750
 8893POPC   C3A57509  29.185  40.809   7.050
 8893POPC   C4A57510  29.186  40.806   7.350
 8893POPC   C1B57511  28.949  40.953   6.450
 8893POPC   C2B57512  28.958  40.924   6.750
 8893POPC   C3B57513  28.925  40.961   7.050
 8893POPC   C4B57514  28.936  40.971   7.350
 8894POPC   NC357515  14.355  26.815   5.550
 8894POPC   PO457516  14.384  26.805   5.850
 8894POPC   GL157517  14.380  26.811   6.150
 8894POPC   GL257518  14.540  26.884   6.150
 8894POPC   C1A57519  14.435  26.776   6.450
 8894POPC   D2A57520  14.417  26.788   6.750
 8894POPC   C3A57521  14.432  26.865   7.050
 8894POPC   C4A57522  14.364  26.780   7.350
 8894POPC   C1B57523  14.604  26.940   6.450
 8894POPC   C2B57524  14.539  27.016   6.750
 8894POPC   C3B57525  14.606  26.957   7.050
 8894POPC   C4B57526  14.619  27.005   7.350
 8895POPC   NC357527  22.212  32.250   5.550
 8895POPC   PO457528  22.161  32.242   5.850
 8895POPC   GL157529  22.148  32.220   6.150
 8895POPC   GL257530  22.139  32.169   6.150
 8895POPC   C1A57531  22.147  32.267   6.450
 8895POPC   D2A57532  22.147  32.232   6.750
 8895POPC   C3A57533  22.152  32.246   7.050
 8895POPC   C4A57534  22.116  32.201   7.350
 8895POPC   C1B57535  22.028  31.976   6.450
 8895POPC   C2B57536  22.076  32.053   6.750
 8895POPC   C3B57537  22.063  31.988   7.050
 8895POPC   C4B57538  22.027  32.044   7.350
 8896POPC   NC357539  22.191  15.219   5.550
 8896POPC   PO457540  22.115  15.133   5.850
 8896POPC   GL157541  22.122  15.219   6.150
 8896POPC   GL257542  22.159  15.306   6.150
 8896POPC   C1A57543  22.182  15.159   6.450
 8896POPC   D2A57544  22.209  15.139   6.750
 8896POPC   C3A57545  22.205  15.197   7.050
 8896POPC   C4A57546  22.206  15.168   7.350
 8896POPC   C1B57547  22.047  15.378   6.450
 8896POPC   C2B57548  22.101  15.439   6.750
 8896POPC   C3B57549  22.023  15.435   7.050
 8896POPC   C4B57550  22.097  15.457   7.350
 8897POPC   NC357551  32.272  42.293   5.550
 8897POPC   PO457552  32.285  42.329   5.850
 8897POPC   GL157553  32.260  42.342   6.150
 8897POPC   GL257554  32.154  42.472   6.150
 8897POPC   C1A57555  32.257  42.354   6.450
 8897POPC   D2A57556  32.260  42.307   6.750
 8897POPC   C3A57557  32.246  42.296   7.050
 8897POPC   C4A57558  32.221  42.316   7.350
 8897POPC   C1B57559  32.059  42.535   6.450
 8897POPC   C2B57560  32.126  42.521   6.750
 8897POPC   C3B57561  32.071  42.541   7.050
 8897POPC   C4B57562  32.098  42.534   7.350
 8898POPC   NC357563  40.740  10.550   5.550
 8898POPC   PO457564  40.766  10.523   5.850
 8898POPC   GL157565  40.810  10.568   6.150
 8898POPC   GL257566  40.646  10.599   6.150
 8898POPC   C1A57567  40.815  10.478   6.450
 8898POPC   D2A57568  40.792  10.568   6.750
 8898POPC   C3A57569  40.823  10.561   7.050
 8898POPC   C4A57570  40.791  10.519   7.350
 8898POPC   C1B57571  40.590  10.671   6.450
 8898POPC   C2B57572  40.569  10.648   6.750
 8898POPC   C3B57573  40.520  10.698   7.050
 8898POPC   C4B57574  40.557  10.623   7.350
 8899POPC   NC357575  14.451   8.151   5.550
 8899POPC   PO457576  14.373   8.185   5.850
 8899POPC   GL157577  14.394   8.221   6.150
 8899POPC   GL257578  14.492   8.094   6.150
 8899POPC   C1A57579  14.382   8.193   6.450
 8899POPC   D2A57580  14.385   8.203   6.750
 8899POPC   C3A57581  14.451   8.205   7.050
 8899POPC   C4A57582  14.412   8.159   7.350
 8899POPC   C1B57583  14.567   8.041   6.450
 8899POPC   C2B57584  14.593   8.094   6.750
 8899POPC   C3B57585  14.619   8.101   7.050
 8899POPC   C4B57586  14.631   8.091   7.350
 8900POPC   NC357587  22.987  21.436   5.550
 8900POPC   PO457588  22.911  21.350   5.850
 8900POPC   GL157589  22.955  21.414   6.150
 8900POPC   GL257590  22.914  21.488   6.150
 8900POPC   C1A57591  22.942  21.420   6.450
 8900POPC   D2A57592  22.981  21.380   6.750
 8900POPC   C3A57593  22.938  21.389   7.050
 8900POPC   C4A57594  22.953  21.384   7.350
 8900POPC   C1B57595  22.855  21.588   6.450
 8900POPC   C2B57596  22.828  21.616   6.750
 8900POPC   C3B57597  22.829  21.664   7.050
 8900POPC   C4B57598  22.858  21.602   7.350
 8901POPC   NC357599  26.000  19.810   5.550
 8901POPC   PO457600  26.010  19.837   5.850
 8901POPC   GL157601  26.088  19.832   6.150
 8901POPC   GL257602  26.115  19.918   6.150
 8901POPC   C1A57603  26.072  19.817   6.450
 8901POPC   D2A57604  26.047  19.846   6.750
 8901POPC   C3A57605  26.044  19.856   7.050
 8901POPC   C4A57606  26.080  19.837   7.350
 8901POPC   C1B57607  26.196  20.038   6.450
 8901POPC   C2B57608  26.169  20.021   6.750
 8901POPC   C3B57609  26.190  19.998   7.050
 8901POPC   C4B57610  26.194  20.028   7.350
 8902POPC   NC357611   8.997   6.622   5.550
 8902POPC   PO457612   9.008   6.604   5.850
 8902POPC   GL157613   8.979   6.692   6.150
 8902POPC   GL257614   9.050   6.754   6.150
 8902POPC   C1A57615   8.970   6.673   6.450
 8902POPC   D2A57616   8.943   6.602   6.750
 8902POPC   C3A57617   8.971   6.599   7.050
 8902POPC   C4A57618   9.005   6.612   7.350
 8902POPC   C1B57619   9.115   6.906   6.450
 8902POPC   C2B57620   9.065   6.907   6.750
 8902POPC   C3B57621   9.074   6.854   7.050
 8902POPC   C4B57622   9.079   6.827   7.350
 8903POPC   NC357623   8.154  26.811   5.550
 8903POPC   PO457624   8.180  26.856   5.850
 8903POPC   GL157625   8.154  26.775   6.150
 8903POPC   GL257626   8.121  26.913   6.150
 8903POPC   C1A57627   8.149  26.852   6.450
 8903POPC   D2A57628   8.211  26.836   6.750
 8903POPC   C3A57629   8.171  26.775   7.050
 8903POPC   C4A57630   8.168  26.817   7.350
 8903POPC   C1B57631   8.107  27.080   6.450
 8903POPC   C2B57632   8.047  26.992   6.750
 8903POPC   C3B57633   8.117  27.078   7.050
 8903POPC   C4B57634   8.115  27.024   7.350
 8904POPC   NC357635  44.652  19.089   5.550
 8904POPC   PO457636  44.705  19.106   5.850
 8904POPC   GL157637  44.621  19.104   6.150
 8904POPC   GL257638  44.811  19.061   6.150
 8904POPC   C1A57639  44.688  19.063   6.450
 8904POPC   D2A57640  44.661  19.035   6.750
 8904POPC   C3A57641  44.685  19.021   7.050
 8904POPC   C4A57642  44.698  19.018   7.350
 8904POPC   C1B57643  44.942  18.948   6.450
 8904POPC   C2B57644  44.887  18.995   6.750
 8904POPC   C3B57645  44.877  18.962   7.050
 8904POPC   C4B57646  44.893  19.013   7.350
 8905POPC   NC357647  42.362  35.341   5.550
 8905POPC   PO457648  42.310  35.378   5.850
 8905POPC   GL157649  42.355  35.342   6.150
 8905POPC   GL257650  42.165  35.363   6.150
 8905POPC   C1A57651  42.332  35.308   6.450
 8905POPC   D2A57652  42.352  35.398   6.750
 8905POPC   C3A57653  42.376  35.311   7.050
 8905POPC   C4A57654  42.333  35.362   7.350
 8905POPC   C1B57655  42.107  35.387   6.450
 8905POPC   C2B57656  42.121  35.318   6.750
 8905POPC   C3B57657  42.086  35.317   7.050
 8905POPC   C4B57658  42.106  35.350   7.350
 8906POPC   NC357659  23.701  16.694   5.550
 8906POPC   PO457660  23.716  16.721   5.850
 8906POPC   GL157661  23.689  16.765   6.150
 8906POPC   GL257662  23.814  16.725   6.150
 8906POPC   C1A57663  23.745  16.721   6.450
 8906POPC   D2A57664  23.703  16.728   6.750
 8906POPC   C3A57665  23.699  16.707   7.050
 8906POPC   C4A57666  23.673  16.770   7.350
 8906POPC   C1B57667  23.913  16.622   6.450
 8906POPC   C2B57668  23.910  16.640   6.750
 8906POPC   C3B57669  23.963  16.661   7.050
 8906POPC   C4B57670  23.921  16.618   7.350
 8907POPC   NC357671   3.584  29.122   5.550
 8907POPC   PO457672   3.499  29.139   5.850
 8907POPC   GL157673   3.582  29.098   6.150
 8907POPC   GL257674   3.633  29.046   6.150
 8907POPC   C1A57675   3.517  29.164   6.450
 8907POPC   D2A57676   3.556  29.161   6.750
 8907POPC   C3A57677   3.543  29.167   7.050
 8907POPC   C4A57678   3.577  29.097   7.350
 8907POPC   C1B57679   3.737  29.075   6.450
 8907POPC   C2B57680   3.769  29.087   6.750
 8907POPC   C3B57681   3.814  29.043   7.050
 8907POPC   C4B57682   3.722  29.022   7.350
 8908POPC   NC357683   9.710   2.018   5.550
 8908POPC   PO457684   9.798   1.971   5.850
 8908POPC   GL157685   9.725   2.039   6.150
 8908POPC   GL257686   9.785   2.154   6.150
 8908POPC   C1A57687   9.755   2.034   6.450
 8908POPC   D2A57688   9.727   1.981   6.750
 8908POPC   C3A57689   9.774   1.999   7.050
 8908POPC   C4A57690   9.797   1.974   7.350
 8908POPC   C1B57691   9.699   2.279   6.450
 8908POPC   C2B57692   9.763   2.207   6.750
 8908POPC   C3B57693   9.732   2.278   7.050
 8908POPC   C4B57694   9.703   2.244   7.350
 8909POPC   NC357695   8.928  40.012   5.550
 8909POPC   PO457696   8.932  40.037   5.850
 8909POPC   GL157697   8.955  39.978   6.150
 8909POPC   GL257698   9.001  40.135   6.150
 8909POPC   C1A57699   8.936  39.957   6.450
 8909POPC   D2A57700   8.973  40.014   6.750
 8909POPC   C3A57701   8.927  39.964   7.050
 8909POPC   C4A57702   8.936  39.966   7.350
 8909POPC   C1B57703   9.112  40.225   6.450
 8909POPC   C2B57704   9.106  40.189   6.750
 8909POPC   C3B57705   9.069  40.252   7.050
 8909POPC   C4B57706   9.059  40.238   7.350
 8910POPC   NC357707  38.412  26.009   5.550
 8910POPC   PO457708  38.484  26.027   5.850
 8910POPC   GL157709  38.456  26.019   6.150
 8910POPC   GL257710  38.339  26.114   6.150
 8910POPC   C1A57711  38.457  26.084   6.450
 8910POPC   D2A57712  38.443  26.079   6.750
 8910POPC   C3A57713  38.432  26.003   7.050
 8910POPC   C4A57714  38.426  26.064   7.350
 8910POPC   C1B57715  38.209  26.188   6.450
 8910POPC   C2B57716  38.198  26.115   6.750
 8910POPC   C3B57717  38.191  26.176   7.050
 8910POPC   C4B57718  38.236  26.193   7.350
 8911POPC   NC357719  18.282   0.407   5.550
 8911POPC   PO457720  18.316   0.414   5.850
 8911POPC   GL157721  18.296   0.460   6.150
 8911POPC   GL257722  18.208   0.378   6.150
 8911POPC   C1A57723  18.272   0.400   6.450
 8911POPC   D2A57724  18.267   0.431   6.750
 8911POPC   C3A57725  18.277   0.406   7.050
 8911POPC   C4A57726  18.310   0.427   7.350
 8911POPC   C1B57727  18.073   0.260   6.450
 8911POPC   C2B57728  18.040   0.284   6.750
 8911POPC   C3B57729  18.098   0.287   7.050
 8911POPC   C4B57730  18.037   0.264   7.350
 8912POPC   NC357731  22.119  20.634   5.550
 8912POPC   PO457732  22.170  20.617   5.850
 8912POPC   GL157733  22.145  20.630   6.150
 8912POPC   GL257734  22.096  20.501   6.150
 8912POPC   C1A57735  22.171  20.625   6.450
 8912POPC   D2A57736  22.130  20.637   6.750
 8912POPC   C3A57737  22.207  20.576   7.050
 8912POPC   C4A57738  22.140  20.583   7.350
 8912POPC   C1B57739  22.008  20.425   6.450
 8912POPC   C2B57740  21.927  20.426   6.750
 8912POPC   C3B57741  21.972  20.511   7.050
 8912POPC   C4B57742  21.944  20.466   7.350
 8913POPC   NC357743  30.713  33.832   5.550
 8913POPC   PO457744  30.648  33.838   5.850
 8913POPC   GL157745  30.676  33.823   6.150
 8913POPC   GL257746  30.848  33.845   6.150
 8913POPC   C1A57747  30.666  33.778   6.450
 8913POPC   D2A57748  30.680  33.830   6.750
 8913POPC   C3A57749  30.702  33.837   7.050
 8913POPC   C4A57750  30.671  33.765   7.350
 8913POPC   C1B57751  30.908  33.808   6.450
 8913POPC   C2B57752  30.958  33.853   6.750
 8913POPC   C3B57753  30.930  33.776   7.050
 8913POPC   C4B57754  30.950  33.785   7.350
 8914POPC   NC357755  20.641  29.140   5.550
 8914POPC   PO457756  20.601  29.183   5.850
 8914POPC   GL157757  20.587  29.116   6.150
 8914POPC   GL257758  20.702  29.182   6.150
 8914POPC   C1A57759  20.648  29.098   6.450
 8914POPC   D2A57760  20.629  29.175   6.750
 8914POPC   C3A57761  20.568  29.132   7.050
 8914POPC   C4A57762  20.604  29.192   7.350
 8914POPC   C1B57763  20.853  29.250   6.450
 8914POPC   C2B57764  20.831  29.263   6.750
 8914POPC   C3B57765  20.829  29.271   7.050
 8914POPC   C4B57766  20.820  29.246   7.350
 8915POPC   NC357767  22.188  17.540   5.550
 8915POPC   PO457768  22.187  17.489   5.850
 8915POPC   GL157769  22.167  17.457   6.150
 8915POPC   GL257770  22.207  17.344   6.150
 8915POPC   C1A57771  22.157  17.501   6.450
 8915POPC   D2A57772  22.182  17.520   6.750
 8915POPC   C3A57773  22.202  17.531   7.050
 8915POPC   C4A57774  22.166  17.536   7.350
 8915POPC   C1B57775  22.220  17.280   6.450
 8915POPC   C2B57776  22.233  17.219   6.750
 8915POPC   C3B57777  22.260  17.220   7.050
 8915POPC   C4B57778  22.228  17.227   7.350
 8916POPC   NC357779  41.512  38.436   5.550
 8916POPC   PO457780  41.605  38.491   5.850
 8916POPC   GL157781  41.542  38.499   6.150
 8916POPC   GL257782  41.609  38.315   6.150
 8916POPC   C1A57783  41.555  38.428   6.450
 8916POPC   D2A57784  41.569  38.447   6.750
 8916POPC   C3A57785  41.510  38.425   7.050
 8916POPC   C4A57786  41.552  38.439   7.350
 8916POPC   C1B57787  41.752  38.299   6.450
 8916POPC   C2B57788  41.744  38.317   6.750
 8916POPC   C3B57789  41.703  38.280   7.050
 8916POPC   C4B57790  41.754  38.270   7.350
 8917POPC   NC357791   3.499   4.331   5.550
 8917POPC   PO457792   3.535   4.328   5.850
 8917POPC   GL157793   3.527   4.356   6.150
 8917POPC   GL257794   3.516   4.413   6.150
 8917POPC   C1A57795   3.564   4.287   6.450
 8917POPC   D2A57796   3.571   4.291   6.750
 8917POPC   C3A57797   3.567   4.317   7.050
 8917POPC   C4A57798   3.505   4.315   7.350
 8917POPC   C1B57799   3.545   4.515   6.450
 8917POPC   C2B57800   3.472   4.589   6.750
 8917POPC   C3B57801   3.505   4.607   7.050
 8917POPC   C4B57802   3.514   4.614   7.350
 8918POPC   NC357803  19.072  27.616   5.550
 8918POPC   PO457804  19.085  27.624   5.850
 8918POPC   GL157805  19.041  27.603   6.150
 8918POPC   GL257806  19.019  27.503   6.150
 8918POPC   C1A57807  19.027  27.560   6.450
 8918POPC   D2A57808  19.041  27.560   6.750
 8918POPC   C3A57809  19.052  27.627   7.050
 8918POPC   C4A57810  19.040  27.551   7.350
 8918POPC   C1B57811  18.928  27.352   6.450
 8918POPC   C2B57812  18.973  27.354   6.750
 8918POPC   C3B57813  18.969  27.350   7.050
 8918POPC   C4B57814  18.917  27.398   7.350
 8919POPC   NC357815  43.866   6.657   5.550
 8919POPC   PO457816  43.857   6.627   5.850
 8919POPC   GL157817  43.849   6.673   6.150
 8919POPC   GL257818  43.787   6.730   6.150
 8919POPC   C1A57819  43.885   6.626   6.450
 8919POPC   D2A57820  43.888   6.629   6.750
 8919POPC   C3A57821  43.915   6.612   7.050
 8919POPC   C4A57822  43.922   6.685   7.350
 8919POPC   C1B57823  43.647   6.795   6.450
 8919POPC   C2B57824  43.628   6.817   6.750
 8919POPC   C3B57825  43.682   6.761   7.050
 8919POPC   C4B57826  43.658   6.821   7.350
 8920POPC   NC357827  26.785  26.851   5.550
 8920POPC   PO457828  26.851  26.797   5.850
 8920POPC   GL157829  26.837  26.785   6.150
 8920POPC   GL257830  26.712  26.861   6.150
 8920POPC   C1A57831  26.822  26.815   6.450
 8920POPC   D2A57832  26.771  26.794   6.750
 8920POPC   C3A57833  26.831  26.860   7.050
 8920POPC   C4A57834  26.828  26.847   7.350
 8920POPC   C1B57835  26.638  26.975   6.450
 8920POPC   C2B57836  26.640  26.958   6.750
 8920POPC   C3B57837  26.589  26.896   7.050
 8920POPC   C4B57838  26.565  26.918   7.350
 8921POPC   NC357839  16.778  22.980   5.550
 8921POPC   PO457840  16.713  22.914   5.850
 8921POPC   GL157841  16.763  22.927   6.150
 8921POPC   GL257842  16.879  22.974   6.150
 8921POPC   C1A57843  16.739  22.913   6.450
 8921POPC   D2A57844  16.746  22.894   6.750
 8921POPC   C3A57845  16.731  22.972   7.050
 8921POPC   C4A57846  16.710  22.946   7.350
 8921POPC   C1B57847  17.009  23.035   6.450
 8921POPC   C2B57848  16.945  23.045   6.750
 8921POPC   C3B57849  16.920  22.989   7.050
 8921POPC   C4B57850  16.968  23.052   7.350
 8922POPC   NC357851  31.480  12.050   5.550
 8922POPC   PO457852  31.511  12.074   5.850
 8922POPC   GL157853  31.437  12.101   6.150
 8922POPC   GL257854  31.465  11.921   6.150
 8922POPC   C1A57855  31.517  12.049   6.450
 8922POPC   D2A57856  31.445  12.104   6.750
 8922POPC   C3A57857  31.440  12.062   7.050
 8922POPC   C4A57858  31.437  12.088   7.350
 8922POPC   C1B57859  31.432  11.806   6.450
 8922POPC   C2B57860  31.413  11.849   6.750
 8922POPC   C3B57861  31.342  11.830   7.050
 8922POPC   C4B57862  31.403  11.800   7.350
 8923POPC   NC357863  36.100  34.621   5.550
 8923POPC   PO457864  36.081  34.563   5.850
 8923POPC   GL157865  36.157  34.572   6.150
 8923POPC   GL257866  36.109  34.723   6.150
 8923POPC   C1A57867  36.144  34.586   6.450
 8923POPC   D2A57868  36.152  34.586   6.750
 8923POPC   C3A57869  36.080  34.597   7.050
 8923POPC   C4A57870  36.078  34.573   7.350
 8923POPC   C1B57871  36.049  34.825   6.450
 8923POPC   C2B57872  35.999  34.813   6.750
 8923POPC   C3B57873  36.001  34.770   7.050
 8923POPC   C4B57874  36.015  34.774   7.350
 8924POPC   NC357875  44.690  39.186   5.550
 8924POPC   PO457876  44.685  39.258   5.850
 8924POPC   GL157877  44.706  39.210   6.150
 8924POPC   GL257878  44.700  39.156   6.150
 8924POPC   C1A57879  44.641  39.234   6.450
 8924POPC   D2A57880  44.707  39.248   6.750
 8924POPC   C3A57881  44.661  39.204   7.050
 8924POPC   C4A57882  44.683  39.234   7.350
 8924POPC   C1B57883  44.806  39.013   6.450
 8924POPC   C2B57884  44.775  39.028   6.750
 8924POPC   C3B57885  44.782  39.000   7.050
 8924POPC   C4B57886  44.742  39.006   7.350
 8925POPC   NC357887  42.368  33.804   5.550
 8925POPC   PO457888  42.348  33.769   5.850
 8925POPC   GL157889  42.356  33.825   6.150
 8925POPC   GL257890  42.425  33.881   6.150
 8925POPC   C1A57891  42.312  33.759   6.450
 8925POPC   D2A57892  42.371  33.767   6.750
 8925POPC   C3A57893  42.306  33.833   7.050
 8925POPC   C4A57894  42.305  33.817   7.350
 8925POPC   C1B57895  42.511  33.930   6.450
 8925POPC   C2B57896  42.553  33.984   6.750
 8925POPC   C3B57897  42.516  34.001   7.050
 8925POPC   C4B57898  42.536  33.936   7.350
 8926POPC   NC357899   3.555  10.545   5.550
 8926POPC   PO457900   3.521  10.538   5.850
 8926POPC   GL157901   3.504  10.540   6.150
 8926POPC   GL257902   3.627  10.378   6.150
 8926POPC   C1A57903   3.496  10.534   6.450
 8926POPC   D2A57904   3.559  10.572   6.750
 8926POPC   C3A57905   3.525  10.514   7.050
 8926POPC   C4A57906   3.536  10.483   7.350
 8926POPC   C1B57907   3.607  10.286   6.450
 8926POPC   C2B57908   3.645  10.240   6.750
 8926POPC   C3B57909   3.662  10.328   7.050
 8926POPC   C4B57910   3.585  10.324   7.350
 8927POPC   NC357911  40.746  34.569   5.550
 8927POPC   PO457912  40.770  34.528   5.850
 8927POPC   GL157913  40.761  34.568   6.150
 8927POPC   GL257914  40.665  34.585   6.150
 8927POPC   C1A57915  40.820  34.539   6.450
 8927POPC   D2A57916  40.737  34.537   6.750
 8927POPC   C3A57917  40.799  34.569   7.050
 8927POPC   C4A57918  40.770  34.574   7.350
 8927POPC   C1B57919  40.511  34.704   6.450
 8927POPC   C2B57920  40.527  34.722   6.750
 8927POPC   C3B57921  40.583  34.737   7.050
 8927POPC   C4B57922  40.609  34.688   7.350
 8928POPC   NC357923  18.307  40.049   5.550
 8928POPC   PO457924  18.297  39.976   5.850
 8928POPC   GL157925  18.300  39.994   6.150
 8928POPC   GL257926  18.438  40.014   6.150
 8928POPC   C1A57927  18.273  40.024   6.450
 8928POPC   D2A57928  18.262  40.006   6.750
 8928POPC   C3A57929  18.290  40.040   7.050
 8928POPC   C4A57930  18.325  39.983   7.350
 8928POPC   C1B57931  18.488  39.980   6.450
 8928POPC   C2B57932  18.501  40.060   6.750
 8928POPC   C3B57933  18.533  40.044   7.050
 8928POPC   C4B57934  18.560  40.051   7.350
 8929POPC   NC357935  14.440  22.143   5.550
 8929POPC   PO457936  14.416  22.138   5.850
 8929POPC   GL157937  14.361  22.125   6.150
 8929POPC   GL257938  14.304  22.217   6.150
 8929POPC   C1A57939  14.425  22.181   6.450
 8929POPC   D2A57940  14.420  22.209   6.750
 8929POPC   C3A57941  14.367  22.112   7.050
 8929POPC   C4A57942  14.423  22.132   7.350
 8929POPC   C1B57943  14.114  22.145   6.450
 8929POPC   C2B57944  14.129  22.189   6.750
 8929POPC   C3B57945  14.128  22.228   7.050
 8929POPC   C4B57946  14.106  22.164   7.350
 8930POPC   NC357947   6.638  33.039   5.550
 8930POPC   PO457948   6.653  32.992   5.850
 8930POPC   GL157949   6.687  32.998   6.150
 8930POPC   GL257950   6.588  33.089   6.150
 8930POPC   C1A57951   6.668  33.029   6.450
 8930POPC   D2A57952   6.670  32.982   6.750
 8930POPC   C3A57953   6.691  33.041   7.050
 8930POPC   C4A57954   6.611  33.015   7.350
 8930POPC   C1B57955   6.528  33.196   6.450
 8930POPC   C2B57956   6.518  33.173   6.750
 8930POPC   C3B57957   6.490  33.233   7.050
 8930POPC   C4B57958   6.517  33.200   7.350
 8931POPC   NC357959  34.533  43.125   5.550
 8931POPC   PO457960  34.575  43.090   5.850
 8931POPC   GL157961  34.585  43.077   6.150
 8931POPC   GL257962  34.430  43.186   6.150
 8931POPC   C1A57963  34.610  43.121   6.450
 8931POPC   D2A57964  34.607  43.070   6.750
 8931POPC   C3A57965  34.565  43.114   7.050
 8931POPC   C4A57966  34.558  43.137   7.350
 8931POPC   C1B57967  34.402  43.236   6.450
 8931POPC   C2B57968  34.400  43.233   6.750
 8931POPC   C3B57969  34.412  43.259   7.050
 8931POPC   C4B57970  34.367  43.210   7.350
 8932POPC   NC357971  22.903  30.648   5.550
 8932POPC   PO457972  22.947  30.693   5.850
 8932POPC   GL157973  22.956  30.728   6.150
 8932POPC   GL257974  23.072  30.750   6.150
 8932POPC   C1A57975  22.931  30.704   6.450
 8932POPC   D2A57976  22.974  30.744   6.750
 8932POPC   C3A57977  22.930  30.721   7.050
 8932POPC   C4A57978  22.912  30.671   7.350
 8932POPC   C1B57979  23.212  30.708   6.450
 8932POPC   C2B57980  23.152  30.744   6.750
 8932POPC   C3B57981  23.206  30.700   7.050
 8932POPC   C4B57982  23.170  30.670   7.350
 8933POPC   NC357983  12.046  42.334   5.550
 8933POPC   PO457984  12.117  42.357   5.850
 8933POPC   GL157985  12.047  42.328   6.150
 8933POPC   GL257986  12.116  42.217   6.150
 8933POPC   C1A57987  12.054  42.376   6.450
 8933POPC   D2A57988  12.108  42.329   6.750
 8933POPC   C3A57989  12.027  42.377   7.050
 8933POPC   C4A57990  12.112  42.330   7.350
 8933POPC   C1B57991  12.069  42.110   6.450
 8933POPC   C2B57992  12.091  42.086   6.750
 8933POPC   C3B57993  12.035  42.083   7.050
 8933POPC   C4B57994  12.021  42.063   7.350
 8934POPC   NC357995  42.318  19.801   5.550
 8934POPC   PO457996  42.319  19.879   5.850
 8934POPC   GL157997  42.372  19.865   6.150
 8934POPC   GL257998  42.218  19.906   6.150
 8934POPC   C1A57999  42.318  19.874   6.450
 8934POPC   D2A58000  42.351  19.876   6.750
 8934POPC   C3A58001  42.368  19.884   7.050
 8934POPC   C4A58002  42.314  19.842   7.350
 8934POPC   C1B58003  42.190  19.984   6.450
 8934POPC   C2B58004  42.170  19.998   6.750
 8934POPC   C3B58005  42.195  20.001   7.050
 8934POPC   C4B58006  42.139  20.029   7.350
 8935POPC   NC358007  32.276  32.279   5.550
 8935POPC   PO458008  32.293  32.246   5.850
 8935POPC   GL158009  32.263  32.290   6.150
 8935POPC   GL258010  32.399  32.236   6.150
 8935POPC   C1A58011  32.202  32.248   6.450
 8935POPC   D2A58012  32.243  32.265   6.750
 8935POPC   C3A58013  32.201  32.293   7.050
 8935POPC   C4A58014  32.257  32.267   7.350
 8935POPC   C1B58015  32.502  32.335   6.450
 8935POPC   C2B58016  32.527  32.295   6.750
 8935POPC   C3B58017  32.519  32.313   7.050
 8935POPC   C4B58018  32.480  32.345   7.350
 8936POPC   NC358019  26.777  27.549   5.550
 8936POPC   PO458020  26.837  27.558   5.850
 8936POPC   GL158021  26.811  27.543   6.150
 8936POPC   GL258022  26.670  27.619   6.150
 8936POPC   C1A58023  26.813  27.628   6.450
 8936POPC   D2A58024  26.832  27.627   6.750
 8936POPC   C3A58025  26.825  27.622   7.050
 8936POPC   C4A58026  26.833  27.628   7.350
 8936POPC   C1B58027  26.552  27.574   6.450
 8936POPC   C2B58028  26.579  27.543   6.750
 8936POPC   C3B58029  26.541  27.581   7.050
 8936POPC   C4B58030  26.582  27.570   7.350
 8937POPC   NC358031  19.053   2.033   5.550
 8937POPC   PO458032  19.091   1.985   5.850
 8937POPC   GL158033  19.010   1.968   6.150
 8937POPC   GL258034  19.169   2.020   6.150
 8937POPC   C1A58035  19.062   2.016   6.450
 8937POPC   D2A58036  19.057   1.971   6.750
 8937POPC   C3A58037  19.030   2.019   7.050
 8937POPC   C4A58038  19.025   1.991   7.350
 8937POPC   C1B58039  19.320   2.060   6.450
 8937POPC   C2B58040  19.276   1.972   6.750
 8937POPC   C3B58041  19.354   2.028   7.050
 8937POPC   C4B58042  19.335   1.962   7.350
 8938POPC   NC358043   0.428   1.982   5.550
 8938POPC   PO458044   0.388   1.946   5.850
 8938POPC   GL158045   0.447   2.039   6.150
 8938POPC   GL258046   0.559   1.875   6.150
 8938POPC   C1A58047   0.441   1.977   6.450
 8938POPC   D2A58048   0.447   1.998   6.750
 8938POPC   C3A58049   0.390   2.027   7.050
 8938POPC   C4A58050   0.422   1.941   7.350
 8938POPC   C1B58051   0.616   1.813   6.450
 8938POPC   C2B58052   0.633   1.800   6.750
 8938POPC   C3B58053   0.620   1.828   7.050
 8938POPC   C4B58054   0.640   1.811   7.350
 8939POPC   NC358055  19.806   5.095   5.550
 8939POPC   PO458056  19.801   5.079   5.850
 8939POPC   GL158057  19.837   5.047   6.150
 8939POPC   GL258058  19.886   5.149   6.150
 8939POPC   C1A58059  19.805   5.117   6.450
 8939POPC   D2A58060  19.813   5.062   6.750
 8939POPC   C3A58061  19.864   5.067   7.050
 8939POPC   C4A58062  19.806   5.100   7.350
 8939POPC   C1B58063  20.039   5.268   6.450
 8939POPC   C2B58064  20.022   5.263   6.750
 8939POPC   C3B58065  20.071   5.294   7.050
 8939POPC   C4B58066  19.990   5.290   7.350
 8940POPC   NC358067  36.925  33.011   5.550
 8940POPC   PO458068  36.881  33.004   5.850
 8940POPC   GL158069  36.867  32.982   6.150
 8940POPC   GL258070  36.901  33.159   6.150
 8940POPC   C1A58071  36.946  33.001   6.450
 8940POPC   D2A58072  36.905  33.070   6.750
 8940POPC   C3A58073  36.857  33.027   7.050
 8940POPC   C4A58074  36.920  32.983   7.350
 8940POPC   C1B58075  36.837  33.270   6.450
 8940POPC   C2B58076  36.903  33.284   6.750
 8940POPC   C3B58077  36.855  33.234   7.050
 8940POPC   C4B58078  36.895  33.306   7.350
 8941POPC   NC358079   4.341  37.686   5.550
 8941POPC   PO458080   4.327  37.716   5.850
 8941POPC   GL158081   4.313  37.721   6.150
 8941POPC   GL258082   4.238  37.765   6.150
 8941POPC   C1A58083   4.278  37.727   6.450
 8941POPC   D2A58084   4.283  37.728   6.750
 8941POPC   C3A58085   4.316  37.654   7.050
 8941POPC   C4A58086   4.291  37.704   7.350
 8941POPC   C1B58087   4.043  37.775   6.450
 8941POPC   C2B58088   4.042  37.725   6.750
 8941POPC   C3B58089   4.069  37.757   7.050
 8941POPC   C4B58090   4.063  37.786   7.350
 8942POPC   NC358091  17.486  34.590   5.550
 8942POPC   PO458092  17.530  34.556   5.850
 8942POPC   GL158093  17.548  34.621   6.150
 8942POPC   GL258094  17.612  34.642   6.150
 8942POPC   C1A58095  17.528  34.596   6.450
 8942POPC   D2A58096  17.465  34.609   6.750
 8942POPC   C3A58097  17.524  34.528   7.050
 8942POPC   C4A58098  17.465  34.566   7.350
 8942POPC   C1B58099  17.774  34.719   6.450
 8942POPC   C2B58100  17.737  34.665   6.750
 8942POPC   C3B58101  17.711  34.721   7.050
 8942POPC   C4B58102  17.725  34.686   7.350
 8943POPC   NC358103  31.483  37.723   5.550
 8943POPC   PO458104  31.445  37.670   5.850
 8943POPC   GL158105  31.437  37.710   6.150
 8943POPC   GL258106  31.474  37.816   6.150
 8943POPC   C1A58107  31.502  37.639   6.450
 8943POPC   D2A58108  31.522  37.695   6.750
 8943POPC   C3A58109  31.510  37.681   7.050
 8943POPC   C4A58110  31.434  37.662   7.350
 8943POPC   C1B58111  31.471  37.945   6.450
 8943POPC   C2B58112  31.446  37.884   6.750
 8943POPC   C3B58113  31.485  37.897   7.050
 8943POPC   C4B58114  31.431  37.881   7.350
 8944POPC   NC358115  39.201  33.052   5.550
 8944POPC   PO458116  39.199  33.056   5.850
 8944POPC   GL158117  39.270  33.061   6.150
 8944POPC   GL258118  39.095  33.051   6.150
 8944POPC   C1A58119  39.230  33.024   6.450
 8944POPC   D2A58120  39.269  32.996   6.750
 8944POPC   C3A58121  39.267  33.044   7.050
 8944POPC   C4A58122  39.242  32.986   7.350
 8944POPC   C1B58123  39.001  33.172   6.450
 8944POPC   C2B58124  39.073  33.146   6.750
 8944POPC   C3B58125  39.000  33.131   7.050
 8944POPC   C4B58126  38.998  33.190   7.350
 8945POPC   NC358127  37.702  21.378   5.550
 8945POPC   PO458128  37.695  21.422   5.850
 8945POPC   GL158129  37.681  21.342   6.150
 8945POPC   GL258130  37.739  21.477   6.150
 8945POPC   C1A58131  37.714  21.399   6.450
 8945POPC   D2A58132  37.644  21.401   6.750
 8945POPC   C3A58133  37.718  21.336   7.050
 8945POPC   C4A58134  37.717  21.434   7.350
 8945POPC   C1B58135  37.830  21.623   6.450
 8945POPC   C2B58136  37.814  21.606   6.750
 8945POPC   C3B58137  37.760  21.633   7.050
 8945POPC   C4B58138  37.765  21.568   7.350
 8946POPC   NC358139  26.824  41.599   5.550
 8946POPC   PO458140  26.852  41.509   5.850
 8946POPC   GL158141  26.808  41.523   6.150
 8946POPC   GL258142  26.888  41.507   6.150
 8946POPC   C1A58143  26.846  41.541   6.450
 8946POPC   D2A58144  26.831  41.549   6.750
 8946POPC   C3A58145  26.860  41.592   7.050
 8946POPC   C4A58146  26.824  41.566   7.350
 8946POPC   C1B58147  27.025  41.518   6.450
 8946POPC   C2B58148  27.098  41.487   6.750
 8946POPC   C3B58149  27.010  41.498   7.050
 8946POPC   C4B58150  27.051  41.520   7.350
 8947POPC   NC358151  33.782  38.443   5.550
 8947POPC   PO458152  33.836  38.458   5.850
 8947POPC   GL158153  33.828  38.495   6.150
 8947POPC   GL258154  33.905  38.490   6.150
 8947POPC   C1A58155  33.785  38.465   6.450
 8947POPC   D2A58156  33.849  38.414   6.750
 8947POPC   C3A58157  33.802  38.470   7.050
 8947POPC   C4A58158  33.774  38.407   7.350
 8947POPC   C1B58159  34.045  38.600   6.450
 8947POPC   C2B58160  34.024  38.560   6.750
 8947POPC   C3B58161  34.032  38.551   7.050
 8947POPC   C4B58162  34.038  38.539   7.350
 8948POPC   NC358163  11.282   8.219   5.550
 8948POPC   PO458164  11.266   8.184   5.850
 8948POPC   GL158165  11.286   8.240   6.150
 8948POPC   GL258166  11.407   8.142   6.150
 8948POPC   C1A58167  11.256   8.208   6.450
 8948POPC   D2A58168  11.313   8.148   6.750
 8948POPC   C3A58169  11.263   8.231   7.050
 8948POPC   C4A58170  11.322   8.230   7.350
 8948POPC   C1B58171  11.409   7.959   6.450
 8948POPC   C2B58172  11.476   7.948   6.750
 8948POPC   C3B58173  11.456   7.997   7.050
 8948POPC   C4B58174  11.467   7.964   7.350
 8949POPC   NC358175   2.733  21.374   5.550
 8949POPC   PO458176   2.730  21.413   5.850
 8949POPC   GL158177   2.770  21.358   6.150
 8949POPC   GL258178   2.840  21.450   6.150
 8949POPC   C1A58179   2.802  21.414   6.450
 8949POPC   D2A58180   2.724  21.426   6.750
 8949POPC   C3A58181   2.813  21.383   7.050
 8949POPC   C4A58182   2.736  21.396   7.350
 8949POPC   C1B58183   2.991  21.444   6.450
 8949POPC   C2B58184   2.969  21.445   6.750
 8949POPC   C3B58185   3.024  21.444   7.050
 8949POPC   C4B58186   3.020  21.505   7.350
 8950POPC   NC358187  19.872  19.088   5.550
 8950POPC   PO458188  19.876  19.039   5.850
 8950POPC   GL158189  19.829  19.058   6.150
 8950POPC   GL258190  19.930  19.091   6.150
 8950POPC   C1A58191  19.875  19.019   6.450
 8950POPC   D2A58192  19.855  19.012   6.750
 8950POPC   C3A58193  19.828  19.051   7.050
 8950POPC   C4A58194  19.791  19.038   7.350
 8950POPC   C1B58195  20.014  19.248   6.450
 8950POPC   C2B58196  20.044  19.174   6.750
 8950POPC   C3B58197  20.002  19.179   7.050
 8950POPC   C4B58198  20.056  19.214   7.350
 8951POPC   NC358199  33.849  34.550   5.550
 8951POPC   PO458200  33.774  34.617   5.850
 8951POPC   GL158201  33.823  34.546   6.150
 8951POPC   GL258202  33.723  34.536   6.150
 8951POPC   C1A58203  33.781  34.533   6.450
 8951POPC   D2A58204  33.754  34.554   6.750
 8951POPC   C3A58205  33.847  34.602   7.050
 8951POPC   C4A58206  33.816  34.549   7.350
 8951POPC   C1B58207  33.599  34.423   6.450
 8951POPC   C2B58208  33.554  34.457   6.750
 8951POPC   C3B58209  33.564  34.490   7.050
 8951POPC   C4B58210  33.552  34.492   7.350
 8952POPC   NC358211  43.882  43.845   5.550
 8952POPC   PO458212  43.931  43.907   5.850
 8952POPC   GL158213  43.881  43.879   6.150
 8952POPC   GL258214  43.971  43.862   6.150
 8952POPC   C1A58215  43.869  43.933   6.450
 8952POPC   D2A58216  43.914  43.934   6.750
 8952POPC   C3A58217  43.912  43.874   7.050
 8952POPC   C4A58218  43.930  43.936   7.350
 8952POPC   C1B58219  44.152  43.767   6.450
 8952POPC   C2B58220  44.132  43.808   6.750
 8952POPC   C3B58221  44.148  43.779   7.050
 8952POPC   C4B58222  44.113  43.721   7.350
 8953POPC   NC358223  19.806  29.877   5.550
 8953POPC   PO458224  19.844  29.965   5.850
 8953POPC   GL158225  19.797  29.913   6.150
 8953POPC   GL258226  19.729  29.865   6.150
 8953POPC   C1A58227  19.848  29.944   6.450
 8953POPC   D2A58228  19.870  29.948   6.750
 8953POPC   C3A58229  19.848  29.892   7.050
 8953POPC   C4A58230  19.809  29.965   7.350
 8953POPC   C1B58231  19.689  29.744   6.450
 8953POPC   C2B58232  19.673  29.750   6.750
 8953POPC   C3B58233  19.642  29.698   7.050
 8953POPC   C4B58234  19.654  29.715   7.350
 8954POPC   NC358235  33.015  39.965   5.550
 8954POPC   PO458236  33.005  39.983   5.850
 8954POPC   GL158237  33.025  39.976   6.150
 8954POPC   GL258238  32.880  39.972   6.150
 8954POPC   C1A58239  33.038  40.039   6.450
 8954POPC   D2A58240  33.014  39.964   6.750
 8954POPC   C3A58241  32.981  39.962   7.050
 8954POPC   C4A58242  33.032  40.055   7.350
 8954POPC   C1B58243  32.787  40.018   6.450
 8954POPC   C2B58244  32.753  39.980   6.750
 8954POPC   C3B58245  32.797  39.942   7.050
 8954POPC   C4B58246  32.815  40.010   7.350
 8955POPC   NC358247   2.777  22.938   5.550
 8955POPC   PO458248   2.719  22.975   5.850
 8955POPC   GL158249   2.730  22.955   6.150
 8955POPC   GL258250   2.794  22.787   6.150
 8955POPC   C1A58251   2.774  22.900   6.450
 8955POPC   D2A58252   2.773  22.967   6.750
 8955POPC   C3A58253   2.730  22.938   7.050
 8955POPC   C4A58254   2.804  22.889   7.350
 8955POPC   C1B58255   2.886  22.665   6.450
 8955POPC   C2B58256   2.831  22.723   6.750
 8955POPC   C3B58257   2.871  22.688   7.050
 8955POPC   C4B58258   2.857  22.756   7.350
 8956POPC   NC358259  43.862  14.381   5.550
 8956POPC   PO458260  43.861  14.369   5.850
 8956POPC   GL158261  43.888  14.431   6.150
 8956POPC   GL258262  43.806  14.342   6.150
 8956POPC   C1A58263  43.927  14.422   6.450
 8956POPC   D2A58264  43.879  14.367   6.750
 8956POPC   C3A58265  43.922  14.379   7.050
 8956POPC   C4A58266  43.891  14.396   7.350
 8956POPC   C1B58267  43.704  14.331   6.450
 8956POPC   C2B58268  43.641  14.334   6.750
 8956POPC   C3B58269  43.610  14.324   7.050
 8956POPC   C4B58270  43.672  14.272   7.350
 8957POPC   NC358271  39.964   7.379   5.550
 8957POPC   PO458272  39.986   7.453   5.850
 8957POPC   GL158273  40.048   7.432   6.150
 8957POPC   GL258274  39.927   7.382   6.150
 8957POPC   C1A58275  40.033   7.428   6.450
 8957POPC   D2A58276  39.974   7.447   6.750
 8957POPC   C3A58277  39.998   7.434   7.050
 8957POPC   C4A58278  40.022   7.394   7.350
 8957POPC   C1B58279  39.786   7.257   6.450
 8957POPC   C2B58280  39.812   7.239   6.750
 8957POPC   C3B58281  39.760   7.254   7.050
 8957POPC   C4B58282  39.826   7.297   7.350
 8958POPC   NC358283  10.504  14.453   5.550
 8958POPC   PO458284  10.525  14.442   5.850
 8958POPC   GL158285  10.488  14.383   6.150
 8958POPC   GL258286  10.445  14.348   6.150
 8958POPC   C1A58287  10.563  14.446   6.450
 8958POPC   D2A58288  10.572  14.407   6.750
 8958POPC   C3A58289  10.484  14.451   7.050
 8958POPC   C4A58290  10.494  14.439   7.350
 8958POPC   C1B58291  10.293  14.287   6.450
 8958POPC   C2B58292  10.341  14.323   6.750
 8958POPC   C3B58293  10.318  14.272   7.050
 8958POPC   C4B58294  10.305  14.312   7.350
 8959POPC   NC358295  20.601  26.827   5.550
 8959POPC   PO458296  20.571  26.825   5.850
 8959POPC   GL158297  20.590  26.844   6.150
 8959POPC   GL258298  20.582  26.680   6.150
 8959POPC   C1A58299  20.599  26.796   6.450
 8959POPC   D2A58300  20.626  26.861   6.750
 8959POPC   C3A58301  20.588  26.838   7.050
 8959POPC   C4A58302  20.647  26.781   7.350
 8959POPC   C1B58303  20.456  26.609   6.450
 8959POPC   C2B58304  20.499  26.564   6.750
 8959POPC   C3B58305  20.511  26.641   7.050
 8959POPC   C4B58306  20.517  26.572   7.350
 8960POPC   NC358307  43.898  12.859   5.550
 8960POPC   PO458308  43.910  12.877   5.850
 8960POPC   GL158309  43.928  12.869   6.150
 8960POPC   GL258310  43.986  12.871   6.150
 8960POPC   C1A58311  43.920  12.814   6.450
 8960POPC   D2A58312  43.872  12.892   6.750
 8960POPC   C3A58313  43.881  12.838   7.050
 8960POPC   C4A58314  43.884  12.819   7.350
 8960POPC   C1B58315  44.115  13.026   6.450
 8960POPC   C2B58316  44.097  12.946   6.750
 8960POPC   C3B58317  44.134  12.971   7.050
 8960POPC   C4B58318  44.051  12.960   7.350
 8961POPC   NC358319  29.902  34.573   5.550
 8961POPC   PO458320  29.901  34.617   5.850
 8961POPC   GL158321  29.923  34.526   6.150
 8961POPC   GL258322  30.010  34.492   6.150
 8961POPC   C1A58323  29.968  34.554   6.450
 8961POPC   D2A58324  29.936  34.615   6.750
 8961POPC   C3A58325  29.911  34.618   7.050
 8961POPC   C4A58326  29.963  34.535   7.350
 8961POPC   C1B58327  30.000  34.323   6.450
 8961POPC   C2B58328  30.035  34.338   6.750
 8961POPC   C3B58329  29.986  34.365   7.050
 8961POPC   C4B58330  29.996  34.346   7.350
 8962POPC   NC358331   5.072  44.628   5.550
 8962POPC   PO458332   5.078  44.647   5.850
 8962POPC   GL158333   5.121  44.655   6.150
 8962POPC   GL258334   5.084  44.801   6.150
 8962POPC   C1A58335   5.130  44.677   6.450
 8962POPC   D2A58336   5.063  44.625   6.750
 8962POPC   C3A58337   5.123  44.633   7.050
 8962POPC   C4A58338   5.051  44.658   7.350
 8962POPC   C1B58339   5.083  44.951   6.450
 8962POPC   C2B58340   5.146  44.958   6.750
 8962POPC   C3B58341   5.113  44.921   7.050
 8962POPC   C4B58342   5.156  44.892   7.350
 8963POPC   NC358343   9.745  26.859   5.550
 8963POPC   PO458344   9.793  26.807   5.850
 8963POPC   GL158345   9.795  26.851   6.150
 8963POPC   GL258346   9.840  26.887   6.150
 8963POPC   C1A58347   9.702  26.771   6.450
 8963POPC   D2A58348   9.777  26.846   6.750
 8963POPC   C3A58349   9.728  26.856   7.050
 8963POPC   C4A58350   9.734  26.813   7.350
 8963POPC   C1B58351   9.923  27.052   6.450
 8963POPC   C2B58352   9.923  27.020   6.750
 8963POPC   C3B58353   9.877  27.013   7.050
 8963POPC   C4B58354   9.943  27.022   7.350
 8964POPC   NC358355  18.247  43.842   5.550
 8964POPC   PO458356  18.329  43.914   5.850
 8964POPC   GL158357  18.267  43.862   6.150
 8964POPC   GL258358  18.267  43.741   6.150
 8964POPC   C1A58359  18.269  43.860   6.450
 8964POPC   D2A58360  18.273  43.913   6.750
 8964POPC   C3A58361  18.333  43.879   7.050
 8964POPC   C4A58362  18.253  43.877   7.350
 8964POPC   C1B58363  18.341  43.686   6.450
 8964POPC   C2B58364  18.367  43.651   6.750
 8964POPC   C3B58365  18.366  43.614   7.050
 8964POPC   C4B58366  18.371  43.639   7.350
 8965POPC   NC358367   9.766  23.737   5.550
 8965POPC   PO458368   9.765  23.760   5.850
 8965POPC   GL158369   9.733  23.730   6.150
 8965POPC   GL258370   9.874  23.620   6.150
 8965POPC   C1A58371   9.760  23.721   6.450
 8965POPC   D2A58372   9.764  23.742   6.750
 8965POPC   C3A58373   9.722  23.705   7.050
 8965POPC   C4A58374   9.791  23.695   7.350
 8965POPC   C1B58375   9.955  23.537   6.450
 8965POPC   C2B58376   9.911  23.562   6.750
 8965POPC   C3B58377   9.940  23.539   7.050
 8965POPC   C4B58378   9.941  23.568   7.350
 8966POPC   NC358379  16.749   6.603   5.550
 8966POPC   PO458380  16.718   6.598   5.850
 8966POPC   GL158381  16.717   6.655   6.150
 8966POPC   GL258382  16.859   6.558   6.150
 8966POPC   C1A58383  16.781   6.616   6.450
 8966POPC   D2A58384  16.718   6.640   6.750
 8966POPC   C3A58385  16.694   6.630   7.050
 8966POPC   C4A58386  16.774   6.615   7.350
 8966POPC   C1B58387  16.979   6.473   6.450
 8966POPC   C2B58388  16.910   6.456   6.750
 8966POPC   C3B58389  16.955   6.468   7.050
 8966POPC   C4B58390  16.941   6.489   7.350
 8967POPC   NC358391  43.154  14.436   5.550
 8967POPC   PO458392  43.107  14.357   5.850
 8967POPC   GL158393  43.141  14.377   6.150
 8967POPC   GL258394  43.129  14.260   6.150
 8967POPC   C1A58395  43.062  14.355   6.450
 8967POPC   D2A58396  43.138  14.395   6.750
 8967POPC   C3A58397  43.115  14.382   7.050
 8967POPC   C4A58398  43.065  14.376   7.350
 8967POPC   C1B58399  43.157  14.156   6.450
 8967POPC   C2B58400  43.196  14.169   6.750
 8967POPC   C3B58401  43.155  14.139   7.050
 8967POPC   C4B58402  43.173  14.165   7.350
 8968POPC   NC358403  29.922  24.472   5.550
 8968POPC   PO458404  29.877  24.458   5.850
 8968POPC   GL158405  29.948  24.529   6.150
 8968POPC   GL258406  29.899  24.403   6.150
 8968POPC   C1A58407  29.877  24.471   6.450
 8968POPC   D2A58408  29.949  24.497   6.750
 8968POPC   C3A58409  29.871  24.492   7.050
 8968POPC   C4A58410  29.964  24.452   7.350
 8968POPC   C1B58411  29.947  24.222   6.450
 8968POPC   C2B58412  29.938  24.254   6.750
 8968POPC   C3B58413  29.894  24.197   7.050
 8968POPC   C4B58414  29.913  24.260   7.350
 8969POPC   NC358415  26.056  29.937   5.550
 8969POPC   PO458416  26.066  29.959   5.850
 8969POPC   GL158417  26.082  29.966   6.150
 8969POPC   GL258418  26.121  29.880   6.150
 8969POPC   C1A58419  26.081  29.929   6.450
 8969POPC   D2A58420  26.038  29.942   6.750
 8969POPC   C3A58421  26.051  29.873   7.050
 8969POPC   C4A58422  26.004  29.927   7.350
 8969POPC   C1B58423  26.291  29.795   6.450
 8969POPC   C2B58424  26.285  29.850   6.750
 8969POPC   C3B58425  26.246  29.852   7.050
 8969POPC   C4B58426  26.240  29.818   7.350
 8970POPC   NC358427   6.612  28.341   5.550
 8970POPC   PO458428   6.648  28.370   5.850
 8970POPC   GL158429   6.611  28.358   6.150
 8970POPC   GL258430   6.730  28.417   6.150
 8970POPC   C1A58431   6.681  28.349   6.450
 8970POPC   D2A58432   6.630  28.343   6.750
 8970POPC   C3A58433   6.637  28.365   7.050
 8970POPC   C4A58434   6.679  28.321   7.350
 8970POPC   C1B58435   6.839  28.476   6.450
 8970POPC   C2B58436   6.843  28.484   6.750
 8970POPC   C3B58437   6.892  28.452   7.050
 8970POPC   C4B58438   6.833  28.489   7.350
 8971POPC   NC358439   7.433  44.697   5.550
 8971POPC   PO458440   7.460  44.622   5.850
 8971POPC   GL158441   7.448  44.671   6.150
 8971POPC   GL258442   7.536  44.618   6.150
 8971POPC   C1A58443   7.460  44.637   6.450
 8971POPC   D2A58444   7.414  44.704   6.750
 8971POPC   C3A58445   7.387  44.664   7.050
 8971POPC   C4A58446   7.447  44.630   7.350
 8971POPC   C1B58447   7.645  44.634   6.450
 8971POPC   C2B58448   7.640  44.702   6.750
 8971POPC   C3B58449   7.646  44.619   7.050
 8971POPC   C4B58450   7.719  44.669   7.350
 8972POPC   NC358451  33.824  11.318   5.550
 8972POPC   PO458452  33.777  11.267   5.850
 8972POPC   GL158453  33.841  11.297   6.150
 8972POPC   GL258454  33.811  11.163   6.150
 8972POPC   C1A58455  33.793  11.342   6.450
 8972POPC   D2A58456  33.762  11.307   6.750
 8972POPC   C3A58457  33.828  11.280   7.050
 8972POPC   C4A58458  33.795  11.335   7.350
 8972POPC   C1B58459  33.914  11.075   6.450
 8972POPC   C2B58460  33.845  11.030   6.750
 8972POPC   C3B58461  33.832  11.059   7.050
 8972POPC   C4B58462  33.821  11.081   7.350
 8973POPC   NC358463  10.554  43.892   5.550
 8973POPC   PO458464  10.521  43.918   5.850
 8973POPC   GL158465  10.546  43.876   6.150
 8973POPC   GL258466  10.453  44.057   6.150
 8973POPC   C1A58467  10.534  43.904   6.450
 8973POPC   D2A58468  10.568  43.840   6.750
 8973POPC   C3A58469  10.508  43.860   7.050
 8973POPC   C4A58470  10.477  43.863   7.350
 8973POPC   C1B58471  10.429  44.151   6.450
 8973POPC   C2B58472  10.454  44.108   6.750
 8973POPC   C3B58473  10.447  44.119   7.050
 8973POPC   C4B58474  10.497  44.174   7.350
 8974POPC   NC358475  19.847  19.785   5.550
 8974POPC   PO458476  19.859  19.809   5.850
 8974POPC   GL158477  19.858  19.858   6.150
 8974POPC   GL258478  19.916  19.956   6.150
 8974POPC   C1A58479  19.843  19.861   6.450
 8974POPC   D2A58480  19.793  19.830   6.750
 8974POPC   C3A58481  19.816  19.871   7.050
 8974POPC   C4A58482  19.806  19.802   7.350
 8974POPC   C1B58483  19.970  20.045   6.450
 8974POPC   C2B58484  19.970  20.083   6.750
 8974POPC   C3B58485  19.915  20.020   7.050
 8974POPC   C4B58486  19.976  20.034   7.350
 8975POPC   NC358487  21.408  14.359   5.550
 8975POPC   PO458488  21.346  14.442   5.850
 8975POPC   GL158489  21.396  14.410   6.150
 8975POPC   GL258490  21.468  14.455   6.150
 8975POPC   C1A58491  21.436  14.390   6.450
 8975POPC   D2A58492  21.337  14.379   6.750
 8975POPC   C3A58493  21.389  14.379   7.050
 8975POPC   C4A58494  21.356  14.451   7.350
 8975POPC   C1B58495  21.599  14.583   6.450
 8975POPC   C2B58496  21.548  14.567   6.750
 8975POPC   C3B58497  21.512  14.591   7.050
 8975POPC   C4B58498  21.517  14.538   7.350
 8976POPC   NC358499  34.599   1.247   5.550
 8976POPC   PO458500  34.563   1.256   5.850
 8976POPC   GL158501  34.554   1.247   6.150
 8976POPC   GL258502  34.630   1.341   6.150
 8976POPC   C1A58503  34.542   1.185   6.450
 8976POPC   D2A58504  34.530   1.261   6.750
 8976POPC   C3A58505  34.593   1.206   7.050
 8976POPC   C4A58506  34.619   1.258   7.350
 8976POPC   C1B58507  34.733   1.420   6.450
 8976POPC   C2B58508  34.791   1.358   6.750
 8976POPC   C3B58509  34.774   1.438   7.050
 8976POPC   C4B58510  34.695   1.373   7.350
 8977POPC   NC358511  19.877  23.753   5.550
 8977POPC   PO458512  19.806  23.675   5.850
 8977POPC   GL158513  19.847  23.735   6.150
 8977POPC   GL258514  19.977  23.726   6.150
 8977POPC   C1A58515  19.841  23.676   6.450
 8977POPC   D2A58516  19.843  23.706   6.750
 8977POPC   C3A58517  19.852  23.753   7.050
 8977POPC   C4A58518  19.851  23.693   7.350
 8977POPC   C1B58519  20.058  23.760   6.450
 8977POPC   C2B58520  20.096  23.736   6.750
 8977POPC   C3B58521  20.105  23.690   7.050
 8977POPC   C4B58522  20.127  23.693   7.350
 8978POPC   NC358523   6.676  11.252   5.550
 8978POPC   PO458524   6.595  11.284   5.850
 8978POPC   GL158525   6.671  11.311   6.150
 8978POPC   GL258526   6.738  11.323   6.150
 8978POPC   C1A58527   6.674  11.290   6.450
 8978POPC   D2A58528   6.611  11.311   6.750
 8978POPC   C3A58529   6.637  11.333   7.050
 8978POPC   C4A58530   6.653  11.271   7.350
 8978POPC   C1B58531   6.846  11.217   6.450
 8978POPC   C2B58532   6.857  11.292   6.750
 8978POPC   C3B58533   6.861  11.261   7.050
 8978POPC   C4B58534   6.898  11.276   7.350
 8979POPC   NC358535  37.649  34.556   5.550
 8979POPC   PO458536  37.715  34.604   5.850
 8979POPC   GL158537  37.672  34.601   6.150
 8979POPC   GL258538  37.685  34.492   6.150
 8979POPC   C1A58539  37.634  34.624   6.450
 8979POPC   D2A58540  37.645  34.622   6.750
 8979POPC   C3A58541  37.644  34.606   7.050
 8979POPC   C4A58542  37.701  34.612   7.350
 8979POPC   C1B58543  37.733  34.351   6.450
 8979POPC   C2B58544  37.768  34.354   6.750
 8979POPC   C3B58545  37.792  34.376   7.050
 8979POPC   C4B58546  37.752  34.305   7.350
 8980POPC   NC358547  36.945  29.886   5.550
 8980POPC   PO458548  36.942  29.891   5.850
 8980POPC   GL158549  36.879  29.970   6.150
 8980POPC   GL258550  37.054  29.859   6.150
 8980POPC   C1A58551  36.871  29.901   6.450
 8980POPC   D2A58552  36.871  29.946   6.750
 8980POPC   C3A58553  36.893  29.918   7.050
 8980POPC   C4A58554  36.861  29.966   7.350
 8980POPC   C1B58555  37.160  29.883   6.450
 8980POPC   C2B58556  37.123  29.877   6.750
 8980POPC   C3B58557  37.194  29.897   7.050
 8980POPC   C4B58558  37.139  29.834   7.350
 8981POPC   NC358559  16.702  24.509   5.550
 8981POPC   PO458560  16.757  24.486   5.850
 8981POPC   GL158561  16.708  24.447   6.150
 8981POPC   GL258562  16.601  24.457   6.150
 8981POPC   C1A58563  16.689  24.483   6.450
 8981POPC   D2A58564  16.763  24.462   6.750
 8981POPC   C3A58565  16.726  24.481   7.050
 8981POPC   C4A58566  16.710  24.462   7.350
 8981POPC   C1B58567  16.534  24.470   6.450
 8981POPC   C2B58568  16.481  24.458   6.750
 8981POPC   C3B58569  16.436  24.476   7.050
 8981POPC   C4B58570  16.470  24.448   7.350
 8982POPC   NC358571  43.914  19.031   5.550
 8982POPC   PO458572  43.839  19.097   5.850
 8982POPC   GL158573  43.892  19.044   6.150
 8982POPC   GL258574  43.802  18.918   6.150
 8982POPC   C1A58575  43.882  19.013   6.450
 8982POPC   D2A58576  43.925  19.027   6.750
 8982POPC   C3A58577  43.926  19.095   7.050
 8982POPC   C4A58578  43.865  19.059   7.350
 8982POPC   C1B58579  43.685  18.886   6.450
 8982POPC   C2B58580  43.679  18.851   6.750
 8982POPC   C3B58581  43.707  18.877   7.050
 8982POPC   C4B58582  43.733  18.882   7.350
 8983POPC   NC358583  20.591  23.690   5.550
 8983POPC   PO458584  20.602  23.737   5.850
 8983POPC   GL158585  20.659  23.688   6.150
 8983POPC   GL258586  20.645  23.808   6.150
 8983POPC   C1A58587  20.638  23.756   6.450
 8983POPC   D2A58588  20.562  23.733   6.750
 8983POPC   C3A58589  20.561  23.671   7.050
 8983POPC   C4A58590  20.626  23.720   7.350
 8983POPC   C1B58591  20.736  23.963   6.450
 8983POPC   C2B58592  20.772  23.960   6.750
 8983POPC   C3B58593  20.673  23.907   7.050
 8983POPC   C4B58594  20.713  23.899   7.350
 8984POPC   NC358595   7.421  29.945   5.550
 8984POPC   PO458596   7.390  29.918   5.850
 8984POPC   GL158597   7.421  29.890   6.150
 8984POPC   GL258598   7.548  29.854   6.150
 8984POPC   C1A58599   7.453  29.933   6.450
 8984POPC   D2A58600   7.378  29.904   6.750
 8984POPC   C3A58601   7.407  29.879   7.050
 8984POPC   C4A58602   7.374  29.952   7.350
 8984POPC   C1B58603   7.652  29.861   6.450
 8984POPC   C2B58604   7.679  29.851   6.750
 8984POPC   C3B58605   7.655  29.894   7.050
 8984POPC   C4B58606   7.626  29.846   7.350
 8985POPC   NC358607  28.395  29.159   5.550
 8985POPC   PO458608  28.413  29.150   5.850
 8985POPC   GL158609  28.413  29.096   6.150
 8985POPC   GL258610  28.257  29.123   6.150
 8985POPC   C1A58611  28.390  29.108   6.450
 8985POPC   D2A58612  28.344  29.148   6.750
 8985POPC   C3A58613  28.415  29.188   7.050
 8985POPC   C4A58614  28.324  29.125   7.350
 8985POPC   C1B58615  28.070  29.130   6.450
 8985POPC   C2B58616  28.097  29.171   6.750
 8985POPC   C3B58617  28.156  29.170   7.050
 8985POPC   C4B58618  28.117  29.118   7.350
 8986POPC   NC358619  25.294  43.854   5.550
 8986POPC   PO458620  25.282  43.905   5.850
 8986POPC   GL158621  25.242  43.892   6.150
 8986POPC   GL258622  25.228  44.056   6.150
 8986POPC   C1A58623  25.238  43.889   6.450
 8986POPC   D2A58624  25.229  43.842   6.750
 8986POPC   C3A58625  25.231  43.864   7.050
 8986POPC   C4A58626  25.285  43.840   7.350
 8986POPC   C1B58627  25.253  44.092   6.450
 8986POPC   C2B58628  25.234  44.082   6.750
 8986POPC   C3B58629  25.200  44.147   7.050
 8986POPC   C4B58630  25.218  44.104   7.350
 8987POPC   NC358631  12.837  23.690   5.550
 8987POPC   PO458632  12.819  23.666   5.850
 8987POPC   GL158633  12.849  23.737   6.150
 8987POPC   GL258634  12.788  23.817   6.150
 8987POPC   C1A58635  12.884  23.763   6.450
 8987POPC   D2A58636  12.902  23.678   6.750
 8987POPC   C3A58637  12.887  23.741   7.050
 8987POPC   C4A58638  12.847  23.699   7.350
 8987POPC   C1B58639  12.708  23.901   6.450
 8987POPC   C2B58640  12.736  23.983   6.750
 8987POPC   C3B58641  12.739  23.952   7.050
 8987POPC   C4B58642  12.764  23.984   7.350
 8988POPC   NC358643   3.494  43.843   5.550
 8988POPC   PO458644   3.584  43.910   5.850
 8988POPC   GL158645   3.538  43.850   6.150
 8988POPC   GL258646   3.528  43.802   6.150
 8988POPC   C1A58647   3.510  43.909   6.450
 8988POPC   D2A58648   3.567  43.913   6.750
 8988POPC   C3A58649   3.509  43.853   7.050
 8988POPC   C4A58650   3.501  43.929   7.350
 8988POPC   C1B58651   3.499  43.674   6.450
 8988POPC   C2B58652   3.494  43.658   6.750
 8988POPC   C3B58653   3.478  43.591   7.050
 8988POPC   C4B58654   3.565  43.602   7.350
 8989POPC   NC358655  36.153  27.599   5.550
 8989POPC   PO458656  36.093  27.599   5.850
 8989POPC   GL158657  36.086  27.573   6.150
 8989POPC   GL258658  36.249  27.497   6.150
 8989POPC   C1A58659  36.162  27.557   6.450
 8989POPC   D2A58660  36.108  27.571   6.750
 8989POPC   C3A58661  36.131  27.590   7.050
 8989POPC   C4A58662  36.144  27.551   7.350
 8989POPC   C1B58663  36.279  27.393   6.450
 8989POPC   C2B58664  36.341  27.432   6.750
 8989POPC   C3B58665  36.276  27.383   7.050
 8989POPC   C4B58666  36.333  27.464   7.350
 8990POPC   NC358667   3.554  32.249   5.550
 8990POPC   PO458668   3.515  32.236   5.850
 8990POPC   GL158669   3.501  32.287   6.150
 8990POPC   GL258670   3.475  32.346   6.150
 8990POPC   C1A58671   3.531  32.271   6.450
 8990POPC   D2A58672   3.590  32.252   6.750
 8990POPC   C3A58673   3.583  32.286   7.050
 8990POPC   C4A58674   3.567  32.204   7.350
 8990POPC   C1B58675   3.406  32.427   6.450
 8990POPC   C2B58676   3.428  32.439   6.750
 8990POPC   C3B58677   3.439  32.435   7.050
 8990POPC   C4B58678   3.392  32.476   7.350
 8991POPC   NC358679  13.660  22.154   5.550
 8991POPC   PO458680  13.668  22.151   5.850
 8991POPC   GL158681  13.661  22.162   6.150
 8991POPC   GL258682  13.553  22.259   6.150
 8991POPC   C1A58683  13.646  22.116   6.450
 8991POPC   D2A58684  13.596  22.170   6.750
 8991POPC   C3A58685  13.615  22.141   7.050
 8991POPC   C4A58686  13.655  22.160   7.350
 8991POPC   C1B58687  13.536  22.410   6.450
 8991POPC   C2B58688  13.547  22.355   6.750
 8991POPC   C3B58689  13.570  22.424   7.050
 8991POPC   C4B58690  13.548  22.430   7.350
 8992POPC   NC358691  10.500  36.176   5.550
 8992POPC   PO458692  10.507  36.157   5.850
 8992POPC   GL158693  10.563  36.112   6.150
 8992POPC   GL258694  10.642  36.089   6.150
 8992POPC   C1A58695  10.486  36.093   6.450
 8992POPC   D2A58696  10.503  36.118   6.750
 8992POPC   C3A58697  10.521  36.175   7.050
 8992POPC   C4A58698  10.539  36.112   7.350
 8992POPC   C1B58699  10.689  35.939   6.450
 8992POPC   C2B58700  10.747  35.994   6.750
 8992POPC   C3B58701  10.671  35.920   7.050
 8992POPC   C4B58702  10.679  35.993   7.350
 8993POPC   NC358703  19.842  31.492   5.550
 8993POPC   PO458704  19.799  31.438   5.850
 8993POPC   GL158705  19.851  31.515   6.150
 8993POPC   GL258706  19.909  31.590   6.150
 8993POPC   C1A58707  19.866  31.452   6.450
 8993POPC   D2A58708  19.878  31.519   6.750
 8993POPC   C3A58709  19.839  31.473   7.050
 8993POPC   C4A58710  19.847  31.472   7.350
 8993POPC   C1B58711  19.955  31.725   6.450
 8993POPC   C2B58712  19.952  31.725   6.750
 8993POPC   C3B58713  19.942  31.726   7.050
 8993POPC   C4B58714  19.937  31.680   7.350
 8994POPC   NC358715   8.992   9.000   5.550
 8994POPC   PO458716   8.992   8.962   5.850
 8994POPC   GL158717   8.972   8.960   6.150
 8994POPC   GL258718   8.860   8.996   6.150
 8994POPC   C1A58719   9.014   9.020   6.450
 8994POPC   D2A58720   8.986   9.009   6.750
 8994POPC   C3A58721   8.958   9.021   7.050
 8994POPC   C4A58722   8.982   8.932   7.350
 8994POPC   C1B58723   8.686   9.023   6.450
 8994POPC   C2B58724   8.759   9.019   6.750
 8994POPC   C3B58725   8.755   9.008   7.050
 8994POPC   C4B58726   8.729   8.942   7.350
 8995POPC   NC358727   9.020   0.408   5.550
 8995POPC   PO458728   8.943   0.428   5.850
 8995POPC   GL158729   8.948   0.391   6.150
 8995POPC   GL258730   8.843   0.509   6.150
 8995POPC   C1A58731   8.977   0.439   6.450
 8995POPC   D2A58732   8.955   0.475   6.750
 8995POPC   C3A58733   8.980   0.416   7.050
 8995POPC   C4A58734   8.933   0.464   7.350
 8995POPC   C1B58735   8.779   0.535   6.450
 8995POPC   C2B58736   8.701   0.525   6.750
 8995POPC   C3B58737   8.735   0.495   7.050
 8995POPC   C4B58738   8.720   0.492   7.350
 8996POPC   NC358739   8.211   3.586   5.550
 8996POPC   PO458740   8.244   3.495   5.850
 8996POPC   GL158741   8.215   3.533   6.150
 8996POPC   GL258742   8.271   3.597   6.150
 8996POPC   C1A58743   8.154   3.537   6.450
 8996POPC   D2A58744   8.239   3.528   6.750
 8996POPC   C3A58745   8.212   3.540   7.050
 8996POPC   C4A58746   8.220   3.588   7.350
 8996POPC   C1B58747   8.433   3.689   6.450
 8996POPC   C2B58748   8.411   3.669   6.750
 8996POPC   C3B58749   8.418   3.683   7.050
 8996POPC   C4B58750   8.448   3.701   7.350
 8997POPC   NC358751   0.403   9.019   5.550
 8997POPC   PO458752   0.426   8.969   5.850
 8997POPC   GL158753   0.475   8.968   6.150
 8997POPC   GL258754   0.378   9.073   6.150
 8997POPC   C1A58755   0.478   8.942   6.450
 8997POPC   D2A58756   0.443   8.985   6.750
 8997POPC   C3A58757   0.396   8.924   7.050
 8997POPC   C4A58758   0.438   8.932   7.350
 8997POPC   C1B58759   0.324   9.216   6.450
 8997POPC   C2B58760   0.318   9.233   6.750
 8997POPC   C3B58761   0.349   9.198   7.050
 8997POPC   C4B58762   0.277   9.155   7.350
 8998POPC   NC358763  33.814  15.990   5.550
 8998POPC   PO458764  33.804  15.972   5.850
 8998POPC   GL158765  33.798  15.962   6.150
 8998POPC   GL258766  33.698  15.874   6.150
 8998POPC   C1A58767  33.830  15.943   6.450
 8998POPC   D2A58768  33.837  15.925   6.750
 8998POPC   C3A58769  33.812  15.933   7.050
 8998POPC   C4A58770  33.784  15.978   7.350
 8998POPC   C1B58771  33.635  15.730   6.450
 8998POPC   C2B58772  33.689  15.767   6.750
 8998POPC   C3B58773  33.661  15.743   7.050
 8998POPC   C4B58774  33.716  15.745   7.350
 8999POPC   NC358775  29.882  23.693   5.550
 8999POPC   PO458776  29.966  23.736   5.850
 8999POPC   GL158777  29.915  23.715   6.150
 8999POPC   GL258778  29.835  23.646   6.150
 8999POPC   C1A58779  29.959  23.666   6.450
 8999POPC   D2A58780  29.901  23.723   6.750
 8999POPC   C3A58781  29.936  23.689   7.050
 8999POPC   C4A58782  29.917  23.740   7.350
 8999POPC   C1B58783  29.706  23.559   6.450
 8999POPC   C2B58784  29.709  23.553   6.750
 8999POPC   C3B58785  29.713  23.583   7.050
 8999POPC   C4B58786  29.739  23.550   7.350
 9000POPC   NC358787  36.141  35.388   5.550
 9000POPC   PO458788  36.174  35.394   5.850
 9000POPC   GL158789  36.139  35.394   6.150
 9000POPC   GL258790  36.029  35.369   6.150
 9000POPC   C1A58791  36.172  35.376   6.450
 9000POPC   D2A58792  36.134  35.313   6.750
 9000POPC   C3A58793  36.156  35.385   7.050
 9000POPC   C4A58794  36.110  35.361   7.350
 9000POPC   C1B58795  35.862  35.362   6.450
 9000POPC   C2B58796  35.895  35.296   6.750
 9000POPC   C3B58797  35.913  35.303   7.050
 9000POPC   C4B58798  35.918  35.308   7.350
 9001POPC   NC358799   4.271  12.117   5.550
 9001POPC   PO458800   4.345  12.123   5.850
 9001POPC   GL158801   4.286  12.062   6.150
 9001POPC   GL258802   4.428  12.147   6.150
 9001POPC   C1A58803   4.286  12.106   6.450
 9001POPC   D2A58804   4.316  12.076   6.750
 9001POPC   C3A58805   4.361  12.052   7.050
 9001POPC   C4A58806   4.326  12.050   7.350
 9001POPC   C1B58807   4.528  12.181   6.450
 9001POPC   C2B58808   4.552  12.206   6.750
 9001POPC   C3B58809   4.531  12.205   7.050
 9001POPC   C4B58810   4.542  12.194   7.350
 9002POPC   NC358811   6.621  33.827   5.550
 9002POPC   PO458812   6.657  33.781   5.850
 9002POPC   GL158813   6.653  33.832   6.150
 9002POPC   GL258814   6.625  33.722   6.150
 9002POPC   C1A58815   6.645  33.799   6.450
 9002POPC   D2A58816   6.646  33.839   6.750
 9002POPC   C3A58817   6.673  33.798   7.050
 9002POPC   C4A58818   6.623  33.783   7.350
 9002POPC   C1B58819   6.677  33.528   6.450
 9002POPC   C2B58820   6.673  33.529   6.750
 9002POPC   C3B58821   6.646  33.577   7.050
 9002POPC   C4B58822   6.693  33.546   7.350
 9003POPC   NC358823   5.875  26.824   5.550
 9003POPC   PO458824   5.879  26.795   5.850
 9003POPC   GL158825   5.819  26.767   6.150
 9003POPC   GL258826   5.984  26.759   6.150
 9003POPC   C1A58827   5.904  26.849   6.450
 9003POPC   D2A58828   5.863  26.857   6.750
 9003POPC   C3A58829   5.870  26.778   7.050
 9003POPC   C4A58830   5.880  26.806   7.350
 9003POPC   C1B58831   6.009  26.603   6.450
 9003POPC   C2B58832   5.980  26.575   6.750
 9003POPC   C3B58833   5.990  26.594   7.050
 9003POPC   C4B58834   5.989  26.655   7.350
 9004POPC   NC358835   8.998  10.509   5.550
 9004POPC   PO458836   8.983  10.556   5.850
 9004POPC   GL158837   8.985  10.536   6.150
 9004POPC   GL258838   9.072  10.586   6.150
 9004POPC   C1A58839   9.015  10.557   6.450
 9004POPC   D2A58840   8.975  10.561   6.750
 9004POPC   C3A58841   8.986  10.487   7.050
 9004POPC   C4A58842   8.925  10.478   7.350
 9004POPC   C1B58843   9.158  10.686   6.450
 9004POPC   C2B58844   9.220  10.668   6.750
 9004POPC   C3B58845   9.181  10.589   7.050
 9004POPC   C4B58846   9.199  10.628   7.350
 9005POPC   NC358847  26.807   1.186   5.550
 9005POPC   PO458848  26.780   1.205   5.850
 9005POPC   GL158849  26.853   1.189   6.150
 9005POPC   GL258850  26.750   1.356   6.150
 9005POPC   C1A58851  26.856   1.204   6.450
 9005POPC   D2A58852  26.777   1.252   6.750
 9005POPC   C3A58853  26.853   1.180   7.050
 9005POPC   C4A58854  26.797   1.214   7.350
 9005POPC   C1B58855  26.739   1.479   6.450
 9005POPC   C2B58856  26.792   1.510   6.750
 9005POPC   C3B58857  26.799   1.483   7.050
 9005POPC   C4B58858  26.746   1.490   7.350
 9006POPC   NC358859   2.784  24.486   5.550
 9006POPC   PO458860   2.792  24.518   5.850
 9006POPC   GL158861   2.742  24.440   6.150
 9006POPC   GL258862   2.720  24.344   6.150
 9006POPC   C1A58863   2.784  24.499   6.450
 9006POPC   D2A58864   2.789  24.452   6.750
 9006POPC   C3A58865   2.732  24.459   7.050
 9006POPC   C4A58866   2.804  24.449   7.350
 9006POPC   C1B58867   2.817  24.195   6.450
 9006POPC   C2B58868   2.756  24.274   6.750
 9006POPC   C3B58869   2.797  24.220   7.050
 9006POPC   C4B58870   2.727  24.287   7.350
 9007POPC   NC358871  22.121  27.566   5.550
 9007POPC   PO458872  22.185  27.622   5.850
 9007POPC   GL158873  22.121  27.557   6.150
 9007POPC   GL258874  22.091  27.649   6.150
 9007POPC   C1A58875  22.123  27.560   6.450
 9007POPC   D2A58876  22.178  27.603   6.750
 9007POPC   C3A58877  22.167  27.598   7.050
 9007POPC   C4A58878  22.184  27.632   7.350
 9007POPC   C1B58879  21.950  27.774   6.450
 9007POPC   C2B58880  21.966  27.728   6.750
 9007POPC   C3B58881  21.956  27.796   7.050
 9007POPC   C4B58882  21.988  27.711   7.350
 9008POPC   NC358883  25.302   9.006   5.550
 9008POPC   PO458884  25.243   9.018   5.850
 9008POPC   GL158885  25.298   8.935   6.150
 9008POPC   GL258886  25.257   9.138   6.150
 9008POPC   C1A58887  25.263   9.007   6.450
 9008POPC   D2A58888  25.278   8.979   6.750
 9008POPC   C3A58889  25.304   9.018   7.050
 9008POPC   C4A58890  25.263   8.982   7.350
 9008POPC   C1B58891  25.289   9.187   6.450
 9008POPC   C2B58892  25.236   9.244   6.750
 9008POPC   C3B58893  25.286   9.239   7.050
 9008POPC   C4B58894  25.258   9.214   7.350
 9009POPC   NC358895  33.777  18.320   5.550
 9009POPC   PO458896  33.785  18.303   5.850
 9009POPC   GL158897  33.846  18.286   6.150
 9009POPC   GL258898  33.715  18.207   6.150
 9009POPC   C1A58899  33.839  18.257   6.450
 9009POPC   D2A58900  33.793  18.327   6.750
 9009POPC   C3A58901  33.779  18.239   7.050
 9009POPC   C4A58902  33.769  18.277   7.350
 9009POPC   C1B58903  33.624  18.031   6.450
 9009POPC   C2B58904  33.674  18.123   6.750
 9009POPC   C3B58905  33.644  18.064   7.050
 9009POPC   C4B58906  33.669  18.089   7.350
 9010POPC   NC358907  13.652  11.307   5.550
 9010POPC   PO458908  13.668  11.332   5.850
 9010POPC   GL158909  13.584  11.272   6.150
 9010POPC   GL258910  13.517  11.202   6.150
 9010POPC   C1A58911  13.608  11.291   6.450
 9010POPC   D2A58912  13.675  11.278   6.750
 9010POPC   C3A58913  13.596  11.275   7.050
 9010POPC   C4A58914  13.648  11.281   7.350
 9010POPC   C1B58915  13.459  11.097   6.450
 9010POPC   C2B58916  13.487  11.119   6.750
 9010POPC   C3B58917  13.459  11.098   7.050
 9010POPC   C4B58918  13.407  11.086   7.350
 9011POPC   NC358919  33.050  32.976   5.550
 9011POPC   PO458920  33.072  32.995   5.850
 9011POPC   GL158921  33.066  32.975   6.150
 9011POPC   GL258922  32.910  33.015   6.150
 9011POPC   C1A58923  33.055  32.987   6.450
 9011POPC   D2A58924  32.985  33.046   6.750
 9011POPC   C3A58925  33.053  32.987   7.050
 9011POPC   C4A58926  33.012  33.065   7.350
 9011POPC   C1B58927  32.803  32.981   6.450
 9011POPC   C2B58928  32.754  32.985   6.750
 9011POPC   C3B58929  32.816  32.984   7.050
 9011POPC   C4B58930  32.824  32.932   7.350
 9012POPC   NC358931  10.532  33.845   5.550
 9012POPC   PO458932  10.564  33.816   5.850
 9012POPC   GL158933  10.494  33.781   6.150
 9012POPC   GL258934  10.448  33.835   6.150
 9012POPC   C1A58935  10.569  33.823   6.450
 9012POPC   D2A58936  10.532  33.775   6.750
 9012POPC   C3A58937  10.566  33.793   7.050
 9012POPC   C4A58938  10.516  33.762   7.350
 9012POPC   C1B58939  10.331  33.859   6.450
 9012POPC   C2B58940  10.280  33.845   6.750
 9012POPC   C3B58941  10.322  33.871   7.050
 9012POPC   C4B58942  10.262  33.854   7.350
 9013POPC   NC358943  18.292   1.165   5.550
 9013POPC   PO458944  18.271   1.170   5.850
 9013POPC   GL158945  18.311   1.240   6.150
 9013POPC   GL258946  18.143   1.129   6.150
 9013POPC   C1A58947  18.317   1.180   6.450
 9013POPC   D2A58948  18.276   1.184   6.750
 9013POPC   C3A58949  18.324   1.263   7.050
 9013POPC   C4A58950  18.268   1.238   7.350
 9013POPC   C1B58951  18.058   1.087   6.450
 9013POPC   C2B58952  18.100   1.138   6.750
 9013POPC   C3B58953  18.047   1.040   7.050
 9013POPC   C4B58954  18.112   1.072   7.350
 9014POPC   NC358955   0.406  18.260   5.550
 9014POPC   PO458956   0.404  18.319   5.850
 9014POPC   GL158957   0.405  18.268   6.150
 9014POPC   GL258958   0.469  18.408   6.150
 9014POPC   C1A58959   0.394  18.271   6.450
 9014POPC   D2A58960   0.438  18.294   6.750
 9014POPC   C3A58961   0.466  18.322   7.050
 9014POPC   C4A58962   0.418  18.300   7.350
 9014POPC   C1B58963   0.538  18.446   6.450
 9014POPC   C2B58964   0.623  18.460   6.750
 9014POPC   C3B58965   0.623  18.491   7.050
 9014POPC   C4B58966   0.592  18.517   7.350
 9015POPC   NC358967   4.361  23.757   5.550
 9015POPC   PO458968   4.303  23.672   5.850
 9015POPC   GL158969   4.305  23.728   6.150
 9015POPC   GL258970   4.227  23.619   6.150
 9015POPC   C1A58971   4.287  23.670   6.450
 9015POPC   D2A58972   4.360  23.756   6.750
 9015POPC   C3A58973   4.281  23.680   7.050
 9015POPC   C4A58974   4.323  23.708   7.350
 9015POPC   C1B58975   4.151  23.593   6.450
 9015POPC   C2B58976   4.121  23.539   6.750
 9015POPC   C3B58977   4.079  23.595   7.050
 9015POPC   C4B58978   4.055  23.555   7.350
 9016POPC   NC358979  38.455  21.393   5.550
 9016POPC   PO458980  38.461  21.363   5.850
 9016POPC   GL158981  38.445  21.422   6.150
 9016POPC   GL258982  38.562  21.449   6.150
 9016POPC   C1A58983  38.453  21.386   6.450
 9016POPC   D2A58984  38.423  21.382   6.750
 9016POPC   C3A58985  38.499  21.357   7.050
 9016POPC   C4A58986  38.427  21.342   7.350
 9016POPC   C1B58987  38.707  21.431   6.450
 9016POPC   C2B58988  38.714  21.469   6.750
 9016POPC   C3B58989  38.667  21.431   7.050
 9016POPC   C4B58990  38.719  21.394   7.350
 9017POPC   NC358991  22.985  37.689   5.550
 9017POPC   PO458992  22.944  37.664   5.850
 9017POPC   GL158993  22.912  37.680   6.150
 9017POPC   GL258994  22.908  37.780   6.150
 9017POPC   C1A58995  22.987  37.673   6.450
 9017POPC   D2A58996  22.932  37.696   6.750
 9017POPC   C3A58997  22.976  37.645   7.050
 9017POPC   C4A58998  22.917  37.642   7.350
 9017POPC   C1B58999  22.925  37.956   6.450
 9017POPC   C2B59000  22.973  37.952   6.750
 9017POPC   C3B59001  22.976  37.963   7.050
 9017POPC   C4B59002  22.902  37.932   7.350
 9018POPC   NC359003  19.786  25.251   5.550
 9018POPC   PO459004  19.815  25.269   5.850
 9018POPC   GL159005  19.881  25.236   6.150
 9018POPC   GL259006  19.722  25.315   6.150
 9018POPC   C1A59007  19.869  25.251   6.450
 9018POPC   D2A59008  19.859  25.230   6.750
 9018POPC   C3A59009  19.858  25.297   7.050
 9018POPC   C4A59010  19.808  25.297   7.350
 9018POPC   C1B59011  19.639  25.449   6.450
 9018POPC   C2B59012  19.712  25.448   6.750
 9018POPC   C3B59013  19.686  25.473   7.050
 9018POPC   C4B59014  19.659  25.479   7.350
 9019POPC   NC359015  12.887  32.998   5.550
 9019POPC   PO459016  12.848  33.068   5.850
 9019POPC   GL159017  12.830  33.010   6.150
 9019POPC   GL259018  12.921  33.127   6.150
 9019POPC   C1A59019  12.852  32.978   6.450
 9019POPC   D2A59020  12.901  33.058   6.750
 9019POPC   C3A59021  12.884  32.999   7.050
 9019POPC   C4A59022  12.810  33.013   7.350
 9019POPC   C1B59023  12.910  33.232   6.450
 9019POPC   C2B59024  12.931  33.247   6.750
 9019POPC   C3B59025  12.918  33.288   7.050
 9019POPC   C4B59026  12.891  33.319   7.350
 9020POPC   NC359027  33.041  40.822   5.550
 9020POPC   PO459028  33.005  40.803   5.850
 9020POPC   GL159029  33.016  40.774   6.150
 9020POPC   GL259030  33.075  40.691   6.150
 9020POPC   C1A59031  32.992  40.737   6.450
 9020POPC   D2A59032  33.029  40.780   6.750
 9020POPC   C3A59033  33.048  40.793   7.050
 9020POPC   C4A59034  32.977  40.740   7.350
 9020POPC   C1B59035  33.133  40.550   6.450
 9020POPC   C2B59036  33.060  40.575   6.750
 9020POPC   C3B59037  33.131  40.514   7.050
 9020POPC   C4B59038  33.060  40.544   7.350
 9021POPC   NC359039  19.043  23.754   5.550
 9021POPC   PO459040  19.049  23.753   5.850
 9021POPC   GL159041  19.052  23.689   6.150
 9021POPC   GL259042  18.946  23.727   6.150
 9021POPC   C1A59043  19.073  23.707   6.450
 9021POPC   D2A59044  19.029  23.712   6.750
 9021POPC   C3A59045  19.027  23.729   7.050
 9021POPC   C4A59046  19.041  23.699   7.350
 9021POPC   C1B59047  18.842  23.691   6.450
 9021POPC   C2B59048  18.762  23.698   6.750
 9021POPC   C3B59049  18.850  23.654   7.050
 9021POPC   C4B59050  18.797  23.718   7.350
 9022POPC   NC359051  22.895  44.672   5.550
 9022POPC   PO459052  22.911  44.648   5.850
 9022POPC   GL159053  22.937  44.653   6.150
 9022POPC   GL259054  22.959  44.506   6.150
 9022POPC   C1A59055  22.940  44.631   6.450
 9022POPC   D2A59056  22.979  44.693   6.750
 9022POPC   C3A59057  22.946  44.695   7.050
 9022POPC   C4A59058  22.904  44.649   7.350
 9022POPC   C1B59059  22.887  44.461   6.450
 9022POPC   C2B59060  22.920  44.459   6.750
 9022POPC   C3B59061  22.884  44.423   7.050
 9022POPC   C4B59062  22.889  44.364   7.350
 9023POPC   NC359063   6.613  22.120   5.550
 9023POPC   PO459064   6.638  22.194   5.850
 9023POPC   GL159065   6.667  22.113   6.150
 9023POPC   GL259066   6.552  22.200   6.150
 9023POPC   C1A59067   6.686  22.113   6.450
 9023POPC   D2A59068   6.673  22.123   6.750
 9023POPC   C3A59069   6.647  22.173   7.050
 9023POPC   C4A59070   6.616  22.191   7.350
 9023POPC   C1B59071   6.382  22.156   6.450
 9023POPC   C2B59072   6.401  22.138   6.750
 9023POPC   C3B59073   6.374  22.179   7.050
 9023POPC   C4B59074   6.404  22.212   7.350
 9024POPC   NC359075  23.764  30.665   5.550
 9024POPC   PO459076  23.725  30.651   5.850
 9024POPC   GL159077  23.699  30.704   6.150
 9024POPC   GL259078  23.853  30.684   6.150
 9024POPC   C1A59079  23.744  30.717   6.450
 9024POPC   D2A59080  23.732  30.658   6.750
 9024POPC   C3A59081  23.752  30.695   7.050
 9024POPC   C4A59082  23.684  30.736   7.350
 9024POPC   C1B59083  23.935  30.551   6.450
 9024POPC   C2B59084  23.920  30.585   6.750
 9024POPC   C3B59085  23.953  30.603   7.050
 9024POPC   C4B59086  23.938  30.546   7.350
 9025POPC   NC359087  42.363  31.467   5.550
 9025POPC   PO459088  42.329  31.498   5.850
 9025POPC   GL159089  42.325  31.487   6.150
 9025POPC   GL259090  42.277  31.550   6.150
 9025POPC   C1A59091  42.302  31.469   6.450
 9025POPC   D2A59092  42.381  31.452   6.750
 9025POPC   C3A59093  42.364  31.456   7.050
 9025POPC   C4A59094  42.290  31.441   7.350
 9025POPC   C1B59095  42.128  31.653   6.450
 9025POPC   C2B59096  42.158  31.675   6.750
 9025POPC   C3B59097  42.151  31.690   7.050
 9025POPC   C4B59098  42.171  31.628   7.350
 9026POPC   NC359099  43.160  39.212   5.550
 9026POPC   PO459100  43.118  39.259   5.850
 9026POPC   GL159101  43.111  39.279   6.150
 9026POPC   GL259102  43.100  39.398   6.150
 9026POPC   C1A59103  43.082  39.255   6.450
 9026POPC   D2A59104  43.125  39.213   6.750
 9026POPC   C3A59105  43.097  39.202   7.050
 9026POPC   C4A59106  43.065  39.255   7.350
 9026POPC   C1B59107  43.060  39.452   6.450
 9026POPC   C2B59108  43.087  39.439   6.750
 9026POPC   C3B59109  43.041  39.462   7.050
 9026POPC   C4B59110  43.090  39.447   7.350
 9027POPC   NC359111  19.048  22.117   5.550
 9027POPC   PO459112  19.091  22.177   5.850
 9027POPC   GL159113  19.075  22.131   6.150
 9027POPC   GL259114  18.983  22.007   6.150
 9027POPC   C1A59115  19.038  22.206   6.450
 9027POPC   D2A59116  19.099  22.169   6.750
 9027POPC   C3A59117  19.082  22.211   7.050
 9027POPC   C4A59118  19.090  22.127   7.350
 9027POPC   C1B59119  18.955  21.929   6.450
 9027POPC   C2B59120  18.995  21.946   6.750
 9027POPC   C3B59121  18.962  21.937   7.050
 9027POPC   C4B59122  18.999  21.914   7.350
 9028POPC   NC359123  21.427  12.066   5.550
 9028POPC   PO459124  21.367  12.070   5.850
 9028POPC   GL159125  21.337  12.109   6.150
 9028POPC   GL259126  21.283  12.031   6.150
 9028POPC   C1A59127  21.340  12.110   6.450
 9028POPC   D2A59128  21.367  12.105   6.750
 9028POPC   C3A59129  21.432  12.107   7.050
 9028POPC   C4A59130  21.375  12.039   7.350
 9028POPC   C1B59131  21.152  11.931   6.450
 9028POPC   C2B59132  21.201  11.959   6.750
 9028POPC   C3B59133  21.175  11.977   7.050
 9028POPC   C4B59134  21.172  11.997   7.350
 9029POPC   NC359135  39.210  16.711   5.550
 9029POPC   PO459136  39.271  16.730   5.850
 9029POPC   GL159137  39.215  16.778   6.150
 9029POPC   GL259138  39.352  16.624   6.150
 9029POPC   C1A59139  39.206  16.735   6.450
 9029POPC   D2A59140  39.243  16.761   6.750
 9029POPC   C3A59141  39.193  16.711   7.050
 9029POPC   C4A59142  39.225  16.780   7.350
 9029POPC   C1B59143  39.368  16.510   6.450
 9029POPC   C2B59144  39.416  16.551   6.750
 9029POPC   C3B59145  39.422  16.534   7.050
 9029POPC   C4B59146  39.424  16.487   7.350
 9030POPC   NC359147  20.639   5.828   5.550
 9030POPC   PO459148  20.568   5.865   5.850
 9030POPC   GL159149  20.588   5.889   6.150
 9030POPC   GL259150  20.774   5.794   6.150
 9030POPC   C1A59151  20.583   5.853   6.450
 9030POPC   D2A59152  20.633   5.873   6.750
 9030POPC   C3A59153  20.652   5.852   7.050
 9030POPC   C4A59154  20.642   5.846   7.350
 9030POPC   C1B59155  20.852   5.837   6.450
 9030POPC   C2B59156  20.816   5.828   6.750
 9030POPC   C3B59157  20.856   5.789   7.050
 9030POPC   C4B59158  20.885   5.822   7.350
 9031POPC   NC359159  43.130  28.411   5.550
 9031POPC   PO459160  43.085  28.328   5.850
 9031POPC   GL159161  43.134  28.410   6.150
 9031POPC   GL259162  43.005  28.362   6.150
 9031POPC   C1A59163  43.124  28.329   6.450
 9031POPC   D2A59164  43.101  28.390   6.750
 9031POPC   C3A59165  43.095  28.408   7.050
 9031POPC   C4A59166  43.157  28.343   7.350
 9031POPC   C1B59167  42.896  28.386   6.450
 9031POPC   C2B59168  42.840  28.378   6.750
 9031POPC   C3B59169  42.857  28.357   7.050
 9031POPC   C4B59170  42.886  28.367   7.350
 9032POPC   NC359171  44.707  36.091   5.550
 9032POPC   PO459172  44.637  36.091   5.850
 9032POPC   GL159173  44.629  36.163   6.150
 9032POPC   GL259174  44.556  36.119   6.150
 9032POPC   C1A59175  44.654  36.119   6.450
 9032POPC   D2A59176  44.675  36.096   6.750
 9032POPC   C3A59177  44.668  36.084   7.050
 9032POPC   C4A59178  44.620  36.138   7.350
 9032POPC   C1B59179  44.456  36.080   6.450
 9032POPC   C2B59180  44.413  36.039   6.750
 9032POPC   C3B59181  44.449  36.064   7.050
 9032POPC   C4B59182  44.385  36.026   7.350
 9033POPC   NC359183   0.410  43.110   5.550
 9033POPC   PO459184   0.396  43.156   5.850
 9033POPC   GL159185   0.450  43.121   6.150
 9033POPC   GL259186   0.367  42.968   6.150
 9033POPC   C1A59187   0.485  43.106   6.450
 9033POPC   D2A59188   0.463  43.078   6.750
 9033POPC   C3A59189   0.417  43.069   7.050
 9033POPC   C4A59190   0.392  43.119   7.350
 9033POPC   C1B59191   0.339  42.910   6.450
 9033POPC   C2B59192   0.383  42.920   6.750
 9033POPC   C3B59193   0.326  42.863   7.050
 9033POPC   C4B59194   0.344  42.927   7.350
 9034POPC   NC359195  22.971  23.700   5.550
 9034POPC   PO459196  22.960  23.704   5.850
 9034POPC   GL159197  22.940  23.732   6.150
 9034POPC   GL259198  23.026  23.761   6.150
 9034POPC   C1A59199  22.891  23.725   6.450
 9034POPC   D2A59200  22.950  23.731   6.750
 9034POPC   C3A59201  22.925  23.751   7.050
 9034POPC   C4A59202  22.909  23.723   7.350
 9034POPC   C1B59203  23.117  23.881   6.450
 9034POPC   C2B59204  23.087  23.936   6.750
 9034POPC   C3B59205  23.081  23.883   7.050
 9034POPC   C4B59206  23.153  23.877   7.350
 9035POPC   NC359207   6.637   7.393   5.550
 9035POPC   PO459208   6.647   7.468   5.850
 9035POPC   GL159209   6.595   7.430   6.150
 9035POPC   GL259210   6.563   7.354   6.150
 9035POPC   C1A59211   6.653   7.452   6.450
 9035POPC   D2A59212   6.673   7.392   6.750
 9035POPC   C3A59213   6.597   7.427   7.050
 9035POPC   C4A59214   6.645   7.428   7.350
 9035POPC   C1B59215   6.566   7.204   6.450
 9035POPC   C2B59216   6.568   7.241   6.750
 9035POPC   C3B59217   6.507   7.215   7.050
 9035POPC   C4B59218   6.561   7.229   7.350
 9036POPC   NC359219  39.967  12.098   5.550
 9036POPC   PO459220  40.034  12.074   5.850
 9036POPC   GL159221  40.025  12.097   6.150
 9036POPC   GL259222  40.122  11.954   6.150
 9036POPC   C1A59223  40.028  12.066   6.450
 9036POPC   D2A59224  39.994  12.088   6.750
 9036POPC   C3A59225  40.038  12.089   7.050
 9036POPC   C4A59226  39.962  12.050   7.350
 9036POPC   C1B59227  40.223  11.904   6.450
 9036POPC   C2B59228  40.140  11.897   6.750
 9036POPC   C3B59229  40.173  11.882   7.050
 9036POPC   C4B59230  40.217  11.908   7.350
 9037POPC   NC359231  17.481  32.978   5.550
 9037POPC   PO459232  17.479  32.980   5.850
 9037POPC   GL159233  17.509  33.036   6.150
 9037POPC   GL259234  17.504  32.876   6.150
 9037POPC   C1A59235  17.495  33.028   6.450
 9037POPC   D2A59236  17.493  32.976   6.750
 9037POPC   C3A59237  17.551  33.028   7.050
 9037POPC   C4A59238  17.540  33.022   7.350
 9037POPC   C1B59239  17.407  32.756   6.450
 9037POPC   C2B59240  17.431  32.765   6.750
 9037POPC   C3B59241  17.430  32.739   7.050
 9037POPC   C4B59242  17.449  32.808   7.350
 9038POPC   NC359243   7.402  25.299   5.550
 9038POPC   PO459244   7.440  25.217   5.850
 9038POPC   GL159245   7.458  25.251   6.150
 9038POPC   GL259246   7.310  25.251   6.150
 9038POPC   C1A59247   7.410  25.267   6.450
 9038POPC   D2A59248   7.424  25.288   6.750
 9038POPC   C3A59249   7.436  25.315   7.050
 9038POPC   C4A59250   7.415  25.220   7.350
 9038POPC   C1B59251   7.218  25.235   6.450
 9038POPC   C2B59252   7.192  25.259   6.750
 9038POPC   C3B59253   7.127  25.284   7.050
 9038POPC   C4B59254   7.185  25.278   7.350
 9039POPC   NC359255   8.970  12.120   5.550
 9039POPC   PO459256   8.929  12.038   5.850
 9039POPC   GL159257   8.961  12.102   6.150
 9039POPC   GL259258   8.844  12.072   6.150
 9039POPC   C1A59259   8.943  12.116   6.450
 9039POPC   D2A59260   8.984  12.069   6.750
 9039POPC   C3A59261   8.990  12.086   7.050
 9039POPC   C4A59262   8.969  12.050   7.350
 9039POPC   C1B59263   8.765  12.110   6.450
 9039POPC   C2B59264   8.738  12.160   6.750
 9039POPC   C3B59265   8.735  12.138   7.050
 9039POPC   C4B59266   8.683  12.114   7.350
 9040POPC   NC359267  19.862  28.345   5.550
 9040POPC   PO459268  19.870  28.324   5.850
 9040POPC   GL159269  19.822  28.394   6.150
 9040POPC   GL259270  19.708  28.394   6.150
 9040POPC   C1A59271  19.880  28.323   6.450
 9040POPC   D2A59272  19.854  28.360   6.750
 9040POPC   C3A59273  19.839  28.351   7.050
 9040POPC   C4A59274  19.796  28.405   7.350
 9040POPC   C1B59275  19.617  28.479   6.450
 9040POPC   C2B59276  19.588  28.450   6.750
 9040POPC   C3B59277  19.599  28.495   7.050
 9040POPC   C4B59278  19.602  28.442   7.350
 9041POPC   NC359279  18.262  28.374   5.550
 9041POPC   PO459280  18.287  28.323   5.850
 9041POPC   GL159281  18.246  28.386   6.150
 9041POPC   GL259282  18.170  28.294   6.150
 9041POPC   C1A59283  18.264  28.377   6.450
 9041POPC   D2A59284  18.316  28.357   6.750
 9041POPC   C3A59285  18.255  28.393   7.050
 9041POPC   C4A59286  18.284  28.352   7.350
 9041POPC   C1B59287  18.150  28.133   6.450
 9041POPC   C2B59288  18.104  28.193   6.750
 9041POPC   C3B59289  18.149  28.208   7.050
 9041POPC   C4B59290  18.130  28.202   7.350
 9042POPC   NC359291  30.716  25.236   5.550
 9042POPC   PO459292  30.734  25.227   5.850
 9042POPC   GL159293  30.674  25.259   6.150
 9042POPC   GL259294  30.715  25.177   6.150
 9042POPC   C1A59295  30.687  25.243   6.450
 9042POPC   D2A59296  30.670  25.217   6.750
 9042POPC   C3A59297  30.702  25.248   7.050
 9042POPC   C4A59298  30.659  25.258   7.350
 9042POPC   C1B59299  30.635  25.022   6.450
 9042POPC   C2B59300  30.660  25.042   6.750
 9042POPC   C3B59301  30.688  25.045   7.050
 9042POPC   C4B59302  30.628  25.041   7.350
 9043POPC   NC359303   2.794  31.444   5.550
 9043POPC   PO459304   2.784  31.425   5.850
 9043POPC   GL159305   2.761  31.437   6.150
 9043POPC   GL259306   2.850  31.333   6.150
 9043POPC   C1A59307   2.790  31.515   6.450
 9043POPC   D2A59308   2.726  31.495   6.750
 9043POPC   C3A59309   2.731  31.509   7.050
 9043POPC   C4A59310   2.744  31.481   7.350
 9043POPC   C1B59311   2.877  31.229   6.450
 9043POPC   C2B59312   2.902  31.266   6.750
 9043POPC   C3B59313   2.816  31.240   7.050
 9043POPC   C4B59314   2.878  31.213   7.350
 9044POPC   NC359315  10.569  36.858   5.550
 9044POPC   PO459316  10.484  36.905   5.850
 9044POPC   GL159317  10.489  36.890   6.150
 9044POPC   GL259318  10.439  36.939   6.150
 9044POPC   C1A59319  10.557  36.898   6.450
 9044POPC   D2A59320  10.482  36.891   6.750
 9044POPC   C3A59321  10.497  36.896   7.050
 9044POPC   C4A59322  10.499  36.873   7.350
 9044POPC   C1B59323  10.370  37.035   6.450
 9044POPC   C2B59324  10.348  37.100   6.750
 9044POPC   C3B59325  10.309  37.114   7.050
 9044POPC   C4B59326  10.304  37.060   7.350
 9045POPC   NC359327   5.110   7.424   5.550
 9045POPC   PO459328   5.133   7.401   5.850
 9045POPC   GL159329   5.073   7.459   6.150
 9045POPC   GL259330   5.149   7.297   6.150
 9045POPC   C1A59331   5.106   7.463   6.450
 9045POPC   D2A59332   5.061   7.448   6.750
 9045POPC   C3A59333   5.128   7.420   7.050
 9045POPC   C4A59334   5.123   7.409   7.350
 9045POPC   C1B59335   5.252   7.258   6.450
 9045POPC   C2B59336   5.212   7.233   6.750
 9045POPC   C3B59337   5.277   7.244   7.050
 9045POPC   C4B59338   5.213   7.203   7.350
 9046POPC   NC359339  23.699  22.180   5.550
 9046POPC   PO459340  23.737  22.173   5.850
 9046POPC   GL159341  23.699  22.165   6.150
 9046POPC   GL259342  23.690  22.005   6.150
 9046POPC   C1A59343  23.741  22.210   6.450
 9046POPC   D2A59344  23.753  22.138   6.750
 9046POPC   C3A59345  23.703  22.180   7.050
 9046POPC   C4A59346  23.717  22.193   7.350
 9046POPC   C1B59347  23.712  21.917   6.450
 9046POPC   C2B59348  23.738  21.914   6.750
 9046POPC   C3B59349  23.746  21.913   7.050
 9046POPC   C4B59350  23.707  21.873   7.350
 9047POPC   NC359351  33.045  32.282   5.550
 9047POPC   PO459352  33.056  32.217   5.850
 9047POPC   GL159353  32.994  32.262   6.150
 9047POPC   GL259354  33.111  32.326   6.150
 9047POPC   C1A59355  33.023  32.206   6.450
 9047POPC   D2A59356  33.031  32.285   6.750
 9047POPC   C3A59357  33.050  32.246   7.050
 9047POPC   C4A59358  33.050  32.208   7.350
 9047POPC   C1B59359  33.262  32.365   6.450
 9047POPC   C2B59360  33.230  32.410   6.750
 9047POPC   C3B59361  33.219  32.374   7.050
 9047POPC   C4B59362  33.255  32.355   7.350
 9048POPC   NC359363  39.994  15.161   5.550
 9048POPC   PO459364  40.042  15.198   5.850
 9048POPC   GL159365  40.035  15.186   6.150
 9048POPC   GL259366  40.028  15.261   6.150
 9048POPC   C1A59367  39.965  15.178   6.450
 9048POPC   D2A59368  39.993  15.223   6.750
 9048POPC   C3A59369  39.976  15.185   7.050
 9048POPC   C4A59370  40.015  15.142   7.350
 9048POPC   C1B59371  39.979  15.427   6.450
 9048POPC   C2B59372  39.938  15.412   6.750
 9048POPC   C3B59373  39.985  15.468   7.050
 9048POPC   C4B59374  39.995  15.403   7.350
 9049POPC   NC359375  34.568  32.277   5.550
 9049POPC   PO459376  34.537  32.251   5.850
 9049POPC   GL159377  34.555  32.235   6.150
 9049POPC   GL259378  34.686  32.308   6.150
 9049POPC   C1A59379  34.590  32.214   6.450
 9049POPC   D2A59380  34.541  32.258   6.750
 9049POPC   C3A59381  34.560  32.199   7.050
 9049POPC   C4A59382  34.578  32.276   7.350
 9049POPC   C1B59383  34.799  32.337   6.450
 9049POPC   C2B59384  34.741  32.408   6.750
 9049POPC   C3B59385  34.829  32.421   7.050
 9049POPC   C4B59386  34.819  32.381   7.350
 9050POPC   NC359387  19.093  20.616   5.550
 9050POPC   PO459388  19.057  20.576   5.850
 9050POPC   GL159389  19.023  20.629   6.150
 9050POPC   GL259390  19.041  20.691   6.150
 9050POPC   C1A59391  19.037  20.650   6.450
 9050POPC   D2A59392  19.024  20.613   6.750
 9050POPC   C3A59393  19.096  20.585   7.050
 9050POPC   C4A59394  19.009  20.620   7.350
 9050POPC   C1B59395  19.076  20.855   6.450
 9050POPC   C2B59396  19.061  20.848   6.750
 9050POPC   C3B59397  19.124  20.868   7.050
 9050POPC   C4B59398  19.147  20.828   7.350
 9051POPC   NC359399  12.853  29.922   5.550
 9051POPC   PO459400  12.899  29.927   5.850
 9051POPC   GL159401  12.818  29.963   6.150
 9051POPC   GL259402  12.973  30.009   6.150
 9051POPC   C1A59403  12.880  29.949   6.450
 9051POPC   D2A59404  12.811  29.888   6.750
 9051POPC   C3A59405  12.812  29.967   7.050
 9051POPC   C4A59406  12.829  29.891   7.350
 9051POPC   C1B59407  13.027  30.111   6.450
 9051POPC   C2B59408  13.040  30.019   6.750
 9051POPC   C3B59409  13.085  30.074   7.050
 9051POPC   C4B59410  13.012  30.089   7.350
 9052POPC   NC359411  18.311  30.660   5.550
 9052POPC   PO459412  18.276  30.736   5.850
 9052POPC   GL159413  18.258  30.733   6.150
 9052POPC   GL259414  18.125  30.717   6.150
 9052POPC   C1A59415  18.302  30.707   6.450
 9052POPC   D2A59416  18.247  30.691   6.750
 9052POPC   C3A59417  18.314  30.685   7.050
 9052POPC   C4A59418  18.264  30.737   7.350
 9052POPC   C1B59419  18.039  30.696   6.450
 9052POPC   C2B59420  18.015  30.683   6.750
 9052POPC   C3B59421  18.055  30.647   7.050
 9052POPC   C4B59422  18.033  30.687   7.350
 9053POPC   NC359423   0.393  22.982   5.550
 9053POPC   PO459424   0.394  22.945   5.850
 9053POPC   GL159425   0.414  22.965   6.150
 9053POPC   GL259426   0.343  22.855   6.150
 9053POPC   C1A59427   0.432  22.931   6.450
 9053POPC   D2A59428   0.473  22.984   6.750
 9053POPC   C3A59429   0.399  22.910   7.050
 9053POPC   C4A59430   0.471  22.965   7.350
 9053POPC   C1B59431   0.160  22.820   6.450
 9053POPC   C2B59432   0.245  22.894   6.750
 9053POPC   C3B59433   0.191  22.863   7.050
 9053POPC   C4B59434   0.178  22.846   7.350
 9054POPC   NC359435  44.700   8.987   5.550
 9054POPC   PO459436  44.703   8.970   5.850
 9054POPC   GL159437  44.710   8.989   6.150
 9054POPC   GL259438  44.710   8.840   6.150
 9054POPC   C1A59439  44.682   8.934   6.450
 9054POPC   D2A59440  44.678   9.007   6.750
 9054POPC   C3A59441  44.696   8.964   7.050
 9054POPC   C4A59442  44.615   8.943   7.350
 9054POPC   C1B59443  44.624   8.717   6.450
 9054POPC   C2B59444  44.661   8.760   6.750
 9054POPC   C3B59445  44.636   8.729   7.050
 9054POPC   C4B59446  44.615   8.741   7.350
 9055POPC   NC359447  44.636   8.171   5.550
 9055POPC   PO459448  44.640   8.178   5.850
 9055POPC   GL159449  44.657   8.148   6.150
 9055POPC   GL259450  44.662   8.312   6.150
 9055POPC   C1A59451  44.619   8.228   6.450
 9055POPC   D2A59452  44.698   8.219   6.750
 9055POPC   C3A59453  44.619   8.164   7.050
 9055POPC   C4A59454  44.675   8.224   7.350
 9055POPC   C1B59455  44.699   8.424   6.450
 9055POPC   C2B59456  44.706   8.417   6.750
 9055POPC   C3B59457  44.696   8.456   7.050
 9055POPC   C4B59458  44.724   8.440   7.350
 9056POPC   NC359459  10.572  40.033   5.550
 9056POPC   PO459460  10.553  40.020   5.850
 9056POPC   GL159461  10.479  40.033   6.150
 9056POPC   GL259462  10.375  39.889   6.150
 9056POPC   C1A59463  10.479  39.996   6.450
 9056POPC   D2A59464  10.539  40.039   6.750
 9056POPC   C3A59465  10.531  39.992   7.050
 9056POPC   C4A59466  10.515  39.992   7.350
 9056POPC   C1B59467  10.315  39.867   6.450
 9056POPC   C2B59468  10.327  39.827   6.750
 9056POPC   C3B59469  10.296  39.902   7.050
 9056POPC   C4B59470  10.358  39.822   7.350
 9057POPC   NC359471   9.753   4.317   5.550
 9057POPC   PO459472   9.758   4.306   5.850
 9057POPC   GL159473   9.731   4.270   6.150
 9057POPC   GL259474   9.756   4.229   6.150
 9057POPC   C1A59475   9.773   4.361   6.450
 9057POPC   D2A59476   9.740   4.364   6.750
 9057POPC   C3A59477   9.714   4.344   7.050
 9057POPC   C4A59478   9.737   4.297   7.350
 9057POPC   C1B59479   9.849   4.043   6.450
 9057POPC   C2B59480   9.846   4.030   6.750
 9057POPC   C3B59481   9.847   4.118   7.050
 9057POPC   C4B59482   9.767   4.120   7.350
 9058POPC   NC359483  39.242  26.851   5.550
 9058POPC   PO459484  39.202  26.833   5.850
 9058POPC   GL159485  39.186  26.779   6.150
 9058POPC   GL259486  39.083  26.891   6.150
 9058POPC   C1A59487  39.211  26.830   6.450
 9058POPC   D2A59488  39.229  26.857   6.750
 9058POPC   C3A59489  39.232  26.807   7.050
 9058POPC   C4A59490  39.279  26.812   7.350
 9058POPC   C1B59491  39.005  26.952   6.450
 9058POPC   C2B59492  39.055  26.884   6.750
 9058POPC   C3B59493  39.021  26.889   7.050
 9058POPC   C4B59494  38.973  26.891   7.350
 9059POPC   NC359495   1.985   1.224   5.550
 9059POPC   PO459496   1.996   1.189   5.850
 9059POPC   GL159497   2.014   1.250   6.150
 9059POPC   GL259498   1.846   1.288   6.150
 9059POPC   C1A59499   1.967   1.231   6.450
 9059POPC   D2A59500   1.945   1.228   6.750
 9059POPC   C3A59501   2.002   1.217   7.050
 9059POPC   C4A59502   1.975   1.220   7.350
 9059POPC   C1B59503   1.776   1.275   6.450
 9059POPC   C2B59504   1.724   1.310   6.750
 9059POPC   C3B59505   1.711   1.291   7.050
 9059POPC   C4B59506   1.757   1.288   7.350
 9060POPC   NC359507  38.425  38.423   5.550
 9060POPC   PO459508  38.498  38.504   5.850
 9060POPC   GL159509  38.482  38.502   6.150
 9060POPC   GL259510  38.389  38.348   6.150
 9060POPC   C1A59511  38.416  38.446   6.450
 9060POPC   D2A59512  38.415  38.474   6.750
 9060POPC   C3A59513  38.465  38.411   7.050
 9060POPC   C4A59514  38.461  38.419   7.350
 9060POPC   C1B59515  38.417  38.206   6.450
 9060POPC   C2B59516  38.453  38.188   6.750
 9060POPC   C3B59517  38.457  38.239   7.050
 9060POPC   C4B59518  38.398  38.182   7.350
 9061POPC   NC359519   4.338  11.302   5.550
 9061POPC   PO459520   4.329  11.272   5.850
 9061POPC   GL159521   4.309  11.274   6.150
 9061POPC   GL259522   4.307  11.201   6.150
 9061POPC   C1A59523   4.303  11.314   6.450
 9061POPC   D2A59524   4.348  11.322   6.750
 9061POPC   C3A59525   4.323  11.339   7.050
 9061POPC   C4A59526   4.311  11.317   7.350
 9061POPC   C1B59527   4.366  11.080   6.450
 9061POPC   C2B59528   4.381  11.013   6.750
 9061POPC   C3B59529   4.374  11.005   7.050
 9061POPC   C4B59530   4.380  11.067   7.350
 9062POPC   NC359531  13.635  36.938   5.550
 9062POPC   PO459532  13.601  36.869   5.850
 9062POPC   GL159533  13.596  36.874   6.150
 9062POPC   GL259534  13.769  36.977   6.150
 9062POPC   C1A59535  13.632  36.854   6.450
 9062POPC   D2A59536  13.676  36.929   6.750
 9062POPC   C3A59537  13.581  36.932   7.050
 9062POPC   C4A59538  13.658  36.899   7.350
 9062POPC   C1B59539  13.895  37.009   6.450
 9062POPC   C2B59540  13.823  37.009   6.750
 9062POPC   C3B59541  13.819  36.985   7.050
 9062POPC   C4B59542  13.880  36.970   7.350
 9063POPC   NC359543  17.505   2.784   5.550
 9063POPC   PO459544  17.522   2.770   5.850
 9063POPC   GL159545  17.503   2.756   6.150
 9063POPC   GL259546  17.603   2.708   6.150
 9063POPC   C1A59547  17.519   2.770   6.450
 9063POPC   D2A59548  17.467   2.772   6.750
 9063POPC   C3A59549  17.544   2.763   7.050
 9063POPC   C4A59550  17.473   2.767   7.350
 9063POPC   C1B59551  17.740   2.720   6.450
 9063POPC   C2B59552  17.754   2.742   6.750
 9063POPC   C3B59553  17.787   2.744   7.050
 9063POPC   C4B59554  17.791   2.768   7.350
 9064POPC   NC359555  41.550   7.458   5.550
 9064POPC   PO459556  41.535   7.428   5.850
 9064POPC   GL159557  41.563   7.417   6.150
 9064POPC   GL259558  41.669   7.397   6.150
 9064POPC   C1A59559  41.602   7.406   6.450
 9064POPC   D2A59560  41.585   7.439   6.750
 9064POPC   C3A59561  41.573   7.402   7.050
 9064POPC   C4A59562  41.567   7.444   7.350
 9064POPC   C1B59563  41.747   7.242   6.450
 9064POPC   C2B59564  41.784   7.278   6.750
 9064POPC   C3B59565  41.767   7.247   7.050
 9064POPC   C4B59566  41.792   7.259   7.350
 9065POPC   NC359567  44.660  19.860   5.550
 9065POPC   PO459568  44.683  19.824   5.850
 9065POPC   GL159569  44.633  19.833   6.150
 9065POPC   GL259570  44.589  19.762   6.150
 9065POPC   C1A59571  44.689  19.789   6.450
 9065POPC   D2A59572  44.674  19.828   6.750
 9065POPC   C3A59573  44.676  19.827   7.050
 9065POPC   C4A59574  44.653  19.879   7.350
 9065POPC   C1B59575  44.631  19.636   6.450
 9065POPC   C2B59576  44.555  19.639   6.750
 9065POPC   C3B59577  44.633  19.547   7.050
 9065POPC   C4B59578  44.613  19.626   7.350
 9066POPC   NC359579  26.082   0.436   5.550
 9066POPC   PO459580  26.084   0.399   5.850
 9066POPC   GL159581  26.032   0.391   6.150
 9066POPC   GL259582  26.161   0.371   6.150
 9066POPC   C1A59583  26.078   0.485   6.450
 9066POPC   D2A59584  26.062   0.427   6.750
 9066POPC   C3A59585  25.995   0.413   7.050
 9066POPC   C4A59586  25.995   0.421   7.350
 9066POPC   C1B59587  26.254   0.408   6.450
 9066POPC   C2B59588  26.286   0.360   6.750
 9066POPC   C3B59589  26.242   0.381   7.050
 9066POPC   C4B59590  26.265   0.369   7.350
 9067POPC   NC359591  41.557  18.291   5.550
 9067POPC   PO459592  41.596  18.259   5.850
 9067POPC   GL159593  41.605  18.267   6.150
 9067POPC   GL259594  41.487  18.306   6.150
 9067POPC   C1A59595  41.601  18.275   6.450
 9067POPC   D2A59596  41.603  18.260   6.750
 9067POPC   C3A59597  41.601  18.316   7.050
 9067POPC   C4A59598  41.515  18.316   7.350
 9067POPC   C1B59599  41.360  18.363   6.450
 9067POPC   C2B59600  41.371  18.351   6.750
 9067POPC   C3B59601  41.296  18.371   7.050
 9067POPC   C4B59602  41.372  18.419   7.350
 9068POPC   NC359603   5.870   1.261   5.550
 9068POPC   PO459604   5.875   1.206   5.850
 9068POPC   GL159605   5.916   1.170   6.150
 9068POPC   GL259606   5.804   1.186   6.150
 9068POPC   C1A59607   5.821   1.209   6.450
 9068POPC   D2A59608   5.867   1.186   6.750
 9068POPC   C3A59609   5.822   1.243   7.050
 9068POPC   C4A59610   5.841   1.207   7.350
 9068POPC   C1B59611   5.671   1.071   6.450
 9068POPC   C2B59612   5.665   1.067   6.750
 9068POPC   C3B59613   5.704   1.069   7.050
 9068POPC   C4B59614   5.622   1.076   7.350
 9069POPC   NC359615  25.267  37.658   5.550
 9069POPC   PO459616  25.245  37.691   5.850
 9069POPC   GL159617  25.232  37.655   6.150
 9069POPC   GL259618  25.368  37.622   6.150
 9069POPC   C1A59619  25.227  37.678   6.450
 9069POPC   D2A59620  25.230  37.699   6.750
 9069POPC   C3A59621  25.314  37.686   7.050
 9069POPC   C4A59622  25.231  37.634   7.350
 9069POPC   C1B59623  25.508  37.579   6.450
 9069POPC   C2B59624  25.472  37.551   6.750
 9069POPC   C3B59625  25.433  37.580   7.050
 9069POPC   C4B59626  25.471  37.574   7.350
 9070POPC   NC359627   5.872   2.740   5.550
 9070POPC   PO459628   5.880   2.801   5.850
 9070POPC   GL159629   5.862   2.792   6.150
 9070POPC   GL259630   5.753   2.683   6.150
 9070POPC   C1A59631   5.875   2.796   6.450
 9070POPC   D2A59632   5.867   2.788   6.750
 9070POPC   C3A59633   5.861   2.750   7.050
 9070POPC   C4A59634   5.843   2.757   7.350
 9070POPC   C1B59635   5.687   2.585   6.450
 9070POPC   C2B59636   5.615   2.611   6.750
 9070POPC   C3B59637   5.696   2.675   7.050
 9070POPC   C4B59638   5.638   2.606   7.350
 9071POPC   NC359639  36.112  26.064   5.550
 9071POPC   PO459640  36.157  26.088   5.850
 9071POPC   GL159641  36.169  26.088   6.150
 9071POPC   GL259642  36.174  25.883   6.150
 9071POPC   C1A59643  36.106  26.078   6.450
 9071POPC   D2A59644  36.134  26.088   6.750
 9071POPC   C3A59645  36.120  25.996   7.050
 9071POPC   C4A59646  36.148  26.068   7.350
 9071POPC   C1B59647  36.130  25.743   6.450
 9071POPC   C2B59648  36.153  25.797   6.750
 9071POPC   C3B59649  36.126  25.769   7.050
 9071POPC   C4B59650  36.133  25.771   7.350
 9072POPC   NC359651  10.514  32.998   5.550
 9072POPC   PO459652  10.517  32.980   5.850
 9072POPC   GL159653  10.505  33.060   6.150
 9072POPC   GL259654  10.388  32.998   6.150
 9072POPC   C1A59655  10.507  33.035   6.450
 9072POPC   D2A59656  10.537  33.037   6.750
 9072POPC   C3A59657  10.541  33.036   7.050
 9072POPC   C4A59658  10.515  33.019   7.350
 9072POPC   C1B59659  10.277  32.988   6.450
 9072POPC   C2B59660  10.262  33.062   6.750
 9072POPC   C3B59661  10.239  32.977   7.050
 9072POPC   C4B59662  10.320  32.965   7.350
 9073POPC   NC359663  43.080  15.930   5.550
 9073POPC   PO459664  43.124  15.913   5.850
 9073POPC   GL159665  43.104  15.969   6.150
 9073POPC   GL259666  43.066  16.091   6.150
 9073POPC   C1A59667  43.063  15.925   6.450
 9073POPC   D2A59668  43.156  15.976   6.750
 9073POPC   C3A59669  43.062  15.949   7.050
 9073POPC   C4A59670  43.110  15.906   7.350
 9073POPC   C1B59671  43.055  16.234   6.450
 9073POPC   C2B59672  43.073  16.142   6.750
 9073POPC   C3B59673  43.046  16.146   7.050
 9073POPC   C4B59674  43.030  16.217   7.350
 9074POPC   NC359675  43.106  31.429   5.550
 9074POPC   PO459676  43.122  31.475   5.850
 9074POPC   GL159677  43.130  31.464   6.150
 9074POPC   GL259678  42.957  31.534   6.150
 9074POPC   C1A59679  43.084  31.443   6.450
 9074POPC   D2A59680  43.130  31.432   6.750
 9074POPC   C3A59681  43.118  31.478   7.050
 9074POPC   C4A59682  43.151  31.434   7.350
 9074POPC   C1B59683  42.882  31.563   6.450
 9074POPC   C2B59684  42.923  31.662   6.750
 9074POPC   C3B59685  42.940  31.604   7.050
 9074POPC   C4B59686  42.921  31.661   7.350
 9075POPC   NC359687  43.855  37.631   5.550
 9075POPC   PO459688  43.881  37.658   5.850
 9075POPC   GL159689  43.909  37.670   6.150
 9075POPC   GL259690  43.954  37.603   6.150
 9075POPC   C1A59691  43.851  37.694   6.450
 9075POPC   D2A59692  43.850  37.728   6.750
 9075POPC   C3A59693  43.908  37.725   7.050
 9075POPC   C4A59694  43.868  37.715   7.350
 9075POPC   C1B59695  44.099  37.588   6.450
 9075POPC   C2B59696  44.092  37.622   6.750
 9075POPC   C3B59697  44.119  37.595   7.050
 9075POPC   C4B59698  44.086  37.560   7.350
 9076POPC   NC359699  40.025  12.874   5.550
 9076POPC   PO459700  39.996  12.890   5.850
 9076POPC   GL159701  40.031  12.888   6.150
 9076POPC   GL259702  39.942  12.924   6.150
 9076POPC   C1A59703  40.023  12.813   6.450
 9076POPC   D2A59704  39.963  12.889   6.750
 9076POPC   C3A59705  39.967  12.893   7.050
 9076POPC   C4A59706  40.048  12.836   7.350
 9076POPC   C1B59707  39.945  13.129   6.450
 9076POPC   C2B59708  39.979  13.109   6.750
 9076POPC   C3B59709  39.928  13.077   7.050
 9076POPC   C4B59710  39.968  13.126   7.350
 9077POPC   NC359711  32.275   8.223   5.550
 9077POPC   PO459712  32.276   8.192   5.850
 9077POPC   GL159713  32.210   8.193   6.150
 9077POPC   GL259714  32.362   8.121   6.150
 9077POPC   C1A59715  32.290   8.186   6.450
 9077POPC   D2A59716  32.227   8.228   6.750
 9077POPC   C3A59717  32.281   8.204   7.050
 9077POPC   C4A59718  32.203   8.183   7.350
 9077POPC   C1B59719  32.448   8.082   6.450
 9077POPC   C2B59720  32.510   8.063   6.750
 9077POPC   C3B59721  32.427   8.066   7.050
 9077POPC   C4B59722  32.442   8.056   7.350
 9078POPC   NC359723  38.505  43.112   5.550
 9078POPC   PO459724  38.410  43.112   5.850
 9078POPC   GL159725  38.422  43.083   6.150
 9078POPC   GL259726  38.408  42.994   6.150
 9078POPC   C1A59727  38.447  43.077   6.450
 9078POPC   D2A59728  38.482  43.119   6.750
 9078POPC   C3A59729  38.475  43.094   7.050
 9078POPC   C4A59730  38.421  43.133   7.350
 9078POPC   C1B59731  38.319  42.911   6.450
 9078POPC   C2B59732  38.292  42.922   6.750
 9078POPC   C3B59733  38.363  42.908   7.050
 9078POPC   C4B59734  38.287  42.862   7.350
 9079POPC   NC359735  40.812   4.359   5.550
 9079POPC   PO459736  40.743   4.366   5.850
 9079POPC   GL159737  40.762   4.321   6.150
 9079POPC   GL259738  40.839   4.455   6.150
 9079POPC   C1A59739  40.743   4.322   6.450
 9079POPC   D2A59740  40.829   4.290   6.750
 9079POPC   C3A59741  40.784   4.281   7.050
 9079POPC   C4A59742  40.794   4.354   7.350
 9079POPC   C1B59743  40.879   4.602   6.450
 9079POPC   C2B59744  40.895   4.553   6.750
 9079POPC   C3B59745  40.844   4.590   7.050
 9079POPC   C4B59746  40.846   4.513   7.350
 9080POPC   NC359747   9.792  32.273   5.550
 9080POPC   PO459748   9.722  32.260   5.850
 9080POPC   GL159749   9.736  32.205   6.150
 9080POPC   GL259750   9.760  32.335   6.150
 9080POPC   C1A59751   9.754  32.257   6.450
 9080POPC   D2A59752   9.788  32.217   6.750
 9080POPC   C3A59753   9.748  32.275   7.050
 9080POPC   C4A59754   9.700  32.251   7.350
 9080POPC   C1B59755   9.742  32.480   6.450
 9080POPC   C2B59756   9.695  32.522   6.750
 9080POPC   C3B59757   9.759  32.450   7.050
 9080POPC   C4B59758   9.691  32.452   7.350
 9081POPC   NC359759   9.701  29.106   5.550
 9081POPC   PO459760   9.729  29.166   5.850
 9081POPC   GL159761   9.751  29.115   6.150
 9081POPC   GL259762   9.711  29.275   6.150
 9081POPC   C1A59763   9.796  29.191   6.450
 9081POPC   D2A59764   9.725  29.120   6.750
 9081POPC   C3A59765   9.753  29.107   7.050
 9081POPC   C4A59766   9.723  29.163   7.350
 9081POPC   C1B59767   9.806  29.394   6.450
 9081POPC   C2B59768   9.733  29.373   6.750
 9081POPC   C3B59769   9.758  29.377   7.050
 9081POPC   C4B59770   9.708  29.424   7.350
 9082POPC   NC359771  15.208  21.432   5.550
 9082POPC   PO459772  15.138  21.356   5.850
 9082POPC   GL159773  15.193  21.374   6.150
 9082POPC   GL259774  15.047  21.423   6.150
 9082POPC   C1A59775  15.160  21.430   6.450
 9082POPC   D2A59776  15.144  21.348   6.750
 9082POPC   C3A59777  15.159  21.337   7.050
 9082POPC   C4A59778  15.136  21.379   7.350
 9082POPC   C1B59779  14.947  21.462   6.450
 9082POPC   C2B59780  14.943  21.439   6.750
 9082POPC   C3B59781  14.962  21.489   7.050
 9082POPC   C4B59782  14.951  21.459   7.350
 9083POPC   NC359783  16.747  32.252   5.550
 9083POPC   PO459784  16.688  32.279   5.850
 9083POPC   GL159785  16.702  32.226   6.150
 9083POPC   GL259786  16.893  32.240   6.150
 9083POPC   C1A59787  16.708  32.238   6.450
 9083POPC   D2A59788  16.695  32.224   6.750
 9083POPC   C3A59789  16.761  32.256   7.050
 9083POPC   C4A59790  16.718  32.277   7.350
 9083POPC   C1B59791  16.962  32.232   6.450
 9083POPC   C2B59792  16.995  32.290   6.750
 9083POPC   C3B59793  16.955  32.260   7.050
 9083POPC   C4B59794  16.967  32.207   7.350
 9084POPC   NC359795   8.970   5.848   5.550
 9084POPC   PO459796   9.009   5.919   5.850
 9084POPC   GL159797   9.000   5.856   6.150
 9084POPC   GL259798   9.033   5.938   6.150
 9084POPC   C1A59799   8.964   5.896   6.450
 9084POPC   D2A59800   8.991   5.822   6.750
 9084POPC   C3A59801   8.926   5.907   7.050
 9084POPC   C4A59802   8.961   5.884   7.350
 9084POPC   C1B59803   9.162   6.049   6.450
 9084POPC   C2B59804   9.176   6.059   6.750
 9084POPC   C3B59805   9.092   6.109   7.050
 9084POPC   C4B59806   9.088   6.059   7.350
 9085POPC   NC359807  27.599  37.650   5.550
 9085POPC   PO459808  27.572  37.664   5.850
 9085POPC   GL159809  27.609  37.640   6.150
 9085POPC   GL259810  27.711  37.587   6.150
 9085POPC   C1A59811  27.582  37.663   6.450
 9085POPC   D2A59812  27.546  37.655   6.750
 9085POPC   C3A59813  27.627  37.678   7.050
 9085POPC   C4A59814  27.550  37.671   7.350
 9085POPC   C1B59815  27.774  37.470   6.450
 9085POPC   C2B59816  27.706  37.454   6.750
 9085POPC   C3B59817  27.743  37.451   7.050
 9085POPC   C4B59818  27.728  37.449   7.350
 9086POPC   NC359819  19.035   5.097   5.550
 9086POPC   PO459820  19.094   5.117   5.850
 9086POPC   GL159821  19.056   5.125   6.150
 9086POPC   GL259822  19.081   5.206   6.150
 9086POPC   C1A59823  19.011   5.094   6.450
 9086POPC   D2A59824  19.053   5.071   6.750
 9086POPC   C3A59825  19.031   5.111   7.050
 9086POPC   C4A59826  19.083   5.078   7.350
 9086POPC   C1B59827  19.117   5.338   6.450
 9086POPC   C2B59828  19.078   5.360   6.750
 9086POPC   C3B59829  19.059   5.342   7.050
 9086POPC   C4B59830  19.087   5.381   7.350
 9087POPC   NC359831  43.842   8.939   5.550
 9087POPC   PO459832  43.896   8.964   5.850
 9087POPC   GL159833  43.851   8.951   6.150
 9087POPC   GL259834  43.905   8.867   6.150
 9087POPC   C1A59835  43.926   8.947   6.450
 9087POPC   D2A59836  43.840   8.999   6.750
 9087POPC   C3A59837  43.919   8.953   7.050
 9087POPC   C4A59838  43.927   8.939   7.350
 9087POPC   C1B59839  43.937   8.733   6.450
 9087POPC   C2B59840  44.007   8.756   6.750
 9087POPC   C3B59841  43.999   8.709   7.050
 9087POPC   C4B59842  43.996   8.713   7.350
 9088POPC   NC359843  19.022  18.279   5.550
 9088POPC   PO459844  19.059  18.275   5.850
 9088POPC   GL159845  19.080  18.302   6.150
 9088POPC   GL259846  19.080  18.403   6.150
 9088POPC   C1A59847  19.018  18.291   6.450
 9088POPC   D2A59848  19.055  18.266   6.750
 9088POPC   C3A59849  19.093  18.247   7.050
 9088POPC   C4A59850  19.017  18.300   7.350
 9088POPC   C1B59851  19.084  18.517   6.450
 9088POPC   C2B59852  19.069  18.538   6.750
 9088POPC   C3B59853  19.082  18.539   7.050
 9088POPC   C4B59854  19.027  18.567   7.350
 9089POPC   NC359855   5.110  29.142   5.550
 9089POPC   PO459856   5.106  29.189   5.850
 9089POPC   GL159857   5.123  29.171   6.150
 9089POPC   GL259858   5.078  29.297   6.150
 9089POPC   C1A59859   5.063  29.124   6.450
 9089POPC   D2A59860   5.081  29.193   6.750
 9089POPC   C3A59861   5.119  29.137   7.050
 9089POPC   C4A59862   5.065  29.141   7.350
 9089POPC   C1B59863   5.177  29.426   6.450
 9089POPC   C2B59864   5.186  29.420   6.750
 9089POPC   C3B59865   5.107  29.361   7.050
 9089POPC   C4B59866   5.108  29.390   7.350
 9090POPC   NC359867   4.300  38.470   5.550
 9090POPC   PO459868   4.278  38.459   5.850
 9090POPC   GL159869   4.269  38.443   6.150
 9090POPC   GL259870   4.290  38.333   6.150
 9090POPC   C1A59871   4.329  38.444   6.450
 9090POPC   D2A59872   4.328  38.409   6.750
 9090POPC   C3A59873   4.273  38.427   7.050
 9090POPC   C4A59874   4.269  38.461   7.350
 9090POPC   C1B59875   4.352  38.157   6.450
 9090POPC   C2B59876   4.348  38.210   6.750
 9090POPC   C3B59877   4.287  38.209   7.050
 9090POPC   C4B59878   4.339  38.233   7.350
 9091POPC   NC359879  36.936  25.310   5.550
 9091POPC   PO459880  36.947  25.263   5.850
 9091POPC   GL159881  36.879  25.229   6.150
 9091POPC   GL259882  36.898  25.340   6.150
 9091POPC   C1A59883  36.943  25.243   6.450
 9091POPC   D2A59884  36.946  25.239   6.750
 9091POPC   C3A59885  36.885  25.245   7.050
 9091POPC   C4A59886  36.919  25.313   7.350
 9091POPC   C1B59887  36.944  25.549   6.450
 9091POPC   C2B59888  36.946  25.470   6.750
 9091POPC   C3B59889  36.934  25.459   7.050
 9091POPC   C4B59890  36.973  25.471   7.350
 9092POPC   NC359891  12.839  12.052   5.550
 9092POPC   PO459892  12.807  12.113   5.850
 9092POPC   GL159893  12.901  12.044   6.150
 9092POPC   GL259894  12.720  12.005   6.150
 9092POPC   C1A59895  12.809  12.124   6.450
 9092POPC   D2A59896  12.883  12.100   6.750
 9092POPC   C3A59897  12.833  12.092   7.050
 9092POPC   C4A59898  12.884  12.087   7.350
 9092POPC   C1B59899  12.668  11.941   6.450
 9092POPC   C2B59900  12.722  11.858   6.750
 9092POPC   C3B59901  12.730  11.885   7.050
 9092POPC   C4B59902  12.645  11.906   7.350
 9093POPC   NC359903  32.199  38.501   5.550
 9093POPC   PO459904  32.209  38.431   5.850
 9093POPC   GL159905  32.285  38.454   6.150
 9093POPC   GL259906  32.338  38.585   6.150
 9093POPC   C1A59907  32.259  38.443   6.450
 9093POPC   D2A59908  32.296  38.420   6.750
 9093POPC   C3A59909  32.213  38.478   7.050
 9093POPC   C4A59910  32.281  38.484   7.350
 9093POPC   C1B59911  32.405  38.579   6.450
 9093POPC   C2B59912  32.476  38.670   6.750
 9093POPC   C3B59913  32.473  38.656   7.050
 9093POPC   C4B59914  32.428  38.634   7.350
 9094POPC   NC359915  14.360  18.259   5.550
 9094POPC   PO459916  14.357  18.253   5.850
 9094POPC   GL159917  14.449  18.291   6.150
 9094POPC   GL259918  14.257  18.240   6.150
 9094POPC   C1A59919  14.430  18.261   6.450
 9094POPC   D2A59920  14.389  18.256   6.750
 9094POPC   C3A59921  14.421  18.268   7.050
 9094POPC   C4A59922  14.439  18.313   7.350
 9094POPC   C1B59923  14.160  18.168   6.450
 9094POPC   C2B59924  14.197  18.172   6.750
 9094POPC   C3B59925  14.213  18.220   7.050
 9094POPC   C4B59926  14.209  18.216   7.350
 9095POPC   NC359927  44.665   2.760   5.550
 9095POPC   PO459928  44.636   2.783   5.850
 9095POPC   GL159929  44.686   2.778   6.150
 9095POPC   GL259930  44.777   2.833   6.150
 9095POPC   C1A59931  44.628   2.790   6.450
 9095POPC   D2A59932  44.702   2.775   6.750
 9095POPC   C3A59933  44.687   2.764   7.050
 9095POPC   C4A59934  44.686   2.786   7.350
 9095POPC   C1B59935  44.870   2.921   6.450
 9095POPC   C2B59936  44.819   2.955   6.750
 9095POPC   C3B59937  44.862   2.987   7.050
 9095POPC   C4B59938  44.866   2.926   7.350
 9096POPC   NC359939  19.091   2.742   5.550
 9096POPC   PO459940  19.024   2.795   5.850
 9096POPC   GL159941  19.107   2.789   6.150
 9096POPC   GL259942  18.983   2.715   6.150
 9096POPC   C1A59943  19.071   2.760   6.450
 9096POPC   D2A59944  19.078   2.763   6.750
 9096POPC   C3A59945  19.076   2.800   7.050
 9096POPC   C4A59946  19.087   2.782   7.350
 9096POPC   C1B59947  18.818   2.588   6.450
 9096POPC   C2B59948  18.835   2.582   6.750
 9096POPC   C3B59949  18.900   2.603   7.050
 9096POPC   C4B59950  18.896   2.639   7.350
 9097POPC   NC359951   1.948  42.374   5.550
 9097POPC   PO459952   2.033  42.305   5.850
 9097POPC   GL159953   1.945  42.312   6.150
 9097POPC   GL259954   2.151  42.350   6.150
 9097POPC   C1A59955   2.004  42.358   6.450
 9097POPC   D2A59956   2.015  42.302   6.750
 9097POPC   C3A59957   1.982  42.325   7.050
 9097POPC   C4A59958   1.941  42.303   7.350
 9097POPC   C1B59959   2.234  42.339   6.450
 9097POPC   C2B59960   2.243  42.291   6.750
 9097POPC   C3B59961   2.281  42.322   7.050
 9097POPC   C4B59962   2.232  42.338   7.350
 9098POPC   NC359963  26.040  10.564   5.550
 9098POPC   PO459964  26.051  10.488   5.850
 9098POPC   GL159965  26.038  10.501   6.150
 9098POPC   GL259966  26.171  10.475   6.150
 9098POPC   C1A59967  26.046  10.528   6.450
 9098POPC   D2A59968  26.056  10.530   6.750
 9098POPC   C3A59969  26.080  10.480   7.050
 9098POPC   C4A59970  26.022  10.490   7.350
 9098POPC   C1B59971  26.195  10.352   6.450
 9098POPC   C2B59972  26.219  10.353   6.750
 9098POPC   C3B59973  26.235  10.289   7.050
 9098POPC   C4B59974  26.247  10.372   7.350
 9099POPC   NC359975   9.746  11.286   5.550
 9099POPC   PO459976   9.780  11.287   5.850
 9099POPC   GL159977   9.752  11.326   6.150
 9099POPC   GL259978   9.854  11.333   6.150
 9099POPC   C1A59979   9.777  11.345   6.450
 9099POPC   D2A59980   9.749  11.269   6.750
 9099POPC   C3A59981   9.763  11.264   7.050
 9099POPC   C4A59982   9.789  11.345   7.350
 9099POPC   C1B59983  10.022  11.268   6.450
 9099POPC   C2B59984   9.999  11.256   6.750
 9099POPC   C3B59985   9.956  11.348   7.050
 9099POPC   C4B59986  10.033  11.278   7.350
 9100POPC   NC359987  11.250  36.936   5.550
 9100POPC   PO459988  11.253  36.947   5.850
 9100POPC   GL159989  11.272  36.920   6.150
 9100POPC   GL259990  11.462  36.852   6.150
 9100POPC   C1A59991  11.271  36.945   6.450
 9100POPC   D2A59992  11.343  36.937   6.750
 9100POPC   C3A59993  11.339  36.871   7.050
 9100POPC   C4A59994  11.348  36.898   7.350
 9100POPC   C1B59995  11.512  36.856   6.450
 9100POPC   C2B59996  11.524  36.818   6.750
 9100POPC   C3B59997  11.493  36.820   7.050
 9100POPC   C4B59998  11.523  36.824   7.350
 9101POPC   NC359999  33.846  15.185   5.550
 9101POPC   PO460000  33.815  15.222   5.850
 9101POPC   GL160001  33.811  15.135   6.150
 9101POPC   GL260002  33.845  15.054   6.150
 9101POPC   C1A60003  33.803  15.218   6.450
 9101POPC   D2A60004  33.807  15.182   6.750
 9101POPC   C3A60005  33.812  15.221   7.050
 9101POPC   C4A60006  33.775  15.185   7.350
 9101POPC   C1B60007  33.948  15.045   6.450
 9101POPC   C2B60008  33.965  15.042   6.750
 9101POPC   C3B60009  33.935  14.954   7.050
 9101POPC   C4B60010  33.934  15.014   7.350
 9102POPC   NC360011  11.304  26.059   5.550
 9102POPC   PO460012  11.346  26.063   5.850
 9102POPC   GL160013  11.295  26.056   6.150
 9102POPC   GL260014  11.462  26.059   6.150
 9102POPC   C1A60015  11.349  26.000   6.450
 9102POPC   D2A60016  11.270  26.033   6.750
 9102POPC   C3A60017  11.336  26.024   7.050
 9102POPC   C4A60018  11.309  26.075   7.350
 9102POPC   C1B60019  11.591  26.006   6.450
 9102POPC   C2B60020  11.554  26.022   6.750
 9102POPC   C3B60021  11.572  26.039   7.050
 9102POPC   C4B60022  11.590  26.033   7.350
 9103POPC   NC360023  25.282  17.469   5.550
 9103POPC   PO460024  25.283  17.481   5.850
 9103POPC   GL160025  25.253  17.498   6.150
 9103POPC   GL260026  25.139  17.485   6.150
 9103POPC   C1A60027  25.263  17.519   6.450
 9103POPC   D2A60028  25.273  17.536   6.750
 9103POPC   C3A60029  25.279  17.479   7.050
 9103POPC   C4A60030  25.240  17.457   7.350
 9103POPC   C1B60031  25.063  17.479   6.450
 9103POPC   C2B60032  25.057  17.422   6.750
 9103POPC   C3B60033  25.040  17.478   7.050
 9103POPC   C4B60034  25.060  17.462   7.350
 9104POPC   NC360035  26.051  39.970   5.550
 9104POPC   PO460036  26.054  40.007   5.850
 9104POPC   GL160037  26.063  40.027   6.150
 9104POPC   GL260038  25.902  40.088   6.150
 9104POPC   C1A60039  26.021  40.056   6.450
 9104POPC   D2A60040  26.043  40.043   6.750
 9104POPC   C3A60041  26.022  40.052   7.050
 9104POPC   C4A60042  26.015  40.022   7.350
 9104POPC   C1B60043  25.861  40.114   6.450
 9104POPC   C2B60044  25.831  40.091   6.750
 9104POPC   C3B60045  25.866  40.107   7.050
 9104POPC   C4B60046  25.824  40.127   7.350
 9105POPC   NC360047   6.645  10.568   5.550
 9105POPC   PO460048   6.663  10.481   5.850
 9105POPC   GL160049   6.685  10.510   6.150
 9105POPC   GL260050   6.501  10.496   6.150
 9105POPC   C1A60051   6.617  10.551   6.450
 9105POPC   D2A60052   6.615  10.567   6.750
 9105POPC   C3A60053   6.628  10.522   7.050
 9105POPC   C4A60054   6.638  10.545   7.350
 9105POPC   C1B60055   6.400  10.517   6.450
 9105POPC   C2B60056   6.390  10.502   6.750
 9105POPC   C3B60057   6.348  10.530   7.050
 9105POPC   C4B60058   6.372  10.486   7.350
 9106POPC   NC360059  16.769  21.409   5.550
 9106POPC   PO460060  16.714  21.356   5.850
 9106POPC   GL160061  16.725  21.417   6.150
 9106POPC   GL260062  16.757  21.458   6.150
 9106POPC   C1A60063  16.688  21.336   6.450
 9106POPC   D2A60064  16.707  21.424   6.750
 9106POPC   C3A60065  16.746  21.436   7.050
 9106POPC   C4A60066  16.754  21.413   7.350
 9106POPC   C1B60067  16.813  21.612   6.450
 9106POPC   C2B60068  16.810  21.618   6.750
 9106POPC   C3B60069  16.765  21.665   7.050
 9106POPC   C4B60070  16.820  21.612   7.350
 9107POPC   NC360071  18.246   9.768   5.550
 9107POPC   PO460072  18.304   9.763   5.850
 9107POPC   GL160073  18.233   9.785   6.150
 9107POPC   GL260074  18.157   9.792   6.150
 9107POPC   C1A60075  18.241   9.797   6.450
 9107POPC   D2A60076  18.327   9.771   6.750
 9107POPC   C3A60077  18.272   9.753   7.050
 9107POPC   C4A60078  18.312   9.762   7.350
 9107POPC   C1B60079  18.037   9.751   6.450
 9107POPC   C2B60080  18.011   9.762   6.750
 9107POPC   C3B60081  18.086   9.792   7.050
 9107POPC   C4B60082  18.014   9.779   7.350
 9108POPC   NC360083  22.174  14.403   5.550
 9108POPC   PO460084  22.175  14.446   5.850
 9108POPC   GL160085  22.128  14.436   6.150
 9108POPC   GL260086  22.174  14.554   6.150
 9108POPC   C1A60087  22.162  14.367   6.450
 9108POPC   D2A60088  22.147  14.430   6.750
 9108POPC   C3A60089  22.189  14.450   7.050
 9108POPC   C4A60090  22.211  14.371   7.350
 9108POPC   C1B60091  22.135  14.606   6.450
 9108POPC   C2B60092  22.103  14.619   6.750
 9108POPC   C3B60093  22.102  14.637   7.050
 9108POPC   C4B60094  22.057  14.667   7.350
 9109POPC   NC360095  38.487  10.555   5.550
 9109POPC   PO460096  38.425  10.516   5.850
 9109POPC   GL160097  38.484  10.569   6.150
 9109POPC   GL260098  38.582  10.449   6.150
 9109POPC   C1A60099  38.436  10.544   6.450
 9109POPC   D2A60100  38.428  10.497   6.750
 9109POPC   C3A60101  38.444  10.547   7.050
 9109POPC   C4A60102  38.504  10.508   7.350
 9109POPC   C1B60103  38.648  10.352   6.450
 9109POPC   C2B60104  38.594  10.319   6.750
 9109POPC   C3B60105  38.583  10.322   7.050
 9109POPC   C4B60106  38.645  10.365   7.350
 9110POPC   NC360107  35.331   5.881   5.550
 9110POPC   PO460108  35.383   5.915   5.850
 9110POPC   GL160109  35.322   5.842   6.150
 9110POPC   GL260110  35.388   5.965   6.150
 9110POPC   C1A60111  35.365   5.906   6.450
 9110POPC   D2A60112  35.365   5.910   6.750
 9110POPC   C3A60113  35.372   5.873   7.050
 9110POPC   C4A60114  35.384   5.846   7.350
 9110POPC   C1B60115  35.310   6.164   6.450
 9110POPC   C2B60116  35.344   6.136   6.750
 9110POPC   C3B60117  35.370   6.103   7.050
 9110POPC   C4B60118  35.341   6.116   7.350
 9111POPC   NC360119  38.440   7.440   5.550
 9111POPC   PO460120  38.434   7.412   5.850
 9111POPC   GL160121  38.486   7.387   6.150
 9111POPC   GL260122  38.402   7.509   6.150
 9111POPC   C1A60123  38.473   7.400   6.450
 9111POPC   D2A60124  38.421   7.439   6.750
 9111POPC   C3A60125  38.417   7.410   7.050
 9111POPC   C4A60126  38.432   7.384   7.350
 9111POPC   C1B60127  38.445   7.702   6.450
 9111POPC   C2B60128  38.432   7.666   6.750
 9111POPC   C3B60129  38.462   7.705   7.050
 9111POPC   C4B60130  38.461   7.620   7.350
 9112POPC   NC360131  19.796  41.588   5.550
 9112POPC   PO460132  19.881  41.566   5.850
 9112POPC   GL160133  19.851  41.563   6.150
 9112POPC   GL260134  19.828  41.730   6.150
 9112POPC   C1A60135  19.875  41.510   6.450
 9112POPC   D2A60136  19.877  41.600   6.750
 9112POPC   C3A60137  19.870  41.527   7.050
 9112POPC   C4A60138  19.850  41.511   7.350
 9112POPC   C1B60139  19.812  41.804   6.450
 9112POPC   C2B60140  19.826  41.831   6.750
 9112POPC   C3B60141  19.764  41.777   7.050
 9112POPC   C4B60142  19.760  41.765   7.350
 9113POPC   NC360143  25.247  26.829   5.550
 9113POPC   PO460144  25.306  26.830   5.850
 9113POPC   GL160145  25.225  26.811   6.150
 9113POPC   GL260146  25.148  26.790   6.150
 9113POPC   C1A60147  25.248  26.833   6.450
 9113POPC   D2A60148  25.250  26.780   6.750
 9113POPC   C3A60149  25.254  26.802   7.050
 9113POPC   C4A60150  25.250  26.794   7.350
 9113POPC   C1B60151  25.053  26.685   6.450
 9113POPC   C2B60152  24.988  26.697   6.750
 9113POPC   C3B60153  25.047  26.702   7.050
 9113POPC   C4B60154  25.025  26.681   7.350
 9114POPC   NC360155   0.402  12.824   5.550
 9114POPC   PO460156   0.405  12.843   5.850
 9114POPC   GL160157   0.392  12.809   6.150
 9114POPC   GL260158   0.510  12.702   6.150
 9114POPC   C1A60159   0.431  12.822   6.450
 9114POPC   D2A60160   0.471  12.858   6.750
 9114POPC   C3A60161   0.427  12.865   7.050
 9114POPC   C4A60162   0.440  12.876   7.350
 9114POPC   C1B60163   0.581  12.658   6.450
 9114POPC   C2B60164   0.570  12.599   6.750
 9114POPC   C3B60165   0.559  12.611   7.050
 9114POPC   C4B60166   0.526  12.668   7.350
 9115POPC   NC360167  26.007  41.552   5.550
 9115POPC   PO460168  25.996  41.552   5.850
 9115POPC   GL160169  26.016  41.556   6.150
 9115POPC   GL260170  26.120  41.623   6.150
 9115POPC   C1A60171  26.066  41.531   6.450
 9115POPC   D2A60172  26.064  41.525   6.750
 9115POPC   C3A60173  26.051  41.568   7.050
 9115POPC   C4A60174  26.024  41.594   7.350
 9115POPC   C1B60175  26.248  41.732   6.450
 9115POPC   C2B60176  26.219  41.708   6.750
 9115POPC   C3B60177  26.259  41.782   7.050
 9115POPC   C4B60178  26.261  41.714   7.350
 9116POPC   NC360179  22.178  42.303   5.550
 9116POPC   PO460180  22.149  42.331   5.850
 9116POPC   GL160181  22.167  42.294   6.150
 9116POPC   GL260182  22.202  42.245   6.150
 9116POPC   C1A60183  22.188  42.298   6.450
 9116POPC   D2A60184  22.161  42.324   6.750
 9116POPC   C3A60185  22.157  42.377   7.050
 9116POPC   C4A60186  22.185  42.321   7.350
 9116POPC   C1B60187  22.169  42.096   6.450
 9116POPC   C2B60188  22.141  42.119   6.750
 9116POPC   C3B60189  22.183  42.041   7.050
 9116POPC   C4B60190  22.130  42.129   7.350
 9117POPC   NC360191  13.599  12.871   5.550
 9117POPC   PO460192  13.673  12.885   5.850
 9117POPC   GL160193  13.645  12.894   6.150
 9117POPC   GL260194  13.563  12.756   6.150
 9117POPC   C1A60195  13.625  12.894   6.450
 9117POPC   D2A60196  13.643  12.884   6.750
 9117POPC   C3A60197  13.603  12.878   7.050
 9117POPC   C4A60198  13.641  12.808   7.350
 9117POPC   C1B60199  13.414  12.734   6.450
 9117POPC   C2B60200  13.454  12.735   6.750
 9117POPC   C3B60201  13.451  12.701   7.050
 9117POPC   C4B60202  13.439  12.737   7.350
 9118POPC   NC360203  22.916   8.999   5.550
 9118POPC   PO460204  22.911   8.936   5.850
 9118POPC   GL160205  22.981   8.949   6.150
 9118POPC   GL260206  22.767   8.983   6.150
 9118POPC   C1A60207  22.951   9.005   6.450
 9118POPC   D2A60208  22.931   8.944   6.750
 9118POPC   C3A60209  22.941   8.961   7.050
 9118POPC   C4A60210  22.958   8.947   7.350
 9118POPC   C1B60211  22.691   8.917   6.450
 9118POPC   C2B60212  22.724   8.932   6.750
 9118POPC   C3B60213  22.691   8.903   7.050
 9118POPC   C4B60214  22.685   8.913   7.350
 9119POPC   NC360215  23.695  26.774   5.550
 9119POPC   PO460216  23.718  26.795   5.850
 9119POPC   GL160217  23.687  26.811   6.150
 9119POPC   GL260218  23.627  26.923   6.150
 9119POPC   C1A60219  23.758  26.790   6.450
 9119POPC   D2A60220  23.733  26.820   6.750
 9119POPC   C3A60221  23.724  26.836   7.050
 9119POPC   C4A60222  23.759  26.781   7.350
 9119POPC   C1B60223  23.528  26.994   6.450
 9119POPC   C2B60224  23.525  26.956   6.750
 9119POPC   C3B60225  23.474  26.947   7.050
 9119POPC   C4B60226  23.476  26.970   7.350
 9120POPC   NC360227  34.562  37.666   5.550
 9120POPC   PO460228  34.617  37.724   5.850
 9120POPC   GL160229  34.625  37.695   6.150
 9120POPC   GL260230  34.546  37.761   6.150
 9120POPC   C1A60231  34.596  37.652   6.450
 9120POPC   D2A60232  34.617  37.677   6.750
 9120POPC   C3A60233  34.612  37.630   7.050
 9120POPC   C4A60234  34.544  37.706   7.350
 9120POPC   C1B60235  34.565  37.889   6.450
 9120POPC   C2B60236  34.507  37.948   6.750
 9120POPC   C3B60237  34.546  37.888   7.050
 9120POPC   C4B60238  34.568  37.970   7.350
 9121POPC   NC360239  31.494  44.631   5.550
 9121POPC   PO460240  31.455  44.648   5.850
 9121POPC   GL160241  31.477  44.651   6.150
 9121POPC   GL260242  31.590  44.548   6.150
 9121POPC   C1A60243  31.501  44.644   6.450
 9121POPC   D2A60244  31.483  44.671   6.750
 9121POPC   C3A60245  31.437  44.620   7.050
 9121POPC   C4A60246  31.490  44.684   7.350
 9121POPC   C1B60247  31.656  44.485   6.450
 9121POPC   C2B60248  31.706  44.484   6.750
 9121POPC   C3B60249  31.693  44.506   7.050
 9121POPC   C4B60250  31.672  44.512   7.350
 9122POPC   NC360251  10.538  20.599   5.550
 9122POPC   PO460252  10.513  20.582   5.850
 9122POPC   GL160253  10.559  20.614   6.150
 9122POPC   GL260254  10.664  20.716   6.150
 9122POPC   C1A60255  10.547  20.583   6.450
 9122POPC   D2A60256  10.480  20.562   6.750
 9122POPC   C3A60257  10.557  20.637   7.050
 9122POPC   C4A60258  10.481  20.642   7.350
 9122POPC   C1B60259  10.693  20.780   6.450
 9122POPC   C2B60260  10.701  20.753   6.750
 9122POPC   C3B60261  10.747  20.765   7.050
 9122POPC   C4B60262  10.772  20.760   7.350
 9123POPC   NC360263  10.483  19.088   5.550
 9123POPC   PO460264  10.510  19.041   5.850
 9123POPC   GL160265  10.504  19.088   6.150
 9123POPC   GL260266  10.503  19.162   6.150
 9123POPC   C1A60267  10.569  19.056   6.450
 9123POPC   D2A60268  10.533  19.042   6.750
 9123POPC   C3A60269  10.544  19.010   7.050
 9123POPC   C4A60270  10.480  19.057   7.350
 9123POPC   C1B60271  10.444  19.313   6.450
 9123POPC   C2B60272  10.494  19.301   6.750
 9123POPC   C3B60273  10.407  19.284   7.050
 9123POPC   C4B60274  10.461  19.266   7.350
 9124POPC   NC360275  41.512  28.390   5.550
 9124POPC   PO460276  41.567  28.323   5.850
 9124POPC   GL160277  41.578  28.363   6.150
 9124POPC   GL260278  41.408  28.355   6.150
 9124POPC   C1A60279  41.608  28.355   6.450
 9124POPC   D2A60280  41.563  28.373   6.750
 9124POPC   C3A60281  41.568  28.319   7.050
 9124POPC   C4A60282  41.515  28.361   7.350
 9124POPC   C1B60283  41.283  28.398   6.450
 9124POPC   C2B60284  41.304  28.359   6.750
 9124POPC   C3B60285  41.312  28.370   7.050
 9124POPC   C4B60286  41.352  28.359   7.350
 9125POPC   NC360287   2.028  10.564   5.550
 9125POPC   PO460288   1.969  10.488   5.850
 9125POPC   GL160289   2.027  10.540   6.150
 9125POPC   GL260290   1.920  10.672   6.150
 9125POPC   C1A60291   1.945  10.506   6.450
 9125POPC   D2A60292   1.994  10.565   6.750
 9125POPC   C3A60293   2.002  10.548   7.050
 9125POPC   C4A60294   1.960  10.517   7.350
 9125POPC   C1B60295   1.949  10.751   6.450
 9125POPC   C2B60296   1.968  10.757   6.750
 9125POPC   C3B60297   1.957  10.798   7.050
 9125POPC   C4B60298   1.975  10.770   7.350
 9126POPC   NC360299  42.304  13.644   5.550
 9126POPC   PO460300  42.357  13.671   5.850
 9126POPC   GL160301  42.363  13.624   6.150
 9126POPC   GL260302  42.228  13.586   6.150
 9126POPC   C1A60303  42.288  13.647   6.450
 9126POPC   D2A60304  42.355  13.586   6.750
 9126POPC   C3A60305  42.356  13.632   7.050
 9126POPC   C4A60306  42.356  13.607   7.350
 9126POPC   C1B60307  42.085  13.607   6.450
 9126POPC   C2B60308  42.121  13.544   6.750
 9126POPC   C3B60309  42.051  13.631   7.050
 9126POPC   C4B60310  42.117  13.544   7.350
 9127POPC   NC360311  17.459  22.985   5.550
 9127POPC   PO460312  17.488  22.908   5.850
 9127POPC   GL160313  17.483  22.917   6.150
 9127POPC   GL260314  17.535  22.835   6.150
 9127POPC   C1A60315  17.527  22.902   6.450
 9127POPC   D2A60316  17.469  22.936   6.750
 9127POPC   C3A60317  17.556  22.958   7.050
 9127POPC   C4A60318  17.488  22.915   7.350
 9127POPC   C1B60319  17.635  22.730   6.450
 9127POPC   C2B60320  17.664  22.701   6.750
 9127POPC   C3B60321  17.652  22.702   7.050
 9127POPC   C4B60322  17.691  22.698   7.350
 9128POPC   NC360323  11.317  43.108   5.550
 9128POPC   PO460324  11.292  43.141   5.850
 9128POPC   GL160325  11.304  43.119   6.150
 9128POPC   GL260326  11.390  43.070   6.150
 9128POPC   C1A60327  11.304  43.063   6.450
 9128POPC   D2A60328  11.306  43.124   6.750
 9128POPC   C3A60329  11.313  43.159   7.050
 9128POPC   C4A60330  11.337  43.099   7.350
 9128POPC   C1B60331  11.588  43.154   6.450
 9128POPC   C2B60332  11.545  43.105   6.750
 9128POPC   C3B60333  11.555  43.087   7.050
 9128POPC   C4B60334  11.562  43.096   7.350
 9129POPC   NC360335  25.222  33.033   5.550
 9129POPC   PO460336  25.218  33.035   5.850
 9129POPC   GL160337  25.313  32.993   6.150
 9129POPC   GL260338  25.383  33.049   6.150
 9129POPC   C1A60339  25.232  33.043   6.450
 9129POPC   D2A60340  25.260  33.026   6.750
 9129POPC   C3A60341  25.264  33.073   7.050
 9129POPC   C4A60342  25.266  32.984   7.350
 9129POPC   C1B60343  25.523  33.054   6.450
 9129POPC   C2B60344  25.503  33.073   6.750
 9129POPC   C3B60345  25.513  33.041   7.050
 9129POPC   C4B60346  25.500  33.058   7.350
 9130POPC   NC360347  36.873  32.267   5.550
 9130POPC   PO460348  36.892  32.220   5.850
 9130POPC   GL160349  36.923  32.274   6.150
 9130POPC   GL260350  36.770  32.195   6.150
 9130POPC   C1A60351  36.860  32.211   6.450
 9130POPC   D2A60352  36.922  32.256   6.750
 9130POPC   C3A60353  36.887  32.273   7.050
 9130POPC   C4A60354  36.863  32.216   7.350
 9130POPC   C1B60355  36.613  32.149   6.450
 9130POPC   C2B60356  36.699  32.167   6.750
 9130POPC   C3B60357  36.673  32.205   7.050
 9130POPC   C4B60358  36.635  32.235   7.350
 9131POPC   NC360359   1.263  33.793   5.550
 9131POPC   PO460360   1.235  33.838   5.850
 9131POPC   GL160361   1.205  33.826   6.150
 9131POPC   GL260362   1.133  33.691   6.150
 9131POPC   C1A60363   1.222  33.753   6.450
 9131POPC   D2A60364   1.246  33.824   6.750
 9131POPC   C3A60365   1.215  33.820   7.050
 9131POPC   C4A60366   1.185  33.786   7.350
 9131POPC   C1B60367   0.975  33.676   6.450
 9131POPC   C2B60368   1.073  33.618   6.750
 9131POPC   C3B60369   1.043  33.590   7.050
 9131POPC   C4B60370   1.031  33.665   7.350
 9132POPC   NC360371   5.876  26.048   5.550
 9132POPC   PO460372   5.908  26.057   5.850
 9132POPC   GL160373   5.868  25.992   6.150
 9132POPC   GL260374   5.949  26.157   6.150
 9132POPC   C1A60375   5.856  26.063   6.450
 9132POPC   D2A60376   5.838  26.031   6.750
 9132POPC   C3A60377   5.825  26.035   7.050
 9132POPC   C4A60378   5.842  25.993   7.350
 9132POPC   C1B60379   6.099  26.233   6.450
 9132POPC   C2B60380   6.088  26.167   6.750
 9132POPC   C3B60381   6.057  26.178   7.050
 9132POPC   C4B60382   6.087  26.212   7.350
 9133POPC   NC360383  41.574  25.308   5.550
 9133POPC   PO460384  41.592  25.251   5.850
 9133POPC   GL160385  41.606  25.224   6.150
 9133POPC   GL260386  41.445  25.363   6.150
 9133POPC   C1A60387  41.522  25.245   6.450
 9133POPC   D2A60388  41.586  25.309   6.750
 9133POPC   C3A60389  41.573  25.285   7.050
 9133POPC   C4A60390  41.512  25.216   7.350
 9133POPC   C1B60391  41.477  25.482   6.450
 9133POPC   C2B60392  41.390  25.448   6.750
 9133POPC   C3B60393  41.432  25.497   7.050
 9133POPC   C4B60394  41.460  25.465   7.350
 9134POPC   NC360395  15.223   5.080   5.550
 9134POPC   PO460396  15.147   5.135   5.850
 9134POPC   GL160397  15.151   5.083   6.150
 9134POPC   GL260398  15.300   5.042   6.150
 9134POPC   C1A60399  15.195   5.128   6.450
 9134POPC   D2A60400  15.194   5.085   6.750
 9134POPC   C3A60401  15.161   5.113   7.050
 9134POPC   C4A60402  15.134   5.081   7.350
 9134POPC   C1B60403  15.451   5.107   6.450
 9134POPC   C2B60404  15.436   5.081   6.750
 9134POPC   C3B60405  15.468   5.055   7.050
 9134POPC   C4B60406  15.388   5.077   7.350
 9135POPC   NC360407  13.650  10.542   5.550
 9135POPC   PO460408  13.584  10.501   5.850
 9135POPC   GL160409  13.651  10.519   6.150
 9135POPC   GL260410  13.773  10.480   6.150
 9135POPC   C1A60411  13.602  10.556   6.450
 9135POPC   D2A60412  13.579  10.486   6.750
 9135POPC   C3A60413  13.676  10.513   7.050
 9135POPC   C4A60414  13.636  10.504   7.350
 9135POPC   C1B60415  13.880  10.509   6.450
 9135POPC   C2B60416  13.878  10.477   6.750
 9135POPC   C3B60417  13.835  10.504   7.050
 9135POPC   C4B60418  13.855  10.525   7.350
 9136POPC   NC360419   9.711   1.165   5.550
 9136POPC   PO460420   9.796   1.213   5.850
 9136POPC   GL160421   9.792   1.204   6.150
 9136POPC   GL260422   9.760   1.128   6.150
 9136POPC   C1A60423   9.726   1.258   6.450
 9136POPC   D2A60424   9.726   1.205   6.750
 9136POPC   C3A60425   9.741   1.230   7.050
 9136POPC   C4A60426   9.785   1.167   7.350
 9136POPC   C1B60427   9.680   0.983   6.450
 9136POPC   C2B60428   9.717   0.941   6.750
 9136POPC   C3B60429   9.705   0.959   7.050
 9136POPC   C4B60430   9.708   0.982   7.350
 9137POPC   NC360431   5.827  14.375   5.550
 9137POPC   PO460432   5.912  14.410   5.850
 9137POPC   GL160433   5.823  14.384   6.150
 9137POPC   GL260434   5.947  14.483   6.150
 9137POPC   C1A60435   5.821  14.429   6.450
 9137POPC   D2A60436   5.873  14.367   6.750
 9137POPC   C3A60437   5.849  14.451   7.050
 9137POPC   C4A60438   5.903  14.404   7.350
 9137POPC   C1B60439   6.068  14.502   6.450
 9137POPC   C2B60440   6.097  14.540   6.750
 9137POPC   C3B60441   6.090  14.505   7.050
 9137POPC   C4B60442   6.085  14.521   7.350
 9138POPC   NC360443  36.130  15.192   5.550
 9138POPC   PO460444  36.148  15.190   5.850
 9138POPC   GL160445  36.124  15.175   6.150
 9138POPC   GL260446  36.027  15.270   6.150
 9138POPC   C1A60447  36.158  15.202   6.450
 9138POPC   D2A60448  36.080  15.201   6.750
 9138POPC   C3A60449  36.161  15.164   7.050
 9138POPC   C4A60450  36.141  15.149   7.350
 9138POPC   C1B60451  35.989  15.389   6.450
 9138POPC   C2B60452  35.969  15.369   6.750
 9138POPC   C3B60453  35.945  15.397   7.050
 9138POPC   C4B60454  36.024  15.402   7.350
 9139POPC   NC360455  10.514   3.493   5.550
 9139POPC   PO460456  10.494   3.517   5.850
 9139POPC   GL160457  10.573   3.549   6.150
 9139POPC   GL260458  10.376   3.503   6.150
 9139POPC   C1A60459  10.565   3.585   6.450
 9139POPC   D2A60460  10.492   3.510   6.750
 9139POPC   C3A60461  10.484   3.572   7.050
 9139POPC   C4A60462  10.478   3.523   7.350
 9139POPC   C1B60463  10.241   3.481   6.450
 9139POPC   C2B60464  10.265   3.457   6.750
 9139POPC   C3B60465  10.238   3.505   7.050
 9139POPC   C4B60466  10.252   3.514   7.350
 9140POPC   NC360467  16.695  17.514   5.550
 9140POPC   PO460468  16.687  17.546   5.850
 9140POPC   GL160469  16.684  17.555   6.150
 9140POPC   GL260470  16.718  17.648   6.150
 9140POPC   C1A60471  16.765  17.478   6.450
 9140POPC   D2A60472  16.714  17.481   6.750
 9140POPC   C3A60473  16.725  17.533   7.050
 9140POPC   C4A60474  16.686  17.476   7.350
 9140POPC   C1B60475  16.773  17.770   6.450
 9140POPC   C2B60476  16.750  17.729   6.750
 9140POPC   C3B60477  16.707  17.743   7.050
 9140POPC   C4B60478  16.774  17.713   7.350
 9141POPC   NC360479  30.652  29.879   5.550
 9141POPC   PO460480  30.667  29.920   5.850
 9141POPC   GL160481  30.665  29.900   6.150
 9141POPC   GL260482  30.809  29.836   6.150
 9141POPC   C1A60483  30.668  29.873   6.450
 9141POPC   D2A60484  30.684  29.919   6.750
 9141POPC   C3A60485  30.720  29.874   7.050
 9141POPC   C4A60486  30.686  29.895   7.350
 9141POPC   C1B60487  30.878  29.753   6.450
 9141POPC   C2B60488  30.829  29.746   6.750
 9141POPC   C3B60489  30.865  29.744   7.050
 9141POPC   C4B60490  30.787  29.669   7.350
 9142POPC   NC360491  14.421  33.072   5.550
 9142POPC   PO460492  14.448  33.053   5.850
 9142POPC   GL160493  14.367  33.038   6.150
 9142POPC   GL260494  14.354  33.095   6.150
 9142POPC   C1A60495  14.429  33.072   6.450
 9142POPC   D2A60496  14.425  32.982   6.750
 9142POPC   C3A60497  14.378  33.046   7.050
 9142POPC   C4A60498  14.431  33.072   7.350
 9142POPC   C1B60499  14.242  33.188   6.450
 9142POPC   C2B60500  14.241  33.190   6.750
 9142POPC   C3B60501  14.253  33.229   7.050
 9142POPC   C4B60502  14.254  33.241   7.350
 9143POPC   NC360503  31.506  10.555   5.550
 9143POPC   PO460504  31.461  10.492   5.850
 9143POPC   GL160505  31.462  10.540   6.150
 9143POPC   GL260506  31.386  10.545   6.150
 9143POPC   C1A60507  31.497  10.543   6.450
 9143POPC   D2A60508  31.439  10.525   6.750
 9143POPC   C3A60509  31.469  10.535   7.050
 9143POPC   C4A60510  31.463  10.531   7.350
 9143POPC   C1B60511  31.227  10.517   6.450
 9143POPC   C2B60512  31.239  10.504   6.750
 9143POPC   C3B60513  31.211  10.521   7.050
 9143POPC   C4B60514  31.205  10.512   7.350
 9144POPC   NC360515  25.219  39.224   5.550
 9144POPC   PO460516  25.256  39.198   5.850
 9144POPC   GL160517  25.305  39.195   6.150
 9144POPC   GL260518  25.105  39.285   6.150
 9144POPC   C1A60519  25.279  39.189   6.450
 9144POPC   D2A60520  25.303  39.221   6.750
 9144POPC   C3A60521  25.261  39.234   7.050
 9144POPC   C4A60522  25.268  39.233   7.350
 9144POPC   C1B60523  24.973  39.295   6.450
 9144POPC   C2B60524  25.015  39.226   6.750
 9144POPC   C3B60525  24.984  39.238   7.050
 9144POPC   C4B60526  24.987  39.274   7.350
 9145POPC   NC360527  23.692   5.866   5.550
 9145POPC   PO460528  23.693   5.914   5.850
 9145POPC   GL160529  23.756   5.905   6.150
 9145POPC   GL260530  23.704   5.709   6.150
 9145POPC   C1A60531  23.753   5.839   6.450
 9145POPC   D2A60532  23.717   5.894   6.750
 9145POPC   C3A60533  23.746   5.830   7.050
 9145POPC   C4A60534  23.701   5.868   7.350
 9145POPC   C1B60535  23.792   5.632   6.450
 9145POPC   C2B60536  23.760   5.618   6.750
 9145POPC   C3B60537  23.785   5.602   7.050
 9145POPC   C4B60538  23.774   5.635   7.350
 9146POPC   NC360539   9.784  34.560   5.550
 9146POPC   PO460540   9.715  34.542   5.850
 9146POPC   GL160541   9.761  34.587   6.150
 9146POPC   GL260542   9.859  34.455   6.150
 9146POPC   C1A60543   9.726  34.532   6.450
 9146POPC   D2A60544   9.748  34.582   6.750
 9146POPC   C3A60545   9.743  34.545   7.050
 9146POPC   C4A60546   9.784  34.534   7.350
 9146POPC   C1B60547   9.891  34.322   6.450
 9146POPC   C2B60548   9.838  34.338   6.750
 9146POPC   C3B60549   9.852  34.345   7.050
 9146POPC   C4B60550   9.833  34.334   7.350
 9147POPC   NC360551  34.590   3.499   5.550
 9147POPC   PO460552  34.602   3.547   5.850
 9147POPC   GL160553  34.611   3.504   6.150
 9147POPC   GL260554  34.471   3.464   6.150
 9147POPC   C1A60555  34.576   3.577   6.450
 9147POPC   D2A60556  34.538   3.570   6.750
 9147POPC   C3A60557  34.593   3.588   7.050
 9147POPC   C4A60558  34.561   3.500   7.350
 9147POPC   C1B60559  34.304   3.405   6.450
 9147POPC   C2B60560  34.369   3.479   6.750
 9147POPC   C3B60561  34.335   3.469   7.050
 9147POPC   C4B60562  34.350   3.436   7.350
 9148POPC   NC360563   2.732  38.425   5.550
 9148POPC   PO460564   2.741  38.449   5.850
 9148POPC   GL160565   2.781  38.448   6.150
 9148POPC   GL260566   2.784  38.364   6.150
 9148POPC   C1A60567   2.780  38.475   6.450
 9148POPC   D2A60568   2.802  38.423   6.750
 9148POPC   C3A60569   2.800  38.457   7.050
 9148POPC   C4A60570   2.791  38.488   7.350
 9148POPC   C1B60571   2.824  38.254   6.450
 9148POPC   C2B60572   2.861  38.202   6.750
 9148POPC   C3B60573   2.812  38.210   7.050
 9148POPC   C4B60574   2.843  38.209   7.350
 9149POPC   NC360575   1.210  24.496   5.550
 9149POPC   PO460576   1.206  24.535   5.850
 9149POPC   GL160577   1.257  24.465   6.150
 9149POPC   GL260578   1.105  24.516   6.150
 9149POPC   C1A60579   1.192  24.496   6.450
 9149POPC   D2A60580   1.195  24.516   6.750
 9149POPC   C3A60581   1.179  24.523   7.050
 9149POPC   C4A60582   1.256  24.489   7.350
 9149POPC   C1B60583   0.992  24.606   6.450
 9149POPC   C2B60584   1.018  24.539   6.750
 9149POPC   C3B60585   0.981  24.523   7.050
 9149POPC   C4B60586   0.944  24.535   7.350
 9150POPC   NC360587  33.782   2.028   5.550
 9150POPC   PO460588  33.758   1.995   5.850
 9150POPC   GL160589  33.775   1.974   6.150
 9150POPC   GL260590  33.867   2.074   6.150
 9150POPC   C1A60591  33.811   2.000   6.450
 9150POPC   D2A60592  33.794   1.981   6.750
 9150POPC   C3A60593  33.848   2.006   7.050
 9150POPC   C4A60594  33.794   1.975   7.350
 9150POPC   C1B60595  34.004   2.079   6.450
 9150POPC   C2B60596  34.011   2.115   6.750
 9150POPC   C3B60597  34.015   2.102   7.050
 9150POPC   C4B60598  34.032   2.125   7.350
 9151POPC   NC360599  17.516  29.966   5.550
 9151POPC   PO460600  17.531  29.959   5.850
 9151POPC   GL160601  17.517  29.965   6.150
 9151POPC   GL260602  17.536  29.831   6.150
 9151POPC   C1A60603  17.508  29.875   6.450
 9151POPC   D2A60604  17.498  29.923   6.750
 9151POPC   C3A60605  17.546  29.939   7.050
 9151POPC   C4A60606  17.517  29.968   7.350
 9151POPC   C1B60607  17.667  29.755   6.450
 9151POPC   C2B60608  17.669  29.740   6.750
 9151POPC   C3B60609  17.652  29.736   7.050
 9151POPC   C4B60610  17.625  29.752   7.350
 9152POPC   NC360611  22.949  29.890   5.550
 9152POPC   PO460612  22.947  29.887   5.850
 9152POPC   GL160613  22.975  29.936   6.150
 9152POPC   GL260614  23.070  29.968   6.150
 9152POPC   C1A60615  22.935  29.955   6.450
 9152POPC   D2A60616  22.901  29.939   6.750
 9152POPC   C3A60617  22.961  29.884   7.050
 9152POPC   C4A60618  22.951  29.969   7.350
 9152POPC   C1B60619  23.110  30.123   6.450
 9152POPC   C2B60620  23.085  30.069   6.750
 9152POPC   C3B60621  23.140  30.088   7.050
 9152POPC   C4B60622  23.110  30.046   7.350
 9153POPC   NC360623  14.378  20.564   5.550
 9153POPC   PO460624  14.376  20.614   5.850
 9153POPC   GL160625  14.379  20.649   6.150
 9153POPC   GL260626  14.525  20.705   6.150
 9153POPC   C1A60627  14.442  20.568   6.450
 9153POPC   D2A60628  14.447  20.580   6.750
 9153POPC   C3A60629  14.403  20.613   7.050
 9153POPC   C4A60630  14.452  20.625   7.350
 9153POPC   C1B60631  14.599  20.798   6.450
 9153POPC   C2B60632  14.589  20.823   6.750
 9153POPC   C3B60633  14.595  20.810   7.050
 9153POPC   C4B60634  14.613  20.753   7.350
 9154POPC   NC360635   9.729  33.024   5.550
 9154POPC   PO460636   9.795  33.029   5.850
 9154POPC   GL160637   9.736  33.066   6.150
 9154POPC   GL260638   9.802  32.850   6.150
 9154POPC   C1A60639   9.704  33.050   6.450
 9154POPC   D2A60640   9.749  33.067   6.750
 9154POPC   C3A60641   9.790  33.044   7.050
 9154POPC   C4A60642   9.727  32.982   7.350
 9154POPC   C1B60643   9.799  32.814   6.450
 9154POPC   C2B60644   9.732  32.765   6.750
 9154POPC   C3B60645   9.711  32.800   7.050
 9154POPC   C4B60646   9.802  32.734   7.350
 9155POPC   NC360647  36.160  41.515   5.550
 9155POPC   PO460648  36.168  41.587   5.850
 9155POPC   GL160649  36.136  41.529   6.150
 9155POPC   GL260650  36.116  41.688   6.150
 9155POPC   C1A60651  36.147  41.541   6.450
 9155POPC   D2A60652  36.142  41.516   6.750
 9155POPC   C3A60653  36.171  41.537   7.050
 9155POPC   C4A60654  36.099  41.605   7.350
 9155POPC   C1B60655  35.988  41.740   6.450
 9155POPC   C2B60656  36.008  41.753   6.750
 9155POPC   C3B60657  35.990  41.736   7.050
 9155POPC   C4B60658  36.027  41.781   7.350
 9156POPC   NC360659  22.132  38.485   5.550
 9156POPC   PO460660  22.126  38.503   5.850
 9156POPC   GL160661  22.145  38.440   6.150
 9156POPC   GL260662  22.305  38.464   6.150
 9156POPC   C1A60663  22.197  38.417   6.450
 9156POPC   D2A60664  22.150  38.444   6.750
 9156POPC   C3A60665  22.147  38.498   7.050
 9156POPC   C4A60666  22.142  38.440   7.350
 9156POPC   C1B60667  22.431  38.399   6.450
 9156POPC   C2B60668  22.379  38.437   6.750
 9156POPC   C3B60669  22.435  38.424   7.050
 9156POPC   C4B60670  22.407  38.381   7.350
 9157POPC   NC360671   5.120  10.508   5.550
 9157POPC   PO460672   5.043  10.491   5.850
 9157POPC   GL160673   5.078  10.542   6.150
 9157POPC   GL260674   4.986  10.582   6.150
 9157POPC   C1A60675   5.112  10.545   6.450
 9157POPC   D2A60676   5.127  10.538   6.750
 9157POPC   C3A60677   5.116  10.498   7.050
 9157POPC   C4A60678   5.052  10.542   7.350
 9157POPC   C1B60679   4.878  10.653   6.450
 9157POPC   C2B60680   4.849  10.568   6.750
 9157POPC   C3B60681   4.812  10.620   7.050
 9157POPC   C4B60682   4.858  10.578   7.350
 9158POPC   NC360683  24.454  19.815   5.550
 9158POPC   PO460684  24.494  19.797   5.850
 9158POPC   GL160685  24.440  19.873   6.150
 9158POPC   GL260686  24.379  19.838   6.150
 9158POPC   C1A60687  24.489  19.813   6.450
 9158POPC   D2A60688  24.539  19.788   6.750
 9158POPC   C3A60689  24.494  19.791   7.050
 9158POPC   C4A60690  24.480  19.824   7.350
 9158POPC   C1B60691  24.245  19.861   6.450
 9158POPC   C2B60692  24.267  19.845   6.750
 9158POPC   C3B60693  24.219  19.841   7.050
 9158POPC   C4B60694  24.247  19.847   7.350
 9159POPC   NC360695  21.426  30.700   5.550
 9159POPC   PO460696  21.342  30.684   5.850
 9159POPC   GL160697  21.387  30.682   6.150
 9159POPC   GL260698  21.252  30.658   6.150
 9159POPC   C1A60699  21.372  30.690   6.450
 9159POPC   D2A60700  21.362  30.737   6.750
 9159POPC   C3A60701  21.362  30.710   7.050
 9159POPC   C4A60702  21.379  30.746   7.350
 9159POPC   C1B60703  21.157  30.713   6.450
 9159POPC   C2B60704  21.149  30.697   6.750
 9159POPC   C3B60705  21.143  30.731   7.050
 9159POPC   C4B60706  21.167  30.710   7.350
 9160POPC   NC360707  31.452  36.104   5.550
 9160POPC   PO460708  31.474  36.142   5.850
 9160POPC   GL160709  31.423  36.167   6.150
 9160POPC   GL260710  31.377  36.138   6.150
 9160POPC   C1A60711  31.439  36.134   6.450
 9160POPC   D2A60712  31.423  36.125   6.750
 9160POPC   C3A60713  31.454  36.154   7.050
 9160POPC   C4A60714  31.430  36.142   7.350
 9160POPC   C1B60715  31.183  36.120   6.450
 9160POPC   C2B60716  31.200  36.126   6.750
 9160POPC   C3B60717  31.179  36.183   7.050
 9160POPC   C4B60718  31.260  36.155   7.350
 9161POPC   NC360719  34.623   8.219   5.550
 9161POPC   PO460720  34.565   8.203   5.850
 9161POPC   GL160721  34.578   8.214   6.150
 9161POPC   GL260722  34.434   8.157   6.150
 9161POPC   C1A60723  34.587   8.152   6.450
 9161POPC   D2A60724  34.577   8.191   6.750
 9161POPC   C3A60725  34.596   8.209   7.050
 9161POPC   C4A60726  34.561   8.178   7.350
 9161POPC   C1B60727  34.322   8.174   6.450
 9161POPC   C2B60728  34.305   8.190   6.750
 9161POPC   C3B60729  34.345   8.179   7.050
 9161POPC   C4B60730  34.351   8.168   7.350
 9162POPC   NC360731  32.261  25.297   5.550
 9162POPC   PO460732  32.289  25.286   5.850
 9162POPC   GL160733  32.220  25.301   6.150
 9162POPC   GL260734  32.351  25.305   6.150
 9162POPC   C1A60735  32.234  25.271   6.450
 9162POPC   D2A60736  32.295  25.277   6.750
 9162POPC   C3A60737  32.218  25.268   7.050
 9162POPC   C4A60738  32.297  25.276   7.350
 9162POPC   C1B60739  32.454  25.441   6.450
 9162POPC   C2B60740  32.481  25.348   6.750
 9162POPC   C3B60741  32.454  25.439   7.050
 9162POPC   C4B60742  32.501  25.390   7.350
 9163POPC   NC360743  33.064  14.354   5.550
 9163POPC   PO460744  32.987  14.391   5.850
 9163POPC   GL160745  33.068  14.444   6.150
 9163POPC   GL260746  33.093  14.319   6.150
 9163POPC   C1A60747  33.042  14.380   6.450
 9163POPC   D2A60748  32.985  14.399   6.750
 9163POPC   C3A60749  33.039  14.439   7.050
 9163POPC   C4A60750  33.052  14.370   7.350
 9163POPC   C1B60751  33.033  14.127   6.450
 9163POPC   C2B60752  33.123  14.165   6.750
 9163POPC   C3B60753  33.097  14.132   7.050
 9163POPC   C4B60754  33.054  14.178   7.350
 9164POPC   NC360755   1.210  39.228   5.550
 9164POPC   PO460756   1.214  39.259   5.850
 9164POPC   GL160757   1.252  39.195   6.150
 9164POPC   GL260758   1.321  39.288   6.150
 9164POPC   C1A60759   1.190  39.239   6.450
 9164POPC   D2A60760   1.250  39.239   6.750
 9164POPC   C3A60761   1.241  39.210   7.050
 9164POPC   C4A60762   1.179  39.227   7.350
 9164POPC   C1B60763   1.425  39.359   6.450
 9164POPC   C2B60764   1.400  39.355   6.750
 9164POPC   C3B60765   1.423  39.412   7.050
 9164POPC   C4B60766   1.404  39.430   7.350
 9165POPC   NC360767  32.249  31.429   5.550
 9165POPC   PO460768  32.206  31.431   5.850
 9165POPC   GL160769  32.234  31.469   6.150
 9165POPC   GL260770  32.189  31.579   6.150
 9165POPC   C1A60771  32.224  31.428   6.450
 9165POPC   D2A60772  32.200  31.468   6.750
 9165POPC   C3A60773  32.267  31.451   7.050
 9165POPC   C4A60774  32.260  31.518   7.350
 9165POPC   C1B60775  32.020  31.552   6.450
 9165POPC   C2B60776  32.060  31.585   6.750
 9165POPC   C3B60777  31.986  31.626   7.050
 9165POPC   C4B60778  32.067  31.557   7.350
 9166POPC   NC360779  33.006  15.944   5.550
 9166POPC   PO460780  33.034  15.972   5.850
 9166POPC   GL160781  32.975  16.005   6.150
 9166POPC   GL260782  32.900  16.017   6.150
 9166POPC   C1A60783  33.073  15.948   6.450
 9166POPC   D2A60784  32.987  15.926   6.750
 9166POPC   C3A60785  33.070  15.955   7.050
 9166POPC   C4A60786  33.074  15.952   7.350
 9166POPC   C1B60787  32.822  16.076   6.450
 9166POPC   C2B60788  32.824  16.062   6.750
 9166POPC   C3B60789  32.809  16.010   7.050
 9166POPC   C4B60790  32.748  16.025   7.350
 9167POPC   NC360791  27.595  35.313   5.550
 9167POPC   PO460792  27.633  35.385   5.850
 9167POPC   GL160793  27.632  35.368   6.150
 9167POPC   GL260794  27.760  35.391   6.150
 9167POPC   C1A60795  27.633  35.383   6.450
 9167POPC   D2A60796  27.564  35.304   6.750
 9167POPC   C3A60797  27.554  35.334   7.050
 9167POPC   C4A60798  27.626  35.362   7.350
 9167POPC   C1B60799  27.800  35.315   6.450
 9167POPC   C2B60800  27.871  35.365   6.750
 9167POPC   C3B60801  27.820  35.401   7.050
 9167POPC   C4B60802  27.861  35.332   7.350
 9168POPC   NC360803   9.767  12.074   5.550
 9168POPC   PO460804   9.732  12.038   5.850
 9168POPC   GL160805   9.776  12.034   6.150
 9168POPC   GL260806   9.825  12.113   6.150
 9168POPC   C1A60807   9.777  12.118   6.450
 9168POPC   D2A60808   9.751  12.050   6.750
 9168POPC   C3A60809   9.770  12.073   7.050
 9168POPC   C4A60810   9.712  12.053   7.350
 9168POPC   C1B60811   9.928  12.263   6.450
 9168POPC   C2B60812   9.969  12.281   6.750
 9168POPC   C3B60813   9.924  12.280   7.050
 9168POPC   C4B60814   9.956  12.289   7.350
 9169POPC   NC360815   4.365  39.198   5.550
 9169POPC   PO460816   4.296  39.279   5.850
 9169POPC   GL160817   4.327  39.198   6.150
 9169POPC   GL260818   4.207  39.138   6.150
 9169POPC   C1A60819   4.319  39.263   6.450
 9169POPC   D2A60820   4.360  39.218   6.750
 9169POPC   C3A60821   4.324  39.238   7.050
 9169POPC   C4A60822   4.300  39.183   7.350
 9169POPC   C1B60823   4.094  39.122   6.450
 9169POPC   C2B60824   4.124  39.092   6.750
 9169POPC   C3B60825   4.050  39.157   7.050
 9169POPC   C4B60826   4.131  39.147   7.350
 9170POPC   NC360827   4.329   9.712   5.550
 9170POPC   PO460828   4.347   9.712   5.850
 9170POPC   GL160829   4.281   9.698   6.150
 9170POPC   GL260830   4.338   9.608   6.150
 9170POPC   C1A60831   4.274   9.745   6.450
 9170POPC   D2A60832   4.323   9.734   6.750
 9170POPC   C3A60833   4.280   9.701   7.050
 9170POPC   C4A60834   4.279   9.759   7.350
 9170POPC   C1B60835   4.406   9.512   6.450
 9170POPC   C2B60836   4.372   9.481   6.750
 9170POPC   C3B60837   4.355   9.533   7.050
 9170POPC   C4B60838   4.424   9.481   7.350
 9171POPC   NC360839  12.812  41.531   5.550
 9171POPC   PO460840  12.803  41.601   5.850
 9171POPC   GL160841  12.806  41.580   6.150
 9171POPC   GL260842  12.800  41.471   6.150
 9171POPC   C1A60843  12.887  41.584   6.450
 9171POPC   D2A60844  12.880  41.542   6.750
 9171POPC   C3A60845  12.820  41.542   7.050
 9171POPC   C4A60846  12.859  41.551   7.350
 9171POPC   C1B60847  12.776  41.317   6.450
 9171POPC   C2B60848  12.805  41.359   6.750
 9171POPC   C3B60849  12.787  41.333   7.050
 9171POPC   C4B60850  12.789  41.345   7.350
 9172POPC   NC360851  29.891  43.933   5.550
 9172POPC   PO460852  29.871  43.918   5.850
 9172POPC   GL160853  29.966  43.880   6.150
 9172POPC   GL260854  29.912  43.986   6.150
 9172POPC   C1A60855  29.953  43.911   6.450
 9172POPC   D2A60856  29.889  43.837   6.750
 9172POPC   C3A60857  29.881  43.893   7.050
 9172POPC   C4A60858  29.925  43.879   7.350
 9172POPC   C1B60859  29.861  44.111   6.450
 9172POPC   C2B60860  29.878  44.102   6.750
 9172POPC   C3B60861  29.824  44.095   7.050
 9172POPC   C4B60862  29.868  44.161   7.350
 9173POPC   NC360863  32.277  16.726   5.550
 9173POPC   PO460864  32.267  16.712   5.850
 9173POPC   GL160865  32.236  16.749   6.150
 9173POPC   GL260866  32.301  16.819   6.150
 9173POPC   C1A60867  32.226  16.696   6.450
 9173POPC   D2A60868  32.212  16.733   6.750
 9173POPC   C3A60869  32.293  16.717   7.050
 9173POPC   C4A60870  32.217  16.725   7.350
 9173POPC   C1B60871  32.430  16.855   6.450
 9173POPC   C2B60872  32.424  16.916   6.750
 9173POPC   C3B60873  32.486  16.847   7.050
 9173POPC   C4B60874  32.490  16.890   7.350
 9174POPC   NC360875  41.535  26.072   5.550
 9174POPC   PO460876  41.579  26.046   5.850
 9174POPC   GL160877  41.585  26.015   6.150
 9174POPC   GL260878  41.577  26.155   6.150
 9174POPC   C1A60879  41.582  25.997   6.450
 9174POPC   D2A60880  41.547  26.073   6.750
 9174POPC   C3A60881  41.510  26.081   7.050
 9174POPC   C4A60882  41.519  26.071   7.350
 9174POPC   C1B60883  41.605  26.293   6.450
 9174POPC   C2B60884  41.572  26.324   6.750
 9174POPC   C3B60885  41.596  26.311   7.050
 9174POPC   C4B60886  41.563  26.294   7.350
 9175POPC   NC360887  19.090  43.897   5.550
 9175POPC   PO460888  19.076  43.879   5.850
 9175POPC   GL160889  19.049  43.928   6.150
 9175POPC   GL260890  18.973  43.867   6.150
 9175POPC   C1A60891  19.054  43.896   6.450
 9175POPC   D2A60892  19.089  43.847   6.750
 9175POPC   C3A60893  19.076  43.901   7.050
 9175POPC   C4A60894  19.018  43.845   7.350
 9175POPC   C1B60895  18.848  43.734   6.450
 9175POPC   C2B60896  18.866  43.775   6.750
 9175POPC   C3B60897  18.817  43.803   7.050
 9175POPC   C4B60898  18.830  43.822   7.350
 9176POPC   NC360899  25.314  40.052   5.550
 9176POPC   PO460900  25.228  40.015   5.850
 9176POPC   GL160901  25.283  40.043   6.150
 9176POPC   GL260902  25.377  40.059   6.150
 9176POPC   C1A60903  25.236  40.044   6.450
 9176POPC   D2A60904  25.274  39.960   6.750
 9176POPC   C3A60905  25.227  39.974   7.050
 9176POPC   C4A60906  25.227  39.995   7.350
 9176POPC   C1B60907  25.414  40.161   6.450
 9176POPC   C2B60908  25.487  40.210   6.750
 9176POPC   C3B60909  25.414  40.153   7.050
 9176POPC   C4B60910  25.460  40.222   7.350
 9177POPC   NC360911  43.095  21.402   5.550
 9177POPC   PO460912  43.061  21.398   5.850
 9177POPC   GL160913  43.140  21.384   6.150
 9177POPC   GL260914  43.186  21.503   6.150
 9177POPC   C1A60915  43.150  21.352   6.450
 9177POPC   D2A60916  43.107  21.341   6.750
 9177POPC   C3A60917  43.144  21.371   7.050
 9177POPC   C4A60918  43.073  21.345   7.350
 9177POPC   C1B60919  43.283  21.587   6.450
 9177POPC   C2B60920  43.335  21.577   6.750
 9177POPC   C3B60921  43.315  21.559   7.050
 9177POPC   C4B60922  43.346  21.539   7.350
 9178POPC   NC360923  24.473  28.385   5.550
 9178POPC   PO460924  24.522  28.340   5.850
 9178POPC   GL160925  24.519  28.326   6.150
 9178POPC   GL260926  24.322  28.398   6.150
 9178POPC   C1A60927  24.512  28.368   6.450
 9178POPC   D2A60928  24.515  28.391   6.750
 9178POPC   C3A60929  24.537  28.391   7.050
 9178POPC   C4A60930  24.479  28.382   7.350
 9178POPC   C1B60931  24.248  28.350   6.450
 9178POPC   C2B60932  24.268  28.410   6.750
 9178POPC   C3B60933  24.211  28.411   7.050
 9178POPC   C4B60934  24.252  28.394   7.350
 9179POPC   NC360935  11.288  12.123   5.550
 9179POPC   PO460936  11.326  12.114   5.850
 9179POPC   GL160937  11.259  12.080   6.150
 9179POPC   GL260938  11.420  12.034   6.150
 9179POPC   C1A60939  11.323  12.090   6.450
 9179POPC   D2A60940  11.326  12.104   6.750
 9179POPC   C3A60941  11.330  12.125   7.050
 9179POPC   C4A60942  11.308  12.094   7.350
 9179POPC   C1B60943  11.502  11.868   6.450
 9179POPC   C2B60944  11.524  11.878   6.750
 9179POPC   C3B60945  11.511  11.952   7.050
 9179POPC   C4B60946  11.474  11.910   7.350
 9180POPC   NC360947  40.000   9.765   5.550
 9180POPC   PO460948  40.026   9.798   5.850
 9180POPC   GL160949  40.008   9.718   6.150
 9180POPC   GL260950  39.980   9.605   6.150
 9180POPC   C1A60951  39.994   9.762   6.450
 9180POPC   D2A60952  39.990   9.757   6.750
 9180POPC   C3A60953  40.041   9.794   7.050
 9180POPC   C4A60954  40.028   9.796   7.350
 9180POPC   C1B60955  40.026   9.457   6.450
 9180POPC   C2B60956  39.998   9.516   6.750
 9180POPC   C3B60957  39.990   9.504   7.050
 9180POPC   C4B60958  40.000   9.456   7.350
 9181POPC   NC360959   7.444  35.335   5.550
 9181POPC   PO460960   7.376  35.392   5.850
 9181POPC   GL160961   7.380  35.365   6.150
 9181POPC   GL260962   7.430  35.270   6.150
 9181POPC   C1A60963   7.407  35.386   6.450
 9181POPC   D2A60964   7.394  35.388   6.750
 9181POPC   C3A60965   7.398  35.395   7.050
 9181POPC   C4A60966   7.411  35.371   7.350
 9181POPC   C1B60967   7.441  35.061   6.450
 9181POPC   C2B60968   7.418  35.068   6.750
 9181POPC   C3B60969   7.381  35.106   7.050
 9181POPC   C4B60970   7.402  35.074   7.350
 9182POPC   NC360971  27.566   7.459   5.550
 9182POPC   PO460972  27.581   7.431   5.850
 9182POPC   GL160973  27.547   7.451   6.150
 9182POPC   GL260974  27.621   7.272   6.150
 9182POPC   C1A60975  27.588   7.402   6.450
 9182POPC   D2A60976  27.590   7.376   6.750
 9182POPC   C3A60977  27.597   7.444   7.050
 9182POPC   C4A60978  27.569   7.463   7.350
 9182POPC   C1B60979  27.741   7.224   6.450
 9182POPC   C2B60980  27.742   7.190   6.750
 9182POPC   C3B60981  27.695   7.252   7.050
 9182POPC   C4B60982  27.746   7.204   7.350
 9183POPC   NC360983   9.766  38.443   5.550
 9183POPC   PO460984   9.746  38.482   5.850
 9183POPC   GL160985   9.742  38.455   6.150
 9183POPC   GL260986   9.830  38.315   6.150
 9183POPC   C1A60987   9.724  38.432   6.450
 9183POPC   D2A60988   9.751  38.426   6.750
 9183POPC   C3A60989   9.724  38.481   7.050
 9183POPC   C4A60990   9.704  38.501   7.350
 9183POPC   C1B60991   9.896  38.223   6.450
 9183POPC   C2B60992   9.927  38.286   6.750
 9183POPC   C3B60993   9.856  38.288   7.050
 9183POPC   C4B60994   9.859  38.225   7.350
 9184POPC   NC360995   5.823  23.739   5.550
 9184POPC   PO460996   5.845  23.670   5.850
 9184POPC   GL160997   5.869  23.667   6.150
 9184POPC   GL260998   5.920  23.597   6.150
 9184POPC   C1A60999   5.882  23.759   6.450
 9184POPC   D2A61000   5.831  23.667   6.750
 9184POPC   C3A61001   5.913  23.699   7.050
 9184POPC   C4A61002   5.822  23.728   7.350
 9184POPC   C1B61003   5.870  23.511   6.450
 9184POPC   C2B61004   5.861  23.454   6.750
 9184POPC   C3B61005   5.912  23.456   7.050
 9184POPC   C4B61006   5.915  23.515   7.350
 9185POPC   NC361007  21.374   8.938   5.550
 9185POPC   PO461008  21.417   9.001   5.850
 9185POPC   GL161009  21.398   9.006   6.150
 9185POPC   GL261010  21.493   8.991   6.150
 9185POPC   C1A61011  21.352   8.989   6.450
 9185POPC   D2A61012  21.345   8.972   6.750
 9185POPC   C3A61013  21.433   8.929   7.050
 9185POPC   C4A61014  21.382   8.978   7.350
 9185POPC   C1B61015  21.591   9.061   6.450
 9185POPC   C2B61016  21.595   9.037   6.750
 9185POPC   C3B61017  21.594   9.060   7.050
 9185POPC   C4B61018  21.611   8.998   7.350
 9186POPC   NC361019  36.174  19.047   5.550
 9186POPC   PO461020  36.086  19.043   5.850
 9186POPC   GL161021  36.096  19.053   6.150
 9186POPC   GL261022  36.186  19.146   6.150
 9186POPC   C1A61023  36.141  19.106   6.450
 9186POPC   D2A61024  36.146  19.036   6.750
 9186POPC   C3A61025  36.158  19.067   7.050
 9186POPC   C4A61026  36.096  19.054   7.350
 9186POPC   C1B61027  36.250  19.271   6.450
 9186POPC   C2B61028  36.286  19.198   6.750
 9186POPC   C3B61029  36.340  19.208   7.050
 9186POPC   C4B61030  36.253  19.207   7.350
 9187POPC   NC361031  12.807  16.696   5.550
 9187POPC   PO461032  12.889  16.761   5.850
 9187POPC   GL161033  12.871  16.713   6.150
 9187POPC   GL261034  12.915  16.841   6.150
 9187POPC   C1A61035  12.831  16.765   6.450
 9187POPC   D2A61036  12.812  16.702   6.750
 9187POPC   C3A61037  12.810  16.683   7.050
 9187POPC   C4A61038  12.815  16.698   7.350
 9187POPC   C1B61039  13.004  16.899   6.450
 9187POPC   C2B61040  12.990  16.949   6.750
 9187POPC   C3B61041  13.024  16.901   7.050
 9187POPC   C4B61042  12.996  16.952   7.350
 9188POPC   NC361043   1.945  12.070   5.550
 9188POPC   PO461044   1.996  12.111   5.850
 9188POPC   GL161045   1.958  12.071   6.150
 9188POPC   GL261046   1.964  11.949   6.150
 9188POPC   C1A61047   2.006  12.070   6.450
 9188POPC   D2A61048   1.990  12.091   6.750
 9188POPC   C3A61049   2.012  12.113   7.050
 9188POPC   C4A61050   2.033  12.054   7.350
 9188POPC   C1B61051   1.906  11.796   6.450
 9188POPC   C2B61052   1.879  11.864   6.750
 9188POPC   C3B61053   1.900  11.884   7.050
 9188POPC   C4B61054   1.910  11.820   7.350
 9189POPC   NC361055  43.879  27.623   5.550
 9189POPC   PO461056  43.885  27.596   5.850
 9189POPC   GL161057  43.925  27.588   6.150
 9189POPC   GL261058  43.895  27.483   6.150
 9189POPC   C1A61059  43.841  27.590   6.450
 9189POPC   D2A61060  43.842  27.634   6.750
 9189POPC   C3A61061  43.890  27.628   7.050
 9189POPC   C4A61062  43.892  27.592   7.350
 9189POPC   C1B61063  44.015  27.312   6.450
 9189POPC   C2B61064  44.016  27.359   6.750
 9189POPC   C3B61065  43.952  27.352   7.050
 9189POPC   C4B61066  44.009  27.410   7.350
 9190POPC   NC361067  23.734  39.203   5.550
 9190POPC   PO461068  23.753  39.210   5.850
 9190POPC   GL161069  23.748  39.236   6.150
 9190POPC   GL261070  23.617  39.199   6.150
 9190POPC   C1A61071  23.726  39.228   6.450
 9190POPC   D2A61072  23.719  39.241   6.750
 9190POPC   C3A61073  23.717  39.265   7.050
 9190POPC   C4A61074  23.728  39.273   7.350
 9190POPC   C1B61075  23.431  39.270   6.450
 9190POPC   C2B61076  23.429  39.240   6.750
 9190POPC   C3B61077  23.454  39.245   7.050
 9190POPC   C4B61078  23.463  39.197   7.350
 9191POPC   NC361079  42.314   1.965   5.550
 9191POPC   PO461080  42.359   1.998   5.850
 9191POPC   GL161081  42.360   2.034   6.150
 9191POPC   GL261082  42.268   1.855   6.150
 9191POPC   C1A61083  42.350   1.959   6.450
 9191POPC   D2A61084  42.363   1.968   6.750
 9191POPC   C3A61085  42.331   2.021   7.050
 9191POPC   C4A61086  42.307   2.030   7.350
 9191POPC   C1B61087  42.167   1.727   6.450
 9191POPC   C2B61088  42.241   1.800   6.750
 9191POPC   C3B61089  42.213   1.767   7.050
 9191POPC   C4B61090  42.234   1.794   7.350
 9192POPC   NC361091   1.239   5.862   5.550
 9192POPC   PO461092   1.211   5.882   5.850
 9192POPC   GL161093   1.166   5.883   6.150
 9192POPC   GL261094   1.204   6.034   6.150
 9192POPC   C1A61095   1.250   5.903   6.450
 9192POPC   D2A61096   1.172   5.912   6.750
 9192POPC   C3A61097   1.168   5.895   7.050
 9192POPC   C4A61098   1.169   5.842   7.350
 9192POPC   C1B61099   1.166   6.101   6.450
 9192POPC   C2B61100   1.207   6.095   6.750
 9192POPC   C3B61101   1.175   6.152   7.050
 9192POPC   C4B61102   1.138   6.142   7.350
 9193POPC   NC361103  30.717  11.342   5.550
 9193POPC   PO461104  30.668  11.289   5.850
 9193POPC   GL161105  30.687  11.284   6.150
 9193POPC   GL261106  30.736  11.219   6.150
 9193POPC   C1A61107  30.655  11.312   6.450
 9193POPC   D2A61108  30.725  11.310   6.750
 9193POPC   C3A61109  30.688  11.326   7.050
 9193POPC   C4A61110  30.679  11.258   7.350
 9193POPC   C1B61111  30.839  11.073   6.450
 9193POPC   C2B61112  30.905  11.160   6.750
 9193POPC   C3B61113  30.865  11.115   7.050
 9193POPC   C4B61114  30.852  11.109   7.350
 9194POPC   NC361115  33.847  41.566   5.550
 9194POPC   PO461116  33.809  41.600   5.850
 9194POPC   GL161117  33.840  41.595   6.150
 9194POPC   GL261118  33.786  41.652   6.150
 9194POPC   C1A61119  33.781  41.588   6.450
 9194POPC   D2A61120  33.832  41.529   6.750
 9194POPC   C3A61121  33.768  41.512   7.050
 9194POPC   C4A61122  33.783  41.592   7.350
 9194POPC   C1B61123  33.769  41.766   6.450
 9194POPC   C2B61124  33.701  41.780   6.750
 9194POPC   C3B61125  33.703  41.749   7.050
 9194POPC   C4B61126  33.747  41.764   7.350
 9195POPC   NC361127  13.622  19.070   5.550
 9195POPC   PO461128  13.672  19.061   5.850
 9195POPC   GL161129  13.594  19.088   6.150
 9195POPC   GL261130  13.471  19.073   6.150
 9195POPC   C1A61131  13.600  19.092   6.450
 9195POPC   D2A61132  13.638  19.099   6.750
 9195POPC   C3A61133  13.652  19.074   7.050
 9195POPC   C4A61134  13.606  19.097   7.350
 9195POPC   C1B61135  13.430  19.082   6.450
 9195POPC   C2B61136  13.366  19.102   6.750
 9195POPC   C3B61137  13.378  19.079   7.050
 9195POPC   C4B61138  13.379  19.097   7.350
 9196POPC   NC361139  30.682  29.185   5.550
 9196POPC   PO461140  30.743  29.103   5.850
 9196POPC   GL161141  30.649  29.111   6.150
 9196POPC   GL261142  30.679  29.237   6.150
 9196POPC   C1A61143  30.730  29.179   6.450
 9196POPC   D2A61144  30.671  29.111   6.750
 9196POPC   C3A61145  30.715  29.153   7.050
 9196POPC   C4A61146  30.659  29.141   7.350
 9196POPC   C1B61147  30.623  29.349   6.450
 9196POPC   C2B61148  30.690  29.376   6.750
 9196POPC   C3B61149  30.680  29.432   7.050
 9196POPC   C4B61150  30.680  29.404   7.350
 9197POPC   NC361151   1.949  43.840   5.550
 9197POPC   PO461152   2.032  43.936   5.850
 9197POPC   GL161153   2.038  43.900   6.150
 9197POPC   GL261154   2.006  43.966   6.150
 9197POPC   C1A61155   2.012  43.926   6.450
 9197POPC   D2A61156   2.017  43.875   6.750
 9197POPC   C3A61157   1.940  43.908   7.050
 9197POPC   C4A61158   1.982  43.911   7.350
 9197POPC   C1B61159   2.065  44.125   6.450
 9197POPC   C2B61160   2.061  44.083   6.750
 9197POPC   C3B61161   2.028  44.169   7.050
 9197POPC   C4B61162   2.078  44.157   7.350
 9198POPC   NC361163  38.425  37.644   5.550
 9198POPC   PO461164  38.446  37.653   5.850
 9198POPC   GL161165  38.502  37.686   6.150
 9198POPC   GL261166  38.536  37.818   6.150
 9198POPC   C1A61167  38.498  37.632   6.450
 9198POPC   D2A61168  38.430  37.691   6.750
 9198POPC   C3A61169  38.406  37.636   7.050
 9198POPC   C4A61170  38.424  37.681   7.350
 9198POPC   C1B61171  38.621  37.843   6.450
 9198POPC   C2B61172  38.580  37.874   6.750
 9198POPC   C3B61173  38.553  37.874   7.050
 9198POPC   C4B61174  38.561  37.920   7.350
 9199POPC   NC361175  43.837  21.338   5.550
 9199POPC   PO461176  43.933  21.404   5.850
 9199POPC   GL161177  43.899  21.362   6.150
 9199POPC   GL261178  43.774  21.332   6.150
 9199POPC   C1A61179  43.865  21.383   6.450
 9199POPC   D2A61180  43.882  21.395   6.750
 9199POPC   C3A61181  43.873  21.375   7.050
 9199POPC   C4A61182  43.899  21.361   7.350
 9199POPC   C1B61183  43.614  21.265   6.450
 9199POPC   C2B61184  43.667  21.299   6.750
 9199POPC   C3B61185  43.641  21.340   7.050
 9199POPC   C4B61186  43.621  21.341   7.350
 9200POPC   NC361187  29.125  29.148   5.550
 9200POPC   PO461188  29.106  29.192   5.850
 9200POPC   GL161189  29.182  29.169   6.150
 9200POPC   GL261190  29.318  29.096   6.150
 9200POPC   C1A61191  29.136  29.123   6.450
 9200POPC   D2A61192  29.143  29.149   6.750
 9200POPC   C3A61193  29.152  29.101   7.050
 9200POPC   C4A61194  29.145  29.110   7.350
 9200POPC   C1B61195  29.401  29.182   6.450
 9200POPC   C2B61196  29.361  29.143   6.750
 9200POPC   C3B61197  29.377  29.114   7.050
 9200POPC   C4B61198  29.381  29.092   7.350
 9201POPC   NC361199  39.254  41.603   5.550
 9201POPC   PO461200  39.251  41.536   5.850
 9201POPC   GL161201  39.239  41.558   6.150
 9201POPC   GL261202  39.346  41.478   6.150
 9201POPC   C1A61203  39.280  41.605   6.450
 9201POPC   D2A61204  39.199  41.511   6.750
 9201POPC   C3A61205  39.201  41.517   7.050
 9201POPC   C4A61206  39.275  41.556   7.350
 9201POPC   C1B61207  39.355  41.372   6.450
 9201POPC   C2B61208  39.361  41.398   6.750
 9201POPC   C3B61209  39.373  41.412   7.050
 9201POPC   C4B61210  39.406  41.350   7.350
 9202POPC   NC361211  39.246  15.135   5.550
 9202POPC   PO461212  39.215  15.159   5.850
 9202POPC   GL161213  39.183  15.164   6.150
 9202POPC   GL261214  39.130  15.130   6.150
 9202POPC   C1A61215  39.243  15.175   6.450
 9202POPC   D2A61216  39.250  15.200   6.750
 9202POPC   C3A61217  39.251  15.161   7.050
 9202POPC   C4A61218  39.265  15.174   7.350
 9202POPC   C1B61219  38.935  15.169   6.450
 9202POPC   C2B61220  39.027  15.184   6.750
 9202POPC   C3B61221  38.939  15.169   7.050
 9202POPC   C4B61222  39.005  15.183   7.350
 9203POPC   NC361223  14.385   8.969   5.550
 9203POPC   PO461224  14.388   8.970   5.850
 9203POPC   GL161225  14.438   8.994   6.150
 9203POPC   GL261226  14.278   8.898   6.150
 9203POPC   C1A61227  14.421   8.924   6.450
 9203POPC   D2A61228  14.422   9.012   6.750
 9203POPC   C3A61229  14.452   8.930   7.050
 9203POPC   C4A61230  14.404   9.011   7.350
 9203POPC   C1B61231  14.242   8.845   6.450
 9203POPC   C2B61232  14.178   8.760   6.750
 9203POPC   C3B61233  14.210   8.803   7.050
 9203POPC   C4B61234  14.188   8.793   7.350
 9204POPC   NC361235  22.982   2.769   5.550
 9204POPC   PO461236  22.901   2.797   5.850
 9204POPC   GL161237  22.900   2.795   6.150
 9204POPC   GL261238  22.870   2.885   6.150
 9204POPC   C1A61239  22.974   2.733   6.450
 9204POPC   D2A61240  22.947   2.801   6.750
 9204POPC   C3A61241  22.939   2.795   7.050
 9204POPC   C4A61242  22.896   2.747   7.350
 9204POPC   C1B61243  22.857   3.043   6.450
 9204POPC   C2B61244  22.850   2.964   6.750
 9204POPC   C3B61245  22.850   2.989   7.050
 9204POPC   C4B61246  22.851   3.046   7.350
 9205POPC   NC361247   1.176   4.291   5.550
 9205POPC   PO461248   1.199   4.289   5.850
 9205POPC   GL161249   1.198   4.337   6.150
 9205POPC   GL261250   1.135   4.178   6.150
 9205POPC   C1A61251   1.203   4.306   6.450
 9205POPC   D2A61252   1.166   4.312   6.750
 9205POPC   C3A61253   1.205   4.334   7.050
 9205POPC   C4A61254   1.256   4.330   7.350
 9205POPC   C1B61255   1.021   4.107   6.450
 9205POPC   C2B61256   1.069   4.123   6.750
 9205POPC   C3B61257   1.089   4.151   7.050
 9205POPC   C4B61258   1.064   4.146   7.350
 9206POPC   NC361259   9.784  33.757   5.550
 9206POPC   PO461260   9.783  33.815   5.850
 9206POPC   GL161261   9.715  33.844   6.150
 9206POPC   GL261262   9.845  33.813   6.150
 9206POPC   C1A61263   9.699  33.827   6.450
 9206POPC   D2A61264   9.791  33.769   6.750
 9206POPC   C3A61265   9.713  33.833   7.050
 9206POPC   C4A61266   9.756  33.788   7.350
 9206POPC   C1B61267   9.993  33.786   6.450
 9206POPC   C2B61268  10.015  33.820   6.750
 9206POPC   C3B61269   9.963  33.778   7.050
 9206POPC   C4B61270  10.020  33.810   7.350
 9207POPC   NC361271  25.996  27.589   5.550
 9207POPC   PO461272  26.002  27.624   5.850
 9207POPC   GL161273  26.021  27.616   6.150
 9207POPC   GL261274  26.075  27.693   6.150
 9207POPC   C1A61275  26.035  27.642   6.450
 9207POPC   D2A61276  26.038  27.624   6.750
 9207POPC   C3A61277  26.057  27.572   7.050
 9207POPC   C4A61278  26.050  27.560   7.350
 9207POPC   C1B61279  26.166  27.788   6.450
 9207POPC   C2B61280  26.198  27.781   6.750
 9207POPC   C3B61281  26.133  27.794   7.050
 9207POPC   C4B61282  26.121  27.779   7.350
 9208POPC   NC361283  35.306  43.128   5.550
 9208POPC   PO461284  35.381  43.096   5.850
 9208POPC   GL161285  35.352  43.082   6.150
 9208POPC   GL261286  35.411  43.075   6.150
 9208POPC   C1A61287  35.372  43.122   6.450
 9208POPC   D2A61288  35.358  43.152   6.750
 9208POPC   C3A61289  35.373  43.144   7.050
 9208POPC   C4A61290  35.331  43.120   7.350
 9208POPC   C1B61291  35.530  42.941   6.450
 9208POPC   C2B61292  35.536  42.947   6.750
 9208POPC   C3B61293  35.568  42.998   7.050
 9208POPC   C4B61294  35.525  42.970   7.350
 9209POPC   NC361295  25.274  12.095   5.550
 9209POPC   PO461296  25.251  12.104   5.850
 9209POPC   GL161297  25.310  12.037   6.150
 9209POPC   GL261298  25.363  12.050   6.150
 9209POPC   C1A61299  25.227  12.082   6.450
 9209POPC   D2A61300  25.290  12.115   6.750
 9209POPC   C3A61301  25.241  12.061   7.050
 9209POPC   C4A61302  25.301  12.032   7.350
 9209POPC   C1B61303  25.536  11.980   6.450
 9209POPC   C2B61304  25.514  12.055   6.750
 9209POPC   C3B61305  25.554  12.061   7.050
 9209POPC   C4B61306  25.503  12.009   7.350
 9210POPC   NC361307  15.198  37.690   5.550
 9210POPC   PO461308  15.165  37.681   5.850
 9210POPC   GL161309  15.224  37.664   6.150
 9210POPC   GL261310  15.260  37.800   6.150
 9210POPC   C1A61311  15.216  37.712   6.450
 9210POPC   D2A61312  15.145  37.689   6.750
 9210POPC   C3A61313  15.142  37.710   7.050
 9210POPC   C4A61314  15.216  37.716   7.350
 9210POPC   C1B61315  15.314  37.910   6.450
 9210POPC   C2B61316  15.284  37.904   6.750
 9210POPC   C3B61317  15.336  37.867   7.050
 9210POPC   C4B61318  15.279  37.901   7.350
 9211POPC   NC361319  30.691  19.831   5.550
 9211POPC   PO461320  30.667  19.827   5.850
 9211POPC   GL161321  30.687  19.830   6.150
 9211POPC   GL261322  30.626  19.907   6.150
 9211POPC   C1A61323  30.736  19.864   6.450
 9211POPC   D2A61324  30.743  19.834   6.750
 9211POPC   C3A61325  30.727  19.801   7.050
 9211POPC   C4A61326  30.725  19.811   7.350
 9211POPC   C1B61327  30.479  19.892   6.450
 9211POPC   C2B61328  30.474  19.929   6.750
 9211POPC   C3B61329  30.472  19.895   7.050
 9211POPC   C4B61330  30.475  19.928   7.350
 9212POPC   NC361331   9.017   8.165   5.550
 9212POPC   PO461332   8.951   8.189   5.850
 9212POPC   GL161333   9.014   8.208   6.150
 9212POPC   GL261334   8.832   8.223   6.150
 9212POPC   C1A61335   8.947   8.231   6.450
 9212POPC   D2A61336   8.934   8.174   6.750
 9212POPC   C3A61337   8.941   8.192   7.050
 9212POPC   C4A61338   8.991   8.177   7.350
 9212POPC   C1B61339   8.737   8.152   6.450
 9212POPC   C2B61340   8.745   8.180   6.750
 9212POPC   C3B61341   8.688   8.249   7.050
 9212POPC   C4B61342   8.721   8.157   7.350
 9213POPC   NC361343  37.724  13.592   5.550
 9213POPC   PO461344  37.648  13.618   5.850
 9213POPC   GL161345  37.668  13.604   6.150
 9213POPC   GL261346  37.756  13.555   6.150
 9213POPC   C1A61347  37.630  13.665   6.450
 9213POPC   D2A61348  37.651  13.638   6.750
 9213POPC   C3A61349  37.691  13.622   7.050
 9213POPC   C4A61350  37.678  13.609   7.350
 9213POPC   C1B61351  37.840  13.377   6.450
 9213POPC   C2B61352  37.806  13.363   6.750
 9213POPC   C3B61353  37.820  13.453   7.050
 9213POPC   C4B61354  37.756  13.387   7.350
 9214POPC   NC361355  15.220  26.053   5.550
 9214POPC   PO461356  15.223  26.008   5.850
 9214POPC   GL161357  15.172  26.004   6.150
 9214POPC   GL261358  15.167  26.201   6.150
 9214POPC   C1A61359  15.193  26.052   6.450
 9214POPC   D2A61360  15.143  26.049   6.750
 9214POPC   C3A61361  15.134  26.083   7.050
 9214POPC   C4A61362  15.184  26.086   7.350
 9214POPC   C1B61363  15.110  26.324   6.450
 9214POPC   C2B61364  15.195  26.315   6.750
 9214POPC   C3B61365  15.154  26.303   7.050
 9214POPC   C4B61366  15.119  26.296   7.350
 9215POPC   NC361367  35.392  10.534   5.550
 9215POPC   PO461368  35.312  10.531   5.850
 9215POPC   GL161369  35.396  10.494   6.150
 9215POPC   GL261370  35.519  10.558   6.150
 9215POPC   C1A61371  35.356  10.548   6.450
 9215POPC   D2A61372  35.391  10.502   6.750
 9215POPC   C3A61373  35.350  10.484   7.050
 9215POPC   C4A61374  35.352  10.503   7.350
 9215POPC   C1B61375  35.610  10.599   6.450
 9215POPC   C2B61376  35.592  10.627   6.750
 9215POPC   C3B61377  35.571  10.598   7.050
 9215POPC   C4B61378  35.563  10.580   7.350
 9216POPC   NC361379  19.036   5.840   5.550
 9216POPC   PO461380  19.041   5.867   5.850
 9216POPC   GL161381  19.057   5.903   6.150
 9216POPC   GL261382  18.930   5.775   6.150
 9216POPC   C1A61383  19.099   5.901   6.450
 9216POPC   D2A61384  19.025   5.885   6.750
 9216POPC   C3A61385  19.089   5.843   7.050
 9216POPC   C4A61386  19.052   5.873   7.350
 9216POPC   C1B61387  18.836   5.685   6.450
 9216POPC   C2B61388  18.866   5.688   6.750
 9216POPC   C3B61389  18.909   5.683   7.050
 9216POPC   C4B61390  18.881   5.716   7.350
 9217POPC   NC361391  22.114  22.198   5.550
 9217POPC   PO461392  22.169  22.194   5.850
 9217POPC   GL161393  22.182  22.169   6.150
 9217POPC   GL261394  22.232  22.307   6.150
 9217POPC   C1A61395  22.141  22.196   6.450
 9217POPC   D2A61396  22.167  22.179   6.750
 9217POPC   C3A61397  22.154  22.196   7.050
 9217POPC   C4A61398  22.198  22.123   7.350
 9217POPC   C1B61399  22.253  22.335   6.450
 9217POPC   C2B61400  22.316  22.376   6.750
 9217POPC   C3B61401  22.243  22.380   7.050
 9217POPC   C4B61402  22.247  22.431   7.350
 9218POPC   NC361403   6.691  29.126   5.550
 9218POPC   PO461404   6.620  29.136   5.850
 9218POPC   GL161405   6.625  29.159   6.150
 9218POPC   GL261406   6.544  28.997   6.150
 9218POPC   C1A61407   6.638  29.134   6.450
 9218POPC   D2A61408   6.608  29.130   6.750
 9218POPC   C3A61409   6.673  29.158   7.050
 9218POPC   C4A61410   6.598  29.113   7.350
 9218POPC   C1B61411   6.562  28.952   6.450
 9218POPC   C2B61412   6.491  28.916   6.750
 9218POPC   C3B61413   6.520  28.899   7.050
 9218POPC   C4B61414   6.500  28.881   7.350
 9219POPC   NC361415   2.807   6.691   5.550
 9219POPC   PO461416   2.799   6.679   5.850
 9219POPC   GL161417   2.780   6.653   6.150
 9219POPC   GL261418   2.635   6.612   6.150
 9219POPC   C1A61419   2.813   6.619   6.450
 9219POPC   D2A61420   2.775   6.623   6.750
 9219POPC   C3A61421   2.805   6.669   7.050
 9219POPC   C4A61422   2.717   6.688   7.350
 9219POPC   C1B61423   2.555   6.520   6.450
 9219POPC   C2B61424   2.583   6.501   6.750
 9219POPC   C3B61425   2.587   6.514   7.050
 9219POPC   C4B61426   2.556   6.520   7.350
 9220POPC   NC361427   1.212   2.009   5.550
 9220POPC   PO461428   1.224   1.949   5.850
 9220POPC   GL161429   1.255   1.943   6.150
 9220POPC   GL261430   1.335   2.066   6.150
 9220POPC   C1A61431   1.223   1.940   6.450
 9220POPC   D2A61432   1.214   1.945   6.750
 9220POPC   C3A61433   1.173   1.972   7.050
 9220POPC   C4A61434   1.227   1.964   7.350
 9220POPC   C1B61435   1.460   2.108   6.450
 9220POPC   C2B61436   1.485   2.039   6.750
 9220POPC   C3B61437   1.480   2.051   7.050
 9220POPC   C4B61438   1.407   2.024   7.350
 9221POPC   NC361439  18.322  43.112   5.550
 9221POPC   PO461440  18.327  43.077   5.850
 9221POPC   GL161441  18.252  43.068   6.150
 9221POPC   GL261442  18.344  43.001   6.150
 9221POPC   C1A61443  18.292  43.076   6.450
 9221POPC   D2A61444  18.276  43.071   6.750
 9221POPC   C3A61445  18.293  43.107   7.050
 9221POPC   C4A61446  18.316  43.071   7.350
 9221POPC   C1B61447  18.445  42.955   6.450
 9221POPC   C2B61448  18.438  42.932   6.750
 9221POPC   C3B61449  18.424  42.984   7.050
 9221POPC   C4B61450  18.515  42.956   7.350
 9222POPC   NC361451  42.316  24.534   5.550
 9222POPC   PO461452  42.296  24.460   5.850
 9222POPC   GL161453  42.297  24.498   6.150
 9222POPC   GL261454  42.248  24.532   6.150
 9222POPC   C1A61455  42.371  24.498   6.450
 9222POPC   D2A61456  42.313  24.490   6.750
 9222POPC   C3A61457  42.381  24.463   7.050
 9222POPC   C4A61458  42.358  24.504   7.350
 9222POPC   C1B61459  42.130  24.463   6.450
 9222POPC   C2B61460  42.112  24.489   6.750
 9222POPC   C3B61461  42.119  24.496   7.050
 9222POPC   C4B61462  42.111  24.472   7.350
 9223POPC   NC361463  41.540  15.141   5.550
 9223POPC   PO461464  41.537  15.192   5.850
 9223POPC   GL161465  41.545  15.131   6.150
 9223POPC   GL261466  41.643  15.321   6.150
 9223POPC   C1A61467  41.541  15.160   6.450
 9223POPC   D2A61468  41.545  15.151   6.750
 9223POPC   C3A61469  41.583  15.134   7.050
 9223POPC   C4A61470  41.554  15.152   7.350
 9223POPC   C1B61471  41.716  15.405   6.450
 9223POPC   C2B61472  41.692  15.343   6.750
 9223POPC   C3B61473  41.671  15.389   7.050
 9223POPC   C4B61474  41.703  15.410   7.350
 9224POPC   NC361475   9.759  21.385   5.550
 9224POPC   PO461476   9.778  21.390   5.850
 9224POPC   GL161477   9.758  21.349   6.150
 9224POPC   GL261478   9.648  21.317   6.150
 9224POPC   C1A61479   9.791  21.409   6.450
 9224POPC   D2A61480   9.713  21.373   6.750
 9224POPC   C3A61481   9.777  21.390   7.050
 9224POPC   C4A61482   9.788  21.347   7.350
 9224POPC   C1B61483   9.543  21.166   6.450
 9224POPC   C2B61484   9.549  21.214   6.750
 9224POPC   C3B61485   9.576  21.216   7.050
 9224POPC   C4B61486   9.530  21.252   7.350
 9225POPC   NC361487   0.452  29.147   5.550
 9225POPC   PO461488   0.404  29.169   5.850
 9225POPC   GL161489   0.480  29.110   6.150
 9225POPC   GL261490   0.570  29.058   6.150
 9225POPC   C1A61491   0.438  29.123   6.450
 9225POPC   D2A61492   0.473  29.140   6.750
 9225POPC   C3A61493   0.405  29.167   7.050
 9225POPC   C4A61494   0.438  29.115   7.350
 9225POPC   C1B61495   0.696  29.056   6.450
 9225POPC   C2B61496   0.631  29.064   6.750
 9225POPC   C3B61497   0.647  29.072   7.050
 9225POPC   C4B61498   0.626  28.986   7.350
 9226POPC   NC361499  17.488   3.562   5.550
 9226POPC   PO461500  17.520   3.574   5.850
 9226POPC   GL161501  17.482   3.570   6.150
 9226POPC   GL261502  17.340   3.494   6.150
 9226POPC   C1A61503  17.555   3.574   6.450
 9226POPC   D2A61504  17.492   3.497   6.750
 9226POPC   C3A61505  17.540   3.515   7.050
 9226POPC   C4A61506  17.475   3.525   7.350
 9226POPC   C1B61507  17.307   3.476   6.450
 9226POPC   C2B61508  17.221   3.528   6.750
 9226POPC   C3B61509  17.267   3.462   7.050
 9226POPC   C4B61510  17.221   3.498   7.350
 9227POPC   NC361511  27.588   6.670   5.550
 9227POPC   PO461512  27.608   6.636   5.850
 9227POPC   GL161513  27.620   6.695   6.150
 9227POPC   GL261514  27.623   6.542   6.150
 9227POPC   C1A61515  27.587   6.662   6.450
 9227POPC   D2A61516  27.576   6.654   6.750
 9227POPC   C3A61517  27.605   6.637   7.050
 9227POPC   C4A61518  27.561   6.614   7.350
 9227POPC   C1B61519  27.768   6.476   6.450
 9227POPC   C2B61520  27.715   6.444   6.750
 9227POPC   C3B61521  27.760   6.436   7.050
 9227POPC   C4B61522  27.709   6.391   7.350
 9228POPC   NC361523  22.892   0.468   5.550
 9228POPC   PO461524  22.898   0.431   5.850
 9228POPC   GL161525  22.897   0.468   6.150
 9228POPC   GL261526  22.882   0.326   6.150
 9228POPC   C1A61527  22.920   0.406   6.450
 9228POPC   D2A61528  22.905   0.477   6.750
 9228POPC   C3A61529  22.898   0.461   7.050
 9228POPC   C4A61530  22.903   0.481   7.350
 9228POPC   C1B61531  22.875   0.154   6.450
 9228POPC   C2B61532  22.892   0.227   6.750
 9228POPC   C3B61533  22.814   0.218   7.050
 9228POPC   C4B61534  22.906   0.214   7.350
 9229POPC   NC361535  44.690   1.215   5.550
 9229POPC   PO461536  44.648   1.254   5.850
 9229POPC   GL161537  44.670   1.249   6.150
 9229POPC   GL261538  44.748   1.189   6.150
 9229POPC   C1A61539  44.614   1.215   6.450
 9229POPC   D2A61540  44.612   1.224   6.750
 9229POPC   C3A61541  44.675   1.178   7.050
 9229POPC   C4A61542  44.668   1.202   7.350
 9229POPC   C1B61543  44.933   1.095   6.450
 9229POPC   C2B61544  44.906   1.126   6.750
 9229POPC   C3B61545  44.882   1.122   7.050
 9229POPC   C4B61546  44.881   1.180   7.350
 9230POPC   NC361547  26.818   0.396   5.550
 9230POPC   PO461548  26.834   0.396   5.850
 9230POPC   GL161549  26.784   0.483   6.150
 9230POPC   GL261550  26.856   0.353   6.150
 9230POPC   C1A61551  26.798   0.463   6.450
 9230POPC   D2A61552  26.771   0.460   6.750
 9230POPC   C3A61553  26.770   0.471   7.050
 9230POPC   C4A61554  26.784   0.453   7.350
 9230POPC   C1B61555  27.011   0.238   6.450
 9230POPC   C2B61556  26.963   0.209   6.750
 9230POPC   C3B61557  26.963   0.280   7.050
 9230POPC   C4B61558  26.965   0.221   7.350
 9231POPC   NC361559  30.707  34.595   5.550
 9231POPC   PO461560  30.721  34.563   5.850
 9231POPC   GL161561  30.673  34.588   6.150
 9231POPC   GL261562  30.749  34.432   6.150
 9231POPC   C1A61563  30.738  34.597   6.450
 9231POPC   D2A61564  30.649  34.625   6.750
 9231POPC   C3A61565  30.681  34.618   7.050
 9231POPC   C4A61566  30.703  34.526   7.350
 9231POPC   C1B61567  30.714  34.326   6.450
 9231POPC   C2B61568  30.802  34.348   6.750
 9231POPC   C3B61569  30.724  34.292   7.050
 9231POPC   C4B61570  30.803  34.290   7.350
 9232POPC   NC361571  10.487  32.263   5.550
 9232POPC   PO461572  10.551  32.286   5.850
 9232POPC   GL161573  10.520  32.202   6.150
 9232POPC   GL261574  10.645  32.107   6.150
 9232POPC   C1A61575  10.542  32.263   6.450
 9232POPC   D2A61576  10.482  32.204   6.750
 9232POPC   C3A61577  10.505  32.231   7.050
 9232POPC   C4A61578  10.510  32.240   7.350
 9232POPC   C1B61579  10.715  32.063   6.450
 9232POPC   C2B61580  10.646  32.090   6.750
 9232POPC   C3B61581  10.712  32.035   7.050
 9232POPC   C4B61582  10.701  32.086   7.350
 9233POPC   NC361583  28.397  43.914   5.550
 9233POPC   PO461584  28.354  43.913   5.850
 9233POPC   GL161585  28.390  43.843   6.150
 9233POPC   GL261586  28.484  43.929   6.150
 9233POPC   C1A61587  28.336  43.927   6.450
 9233POPC   D2A61588  28.417  43.911   6.750
 9233POPC   C3A61589  28.390  43.902   7.050
 9233POPC   C4A61590  28.319  43.877   7.350
 9233POPC   C1B61591  28.604  43.859   6.450
 9233POPC   C2B61592  28.608  43.934   6.750
 9233POPC   C3B61593  28.595  43.855   7.050
 9233POPC   C4B61594  28.657  43.938   7.350
 9234POPC   NC361595  23.720   4.328   5.550
 9234POPC   PO461596  23.759   4.330   5.850
 9234POPC   GL161597  23.762   4.365   6.150
 9234POPC   GL261598  23.714   4.164   6.150
 9234POPC   C1A61599  23.746   4.358   6.450
 9234POPC   D2A61600  23.745   4.346   6.750
 9234POPC   C3A61601  23.692   4.331   7.050
 9234POPC   C4A61602  23.740   4.346   7.350
 9234POPC   C1B61603  23.704   4.075   6.450
 9234POPC   C2B61604  23.743   4.086   6.750
 9234POPC   C3B61605  23.698   4.101   7.050
 9234POPC   C4B61606  23.723   4.069   7.350
 9235POPC   NC361607  22.173  40.747   5.550
 9235POPC   PO461608  22.160  40.793   5.850
 9235POPC   GL161609  22.161  40.773   6.150
 9235POPC   GL261610  22.324  40.794   6.150
 9235POPC   C1A61611  22.208  40.734   6.450
 9235POPC   D2A61612  22.197  40.737   6.750
 9235POPC   C3A61613  22.132  40.822   7.050
 9235POPC   C4A61614  22.160  40.785   7.350
 9235POPC   C1B61615  22.460  40.730   6.450
 9235POPC   C2B61616  22.411  40.819   6.750
 9235POPC   C3B61617  22.453  40.813   7.050
 9235POPC   C4B61618  22.419  40.728   7.350
 9236POPC   NC361619  44.620   5.876   5.550
 9236POPC   PO461620  44.652   5.881   5.850
 9236POPC   GL161621  44.638   5.896   6.150
 9236POPC   GL261622  44.792   5.889   6.150
 9236POPC   C1A61623  44.625   5.902   6.450
 9236POPC   D2A61624  44.673   5.897   6.750
 9236POPC   C3A61625  44.650   5.896   7.050
 9236POPC   C4A61626  44.615   5.887   7.350
 9236POPC   C1B61627  44.877   5.917   6.450
 9236POPC   C2B61628  44.915   5.939   6.750
 9236POPC   C3B61629  44.874   5.907   7.050
 9236POPC   C4B61630  44.936   5.911   7.350
 9237POPC   NC361631  36.108   2.732   5.550
 9237POPC   PO461632  36.162   2.729   5.850
 9237POPC   GL161633  36.112   2.782   6.150
 9237POPC   GL261634  36.149   2.685   6.150
 9237POPC   C1A61635  36.100   2.800   6.450
 9237POPC   D2A61636  36.157   2.761   6.750
 9237POPC   C3A61637  36.098   2.799   7.050
 9237POPC   C4A61638  36.096   2.776   7.350
 9237POPC   C1B61639  36.270   2.504   6.450
 9237POPC   C2B61640  36.305   2.528   6.750
 9237POPC   C3B61641  36.281   2.588   7.050
 9237POPC   C4B61642  36.233   2.509   7.350
 9238POPC   NC361643  44.662  43.868   5.550
 9238POPC   PO461644  44.696  43.929   5.850
 9238POPC   GL161645  44.665  43.928   6.150
 9238POPC   GL261646  44.728  43.975   6.150
 9238POPC   C1A61647  44.652  43.930   6.450
 9238POPC   D2A61648  44.682  43.894   6.750
 9238POPC   C3A61649  44.683  43.855   7.050
 9238POPC   C4A61650  44.658  43.924   7.350
 9238POPC   C1B61651  44.841  44.072   6.450
 9238POPC   C2B61652  44.844  44.094   6.750
 9238POPC   C3B61653  44.806  44.040   7.050
 9238POPC   C4B61654  44.896  44.051   7.350
 9239POPC   NC361655   5.081  33.012   5.550
 9239POPC   PO461656   5.050  33.071   5.850
 9239POPC   GL161657   5.073  33.009   6.150
 9239POPC   GL261658   5.072  32.894   6.150
 9239POPC   C1A61659   5.128  33.054   6.450
 9239POPC   D2A61660   5.111  32.976   6.750
 9239POPC   C3A61661   5.054  32.985   7.050
 9239POPC   C4A61662   5.086  33.063   7.350
 9239POPC   C1B61663   5.016  32.768   6.450
 9239POPC   C2B61664   5.042  32.776   6.750
 9239POPC   C3B61665   5.039  32.776   7.050
 9239POPC   C4B61666   5.074  32.783   7.350
 9240POPC   NC361667  12.111  41.554   5.550
 9240POPC   PO461668  12.079  41.574   5.850
 9240POPC   GL161669  12.040  41.541   6.150
 9240POPC   GL261670  12.033  41.461   6.150
 9240POPC   C1A61671  12.073  41.608   6.450
 9240POPC   D2A61672  12.064  41.584   6.750
 9240POPC   C3A61673  12.073  41.515   7.050
 9240POPC   C4A61674  12.068  41.597   7.350
 9240POPC   C1B61675  11.975  41.367   6.450
 9240POPC   C2B61676  12.006  41.302   6.750
 9240POPC   C3B61677  11.948  41.304   7.050
 9240POPC   C4B61678  11.927  41.385   7.350
 9241POPC   NC361679  12.867  36.879   5.550
 9241POPC   PO461680  12.817  36.855   5.850
 9241POPC   GL161681  12.831  36.917   6.150
 9241POPC   GL261682  12.735  36.904   6.150
 9241POPC   C1A61683  12.895  36.864   6.450
 9241POPC   D2A61684  12.902  36.891   6.750
 9241POPC   C3A61685  12.895  36.873   7.050
 9241POPC   C4A61686  12.897  36.942   7.350
 9241POPC   C1B61687  12.573  36.843   6.450
 9241POPC   C2B61688  12.590  36.818   6.750
 9241POPC   C3B61689  12.580  36.826   7.050
 9241POPC   C4B61690  12.606  36.819   7.350
 9242POPC   NC361691  12.873  34.533   5.550
 9242POPC   PO461692  12.853  34.529   5.850
 9242POPC   GL161693  12.867  34.596   6.150
 9242POPC   GL261694  12.722  34.508   6.150
 9242POPC   C1A61695  12.851  34.537   6.450
 9242POPC   D2A61696  12.806  34.565   6.750
 9242POPC   C3A61697  12.858  34.563   7.050
 9242POPC   C4A61698  12.807  34.543   7.350
 9242POPC   C1B61699  12.626  34.358   6.450
 9242POPC   C2B61700  12.638  34.415   6.750
 9242POPC   C3B61701  12.647  34.451   7.050
 9242POPC   C4B61702  12.693  34.384   7.350
 9243POPC   NC361703  19.059  25.315   5.550
 9243POPC   PO461704  19.032  25.234   5.850
 9243POPC   GL161705  19.093  25.293   6.150
 9243POPC   GL261706  19.114  25.136   6.150
 9243POPC   C1A61707  19.099  25.296   6.450
 9243POPC   D2A61708  19.079  25.276   6.750
 9243POPC   C3A61709  19.080  25.258   7.050
 9243POPC   C4A61710  19.061  25.227   7.350
 9243POPC   C1B61711  19.106  25.016   6.450
 9243POPC   C2B61712  19.087  25.044   6.750
 9243POPC   C3B61713  19.173  25.061   7.050
 9243POPC   C4B61714  19.088  24.980   7.350
 9244POPC   NC361715  43.931   3.590   5.550
 9244POPC   PO461716  43.885   3.504   5.850
 9244POPC   GL161717  43.913   3.565   6.150
 9244POPC   GL261718  43.928   3.684   6.150
 9244POPC   C1A61719  43.891   3.523   6.450
 9244POPC   D2A61720  43.932   3.560   6.750
 9244POPC   C3A61721  43.871   3.515   7.050
 9244POPC   C4A61722  43.850   3.504   7.350
 9244POPC   C1B61723  43.951   3.740   6.450
 9244POPC   C2B61724  43.901   3.835   6.750
 9244POPC   C3B61725  43.949   3.775   7.050
 9244POPC   C4B61726  43.930   3.741   7.350
 9245POPC   NC361727  37.633  15.995   5.550
 9245POPC   PO461728  37.726  15.935   5.850
 9245POPC   GL161729  37.645  15.965   6.150
 9245POPC   GL261730  37.742  15.868   6.150
 9245POPC   C1A61731  37.687  15.912   6.450
 9245POPC   D2A61732  37.715  15.918   6.750
 9245POPC   C3A61733  37.716  16.002   7.050
 9245POPC   C4A61734  37.634  15.917   7.350
 9245POPC   C1B61735  37.713  15.682   6.450
 9245POPC   C2B61736  37.691  15.750   6.750
 9245POPC   C3B61737  37.749  15.727   7.050
 9245POPC   C4B61738  37.722  15.691   7.350
 9246POPC   NC361739   9.787  22.134   5.550
 9246POPC   PO461740   9.715  22.131   5.850
 9246POPC   GL161741   9.793  22.128   6.150
 9246POPC   GL261742   9.634  22.296   6.150
 9246POPC   C1A61743   9.754  22.205   6.450
 9246POPC   D2A61744   9.758  22.120   6.750
 9246POPC   C3A61745   9.778  22.212   7.050
 9246POPC   C4A61746   9.717  22.190   7.350
 9246POPC   C1B61747   9.557  22.356   6.450
 9246POPC   C2B61748   9.559  22.381   6.750
 9246POPC   C3B61749   9.576  22.318   7.050
 9246POPC   C4B61750   9.581  22.354   7.350
 9247POPC   NC361751  43.860   2.720   5.550
 9247POPC   PO461752  43.876   2.749   5.850
 9247POPC   GL161753  43.915   2.722   6.150
 9247POPC   GL261754  43.801   2.799   6.150
 9247POPC   C1A61755  43.859   2.726   6.450
 9247POPC   D2A61756  43.872   2.763   6.750
 9247POPC   C3A61757  43.908   2.805   7.050
 9247POPC   C4A61758  43.872   2.781   7.350
 9247POPC   C1B61759  43.700   2.906   6.450
 9247POPC   C2B61760  43.698   2.848   6.750
 9247POPC   C3B61761  43.606   2.868   7.050
 9247POPC   C4B61762  43.614   2.856   7.350
 9248POPC   NC361763  41.580  23.722   5.550
 9248POPC   PO461764  41.584  23.738   5.850
 9248POPC   GL161765  41.519  23.709   6.150
 9248POPC   GL261766  41.676  23.828   6.150
 9248POPC   C1A61767  41.585  23.737   6.450
 9248POPC   D2A61768  41.587  23.668   6.750
 9248POPC   C3A61769  41.519  23.746   7.050
 9248POPC   C4A61770  41.605  23.704   7.350
 9248POPC   C1B61771  41.751  23.839   6.450
 9248POPC   C2B61772  41.728  23.889   6.750
 9248POPC   C3B61773  41.723  23.812   7.050
 9248POPC   C4B61774  41.815  23.887   7.350
 9249POPC   NC361775  15.199  15.980   5.550
 9249POPC   PO461776  15.204  15.914   5.850
 9249POPC   GL161777  15.149  15.963   6.150
 9249POPC   GL261778  15.278  15.924   6.150
 9249POPC   C1A61779  15.229  15.967   6.450
 9249POPC   D2A61780  15.216  15.934   6.750
 9249POPC   C3A61781  15.163  15.926   7.050
 9249POPC   C4A61782  15.221  15.926   7.350
 9249POPC   C1B61783  15.419  15.893   6.450
 9249POPC   C2B61784  15.454  15.824   6.750
 9249POPC   C3B61785  15.399  15.851   7.050
 9249POPC   C4B61786  15.399  15.887   7.350
 9250POPC   NC361787   2.717  11.331   5.550
 9250POPC   PO461788   2.769  11.327   5.850
 9250POPC   GL161789   2.776  11.292   6.150
 9250POPC   GL261790   2.888  11.344   6.150
 9250POPC   C1A61791   2.764  11.349   6.450
 9250POPC   D2A61792   2.743  11.278   6.750
 9250POPC   C3A61793   2.741  11.349   7.050
 9250POPC   C4A61794   2.805  11.310   7.350
 9250POPC   C1B61795   3.011  11.349   6.450
 9250POPC   C2B61796   3.010  11.369   6.750
 9250POPC   C3B61797   3.000  11.353   7.050
 9250POPC   C4B61798   3.002  11.314   7.350
 9251POPC   NC361799  22.960   1.976   5.550
 9251POPC   PO461800  22.909   2.014   5.850
 9251POPC   GL161801  22.952   1.949   6.150
 9251POPC   GL261802  23.089   2.059   6.150
 9251POPC   C1A61803  22.950   2.003   6.450
 9251POPC   D2A61804  22.952   1.998   6.750
 9251POPC   C3A61805  22.949   1.988   7.050
 9251POPC   C4A61806  22.915   1.970   7.350
 9251POPC   C1B61807  23.186   2.084   6.450
 9251POPC   C2B61808  23.127   2.049   6.750
 9251POPC   C3B61809  23.209   2.145   7.050
 9251POPC   C4B61810  23.156   2.126   7.350
 9252POPC   NC361811   2.027  16.752   5.550
 9252POPC   PO461812   2.001  16.709   5.850
 9252POPC   GL161813   2.035  16.749   6.150
 9252POPC   GL261814   1.917  16.790   6.150
 9252POPC   C1A61815   1.995  16.730   6.450
 9252POPC   D2A61816   1.951  16.735   6.750
 9252POPC   C3A61817   1.991  16.764   7.050
 9252POPC   C4A61818   1.946  16.730   7.350
 9252POPC   C1B61819   1.743  16.796   6.450
 9252POPC   C2B61820   1.753  16.770   6.750
 9252POPC   C3B61821   1.761  16.809   7.050
 9252POPC   C4B61822   1.770  16.814   7.350
 9253POPC   NC361823  40.736  25.273   5.550
 9253POPC   PO461824  40.799  25.235   5.850
 9253POPC   GL161825  40.793  25.288   6.150
 9253POPC   GL261826  40.751  25.399   6.150
 9253POPC   C1A61827  40.738  25.267   6.450
 9253POPC   D2A61828  40.769  25.293   6.750
 9253POPC   C3A61829  40.801  25.270   7.050
 9253POPC   C4A61830  40.818  25.247   7.350
 9253POPC   C1B61831  40.693  25.460   6.450
 9253POPC   C2B61832  40.639  25.520   6.750
 9253POPC   C3B61833  40.686  25.508   7.050
 9253POPC   C4B61834  40.628  25.500   7.350
 9254POPC   NC361835  22.208  25.244   5.550
 9254POPC   PO461836  22.129  25.267   5.850
 9254POPC   GL161837  22.118  25.250   6.150
 9254POPC   GL261838  22.207  25.141   6.150
 9254POPC   C1A61839  22.198  25.267   6.450
 9254POPC   D2A61840  22.167  25.220   6.750
 9254POPC   C3A61841  22.191  25.278   7.050
 9254POPC   C4A61842  22.168  25.279   7.350
 9254POPC   C1B61843  22.193  24.984   6.450
 9254POPC   C2B61844  22.193  25.025   6.750
 9254POPC   C3B61845  22.138  24.967   7.050
 9254POPC   C4B61846  22.189  25.002   7.350
 9255POPC   NC361847   7.467  38.456   5.550
 9255POPC   PO461848   7.411  38.449   5.850
 9255POPC   GL161849   7.408  38.411   6.150
 9255POPC   GL261850   7.330  38.516   6.150
 9255POPC   C1A61851   7.460  38.424   6.450
 9255POPC   D2A61852   7.466  38.504   6.750
 9255POPC   C3A61853   7.442  38.439   7.050
 9255POPC   C4A61854   7.460  38.493   7.350
 9255POPC   C1B61855   7.210  38.456   6.450
 9255POPC   C2B61856   7.203  38.527   6.750
 9255POPC   C3B61857   7.175  38.477   7.050
 9255POPC   C4B61858   7.148  38.448   7.350
 9256POPC   NC361859  33.773  24.461   5.550
 9256POPC   PO461860  33.799  24.535   5.850
 9256POPC   GL161861  33.849  24.469   6.150
 9256POPC   GL261862  33.862  24.537   6.150
 9256POPC   C1A61863  33.846  24.451   6.450
 9256POPC   D2A61864  33.773  24.449   6.750
 9256POPC   C3A61865  33.840  24.451   7.050
 9256POPC   C4A61866  33.769  24.497   7.350
 9256POPC   C1B61867  34.035  24.644   6.450
 9256POPC   C2B61868  33.987  24.690   6.750
 9256POPC   C3B61869  34.027  24.661   7.050
 9256POPC   C4B61870  33.963  24.668   7.350
 9257POPC   NC361871   1.185  23.725   5.550
 9257POPC   PO461872   1.186  23.668   5.850
 9257POPC   GL161873   1.183  23.714   6.150
 9257POPC   GL261874   1.294  23.652   6.150
 9257POPC   C1A61875   1.218  23.694   6.450
 9257POPC   D2A61876   1.263  23.720   6.750
 9257POPC   C3A61877   1.261  23.695   7.050
 9257POPC   C4A61878   1.216  23.715   7.350
 9257POPC   C1B61879   1.342  23.511   6.450
 9257POPC   C2B61880   1.397  23.487   6.750
 9257POPC   C3B61881   1.352  23.536   7.050
 9257POPC   C4B61882   1.388  23.527   7.350
 9258POPC   NC361883  24.465   4.300   5.550
 9258POPC   PO461884  24.529   4.342   5.850
 9258POPC   GL161885  24.515   4.331   6.150
 9258POPC   GL261886  24.580   4.394   6.150
 9258POPC   C1A61887  24.524   4.354   6.450
 9258POPC   D2A61888  24.518   4.317   6.750
 9258POPC   C3A61889  24.539   4.281   7.050
 9258POPC   C4A61890  24.498   4.271   7.350
 9258POPC   C1B61891  24.628   4.532   6.450
 9258POPC   C2B61892  24.626   4.463   6.750
 9258POPC   C3B61893  24.663   4.540   7.050
 9258POPC   C4B61894  24.651   4.524   7.350
 9259POPC   NC361895   1.221  37.714   5.550
 9259POPC   PO461896   1.219  37.638   5.850
 9259POPC   GL161897   1.180  37.643   6.150
 9259POPC   GL261898   1.148  37.784   6.150
 9259POPC   C1A61899   1.251  37.699   6.450
 9259POPC   D2A61900   1.174  37.649   6.750
 9259POPC   C3A61901   1.179  37.728   7.050
 9259POPC   C4A61902   1.261  37.654   7.350
 9259POPC   C1B61903   1.086  37.906   6.450
 9259POPC   C2B61904   1.105  37.890   6.750
 9259POPC   C3B61905   1.073  37.909   7.050
 9259POPC   C4B61906   1.097  37.910   7.350
 9260POPC   NC361907  15.181   8.186   5.550
 9260POPC   PO461908  15.229   8.219   5.850
 9260POPC   GL161909  15.211   8.163   6.150
 9260POPC   GL261910  15.281   8.077   6.150
 9260POPC   C1A61911  15.171   8.163   6.450
 9260POPC   D2A61912  15.133   8.194   6.750
 9260POPC   C3A61913  15.192   8.204   7.050
 9260POPC   C4A61914  15.202   8.205   7.350
 9260POPC   C1B61915  15.352   8.069   6.450
 9260POPC   C2B61916  15.413   8.045   6.750
 9260POPC   C3B61917  15.400   8.082   7.050
 9260POPC   C4B61918  15.364   8.093   7.350
 9261POPC   NC361919   5.847  11.284   5.550
 9261POPC   PO461920   5.904  11.276   5.850
 9261POPC   GL161921   5.872  11.316   6.150
 9261POPC   GL261922   6.019  11.245   6.150
 9261POPC   C1A61923   5.846  11.313   6.450
 9261POPC   D2A61924   5.858  11.340   6.750
 9261POPC   C3A61925   5.889  11.264   7.050
 9261POPC   C4A61926   5.910  11.317   7.350
 9261POPC   C1B61927   6.062  11.208   6.450
 9261POPC   C2B61928   6.049  11.213   6.750
 9261POPC   C3B61929   6.096  11.169   7.050
 9261POPC   C4B61930   6.086  11.176   7.350
 9262POPC   NC361931  40.768  39.241   5.550
 9262POPC   PO461932  40.735  39.247   5.850
 9262POPC   GL161933  40.743  39.214   6.150
 9262POPC   GL261934  40.880  39.138   6.150
 9262POPC   C1A61935  40.790  39.264   6.450
 9262POPC   D2A61936  40.830  39.217   6.750
 9262POPC   C3A61937  40.794  39.230   7.050
 9262POPC   C4A61938  40.766  39.196   7.350
 9262POPC   C1B61939  40.920  39.102   6.450
 9262POPC   C2B61940  40.932  39.084   6.750
 9262POPC   C3B61941  40.970  39.085   7.050
 9262POPC   C4B61942  40.955  39.084   7.350
 9263POPC   NC361943  24.468  43.092   5.550
 9263POPC   PO461944  24.444  43.068   5.850
 9263POPC   GL161945  24.485  43.137   6.150
 9263POPC   GL261946  24.484  43.188   6.150
 9263POPC   C1A61947  24.478  43.085   6.450
 9263POPC   D2A61948  24.486  43.146   6.750
 9263POPC   C3A61949  24.442  43.151   7.050
 9263POPC   C4A61950  24.524  43.158   7.350
 9263POPC   C1B61951  24.369  43.289   6.450
 9263POPC   C2B61952  24.426  43.382   6.750
 9263POPC   C3B61953  24.390  43.292   7.050
 9263POPC   C4B61954  24.420  43.362   7.350
 9264POPC   NC361955  21.380  40.775   5.550
 9264POPC   PO461956  21.408  40.774   5.850
 9264POPC   GL161957  21.426  40.763   6.150
 9264POPC   GL261958  21.529  40.799   6.150
 9264POPC   C1A61959  21.428  40.773   6.450
 9264POPC   D2A61960  21.430  40.764   6.750
 9264POPC   C3A61961  21.346  40.800   7.050
 9264POPC   C4A61962  21.392  40.810   7.350
 9264POPC   C1B61963  21.595  40.913   6.450
 9264POPC   C2B61964  21.582  40.858   6.750
 9264POPC   C3B61965  21.634  40.875   7.050
 9264POPC   C4B61966  21.622  40.905   7.350
 9265POPC   NC361967  42.318  28.350   5.550
 9265POPC   PO461968  42.336  28.368   5.850
 9265POPC   GL161969  42.308  28.396   6.150
 9265POPC   GL261970  42.437  28.407   6.150
 9265POPC   C1A61971  42.376  28.376   6.450
 9265POPC   D2A61972  42.365  28.406   6.750
 9265POPC   C3A61973  42.377  28.384   7.050
 9265POPC   C4A61974  42.380  28.329   7.350
 9265POPC   C1B61975  42.600  28.449   6.450
 9265POPC   C2B61976  42.556  28.539   6.750
 9265POPC   C3B61977  42.525  28.445   7.050
 9265POPC   C4B61978  42.538  28.514   7.350
 9266POPC   NC361979  40.735  23.744   5.550
 9266POPC   PO461980  40.802  23.746   5.850
 9266POPC   GL161981  40.772  23.742   6.150
 9266POPC   GL261982  40.654  23.715   6.150
 9266POPC   C1A61983  40.771  23.733   6.450
 9266POPC   D2A61984  40.748  23.667   6.750
 9266POPC   C3A61985  40.751  23.721   7.050
 9266POPC   C4A61986  40.782  23.743   7.350
 9266POPC   C1B61987  40.490  23.721   6.450
 9266POPC   C2B61988  40.579  23.676   6.750
 9266POPC   C3B61989  40.579  23.678   7.050
 9266POPC   C4B61990  40.485  23.730   7.350
 9267POPC   NC361991  26.828  28.373   5.550
 9267POPC   PO461992  26.832  28.386   5.850
 9267POPC   GL161993  26.830  28.398   6.150
 9267POPC   GL261994  26.967  28.458   6.150
 9267POPC   C1A61995  26.841  28.416   6.450
 9267POPC   D2A61996  26.848  28.351   6.750
 9267POPC   C3A61997  26.857  28.373   7.050
 9267POPC   C4A61998  26.804  28.340   7.350
 9267POPC   C1B61999  27.025  28.455   6.450
 9267POPC   C2B62000  26.998  28.510   6.750
 9267POPC   C3B62001  26.999  28.444   7.050
 9267POPC   C4B62002  27.021  28.506   7.350
 9268POPC   NC362003  32.235  37.647   5.550
 9268POPC   PO462004  32.209  37.649   5.850
 9268POPC   GL162005  32.284  37.669   6.150
 9268POPC   GL262006  32.393  37.685   6.150
 9268POPC   C1A62007  32.203  37.676   6.450
 9268POPC   D2A62008  32.258  37.687   6.750
 9268POPC   C3A62009  32.199  37.712   7.050
 9268POPC   C4A62010  32.283  37.670   7.350
 9268POPC   C1B62011  32.434  37.728   6.450
 9268POPC   C2B62012  32.489  37.767   6.750
 9268POPC   C3B62013  32.458  37.722   7.050
 9268POPC   C4B62014  32.520  37.757   7.350
 9269POPC   NC362015   2.748   4.307   5.550
 9269POPC   PO462016   2.724   4.337   5.850
 9269POPC   GL162017   2.785   4.360   6.150
 9269POPC   GL262018   2.731   4.237   6.150
 9269POPC   C1A62019   2.785   4.366   6.450
 9269POPC   D2A62020   2.769   4.357   6.750
 9269POPC   C3A62021   2.757   4.274   7.050
 9269POPC   C4A62022   2.757   4.354   7.350
 9269POPC   C1B62023   2.724   4.106   6.450
 9269POPC   C2B62024   2.677   4.024   6.750
 9269POPC   C3B62025   2.688   4.048   7.050
 9269POPC   C4B62026   2.698   4.069   7.350
 9270POPC   NC362027   4.337  16.716   5.550
 9270POPC   PO462028   4.326  16.716   5.850
 9270POPC   GL162029   4.331  16.735   6.150
 9270POPC   GL262030   4.211  16.731   6.150
 9270POPC   C1A62031   4.334  16.710   6.450
 9270POPC   D2A62032   4.312  16.694   6.750
 9270POPC   C3A62033   4.341  16.775   7.050
 9270POPC   C4A62034   4.279  16.756   7.350
 9270POPC   C1B62035   4.050  16.783   6.450
 9270POPC   C2B62036   4.025  16.765   6.750
 9270POPC   C3B62037   4.107  16.709   7.050
 9270POPC   C4B62038   4.100  16.781   7.350
 9271POPC   NC362039  37.682  16.693   5.550
 9271POPC   PO462040  37.719  16.763   5.850
 9271POPC   GL162041  37.702  16.697   6.150
 9271POPC   GL262042  37.804  16.732   6.150
 9271POPC   C1A62043  37.646  16.697   6.450
 9271POPC   D2A62044  37.634  16.711   6.750
 9271POPC   C3A62045  37.698  16.711   7.050
 9271POPC   C4A62046  37.710  16.706   7.350
 9271POPC   C1B62047  37.912  16.775   6.450
 9271POPC   C2B62048  37.938  16.824   6.750
 9271POPC   C3B62049  37.902  16.747   7.050
 9271POPC   C4B62050  37.900  16.795   7.350
 9272POPC   NC362051   5.072  34.603   5.550
 9272POPC   PO462052   5.127  34.572   5.850
 9272POPC   GL162053   5.050  34.558   6.150
 9272POPC   GL262054   4.963  34.644   6.150
 9272POPC   C1A62055   5.108  34.608   6.450
 9272POPC   D2A62056   5.063  34.568   6.750
 9272POPC   C3A62057   5.051  34.591   7.050
 9272POPC   C4A62058   5.088  34.609   7.350
 9272POPC   C1B62059   4.898  34.702   6.450
 9272POPC   C2B62060   4.854  34.696   6.750
 9272POPC   C3B62061   4.838  34.674   7.050
 9272POPC   C4B62062   4.885  34.629   7.350
 9273POPC   NC362063  29.948  43.142   5.550
 9273POPC   PO462064  29.877  43.106   5.850
 9273POPC   GL162065  29.889  43.142   6.150
 9273POPC   GL262066  29.845  43.209   6.150
 9273POPC   C1A62067  29.926  43.073   6.450
 9273POPC   D2A62068  29.955  43.073   6.750
 9273POPC   C3A62069  29.915  43.066   7.050
 9273POPC   C4A62070  29.962  43.132   7.350
 9273POPC   C1B62071  29.723  43.217   6.450
 9273POPC   C2B62072  29.732  43.185   6.750
 9273POPC   C3B62073  29.670  43.192   7.050
 9273POPC   C4B62074  29.729  43.178   7.350
 9274POPC   NC362075  30.743  31.459   5.550
 9274POPC   PO462076  30.697  31.495   5.850
 9274POPC   GL162077  30.667  31.522   6.150
 9274POPC   GL262078  30.829  31.543   6.150
 9274POPC   C1A62079  30.694  31.483   6.450
 9274POPC   D2A62080  30.711  31.445   6.750
 9274POPC   C3A62081  30.651  31.520   7.050
 9274POPC   C4A62082  30.697  31.512   7.350
 9274POPC   C1B62083  30.924  31.578   6.450
 9274POPC   C2B62084  30.966  31.576   6.750
 9274POPC   C3B62085  30.986  31.504   7.050
 9274POPC   C4B62086  30.903  31.517   7.350
 9275POPC   NC362087  20.618   9.761   5.550
 9275POPC   PO462088  20.655   9.747   5.850
 9275POPC   GL162089  20.582   9.767   6.150
 9275POPC   GL262090  20.756   9.720   6.150
 9275POPC   C1A62091  20.648   9.788   6.450
 9275POPC   D2A62092  20.567   9.725   6.750
 9275POPC   C3A62093  20.561   9.786   7.050
 9275POPC   C4A62094  20.597   9.727   7.350
 9275POPC   C1B62095  20.898   9.828   6.450
 9275POPC   C2B62096  20.868   9.744   6.750
 9275POPC   C3B62097  20.841   9.753   7.050
 9275POPC   C4B62098  20.852   9.800   7.350
 9276POPC   NC362099  22.132  43.933   5.550
 9276POPC   PO462100  22.188  43.843   5.850
 9276POPC   GL162101  22.206  43.931   6.150
 9276POPC   GL262102  22.107  43.720   6.150
 9276POPC   C1A62103  22.116  43.858   6.450
 9276POPC   D2A62104  22.119  43.900   6.750
 9276POPC   C3A62105  22.112  43.882   7.050
 9276POPC   C4A62106  22.136  43.856   7.350
 9276POPC   C1B62107  22.122  43.663   6.450
 9276POPC   C2B62108  22.102  43.629   6.750
 9276POPC   C3B62109  22.077  43.695   7.050
 9276POPC   C4B62110  22.083  43.696   7.350
 9277POPC   NC362111  10.481  35.348   5.550
 9277POPC   PO462112  10.574  35.397   5.850
 9277POPC   GL162113  10.490  35.317   6.150
 9277POPC   GL262114  10.613  35.341   6.150
 9277POPC   C1A62115  10.495  35.390   6.450
 9277POPC   D2A62116  10.505  35.350   6.750
 9277POPC   C3A62117  10.530  35.310   7.050
 9277POPC   C4A62118  10.547  35.341   7.350
 9277POPC   C1B62119  10.732  35.297   6.450
 9277POPC   C2B62120  10.713  35.276   6.750
 9277POPC   C3B62121  10.756  35.263   7.050
 9277POPC   C4B62122  10.801  35.293   7.350
 9278POPC   NC362123   5.096  32.263   5.550
 9278POPC   PO462124   5.060  32.248   5.850
 9278POPC   GL162125   5.070  32.243   6.150
 9278POPC   GL262126   5.022  32.414   6.150
 9278POPC   C1A62127   5.136  32.289   6.450
 9278POPC   D2A62128   5.131  32.204   6.750
 9278POPC   C3A62129   5.068  32.287   7.050
 9278POPC   C4A62130   5.057  32.285   7.350
 9278POPC   C1B62131   5.073  32.495   6.450
 9278POPC   C2B62132   5.055  32.473   6.750
 9278POPC   C3B62133   5.080  32.448   7.050
 9278POPC   C4B62134   5.039  32.524   7.350
 9279POPC   NC362135  40.745  19.787   5.550
 9279POPC   PO462136  40.807  19.823   5.850
 9279POPC   GL162137  40.733  19.871   6.150
 9279POPC   GL262138  40.773  19.951   6.150
 9279POPC   C1A62139  40.803  19.844   6.450
 9279POPC   D2A62140  40.796  19.873   6.750
 9279POPC   C3A62141  40.752  19.848   7.050
 9279POPC   C4A62142  40.803  19.851   7.350
 9279POPC   C1B62143  40.783  20.082   6.450
 9279POPC   C2B62144  40.795  20.099   6.750
 9279POPC   C3B62145  40.742  20.078   7.050
 9279POPC   C4B62146  40.722  20.096   7.350
 9280POPC   NC362147  18.247  31.443   5.550
 9280POPC   PO462148  18.242  31.444   5.850
 9280POPC   GL162149  18.268  31.479   6.150
 9280POPC   GL262150  18.174  31.375   6.150
 9280POPC   C1A62151  18.234  31.476   6.450
 9280POPC   D2A62152  18.290  31.462   6.750
 9280POPC   C3A62153  18.271  31.487   7.050
 9280POPC   C4A62154  18.300  31.448   7.350
 9280POPC   C1B62155  18.141  31.229   6.450
 9280POPC   C2B62156  18.117  31.213   6.750
 9280POPC   C3B62157  18.158  31.253   7.050
 9280POPC   C4B62158  18.124  31.297   7.350
 9281POPC   NC362159  14.356  24.469   5.550
 9281POPC   PO462160  14.402  24.535   5.850
 9281POPC   GL162161  14.439  24.456   6.150
 9281POPC   GL262162  14.401  24.392   6.150
 9281POPC   C1A62163  14.400  24.453   6.450
 9281POPC   D2A62164  14.391  24.489   6.750
 9281POPC   C3A62165  14.363  24.485   7.050
 9281POPC   C4A62166  14.412  24.538   7.350
 9281POPC   C1B62167  14.374  24.288   6.450
 9281POPC   C2B62168  14.300  24.252   6.750
 9281POPC   C3B62169  14.297  24.230   7.050
 9281POPC   C4B62170  14.362  24.278   7.350
 9282POPC   NC362171  37.722  39.237   5.550
 9282POPC   PO462172  37.661  39.187   5.850
 9282POPC   GL162173  37.696  39.197   6.150
 9282POPC   GL262174  37.676  39.332   6.150
 9282POPC   C1A62175  37.647  39.189   6.450
 9282POPC   D2A62176  37.632  39.183   6.750
 9282POPC   C3A62177  37.675  39.245   7.050
 9282POPC   C4A62178  37.684  39.202   7.350
 9282POPC   C1B62179  37.773  39.480   6.450
 9282POPC   C2B62180  37.755  39.419   6.750
 9282POPC   C3B62181  37.805  39.453   7.050
 9282POPC   C4B62182  37.788  39.486   7.350
 9283POPC   NC362183   1.198   1.209   5.550
 9283POPC   PO462184   1.208   1.251   5.850
 9283POPC   GL162185   1.218   1.171   6.150
 9283POPC   GL262186   1.187   1.128   6.150
 9283POPC   C1A62187   1.230   1.225   6.450
 9283POPC   D2A62188   1.242   1.213   6.750
 9283POPC   C3A62189   1.185   1.239   7.050
 9283POPC   C4A62190   1.253   1.236   7.350
 9283POPC   C1B62191   1.251   0.963   6.450
 9283POPC   C2B62192   1.217   0.937   6.750
 9283POPC   C3B62193   1.250   0.959   7.050
 9283POPC   C4B62194   1.184   1.011   7.350
 9284POPC   NC362195  15.165  16.686   5.550
 9284POPC   PO462196  15.228  16.691   5.850
 9284POPC   GL162197  15.205  16.704   6.150
 9284POPC   GL262198  15.076  16.602   6.150
 9284POPC   C1A62199  15.206  16.718   6.450
 9284POPC   D2A62200  15.148  16.775   6.750
 9284POPC   C3A62201  15.159  16.706   7.050
 9284POPC   C4A62202  15.158  16.774   7.350
 9284POPC   C1B62203  15.033  16.480   6.450
 9284POPC   C2B62204  15.039  16.556   6.750
 9284POPC   C3B62205  15.019  16.559   7.050
 9284POPC   C4B62206  15.029  16.510   7.350
 9285POPC   NC362207   5.829  22.918   5.550
 9285POPC   PO462208   5.909  22.969   5.850
 9285POPC   GL162209   5.836  22.948   6.150
 9285POPC   GL262210   5.950  23.080   6.150
 9285POPC   C1A62211   5.901  22.897   6.450
 9285POPC   D2A62212   5.877  22.973   6.750
 9285POPC   C3A62213   5.880  22.978   7.050
 9285POPC   C4A62214   5.867  22.928   7.350
 9285POPC   C1B62215   5.976  23.105   6.450
 9285POPC   C2B62216   5.975  23.176   6.750
 9285POPC   C3B62217   6.030  23.158   7.050
 9285POPC   C4B62218   5.959  23.176   7.350
 9286POPC   NC362219  15.174  32.238   5.550
 9286POPC   PO462220  15.131  32.239   5.850
 9286POPC   GL162221  15.226  32.245   6.150
 9286POPC   GL262222  15.111  32.321   6.150
 9286POPC   C1A62223  15.139  32.215   6.450
 9286POPC   D2A62224  15.164  32.291   6.750
 9286POPC   C3A62225  15.136  32.289   7.050
 9286POPC   C4A62226  15.219  32.266   7.350
 9286POPC   C1B62227  15.126  32.515   6.450
 9286POPC   C2B62228  15.086  32.461   6.750
 9286POPC   C3B62229  15.043  32.473   7.050
 9286POPC   C4B62230  15.136  32.486   7.350
 9287POPC   NC362231  31.511  40.773   5.550
 9287POPC   PO462232  31.430  40.830   5.850
 9287POPC   GL162233  31.445  40.833   6.150
 9287POPC   GL262234  31.418  40.709   6.150
 9287POPC   C1A62235  31.469  40.734   6.450
 9287POPC   D2A62236  31.512  40.801   6.750
 9287POPC   C3A62237  31.434  40.810   7.050
 9287POPC   C4A62238  31.423  40.758   7.350
 9287POPC   C1B62239  31.306  40.598   6.450
 9287POPC   C2B62240  31.307  40.669   6.750
 9287POPC   C3B62241  31.251  40.691   7.050
 9287POPC   C4B62242  31.240  40.616   7.350
 9288POPC   NC362243  17.551   5.843   5.550
 9288POPC   PO462244  17.534   5.870   5.850
 9288POPC   GL162245  17.489   5.908   6.150
 9288POPC   GL262246  17.431   5.982   6.150
 9288POPC   C1A62247  17.521   5.830   6.450
 9288POPC   D2A62248  17.504   5.886   6.750
 9288POPC   C3A62249  17.518   5.898   7.050
 9288POPC   C4A62250  17.487   5.863   7.350
 9288POPC   C1B62251  17.296   6.012   6.450
 9288POPC   C2B62252  17.326   6.071   6.750
 9288POPC   C3B62253  17.388   6.062   7.050
 9288POPC   C4B62254  17.377   6.010   7.350
 9289POPC   NC362255  32.229   8.967   5.550
 9289POPC   PO462256  32.216   8.995   5.850
 9289POPC   GL162257  32.203   8.958   6.150
 9289POPC   GL262258  32.343   9.055   6.150
 9289POPC   C1A62259  32.204   8.932   6.450
 9289POPC   D2A62260  32.220   8.982   6.750
 9289POPC   C3A62261  32.285   8.945   7.050
 9289POPC   C4A62262  32.220   9.010   7.350
 9289POPC   C1B62263  32.450   9.178   6.450
 9289POPC   C2B62264  32.475   9.174   6.750
 9289POPC   C3B62265  32.409   9.118   7.050
 9289POPC   C4B62266  32.433   9.160   7.350
 9290POPC   NC362267  19.870  38.480   5.550
 9290POPC   PO462268  19.817  38.424   5.850
 9290POPC   GL162269  19.855  38.406   6.150
 9290POPC   GL262270  19.691  38.427   6.150
 9290POPC   C1A62271  19.860  38.500   6.450
 9290POPC   D2A62272  19.865  38.415   6.750
 9290POPC   C3A62273  19.856  38.410   7.050
 9290POPC   C4A62274  19.877  38.480   7.350
 9290POPC   C1B62275  19.578  38.309   6.450
 9290POPC   C2B62276  19.612  38.351   6.750
 9290POPC   C3B62277  19.611  38.326   7.050
 9290POPC   C4B62278  19.639  38.351   7.350
 9291POPC   NC362279  26.088   4.347   5.550
 9291POPC   PO462280  26.054   4.359   5.850
 9291POPC   GL162281  26.062   4.269   6.150
 9291POPC   GL262282  26.008   4.217   6.150
 9291POPC   C1A62283  25.996   4.297   6.450
 9291POPC   D2A62284  26.048   4.312   6.750
 9291POPC   C3A62285  26.063   4.317   7.050
 9291POPC   C4A62286  26.060   4.309   7.350
 9291POPC   C1B62287  26.062   4.044   6.450
 9291POPC   C2B62288  26.069   4.027   6.750
 9291POPC   C3B62289  26.030   4.054   7.050
 9291POPC   C4B62290  26.090   4.020   7.350
 9292POPC   NC362291  33.019   6.660   5.550
 9292POPC   PO462292  33.029   6.595   5.850
 9292POPC   GL162293  33.055   6.677   6.150
 9292POPC   GL262294  33.152   6.525   6.150
 9292POPC   C1A62295  33.015   6.641   6.450
 9292POPC   D2A62296  33.027   6.618   6.750
 9292POPC   C3A62297  33.055   6.595   7.050
 9292POPC   C4A62298  33.027   6.665   7.350
 9292POPC   C1B62299  33.191   6.478   6.450
 9292POPC   C2B62300  33.205   6.508   6.750
 9292POPC   C3B62301  33.242   6.444   7.050
 9292POPC   C4B62302  33.241   6.459   7.350
 9293POPC   NC362303   3.554  14.385   5.550
 9293POPC   PO462304   3.516  14.452   5.850
 9293POPC   GL162305   3.584  14.391   6.150
 9293POPC   GL262306   3.513  14.252   6.150
 9293POPC   C1A62307   3.564  14.361   6.450
 9293POPC   D2A62308   3.568  14.405   6.750
 9293POPC   C3A62309   3.501  14.365   7.050
 9293POPC   C4A62310   3.536  14.401   7.350
 9293POPC   C1B62311   3.609  14.110   6.450
 9293POPC   C2B62312   3.569  14.187   6.750
 9293POPC   C3B62313   3.608  14.125   7.050
 9293POPC   C4B62314   3.552  14.184   7.350
 9294POPC   NC362315   1.964  27.636   5.550
 9294POPC   PO462316   1.986  27.627   5.850
 9294POPC   GL162317   2.021  27.575   6.150
 9294POPC   GL262318   2.125  27.688   6.150
 9294POPC   C1A62319   1.985  27.600   6.450
 9294POPC   D2A62320   1.982  27.621   6.750
 9294POPC   C3A62321   1.985  27.562   7.050
 9294POPC   C4A62322   1.974  27.568   7.350
 9294POPC   C1B62323   2.150  27.736   6.450
 9294POPC   C2B62324   2.243  27.776   6.750
 9294POPC   C3B62325   2.232  27.698   7.050
 9294POPC   C4B62326   2.185  27.728   7.350
 9295POPC   NC362327  27.611  38.484   5.550
 9295POPC   PO462328  27.613  38.437   5.850
 9295POPC   GL162329  27.588  38.474   6.150
 9295POPC   GL262330  27.427  38.466   6.150
 9295POPC   C1A62331  27.564  38.435   6.450
 9295POPC   D2A62332  27.618  38.501   6.750
 9295POPC   C3A62333  27.546  38.445   7.050
 9295POPC   C4A62334  27.592  38.414   7.350
 9295POPC   C1B62335  27.326  38.394   6.450
 9295POPC   C2B62336  27.385  38.424   6.750
 9295POPC   C3B62337  27.339  38.371   7.050
 9295POPC   C4B62338  27.307  38.358   7.350
 9296POPC   NC362339  12.085  36.094   5.550
 9296POPC   PO462340  12.027  36.095   5.850
 9296POPC   GL162341  12.101  36.135   6.150
 9296POPC   GL262342  12.022  36.024   6.150
 9296POPC   C1A62343  12.105  36.087   6.450
 9296POPC   D2A62344  12.058  36.141   6.750
 9296POPC   C3A62345  12.059  36.119   7.050
 9296POPC   C4A62346  12.056  36.118   7.350
 9296POPC   C1B62347  12.020  35.882   6.450
 9296POPC   C2B62348  12.042  35.855   6.750
 9296POPC   C3B62349  12.004  35.866   7.050
 9296POPC   C4B62350  12.048  35.927   7.350
 9297POPC   NC362351  33.799   7.467   5.550
 9297POPC   PO462352  33.796   7.379   5.850
 9297POPC   GL162353  33.781   7.425   6.150
 9297POPC   GL262354  33.688   7.395   6.150
 9297POPC   C1A62355  33.812   7.450   6.450
 9297POPC   D2A62356  33.837   7.396   6.750
 9297POPC   C3A62357  33.755   7.372   7.050
 9297POPC   C4A62358  33.752   7.371   7.350
 9297POPC   C1B62359  33.572   7.342   6.450
 9297POPC   C2B62360  33.512   7.320   6.750
 9297POPC   C3B62361  33.521   7.413   7.050
 9297POPC   C4B62362  33.536   7.352   7.350
 9298POPC   NC362363  14.391  12.863   5.550
 9298POPC   PO462364  14.393  12.853   5.850
 9298POPC   GL162365  14.444  12.866   6.150
 9298POPC   GL262366  14.303  12.919   6.150
 9298POPC   C1A62367  14.436  12.896   6.450
 9298POPC   D2A62368  14.370  12.806   6.750
 9298POPC   C3A62369  14.424  12.815   7.050
 9298POPC   C4A62370  14.443  12.833   7.350
 9298POPC   C1B62371  14.189  12.971   6.450
 9298POPC   C2B62372  14.233  12.926   6.750
 9298POPC   C3B62373  14.227  12.966   7.050
 9298POPC   C4B62374  14.163  13.010   7.350
 9299POPC   NC362375  33.771  43.877   5.550
 9299POPC   PO462376  33.757  43.916   5.850
 9299POPC   GL162377  33.822  43.899   6.150
 9299POPC   GL262378  33.706  43.958   6.150
 9299POPC   C1A62379  33.813  43.898   6.450
 9299POPC   D2A62380  33.847  43.929   6.750
 9299POPC   C3A62381  33.835  43.923   7.050
 9299POPC   C4A62382  33.797  43.928   7.350
 9299POPC   C1B62383  33.509  43.896   6.450
 9299POPC   C2B62384  33.589  43.926   6.750
 9299POPC   C3B62385  33.510  43.960   7.050
 9299POPC   C4B62386  33.594  43.962   7.350
 9300POPC   NC362387  22.980  43.134   5.550
 9300POPC   PO462388  22.967  43.112   5.850
 9300POPC   GL162389  22.960  43.108   6.150
 9300POPC   GL262390  22.839  43.205   6.150
 9300POPC   C1A62391  22.922  43.088   6.450
 9300POPC   D2A62392  22.974  43.090   6.750
 9300POPC   C3A62393  22.939  43.087   7.050
 9300POPC   C4A62394  22.970  43.157   7.350
 9300POPC   C1B62395  22.670  43.211   6.450
 9300POPC   C2B62396  22.708  43.191   6.750
 9300POPC   C3B62397  22.732  43.212   7.050
 9300POPC   C4B62398  22.749  43.275   7.350
 9301POPC   NC362399  29.154   0.472   5.550
 9301POPC   PO462400  29.183   0.484   5.850
 9301POPC   GL162401  29.114   0.478   6.150
 9301POPC   GL262402  29.196   0.505   6.150
 9301POPC   C1A62403  29.131   0.417   6.450
 9301POPC   D2A62404  29.182   0.403   6.750
 9301POPC   C3A62405  29.186   0.442   7.050
 9301POPC   C4A62406  29.182   0.404   7.350
 9301POPC   C1B62407  29.234   0.643   6.450
 9301POPC   C2B62408  29.231   0.704   6.750
 9301POPC   C3B62409  29.191   0.671   7.050
 9301POPC   C4B62410  29.193   0.707   7.350
 9302POPC   NC362411   6.644   8.174   5.550
 9302POPC   PO462412   6.606   8.214   5.850
 9302POPC   GL162413   6.693   8.228   6.150
 9302POPC   GL262414   6.784   8.266   6.150
 9302POPC   C1A62415   6.682   8.160   6.450
 9302POPC   D2A62416   6.670   8.226   6.750
 9302POPC   C3A62417   6.692   8.215   7.050
 9302POPC   C4A62418   6.683   8.238   7.350
 9302POPC   C1B62419   6.897   8.341   6.450
 9302POPC   C2B62420   6.867   8.308   6.750
 9302POPC   C3B62421   6.812   8.347   7.050
 9302POPC   C4B62422   6.825   8.326   7.350
 9303POPC   NC362423  22.211   1.997   5.550
 9303POPC   PO462424  22.194   1.980   5.850
 9303POPC   GL162425  22.135   1.977   6.150
 9303POPC   GL262426  22.174   2.139   6.150
 9303POPC   C1A62427  22.114   2.017   6.450
 9303POPC   D2A62428  22.122   2.001   6.750
 9303POPC   C3A62429  22.182   1.958   7.050
 9303POPC   C4A62430  22.144   2.037   7.350
 9303POPC   C1B62431  22.218   2.277   6.450
 9303POPC   C2B62432  22.210   2.184   6.750
 9303POPC   C3B62433  22.201   2.190   7.050
 9303POPC   C4B62434  22.219   2.231   7.350
 9304POPC   NC362435  36.861  12.077   5.550
 9304POPC   PO462436  36.884  12.067   5.850
 9304POPC   GL162437  36.875  12.040   6.150
 9304POPC   GL262438  36.876  11.929   6.150
 9304POPC   C1A62439  36.897  12.114   6.450
 9304POPC   D2A62440  36.905  12.061   6.750
 9304POPC   C3A62441  36.910  12.108   7.050
 9304POPC   C4A62442  36.859  12.048   7.350
 9304POPC   C1B62443  36.779  11.874   6.450
 9304POPC   C2B62444  36.855  11.856   6.750
 9304POPC   C3B62445  36.840  11.885   7.050
 9304POPC   C4B62446  36.809  11.838   7.350
 9305POPC   NC362447  40.014  17.521   5.550
 9305POPC   PO462448  40.020  17.527   5.850
 9305POPC   GL162449  40.053  17.550   6.150
 9305POPC   GL262450  40.085  17.429   6.150
 9305POPC   C1A62451  39.982  17.496   6.450
 9305POPC   D2A62452  39.999  17.463   6.750
 9305POPC   C3A62453  39.974  17.489   7.050
 9305POPC   C4A62454  40.057  17.466   7.350
 9305POPC   C1B62455  40.091  17.280   6.450
 9305POPC   C2B62456  40.051  17.309   6.750
 9305POPC   C3B62457  40.060  17.271   7.050
 9305POPC   C4B62458  40.116  17.243   7.350
 9306POPC   NC362459  21.380  23.761   5.550
 9306POPC   PO462460  21.396  23.701   5.850
 9306POPC   GL162461  21.415  23.706   6.150
 9306POPC   GL262462  21.496  23.800   6.150
 9306POPC   C1A62463  21.395  23.692   6.450
 9306POPC   D2A62464  21.373  23.697   6.750
 9306POPC   C3A62465  21.394  23.683   7.050
 9306POPC   C4A62466  21.337  23.699   7.350
 9306POPC   C1B62467  21.564  23.872   6.450
 9306POPC   C2B62468  21.508  23.946   6.750
 9306POPC   C3B62469  21.551  23.919   7.050
 9306POPC   C4B62470  21.582  23.955   7.350
 9307POPC   NC362471   0.433   8.211   5.550
 9307POPC   PO462472   0.398   8.187   5.850
 9307POPC   GL162473   0.447   8.161   6.150
 9307POPC   GL262474   0.425   8.315   6.150
 9307POPC   C1A62475   0.455   8.223   6.450
 9307POPC   D2A62476   0.427   8.182   6.750
 9307POPC   C3A62477   0.474   8.193   7.050
 9307POPC   C4A62478   0.453   8.246   7.350
 9307POPC   C1B62479   0.397   8.429   6.450
 9307POPC   C2B62480   0.415   8.435   6.750
 9307POPC   C3B62481   0.452   8.421   7.050
 9307POPC   C4B62482   0.400   8.484   7.350
 9308POPC   NC362483  12.098  12.811   5.550
 9308POPC   PO462484  12.098  12.853   5.850
 9308POPC   GL162485  12.046  12.812   6.150
 9308POPC   GL262486  12.226  12.924   6.150
 9308POPC   C1A62487  12.068  12.895   6.450
 9308POPC   D2A62488  12.072  12.823   6.750
 9308POPC   C3A62489  12.060  12.838   7.050
 9308POPC   C4A62490  12.091  12.899   7.350
 9308POPC   C1B62491  12.275  12.949   6.450
 9308POPC   C2B62492  12.269  12.917   6.750
 9308POPC   C3B62493  12.300  12.955   7.050
 9308POPC   C4B62494  12.296  12.933   7.350
 9309POPC   NC362495  12.038  40.734   5.550
 9309POPC   PO462496  12.051  40.753   5.850
 9309POPC   GL162497  12.070  40.825   6.150
 9309POPC   GL262498  11.997  40.725   6.150
 9309POPC   C1A62499  12.113  40.774   6.450
 9309POPC   D2A62500  12.028  40.774   6.750
 9309POPC   C3A62501  12.034  40.781   7.050
 9309POPC   C4A62502  12.095  40.742   7.350
 9309POPC   C1B62503  11.907  40.591   6.450
 9309POPC   C2B62504  11.910  40.611   6.750
 9309POPC   C3B62505  11.890  40.551   7.050
 9309POPC   C4B62506  11.908  40.601   7.350
 9310POPC   NC362507  22.894  12.103   5.550
 9310POPC   PO462508  22.945  12.103   5.850
 9310POPC   GL162509  22.913  12.072   6.150
 9310POPC   GL262510  22.798  12.014   6.150
 9310POPC   C1A62511  22.894  12.072   6.450
 9310POPC   D2A62512  22.928  12.055   6.750
 9310POPC   C3A62513  22.973  12.035   7.050
 9310POPC   C4A62514  22.889  12.118   7.350
 9310POPC   C1B62515  22.775  11.907   6.450
 9310POPC   C2B62516  22.711  11.889   6.750
 9310POPC   C3B62517  22.723  11.890   7.050
 9310POPC   C4B62518  22.774  11.957   7.350
 9311POPC   NC362519  15.209  31.458   5.550
 9311POPC   PO462520  15.144  31.434   5.850
 9311POPC   GL162521  15.221  31.441   6.150
 9311POPC   GL262522  15.312  31.398   6.150
 9311POPC   C1A62523  15.174  31.489   6.450
 9311POPC   D2A62524  15.213  31.493   6.750
 9311POPC   C3A62525  15.141  31.452   7.050
 9311POPC   C4A62526  15.150  31.435   7.350
 9311POPC   C1B62527  15.464  31.426   6.450
 9311POPC   C2B62528  15.437  31.348   6.750
 9311POPC   C3B62529  15.413  31.386   7.050
 9311POPC   C4B62530  15.428  31.433   7.350
 9312POPC   NC362531  41.550  33.808   5.550
 9312POPC   PO462532  41.574  33.779   5.850
 9312POPC   GL162533  41.532  33.792   6.150
 9312POPC   GL262534  41.587  33.936   6.150
 9312POPC   C1A62535  41.567  33.782   6.450
 9312POPC   D2A62536  41.540  33.770   6.750
 9312POPC   C3A62537  41.598  33.817   7.050
 9312POPC   C4A62538  41.560  33.757   7.350
 9312POPC   C1B62539  41.630  34.049   6.450
 9312POPC   C2B62540  41.641  33.992   6.750
 9312POPC   C3B62541  41.598  34.080   7.050
 9312POPC   C4B62542  41.664  34.012   7.350
 9313POPC   NC362543  33.754  17.525   5.550
 9313POPC   PO462544  33.782  17.466   5.850
 9313POPC   GL162545  33.820  17.542   6.150
 9313POPC   GL262546  33.894  17.425   6.150
 9313POPC   C1A62547  33.802  17.464   6.450
 9313POPC   D2A62548  33.755  17.506   6.750
 9313POPC   C3A62549  33.804  17.460   7.050
 9313POPC   C4A62550  33.756  17.483   7.350
 9313POPC   C1B62551  33.930  17.303   6.450
 9313POPC   C2B62552  33.966  17.297   6.750
 9313POPC   C3B62553  33.977  17.287   7.050
 9313POPC   C4B62554  33.930  17.288   7.350
 9314POPC   NC362555  37.717  19.056   5.550
 9314POPC   PO462556  37.716  19.073   5.850
 9314POPC   GL162557  37.680  19.058   6.150
 9314POPC   GL262558  37.579  18.984   6.150
 9314POPC   C1A62559  37.653  19.071   6.450
 9314POPC   D2A62560  37.726  19.027   6.750
 9314POPC   C3A62561  37.640  19.099   7.050
 9314POPC   C4A62562  37.630  19.108   7.350
 9314POPC   C1B62563  37.451  18.944   6.450
 9314POPC   C2B62564  37.419  18.949   6.750
 9314POPC   C3B62565  37.460  18.908   7.050
 9314POPC   C4B62566  37.416  18.908   7.350
 9315POPC   NC362567   0.487   0.423   5.550
 9315POPC   PO462568   0.423   0.476   5.850
 9315POPC   GL162569   0.474   0.472   6.150
 9315POPC   GL262570   0.410   0.326   6.150
 9315POPC   C1A62571   0.468   0.438   6.450
 9315POPC   D2A62572   0.477   0.416   6.750
 9315POPC   C3A62573   0.412   0.473   7.050
 9315POPC   C4A62574   0.425   0.463   7.350
 9315POPC   C1B62575   0.436   0.206   6.450
 9315POPC   C2B62576   0.396   0.203   6.750
 9315POPC   C3B62577   0.410   0.171   7.050
 9315POPC   C4B62578   0.377   0.213   7.350
 9316POPC   NC362579  32.247  34.554   5.550
 9316POPC   PO462580  32.282  34.553   5.850
 9316POPC   GL162581  32.283  34.572   6.150
 9316POPC   GL262582  32.306  34.725   6.150
 9316POPC   C1A62583  32.212  34.570   6.450
 9316POPC   D2A62584  32.241  34.621   6.750
 9316POPC   C3A62585  32.213  34.552   7.050
 9316POPC   C4A62586  32.275  34.544   7.350
 9316POPC   C1B62587  32.329  34.833   6.450
 9316POPC   C2B62588  32.312  34.823   6.750
 9316POPC   C3B62589  32.328  34.818   7.050
 9316POPC   C4B62590  32.334  34.838   7.350
 9317POPC   NC362591  24.515  23.756   5.550
 9317POPC   PO462592  24.475  23.699   5.850
 9317POPC   GL162593  24.469  23.728   6.150
 9317POPC   GL262594  24.386  23.717   6.150
 9317POPC   C1A62595  24.479  23.681   6.450
 9317POPC   D2A62596  24.464  23.667   6.750
 9317POPC   C3A62597  24.486  23.674   7.050
 9317POPC   C4A62598  24.492  23.689   7.350
 9317POPC   C1B62599  24.268  23.859   6.450
 9317POPC   C2B62600  24.264  23.791   6.750
 9317POPC   C3B62601  24.267  23.847   7.050
 9317POPC   C4B62602  24.250  23.858   7.350
 9318POPC   NC362603  37.661  18.263   5.550
 9318POPC   PO462604  37.689  18.291   5.850
 9318POPC   GL162605  37.680  18.304   6.150
 9318POPC   GL262606  37.541  18.305   6.150
 9318POPC   C1A62607  37.642  18.325   6.450
 9318POPC   D2A62608  37.655  18.270   6.750
 9318POPC   C3A62609  37.675  18.280   7.050
 9318POPC   C4A62610  37.722  18.325   7.350
 9318POPC   C1B62611  37.488  18.361   6.450
 9318POPC   C2B62612  37.411  18.333   6.750
 9318POPC   C3B62613  37.445  18.385   7.050
 9318POPC   C4B62614  37.476  18.361   7.350
 9319POPC   NC362615  23.668   9.754   5.550
 9319POPC   PO462616  23.722   9.739   5.850
 9319POPC   GL162617  23.700   9.707   6.150
 9319POPC   GL262618  23.739   9.592   6.150
 9319POPC   C1A62619  23.759   9.756   6.450
 9319POPC   D2A62620  23.666   9.758   6.750
 9319POPC   C3A62621  23.760   9.700   7.050
 9319POPC   C4A62622  23.693   9.740   7.350
 9319POPC   C1B62623  23.832   9.580   6.450
 9319POPC   C2B62624  23.837   9.512   6.750
 9319POPC   C3B62625  23.852   9.568   7.050
 9319POPC   C4B62626  23.817   9.489   7.350
 9320POPC   NC362627  26.075   8.192   5.550
 9320POPC   PO462628  26.089   8.167   5.850
 9320POPC   GL162629  26.057   8.206   6.150
 9320POPC   GL262630  26.126   8.161   6.150
 9320POPC   C1A62631  26.075   8.206   6.450
 9320POPC   D2A62632  26.029   8.227   6.750
 9320POPC   C3A62633  26.021   8.229   7.050
 9320POPC   C4A62634  26.087   8.151   7.350
 9320POPC   C1B62635  26.301   8.128   6.450
 9320POPC   C2B62636  26.337   8.125   6.750
 9320POPC   C3B62637  26.335   8.219   7.050
 9320POPC   C4B62638  26.288   8.193   7.350
 9321POPC   NC362639  42.347  15.914   5.550
 9321POPC   PO462640  42.307  15.916   5.850
 9321POPC   GL162641  42.296  15.928   6.150
 9321POPC   GL262642  42.265  16.074   6.150
 9321POPC   C1A62643  42.336  15.931   6.450
 9321POPC   D2A62644  42.298  15.974   6.750
 9321POPC   C3A62645  42.350  15.954   7.050
 9321POPC   C4A62646  42.341  15.965   7.350
 9321POPC   C1B62647  42.188  16.103   6.450
 9321POPC   C2B62648  42.146  16.120   6.750
 9321POPC   C3B62649  42.169  16.149   7.050
 9321POPC   C4B62650  42.140  16.157   7.350
 9322POPC   NC362651  38.501  31.520   5.550
 9322POPC   PO462652  38.449  31.460   5.850
 9322POPC   GL162653  38.467  31.428   6.150
 9322POPC   GL262654  38.591  31.390   6.150
 9322POPC   C1A62655  38.428  31.423   6.450
 9322POPC   D2A62656  38.484  31.519   6.750
 9322POPC   C3A62657  38.442  31.504   7.050
 9322POPC   C4A62658  38.491  31.517   7.350
 9322POPC   C1B62659  38.632  31.322   6.450
 9322POPC   C2B62660  38.675  31.366   6.750
 9322POPC   C3B62661  38.709  31.368   7.050
 9322POPC   C4B62662  38.654  31.361   7.350
 9323POPC   NC362663  11.320  41.539   5.550
 9323POPC   PO462664  11.327  41.513   5.850
 9323POPC   GL162665  11.337  41.529   6.150
 9323POPC   GL262666  11.205  41.692   6.150
 9323POPC   C1A62667  11.319  41.513   6.450
 9323POPC   D2A62668  11.337  41.550   6.750
 9323POPC   C3A62669  11.311  41.584   7.050
 9323POPC   C4A62670  11.337  41.534   7.350
 9323POPC   C1B62671  11.151  41.796   6.450
 9323POPC   C2B62672  11.111  41.789   6.750
 9323POPC   C3B62673  11.173  41.768   7.050
 9323POPC   C4B62674  11.130  41.739   7.350
 9324POPC   NC362675  23.758  12.891   5.550
 9324POPC   PO462676  23.750  12.817   5.850
 9324POPC   GL162677  23.733  12.853   6.150
 9324POPC   GL262678  23.617  12.903   6.150
 9324POPC   C1A62679  23.722  12.822   6.450
 9324POPC   D2A62680  23.709  12.872   6.750
 9324POPC   C3A62681  23.757  12.809   7.050
 9324POPC   C4A62682  23.682  12.853   7.350
 9324POPC   C1B62683  23.547  13.080   6.450
 9324POPC   C2B62684  23.592  13.054   6.750
 9324POPC   C3B62685  23.594  13.075   7.050
 9324POPC   C4B62686  23.586  13.001   7.350
 9325POPC   NC362687  36.867  19.058   5.550
 9325POPC   PO462688  36.921  19.088   5.850
 9325POPC   GL162689  36.935  19.096   6.150
 9325POPC   GL262690  36.829  19.154   6.150
 9325POPC   C1A62691  36.855  19.042   6.450
 9325POPC   D2A62692  36.939  19.069   6.750
 9325POPC   C3A62693  36.918  19.012   7.050
 9325POPC   C4A62694  36.875  19.044   7.350
 9325POPC   C1B62695  36.772  19.244   6.450
 9325POPC   C2B62696  36.734  19.276   6.750
 9325POPC   C3B62697  36.708  19.271   7.050
 9325POPC   C4B62698  36.681  19.220   7.350
 9326POPC   NC362699   6.677  20.603   5.550
 9326POPC   PO462700   6.685  20.633   5.850
 9326POPC   GL162701   6.624  20.570   6.150
 9326POPC   GL262702   6.556  20.572   6.150
 9326POPC   C1A62703   6.666  20.605   6.450
 9326POPC   D2A62704   6.630  20.609   6.750
 9326POPC   C3A62705   6.637  20.637   7.050
 9326POPC   C4A62706   6.652  20.579   7.350
 9326POPC   C1B62707   6.362  20.554   6.450
 9326POPC   C2B62708   6.423  20.534   6.750
 9326POPC   C3B62709   6.420  20.560   7.050
 9326POPC   C4B62710   6.445  20.532   7.350
 9327POPC   NC362711  15.930  40.765   5.550
 9327POPC   PO462712  15.999  40.818   5.850
 9327POPC   GL162713  15.922  40.804   6.150
 9327POPC   GL262714  15.962  40.870   6.150
 9327POPC   C1A62715  15.964  40.782   6.450
 9327POPC   D2A62716  15.963  40.793   6.750
 9327POPC   C3A62717  15.938  40.832   7.050
 9327POPC   C4A62718  15.916  40.761   7.350
 9327POPC   C1B62719  15.948  41.025   6.450
 9327POPC   C2B62720  16.033  41.057   6.750
 9327POPC   C3B62721  16.001  41.035   7.050
 9327POPC   C4B62722  15.965  40.983   7.350
 9328POPC   NC362723  28.345  40.761   5.550
 9328POPC   PO462724  28.339  40.811   5.850
 9328POPC   GL162725  28.418  40.784   6.150
 9328POPC   GL262726  28.398  40.934   6.150
 9328POPC   C1A62727  28.370  40.771   6.450
 9328POPC   D2A62728  28.377  40.733   6.750
 9328POPC   C3A62729  28.409  40.771   7.050
 9328POPC   C4A62730  28.335  40.743   7.350
 9328POPC   C1B62731  28.399  41.037   6.450
 9328POPC   C2B62732  28.436  41.035   6.750
 9328POPC   C3B62733  28.431  41.036   7.050
 9328POPC   C4B62734  28.443  41.057   7.350
 9329POPC   NC362735   0.394  15.991   5.550
 9329POPC   PO462736   0.404  15.965   5.850
 9329POPC   GL162737   0.424  15.999   6.150
 9329POPC   GL262738   0.518  15.991   6.150
 9329POPC   C1A62739   0.437  15.958   6.450
 9329POPC   D2A62740   0.430  15.918   6.750
 9329POPC   C3A62741   0.393  15.997   7.050
 9329POPC   C4A62742   0.391  15.927   7.350
 9329POPC   C1B62743   0.681  16.009   6.450
 9329POPC   C2B62744   0.695  16.024   6.750
 9329POPC   C3B62745   0.618  16.053   7.050
 9329POPC   C4B62746   0.680  16.040   7.350
 9330POPC   NC362747  37.659  22.182   5.550
 9330POPC   PO462748  37.713  22.206   5.850
 9330POPC   GL162749  37.670  22.201   6.150
 9330POPC   GL262750  37.694  22.004   6.150
 9330POPC   C1A62751  37.661  22.197   6.450
 9330POPC   D2A62752  37.672  22.118   6.750
 9330POPC   C3A62753  37.707  22.113   7.050
 9330POPC   C4A62754  37.666  22.150   7.350
 9330POPC   C1B62755  37.844  21.965   6.450
 9330POPC   C2B62756  37.787  21.919   6.750
 9330POPC   C3B62757  37.761  21.965   7.050
 9330POPC   C4B62758  37.812  21.955   7.350
 9331POPC   NC362759   0.425   5.107   5.550
 9331POPC   PO462760   0.395   5.089   5.850
 9331POPC   GL162761   0.400   5.089   6.150
 9331POPC   GL262762   0.517   5.177   6.150
 9331POPC   C1A62763   0.415   5.114   6.450
 9331POPC   D2A62764   0.415   5.112   6.750
 9331POPC   C3A62765   0.397   5.131   7.050
 9331POPC   C4A62766   0.405   5.058   7.350
 9331POPC   C1B62767   0.665   5.218   6.450
 9331POPC   C2B62768   0.621   5.232   6.750
 9331POPC   C3B62769   0.709   5.222   7.050
 9331POPC   C4B62770   0.626   5.187   7.350
 9332POPC   NC362771  17.522  28.398   5.550
 9332POPC   PO462772  17.532  28.369   5.850
 9332POPC   GL162773  17.498  28.379   6.150
 9332POPC   GL262774  17.572  28.418   6.150
 9332POPC   C1A62775  17.457  28.331   6.450
 9332POPC   D2A62776  17.523  28.409   6.750
 9332POPC   C3A62777  17.518  28.372   7.050
 9332POPC   C4A62778  17.479  28.374   7.350
 9332POPC   C1B62779  17.652  28.610   6.450
 9332POPC   C2B62780  17.664  28.533   6.750
 9332POPC   C3B62781  17.707  28.596   7.050
 9332POPC   C4B62782  17.662  28.607   7.350
 9333POPC   NC362783  19.872  36.933   5.550
 9333POPC   PO462784  19.829  36.897   5.850
 9333POPC   GL162785  19.862  36.944   6.150
 9333POPC   GL262786  19.728  36.921   6.150
 9333POPC   C1A62787  19.861  36.867   6.450
 9333POPC   D2A62788  19.800  36.858   6.750
 9333POPC   C3A62789  19.821  36.918   7.050
 9333POPC   C4A62790  19.810  36.876   7.350
 9333POPC   C1B62791  19.573  36.830   6.450
 9333POPC   C2B62792  19.552  36.884   6.750
 9333POPC   C3B62793  19.621  36.892   7.050
 9333POPC   C4B62794  19.567  36.861   7.350
 9334POPC   NC362795  44.654  37.728   5.550
 9334POPC   PO462796  44.699  37.646   5.850
 9334POPC   GL162797  44.678  37.658   6.150
 9334POPC   GL262798  44.610  37.751   6.150
 9334POPC   C1A62799  44.652  37.721   6.450
 9334POPC   D2A62800  44.704  37.728   6.750
 9334POPC   C3A62801  44.704  37.676   7.050
 9334POPC   C4A62802  44.702  37.729   7.350
 9334POPC   C1B62803  44.581  37.946   6.450
 9334POPC   C2B62804  44.621  37.920   6.750
 9334POPC   C3B62805  44.635  37.910   7.050
 9334POPC   C4B62806  44.558  37.877   7.350
 9335POPC   NC362807  33.002  19.033   5.550
 9335POPC   PO462808  33.054  19.049   5.850
 9335POPC   GL162809  33.011  19.028   6.150
 9335POPC   GL262810  32.898  19.159   6.150
 9335POPC   C1A62811  33.022  19.071   6.450
 9335POPC   D2A62812  33.038  19.056   6.750
 9335POPC   C3A62813  33.052  19.090   7.050
 9335POPC   C4A62814  33.008  19.098   7.350
 9335POPC   C1B62815  32.813  19.169   6.450
 9335POPC   C2B62816  32.765  19.207   6.750
 9335POPC   C3B62817  32.836  19.144   7.050
 9335POPC   C4B62818  32.751  19.209   7.350
 9336POPC   NC362819  20.571  27.585   5.550
 9336POPC   PO462820  20.586  27.563   5.850
 9336POPC   GL162821  20.580  27.546   6.150
 9336POPC   GL262822  20.581  27.727   6.150
 9336POPC   C1A62823  20.640  27.631   6.450
 9336POPC   D2A62824  20.647  27.635   6.750
 9336POPC   C3A62825  20.652  27.596   7.050
 9336POPC   C4A62826  20.601  27.549   7.350
 9336POPC   C1B62827  20.503  27.860   6.450
 9336POPC   C2B62828  20.525  27.784   6.750
 9336POPC   C3B62829  20.493  27.843   7.050
 9336POPC   C4B62830  20.477  27.793   7.350
 9337POPC   NC362831   7.454  37.691   5.550
 9337POPC   PO462832   7.442  37.678   5.850
 9337POPC   GL162833   7.466  37.699   6.150
 9337POPC   GL262834   7.547  37.671   6.150
 9337POPC   C1A62835   7.469  37.649   6.450
 9337POPC   D2A62836   7.413  37.665   6.750
 9337POPC   C3A62837   7.432  37.711   7.050
 9337POPC   C4A62838   7.410  37.664   7.350
 9337POPC   C1B62839   7.652  37.590   6.450
 9337POPC   C2B62840   7.638  37.600   6.750
 9337POPC   C3B62841   7.634  37.532   7.050
 9337POPC   C4B62842   7.611  37.607   7.350
 9338POPC   NC362843  22.913   1.186   5.550
 9338POPC   PO462844  22.958   1.242   5.850
 9338POPC   GL162845  22.919   1.165   6.150
 9338POPC   GL262846  22.999   1.090   6.150
 9338POPC   C1A62847  22.919   1.199   6.450
 9338POPC   D2A62848  22.983   1.215   6.750
 9338POPC   C3A62849  22.948   1.209   7.050
 9338POPC   C4A62850  22.927   1.240   7.350
 9338POPC   C1B62851  23.137   1.055   6.450
 9338POPC   C2B62852  23.117   0.987   6.750
 9338POPC   C3B62853  23.066   1.068   7.050
 9338POPC   C4B62854  23.056   1.043   7.350
 9339POPC   NC362855  16.764  41.584   5.550
 9339POPC   PO462856  16.763  41.589   5.850
 9339POPC   GL162857  16.716  41.560   6.150
 9339POPC   GL262858  16.680  41.394   6.150
 9339POPC   C1A62859  16.775  41.588   6.450
 9339POPC   D2A62860  16.757  41.591   6.750
 9339POPC   C3A62861  16.710  41.554   7.050
 9339POPC   C4A62862  16.700  41.542   7.350
 9339POPC   C1B62863  16.674  41.328   6.450
 9339POPC   C2B62864  16.729  41.301   6.750
 9339POPC   C3B62865  16.637  41.297   7.050
 9339POPC   C4B62866  16.659  41.358   7.350
 9340POPC   NC362867  37.657  23.736   5.550
 9340POPC   PO462868  37.684  23.685   5.850
 9340POPC   GL162869  37.634  23.679   6.150
 9340POPC   GL262870  37.776  23.596   6.150
 9340POPC   C1A62871  37.710  23.759   6.450
 9340POPC   D2A62872  37.712  23.716   6.750
 9340POPC   C3A62873  37.691  23.673   7.050
 9340POPC   C4A62874  37.645  23.689   7.350
 9340POPC   C1B62875  37.783  23.454   6.450
 9340POPC   C2B62876  37.773  23.499   6.750
 9340POPC   C3B62877  37.775  23.456   7.050
 9340POPC   C4B62878  37.833  23.529   7.350
 9341POPC   NC362879  39.234  15.966   5.550
 9341POPC   PO462880  39.192  15.938   5.850
 9341POPC   GL162881  39.234  15.969   6.150
 9341POPC   GL262882  39.207  15.807   6.150
 9341POPC   C1A62883  39.196  16.004   6.450
 9341POPC   D2A62884  39.189  15.980   6.750
 9341POPC   C3A62885  39.280  15.944   7.050
 9341POPC   C4A62886  39.266  15.932   7.350
 9341POPC   C1B62887  39.071  15.759   6.450
 9341POPC   C2B62888  39.149  15.713   6.750
 9341POPC   C3B62889  39.154  15.764   7.050
 9341POPC   C4B62890  39.150  15.741   7.350
 9342POPC   NC362891  37.729  33.753   5.550
 9342POPC   PO462892  37.724  33.824   5.850
 9342POPC   GL162893  37.656  33.832   6.150
 9342POPC   GL262894  37.532  33.743   6.150
 9342POPC   C1A62895  37.724  33.753   6.450
 9342POPC   D2A62896  37.685  33.822   6.750
 9342POPC   C3A62897  37.694  33.766   7.050
 9342POPC   C4A62898  37.630  33.759   7.350
 9342POPC   C1B62899  37.410  33.677   6.450
 9342POPC   C2B62900  37.473  33.706   6.750
 9342POPC   C3B62901  37.423  33.697   7.050
 9342POPC   C4B62902  37.483  33.749   7.350
 9343POPC   NC362903  34.596  24.522   5.550
 9343POPC   PO462904  34.535  24.509   5.850
 9343POPC   GL162905  34.564  24.478   6.150
 9343POPC   GL262906  34.604  24.604   6.150
 9343POPC   C1A62907  34.553  24.449   6.450
 9343POPC   D2A62908  34.547  24.515   6.750
 9343POPC   C3A62909  34.574  24.468   7.050
 9343POPC   C4A62910  34.560  24.450   7.350
 9343POPC   C1B62911  34.625  24.698   6.450
 9343POPC   C2B62912  34.634  24.773   6.750
 9343POPC   C3B62913  34.676  24.783   7.050
 9343POPC   C4B62914  34.675  24.753   7.350
 9344POPC   NC362915   1.965   2.757   5.550
 9344POPC   PO462916   2.032   2.776   5.850
 9344POPC   GL162917   2.006   2.783   6.150
 9344POPC   GL262918   2.099   2.641   6.150
 9344POPC   C1A62919   1.945   2.760   6.450
 9344POPC   D2A62920   2.010   2.771   6.750
 9344POPC   C3A62921   2.032   2.815   7.050
 9344POPC   C4A62922   2.032   2.813   7.350
 9344POPC   C1B62923   2.178   2.581   6.450
 9344POPC   C2B62924   2.185   2.533   6.750
 9344POPC   C3B62925   2.100   2.588   7.050
 9344POPC   C4B62926   2.141   2.529   7.350
 9345POPC   NC362927  35.332  20.604   5.550
 9345POPC   PO462928  35.303  20.605   5.850
 9345POPC   GL162929  35.370  20.636   6.150
 9345POPC   GL262930  35.388  20.745   6.150
 9345POPC   C1A62931  35.354  20.643   6.450
 9345POPC   D2A62932  35.382  20.571   6.750
 9345POPC   C3A62933  35.318  20.566   7.050
 9345POPC   C4A62934  35.324  20.621   7.350
 9345POPC   C1B62935  35.506  20.780   6.450
 9345POPC   C2B62936  35.479  20.772   6.750
 9345POPC   C3B62937  35.521  20.791   7.050
 9345POPC   C4B62938  35.558  20.753   7.350
 9346POPC   NC362939   1.954  11.255   5.550
 9346POPC   PO462940   1.944  11.291   5.850
 9346POPC   GL162941   1.959  11.332   6.150
 9346POPC   GL262942   2.071  11.412   6.150
 9346POPC   C1A62943   1.981  11.274   6.450
 9346POPC   D2A62944   2.009  11.262   6.750
 9346POPC   C3A62945   1.955  11.327   7.050
 9346POPC   C4A62946   2.026  11.268   7.350
 9346POPC   C1B62947   2.137  11.499   6.450
 9346POPC   C2B62948   2.160  11.482   6.750
 9346POPC   C3B62949   2.081  11.508   7.050
 9346POPC   C4B62950   2.139  11.535   7.350
 9347POPC   NC362951   4.330  12.890   5.550
 9347POPC   PO462952   4.328  12.828   5.850
 9347POPC   GL162953   4.339  12.877   6.150
 9347POPC   GL262954   4.295  12.684   6.150
 9347POPC   C1A62955   4.291  12.877   6.450
 9347POPC   D2A62956   4.308  12.842   6.750
 9347POPC   C3A62957   4.302  12.864   7.050
 9347POPC   C4A62958   4.326  12.863   7.350
 9347POPC   C1B62959   4.218  12.658   6.450
 9347POPC   C2B62960   4.277  12.628   6.750
 9347POPC   C3B62961   4.217  12.581   7.050
 9347POPC   C4B62962   4.202  12.610   7.350
 9348POPC   NC362963  35.325   4.297   5.550
 9348POPC   PO462964  35.388   4.269   5.850
 9348POPC   GL162965  35.329   4.357   6.150
 9348POPC   GL262966  35.273   4.412   6.150
 9348POPC   C1A62967  35.356   4.346   6.450
 9348POPC   D2A62968  35.310   4.358   6.750
 9348POPC   C3A62969  35.385   4.358   7.050
 9348POPC   C4A62970  35.397   4.294   7.350
 9348POPC   C1B62971  35.183   4.462   6.450
 9348POPC   C2B62972  35.194   4.472   6.750
 9348POPC   C3B62973  35.150   4.457   7.050
 9348POPC   C4B62974  35.134   4.490   7.350
 9349POPC   NC362975  19.039  16.710   5.550
 9349POPC   PO462976  19.034  16.757   5.850
 9349POPC   GL162977  19.101  16.703   6.150
 9349POPC   GL262978  18.948  16.718   6.150
 9349POPC   C1A62979  19.037  16.722   6.450
 9349POPC   D2A62980  19.084  16.746   6.750
 9349POPC   C3A62981  19.057  16.761   7.050
 9349POPC   C4A62982  19.089  16.770   7.350
 9349POPC   C1B62983  18.820  16.659   6.450
 9349POPC   C2B62984  18.843  16.663   6.750
 9349POPC   C3B62985  18.774  16.709   7.050
 9349POPC   C4B62986  18.849  16.668   7.350
 9350POPC   NC362987  38.456  35.395   5.550
 9350POPC   PO462988  38.431  35.340   5.850
 9350POPC   GL162989  38.465  35.396   6.150
 9350POPC   GL262990  38.372  35.365   6.150
 9350POPC   C1A62991  38.441  35.317   6.450
 9350POPC   D2A62992  38.472  35.353   6.750
 9350POPC   C3A62993  38.417  35.375   7.050
 9350POPC   C4A62994  38.461  35.372   7.350
 9350POPC   C1B62995  38.178  35.297   6.450
 9350POPC   C2B62996  38.196  35.321   6.750
 9350POPC   C3B62997  38.171  35.278   7.050
 9350POPC   C4B62998  38.235  35.302   7.350
 9351POPC   NC362999   7.452  23.726   5.550
 9351POPC   PO463000   7.467  23.671   5.850
 9351POPC   GL163001   7.377  23.742   6.150
 9351POPC   GL263002   7.390  23.575   6.150
 9351POPC   C1A63003   7.387  23.690   6.450
 9351POPC   D2A63004   7.374  23.690   6.750
 9351POPC   C3A63005   7.469  23.703   7.050
 9351POPC   C4A63006   7.389  23.711   7.350
 9351POPC   C1B63007   7.391  23.448   6.450
 9351POPC   C2B63008   7.366  23.437   6.750
 9351POPC   C3B63009   7.429  23.430   7.050
 9351POPC   C4B63010   7.400  23.442   7.350
 9352POPC   NC363011  18.250  25.231   5.550
 9352POPC   PO463012  18.261  25.300   5.850
 9352POPC   GL163013  18.305  25.308   6.150
 9352POPC   GL263014  18.418  25.230   6.150
 9352POPC   C1A63015  18.252  25.287   6.450
 9352POPC   D2A63016  18.297  25.276   6.750
 9352POPC   C3A63017  18.318  25.254   7.050
 9352POPC   C4A63018  18.247  25.246   7.350
 9352POPC   C1B63019  18.534  25.178   6.450
 9352POPC   C2B63020  18.485  25.194   6.750
 9352POPC   C3B63021  18.480  25.137   7.050
 9352POPC   C4B63022  18.525  25.236   7.350
 9353POPC   NC363023  18.241  19.872   5.550
 9353POPC   PO463024  18.311  19.874   5.850
 9353POPC   GL163025  18.248  19.860   6.150
 9353POPC   GL263026  18.274  19.667   6.150
 9353POPC   C1A63027  18.240  19.862   6.450
 9353POPC   D2A63028  18.304  19.794   6.750
 9353POPC   C3A63029  18.248  19.879   7.050
 9353POPC   C4A63030  18.328  19.854   7.350
 9353POPC   C1B63031  18.341  19.594   6.450
 9353POPC   C2B63032  18.350  19.590   6.750
 9353POPC   C3B63033  18.373  19.609   7.050
 9353POPC   C4B63034  18.312  19.564   7.350
 9354POPC   NC363035  39.224  21.415   5.550
 9354POPC   PO463036  39.183  21.393   5.850
 9354POPC   GL163037  39.226  21.341   6.150
 9354POPC   GL263038  39.381  21.391   6.150
 9354POPC   C1A63039  39.235  21.365   6.450
 9354POPC   D2A63040  39.224  21.349   6.750
 9354POPC   C3A63041  39.184  21.402   7.050
 9354POPC   C4A63042  39.227  21.369   7.350
 9354POPC   C1B63043  39.439  21.361   6.450
 9354POPC   C2B63044  39.473  21.445   6.750
 9354POPC   C3B63045  39.466  21.362   7.050
 9354POPC   C4B63046  39.464  21.443   7.350
 9355POPC   NC363047  10.485  40.794   5.550
 9355POPC   PO463048  10.531  40.828   5.850
 9355POPC   GL163049  10.570  40.754   6.150
 9355POPC   GL263050  10.470  40.665   6.150
 9355POPC   C1A63051  10.512  40.771   6.450
 9355POPC   D2A63052  10.527  40.824   6.750
 9355POPC   C3A63053  10.540  40.756   7.050
 9355POPC   C4A63054  10.478  40.740   7.350
 9355POPC   C1B63055  10.439  40.499   6.450
 9355POPC   C2B63056  10.533  40.549   6.750
 9355POPC   C3B63057  10.464  40.501   7.050
 9355POPC   C4B63058  10.499  40.543   7.350
 9356POPC   NC363059   7.463   1.211   5.550
 9356POPC   PO463060   7.396   1.254   5.850
 9356POPC   GL163061   7.470   1.250   6.150
 9356POPC   GL263062   7.435   1.145   6.150
 9356POPC   C1A63063   7.402   1.250   6.450
 9356POPC   D2A63064   7.396   1.206   6.750
 9356POPC   C3A63065   7.460   1.170   7.050
 9356POPC   C4A63066   7.452   1.184   7.350
 9356POPC   C1B63067   7.504   0.981   6.450
 9356POPC   C2B63068   7.553   0.974   6.750
 9356POPC   C3B63069   7.545   1.035   7.050
 9356POPC   C4B63070   7.542   0.980   7.350
 9357POPC   NC363071  12.877  39.983   5.550
 9357POPC   PO463072  12.812  40.013   5.850
 9357POPC   GL163073  12.866  39.958   6.150
 9357POPC   GL263074  12.805  40.123   6.150
 9357POPC   C1A63075  12.868  40.056   6.450
 9357POPC   D2A63076  12.807  39.994   6.750
 9357POPC   C3A63077  12.825  40.036   7.050
 9357POPC   C4A63078  12.860  39.993   7.350
 9357POPC   C1B63079  12.669  40.229   6.450
 9357POPC   C2B63080  12.648  40.204   6.750
 9357POPC   C3B63081  12.694  40.218   7.050
 9357POPC   C4B63082  12.667  40.226   7.350
 9358POPC   NC363083  18.316   5.858   5.550
 9358POPC   PO463084  18.254   5.868   5.850
 9358POPC   GL163085  18.240   5.882   6.150
 9358POPC   GL263086  18.201   5.792   6.150
 9358POPC   C1A63087  18.289   5.819   6.450
 9358POPC   D2A63088  18.255   5.908   6.750
 9358POPC   C3A63089  18.292   5.829   7.050
 9358POPC   C4A63090  18.305   5.836   7.350
 9358POPC   C1B63091  18.123   5.649   6.450
 9358POPC   C2B63092  18.182   5.669   6.750
 9358POPC   C3B63093  18.209   5.659   7.050
 9358POPC   C4B63094  18.165   5.598   7.350
 9359POPC   NC363095   9.701  35.323   5.550
 9359POPC   PO463096   9.755  35.349   5.850
 9359POPC   GL163097   9.755  35.384   6.150
 9359POPC   GL263098   9.760  35.268   6.150
 9359POPC   C1A63099   9.718  35.347   6.450
 9359POPC   D2A63100   9.775  35.350   6.750
 9359POPC   C3A63101   9.700  35.391   7.050
 9359POPC   C4A63102   9.732  35.305   7.350
 9359POPC   C1B63103   9.714  35.150   6.450
 9359POPC   C2B63104   9.742  35.134   6.750
 9359POPC   C3B63105   9.696  35.081   7.050
 9359POPC   C4B63106   9.738  35.136   7.350
 9360POPC   NC363107  41.570  27.570   5.550
 9360POPC   PO463108  41.516  27.611   5.850
 9360POPC   GL163109  41.575  27.600   6.150
 9360POPC   GL263110  41.474  27.726   6.150
 9360POPC   C1A63111  41.548  27.602   6.450
 9360POPC   D2A63112  41.584  27.637   6.750
 9360POPC   C3A63113  41.576  27.555   7.050
 9360POPC   C4A63114  41.586  27.638   7.350
 9360POPC   C1B63115  41.380  27.776   6.450
 9360POPC   C2B63116  41.439  27.824   6.750
 9360POPC   C3B63117  41.386  27.836   7.050
 9360POPC   C4B63118  41.389  27.791   7.350
 9361POPC   NC363119  28.407   5.877   5.550
 9361POPC   PO463120  28.323   5.887   5.850
 9361POPC   GL163121  28.392   5.845   6.150
 9361POPC   GL263122  28.524   5.896   6.150
 9361POPC   C1A63123  28.347   5.841   6.450
 9361POPC   D2A63124  28.336   5.833   6.750
 9361POPC   C3A63125  28.405   5.871   7.050
 9361POPC   C4A63126  28.386   5.840   7.350
 9361POPC   C1B63127  28.548   5.970   6.450
 9361POPC   C2B63128  28.575   5.957   6.750
 9361POPC   C3B63129  28.546   5.937   7.050
 9361POPC   C4B63130  28.577   6.021   7.350
 9362POPC   NC363131  30.675  10.538   5.550
 9362POPC   PO463132  30.657  10.523   5.850
 9362POPC   GL163133  30.705  10.515   6.150
 9362POPC   GL263134  30.732  10.363   6.150
 9362POPC   C1A63135  30.714  10.486   6.450
 9362POPC   D2A63136  30.733  10.478   6.750
 9362POPC   C3A63137  30.707  10.490   7.050
 9362POPC   C4A63138  30.661  10.540   7.350
 9362POPC   C1B63139  30.729  10.294   6.450
 9362POPC   C2B63140  30.766  10.255   6.750
 9362POPC   C3B63141  30.810  10.297   7.050
 9362POPC   C4B63142  30.810  10.322   7.350
 9363POPC   NC363143   6.605   4.321   5.550
 9363POPC   PO463144   6.601   4.346   5.850
 9363POPC   GL163145   6.640   4.322   6.150
 9363POPC   GL263146   6.660   4.379   6.150
 9363POPC   C1A63147   6.668   4.330   6.450
 9363POPC   D2A63148   6.644   4.299   6.750
 9363POPC   C3A63149   6.680   4.326   7.050
 9363POPC   C4A63150   6.689   4.322   7.350
 9363POPC   C1B63151   6.809   4.556   6.450
 9363POPC   C2B63152   6.810   4.556   6.750
 9363POPC   C3B63153   6.812   4.560   7.050
 9363POPC   C4B63154   6.808   4.502   7.350
 9364POPC   NC363155  40.808  24.476   5.550
 9364POPC   PO463156  40.736  24.473   5.850
 9364POPC   GL163157  40.768  24.497   6.150
 9364POPC   GL263158  40.825  24.603   6.150
 9364POPC   C1A63159  40.819  24.475   6.450
 9364POPC   D2A63160  40.798  24.501   6.750
 9364POPC   C3A63161  40.743  24.520   7.050
 9364POPC   C4A63162  40.831  24.484   7.350
 9364POPC   C1B63163  40.857  24.696   6.450
 9364POPC   C2B63164  40.869  24.691   6.750
 9364POPC   C3B63165  40.907  24.765   7.050
 9364POPC   C4B63166  40.846  24.676   7.350
 9365POPC   NC363167  44.706  15.169   5.550
 9365POPC   PO463168  44.633  15.224   5.850
 9365POPC   GL163169  44.662  15.215   6.150
 9365POPC   GL263170  44.793  15.083   6.150
 9365POPC   C1A63171  44.655  15.152   6.450
 9365POPC   D2A63172  44.698  15.174   6.750
 9365POPC   C3A63173  44.658  15.201   7.050
 9365POPC   C4A63174  44.634  15.198   7.350
 9365POPC   C1B63175  44.793  14.996   6.450
 9365POPC   C2B63176  44.797  15.017   6.750
 9365POPC   C3B63177  44.819  15.006   7.050
 9365POPC   C4B63178  44.848  14.965   7.350
 9366POPC   NC363179  37.723  15.130   5.550
 9366POPC   PO463180  37.699  15.149   5.850
 9366POPC   GL163181  37.679  15.146   6.150
 9366POPC   GL263182  37.650  15.334   6.150
 9366POPC   C1A63183  37.641  15.196   6.450
 9366POPC   D2A63184  37.717  15.151   6.750
 9366POPC   C3A63185  37.708  15.210   7.050
 9366POPC   C4A63186  37.669  15.166   7.350
 9366POPC   C1B63187  37.597  15.451   6.450
 9366POPC   C2B63188  37.645  15.446   6.750
 9366POPC   C3B63189  37.593  15.389   7.050
 9366POPC   C4B63190  37.634  15.450   7.350
 9367POPC   NC363191  38.459  39.208   5.550
 9367POPC   PO463192  38.495  39.226   5.850
 9367POPC   GL163193  38.488  39.208   6.150
 9367POPC   GL263194  38.571  39.214   6.150
 9367POPC   C1A63195  38.421  39.259   6.450
 9367POPC   D2A63196  38.495  39.272   6.750
 9367POPC   C3A63197  38.497  39.221   7.050
 9367POPC   C4A63198  38.437  39.261   7.350
 9367POPC   C1B63199  38.724  39.220   6.450
 9367POPC   C2B63200  38.739  39.188   6.750
 9367POPC   C3B63201  38.705  39.226   7.050
 9367POPC   C4B63202  38.747  39.209   7.350
 9368POPC   NC363203  12.869  19.880   5.550
 9368POPC   PO463204  12.868  19.859   5.850
 9368POPC   GL163205  12.858  19.877   6.150
 9368POPC   GL263206  12.794  19.670   6.150
 9368POPC   C1A63207  12.865  19.867   6.450
 9368POPC   D2A63208  12.876  19.794   6.750
 9368POPC   C3A63209  12.898  19.864   7.050
 9368POPC   C4A63210  12.859  19.786   7.350
 9368POPC   C1B63211  12.792  19.544   6.450
 9368POPC   C2B63212  12.795  19.569   6.750
 9368POPC   C3B63213  12.820  19.630   7.050
 9368POPC   C4B63214  12.807  19.548   7.350
 9369POPC   NC363215   5.092  14.447   5.550
 9369POPC   PO463216   5.102  14.418   5.850
 9369POPC   GL163217   5.081  14.434   6.150
 9369POPC   GL263218   5.171  14.373   6.150
 9369POPC   C1A63219   5.043  14.373   6.450
 9369POPC   D2A63220   5.077  14.422   6.750
 9369POPC   C3A63221   5.045  14.450   7.050
 9369POPC   C4A63222   5.138  14.433   7.350
 9369POPC   C1B63223   5.310  14.271   6.450
 9369POPC   C2B63224   5.361  14.281   6.750
 9369POPC   C3B63225   5.301  14.273   7.050
 9369POPC   C4B63226   5.359  14.286   7.350
 9370POPC   NC363227   3.535  36.883   5.550
 9370POPC   PO463228   3.568  36.861   5.850
 9370POPC   GL163229   3.495  36.893   6.150
 9370POPC   GL263230   3.668  36.929   6.150
 9370POPC   C1A63231   3.553  36.875   6.450
 9370POPC   D2A63232   3.520  36.916   6.750
 9370POPC   C3A63233   3.541  36.923   7.050
 9370POPC   C4A63234   3.510  36.946   7.350
 9370POPC   C1B63235   3.773  36.936   6.450
 9370POPC   C2B63236   3.789  36.882   6.750
 9370POPC   C3B63237   3.775  36.917   7.050
 9370POPC   C4B63238   3.764  36.898   7.350
 9371POPC   NC363239  12.839  19.063   5.550
 9371POPC   PO463240  12.877  19.042   5.850
 9371POPC   GL163241  12.860  19.040   6.150
 9371POPC   GL263242  12.892  19.140   6.150
 9371POPC   C1A63243  12.820  19.027   6.450
 9371POPC   D2A63244  12.896  19.055   6.750
 9371POPC   C3A63245  12.835  19.020   7.050
 9371POPC   C4A63246  12.840  19.097   7.350
 9371POPC   C1B63247  12.882  19.300   6.450
 9371POPC   C2B63248  12.898  19.269   6.750
 9371POPC   C3B63249  12.829  19.273   7.050
 9371POPC   C4B63250  12.855  19.283   7.350
 9372POPC   NC363251  26.036  28.347   5.550
 9372POPC   PO463252  26.072  28.324   5.850
 9372POPC   GL163253  26.001  28.352   6.150
 9372POPC   GL263254  26.111  28.479   6.150
 9372POPC   C1A63255  26.072  28.407   6.450
 9372POPC   D2A63256  26.074  28.362   6.750
 9372POPC   C3A63257  26.025  28.341   7.050
 9372POPC   C4A63258  26.062  28.354   7.350
 9372POPC   C1B63259  26.139  28.607   6.450
 9372POPC   C2B63260  26.077  28.570   6.750
 9372POPC   C3B63261  26.103  28.577   7.050
 9372POPC   C4B63262  26.138  28.570   7.350
 9373POPC   NC363263  17.479  35.329   5.550
 9373POPC   PO463264  17.457  35.338   5.850
 9373POPC   GL163265  17.545  35.401   6.150
 9373POPC   GL263266  17.611  35.284   6.150
 9373POPC   C1A63267  17.506  35.391   6.450
 9373POPC   D2A63268  17.541  35.360   6.750
 9373POPC   C3A63269  17.473  35.347   7.050
 9373POPC   C4A63270  17.542  35.346   7.350
 9373POPC   C1B63271  17.726  35.232   6.450
 9373POPC   C2B63272  17.768  35.266   6.750
 9373POPC   C3B63273  17.720  35.237   7.050
 9373POPC   C4B63274  17.701  35.261   7.350
 9374POPC   NC363275  40.736  14.354   5.550
 9374POPC   PO463276  40.784  14.416   5.850
 9374POPC   GL163277  40.826  14.410   6.150
 9374POPC   GL263278  40.863  14.368   6.150
 9374POPC   C1A63279  40.833  14.384   6.450
 9374POPC   D2A63280  40.796  14.437   6.750
 9374POPC   C3A63281  40.764  14.419   7.050
 9374POPC   C4A63282  40.819  14.412   7.350
 9374POPC   C1B63283  41.051  14.362   6.450
 9374POPC   C2B63284  40.985  14.433   6.750
 9374POPC   C3B63285  40.989  14.349   7.050
 9374POPC   C4B63286  41.069  14.395   7.350
 9375POPC   NC363287  22.163  12.878   5.550
 9375POPC   PO463288  22.193  12.844   5.850
 9375POPC   GL163289  22.203  12.889   6.150
 9375POPC   GL263290  22.029  12.817   6.150
 9375POPC   C1A63291  22.124  12.843   6.450
 9375POPC   D2A63292  22.203  12.806   6.750
 9375POPC   C3A63293  22.197  12.838   7.050
 9375POPC   C4A63294  22.121  12.861   7.350
 9375POPC   C1B63295  21.948  12.683   6.450
 9375POPC   C2B63296  21.962  12.715   6.750
 9375POPC   C3B63297  21.935  12.738   7.050
 9375POPC   C4B63298  21.896  12.684   7.350
 9376POPC   NC363299  39.261  43.128   5.550
 9376POPC   PO463300  39.255  43.071   5.850
 9376POPC   GL163301  39.250  43.158   6.150
 9376POPC   GL263302  39.133  43.230   6.150
 9376POPC   C1A63303  39.225  43.108   6.450
 9376POPC   D2A63304  39.200  43.159   6.750
 9376POPC   C3A63305  39.243  43.126   7.050
 9376POPC   C4A63306  39.256  43.157   7.350
 9376POPC   C1B63307  39.106  43.290   6.450
 9376POPC   C2B63308  39.105  43.301   6.750
 9376POPC   C3B63309  39.049  43.303   7.050
 9376POPC   C4B63310  39.095  43.355   7.350
 9377POPC   NC363311  16.745  34.596   5.550
 9377POPC   PO463312  16.723  34.624   5.850
 9377POPC   GL163313  16.704  34.583   6.150
 9377POPC   GL263314  16.669  34.495   6.150
 9377POPC   C1A63315  16.712  34.589   6.450
 9377POPC   D2A63316  16.710  34.542   6.750
 9377POPC   C3A63317  16.720  34.612   7.050
 9377POPC   C4A63318  16.781  34.621   7.350
 9377POPC   C1B63319  16.711  34.292   6.450
 9377POPC   C2B63320  16.737  34.290   6.750
 9377POPC   C3B63321  16.692  34.346   7.050
 9377POPC   C4B63322  16.668  34.331   7.350
 9378POPC   NC363323   8.999  43.072   5.550
 9378POPC   PO463324   8.996  43.113   5.850
 9378POPC   GL163325   8.976  43.141   6.150
 9378POPC   GL263326   9.144  43.166   6.150
 9378POPC   C1A63327   9.007  43.077   6.450
 9378POPC   D2A63328   8.927  43.096   6.750
 9378POPC   C3A63329   8.974  43.082   7.050
 9378POPC   C4A63330   9.012  43.143   7.350
 9378POPC   C1B63331   9.258  43.181   6.450
 9378POPC   C2B63332   9.253  43.200   6.750
 9378POPC   C3B63333   9.224  43.135   7.050
 9378POPC   C4B63334   9.199  43.170   7.350
 9379POPC   NC363335  18.248  24.472   5.550
 9379POPC   PO463336  18.272  24.473   5.850
 9379POPC   GL163337  18.270  24.518   6.150
 9379POPC   GL263338  18.251  24.392   6.150
 9379POPC   C1A63339  18.296  24.491   6.450
 9379POPC   D2A63340  18.321  24.448   6.750
 9379POPC   C3A63341  18.237  24.463   7.050
 9379POPC   C4A63342  18.294  24.502   7.350
 9379POPC   C1B63343  18.130  24.242   6.450
 9379POPC   C2B63344  18.174  24.265   6.750
 9379POPC   C3B63345  18.145  24.270   7.050
 9379POPC   C4B63346  18.182  24.271   7.350
 9380POPC   NC363347  21.372   1.231   5.550
 9380POPC   PO463348  21.370   1.180   5.850
 9380POPC   GL163349  21.419   1.228   6.150
 9380POPC   GL263350  21.231   1.243   6.150
 9380POPC   C1A63351  21.340   1.210   6.450
 9380POPC   D2A63352  21.410   1.197   6.750
 9380POPC   C3A63353  21.340   1.172   7.050
 9380POPC   C4A63354  21.352   1.221   7.350
 9380POPC   C1B63355  21.212   1.292   6.450
 9380POPC   C2B63356  21.189   1.378   6.750
 9380POPC   C3B63357  21.182   1.339   7.050
 9380POPC   C4B63358  21.178   1.344   7.350
 9381POPC   NC363359   2.798   7.392   5.550
 9381POPC   PO463360   2.740   7.387   5.850
 9381POPC   GL163361   2.808   7.469   6.150
 9381POPC   GL263362   2.873   7.509   6.150
 9381POPC   C1A63363   2.768   7.394   6.450
 9381POPC   D2A63364   2.795   7.386   6.750
 9381POPC   C3A63365   2.804   7.414   7.050
 9381POPC   C4A63366   2.761   7.425   7.350
 9381POPC   C1B63367   2.950   7.493   6.450
 9381POPC   C2B63368   3.021   7.531   6.750
 9381POPC   C3B63369   2.939   7.559   7.050
 9381POPC   C4B63370   3.021   7.562   7.350
 9382POPC   NC363371  33.038  22.907   5.550
 9382POPC   PO463372  32.989  22.895   5.850
 9382POPC   GL163373  33.006  22.892   6.150
 9382POPC   GL263374  33.123  22.826   6.150
 9382POPC   C1A63375  33.033  22.892   6.450
 9382POPC   D2A63376  33.013  22.986   6.750
 9382POPC   C3A63377  32.977  22.912   7.050
 9382POPC   C4A63378  33.015  22.958   7.350
 9382POPC   C1B63379  33.253  22.766   6.450
 9382POPC   C2B63380  33.168  22.726   6.750
 9382POPC   C3B63381  33.257  22.790   7.050
 9382POPC   C4B63382  33.170  22.804   7.350
 9383POPC   NC363383  29.152  36.865   5.550
 9383POPC   PO463384  29.164  36.944   5.850
 9383POPC   GL163385  29.154  36.874   6.150
 9383POPC   GL263386  29.263  36.803   6.150
 9383POPC   C1A63387  29.124  36.945   6.450
 9383POPC   D2A63388  29.183  36.939   6.750
 9383POPC   C3A63389  29.137  36.861   7.050
 9383POPC   C4A63390  29.098  36.897   7.350
 9383POPC   C1B63391  29.321  36.740   6.450
 9383POPC   C2B63392  29.240  36.670   6.750
 9383POPC   C3B63393  29.255  36.652   7.050
 9383POPC   C4B63394  29.261  36.732   7.350
 9384POPC   NC363395   1.213  10.479   5.550
 9384POPC   PO463396   1.218  10.539   5.850
 9384POPC   GL163397   1.167  10.487   6.150
 9384POPC   GL263398   1.349  10.496   6.150
 9384POPC   C1A63399   1.263  10.535   6.450
 9384POPC   D2A63400   1.246  10.484   6.750
 9384POPC   C3A63401   1.185  10.494   7.050
 9384POPC   C4A63402   1.204  10.571   7.350
 9384POPC   C1B63403   1.421  10.460   6.450
 9384POPC   C2B63404   1.490  10.530   6.750
 9384POPC   C3B63405   1.439  10.528   7.050
 9384POPC   C4B63406   1.422  10.534   7.350
 9385POPC   NC363407  41.582  13.593   5.550
 9385POPC   PO463408  41.560  13.583   5.850
 9385POPC   GL163409  41.558  13.588   6.150
 9385POPC   GL263410  41.503  13.496   6.150
 9385POPC   C1A63411  41.579  13.638   6.450
 9385POPC   D2A63412  41.528  13.656   6.750
 9385POPC   C3A63413  41.576  13.610   7.050
 9385POPC   C4A63414  41.592  13.671   7.350
 9385POPC   C1B63415  41.474  13.374   6.450
 9385POPC   C2B63416  41.557  13.351   6.750
 9385POPC   C3B63417  41.476  13.379   7.050
 9385POPC   C4B63418  41.482  13.340   7.350
 9386POPC   NC363419   3.509  44.629   5.550
 9386POPC   PO463420   3.545  44.649   5.850
 9386POPC   GL163421   3.493  44.707   6.150
 9386POPC   GL263422   3.408  44.751   6.150
 9386POPC   C1A63423   3.587  44.617   6.450
 9386POPC   D2A63424   3.499  44.638   6.750
 9386POPC   C3A63425   3.520  44.645   7.050
 9386POPC   C4A63426   3.514  44.707   7.350
 9386POPC   C1B63427   3.303  44.820   6.450
 9386POPC   C2B63428   3.325  44.747   6.750
 9386POPC   C3B63429   3.369  44.738   7.050
 9386POPC   C4B63430   3.361  44.810   7.350
 9387POPC   NC363431  39.217  25.311   5.550
 9387POPC   PO463432  39.232  25.262   5.850
 9387POPC   GL163433  39.237  25.273   6.150
 9387POPC   GL263434  39.251  25.349   6.150
 9387POPC   C1A63435  39.232  25.311   6.450
 9387POPC   D2A63436  39.236  25.263   6.750
 9387POPC   C3A63437  39.280  25.227   7.050
 9387POPC   C4A63438  39.223  25.246   7.350
 9387POPC   C1B63439  39.282  25.468   6.450
 9387POPC   C2B63440  39.353  25.456   6.750
 9387POPC   C3B63441  39.307  25.462   7.050
 9387POPC   C4B63442  39.261  25.478   7.350
 9388POPC   NC363443  43.926  11.321   5.550
 9388POPC   PO463444  43.918  11.300   5.850
 9388POPC   GL163445  43.930  11.276   6.150
 9388POPC   GL263446  43.958  11.387   6.150
 9388POPC   C1A63447  43.919  11.289   6.450
 9388POPC   D2A63448  43.859  11.306   6.750
 9388POPC   C3A63449  43.849  11.285   7.050
 9388POPC   C4A63450  43.904  11.308   7.350
 9388POPC   C1B63451  44.087  11.395   6.450
 9388POPC   C2B63452  44.072  11.434   6.750
 9388POPC   C3B63453  44.044  11.434   7.050
 9388POPC   C4B63454  44.077  11.437   7.350
 9389POPC   NC363455  14.424  35.379   5.550
 9389POPC   PO463456  14.395  35.387   5.850
 9389POPC   GL163457  14.380  35.347   6.150
 9389POPC   GL263458  14.524  35.423   6.150
 9389POPC   C1A63459  14.412  35.359   6.450
 9389POPC   D2A63460  14.453  35.354   6.750
 9389POPC   C3A63461  14.382  35.305   7.050
 9389POPC   C4A63462  14.394  35.384   7.350
 9389POPC   C1B63463  14.614  35.554   6.450
 9389POPC   C2B63464  14.540  35.517   6.750
 9389POPC   C3B63465  14.583  35.510   7.050
 9389POPC   C4B63466  14.587  35.592   7.350
 9390POPC   NC363467   1.217  44.712   5.550
 9390POPC   PO463468   1.195  44.614   5.850
 9390POPC   GL163469   1.204  44.650   6.150
 9390POPC   GL263470   1.337  44.688   6.150
 9390POPC   C1A63471   1.172  44.644   6.450
 9390POPC   D2A63472   1.238  44.629   6.750
 9390POPC   C3A63473   1.257  44.670   7.050
 9390POPC   C4A63474   1.263  44.681   7.350
 9390POPC   C1B63475   1.444  44.763   6.450
 9390POPC   C2B63476   1.413  44.765   6.750
 9390POPC   C3B63477   1.456  44.790   7.050
 9390POPC   C4B63478   1.466  44.780   7.350
 9391POPC   NC363479  44.656  43.146   5.550
 9391POPC   PO463480  44.639  43.103   5.850
 9391POPC   GL163481  44.622  43.129   6.150
 9391POPC   GL263482  44.515  43.063   6.150
 9391POPC   C1A63483  44.656  43.081   6.450
 9391POPC   D2A63484  44.655  43.080   6.750
 9391POPC   C3A63485  44.671  43.111   7.050
 9391POPC   C4A63486  44.706  43.119   7.350
 9391POPC   C1B63487  44.414  43.053   6.450
 9391POPC   C2B63488  44.441  43.057   6.750
 9391POPC   C3B63489  44.413  42.999   7.050
 9391POPC   C4B63490  44.449  42.984   7.350
 9392POPC   NC363491   0.415  29.878   5.550
 9392POPC   PO463492   0.445  29.896   5.850
 9392POPC   GL163493   0.395  29.963   6.150
 9392POPC   GL263494   0.313  29.888   6.150
 9392POPC   C1A63495   0.391  29.907   6.450
 9392POPC   D2A63496   0.452  29.897   6.750
 9392POPC   C3A63497   0.418  29.934   7.050
 9392POPC   C4A63498   0.437  29.936   7.350
 9392POPC   C1B63499   0.171  29.881   6.450
 9392POPC   C2B63500   0.181  29.861   6.750
 9392POPC   C3B63501   0.211  29.873   7.050
 9392POPC   C4B63502   0.213  29.797   7.350
 9393POPC   NC363503  35.381  30.674   5.550
 9393POPC   PO463504  35.340  30.702   5.850
 9393POPC   GL163505  35.344  30.726   6.150
 9393POPC   GL263506  35.471  30.742   6.150
 9393POPC   C1A63507  35.321  30.665   6.450
 9393POPC   D2A63508  35.342  30.648   6.750
 9393POPC   C3A63509  35.334  30.702   7.050
 9393POPC   C4A63510  35.315  30.662   7.350
 9393POPC   C1B63511  35.587  30.787   6.450
 9393POPC   C2B63512  35.625  30.821   6.750
 9393POPC   C3B63513  35.609  30.779   7.050
 9393POPC   C4B63514  35.558  30.821   7.350
 9394POPC   NC363515  14.433  30.699   5.550
 9394POPC   PO463516  14.423  30.675   5.850
 9394POPC   GL163517  14.443  30.729   6.150
 9394POPC   GL263518  14.536  30.677   6.150
 9394POPC   C1A63519  14.386  30.693   6.450
 9394POPC   D2A63520  14.360  30.721   6.750
 9394POPC   C3A63521  14.365  30.700   7.050
 9394POPC   C4A63522  14.378  30.715   7.350
 9394POPC   C1B63523  14.595  30.638   6.450
 9394POPC   C2B63524  14.645  30.583   6.750
 9394POPC   C3B63525  14.668  30.572   7.050
 9394POPC   C4B63526  14.633  30.551   7.350
 9395POPC   NC363527  22.128  39.181   5.550
 9395POPC   PO463528  22.175  39.221   5.850
 9395POPC   GL163529  22.148  39.266   6.150
 9395POPC   GL263530  22.273  39.306   6.150
 9395POPC   C1A63531  22.209  39.247   6.450
 9395POPC   D2A63532  22.137  39.211   6.750
 9395POPC   C3A63533  22.162  39.194   7.050
 9395POPC   C4A63534  22.123  39.194   7.350
 9395POPC   C1B63535  22.361  39.309   6.450
 9395POPC   C2B63536  22.357  39.315   6.750
 9395POPC   C3B63537  22.412  39.301   7.050
 9395POPC   C4B63538  22.406  39.254   7.350
 9396POPC   NC363539  17.545  43.102   5.550
 9396POPC   PO463540  17.538  43.122   5.850
 9396POPC   GL163541  17.478  43.089   6.150
 9396POPC   GL263542  17.558  43.024   6.150
 9396POPC   C1A63543  17.487  43.121   6.450
 9396POPC   D2A63544  17.492  43.081   6.750
 9396POPC   C3A63545  17.536  43.140   7.050
 9396POPC   C4A63546  17.506  43.110   7.350
 9396POPC   C1B63547  17.654  42.847   6.450
 9396POPC   C2B63548  17.637  42.860   6.750
 9396POPC   C3B63549  17.658  42.941   7.050
 9396POPC   C4B63550  17.647  42.903   7.350
 9397POPC   NC363551  29.902  35.365   5.550
 9397POPC   PO463552  29.954  35.336   5.850
 9397POPC   GL163553  29.917  35.367   6.150
 9397POPC   GL263554  29.870  35.269   6.150
 9397POPC   C1A63555  29.949  35.391   6.450
 9397POPC   D2A63556  29.971  35.378   6.750
 9397POPC   C3A63557  29.883  35.352   7.050
 9397POPC   C4A63558  29.924  35.323   7.350
 9397POPC   C1B63559  29.744  35.118   6.450
 9397POPC   C2B63560  29.706  35.116   6.750
 9397POPC   C3B63561  29.796  35.144   7.050
 9397POPC   C4B63562  29.774  35.158   7.350
 9398POPC   NC363563  43.889  41.563   5.550
 9398POPC   PO463564  43.861  41.509   5.850
 9398POPC   GL163565  43.839  41.582   6.150
 9398POPC   GL263566  43.918  41.404   6.150
 9398POPC   C1A63567  43.927  41.528   6.450
 9398POPC   D2A63568  43.926  41.591   6.750
 9398POPC   C3A63569  43.912  41.578   7.050
 9398POPC   C4A63570  43.879  41.536   7.350
 9398POPC   C1B63571  43.986  41.330   6.450
 9398POPC   C2B63572  43.999  41.297   6.750
 9398POPC   C3B63573  43.966  41.294   7.050
 9398POPC   C4B63574  43.957  41.335   7.350
 9399POPC   NC363575  36.118  43.848   5.550
 9399POPC   PO463576  36.134  43.862   5.850
 9399POPC   GL163577  36.150  43.856   6.150
 9399POPC   GL263578  36.001  43.861   6.150
 9399POPC   C1A63579  36.176  43.911   6.450
 9399POPC   D2A63580  36.101  43.892   6.750
 9399POPC   C3A63581  36.124  43.919   7.050
 9399POPC   C4A63582  36.116  43.912   7.350
 9399POPC   C1B63583  35.898  43.892   6.450
 9399POPC   C2B63584  35.852  43.839   6.750
 9399POPC   C3B63585  35.874  43.843   7.050
 9399POPC   C4B63586  35.870  43.871   7.350
 9400POPC   NC363587  37.630  26.801   5.550
 9400POPC   PO463588  37.667  26.834   5.850
 9400POPC   GL163589  37.703  26.803   6.150
 9400POPC   GL263590  37.612  26.662   6.150
 9400POPC   C1A63591  37.667  26.774   6.450
 9400POPC   D2A63592  37.643  26.801   6.750
 9400POPC   C3A63593  37.714  26.790   7.050
 9400POPC   C4A63594  37.668  26.786   7.350
 9400POPC   C1B63595  37.591  26.546   6.450
 9400POPC   C2B63596  37.532  26.585   6.750
 9400POPC   C3B63597  37.576  26.628   7.050
 9400POPC   C4B63598  37.615  26.610   7.350
 9401POPC   NC363599  24.537   8.963   5.550
 9401POPC   PO463600  24.507   8.953   5.850
 9401POPC   GL163601  24.512   8.948   6.150
 9401POPC   GL263602  24.368   9.021   6.150
 9401POPC   C1A63603  24.445   9.015   6.450
 9401POPC   D2A63604  24.511   9.014   6.750
 9401POPC   C3A63605  24.458   9.000   7.050
 9401POPC   C4A63606  24.492   8.933   7.350
 9401POPC   C1B63607  24.308   9.139   6.450
 9401POPC   C2B63608  24.298   9.071   6.750
 9401POPC   C3B63609  24.254   9.123   7.050
 9401POPC   C4B63610  24.277   9.061   7.350
 9402POPC   NC363611  10.535   8.935   5.550
 9402POPC   PO463612  10.481   8.991   5.850
 9402POPC   GL163613  10.479   8.984   6.150
 9402POPC   GL263614  10.651   9.017   6.150
 9402POPC   C1A63615  10.541   8.971   6.450
 9402POPC   D2A63616  10.484   8.962   6.750
 9402POPC   C3A63617  10.507   8.944   7.050
 9402POPC   C4A63618  10.557   8.943   7.350
 9402POPC   C1B63619  10.756   9.170   6.450
 9402POPC   C2B63620  10.741   9.174   6.750
 9402POPC   C3B63621  10.702   9.151   7.050
 9402POPC   C4B63622  10.721   9.102   7.350
 9403POPC   NC363623  38.466   6.627   5.550
 9403POPC   PO463624  38.491   6.613   5.850
 9403POPC   GL163625  38.482   6.615   6.150
 9403POPC   GL263626  38.284   6.621   6.150
 9403POPC   C1A63627  38.406   6.661   6.450
 9403POPC   D2A63628  38.480   6.620   6.750
 9403POPC   C3A63629  38.420   6.680   7.050
 9403POPC   C4A63630  38.438   6.671   7.350
 9403POPC   C1B63631  38.230   6.662   6.450
 9403POPC   C2B63632  38.177   6.665   6.750
 9403POPC   C3B63633  38.245   6.617   7.050
 9403POPC   C4B63634  38.246   6.635   7.350
 9404POPC   NC363635  25.241  33.761   5.550
 9404POPC   PO463636  25.287  33.834   5.850
 9404POPC   GL163637  25.251  33.796   6.150
 9404POPC   GL263638  25.195  33.703   6.150
 9404POPC   C1A63639  25.258  33.840   6.450
 9404POPC   D2A63640  25.259  33.762   6.750
 9404POPC   C3A63641  25.222  33.782   7.050
 9404POPC   C4A63642  25.283  33.779   7.350
 9404POPC   C1B63643  25.129  33.606   6.450
 9404POPC   C2B63644  25.156  33.565   6.750
 9404POPC   C3B63645  25.115  33.566   7.050
 9404POPC   C4B63646  25.095  33.603   7.350
 9405POPC   NC363647  36.171  18.327   5.550
 9405POPC   PO463648  36.142  18.271   5.850
 9405POPC   GL163649  36.106  18.263   6.150
 9405POPC   GL263650  36.230  18.295   6.150
 9405POPC   C1A63651  36.160  18.237   6.450
 9405POPC   D2A63652  36.167  18.324   6.750
 9405POPC   C3A63653  36.085  18.329   7.050
 9405POPC   C4A63654  36.104  18.280   7.350
 9405POPC   C1B63655  36.329  18.331   6.450
 9405POPC   C2B63656  36.338  18.322   6.750
 9405POPC   C3B63657  36.356  18.261   7.050
 9405POPC   C4B63658  36.366  18.265   7.350
 9406POPC   NC363659  34.588  17.460   5.550
 9406POPC   PO463660  34.617  17.532   5.850
 9406POPC   GL163661  34.601  17.531   6.150
 9406POPC   GL263662  34.585  17.660   6.150
 9406POPC   C1A63663  34.562  17.529   6.450
 9406POPC   D2A63664  34.526  17.554   6.750
 9406POPC   C3A63665  34.538  17.517   7.050
 9406POPC   C4A63666  34.536  17.508   7.350
 9406POPC   C1B63667  34.553  17.804   6.450
 9406POPC   C2B63668  34.555  17.766   6.750
 9406POPC   C3B63669  34.564  17.764   7.050
 9406POPC   C4B63670  34.507  17.719   7.350
 9407POPC   NC363671   2.021  40.758   5.550
 9407POPC   PO463672   2.021  40.752   5.850
 9407POPC   GL163673   2.007  40.787   6.150
 9407POPC   GL263674   2.008  40.689   6.150
 9407POPC   C1A63675   2.030  40.814   6.450
 9407POPC   D2A63676   2.017  40.757   6.750
 9407POPC   C3A63677   1.974  40.791   7.050
 9407POPC   C4A63678   1.977  40.792   7.350
 9407POPC   C1B63679   1.907  40.580   6.450
 9407POPC   C2B63680   1.930  40.490   6.750
 9407POPC   C3B63681   1.937  40.513   7.050
 9407POPC   C4B63682   1.915  40.507   7.350
 9408POPC   NC363683   5.869  12.826   5.550
 9408POPC   PO463684   5.887  12.827   5.850
 9408POPC   GL163685   5.907  12.877   6.150
 9408POPC   GL263686   5.784  12.956   6.150
 9408POPC   C1A63687   5.839  12.882   6.450
 9408POPC   D2A63688   5.910  12.895   6.750
 9408POPC   C3A63689   5.858  12.840   7.050
 9408POPC   C4A63690   5.882  12.811   7.350
 9408POPC   C1B63691   5.666  12.980   6.450
 9408POPC   C2B63692   5.634  12.969   6.750
 9408POPC   C3B63693   5.694  12.977   7.050
 9408POPC   C4B63694   5.653  13.052   7.350
 9409POPC   NC363695  25.309  35.365   5.550
 9409POPC   PO463696  25.290  35.315   5.850
 9409POPC   GL163697  25.289  35.347   6.150
 9409POPC   GL263698  25.268  35.224   6.150
 9409POPC   C1A63699  25.311  35.364   6.450
 9409POPC   D2A63700  25.314  35.369   6.750
 9409POPC   C3A63701  25.227  35.363   7.050
 9409POPC   C4A63702  25.273  35.310   7.350
 9409POPC   C1B63703  25.239  35.122   6.450
 9409POPC   C2B63704  25.307  35.127   6.750
 9409POPC   C3B63705  25.236  35.126   7.050
 9409POPC   C4B63706  25.304  35.140   7.350
 9410POPC   NC363707  22.926  29.153   5.550
 9410POPC   PO463708  22.929  29.153   5.850
 9410POPC   GL163709  22.943  29.119   6.150
 9410POPC   GL263710  22.991  29.021   6.150
 9410POPC   C1A63711  22.983  29.129   6.450
 9410POPC   D2A63712  22.968  29.108   6.750
 9410POPC   C3A63713  22.981  29.192   7.050
 9410POPC   C4A63714  22.949  29.192   7.350
 9410POPC   C1B63715  23.000  28.890   6.450
 9410POPC   C2B63716  23.018  28.893   6.750
 9410POPC   C3B63717  23.017  28.884   7.050
 9410POPC   C4B63718  22.949  28.875   7.350
 9411POPC   NC363719  15.966  19.828   5.550
 9411POPC   PO463720  15.986  19.812   5.850
 9411POPC   GL163721  15.910  19.839   6.150
 9411POPC   GL263722  16.006  19.884   6.150
 9411POPC   C1A63723  16.002  19.872   6.450
 9411POPC   D2A63724  15.986  19.835   6.750
 9411POPC   C3A63725  15.968  19.836   7.050
 9411POPC   C4A63726  15.929  19.835   7.350
 9411POPC   C1B63727  16.146  20.030   6.450
 9411POPC   C2B63728  16.110  20.031   6.750
 9411POPC   C3B63729  16.122  20.026   7.050
 9411POPC   C4B63730  16.102  20.036   7.350
 9412POPC   NC363731  44.670   3.518   5.550
 9412POPC   PO463732  44.710   3.527   5.850
 9412POPC   GL163733  44.707   3.530   6.150
 9412POPC   GL263734  44.615   3.600   6.150
 9412POPC   C1A63735  44.684   3.512   6.450
 9412POPC   D2A63736  44.648   3.589   6.750
 9412POPC   C3A63737  44.660   3.564   7.050
 9412POPC   C4A63738  44.711   3.548   7.350
 9412POPC   C1B63739  44.488   3.709   6.450
 9412POPC   C2B63740  44.474   3.712   6.750
 9412POPC   C3B63741  44.528   3.743   7.050
 9412POPC   C4B63742  44.559   3.719   7.350
 9413POPC   NC363743  29.946  37.677   5.550
 9413POPC   PO463744  29.907  37.725   5.850
 9413POPC   GL163745  29.893  37.708   6.150
 9413POPC   GL263746  29.836  37.792   6.150
 9413POPC   C1A63747  29.905  37.704   6.450
 9413POPC   D2A63748  29.925  37.709   6.750
 9413POPC   C3A63749  29.888  37.664   7.050
 9413POPC   C4A63750  29.959  37.706   7.350
 9413POPC   C1B63751  29.817  37.946   6.450
 9413POPC   C2B63752  29.854  37.910   6.750
 9413POPC   C3B63753  29.780  37.910   7.050
 9413POPC   C4B63754  29.842  37.874   7.350
 9414POPC   NC363755  36.882  27.552   5.550
 9414POPC   PO463756  36.879  27.624   5.850
 9414POPC   GL163757  36.935  27.593   6.150
 9414POPC   GL263758  36.818  27.517   6.150
 9414POPC   C1A63759  36.876  27.601   6.450
 9414POPC   D2A63760  36.942  27.581   6.750
 9414POPC   C3A63761  36.953  27.636   7.050
 9414POPC   C4A63762  36.900  27.558   7.350
 9414POPC   C1B63763  36.775  27.361   6.450
 9414POPC   C2B63764  36.748  27.405   6.750
 9414POPC   C3B63765  36.709  27.394   7.050
 9414POPC   C4B63766  36.705  27.419   7.350
 9415POPC   NC363767  23.697  34.579   5.550
 9415POPC   PO463768  23.733  34.620   5.850
 9415POPC   GL163769  23.681  34.569   6.150
 9415POPC   GL263770  23.613  34.532   6.150
 9415POPC   C1A63771  23.741  34.622   6.450
 9415POPC   D2A63772  23.675  34.595   6.750
 9415POPC   C3A63773  23.685  34.600   7.050
 9415POPC   C4A63774  23.759  34.548   7.350
 9415POPC   C1B63775  23.578  34.416   6.450
 9415POPC   C2B63776  23.551  34.365   6.750
 9415POPC   C3B63777  23.520  34.386   7.050
 9415POPC   C4B63778  23.577  34.436   7.350
 9416POPC   NC363779  38.443  26.851   5.550
 9416POPC   PO463780  38.422  26.783   5.850
 9416POPC   GL163781  38.439  26.839   6.150
 9416POPC   GL263782  38.509  26.741   6.150
 9416POPC   C1A63783  38.443  26.839   6.450
 9416POPC   D2A63784  38.465  26.781   6.750
 9416POPC   C3A63785  38.414  26.806   7.050
 9416POPC   C4A63786  38.454  26.861   7.350
 9416POPC   C1B63787  38.650  26.656   6.450
 9416POPC   C2B63788  38.641  26.644   6.750
 9416POPC   C3B63789  38.624  26.675   7.050
 9416POPC   C4B63790  38.591  26.661   7.350
 9417POPC   NC363791  24.503   5.865   5.550
 9417POPC   PO463792  24.462   5.901   5.850
 9417POPC   GL163793  24.517   5.881   6.150
 9417POPC   GL263794  24.552   6.005   6.150
 9417POPC   C1A63795  24.527   5.912   6.450
 9417POPC   D2A63796  24.508   5.896   6.750
 9417POPC   C3A63797  24.472   5.891   7.050
 9417POPC   C4A63798  24.448   5.832   7.350
 9417POPC   C1B63799  24.597   6.132   6.450
 9417POPC   C2B63800  24.539   6.146   6.750
 9417POPC   C3B63801  24.575   6.116   7.050
 9417POPC   C4B63802  24.557   6.108   7.350
 9418POPC   NC363803  25.241  10.526   5.550
 9418POPC   PO463804  25.309  10.539   5.850
 9418POPC   GL163805  25.304  10.547   6.150
 9418POPC   GL263806  25.351  10.500   6.150
 9418POPC   C1A63807  25.225  10.496   6.450
 9418POPC   D2A63808  25.216  10.485   6.750
 9418POPC   C3A63809  25.238  10.539   7.050
 9418POPC   C4A63810  25.280  10.530   7.350
 9418POPC   C1B63811  25.506  10.471   6.450
 9418POPC   C2B63812  25.522  10.508   6.750
 9418POPC   C3B63813  25.501  10.495   7.050
 9418POPC   C4B63814  25.544  10.429   7.350
 9419POPC   NC363815  10.558   2.775   5.550
 9419POPC   PO463816  10.477   2.798   5.850
 9419POPC   GL163817  10.554   2.797   6.150
 9419POPC   GL263818  10.426   2.903   6.150
 9419POPC   C1A63819  10.562   2.749   6.450
 9419POPC   D2A63820  10.512   2.744   6.750
 9419POPC   C3A63821  10.513   2.750   7.050
 9419POPC   C4A63822  10.523   2.757   7.350
 9419POPC   C1B63823  10.444   2.946   6.450
 9419POPC   C2B63824  10.436   2.985   6.750
 9419POPC   C3B63825  10.418   2.937   7.050
 9419POPC   C4B63826  10.390   2.998   7.350
 9420POPC   NC363827   9.707  25.249   5.550
 9420POPC   PO463828   9.762  25.225   5.850
 9420POPC   GL163829   9.747  25.309   6.150
 9420POPC   GL263830   9.607  25.198   6.150
 9420POPC   C1A63831   9.712  25.291   6.450
 9420POPC   D2A63832   9.758  25.228   6.750
 9420POPC   C3A63833   9.765  25.282   7.050
 9420POPC   C4A63834   9.701  25.311   7.350
 9420POPC   C1B63835   9.549  25.159   6.450
 9420POPC   C2B63836   9.501  25.107   6.750
 9420POPC   C3B63837   9.538  25.144   7.050
 9420POPC   C4B63838   9.528  25.114   7.350
 9421POPC   NC363839  16.723  20.574   5.550
 9421POPC   PO463840  16.719  20.643   5.850
 9421POPC   GL163841  16.688  20.576   6.150
 9421POPC   GL263842  16.855  20.547   6.150
 9421POPC   C1A63843  16.732  20.604   6.450
 9421POPC   D2A63844  16.697  20.635   6.750
 9421POPC   C3A63845  16.779  20.626   7.050
 9421POPC   C4A63846  16.731  20.570   7.350
 9421POPC   C1B63847  17.010  20.577   6.450
 9421POPC   C2B63848  16.961  20.527   6.750
 9421POPC   C3B63849  16.926  20.577   7.050
 9421POPC   C4B63850  16.950  20.524   7.350
 9422POPC   NC363851   2.024  39.239   5.550
 9422POPC   PO463852   2.010  39.250   5.850
 9422POPC   GL163853   1.992  39.225   6.150
 9422POPC   GL263854   2.071  39.202   6.150
 9422POPC   C1A63855   2.027  39.222   6.450
 9422POPC   D2A63856   1.954  39.216   6.750
 9422POPC   C3A63857   1.971  39.216   7.050
 9422POPC   C4A63858   1.951  39.183   7.350
 9422POPC   C1B63859   2.283  39.143   6.450
 9422POPC   C2B63860   2.277  39.208   6.750
 9422POPC   C3B63861   2.270  39.157   7.050
 9422POPC   C4B63862   2.215  39.234   7.350
 9423POPC   NC363863  11.286  40.756   5.550
 9423POPC   PO463864  11.287  40.736   5.850
 9423POPC   GL163865  11.309  40.827   6.150
 9423POPC   GL263866  11.405  40.831   6.150
 9423POPC   C1A63867  11.348  40.808   6.450
 9423POPC   D2A63868  11.308  40.768   6.750
 9423POPC   C3A63869  11.292  40.773   7.050
 9423POPC   C4A63870  11.347  40.809   7.350
 9423POPC   C1B63871  11.596  40.863   6.450
 9423POPC   C2B63872  11.558  40.813   6.750
 9423POPC   C3B63873  11.588  40.783   7.050
 9423POPC   C4B63874  11.586  40.801   7.350
 9424POPC   NC363875  30.647  43.099   5.550
 9424POPC   PO463876  30.722  43.122   5.850
 9424POPC   GL163877  30.685  43.069   6.150
 9424POPC   GL263878  30.540  43.096   6.150
 9424POPC   C1A63879  30.664  43.100   6.450
 9424POPC   D2A63880  30.666  43.107   6.750
 9424POPC   C3A63881  30.691  43.095   7.050
 9424POPC   C4A63882  30.734  43.081   7.350
 9424POPC   C1B63883  30.411  43.121   6.450
 9424POPC   C2B63884  30.462  43.136   6.750
 9424POPC   C3B63885  30.481  43.134   7.050
 9424POPC   C4B63886  30.421  43.097   7.350
 9425POPC   NC363887  28.418  26.801   5.550
 9425POPC   PO463888  28.333  26.836   5.850
 9425POPC   GL163889  28.365  26.787   6.150
 9425POPC   GL263890  28.352  26.680   6.150
 9425POPC   C1A63891  28.328  26.860   6.450
 9425POPC   D2A63892  28.360  26.834   6.750
 9425POPC   C3A63893  28.353  26.795   7.050
 9425POPC   C4A63894  28.389  26.767   7.350
 9425POPC   C1B63895  28.387  26.578   6.450
 9425POPC   C2B63896  28.388  26.559   6.750
 9425POPC   C3B63897  28.436  26.602   7.050
 9425POPC   C4B63898  28.432  26.617   7.350
 9426POPC   NC363899  42.351  33.007   5.550
 9426POPC   PO463900  42.369  33.056   5.850
 9426POPC   GL163901  42.365  33.069   6.150
 9426POPC   GL263902  42.170  33.014   6.150
 9426POPC   C1A63903  42.357  33.014   6.450
 9426POPC   D2A63904  42.338  33.002   6.750
 9426POPC   C3A63905  42.305  33.042   7.050
 9426POPC   C4A63906  42.367  32.989   7.350
 9426POPC   C1B63907  42.107  33.000   6.450
 9426POPC   C2B63908  42.126  32.970   6.750
 9426POPC   C3B63909  42.122  32.954   7.050
 9426POPC   C4B63910  42.088  32.998   7.350
 9427POPC   NC363911  28.388  38.445   5.550
 9427POPC   PO463912  28.397  38.472   5.850
 9427POPC   GL163913  28.418  38.415   6.150
 9427POPC   GL263914  28.443  38.473   6.150
 9427POPC   C1A63915  28.346  38.417   6.450
 9427POPC   D2A63916  28.408  38.465   6.750
 9427POPC   C3A63917  28.366  38.466   7.050
 9427POPC   C4A63918  28.411  38.415   7.350
 9427POPC   C1B63919  28.595  38.469   6.450
 9427POPC   C2B63920  28.579  38.514   6.750
 9427POPC   C3B63921  28.642  38.509   7.050
 9427POPC   C4B63922  28.606  38.528   7.350
 9428POPC   NC363923   5.074   5.842   5.550
 9428POPC   PO463924   5.119   5.853   5.850
 9428POPC   GL163925   5.129   5.905   6.150
 9428POPC   GL263926   5.086   6.012   6.150
 9428POPC   C1A63927   5.080   5.844   6.450
 9428POPC   D2A63928   5.050   5.860   6.750
 9428POPC   C3A63929   5.109   5.882   7.050
 9428POPC   C4A63930   5.124   5.859   7.350
 9428POPC   C1B63931   5.088   6.093   6.450
 9428POPC   C2B63932   5.044   6.094   6.750
 9428POPC   C3B63933   5.028   6.116   7.050
 9428POPC   C4B63934   4.992   6.095   7.350
 9429POPC   NC363935  31.484  19.079   5.550
 9429POPC   PO463936  31.468  19.095   5.850
 9429POPC   GL163937  31.466  19.030   6.150
 9429POPC   GL263938  31.412  18.967   6.150
 9429POPC   C1A63939  31.488  19.061   6.450
 9429POPC   D2A63940  31.473  19.053   6.750
 9429POPC   C3A63941  31.466  19.071   7.050
 9429POPC   C4A63942  31.424  19.018   7.350
 9429POPC   C1B63943  31.307  18.872   6.450
 9429POPC   C2B63944  31.330  18.872   6.750
 9429POPC   C3B63945  31.317  18.886   7.050
 9429POPC   C4B63946  31.391  18.809   7.350
 9430POPC   NC363947   2.716  39.270   5.550
 9430POPC   PO463948   2.785  39.183   5.850
 9430POPC   GL163949   2.786  39.244   6.150
 9430POPC   GL263950   2.724  39.332   6.150
 9430POPC   C1A63951   2.751  39.278   6.450
 9430POPC   D2A63952   2.738  39.261   6.750
 9430POPC   C3A63953   2.782  39.237   7.050
 9430POPC   C4A63954   2.796  39.195   7.350
 9430POPC   C1B63955   2.681  39.426   6.450
 9430POPC   C2B63956   2.703  39.444   6.750
 9430POPC   C3B63957   2.699  39.493   7.050
 9430POPC   C4B63958   2.633  39.457   7.350
 9431POPC   NC363959  19.038  31.503   5.550
 9431POPC   PO463960  19.103  31.447   5.850
 9431POPC   GL163961  19.098  31.511   6.150
 9431POPC   GL263962  18.982  31.543   6.150
 9431POPC   C1A63963  19.108  31.471   6.450
 9431POPC   D2A63964  19.064  31.497   6.750
 9431POPC   C3A63965  19.062  31.476   7.050
 9431POPC   C4A63966  19.058  31.469   7.350
 9431POPC   C1B63967  18.870  31.693   6.450
 9431POPC   C2B63968  18.869  31.645   6.750
 9431POPC   C3B63969  18.919  31.627   7.050
 9431POPC   C4B63970  18.934  31.666   7.350
 9432POPC   NC363971  36.875  11.280   5.550
 9432POPC   PO463972  36.943  11.350   5.850
 9432POPC   GL163973  36.905  11.298   6.150
 9432POPC   GL263974  36.791  11.218   6.150
 9432POPC   C1A63975  36.878  11.289   6.450
 9432POPC   D2A63976  36.886  11.254   6.750
 9432POPC   C3A63977  36.887  11.308   7.050
 9432POPC   C4A63978  36.948  11.313   7.350
 9432POPC   C1B63979  36.686  11.241   6.450
 9432POPC   C2B63980  36.673  11.176   6.750
 9432POPC   C3B63981  36.701  11.196   7.050
 9432POPC   C4B63982  36.647  11.244   7.350
 9433POPC   NC363983  44.644  22.182   5.550
 9433POPC   PO463984  44.671  22.117   5.850
 9433POPC   GL163985  44.625  22.170   6.150
 9433POPC   GL263986  44.636  22.266   6.150
 9433POPC   C1A63987  44.627  22.175   6.450
 9433POPC   D2A63988  44.709  22.143   6.750
 9433POPC   C3A63989  44.617  22.115   7.050
 9433POPC   C4A63990  44.619  22.156   7.350
 9433POPC   C1B63991  44.521  22.403   6.450
 9433POPC   C2B63992  44.522  22.394   6.750
 9433POPC   C3B63993  44.507  22.344   7.050
 9433POPC   C4B63994  44.485  22.356   7.350
 9434POPC   NC363995  33.018  42.321   5.550
 9434POPC   PO463996  33.018  42.299   5.850
 9434POPC   GL163997  33.038  42.298   6.150
 9434POPC   GL263998  33.037  42.486   6.150
 9434POPC   C1A63999  32.979  42.286   6.450
 9434POPC   D2A64000  33.015  42.315   6.750
 9434POPC   C3A64001  33.060  42.294   7.050
 9434POPC   C4A64002  33.056  42.330   7.350
 9434POPC   C1B64003  33.125  42.565   6.450
 9434POPC   C2B64004  33.123  42.523   6.750
 9434POPC   C3B64005  33.141  42.562   7.050
 9434POPC   C4B64006  33.170  42.535   7.350
 9435POPC   NC364007  12.851  31.464   5.550
 9435POPC   PO464008  12.895  31.518   5.850
 9435POPC   GL164009  12.856  31.441   6.150
 9435POPC   GL264010  12.759  31.350   6.150
 9435POPC   C1A64011  12.875  31.435   6.450
 9435POPC   D2A64012  12.854  31.453   6.750
 9435POPC   C3A64013  12.864  31.493   7.050
 9435POPC   C4A64014  12.898  31.472   7.350
 9435POPC   C1B64015  12.732  31.262   6.450
 9435POPC   C2B64016  12.763  31.293   6.750
 9435POPC   C3B64017  12.778  31.278   7.050
 9435POPC   C4B64018  12.730  31.243   7.350
 9436POPC   NC364019  30.647  30.665   5.550
 9436POPC   PO464020  30.710  30.710   5.850
 9436POPC   GL164021  30.655  30.718   6.150
 9436POPC   GL264022  30.641  30.587   6.150
 9436POPC   C1A64023  30.654  30.690   6.450
 9436POPC   D2A64024  30.727  30.682   6.750
 9436POPC   C3A64025  30.715  30.732   7.050
 9436POPC   C4A64026  30.684  30.662   7.350
 9436POPC   C1B64027  30.612  30.460   6.450
 9436POPC   C2B64028  30.557  30.509   6.750
 9436POPC   C3B64029  30.630  30.431   7.050
 9436POPC   C4B64030  30.600  30.481   7.350
 9437POPC   NC364031   2.035   8.966   5.550
 9437POPC   PO464032   2.004   8.992   5.850
 9437POPC   GL164033   1.949   8.942   6.150
 9437POPC   GL264034   1.862   9.087   6.150
 9437POPC   C1A64035   1.988   8.931   6.450
 9437POPC   D2A64036   2.002   8.993   6.750
 9437POPC   C3A64037   2.024   8.935   7.050
 9437POPC   C4A64038   2.024   8.988   7.350
 9437POPC   C1B64039   1.842   9.117   6.450
 9437POPC   C2B64040   1.846   9.174   6.750
 9437POPC   C3B64041   1.773   9.115   7.050
 9437POPC   C4B64042   1.762   9.134   7.350
 9438POPC   NC364043  29.951   8.949   5.550
 9438POPC   PO464044  29.970   8.973   5.850
 9438POPC   GL164045  29.892   8.961   6.150
 9438POPC   GL264046  30.021   9.013   6.150
 9438POPC   C1A64047  29.964   8.998   6.450
 9438POPC   D2A64048  29.915   9.016   6.750
 9438POPC   C3A64049  29.911   9.018   7.050
 9438POPC   C4A64050  29.910   8.964   7.350
 9438POPC   C1B64051  30.177   9.081   6.450
 9438POPC   C2B64052  30.091   9.064   6.750
 9438POPC   C3B64053  30.116   9.107   7.050
 9438POPC   C4B64054  30.180   9.115   7.350
 9439POPC   NC364055  21.372   0.454   5.550
 9439POPC   PO464056  21.361   0.475   5.850
 9439POPC   GL164057  21.411   0.411   6.150
 9439POPC   GL264058  21.424   0.557   6.150
 9439POPC   C1A64059  21.370   0.419   6.450
 9439POPC   D2A64060  21.337   0.461   6.750
 9439POPC   C3A64061  21.422   0.402   7.050
 9439POPC   C4A64062  21.389   0.432   7.350
 9439POPC   C1B64063  21.370   0.670   6.450
 9439POPC   C2B64064  21.400   0.647   6.750
 9439POPC   C3B64065  21.363   0.715   7.050
 9439POPC   C4B64066  21.379   0.676   7.350
 9440POPC   NC364067  12.105  26.085   5.550
 9440POPC   PO464068  12.038  26.004   5.850
 9440POPC   GL164069  12.071  26.010   6.150
 9440POPC   GL264070  11.984  26.069   6.150
 9440POPC   C1A64071  12.073  26.074   6.450
 9440POPC   D2A64072  12.074  26.000   6.750
 9440POPC   C3A64073  12.078  26.067   7.050
 9440POPC   C4A64074  12.058  25.998   7.350
 9440POPC   C1B64075  11.801  26.152   6.450
 9440POPC   C2B64076  11.832  26.143   6.750
 9440POPC   C3B64077  11.796  26.158   7.050
 9440POPC   C4B64078  11.864  26.098   7.350
 9441POPC   NC364079  44.669  12.103   5.550
 9441POPC   PO464080  44.659  12.062   5.850
 9441POPC   GL164081  44.667  12.037   6.150
 9441POPC   GL264082  44.504  12.087   6.150
 9441POPC   C1A64083  44.661  12.047   6.450
 9441POPC   D2A64084  44.671  12.107   6.750
 9441POPC   C3A64085  44.636  12.108   7.050
 9441POPC   C4A64086  44.652  12.080   7.350
 9441POPC   C1B64087  44.437  12.082   6.450
 9441POPC   C2B64088  44.373  12.100   6.750
 9441POPC   C3B64089  44.421  12.040   7.050
 9441POPC   C4B64090  44.369  12.034   7.350
 9442POPC   NC364091   5.825   9.009   5.550
 9442POPC   PO464092   5.917   8.997   5.850
 9442POPC   GL164093   5.859   8.957   6.150
 9442POPC   GL264094   5.915   9.081   6.150
 9442POPC   C1A64095   5.916   9.011   6.450
 9442POPC   D2A64096   5.859   8.933   6.750
 9442POPC   C3A64097   5.865   8.949   7.050
 9442POPC   C4A64098   5.820   9.017   7.350
 9442POPC   C1B64099   5.965   9.184   6.450
 9442POPC   C2B64100   5.909   9.162   6.750
 9442POPC   C3B64101   5.999   9.236   7.050
 9442POPC   C4B64102   5.971   9.238   7.350
 9443POPC   NC364103  18.308  20.633   5.550
 9443POPC   PO464104  18.261  20.601   5.850
 9443POPC   GL164105  18.299  20.575   6.150
 9443POPC   GL264106  18.384  20.683   6.150
 9443POPC   C1A64107  18.255  20.589   6.450
 9443POPC   D2A64108  18.234  20.638   6.750
 9443POPC   C3A64109  18.306  20.594   7.050
 9443POPC   C4A64110  18.282  20.581   7.350
 9443POPC   C1B64111  18.385  20.799   6.450
 9443POPC   C2B64112  18.423  20.821   6.750
 9443POPC   C3B64113  18.407  20.822   7.050
 9443POPC   C4B64114  18.343  20.855   7.350
 9444POPC   NC364115  35.376  22.179   5.550
 9444POPC   PO464116  35.315  22.162   5.850
 9444POPC   GL164117  35.397  22.125   6.150
 9444POPC   GL264118  35.383  22.249   6.150
 9444POPC   C1A64119  35.313  22.207   6.450
 9444POPC   D2A64120  35.316  22.185   6.750
 9444POPC   C3A64121  35.396  22.157   7.050
 9444POPC   C4A64122  35.344  22.149   7.350
 9444POPC   C1B64123  35.353  22.450   6.450
 9444POPC   C2B64124  35.371  22.432   6.750
 9444POPC   C3B64125  35.358  22.380   7.050
 9444POPC   C4B64126  35.320  22.446   7.350
 9445POPC   NC364127  41.534  29.117   5.550
 9445POPC   PO464128  41.600  29.165   5.850
 9445POPC   GL164129  41.599  29.155   6.150
 9445POPC   GL264130  41.398  29.136   6.150
 9445POPC   C1A64131  41.522  29.132   6.450
 9445POPC   D2A64132  41.514  29.118   6.750
 9445POPC   C3A64133  41.515  29.103   7.050
 9445POPC   C4A64134  41.563  29.146   7.350
 9445POPC   C1B64135  41.325  29.100   6.450
 9445POPC   C2B64136  41.351  29.075   6.750
 9445POPC   C3B64137  41.273  29.061   7.050
 9445POPC   C4B64138  41.358  29.127   7.350
 9446POPC   NC364139  36.885  31.521   5.550
 9446POPC   PO464140  36.869  31.498   5.850
 9446POPC   GL164141  36.878  31.489   6.150
 9446POPC   GL264142  36.919  31.387   6.150
 9446POPC   C1A64143  36.907  31.510   6.450
 9446POPC   D2A64144  36.932  31.456   6.750
 9446POPC   C3A64145  36.938  31.464   7.050
 9446POPC   C4A64146  36.935  31.498   7.350
 9446POPC   C1B64147  37.025  31.269   6.450
 9446POPC   C2B64148  36.938  31.245   6.750
 9446POPC   C3B64149  36.998  31.233   7.050
 9446POPC   C4B64150  36.989  31.239   7.350
 9447POPC   NC364151   1.218   9.775   5.550
 9447POPC   PO464152   1.198   9.733   5.850
 9447POPC   GL164153   1.173   9.715   6.150
 9447POPC   GL264154   1.062   9.753   6.150
 9447POPC   C1A64155   1.217   9.709   6.450
 9447POPC   D2A64156   1.244   9.762   6.750
 9447POPC   C3A64157   1.255   9.768   7.050
 9447POPC   C4A64158   1.220   9.704   7.350
 9447POPC   C1B64159   0.995   9.750   6.450
 9447POPC   C2B64160   0.925   9.716   6.750
 9447POPC   C3B64161   1.008   9.736   7.050
 9447POPC   C4B64162   0.978   9.790   7.350
 9448POPC   NC364163  17.523  19.064   5.550
 9448POPC   PO464164  17.498  19.074   5.850
 9448POPC   GL164165  17.474  19.013   6.150
 9448POPC   GL264166  17.597  19.196   6.150
 9448POPC   C1A64167  17.459  19.054   6.450
 9448POPC   D2A64168  17.482  19.054   6.750
 9448POPC   C3A64169  17.555  19.009   7.050
 9448POPC   C4A64170  17.478  19.108   7.350
 9448POPC   C1B64171  17.610  19.257   6.450
 9448POPC   C2B64172  17.606  19.299   6.750
 9448POPC   C3B64173  17.592  19.310   7.050
 9448POPC   C4B64174  17.581  19.259   7.350
 9449POPC   NC364175   8.997  23.714   5.550
 9449POPC   PO464176   8.958  23.679   5.850
 9449POPC   GL164177   8.964  23.698   6.150
 9449POPC   GL264178   9.138  23.708   6.150
 9449POPC   C1A64179   8.932  23.709   6.450
 9449POPC   D2A64180   8.952  23.688   6.750
 9449POPC   C3A64181   8.997  23.683   7.050
 9449POPC   C4A64182   8.933  23.688   7.350
 9449POPC   C1B64183   9.233  23.737   6.450
 9449POPC   C2B64184   9.171  23.733   6.750
 9449POPC   C3B64185   9.227  23.786   7.050
 9449POPC   C4B64186   9.258  23.720   7.350
 9450POPC   NC364187  36.164  37.667   5.550
 9450POPC   PO464188  36.139  37.717   5.850
 9450POPC   GL164189  36.154  37.659   6.150
 9450POPC   GL264190  36.155  37.829   6.150
 9450POPC   C1A64191  36.107  37.672   6.450
 9450POPC   D2A64192  36.168  37.707   6.750
 9450POPC   C3A64193  36.164  37.679   7.050
 9450POPC   C4A64194  36.149  37.720   7.350
 9450POPC   C1B64195  36.175  37.926   6.450
 9450POPC   C2B64196  36.126  37.915   6.750
 9450POPC   C3B64197  36.137  37.910   7.050
 9450POPC   C4B64198  36.133  37.925   7.350
 9451POPC   NC364199  11.263  15.195   5.550
 9451POPC   PO464200  11.331  15.153   5.850
 9451POPC   GL164201  11.328  15.134   6.150
 9451POPC   GL264202  11.228  15.139   6.150
 9451POPC   C1A64203  11.262  15.183   6.450
 9451POPC   D2A64204  11.308  15.145   6.750
 9451POPC   C3A64205  11.289  15.220   7.050
 9451POPC   C4A64206  11.293  15.169   7.350
 9451POPC   C1B64207  11.141  14.974   6.450
 9451POPC   C2B64208  11.066  15.016   6.750
 9451POPC   C3B64209  11.075  14.975   7.050
 9451POPC   C4B64210  11.136  14.996   7.350
 9452POPC   NC364211   6.639  13.598   5.550
 9452POPC   PO464212   6.596  13.677   5.850
 9452POPC   GL164213   6.620  13.648   6.150
 9452POPC   GL264214   6.663  13.706   6.150
 9452POPC   C1A64215   6.604  13.637   6.450
 9452POPC   D2A64216   6.634  13.649   6.750
 9452POPC   C3A64217   6.646  13.621   7.050
 9452POPC   C4A64218   6.625  13.598   7.350
 9452POPC   C1B64219   6.694  13.831   6.450
 9452POPC   C2B64220   6.763  13.901   6.750
 9452POPC   C3B64221   6.694  13.816   7.050
 9452POPC   C4B64222   6.723  13.827   7.350
 9453POPC   NC364223   7.445   1.976   5.550
 9453POPC   PO464224   7.413   2.030   5.850
 9453POPC   GL164225   7.461   1.949   6.150
 9453POPC   GL264226   7.484   1.931   6.150
 9453POPC   C1A64227   7.416   1.955   6.450
 9453POPC   D2A64228   7.421   1.951   6.750
 9453POPC   C3A64229   7.387   2.013   7.050
 9453POPC   C4A64230   7.399   2.033   7.350
 9453POPC   C1B64231   7.549   1.731   6.450
 9453POPC   C2B64232   7.547   1.748   6.750
 9453POPC   C3B64233   7.521   1.779   7.050
 9453POPC   C4B64234   7.514   1.770   7.350
 9454POPC   NC364235  32.280  15.188   5.550
 9454POPC   PO464236  32.205  15.213   5.850
 9454POPC   GL164237  32.282  15.180   6.150
 9454POPC   GL264238  32.172  15.167   6.150
 9454POPC   C1A64239  32.238  15.221   6.450
 9454POPC   D2A64240  32.219  15.188   6.750
 9454POPC   C3A64241  32.248  15.152   7.050
 9454POPC   C4A64242  32.268  15.214   7.350
 9454POPC   C1B64243  32.006  15.014   6.450
 9454POPC   C2B64244  32.007  15.057   6.750
 9454POPC   C3B64245  32.000  15.038   7.050
 9454POPC   C4B64246  32.037  15.083   7.350
 9455POPC   NC364247  26.005  32.289   5.550
 9455POPC   PO464248  26.077  32.268   5.850
 9455POPC   GL164249  26.038  32.291   6.150
 9455POPC   GL264250  25.973  32.309   6.150
 9455POPC   C1A64251  26.016  32.252   6.450
 9455POPC   D2A64252  26.028  32.267   6.750
 9455POPC   C3A64253  26.084  32.291   7.050
 9455POPC   C4A64254  26.027  32.226   7.350
 9455POPC   C1B64255  25.867  32.412   6.450
 9455POPC   C2B64256  25.920  32.477   6.750
 9455POPC   C3B64257  25.856  32.426   7.050
 9455POPC   C4B64258  25.859  32.489   7.350
 9456POPC   NC364259  40.764  44.698   5.550
 9456POPC   PO464260  40.805  44.701   5.850
 9456POPC   GL164261  40.805  44.651   6.150
 9456POPC   GL264262  40.822  44.801   6.150
 9456POPC   C1A64263  40.812  44.676   6.450
 9456POPC   D2A64264  40.748  44.708   6.750
 9456POPC   C3A64265  40.778  44.694   7.050
 9456POPC   C4A64266  40.749  44.614   7.350
 9456POPC   C1B64267  40.837  44.911   6.450
 9456POPC   C2B64268  40.835  44.874   6.750
 9456POPC   C3B64269  40.845  44.871   7.050
 9456POPC   C4B64270  40.822  44.925   7.350
 9457POPC   NC364271  17.545   4.277   5.550
 9457POPC   PO464272  17.549   4.299   5.850
 9457POPC   GL164273  17.549   4.347   6.150
 9457POPC   GL264274  17.434   4.314   6.150
 9457POPC   C1A64275  17.540   4.316   6.450
 9457POPC   D2A64276  17.495   4.299   6.750
 9457POPC   C3A64277  17.547   4.289   7.050
 9457POPC   C4A64278  17.473   4.272   7.350
 9457POPC   C1B64279  17.261   4.452   6.450
 9457POPC   C2B64280  17.240   4.389   6.750
 9457POPC   C3B64281  17.305   4.407   7.050
 9457POPC   C4B64282  17.225   4.405   7.350
 9458POPC   NC364283  43.839  38.442   5.550
 9458POPC   PO464284  43.854  38.480   5.850
 9458POPC   GL164285  43.916  38.441   6.150
 9458POPC   GL264286  43.960  38.574   6.150
 9458POPC   C1A64287  43.895  38.439   6.450
 9458POPC   D2A64288  43.882  38.450   6.750
 9458POPC   C3A64289  43.861  38.485   7.050
 9458POPC   C4A64290  43.891  38.429   7.350
 9458POPC   C1B64291  44.015  38.670   6.450
 9458POPC   C2B64292  44.020  38.624   6.750
 9458POPC   C3B64293  43.982  38.615   7.050
 9458POPC   C4B64294  44.056  38.626   7.350
 9459POPC   NC364295  23.689   2.739   5.550
 9459POPC   PO464296  23.733   2.741   5.850
 9459POPC   GL164297  23.759   2.794   6.150
 9459POPC   GL264298  23.746   2.880   6.150
 9459POPC   C1A64299  23.703   2.757   6.450
 9459POPC   D2A64300  23.669   2.810   6.750
 9459POPC   C3A64301  23.703   2.807   7.050
 9459POPC   C4A64302  23.739   2.727   7.350
 9459POPC   C1B64303  23.882   2.970   6.450
 9459POPC   C2B64304  23.817   2.995   6.750
 9459POPC   C3B64305  23.858   3.004   7.050
 9459POPC   C4B64306  23.852   2.931   7.350
 9460POPC   NC364307  18.311  19.036   5.550
 9460POPC   PO464308  18.271  19.084   5.850
 9460POPC   GL164309  18.297  19.068   6.150
 9460POPC   GL264310  18.203  19.167   6.150
 9460POPC   C1A64311  18.270  19.035   6.450
 9460POPC   D2A64312  18.275  19.080   6.750
 9460POPC   C3A64313  18.289  19.079   7.050
 9460POPC   C4A64314  18.285  19.021   7.350
 9460POPC   C1B64315  18.245  19.341   6.450
 9460POPC   C2B64316  18.248  19.287   6.750
 9460POPC   C3B64317  18.157  19.290   7.050
 9460POPC   C4B64318  18.189  19.338   7.350
 9461POPC   NC364319   2.031  43.087   5.550
 9461POPC   PO464320   2.023  43.159   5.850
 9461POPC   GL164321   1.953  43.154   6.150
 9461POPC   GL264322   2.094  43.073   6.150
 9461POPC   C1A64323   2.037  43.147   6.450
 9461POPC   D2A64324   1.980  43.081   6.750
 9461POPC   C3A64325   1.966  43.083   7.050
 9461POPC   C4A64326   1.974  43.099   7.350
 9461POPC   C1B64327   2.266  43.055   6.450
 9461POPC   C2B64328   2.277  43.037   6.750
 9461POPC   C3B64329   2.188  43.037   7.050
 9461POPC   C4B64330   2.242  43.005   7.350
 9462POPC   NC364331  11.318  27.561   5.550
 9462POPC   PO464332  11.286  27.622   5.850
 9462POPC   GL164333  11.252  27.561   6.150
 9462POPC   GL264334  11.330  27.430   6.150
 9462POPC   C1A64335  11.276  27.642   6.450
 9462POPC   D2A64336  11.250  27.551   6.750
 9462POPC   C3A64337  11.282  27.557   7.050
 9462POPC   C4A64338  11.259  27.569   7.350
 9462POPC   C1B64339  11.285  27.384   6.450
 9462POPC   C2B64340  11.329  27.332   6.750
 9462POPC   C3B64341  11.363  27.335   7.050
 9462POPC   C4B64342  11.300  27.338   7.350
 9463POPC   NC364343  40.748  27.633   5.550
 9463POPC   PO464344  40.764  27.567   5.850
 9463POPC   GL164345  40.819  27.607   6.150
 9463POPC   GL264346  40.701  27.533   6.150
 9463POPC   C1A64347  40.762  27.570   6.450
 9463POPC   D2A64348  40.798  27.558   6.750
 9463POPC   C3A64349  40.769  27.597   7.050
 9463POPC   C4A64350  40.771  27.544   7.350
 9463POPC   C1B64351  40.672  27.425   6.450
 9463POPC   C2B64352  40.640  27.378   6.750
 9463POPC   C3B64353  40.617  27.414   7.050
 9463POPC   C4B64354  40.627  27.392   7.350
 9464POPC   NC364355  43.151  35.344   5.550
 9464POPC   PO464356  43.093  35.393   5.850
 9464POPC   GL164357  43.133  35.338   6.150
 9464POPC   GL264358  43.145  35.431   6.150
 9464POPC   C1A64359  43.092  35.382   6.450
 9464POPC   D2A64360  43.075  35.382   6.750
 9464POPC   C3A64361  43.086  35.344   7.050
 9464POPC   C4A64362  43.142  35.359   7.350
 9464POPC   C1B64363  43.120  35.616   6.450
 9464POPC   C2B64364  43.196  35.561   6.750
 9464POPC   C3B64365  43.123  35.640   7.050
 9464POPC   C4B64366  43.173  35.622   7.350
 9465POPC   NC364367   0.400  43.899   5.550
 9465POPC   PO464368   0.406  43.909   5.850
 9465POPC   GL164369   0.454  43.890   6.150
 9465POPC   GL264370   0.449  44.024   6.150
 9465POPC   C1A64371   0.460  43.890   6.450
 9465POPC   D2A64372   0.482  43.914   6.750
 9465POPC   C3A64373   0.444  43.905   7.050
 9465POPC   C4A64374   0.440  43.891   7.350
 9465POPC   C1B64375   0.402  44.119   6.450
 9465POPC   C2B64376   0.402  44.107   6.750
 9465POPC   C3B64377   0.368  44.125   7.050
 9465POPC   C4B64378   0.430  44.149   7.350
 9466POPC   NC364379  20.597  30.741   5.550
 9466POPC   PO464380  20.618  30.715   5.850
 9466POPC   GL164381  20.630  30.736   6.150
 9466POPC   GL264382  20.535  30.604   6.150
 9466POPC   C1A64383  20.657  30.672   6.450
 9466POPC   D2A64384  20.622  30.732   6.750
 9466POPC   C3A64385  20.644  30.680   7.050
 9466POPC   C4A64386  20.561  30.722   7.350
 9466POPC   C1B64387  20.437  30.603   6.450
 9466POPC   C2B64388  20.377  30.531   6.750
 9466POPC   C3B64389  20.442  30.521   7.050
 9466POPC   C4B64390  20.436  30.602   7.350
 9467POPC   NC364391  31.519  43.874   5.550
 9467POPC   PO464392  31.493  43.893   5.850
 9467POPC   GL164393  31.458  43.936   6.150
 9467POPC   GL264394  31.448  43.756   6.150
 9467POPC   C1A64395  31.519  43.930   6.450
 9467POPC   D2A64396  31.425  43.882   6.750
 9467POPC   C3A64397  31.519  43.876   7.050
 9467POPC   C4A64398  31.469  43.935   7.350
 9467POPC   C1B64399  31.520  43.641   6.450
 9467POPC   C2B64400  31.481  43.668   6.750
 9467POPC   C3B64401  31.482  43.648   7.050
 9467POPC   C4B64402  31.462  43.614   7.350
 9468POPC   NC364403   9.019  32.270   5.550
 9468POPC   PO464404   8.942  32.229   5.850
 9468POPC   GL164405   8.938  32.287   6.150
 9468POPC   GL264406   8.867  32.245   6.150
 9468POPC   C1A64407   8.930  32.222   6.450
 9468POPC   D2A64408   8.988  32.265   6.750
 9468POPC   C3A64409   9.017  32.243   7.050
 9468POPC   C4A64410   8.937  32.286   7.350
 9468POPC   C1B64411   8.767  32.229   6.450
 9468POPC   C2B64412   8.771  32.198   6.750
 9468POPC   C3B64413   8.715  32.166   7.050
 9468POPC   C4B64414   8.705  32.226   7.350
 9469POPC   NC364415  29.133   4.315   5.550
 9469POPC   PO464416  29.156   4.350   5.850
 9469POPC   GL164417  29.123   4.317   6.150
 9469POPC   GL264418  29.091   4.253   6.150
 9469POPC   C1A64419  29.107   4.288   6.450
 9469POPC   D2A64420  29.168   4.291   6.750
 9469POPC   C3A64421  29.115   4.363   7.050
 9469POPC   C4A64422  29.112   4.355   7.350
 9469POPC   C1B64423  28.979   4.168   6.450
 9469POPC   C2B64424  28.974   4.130   6.750
 9469POPC   C3B64425  28.923   4.183   7.050
 9469POPC   C4B64426  28.967   4.145   7.350
 9470POPC   NC364427  39.196  18.252   5.550
 9470POPC   PO464428  39.191  18.325   5.850
 9470POPC   GL164429  39.253  18.277   6.150
 9470POPC   GL264430  39.343  18.387   6.150
 9470POPC   C1A64431  39.249  18.300   6.450
 9470POPC   D2A64432  39.254  18.315   6.750
 9470POPC   C3A64433  39.262  18.281   7.050
 9470POPC   C4A64434  39.261  18.246   7.350
 9470POPC   C1B64435  39.422  18.450   6.450
 9470POPC   C2B64436  39.392  18.405   6.750
 9470POPC   C3B64437  39.417  18.458   7.050
 9470POPC   C4B64438  39.396  18.433   7.350
 9471POPC   NC364439  33.770   6.638   5.550
 9471POPC   PO464440  33.788   6.596   5.850
 9471POPC   GL164441  33.792   6.627   6.150
 9471POPC   GL264442  33.692   6.687   6.150
 9471POPC   C1A64443  33.835   6.660   6.450
 9471POPC   D2A64444  33.834   6.653   6.750
 9471POPC   C3A64445  33.766   6.668   7.050
 9471POPC   C4A64446  33.777   6.612   7.350
 9471POPC   C1B64447  33.525   6.724   6.450
 9471POPC   C2B64448  33.595   6.698   6.750
 9471POPC   C3B64449  33.513   6.726   7.050
 9471POPC   C4B64450  33.566   6.755   7.350
 9472POPC   NC364451   6.659  12.867   5.550
 9472POPC   PO464452   6.636  12.861   5.850
 9472POPC   GL164453   6.614  12.877   6.150
 9472POPC   GL264454   6.661  12.963   6.150
 9472POPC   C1A64455   6.636  12.892   6.450
 9472POPC   D2A64456   6.650  12.845   6.750
 9472POPC   C3A64457   6.671  12.821   7.050
 9472POPC   C4A64458   6.635  12.844   7.350
 9472POPC   C1B64459   6.674  13.147   6.450
 9472POPC   C2B64460   6.649  13.086   6.750
 9472POPC   C3B64461   6.611  13.109   7.050
 9472POPC   C4B64462   6.645  13.148   7.350
 9473POPC   NC364463  18.283  44.652   5.550
 9473POPC   PO464464  18.311  44.655   5.850
 9473POPC   GL164465  18.308  44.628   6.150
 9473POPC   GL264466  18.140  44.660   6.150
 9473POPC   C1A64467  18.235  44.679   6.450
 9473POPC   D2A64468  18.329  44.709   6.750
 9473POPC   C3A64469  18.322  44.711   7.050
 9473POPC   C4A64470  18.278  44.620   7.350
 9473POPC   C1B64471  18.031  44.576   6.450
 9473POPC   C2B64472  18.069  44.558   6.750
 9473POPC   C3B64473  18.050  44.560   7.050
 9473POPC   C4B64474  18.055  44.573   7.350
 9474POPC   NC364475  36.113  43.159   5.550
 9474POPC   PO464476  36.129  43.072   5.850
 9474POPC   GL164477  36.079  43.142   6.150
 9474POPC   GL264478  35.990  43.060   6.150
 9474POPC   C1A64479  36.107  43.116   6.450
 9474POPC   D2A64480  36.124  43.060   6.750
 9474POPC   C3A64481  36.135  43.064   7.050
 9474POPC   C4A64482  36.153  43.098   7.350
 9474POPC   C1B64483  35.859  43.041   6.450
 9474POPC   C2B64484  35.942  43.001   6.750
 9474POPC   C3B64485  35.873  43.032   7.050
 9474POPC   C4B64486  35.922  43.059   7.350
 9475POPC   NC364487  22.981  16.730   5.550
 9475POPC   PO464488  22.934  16.692   5.850
 9475POPC   GL164489  22.981  16.775   6.150
 9475POPC   GL264490  23.056  16.629   6.150
 9475POPC   C1A64491  22.930  16.698   6.450
 9475POPC   D2A64492  22.949  16.755   6.750
 9475POPC   C3A64493  22.923  16.712   7.050
 9475POPC   C4A64494  22.964  16.733   7.350
 9475POPC   C1B64495  23.107  16.619   6.450
 9475POPC   C2B64496  23.124  16.622   6.750
 9475POPC   C3B64497  23.100  16.534   7.050
 9475POPC   C4B64498  23.117  16.568   7.350
 9476POPC   NC364499  34.531  15.951   5.550
 9476POPC   PO464500  34.552  15.952   5.850
 9476POPC   GL164501  34.545  15.943   6.150
 9476POPC   GL264502  34.572  16.076   6.150
 9476POPC   C1A64503  34.598  16.000   6.450
 9476POPC   D2A64504  34.602  15.909   6.750
 9476POPC   C3A64505  34.615  15.917   7.050
 9476POPC   C4A64506  34.611  15.976   7.350
 9476POPC   C1B64507  34.635  16.202   6.450
 9476POPC   C2B64508  34.616  16.162   6.750
 9476POPC   C3B64509  34.596  16.244   7.050
 9476POPC   C4B64510  34.616  16.202   7.350
 9477POPC   NC364511  26.814   3.522   5.550
 9477POPC   PO464512  26.861   3.505   5.850
 9477POPC   GL164513  26.813   3.586   6.150
 9477POPC   GL264514  26.967   3.566   6.150
 9477POPC   C1A64515  26.768   3.567   6.450
 9477POPC   D2A64516  26.866   3.498   6.750
 9477POPC   C3A64517  26.856   3.496   7.050
 9477POPC   C4A64518  26.865   3.520   7.350
 9477POPC   C1B64519  26.992   3.623   6.450
 9477POPC   C2B64520  27.052   3.679   6.750
 9477POPC   C3B64521  27.038   3.699   7.050
 9477POPC   C4B64522  27.000   3.667   7.350
 9478POPC   NC364523   8.209  37.716   5.550
 9478POPC   PO464524   8.214  37.715   5.850
 9478POPC   GL164525   8.242  37.630   6.150
 9478POPC   GL264526   8.074  37.640   6.150
 9478POPC   C1A64527   8.238  37.701   6.450
 9478POPC   D2A64528   8.177  37.635   6.750
 9478POPC   C3A64529   8.207  37.655   7.050
 9478POPC   C4A64530   8.209  37.716   7.350
 9478POPC   C1B64531   7.982  37.628   6.450
 9478POPC   C2B64532   7.925  37.673   6.750
 9478POPC   C3B64533   7.922  37.608   7.050
 9478POPC   C4B64534   7.982  37.665   7.350
 9479POPC   NC364535   3.572  27.602   5.550
 9479POPC   PO464536   3.565  27.583   5.850
 9479POPC   GL164537   3.534  27.567   6.150
 9479POPC   GL264538   3.411  27.705   6.150
 9479POPC   C1A64539   3.581  27.586   6.450
 9479POPC   D2A64540   3.578  27.583   6.750
 9479POPC   C3A64541   3.548  27.571   7.050
 9479POPC   C4A64542   3.587  27.577   7.350
 9479POPC   C1B64543   3.348  27.774   6.450
 9479POPC   C2B64544   3.355  27.752   6.750
 9479POPC   C3B64545   3.324  27.765   7.050
 9479POPC   C4B64546   3.294  27.734   7.350
 9480POPC   NC364547  14.402  40.795   5.550
 9480POPC   PO464548  14.452  40.792   5.850
 9480POPC   GL164549  14.399  40.745   6.150
 9480POPC   GL264550  14.358  40.909   6.150
 9480POPC   C1A64551  14.413  40.751   6.450
 9480POPC   D2A64552  14.439  40.786   6.750
 9480POPC   C3A64553  14.365  40.760   7.050
 9480POPC   C4A64554  14.434  40.828   7.350
 9480POPC   C1B64555  14.227  40.980   6.450
 9480POPC   C2B64556  14.210  40.936   6.750
 9480POPC   C3B64557  14.191  40.940   7.050
 9480POPC   C4B64558  14.233  40.913   7.350
 9481POPC   NC364559  20.608  43.139   5.550
 9481POPC   PO464560  20.652  43.141   5.850
 9481POPC   GL164561  20.582  43.082   6.150
 9481POPC   GL264562  20.504  42.989   6.150
 9481POPC   C1A64563  20.566  43.151   6.450
 9481POPC   D2A64564  20.629  43.120   6.750
 9481POPC   C3A64565  20.611  43.119   7.050
 9481POPC   C4A64566  20.646  43.093   7.350
 9481POPC   C1B64567  20.501  42.885   6.450
 9481POPC   C2B64568  20.524  42.851   6.750
 9481POPC   C3B64569  20.472  42.919   7.050
 9481POPC   C4B64570  20.515  42.885   7.350
 9482POPC   NC364571  24.464  29.941   5.550
 9482POPC   PO464572  24.519  29.949   5.850
 9482POPC   GL164573  24.483  29.911   6.150
 9482POPC   GL264574  24.643  29.935   6.150
 9482POPC   C1A64575  24.461  29.915   6.450
 9482POPC   D2A64576  24.528  29.896   6.750
 9482POPC   C3A64577  24.460  29.905   7.050
 9482POPC   C4A64578  24.462  29.930   7.350
 9482POPC   C1B64579  24.699  29.925   6.450
 9482POPC   C2B64580  24.737  29.920   6.750
 9482POPC   C3B64581  24.691  29.870   7.050
 9482POPC   C4B64582  24.698  29.950   7.350
 9483POPC   NC364583  34.547   2.027   5.550
 9483POPC   PO464584  34.527   1.957   5.850
 9483POPC   GL164585  34.534   1.972   6.150
 9483POPC   GL264586  34.606   1.838   6.150
 9483POPC   C1A64587  34.540   2.001   6.450
 9483POPC   D2A64588  34.583   2.021   6.750
 9483POPC   C3A64589  34.582   1.980   7.050
 9483POPC   C4A64590  34.562   1.986   7.350
 9483POPC   C1B64591  34.756   1.805   6.450
 9483POPC   C2B64592  34.678   1.758   6.750
 9483POPC   C3B64593  34.699   1.760   7.050
 9483POPC   C4B64594  34.749   1.797   7.350
 9484POPC   NC364595  11.273   6.694   5.550
 9484POPC   PO464596  11.254   6.612   5.850
 9484POPC   GL164597  11.271   6.615   6.150
 9484POPC   GL264598  11.279   6.760   6.150
 9484POPC   C1A64599  11.254   6.648   6.450
 9484POPC   D2A64600  11.278   6.688   6.750
 9484POPC   C3A64601  11.288   6.628   7.050
 9484POPC   C4A64602  11.303   6.683   7.350
 9484POPC   C1B64603  11.202   6.903   6.450
 9484POPC   C2B64604  11.254   6.922   6.750
 9484POPC   C3B64605  11.241   6.923   7.050
 9484POPC   C4B64606  11.225   6.888   7.350
 9485POPC   NC364607  12.063   1.987   5.550
 9485POPC   PO464608  12.028   2.008   5.850
 9485POPC   GL164609  12.078   1.980   6.150
 9485POPC   GL264610  12.050   1.820   6.150
 9485POPC   C1A64611  12.052   1.977   6.450
 9485POPC   D2A64612  12.035   1.944   6.750
 9485POPC   C3A64613  12.067   1.989   7.050
 9485POPC   C4A64614  12.057   2.018   7.350
 9485POPC   C1B64615  12.142   1.722   6.450
 9485POPC   C2B64616  12.141   1.699   6.750
 9485POPC   C3B64617  12.151   1.725   7.050
 9485POPC   C4B64618  12.062   1.757   7.350
 9486POPC   NC364619  22.953   9.742   5.550
 9486POPC   PO464620  22.988   9.795   5.850
 9486POPC   GL164621  22.948   9.744   6.150
 9486POPC   GL264622  22.931   9.612   6.150
 9486POPC   C1A64623  22.917   9.739   6.450
 9486POPC   D2A64624  22.957   9.766   6.750
 9486POPC   C3A64625  22.933   9.766   7.050
 9486POPC   C4A64626  22.937   9.765   7.350
 9486POPC   C1B64627  22.847   9.547   6.450
 9486POPC   C2B64628  22.826   9.541   6.750
 9486POPC   C3B64629  22.823   9.475   7.050
 9486POPC   C4B64630  22.801   9.553   7.350
 9487POPC   NC364631   3.545   2.779   5.550
 9487POPC   PO464632   3.508   2.731   5.850
 9487POPC   GL164633   3.534   2.736   6.150
 9487POPC   GL264634   3.589   2.594   6.150
 9487POPC   C1A64635   3.539   2.738   6.450
 9487POPC   D2A64636   3.512   2.792   6.750
 9487POPC   C3A64637   3.586   2.763   7.050
 9487POPC   C4A64638   3.503   2.766   7.350
 9487POPC   C1B64639   3.608   2.562   6.450
 9487POPC   C2B64640   3.603   2.498   6.750
 9487POPC   C3B64641   3.607   2.536   7.050
 9487POPC   C4B64642   3.597   2.541   7.350
 9488POPC   NC364643   5.830  19.880   5.550
 9488POPC   PO464644   5.903  19.880   5.850
 9488POPC   GL164645   5.889  19.865   6.150
 9488POPC   GL264646   6.006  19.913   6.150
 9488POPC   C1A64647   5.867  19.834   6.450
 9488POPC   D2A64648   5.853  19.810   6.750
 9488POPC   C3A64649   5.867  19.857   7.050
 9488POPC   C4A64650   5.821  19.821   7.350
 9488POPC   C1B64651   6.049  19.983   6.450
 9488POPC   C2B64652   6.132  19.959   6.750
 9488POPC   C3B64653   6.061  19.979   7.050
 9488POPC   C4B64654   6.124  19.970   7.350
 9489POPC   NC364655  30.744  33.040   5.550
 9489POPC   PO464656  30.689  33.067   5.850
 9489POPC   GL164657  30.722  33.001   6.150
 9489POPC   GL264658  30.690  32.894   6.150
 9489POPC   C1A64659  30.741  33.029   6.450
 9489POPC   D2A64660  30.741  33.002   6.750
 9489POPC   C3A64661  30.701  32.994   7.050
 9489POPC   C4A64662  30.708  33.017   7.350
 9489POPC   C1B64663  30.581  32.807   6.450
 9489POPC   C2B64664  30.643  32.749   6.750
 9489POPC   C3B64665  30.622  32.833   7.050
 9489POPC   C4B64666  30.640  32.806   7.350
 9490POPC   NC364667  13.669  35.378   5.550
 9490POPC   PO464668  13.592  35.394   5.850
 9490POPC   GL164669  13.669  35.365   6.150
 9490POPC   GL264670  13.773  35.252   6.150
 9490POPC   C1A64671  13.677  35.326   6.450
 9490POPC   D2A64672  13.673  35.302   6.750
 9490POPC   C3A64673  13.661  35.391   7.050
 9490POPC   C4A64674  13.635  35.318   7.350
 9490POPC   C1B64675  13.841  35.241   6.450
 9490POPC   C2B64676  13.875  35.201   6.750
 9490POPC   C3B64677  13.839  35.183   7.050
 9490POPC   C4B64678  13.819  35.177   7.350
 9491POPC   NC364679  44.707  26.026   5.550
 9491POPC   PO464680  44.665  25.993   5.850
 9491POPC   GL164681  44.626  26.067   6.150
 9491POPC   GL264682  44.589  25.990   6.150
 9491POPC   C1A64683  44.674  25.997   6.450
 9491POPC   D2A64684  44.647  25.994   6.750
 9491POPC   C3A64685  44.621  26.045   7.050
 9491POPC   C4A64686  44.649  26.043   7.350
 9491POPC   C1B64687  44.401  25.966   6.450
 9491POPC   C2B64688  44.410  25.941   6.750
 9491POPC   C3B64689  44.418  25.981   7.050
 9491POPC   C4B64690  44.388  25.966   7.350
 9492POPC   NC364691  35.325  35.375   5.550
 9492POPC   PO464692  35.331  35.397   5.850
 9492POPC   GL164693  35.391  35.353   6.150
 9492POPC   GL264694  35.201  35.295   6.150
 9492POPC   C1A64695  35.349  35.318   6.450
 9492POPC   D2A64696  35.309  35.325   6.750
 9492POPC   C3A64697  35.383  35.380   7.050
 9492POPC   C4A64698  35.382  35.381   7.350
 9492POPC   C1B64699  35.064  35.280   6.450
 9492POPC   C2B64700  35.100  35.288   6.750
 9492POPC   C3B64701  35.056  35.318   7.050
 9492POPC   C4B64702  35.093  35.296   7.350
 9493POPC   NC364703   8.207   0.484   5.550
 9493POPC   PO464704   8.177   0.445   5.850
 9493POPC   GL164705   8.215   0.468   6.150
 9493POPC   GL264706   8.083   0.432   6.150
 9493POPC   C1A64707   8.160   0.450   6.450
 9493POPC   D2A64708   8.184   0.480   6.750
 9493POPC   C3A64709   8.218   0.478   7.050
 9493POPC   C4A64710   8.172   0.437   7.350
 9493POPC   C1B64711   7.986   0.359   6.450
 9493POPC   C2B64712   7.988   0.365   6.750
 9493POPC   C3B64713   7.929   0.335   7.050
 9493POPC   C4B64714   7.915   0.380   7.350
 9494POPC   NC364715   8.148   8.174   5.550
 9494POPC   PO464716   8.177   8.189   5.850
 9494POPC   GL164717   8.222   8.156   6.150
 9494POPC   GL264718   8.115   8.173   6.150
 9494POPC   C1A64719   8.190   8.150   6.450
 9494POPC   D2A64720   8.163   8.175   6.750
 9494POPC   C3A64721   8.236   8.201   7.050
 9494POPC   C4A64722   8.182   8.192   7.350
 9494POPC   C1B64723   7.959   8.224   6.450
 9494POPC   C2B64724   7.993   8.165   6.750
 9494POPC   C3B64725   7.954   8.186   7.050
 9494POPC   C4B64726   7.901   8.184   7.350
 9495POPC   NC364727   1.973   5.107   5.550
 9495POPC   PO464728   1.958   5.119   5.850
 9495POPC   GL164729   2.015   5.048   6.150
 9495POPC   GL264730   2.036   5.178   6.150
 9495POPC   C1A64731   1.944   5.046   6.450
 9495POPC   D2A64732   2.025   5.135   6.750
 9495POPC   C3A64733   2.010   5.067   7.050
 9495POPC   C4A64734   1.966   5.048   7.350
 9495POPC   C1B64735   2.027   5.384   6.450
 9495POPC   C2B64736   2.009   5.376   6.750
 9495POPC   C3B64737   1.975   5.335   7.050
 9495POPC   C4B64738   2.036   5.385   7.350
 9496POPC   NC364739   8.944  26.049   5.550
 9496POPC   PO464740   8.981  26.027   5.850
 9496POPC   GL164741   9.014  26.023   6.150
 9496POPC   GL264742   8.916  26.181   6.150
 9496POPC   C1A64743   8.923  26.028   6.450
 9496POPC   D2A64744   8.929  26.020   6.750
 9496POPC   C3A64745   8.943  26.087   7.050
 9496POPC   C4A64746   8.963  26.035   7.350
 9496POPC   C1B64747   8.856  26.246   6.450
 9496POPC   C2B64748   8.824  26.282   6.750
 9496POPC   C3B64749   8.811  26.296   7.050
 9496POPC   C4B64750   8.893  26.290   7.350
 9497POPC   NC364751  24.465  25.993   5.550
 9497POPC   PO464752  24.440  26.010   5.850
 9497POPC   GL164753  24.483  26.002   6.150
 9497POPC   GL264754  24.526  25.962   6.150
 9497POPC   C1A64755  24.536  26.042   6.450
 9497POPC   D2A64756  24.482  26.020   6.750
 9497POPC   C3A64757  24.506  26.023   7.050
 9497POPC   C4A64758  24.517  26.067   7.350
 9497POPC   C1B64759  24.506  25.747   6.450
 9497POPC   C2B64760  24.530  25.770   6.750
 9497POPC   C3B64761  24.455  25.777   7.050
 9497POPC   C4B64762  24.505  25.801   7.350
 9498POPC   NC364763  28.331  30.741   5.550
 9498POPC   PO464764  28.376  30.733   5.850
 9498POPC   GL164765  28.394  30.672   6.150
 9498POPC   GL264766  28.279  30.768   6.150
 9498POPC   C1A64767  28.402  30.698   6.450
 9498POPC   D2A64768  28.369  30.674   6.750
 9498POPC   C3A64769  28.357  30.653   7.050
 9498POPC   C4A64770  28.394  30.674   7.350
 9498POPC   C1B64771  28.218  30.884   6.450
 9498POPC   C2B64772  28.245  30.957   6.750
 9498POPC   C3B64773  28.254  30.967   7.050
 9498POPC   C4B64774  28.245  30.914   7.350
 9499POPC   NC364775  35.306  21.379   5.550
 9499POPC   PO464776  35.329  21.351   5.850
 9499POPC   GL164777  35.362  21.396   6.150
 9499POPC   GL264778  35.229  21.351   6.150
 9499POPC   C1A64779  35.303  21.422   6.450
 9499POPC   D2A64780  35.320  21.370   6.750
 9499POPC   C3A64781  35.370  21.364   7.050
 9499POPC   C4A64782  35.307  21.338   7.350
 9499POPC   C1B64783  35.173  21.228   6.450
 9499POPC   C2B64784  35.192  21.271   6.750
 9499POPC   C3B64785  35.191  21.202   7.050
 9499POPC   C4B64786  35.112  21.278   7.350
 9500POPC   NC364787  23.718  38.432   5.550
 9500POPC   PO464788  23.669  38.461   5.850
 9500POPC   GL164789  23.666  38.419   6.150
 9500POPC   GL264790  23.813  38.418   6.150
 9500POPC   C1A64791  23.706  38.439   6.450
 9500POPC   D2A64792  23.687  38.457   6.750
 9500POPC   C3A64793  23.758  38.494   7.050
 9500POPC   C4A64794  23.737  38.408   7.350
 9500POPC   C1B64795  23.973  38.348   6.450
 9500POPC   C2B64796  23.941  38.326   6.750
 9500POPC   C3B64797  23.903  38.382   7.050
 9500POPC   C4B64798  23.941  38.382   7.350
 9501POPC   NC364799  16.742  36.943   5.550
 9501POPC   PO464800  16.717  36.913   5.850
 9501POPC   GL164801  16.721  36.899   6.150
 9501POPC   GL264802  16.822  37.033   6.150
 9501POPC   C1A64803  16.697  36.940   6.450
 9501POPC   D2A64804  16.770  36.914   6.750
 9501POPC   C3A64805  16.769  36.907   7.050
 9501POPC   C4A64806  16.758  36.874   7.350
 9501POPC   C1B64807  16.950  37.107   6.450
 9501POPC   C2B64808  16.925  37.101   6.750
 9501POPC   C3B64809  16.939  37.090   7.050
 9501POPC   C4B64810  16.917  37.083   7.350
 9502POPC   NC364811  31.440  33.834   5.550
 9502POPC   PO464812  31.459  33.791   5.850
 9502POPC   GL164813  31.514  33.765   6.150
 9502POPC   GL264814  31.471  33.663   6.150
 9502POPC   C1A64815  31.511  33.762   6.450
 9502POPC   D2A64816  31.429  33.820   6.750
 9502POPC   C3A64817  31.494  33.796   7.050
 9502POPC   C4A64818  31.476  33.808   7.350
 9502POPC   C1B64819  31.450  33.506   6.450
 9502POPC   C2B64820  31.468  33.579   6.750
 9502POPC   C3B64821  31.435  33.558   7.050
 9502POPC   C4B64822  31.467  33.501   7.350
 9503POPC   NC364823  41.570  31.484   5.550
 9503POPC   PO464824  41.605  31.505   5.850
 9503POPC   GL164825  41.526  31.473   6.150
 9503POPC   GL264826  41.575  31.561   6.150
 9503POPC   C1A64827  41.550  31.490   6.450
 9503POPC   D2A64828  41.532  31.433   6.750
 9503POPC   C3A64829  41.514  31.445   7.050
 9503POPC   C4A64830  41.587  31.485   7.350
 9503POPC   C1B64831  41.704  31.746   6.450
 9503POPC   C2B64832  41.625  31.733   6.750
 9503POPC   C3B64833  41.611  31.747   7.050
 9503POPC   C4B64834  41.614  31.719   7.350
 9504POPC   NC364835  44.649  20.579   5.550
 9504POPC   PO464836  44.617  20.588   5.850
 9504POPC   GL164837  44.625  20.593   6.150
 9504POPC   GL264838  44.574  20.559   6.150
 9504POPC   C1A64839  44.665  20.575   6.450
 9504POPC   D2A64840  44.696  20.638   6.750
 9504POPC   C3A64841  44.710  20.589   7.050
 9504POPC   C4A64842  44.649  20.573   7.350
 9504POPC   C1B64843  44.480  20.474   6.450
 9504POPC   C2B64844  44.484  20.513   6.750
 9504POPC   C3B64845  44.471  20.470   7.050
 9504POPC   C4B64846  44.439  20.470   7.350
 9505POPC   NC364847  26.785  29.965   5.550
 9505POPC   PO464848  26.812  29.907   5.850
 9505POPC   GL164849  26.827  29.882   6.150
 9505POPC   GL264850  26.723  29.867   6.150
 9505POPC   C1A64851  26.803  29.920   6.450
 9505POPC   D2A64852  26.790  29.924   6.750
 9505POPC   C3A64853  26.813  29.962   7.050
 9505POPC   C4A64854  26.857  29.967   7.350
 9505POPC   C1B64855  26.632  29.775   6.450
 9505POPC   C2B64856  26.571  29.753   6.750
 9505POPC   C3B64857  26.616  29.827   7.050
 9505POPC   C4B64858  26.556  29.820   7.350
 9506POPC   NC364859  29.902  36.117   5.550
 9506POPC   PO464860  29.903  36.093   5.850
 9506POPC   GL164861  29.896  36.164   6.150
 9506POPC   GL264862  30.006  36.204   6.150
 9506POPC   C1A64863  29.883  36.173   6.450
 9506POPC   D2A64864  29.917  36.174   6.750
 9506POPC   C3A64865  29.880  36.115   7.050
 9506POPC   C4A64866  29.939  36.123   7.350
 9506POPC   C1B64867  30.131  36.289   6.450
 9506POPC   C2B64868  30.093  36.324   6.750
 9506POPC   C3B64869  30.120  36.318   7.050
 9506POPC   C4B64870  30.091  36.267   7.350
 9507POPC   NC364871  38.442  22.955   5.550
 9507POPC   PO464872  38.481  22.948   5.850
 9507POPC   GL164873  38.486  22.946   6.150
 9507POPC   GL264874  38.556  22.843   6.150
 9507POPC   C1A64875  38.494  22.895   6.450
 9507POPC   D2A64876  38.445  22.888   6.750
 9507POPC   C3A64877  38.492  22.933   7.050
 9507POPC   C4A64878  38.411  22.946   7.350
 9507POPC   C1B64879  38.655  22.712   6.450
 9507POPC   C2B64880  38.624  22.745   6.750
 9507POPC   C3B64881  38.668  22.792   7.050
 9507POPC   C4B64882  38.631  22.727   7.350
 9508POPC   NC364883  36.907   0.412   5.550
 9508POPC   PO464884  36.896   0.458   5.850
 9508POPC   GL164885  36.924   0.415   6.150
 9508POPC   GL264886  36.805   0.361   6.150
 9508POPC   C1A64887  36.874   0.441   6.450
 9508POPC   D2A64888  36.867   0.475   6.750
 9508POPC   C3A64889  36.949   0.471   7.050
 9508POPC   C4A64890  36.875   0.411   7.350
 9508POPC   C1B64891  36.684   0.407   6.450
 9508POPC   C2B64892  36.637   0.391   6.750
 9508POPC   C3B64893  36.697   0.335   7.050
 9508POPC   C4B64894  36.629   0.375   7.350
 9509POPC   NC364895   5.122  38.406   5.550
 9509POPC   PO464896   5.108  38.446   5.850
 9509POPC   GL164897   5.069  38.467   6.150
 9509POPC   GL264898   4.958  38.413   6.150
 9509POPC   C1A64899   5.050  38.476   6.450
 9509POPC   D2A64900   5.081  38.488   6.750
 9509POPC   C3A64901   5.082  38.436   7.050
 9509POPC   C4A64902   5.087  38.475   7.350
 9509POPC   C1B64903   4.913  38.295   6.450
 9509POPC   C2B64904   4.919  38.341   6.750
 9509POPC   C3B64905   4.867  38.263   7.050
 9509POPC   C4B64906   4.923  38.344   7.350
 9510POPC   NC364907  22.891  39.196   5.550
 9510POPC   PO464908  22.939  39.259   5.850
 9510POPC   GL164909  22.955  39.237   6.150
 9510POPC   GL264910  22.998  39.112   6.150
 9510POPC   C1A64911  22.923  39.207   6.450
 9510POPC   D2A64912  22.911  39.199   6.750
 9510POPC   C3A64913  22.966  39.266   7.050
 9510POPC   C4A64914  22.929  39.213   7.350
 9510POPC   C1B64915  22.927  39.005   6.450
 9510POPC   C2B64916  22.961  38.935   6.750
 9510POPC   C3B64917  22.985  38.934   7.050
 9510POPC   C4B64918  22.994  38.940   7.350
 9511POPC   NC364919   9.743  30.682   5.550
 9511POPC   PO464920   9.788  30.725   5.850
 9511POPC   GL164921   9.754  30.681   6.150
 9511POPC   GL264922   9.658  30.645   6.150
 9511POPC   C1A64923   9.788  30.688   6.450
 9511POPC   D2A64924   9.733  30.654   6.750
 9511POPC   C3A64925   9.711  30.665   7.050
 9511POPC   C4A64926   9.729  30.665   7.350
 9511POPC   C1B64927   9.547  30.719   6.450
 9511POPC   C2B64928   9.539  30.733   6.750
 9511POPC   C3B64929   9.473  30.659   7.050
 9511POPC   C4B64930   9.522  30.656   7.350
 9512POPC   NC364931   0.477  39.227   5.550
 9512POPC   PO464932   0.426  39.256   5.850
 9512POPC   GL164933   0.444  39.250   6.150
 9512POPC   GL264934   0.391  39.356   6.150
 9512POPC   C1A64935   0.424  39.193   6.450
 9512POPC   D2A64936   0.470  39.269   6.750
 9512POPC   C3A64937   0.421  39.223   7.050
 9512POPC   C4A64938   0.452  39.256   7.350
 9512POPC   C1B64939   0.389  39.447   6.450
 9512POPC   C2B64940   0.441  39.441   6.750
 9512POPC   C3B64941   0.399  39.450   7.050
 9512POPC   C4B64942   0.378  39.483   7.350
 9513POPC   NC364943  44.663  35.385   5.550
 9513POPC   PO464944  44.643  35.376   5.850
 9513POPC   GL164945  44.655  35.390   6.150
 9513POPC   GL264946  44.624  35.245   6.150
 9513POPC   C1A64947  44.657  35.361   6.450
 9513POPC   D2A64948  44.672  35.352   6.750
 9513POPC   C3A64949  44.696  35.357   7.050
 9513POPC   C4A64950  44.700  35.344   7.350
 9513POPC   C1B64951  44.572  35.145   6.450
 9513POPC   C2B64952  44.552  35.119   6.750
 9513POPC   C3B64953  44.557  35.104   7.050
 9513POPC   C4B64954  44.639  35.132   7.350
 9514POPC   NC364955  17.489  27.585   5.550
 9514POPC   PO464956  17.535  27.580   5.850
 9514POPC   GL164957  17.474  27.573   6.150
 9514POPC   GL264958  17.673  27.606   6.150
 9514POPC   C1A64959  17.513  27.557   6.450
 9514POPC   D2A64960  17.546  27.577   6.750
 9514POPC   C3A64961  17.503  27.635   7.050
 9514POPC   C4A64962  17.517  27.543   7.350
 9514POPC   C1B64963  17.783  27.608   6.450
 9514POPC   C2B64964  17.801  27.569   6.750
 9514POPC   C3B64965  17.785  27.615   7.050
 9514POPC   C4B64966  17.723  27.552   7.350
 9515POPC   NC364967  29.103  32.259   5.550
 9515POPC   PO464968  29.162  32.228   5.850
 9515POPC   GL164969  29.127  32.259   6.150
 9515POPC   GL264970  29.243  32.301   6.150
 9515POPC   C1A64971  29.150  32.250   6.450
 9515POPC   D2A64972  29.161  32.270   6.750
 9515POPC   C3A64973  29.107  32.201   7.050
 9515POPC   C4A64974  29.106  32.218   7.350
 9515POPC   C1B64975  29.420  32.301   6.450
 9515POPC   C2B64976  29.388  32.246   6.750
 9515POPC   C3B64977  29.411  32.289   7.050
 9515POPC   C4B64978  29.385  32.295   7.350
 9516POPC   NC364979  24.463  31.477   5.550
 9516POPC   PO464980  24.477  31.518   5.850
 9516POPC   GL164981  24.467  31.512   6.150
 9516POPC   GL264982  24.502  31.369   6.150
 9516POPC   C1A64983  24.474  31.459   6.450
 9516POPC   D2A64984  24.490  31.485   6.750
 9516POPC   C3A64985  24.493  31.506   7.050
 9516POPC   C4A64986  24.443  31.443   7.350
 9516POPC   C1B64987  24.457  31.247   6.450
 9516POPC   C2B64988  24.516  31.229   6.750
 9516POPC   C3B64989  24.529  31.188   7.050
 9516POPC   C4B64990  24.511  31.219   7.350
 9517POPC   NC364991   9.785  13.616   5.550
 9517POPC   PO464992   9.746  13.592   5.850
 9517POPC   GL164993   9.746  13.595   6.150
 9517POPC   GL264994   9.771  13.474   6.150
 9517POPC   C1A64995   9.785  13.578   6.450
 9517POPC   D2A64996   9.745  13.657   6.750
 9517POPC   C3A64997   9.775  13.583   7.050
 9517POPC   C4A64998   9.733  13.641   7.350
 9517POPC   C1B64999   9.836  13.423   6.450
 9517POPC   C2B65000   9.823  13.371   6.750
 9517POPC   C3B65001   9.836  13.378   7.050
 9517POPC   C4B65002   9.843  13.386   7.350
 9518POPC   NC365003   4.323  21.401   5.550
 9518POPC   PO465004   4.351  21.369   5.850
 9518POPC   GL165005   4.281  21.386   6.150
 9518POPC   GL265006   4.207  21.386   6.150
 9518POPC   C1A65007   4.308  21.385   6.450
 9518POPC   D2A65008   4.346  21.417   6.750
 9518POPC   C3A65009   4.299  21.378   7.050
 9518POPC   C4A65010   4.292  21.373   7.350
 9518POPC   C1B65011   4.025  21.310   6.450
 9518POPC   C2B65012   4.092  21.337   6.750
 9518POPC   C3B65013   4.044  21.334   7.050
 9518POPC   C4B65014   4.028  21.300   7.350
 9519POPC   NC365015  32.275   7.451   5.550
 9519POPC   PO465016  32.285   7.379   5.850
 9519POPC   GL165017  32.211   7.377   6.150
 9519POPC   GL265018  32.247   7.281   6.150
 9519POPC   C1A65019  32.244   7.445   6.450
 9519POPC   D2A65020  32.229   7.419   6.750
 9519POPC   C3A65021  32.220   7.376   7.050
 9519POPC   C4A65022  32.213   7.442   7.350
 9519POPC   C1B65023  32.307   7.131   6.450
 9519POPC   C2B65024  32.241   7.161   6.750
 9519POPC   C3B65025  32.314   7.130   7.050
 9519POPC   C4B65026  32.256   7.124   7.350
 9520POPC   NC365027  44.627   4.302   5.550
 9520POPC   PO465028  44.711   4.353   5.850
 9520POPC   GL165029  44.683   4.310   6.150
 9520POPC   GL265030  44.576   4.477   6.150
 9520POPC   C1A65031  44.617   4.294   6.450
 9520POPC   D2A65032  44.639   4.318   6.750
 9520POPC   C3A65033  44.645   4.331   7.050
 9520POPC   C4A65034  44.638   4.326   7.350
 9520POPC   C1B65035  44.533   4.544   6.450
 9520POPC   C2B65036  44.565   4.526   6.750
 9520POPC   C3B65037  44.578   4.555   7.050
 9520POPC   C4B65038  44.512   4.533   7.350
 9521POPC   NC365039  27.563  39.990   5.550
 9521POPC   PO465040  27.546  40.051   5.850
 9521POPC   GL165041  27.552  39.985   6.150
 9521POPC   GL265042  27.435  39.923   6.150
 9521POPC   C1A65043  27.591  39.986   6.450
 9521POPC   D2A65044  27.570  39.990   6.750
 9521POPC   C3A65045  27.612  39.964   7.050
 9521POPC   C4A65046  27.595  40.047   7.350
 9521POPC   C1B65047  27.330  39.900   6.450
 9521POPC   C2B65048  27.382  39.897   6.750
 9521POPC   C3B65049  27.326  39.881   7.050
 9521POPC   C4B65050  27.375  39.931   7.350
 9522POPC   NC365051   5.877  20.571   5.550
 9522POPC   PO465052   5.887  20.602   5.850
 9522POPC   GL165053   5.842  20.656   6.150
 9522POPC   GL265054   5.957  20.548   6.150
 9522POPC   C1A65055   5.834  20.591   6.450
 9522POPC   D2A65056   5.888  20.626   6.750
 9522POPC   C3A65057   5.900  20.604   7.050
 9522POPC   C4A65058   5.834  20.628   7.350
 9522POPC   C1B65059   6.100  20.453   6.450
 9522POPC   C2B65060   6.119  20.452   6.750
 9522POPC   C3B65061   6.048  20.502   7.050
 9522POPC   C4B65062   6.033  20.501   7.350
 9523POPC   NC365063   2.806   2.797   5.550
 9523POPC   PO465064   2.815   2.721   5.850
 9523POPC   GL165065   2.766   2.749   6.150
 9523POPC   GL265066   2.854   2.748   6.150
 9523POPC   C1A65067   2.718   2.789   6.450
 9523POPC   D2A65068   2.780   2.798   6.750
 9523POPC   C3A65069   2.727   2.785   7.050
 9523POPC   C4A65070   2.786   2.759   7.350
 9523POPC   C1B65071   2.999   2.788   6.450
 9523POPC   C2B65072   3.019   2.869   6.750
 9523POPC   C3B65073   2.980   2.796   7.050
 9523POPC   C4B65074   3.001   2.811   7.350
 9524POPC   NC365075  25.217   4.294   5.550
 9524POPC   PO465076  25.241   4.270   5.850
 9524POPC   GL165077  25.296   4.285   6.150
 9524POPC   GL265078  25.179   4.252   6.150
 9524POPC   C1A65079  25.270   4.304   6.450
 9524POPC   D2A65080  25.280   4.282   6.750
 9524POPC   C3A65081  25.250   4.333   7.050
 9524POPC   C4A65082  25.249   4.362   7.350
 9524POPC   C1B65083  25.104   4.139   6.450
 9524POPC   C2B65084  25.110   4.205   6.750
 9524POPC   C3B65085  25.046   4.167   7.050
 9524POPC   C4B65086  25.108   4.145   7.350
 9525POPC   NC365087  15.914   9.749   5.550
 9525POPC   PO465088  15.988   9.772   5.850
 9525POPC   GL165089  15.986   9.753   6.150
 9525POPC   GL265090  16.060   9.850   6.150
 9525POPC   C1A65091  15.938   9.774   6.450
 9525POPC   D2A65092  15.962   9.719   6.750
 9525POPC   C3A65093  15.947   9.751   7.050
 9525POPC   C4A65094  15.957   9.702   7.350
 9525POPC   C1B65095  16.038   9.947   6.450
 9525POPC   C2B65096  16.101   9.943   6.750
 9525POPC   C3B65097  16.104   9.960   7.050
 9525POPC   C4B65098  16.046  10.017   7.350
 9526POPC   NC365099  19.837  43.924   5.550
 9526POPC   PO465100  19.871  43.873   5.850
 9526POPC   GL165101  19.805  43.851   6.150
 9526POPC   GL265102  19.875  43.984   6.150
 9526POPC   C1A65103  19.864  43.861   6.450
 9526POPC   D2A65104  19.812  43.899   6.750
 9526POPC   C3A65105  19.827  43.928   7.050
 9526POPC   C4A65106  19.851  43.877   7.350
 9526POPC   C1B65107  20.020  44.044   6.450
 9526POPC   C2B65108  19.977  44.085   6.750
 9526POPC   C3B65109  19.982  44.067   7.050
 9526POPC   C4B65110  19.971  44.040   7.350
 9527POPC   NC365111  15.198   4.283   5.550
 9527POPC   PO465112  15.159   4.332   5.850
 9527POPC   GL165113  15.164   4.281   6.150
 9527POPC   GL265114  15.348   4.349   6.150
 9527POPC   C1A65115  15.192   4.289   6.450
 9527POPC   D2A65116  15.173   4.335   6.750
 9527POPC   C3A65117  15.210   4.283   7.050
 9527POPC   C4A65118  15.148   4.311   7.350
 9527POPC   C1B65119  15.425   4.358   6.450
 9527POPC   C2B65120  15.448   4.372   6.750
 9527POPC   C3B65121  15.386   4.320   7.050
 9527POPC   C4B65122  15.385   4.399   7.350
 9528POPC   NC365123  44.638  17.537   5.550
 9528POPC   PO465124  44.642  17.479   5.850
 9528POPC   GL165125  44.710  17.529   6.150
 9528POPC   GL265126  44.731  17.572   6.150
 9528POPC   C1A65127  44.682  17.552   6.450
 9528POPC   D2A65128  44.620  17.545   6.750
 9528POPC   C3A65129  44.621  17.469   7.050
 9528POPC   C4A65130  44.645  17.484   7.350
 9528POPC   C1B65131  44.826  17.694   6.450
 9528POPC   C2B65132  44.915  17.643   6.750
 9528POPC   C3B65133  44.897  17.644   7.050
 9528POPC   C4B65134  44.828  17.637   7.350
 9529POPC   NC365135  12.102   6.672   5.550
 9529POPC   PO465136  12.091   6.628   5.850
 9529POPC   GL165137  12.079   6.617   6.150
 9529POPC   GL265138  12.039   6.712   6.150
 9529POPC   C1A65139  12.040   6.683   6.450
 9529POPC   D2A65140  12.072   6.597   6.750
 9529POPC   C3A65141  12.104   6.687   7.050
 9529POPC   C4A65142  12.094   6.624   7.350
 9529POPC   C1B65143  12.015   6.828   6.450
 9529POPC   C2B65144  11.994   6.840   6.750
 9529POPC   C3B65145  11.950   6.899   7.050
 9529POPC   C4B65146  11.961   6.914   7.350
 9530POPC   NC365147   9.717  14.451   5.550
 9530POPC   PO465148   9.716  14.440   5.850
 9530POPC   GL165149   9.726  14.364   6.150
 9530POPC   GL265150   9.836  14.405   6.150
 9530POPC   C1A65151   9.717  14.421   6.450
 9530POPC   D2A65152   9.788  14.439   6.750
 9530POPC   C3A65153   9.795  14.448   7.050
 9530POPC   C4A65154   9.776  14.400   7.350
 9530POPC   C1B65155   9.983  14.422   6.450
 9530POPC   C2B65156   9.969  14.432   6.750
 9530POPC   C3B65157   9.963  14.438   7.050
 9530POPC   C4B65158  10.016  14.411   7.350
 9531POPC   NC365159  42.343   1.181   5.550
 9531POPC   PO465160  42.378   1.173   5.850
 9531POPC   GL165161  42.334   1.249   6.150
 9531POPC   GL265162  42.332   1.094   6.150
 9531POPC   C1A65163  42.332   1.221   6.450
 9531POPC   D2A65164  42.338   1.231   6.750
 9531POPC   C3A65165  42.379   1.239   7.050
 9531POPC   C4A65166  42.379   1.221   7.350
 9531POPC   C1B65167  42.451   0.949   6.450
 9531POPC   C2B65168  42.420   0.976   6.750
 9531POPC   C3B65169  42.413   1.022   7.050
 9531POPC   C4B65170  42.360   0.959   7.350
 9532POPC   NC365171  25.229   3.515   5.550
 9532POPC   PO465172  25.275   3.537   5.850
 9532POPC   GL165173  25.233   3.548   6.150
 9532POPC   GL265174  25.400   3.564   6.150
 9532POPC   C1A65175  25.253   3.566   6.450
 9532POPC   D2A65176  25.282   3.512   6.750
 9532POPC   C3A65177  25.216   3.578   7.050
 9532POPC   C4A65178  25.310   3.564   7.350
 9532POPC   C1B65179  25.543   3.587   6.450
 9532POPC   C2B65180  25.556   3.526   6.750
 9532POPC   C3B65181  25.497   3.528   7.050
 9532POPC   C4B65182  25.514   3.549   7.350
 9533POPC   NC365183  43.883  33.001   5.550
 9533POPC   PO465184  43.884  33.038   5.850
 9533POPC   GL165185  43.902  33.072   6.150
 9533POPC   GL265186  43.948  32.973   6.150
 9533POPC   C1A65187  43.906  33.043   6.450
 9533POPC   D2A65188  43.863  33.052   6.750
 9533POPC   C3A65189  43.842  32.995   7.050
 9533POPC   C4A65190  43.866  33.016   7.350
 9533POPC   C1B65191  44.116  32.872   6.450
 9533POPC   C2B65192  44.102  32.835   6.750
 9533POPC   C3B65193  44.119  32.828   7.050
 9533POPC   C4B65194  44.089  32.847   7.350
 9534POPC   NC365195  10.510   5.139   5.550
 9534POPC   PO465196  10.519   5.140   5.850
 9534POPC   GL165197  10.539   5.058   6.150
 9534POPC   GL265198  10.471   4.997   6.150
 9534POPC   C1A65199  10.533   5.075   6.450
 9534POPC   D2A65200  10.552   5.073   6.750
 9534POPC   C3A65201  10.518   5.138   7.050
 9534POPC   C4A65202  10.505   5.072   7.350
 9534POPC   C1B65203  10.327   4.933   6.450
 9534POPC   C2B65204  10.339   4.901   6.750
 9534POPC   C3B65205  10.285   4.927   7.050
 9534POPC   C4B65206  10.310   4.939   7.350
 9535POPC   NC365207  24.495  20.570   5.550
 9535POPC   PO465208  24.465  20.611   5.850
 9535POPC   GL165209  24.493  20.631   6.150
 9535POPC   GL265210  24.483  20.456   6.150
 9535POPC   C1A65211  24.471  20.561   6.450
 9535POPC   D2A65212  24.528  20.566   6.750
 9535POPC   C3A65213  24.535  20.639   7.050
 9535POPC   C4A65214  24.470  20.615   7.350
 9535POPC   C1B65215  24.549  20.371   6.450
 9535POPC   C2B65216  24.477  20.341   6.750
 9535POPC   C3B65217  24.522  20.378   7.050
 9535POPC   C4B65218  24.522  20.405   7.350
 9536POPC   NC365219  41.603  12.875   5.550
 9536POPC   PO465220  41.606  12.878   5.850
 9536POPC   GL165221  41.511  12.894   6.150
 9536POPC   GL265222  41.653  12.978   6.150
 9536POPC   C1A65223  41.564  12.857   6.450
 9536POPC   D2A65224  41.572  12.841   6.750
 9536POPC   C3A65225  41.538  12.831   7.050
 9536POPC   C4A65226  41.582  12.814   7.350
 9536POPC   C1B65227  41.651  13.022   6.450
 9536POPC   C2B65228  41.676  13.021   6.750
 9536POPC   C3B65229  41.738  13.108   7.050
 9536POPC   C4B65230  41.698  13.070   7.350
 9537POPC   NC365231   8.246  27.555   5.550
 9537POPC   PO465232   8.224  27.552   5.850
 9537POPC   GL165233   8.181  27.572   6.150
 9537POPC   GL265234   8.259  27.454   6.150
 9537POPC   C1A65235   8.235  27.590   6.450
 9537POPC   D2A65236   8.213  27.583   6.750
 9537POPC   C3A65237   8.208  27.589   7.050
 9537POPC   C4A65238   8.218  27.583   7.350
 9537POPC   C1B65239   8.325  27.386   6.450
 9537POPC   C2B65240   8.353  27.448   6.750
 9537POPC   C3B65241   8.354  27.402   7.050
 9537POPC   C4B65242   8.322  27.418   7.350
 9538POPC   NC365243  23.722  41.597   5.550
 9538POPC   PO465244  23.736  41.582   5.850
 9538POPC   GL165245  23.761  41.592   6.150
 9538POPC   GL265246  23.855  41.524   6.150
 9538POPC   C1A65247  23.671  41.562   6.450
 9538POPC   D2A65248  23.688  41.538   6.750
 9538POPC   C3A65249  23.707  41.561   7.050
 9538POPC   C4A65250  23.737  41.603   7.350
 9538POPC   C1B65251  23.951  41.556   6.450
 9538POPC   C2B65252  23.982  41.597   6.750
 9538POPC   C3B65253  23.917  41.605   7.050
 9538POPC   C4B65254  23.992  41.626   7.350
 9539POPC   NC365255  37.707   8.184   5.550
 9539POPC   PO465256  37.670   8.158   5.850
 9539POPC   GL165257  37.661   8.202   6.150
 9539POPC   GL265258  37.676   8.344   6.150
 9539POPC   C1A65259  37.651   8.182   6.450
 9539POPC   D2A65260  37.686   8.192   6.750
 9539POPC   C3A65261  37.688   8.224   7.050
 9539POPC   C4A65262  37.634   8.238   7.350
 9539POPC   C1B65263  37.623   8.476   6.450
 9539POPC   C2B65264  37.694   8.436   6.750
 9539POPC   C3B65265  37.698   8.442   7.050
 9539POPC   C4B65266  37.674   8.435   7.350
 9540POPC   NC365267   8.931  33.775   5.550
 9540POPC   PO465268   8.937  33.791   5.850
 9540POPC   GL165269   8.948  33.821   6.150
 9540POPC   GL265270   8.999  33.659   6.150
 9540POPC   C1A65271   9.021  33.844   6.450
 9540POPC   D2A65272   8.974  33.833   6.750
 9540POPC   C3A65273   9.019  33.768   7.050
 9540POPC   C4A65274   8.935  33.798   7.350
 9540POPC   C1B65275   8.946  33.585   6.450
 9540POPC   C2B65276   9.004  33.521   6.750
 9540POPC   C3B65277   9.022  33.543   7.050
 9540POPC   C4B65278   9.011  33.519   7.350
 9541POPC   NC365279  26.786  40.820   5.550
 9541POPC   PO465280  26.836  40.809   5.850
 9541POPC   GL165281  26.853  40.825   6.150
 9541POPC   GL265282  26.922  40.913   6.150
 9541POPC   C1A65283  26.865  40.777   6.450
 9541POPC   D2A65284  26.867  40.741   6.750
 9541POPC   C3A65285  26.854  40.792   7.050
 9541POPC   C4A65286  26.772  40.784   7.350
 9541POPC   C1B65287  26.995  40.915   6.450
 9541POPC   C2B65288  26.972  41.002   6.750
 9541POPC   C3B65289  26.959  40.940   7.050
 9541POPC   C4B65290  27.034  40.976   7.350
 9542POPC   NC365291  12.842  11.308   5.550
 9542POPC   PO465292  12.860  11.338   5.850
 9542POPC   GL165293  12.813  11.276   6.150
 9542POPC   GL265294  13.018  11.332   6.150
 9542POPC   C1A65295  12.806  11.349   6.450
 9542POPC   D2A65296  12.836  11.283   6.750
 9542POPC   C3A65297  12.852  11.311   7.050
 9542POPC   C4A65298  12.843  11.312   7.350
 9542POPC   C1B65299  13.064  11.314   6.450
 9542POPC   C2B65300  13.077  11.299   6.750
 9542POPC   C3B65301  13.085  11.262   7.050
 9542POPC   C4B65302  13.097  11.240   7.350
 9543POPC   NC365303  32.993   8.242   5.550
 9543POPC   PO465304  32.978   8.244   5.850
 9543POPC   GL165305  33.010   8.207   6.150
 9543POPC   GL265306  32.992   8.073   6.150
 9543POPC   C1A65307  33.066   8.151   6.450
 9543POPC   D2A65308  33.017   8.239   6.750
 9543POPC   C3A65309  33.053   8.199   7.050
 9543POPC   C4A65310  33.046   8.175   7.350
 9543POPC   C1B65311  33.018   7.994   6.450
 9543POPC   C2B65312  33.016   7.974   6.750
 9543POPC   C3B65313  32.993   7.920   7.050
 9543POPC   C4B65314  33.006   7.951   7.350
 9544POPC   NC365315  24.488   7.463   5.550
 9544POPC   PO465316  24.527   7.385   5.850
 9544POPC   GL165317  24.467   7.436   6.150
 9544POPC   GL265318  24.498   7.571   6.150
 9544POPC   C1A65319  24.513   7.448   6.450
 9544POPC   D2A65320  24.442   7.372   6.750
 9544POPC   C3A65321  24.476   7.455   7.050
 9544POPC   C4A65322  24.530   7.397   7.350
 9544POPC   C1B65323  24.538   7.693   6.450
 9544POPC   C2B65324  24.568   7.617   6.750
 9544POPC   C3B65325  24.514   7.652   7.050
 9544POPC   C4B65326  24.597   7.681   7.350
 9545POPC   NC365327   9.726   3.525   5.550
 9545POPC   PO465328   9.797   3.513   5.850
 9545POPC   GL165329   9.723   3.505   6.150
 9545POPC   GL265330   9.909   3.541   6.150
 9545POPC   C1A65331   9.735   3.550   6.450
 9545POPC   D2A65332   9.751   3.576   6.750
 9545POPC   C3A65333   9.727   3.544   7.050
 9545POPC   C4A65334   9.785   3.557   7.350
 9545POPC   C1B65335   9.993   3.518   6.450
 9545POPC   C2B65336  10.047   3.495   6.750
 9545POPC   C3B65337  10.000   3.575   7.050
 9545POPC   C4B65338   9.996   3.505   7.350
 9546POPC   NC365339  21.362  42.337   5.550
 9546POPC   PO465340  21.379  42.345   5.850
 9546POPC   GL165341  21.429  42.381   6.150
 9546POPC   GL265342  21.271  42.338   6.150
 9546POPC   C1A65343  21.428  42.319   6.450
 9546POPC   D2A65344  21.401  42.334   6.750
 9546POPC   C3A65345  21.394  42.342   7.050
 9546POPC   C4A65346  21.358  42.380   7.350
 9546POPC   C1B65347  21.106  42.296   6.450
 9546POPC   C2B65348  21.123  42.281   6.750
 9546POPC   C3B65349  21.107  42.287   7.050
 9546POPC   C4B65350  21.170  42.264   7.350
 9547POPC   NC365351  43.906   9.777   5.550
 9547POPC   PO465352  43.866   9.759   5.850
 9547POPC   GL165353  43.887   9.776   6.150
 9547POPC   GL265354  43.997   9.877   6.150
 9547POPC   C1A65355  43.917   9.790   6.450
 9547POPC   D2A65356  43.880   9.798   6.750
 9547POPC   C3A65357  43.897   9.761   7.050
 9547POPC   C4A65358  43.935   9.782   7.350
 9547POPC   C1B65359  44.106   9.936   6.450
 9547POPC   C2B65360  44.112   9.905   6.750
 9547POPC   C3B65361  44.074   9.907   7.050
 9547POPC   C4B65362  44.087   9.912   7.350
 9548POPC   NC365363   1.199  31.487   5.550
 9548POPC   PO465364   1.220  31.440   5.850
 9548POPC   GL165365   1.207  31.494   6.150
 9548POPC   GL265366   1.073  31.577   6.150
 9548POPC   C1A65367   1.224  31.489   6.450
 9548POPC   D2A65368   1.176  31.496   6.750
 9548POPC   C3A65369   1.198  31.477   7.050
 9548POPC   C4A65370   1.241  31.460   7.350
 9548POPC   C1B65371   1.022  31.652   6.450
 9548POPC   C2B65372   1.038  31.591   6.750
 9548POPC   C3B65373   0.983  31.624   7.050
 9548POPC   C4B65374   0.976  31.580   7.350
 9549POPC   NC365375   7.400  36.083   5.550
 9549POPC   PO465376   7.419  36.165   5.850
 9549POPC   GL165377   7.445  36.103   6.150
 9549POPC   GL265378   7.304  36.070   6.150
 9549POPC   C1A65379   7.467  36.150   6.450
 9549POPC   D2A65380   7.386  36.135   6.750
 9549POPC   C3A65381   7.439  36.124   7.050
 9549POPC   C4A65382   7.396  36.083   7.350
 9549POPC   C1B65383   7.192  36.036   6.450
 9549POPC   C2B65384   7.172  35.988   6.750
 9549POPC   C3B65385   7.145  36.031   7.050
 9549POPC   C4B65386   7.228  36.035   7.350
 9550POPC   NC365387  29.891  18.294   5.550
 9550POPC   PO465388  29.928  18.282   5.850
 9550POPC   GL165389  29.876  18.310   6.150
 9550POPC   GL265390  29.912  18.191   6.150
 9550POPC   C1A65391  29.950  18.321   6.450
 9550POPC   D2A65392  29.883  18.257   6.750
 9550POPC   C3A65393  29.889  18.318   7.050
 9550POPC   C4A65394  29.931  18.296   7.350
 9550POPC   C1B65395  29.940  18.046   6.450
 9550POPC   C2B65396  29.974  17.999   6.750
 9550POPC   C3B65397  29.925  18.029   7.050
 9550POPC   C4B65398  29.925  17.992   7.350
 9551POPC   NC365399  36.122   8.172   5.550
 9551POPC   PO465400  36.162   8.187   5.850
 9551POPC   GL165401  36.175   8.157   6.150
 9551POPC   GL265402  36.255   8.221   6.150
 9551POPC   C1A65403  36.111   8.210   6.450
 9551POPC   D2A65404  36.098   8.163   6.750
 9551POPC   C3A65405  36.095   8.207   7.050
 9551POPC   C4A65406  36.081   8.230   7.350
 9551POPC   C1B65407  36.415   8.217   6.450
 9551POPC   C2B65408  36.390   8.175   6.750
 9551POPC   C3B65409  36.397   8.190   7.050
 9551POPC   C4B65410  36.398   8.208   7.350
 9552POPC   NC365411  25.237   8.183   5.550
 9552POPC   PO465412  25.302   8.199   5.850
 9552POPC   GL165413  25.266   8.212   6.150
 9552POPC   GL265414  25.265   8.028   6.150
 9552POPC   C1A65415  25.301   8.228   6.450
 9552POPC   D2A65416  25.292   8.200   6.750
 9552POPC   C3A65417  25.313   8.231   7.050
 9552POPC   C4A65418  25.278   8.201   7.350
 9552POPC   C1B65419  25.296   7.981   6.450
 9552POPC   C2B65420  25.326   7.911   6.750
 9552POPC   C3B65421  25.260   7.963   7.050
 9552POPC   C4B65422  25.320   7.961   7.350
 9553POPC   NC365423  14.442  39.243   5.550
 9553POPC   PO465424  14.376  39.238   5.850
 9553POPC   GL165425  14.371  39.213   6.150
 9553POPC   GL265426  14.509  39.265   6.150
 9553POPC   C1A65427  14.392  39.233   6.450
 9553POPC   D2A65428  14.424  39.264   6.750
 9553POPC   C3A65429  14.396  39.203   7.050
 9553POPC   C4A65430  14.423  39.206   7.350
 9553POPC   C1B65431  14.663  39.334   6.450
 9553POPC   C2B65432  14.619  39.316   6.750
 9553POPC   C3B65433  14.602  39.391   7.050
 9553POPC   C4B65434  14.633  39.300   7.350
 9554POPC   NC365435  22.144  16.691   5.550
 9554POPC   PO465436  22.130  16.765   5.850
 9554POPC   GL165437  22.183  16.777   6.150
 9554POPC   GL265438  22.098  16.807   6.150
 9554POPC   C1A65439  22.177  16.701   6.450
 9554POPC   D2A65440  22.176  16.779   6.750
 9554POPC   C3A65441  22.208  16.693   7.050
 9554POPC   C4A65442  22.175  16.719   7.350
 9554POPC   C1B65443  21.930  16.854   6.450
 9554POPC   C2B65444  21.920  16.792   6.750
 9554POPC   C3B65445  21.968  16.861   7.050
 9554POPC   C4B65446  21.921  16.845   7.350
 9555POPC   NC365447   8.223  35.360   5.550
 9555POPC   PO465448   8.221  35.374   5.850
 9555POPC   GL165449   8.163  35.352   6.150
 9555POPC   GL265450   8.300  35.279   6.150
 9555POPC   C1A65451   8.175  35.383   6.450
 9555POPC   D2A65452   8.156  35.324   6.750
 9555POPC   C3A65453   8.221  35.352   7.050
 9555POPC   C4A65454   8.204  35.313   7.350
 9555POPC   C1B65455   8.367  35.156   6.450
 9555POPC   C2B65456   8.374  35.205   6.750
 9555POPC   C3B65457   8.344  35.186   7.050
 9555POPC   C4B65458   8.342  35.170   7.350
 9556POPC   NC365459  23.706  11.333   5.550
 9556POPC   PO465460  23.680  11.329   5.850
 9556POPC   GL165461  23.724  11.296   6.150
 9556POPC   GL265462  23.616  11.263   6.150
 9556POPC   C1A65463  23.723  11.264   6.450
 9556POPC   D2A65464  23.726  11.342   6.750
 9556POPC   C3A65465  23.747  11.274   7.050
 9556POPC   C4A65466  23.694  11.256   7.350
 9556POPC   C1B65467  23.475  11.133   6.450
 9556POPC   C2B65468  23.467  11.135   6.750
 9556POPC   C3B65469  23.534  11.203   7.050
 9556POPC   C4B65470  23.532  11.178   7.350
 9557POPC   NC365471  13.634   8.928   5.550
 9557POPC   PO465472  13.638   9.017   5.850
 9557POPC   GL165473  13.602   8.923   6.150
 9557POPC   GL265474  13.692   8.856   6.150
 9557POPC   C1A65475  13.578   8.942   6.450
 9557POPC   D2A65476  13.631   8.935   6.750
 9557POPC   C3A65477  13.661   8.945   7.050
 9557POPC   C4A65478  13.592   8.959   7.350
 9557POPC   C1B65479  13.826   8.820   6.450
 9557POPC   C2B65480  13.877   8.847   6.750
 9557POPC   C3B65481  13.843   8.846   7.050
 9557POPC   C4B65482  13.888   8.803   7.350
 9558POPC   NC365483  10.504  25.239   5.550
 9558POPC   PO465484  10.539  25.276   5.850
 9558POPC   GL165485  10.505  25.217   6.150
 9558POPC   GL265486  10.452  25.354   6.150
 9558POPC   C1A65487  10.534  25.225   6.450
 9558POPC   D2A65488  10.499  25.248   6.750
 9558POPC   C3A65489  10.490  25.311   7.050
 9558POPC   C4A65490  10.492  25.227   7.350
 9558POPC   C1B65491  10.336  25.400   6.450
 9558POPC   C2B65492  10.303  25.396   6.750
 9558POPC   C3B65493  10.309  25.408   7.050
 9558POPC   C4B65494  10.312  25.426   7.350
 9559POPC   NC365495   7.399  36.894   5.550
 9559POPC   PO465496   7.436  36.906   5.850
 9559POPC   GL165497   7.436  36.872   6.150
 9559POPC   GL265498   7.359  36.938   6.150
 9559POPC   C1A65499   7.430  36.876   6.450
 9559POPC   D2A65500   7.433  36.888   6.750
 9559POPC   C3A65501   7.436  36.896   7.050
 9559POPC   C4A65502   7.396  36.932   7.350
 9559POPC   C1B65503   7.250  37.032   6.450
 9559POPC   C2B65504   7.258  37.011   6.750
 9559POPC   C3B65505   7.173  37.029   7.050
 9559POPC   C4B65506   7.198  37.056   7.350
 9560POPC   NC365507  44.695   2.013   5.550
 9560POPC   PO465508  44.637   1.977   5.850
 9560POPC   GL165509  44.649   2.031   6.150
 9560POPC   GL265510  44.612   1.854   6.150
 9560POPC   C1A65511  44.706   2.003   6.450
 9560POPC   D2A65512  44.653   2.018   6.750
 9560POPC   C3A65513  44.622   2.002   7.050
 9560POPC   C4A65514  44.629   1.989   7.350
 9560POPC   C1B65515  44.648   1.748   6.450
 9560POPC   C2B65516  44.642   1.704   6.750
 9560POPC   C3B65517  44.618   1.702   7.050
 9560POPC   C4B65518  44.649   1.737   7.350
 9561POPC   NC365519  36.946  17.536   5.550
 9561POPC   PO465520  36.898  17.517   5.850
 9561POPC   GL165521  36.922  17.528   6.150
 9561POPC   GL265522  37.013  17.572   6.150
 9561POPC   C1A65523  36.906  17.519   6.450
 9561POPC   D2A65524  36.906  17.463   6.750
 9561POPC   C3A65525  36.868  17.527   7.050
 9561POPC   C4A65526  36.929  17.536   7.350
 9561POPC   C1B65527  37.081  17.645   6.450
 9561POPC   C2B65528  37.064  17.675   6.750
 9561POPC   C3B65529  37.071  17.672   7.050
 9561POPC   C4B65530  37.116  17.655   7.350
 9562POPC   NC365531  44.680  41.558   5.550
 9562POPC   PO465532  44.643  41.592   5.850
 9562POPC   GL165533  44.691  41.520   6.150
 9562POPC   GL265534  44.568  41.632   6.150
 9562POPC   C1A65535  44.671  41.553   6.450
 9562POPC   D2A65536  44.613  41.588   6.750
 9562POPC   C3A65537  44.620  41.568   7.050
 9562POPC   C4A65538  44.650  41.524   7.350
 9562POPC   C1B65539  44.452  41.651   6.450
 9562POPC   C2B65540  44.464  41.702   6.750
 9562POPC   C3B65541  44.407  41.710   7.050
 9562POPC   C4B65542  44.481  41.673   7.350
 9563POPC   NC365543   4.293   3.537   5.550
 9563POPC   PO465544   4.319   3.554   5.850
 9563POPC   GL165545   4.344   3.492   6.150
 9563POPC   GL265546   4.190   3.521   6.150
 9563POPC   C1A65547   4.303   3.581   6.450
 9563POPC   D2A65548   4.320   3.523   6.750
 9563POPC   C3A65549   4.337   3.521   7.050
 9563POPC   C4A65550   4.312   3.492   7.350
 9563POPC   C1B65551   4.029   3.525   6.450
 9563POPC   C2B65552   4.086   3.511   6.750
 9563POPC   C3B65553   4.053   3.541   7.050
 9563POPC   C4B65554   4.092   3.509   7.350
 9564POPC   NC365555   5.067   4.328   5.550
 9564POPC   PO465556   5.081   4.326   5.850
 9564POPC   GL165557   5.095   4.292   6.150
 9564POPC   GL265558   5.008   4.274   6.150
 9564POPC   C1A65559   5.074   4.353   6.450
 9564POPC   D2A65560   5.094   4.304   6.750
 9564POPC   C3A65561   5.068   4.298   7.050
 9564POPC   C4A65562   5.132   4.288   7.350
 9564POPC   C1B65563   4.862   4.253   6.450
 9564POPC   C2B65564   4.817   4.237   6.750
 9564POPC   C3B65565   4.841   4.223   7.050
 9564POPC   C4B65566   4.816   4.311   7.350
 9565POPC   NC365567  14.410  36.170   5.550
 9565POPC   PO465568  14.365  36.175   5.850
 9565POPC   GL165569  14.370  36.131   6.150
 9565POPC   GL265570  14.314  36.236   6.150
 9565POPC   C1A65571  14.447  36.171   6.450
 9565POPC   D2A65572  14.416  36.129   6.750
 9565POPC   C3A65573  14.395  36.108   7.050
 9565POPC   C4A65574  14.390  36.124   7.350
 9565POPC   C1B65575  14.310  36.314   6.450
 9565POPC   C2B65576  14.238  36.381   6.750
 9565POPC   C3B65577  14.260  36.309   7.050
 9565POPC   C4B65578  14.238  36.315   7.350
 9566POPC   NC365579  15.171  12.833   5.550
 9566POPC   PO465580  15.221  12.802   5.850
 9566POPC   GL165581  15.207  12.851   6.150
 9566POPC   GL265582  15.192  13.021   6.150
 9566POPC   C1A65583  15.142  12.808   6.450
 9566POPC   D2A65584  15.219  12.854   6.750
 9566POPC   C3A65585  15.152  12.823   7.050
 9566POPC   C4A65586  15.193  12.881   7.350
 9566POPC   C1B65587  15.215  13.115   6.450
 9566POPC   C2B65588  15.181  13.118   6.750
 9566POPC   C3B65589  15.183  13.131   7.050
 9566POPC   C4B65590  15.217  13.143   7.350
 9567POPC   NC365591  15.150  18.282   5.550
 9567POPC   PO465592  15.196  18.297   5.850
 9567POPC   GL165593  15.161  18.238   6.150
 9567POPC   GL265594  15.293  18.419   6.150
 9567POPC   C1A65595  15.149  18.279   6.450
 9567POPC   D2A65596  15.173  18.327   6.750
 9567POPC   C3A65597  15.163  18.321   7.050
 9567POPC   C4A65598  15.130  18.302   7.350
 9567POPC   C1B65599  15.382  18.496   6.450
 9567POPC   C2B65600  15.358  18.473   6.750
 9567POPC   C3B65601  15.380  18.472   7.050
 9567POPC   C4B65602  15.350  18.504   7.350
 9568POPC   NC365603  36.101  44.709   5.550
 9568POPC   PO465604  36.097  44.698   5.850
 9568POPC   GL165605  36.122  44.710   6.150
 9568POPC   GL265606  36.181  44.778   6.150
 9568POPC   C1A65607  36.080  44.650   6.450
 9568POPC   D2A65608  36.146  44.677   6.750
 9568POPC   C3A65609  36.147  44.630   7.050
 9568POPC   C4A65610  36.141  44.683   7.350
 9568POPC   C1B65611  36.322  44.849   6.450
 9568POPC   C2B65612  36.311  44.790   6.750
 9568POPC   C3B65613  36.357  44.819   7.050
 9568POPC   C4B65614  36.340  44.794   7.350
 9569POPC   NC365615  20.586  38.411   5.550
 9569POPC   PO465616  20.639  38.463   5.850
 9569POPC   GL165617  20.582  38.474   6.150
 9569POPC   GL265618  20.641  38.297   6.150
 9569POPC   C1A65619  20.641  38.449   6.450
 9569POPC   D2A65620  20.573  38.446   6.750
 9569POPC   C3A65621  20.577  38.483   7.050
 9569POPC   C4A65622  20.629  38.468   7.350
 9569POPC   C1B65623  20.614  38.165   6.450
 9569POPC   C2B65624  20.555  38.190   6.750
 9569POPC   C3B65625  20.581  38.230   7.050
 9569POPC   C4B65626  20.591  38.211   7.350
 9570POPC   NC365627   4.342  26.835   5.550
 9570POPC   PO465628   4.314  26.848   5.850
 9570POPC   GL165629   4.324  26.798   6.150
 9570POPC   GL265630   4.190  26.871   6.150
 9570POPC   C1A65631   4.304  26.830   6.450
 9570POPC   D2A65632   4.301  26.782   6.750
 9570POPC   C3A65633   4.343  26.819   7.050
 9570POPC   C4A65634   4.341  26.847   7.350
 9570POPC   C1B65635   4.127  26.929   6.450
 9570POPC   C2B65636   4.136  26.918   6.750
 9570POPC   C3B65637   4.068  26.977   7.050
 9570POPC   C4B65638   4.067  27.000   7.350
 9571POPC   NC365639  11.318  21.390   5.550
 9571POPC   PO465640  11.323  21.384   5.850
 9571POPC   GL165641  11.251  21.421   6.150
 9571POPC   GL265642  11.318  21.253   6.150
 9571POPC   C1A65643  11.333  21.372   6.450
 9571POPC   D2A65644  11.251  21.397   6.750
 9571POPC   C3A65645  11.345  21.346   7.050
 9571POPC   C4A65646  11.329  21.397   7.350
 9571POPC   C1B65647  11.425  21.130   6.450
 9571POPC   C2B65648  11.394  21.184   6.750
 9571POPC   C3B65649  11.349  21.154   7.050
 9571POPC   C4B65650  11.396  21.191   7.350
 9572POPC   NC365651  33.060   0.452   5.550
 9572POPC   PO465652  33.063   0.413   5.850
 9572POPC   GL165653  33.038   0.417   6.150
 9572POPC   GL265654  32.913   0.517   6.150
 9572POPC   C1A65655  33.036   0.399   6.450
 9572POPC   D2A65656  33.060   0.408   6.750
 9572POPC   C3A65657  33.058   0.413   7.050
 9572POPC   C4A65658  33.054   0.457   7.350
 9572POPC   C1B65659  32.851   0.588   6.450
 9572POPC   C2B65660  32.838   0.563   6.750
 9572POPC   C3B65661  32.831   0.600   7.050
 9572POPC   C4B65662  32.781   0.538   7.350
 9573POPC   NC365663  18.278  36.914   5.550
 9573POPC   PO465664  18.299  36.925   5.850
 9573POPC   GL165665  18.268  36.930   6.150
 9573POPC   GL265666  18.178  37.029   6.150
 9573POPC   C1A65667  18.264  36.916   6.450
 9573POPC   D2A65668  18.282  36.903   6.750
 9573POPC   C3A65669  18.303  36.877   7.050
 9573POPC   C4A65670  18.234  36.949   7.350
 9573POPC   C1B65671  18.113  37.152   6.450
 9573POPC   C2B65672  18.185  37.113   6.750
 9573POPC   C3B65673  18.123  37.157   7.050
 9573POPC   C4B65674  18.118  37.085   7.350
 9574POPC   NC365675  14.363   6.633   5.550
 9574POPC   PO465676  14.418   6.634   5.850
 9574POPC   GL165677  14.439   6.624   6.150
 9574POPC   GL265678  14.509   6.578   6.150
 9574POPC   C1A65679  14.429   6.689   6.450
 9574POPC   D2A65680  14.449   6.690   6.750
 9574POPC   C3A65681  14.452   6.633   7.050
 9574POPC   C4A65682  14.384   6.678   7.350
 9574POPC   C1B65683  14.596   6.446   6.450
 9574POPC   C2B65684  14.557   6.457   6.750
 9574POPC   C3B65685  14.587   6.453   7.050
 9574POPC   C4B65686  14.582   6.480   7.350
 9575POPC   NC365687   9.769  24.503   5.550
 9575POPC   PO465688   9.738  24.460   5.850
 9575POPC   GL165689   9.755  24.485   6.150
 9575POPC   GL265690   9.698  24.603   6.150
 9575POPC   C1A65691   9.710  24.520   6.450
 9575POPC   D2A65692   9.745  24.494   6.750
 9575POPC   C3A65693   9.780  24.490   7.050
 9575POPC   C4A65694   9.785  24.488   7.350
 9575POPC   C1B65695   9.641  24.680   6.450
 9575POPC   C2B65696   9.630  24.688   6.750
 9575POPC   C3B65697   9.668  24.685   7.050
 9575POPC   C4B65698   9.669  24.753   7.350
 9576POPC   NC365699  30.701   8.198   5.550
 9576POPC   PO465700  30.738   8.181   5.850
 9576POPC   GL165701  30.654   8.190   6.150
 9576POPC   GL265702  30.733   8.037   6.150
 9576POPC   C1A65703  30.647   8.200   6.450
 9576POPC   D2A65704  30.744   8.162   6.750
 9576POPC   C3A65705  30.744   8.229   7.050
 9576POPC   C4A65706  30.718   8.160   7.350
 9576POPC   C1B65707  30.713   7.987   6.450
 9576POPC   C2B65708  30.767   7.965   6.750
 9576POPC   C3B65709  30.742   7.993   7.050
 9576POPC   C4B65710  30.695   7.949   7.350
 9577POPC   NC365711  40.032  19.010   5.550
 9577POPC   PO465712  40.036  19.022   5.850
 9577POPC   GL165713  40.019  19.041   6.150
 9577POPC   GL265714  40.080  18.966   6.150
 9577POPC   C1A65715  40.009  19.091   6.450
 9577POPC   D2A65716  39.974  19.095   6.750
 9577POPC   C3A65717  39.992  19.088   7.050
 9577POPC   C4A65718  40.022  19.022   7.350
 9577POPC   C1B65719  40.098  18.796   6.450
 9577POPC   C2B65720  40.063  18.786   6.750
 9577POPC   C3B65721  40.036  18.804   7.050
 9577POPC   C4B65722  40.041  18.858   7.350
 9578POPC   NC365723  13.629   9.710   5.550
 9578POPC   PO465724  13.632   9.723   5.850
 9578POPC   GL165725  13.675   9.785   6.150
 9578POPC   GL265726  13.757   9.699   6.150
 9578POPC   C1A65727  13.623   9.781   6.450
 9578POPC   D2A65728  13.654   9.721   6.750
 9578POPC   C3A65729  13.672   9.735   7.050
 9578POPC   C4A65730  13.656   9.780   7.350
 9578POPC   C1B65731  13.824   9.672   6.450
 9578POPC   C2B65732  13.834   9.681   6.750
 9578POPC   C3B65733  13.868   9.646   7.050
 9578POPC   C4B65734  13.872   9.615   7.350
 9579POPC   NC365735  16.750  39.274   5.550
 9579POPC   PO465736  16.770  39.225   5.850
 9579POPC   GL165737  16.719  39.233   6.150
 9579POPC   GL265738  16.783  39.113   6.150
 9579POPC   C1A65739  16.696  39.187   6.450
 9579POPC   D2A65740  16.773  39.209   6.750
 9579POPC   C3A65741  16.728  39.207   7.050
 9579POPC   C4A65742  16.770  39.188   7.350
 9579POPC   C1B65743  16.871  39.037   6.450
 9579POPC   C2B65744  16.834  39.051   6.750
 9579POPC   C3B65745  16.870  39.044   7.050
 9579POPC   C4B65746  16.867  39.044   7.350
 9580POPC   NC365747  31.509  19.815   5.550
 9580POPC   PO465748  31.516  19.811   5.850
 9580POPC   GL165749  31.485  19.884   6.150
 9580POPC   GL265750  31.452  19.755   6.150
 9580POPC   C1A65751  31.443  19.861   6.450
 9580POPC   D2A65752  31.480  19.834   6.750
 9580POPC   C3A65753  31.433  19.882   7.050
 9580POPC   C4A65754  31.497  19.827   7.350
 9580POPC   C1B65755  31.542  19.606   6.450
 9580POPC   C2B65756  31.494  19.623   6.750
 9580POPC   C3B65757  31.468  19.593   7.050
 9580POPC   C4B65758  31.517  19.636   7.350
 9581POPC   NC365759  24.522   6.663   5.550
 9581POPC   PO465760  24.479   6.598   5.850
 9581POPC   GL165761  24.463   6.614   6.150
 9581POPC   GL265762  24.532   6.740   6.150
 9581POPC   C1A65763  24.516   6.681   6.450
 9581POPC   D2A65764  24.519   6.636   6.750
 9581POPC   C3A65765  24.485   6.647   7.050
 9581POPC   C4A65766  24.537   6.599   7.350
 9581POPC   C1B65767  24.479   6.845   6.450
 9581POPC   C2B65768  24.489   6.867   6.750
 9581POPC   C3B65769  24.484   6.892   7.050
 9581POPC   C4B65770  24.534   6.916   7.350
 9582POPC   NC365771  26.075   5.100   5.550
 9582POPC   PO465772  26.010   5.045   5.850
 9582POPC   GL165773  26.044   5.130   6.150
 9582POPC   GL265774  26.036   5.164   6.150
 9582POPC   C1A65775  25.995   5.122   6.450
 9582POPC   D2A65776  26.078   5.059   6.750
 9582POPC   C3A65777  25.997   5.098   7.050
 9582POPC   C4A65778  26.057   5.123   7.350
 9582POPC   C1B65779  26.090   5.369   6.450
 9582POPC   C2B65780  26.138   5.378   6.750
 9582POPC   C3B65781  26.089   5.290   7.050
 9582POPC   C4B65782  26.134   5.358   7.350
 9583POPC   NC365783  32.288  24.509   5.550
 9583POPC   PO465784  32.264  24.495   5.850
 9583POPC   GL165785  32.276  24.507   6.150
 9583POPC   GL265786  32.178  24.369   6.150
 9583POPC   C1A65787  32.206  24.451   6.450
 9583POPC   D2A65788  32.238  24.447   6.750
 9583POPC   C3A65789  32.294  24.503   7.050
 9583POPC   C4A65790  32.213  24.448   7.350
 9583POPC   C1B65791  32.109  24.225   6.450
 9583POPC   C2B65792  32.132  24.254   6.750
 9583POPC   C3B65793  32.129  24.277   7.050
 9583POPC   C4B65794  32.106  24.286   7.350
 9584POPC   NC365795  44.646  25.252   5.550
 9584POPC   PO465796  44.618  25.220   5.850
 9584POPC   GL165797  44.675  25.291   6.150
 9584POPC   GL265798  44.564  25.186   6.150
 9584POPC   C1A65799  44.659  25.251   6.450
 9584POPC   D2A65800  44.635  25.216   6.750
 9584POPC   C3A65801  44.659  25.271   7.050
 9584POPC   C4A65802  44.668  25.302   7.350
 9584POPC   C1B65803  44.489  25.138   6.450
 9584POPC   C2B65804  44.501  25.087   6.750
 9584POPC   C3B65805  44.465  25.074   7.050
 9584POPC   C4B65806  44.434  25.085   7.350
 9585POPC   NC365807  15.915   5.876   5.550
 9585POPC   PO465808  15.929   5.822   5.850
 9585POPC   GL165809  15.938   5.870   6.150
 9585POPC   GL265810  16.020   5.922   6.150
 9585POPC   C1A65811  15.918   5.855   6.450
 9585POPC   D2A65812  15.983   5.901   6.750
 9585POPC   C3A65813  15.995   5.855   7.050
 9585POPC   C4A65814  15.984   5.845   7.350
 9585POPC   C1B65815  16.152   6.058   6.450
 9585POPC   C2B65816  16.115   6.028   6.750
 9585POPC   C3B65817  16.142   6.040   7.050
 9585POPC   C4B65818  16.138   6.059   7.350
 9586POPC   NC365819  22.180  12.095   5.550
 9586POPC   PO465820  22.144  12.066   5.850
 9586POPC   GL165821  22.143  12.104   6.150
 9586POPC   GL265822  22.230  11.948   6.150
 9586POPC   C1A65823  22.180  12.039   6.450
 9586POPC   D2A65824  22.150  12.086   6.750
 9586POPC   C3A65825  22.206  12.097   7.050
 9586POPC   C4A65826  22.148  12.071   7.350
 9586POPC   C1B65827  22.309  11.856   6.450
 9586POPC   C2B65828  22.353  11.841   6.750
 9586POPC   C3B65829  22.317  11.922   7.050
 9586POPC   C4B65830  22.280  11.873   7.350
 9587POPC   NC365831  40.749  22.960   5.550
 9587POPC   PO465832  40.737  22.910   5.850
 9587POPC   GL165833  40.780  22.920   6.150
 9587POPC   GL265834  40.851  23.047   6.150
 9587POPC   C1A65835  40.735  22.929   6.450
 9587POPC   D2A65836  40.799  22.902   6.750
 9587POPC   C3A65837  40.805  22.914   7.050
 9587POPC   C4A65838  40.755  22.944   7.350
 9587POPC   C1B65839  40.912  23.137   6.450
 9587POPC   C2B65840  40.919  23.154   6.750
 9587POPC   C3B65841  40.847  23.151   7.050
 9587POPC   C4B65842  40.900  23.190   7.350
 9588POPC   NC365843   6.662  29.893   5.550
 9588POPC   PO465844   6.671  29.941   5.850
 9588POPC   GL165845   6.670  29.964   6.150
 9588POPC   GL265846   6.595  30.048   6.150
 9588POPC   C1A65847   6.678  29.911   6.450
 9588POPC   D2A65848   6.679  29.882   6.750
 9588POPC   C3A65849   6.655  29.961   7.050
 9588POPC   C4A65850   6.616  29.913   7.350
 9588POPC   C1B65851   6.608  30.204   6.450
 9588POPC   C2B65852   6.608  30.191   6.750
 9588POPC   C3B65853   6.578  30.182   7.050
 9588POPC   C4B65854   6.567  30.162   7.350
 9589POPC   NC365855  24.490  44.702   5.550
 9589POPC   PO465856  24.465  44.637   5.850
 9589POPC   GL165857  24.490  44.702   6.150
 9589POPC   GL265858  24.570  44.570   6.150
 9589POPC   C1A65859  24.523  44.648   6.450
 9589POPC   D2A65860  24.522  44.624   6.750
 9589POPC   C3A65861  24.525  44.634   7.050
 9589POPC   C4A65862  24.524  44.624   7.350
 9589POPC   C1B65863  24.682  44.590   6.450
 9589POPC   C2B65864  24.730  44.545   6.750
 9589POPC   C3B65865  24.702  44.553   7.050
 9589POPC   C4B65866  24.709  44.525   7.350
 9590POPC   NC365867  43.862  42.339   5.550
 9590POPC   PO465868  43.907  42.377   5.850
 9590POPC   GL165869  43.925  42.379   6.150
 9590POPC   GL265870  43.758  42.349   6.150
 9590POPC   C1A65871  43.893  42.351   6.450
 9590POPC   D2A65872  43.882  42.305   6.750
 9590POPC   C3A65873  43.883  42.298   7.050
 9590POPC   C4A65874  43.889  42.288   7.350
 9590POPC   C1B65875  43.606  42.384   6.450
 9590POPC   C2B65876  43.667  42.365   6.750
 9590POPC   C3B65877  43.649  42.370   7.050
 9590POPC   C4B65878  43.592  42.396   7.350
 9591POPC   NC365879  20.584   2.772   5.550
 9591POPC   PO465880  20.639   2.800   5.850
 9591POPC   GL165881  20.569   2.743   6.150
 9591POPC   GL265882  20.514   2.753   6.150
 9591POPC   C1A65883  20.634   2.754   6.450
 9591POPC   D2A65884  20.574   2.797   6.750
 9591POPC   C3A65885  20.632   2.734   7.050
 9591POPC   C4A65886  20.583   2.807   7.350
 9591POPC   C1B65887  20.336   2.675   6.450
 9591POPC   C2B65888  20.399   2.630   6.750
 9591POPC   C3B65889  20.377   2.683   7.050
 9591POPC   C4B65890  20.348   2.652   7.350
 9592POPC   NC365891   8.173  38.459   5.550
 9592POPC   PO465892   8.158  38.479   5.850
 9592POPC   GL165893   8.218  38.436   6.150
 9592POPC   GL265894   8.121  38.378   6.150
 9592POPC   C1A65895   8.233  38.423   6.450
 9592POPC   D2A65896   8.166  38.416   6.750
 9592POPC   C3A65897   8.206  38.410   7.050
 9592POPC   C4A65898   8.225  38.487   7.350
 9592POPC   C1B65899   8.002  38.342   6.450
 9592POPC   C2B65900   7.974  38.357   6.750
 9592POPC   C3B65901   7.976  38.395   7.050
 9592POPC   C4B65902   7.981  38.356   7.350
 9593POPC   NC365903  25.256  44.622   5.550
 9593POPC   PO465904  25.289  44.662   5.850
 9593POPC   GL165905  25.285  44.669   6.150
 9593POPC   GL265906  25.301  44.522   6.150
 9593POPC   C1A65907  25.271  44.658   6.450
 9593POPC   D2A65908  25.252  44.644   6.750
 9593POPC   C3A65909  25.269  44.613   7.050
 9593POPC   C4A65910  25.287  44.683   7.350
 9593POPC   C1B65911  25.348  44.468   6.450
 9593POPC   C2B65912  25.389  44.470   6.750
 9593POPC   C3B65913  25.375  44.393   7.050
 9593POPC   C4B65914  25.333  44.439   7.350
 9594POPC   NC365915  36.150   4.359   5.550
 9594POPC   PO465916  36.085   4.301   5.850
 9594POPC   GL165917  36.119   4.269   6.150
 9594POPC   GL265918  36.266   4.375   6.150
 9594POPC   C1A65919  36.090   4.360   6.450
 9594POPC   D2A65920  36.092   4.317   6.750
 9594POPC   C3A65921  36.172   4.278   7.050
 9594POPC   C4A65922  36.088   4.306   7.350
 9594POPC   C1B65923  36.355   4.447   6.450
 9594POPC   C2B65924  36.395   4.435   6.750
 9594POPC   C3B65925  36.376   4.421   7.050
 9594POPC   C4B65926  36.390   4.376   7.350
 9595POPC   NC365927  40.795  11.256   5.550
 9595POPC   PO465928  40.809  11.279   5.850
 9595POPC   GL165929  40.812  11.265   6.150
 9595POPC   GL265930  40.679  11.375   6.150
 9595POPC   C1A65931  40.796  11.277   6.450
 9595POPC   D2A65932  40.828  11.273   6.750
 9595POPC   C3A65933  40.799  11.279   7.050
 9595POPC   C4A65934  40.761  11.323   7.350
 9595POPC   C1B65935  40.613  11.446   6.450
 9595POPC   C2B65936  40.569  11.384   6.750
 9595POPC   C3B65937  40.553  11.409   7.050
 9595POPC   C4B65938  40.520  11.404   7.350
 9596POPC   NC365939  43.907   1.194   5.550
 9596POPC   PO465940  43.889   1.170   5.850
 9596POPC   GL165941  43.914   1.171   6.150
 9596POPC   GL265942  43.944   1.354   6.150
 9596POPC   C1A65943  43.895   1.231   6.450
 9596POPC   D2A65944  43.881   1.204   6.750
 9596POPC   C3A65945  43.870   1.232   7.050
 9596POPC   C4A65946  43.869   1.200   7.350
 9596POPC   C1B65947  43.969   1.444   6.450
 9596POPC   C2B65948  43.901   1.430   6.750
 9596POPC   C3B65949  43.965   1.504   7.050
 9596POPC   C4B65950  43.896   1.434   7.350
 9597POPC   NC365951  42.305  14.423   5.550
 9597POPC   PO465952  42.319  14.354   5.850
 9597POPC   GL165953  42.368  14.415   6.150
 9597POPC   GL265954  42.453  14.383   6.150
 9597POPC   C1A65955  42.286  14.377   6.450
 9597POPC   D2A65956  42.349  14.356   6.750
 9597POPC   C3A65957  42.297  14.412   7.050
 9597POPC   C4A65958  42.369  14.424   7.350
 9597POPC   C1B65959  42.564  14.315   6.450
 9597POPC   C2B65960  42.582  14.281   6.750
 9597POPC   C3B65961  42.527  14.348   7.050
 9597POPC   C4B65962  42.524  14.333   7.350
 9598POPC   NC365963  12.866  28.325   5.550
 9598POPC   PO465964  12.873  28.354   5.850
 9598POPC   GL165965  12.893  28.396   6.150
 9598POPC   GL265966  12.923  28.298   6.150
 9598POPC   C1A65967  12.880  28.338   6.450
 9598POPC   D2A65968  12.802  28.408   6.750
 9598POPC   C3A65969  12.845  28.359   7.050
 9598POPC   C4A65970  12.833  28.325   7.350
 9598POPC   C1B65971  13.134  28.261   6.450
 9598POPC   C2B65972  13.092  28.288   6.750
 9598POPC   C3B65973  13.098  28.323   7.050
 9598POPC   C4B65974  13.059  28.343   7.350
 9599POPC   NC365975  36.914  41.598   5.550
 9599POPC   PO465976  36.938  41.518   5.850
 9599POPC   GL165977  36.909  41.545   6.150
 9599POPC   GL265978  37.026  41.649   6.150
 9599POPC   C1A65979  36.927  41.530   6.450
 9599POPC   D2A65980  36.876  41.601   6.750
 9599POPC   C3A65981  36.881  41.549   7.050
 9599POPC   C4A65982  36.953  41.573   7.350
 9599POPC   C1B65983  37.070  41.699   6.450
 9599POPC   C2B65984  37.103  41.744   6.750
 9599POPC   C3B65985  37.065  41.774   7.050
 9599POPC   C4B65986  37.090  41.736   7.350
 9600POPC   NC365987  26.866   9.772   5.550
 9600POPC   PO465988  26.844   9.782   5.850
 9600POPC   GL165989  26.784   9.768   6.150
 9600POPC   GL265990  26.781   9.911   6.150
 9600POPC   C1A65991  26.802   9.708   6.450
 9600POPC   D2A65992  26.779   9.704   6.750
 9600POPC   C3A65993  26.808   9.753   7.050
 9600POPC   C4A65994  26.860   9.740   7.350
 9600POPC   C1B65995  26.783   9.950   6.450
 9600POPC   C2B65996  26.755   9.950   6.750
 9600POPC   C3B65997  26.738   9.961   7.050
 9600POPC   C4B65998  26.749   9.955   7.350
 9601POPC   NC365999   8.153  28.387   5.550
 9601POPC   PO466000   8.226  28.365   5.850
 9601POPC   GL166001   8.241  28.411   6.150
 9601POPC   GL266002   8.139  28.446   6.150
 9601POPC   C1A66003   8.246  28.333   6.450
 9601POPC   D2A66004   8.157  28.418   6.750
 9601POPC   C3A66005   8.177  28.338   7.050
 9601POPC   C4A66006   8.151  28.391   7.350
 9601POPC   C1B66007   8.034  28.582   6.450
 9601POPC   C2B66008   8.030  28.536   6.750
 9601POPC   C3B66009   8.035  28.570   7.050
 9601POPC   C4B66010   8.106  28.564   7.350
 9602POPC   NC366011  18.289  21.436   5.550
 9602POPC   PO466012  18.285  21.377   5.850
 9602POPC   GL166013  18.246  21.350   6.150
 9602POPC   GL266014  18.439  21.310   6.150
 9602POPC   C1A66015  18.327  21.380   6.450
 9602POPC   D2A66016  18.250  21.401   6.750
 9602POPC   C3A66017  18.292  21.402   7.050
 9602POPC   C4A66018  18.234  21.358   7.350
 9602POPC   C1B66019  18.539  21.264   6.450
 9602POPC   C2B66020  18.508  21.242   6.750
 9602POPC   C3B66021  18.459  21.272   7.050
 9602POPC   C4B66022  18.500  21.256   7.350
 9603POPC   NC366023  12.071  18.247   5.550
 9603POPC   PO466024  12.059  18.255   5.850
 9603POPC   GL166025  12.105  18.250   6.150
 9603POPC   GL266026  12.151  18.381   6.150
 9603POPC   C1A66027  12.030  18.244   6.450
 9603POPC   D2A66028  12.035  18.251   6.750
 9603POPC   C3A66029  12.090  18.303   7.050
 9603POPC   C4A66030  12.059  18.281   7.350
 9603POPC   C1B66031  12.119  18.560   6.450
 9603POPC   C2B66032  12.186  18.554   6.750
 9603POPC   C3B66033  12.173  18.564   7.050
 9603POPC   C4B66034  12.157  18.568   7.350
 9604POPC   NC366035  14.442  27.639   5.550
 9604POPC   PO466036  14.377  27.593   5.850
 9604POPC   GL166037  14.384  27.553   6.150
 9604POPC   GL266038  14.404  27.473   6.150
 9604POPC   C1A66039  14.410  27.563   6.450
 9604POPC   D2A66040  14.423  27.621   6.750
 9604POPC   C3A66041  14.370  27.631   7.050
 9604POPC   C4A66042  14.385  27.613   7.350
 9604POPC   C1B66043  14.442  27.339   6.450
 9604POPC   C2B66044  14.448  27.366   6.750
 9604POPC   C3B66045  14.428  27.370   7.050
 9604POPC   C4B66046  14.454  27.366   7.350
 9605POPC   NC366047   2.023   5.914   5.550
 9605POPC   PO466048   1.999   5.897   5.850
 9605POPC   GL166049   1.981   5.829   6.150
 9605POPC   GL266050   1.853   5.980   6.150
 9605POPC   C1A66051   2.024   5.837   6.450
 9605POPC   D2A66052   2.000   5.847   6.750
 9605POPC   C3A66053   2.016   5.830   7.050
 9605POPC   C4A66054   1.948   5.886   7.350
 9605POPC   C1B66055   1.824   6.067   6.450
 9605POPC   C2B66056   1.781   6.032   6.750
 9605POPC   C3B66057   1.799   5.969   7.050
 9605POPC   C4B66058   1.751   6.009   7.350
 9606POPC   NC366059  33.802  35.318   5.550
 9606POPC   PO466060  33.752  35.335   5.850
 9606POPC   GL166061  33.843  35.371   6.150
 9606POPC   GL266062  33.685  35.360   6.150
 9606POPC   C1A66063  33.793  35.309   6.450
 9606POPC   D2A66064  33.760  35.360   6.750
 9606POPC   C3A66065  33.827  35.339   7.050
 9606POPC   C4A66066  33.754  35.321   7.350
 9606POPC   C1B66067  33.532  35.309   6.450
 9606POPC   C2B66068  33.525  35.341   6.750
 9606POPC   C3B66069  33.525  35.306   7.050
 9606POPC   C4B66070  33.535  35.326   7.350
 9607POPC   NC366071  19.884   4.307   5.550
 9607POPC   PO466072  19.832   4.306   5.850
 9607POPC   GL166073  19.823   4.296   6.150
 9607POPC   GL266074  19.836   4.170   6.150
 9607POPC   C1A66075  19.786   4.363   6.450
 9607POPC   D2A66076  19.881   4.332   6.750
 9607POPC   C3A66077  19.867   4.292   7.050
 9607POPC   C4A66078  19.828   4.339   7.350
 9607POPC   C1B66079  19.862   4.058   6.450
 9607POPC   C2B66080  19.867   4.101   6.750
 9607POPC   C3B66081  19.796   4.063   7.050
 9607POPC   C4B66082  19.866   4.068   7.350
 9608POPC   NC366083   2.789  43.910   5.550
 9608POPC   PO466084   2.781  43.897   5.850
 9608POPC   GL166085   2.815  43.932   6.150
 9608POPC   GL266086   2.666  43.899   6.150
 9608POPC   C1A66087   2.753  43.898   6.450
 9608POPC   D2A66088   2.787  43.879   6.750
 9608POPC   C3A66089   2.806  43.864   7.050
 9608POPC   C4A66090   2.719  43.867   7.350
 9608POPC   C1B66091   2.554  43.972   6.450
 9608POPC   C2B66092   2.484  43.931   6.750
 9608POPC   C3B66093   2.573  43.943   7.050
 9608POPC   C4B66094   2.527  43.954   7.350
 9609POPC   NC366095  42.305  19.099   5.550
 9609POPC   PO466096  42.285  19.039   5.850
 9609POPC   GL166097  42.352  19.088   6.150
 9609POPC   GL266098  42.361  19.133   6.150
 9609POPC   C1A66099  42.298  19.038   6.450
 9609POPC   D2A66100  42.330  19.028   6.750
 9609POPC   C3A66101  42.379  19.015   7.050
 9609POPC   C4A66102  42.330  19.046   7.350
 9609POPC   C1B66103  42.402  19.309   6.450
 9609POPC   C2B66104  42.376  19.273   6.750
 9609POPC   C3B66105  42.424  19.281   7.050
 9609POPC   C4B66106  42.400  19.318   7.350
 9610POPC   NC366107  24.525  33.778   5.550
 9610POPC   PO466108  24.490  33.836   5.850
 9610POPC   GL166109  24.504  33.782   6.150
 9610POPC   GL266110  24.510  33.717   6.150
 9610POPC   C1A66111  24.498  33.773   6.450
 9610POPC   D2A66112  24.459  33.813   6.750
 9610POPC   C3A66113  24.504  33.754   7.050
 9610POPC   C4A66114  24.526  33.835   7.350
 9610POPC   C1B66115  24.555  33.594   6.450
 9610POPC   C2B66116  24.491  33.601   6.750
 9610POPC   C3B66117  24.567  33.548   7.050
 9610POPC   C4B66118  24.560  33.554   7.350
 9611POPC   NC366119  29.968   1.237   5.550
 9611POPC   PO466120  29.915   1.251   5.850
 9611POPC   GL166121  29.966   1.248   6.150
 9611POPC   GL266122  29.839   1.292   6.150
 9611POPC   C1A66123  29.962   1.207   6.450
 9611POPC   D2A66124  29.904   1.229   6.750
 9611POPC   C3A66125  29.941   1.242   7.050
 9611POPC   C4A66126  29.925   1.233   7.350
 9611POPC   C1B66127  29.659   1.255   6.450
 9611POPC   C2B66128  29.646   1.345   6.750
 9611POPC   C3B66129  29.715   1.279   7.050
 9611POPC   C4B66130  29.683   1.289   7.350
 9612POPC   NC366131   0.461  36.170   5.550
 9612POPC   PO466132   0.477  36.083   5.850
 9612POPC   GL166133   0.428  36.164   6.150
 9612POPC   GL266134   0.315  36.093   6.150
 9612POPC   C1A66135   0.430  36.079   6.450
 9612POPC   D2A66136   0.458  36.118   6.750
 9612POPC   C3A66137   0.399  36.151   7.050
 9612POPC   C4A66138   0.460  36.159   7.350
 9612POPC   C1B66139   0.221  36.067   6.450
 9612POPC   C2B66140   0.219  36.078   6.750
 9612POPC   C3B66141   0.201  36.135   7.050
 9612POPC   C4B66142   0.192  36.085   7.350
 9613POPC   NC366143  39.249   9.705   5.550
 9613POPC   PO466144  39.278   9.781   5.850
 9613POPC   GL166145  39.213   9.738   6.150
 9613POPC   GL266146  39.243   9.617   6.150
 9613POPC   C1A66147  39.266   9.742   6.450
 9613POPC   D2A66148  39.248   9.734   6.750
 9613POPC   C3A66149  39.214   9.736   7.050
 9613POPC   C4A66150  39.272   9.783   7.350
 9613POPC   C1B66151  39.319   9.537   6.450
 9613POPC   C2B66152  39.286   9.549   6.750
 9613POPC   C3B66153  39.296   9.519   7.050
 9613POPC   C4B66154  39.303   9.522   7.350
 9614POPC   NC366155  40.792   0.430   5.550
 9614POPC   PO466156  40.761   0.476   5.850
 9614POPC   GL166157  40.741   0.456   6.150
 9614POPC   GL266158  40.734   0.305   6.150
 9614POPC   C1A66159  40.808   0.420   6.450
 9614POPC   D2A66160  40.766   0.457   6.750
 9614POPC   C3A66161  40.808   0.435   7.050
 9614POPC   C4A66162  40.832   0.487   7.350
 9614POPC   C1B66163  40.694   0.228   6.450
 9614POPC   C2B66164  40.717   0.152   6.750
 9614POPC   C3B66165  40.765   0.226   7.050
 9614POPC   C4B66166  40.730   0.225   7.350
 9615POPC   NC366167  12.859  20.586   5.550
 9615POPC   PO466168  12.882  20.619   5.850
 9615POPC   GL166169  12.816  20.578   6.150
 9615POPC   GL266170  12.899  20.719   6.150
 9615POPC   C1A66171  12.838  20.632   6.450
 9615POPC   D2A66172  12.876  20.569   6.750
 9615POPC   C3A66173  12.848  20.656   7.050
 9615POPC   C4A66174  12.890  20.568   7.350
 9615POPC   C1B66175  12.912  20.861   6.450
 9615POPC   C2B66176  12.885  20.901   6.750
 9615POPC   C3B66177  12.899  20.815   7.050
 9615POPC   C4B66178  12.862  20.893   7.350
 9616POPC   NC366179  25.998  43.121   5.550
 9616POPC   PO466180  26.088  43.085   5.850
 9616POPC   GL166181  26.057  43.133   6.150
 9616POPC   GL266182  25.970  43.192   6.150
 9616POPC   C1A66183  26.082  43.097   6.450
 9616POPC   D2A66184  26.064  43.153   6.750
 9616POPC   C3A66185  26.049  43.147   7.050
 9616POPC   C4A66186  26.040  43.112   7.350
 9616POPC   C1B66187  25.847  43.228   6.450
 9616POPC   C2B66188  25.807  43.208   6.750
 9616POPC   C3B66189  25.825  43.251   7.050
 9616POPC   C4B66190  25.807  43.241   7.350
 9617POPC   NC366191   7.393   7.465   5.550
 9617POPC   PO466192   7.407   7.405   5.850
 9617POPC   GL166193   7.454   7.456   6.150
 9617POPC   GL266194   7.305   7.463   6.150
 9617POPC   C1A66195   7.404   7.417   6.450
 9617POPC   D2A66196   7.408   7.456   6.750
 9617POPC   C3A66197   7.398   7.462   7.050
 9617POPC   C4A66198   7.461   7.378   7.350
 9617POPC   C1B66199   7.127   7.381   6.450
 9617POPC   C2B66200   7.186   7.416   6.750
 9617POPC   C3B66201   7.171   7.460   7.050
 9617POPC   C4B66202   7.181   7.451   7.350
 9618POPC   NC366203  18.301  34.588   5.550
 9618POPC   PO466204  18.287  34.604   5.850
 9618POPC   GL166205  18.259  34.568   6.150
 9618POPC   GL266206  18.218  34.415   6.150
 9618POPC   C1A66207  18.274  34.596   6.450
 9618POPC   D2A66208  18.306  34.536   6.750
 9618POPC   C3A66209  18.324  34.587   7.050
 9618POPC   C4A66210  18.308  34.530   7.350
 9618POPC   C1B66211  18.227  34.351   6.450
 9618POPC   C2B66212  18.191  34.367   6.750
 9618POPC   C3B66213  18.202  34.330   7.050
 9618POPC   C4B66214  18.210  34.307   7.350
 9619POPC   NC366215  12.053  33.826   5.550
 9619POPC   PO466216  12.107  33.753   5.850
 9619POPC   GL166217  12.082  33.828   6.150
 9619POPC   GL266218  12.188  33.752   6.150
 9619POPC   C1A66219  12.102  33.762   6.450
 9619POPC   D2A66220  12.062  33.849   6.750
 9619POPC   C3A66221  12.030  33.771   7.050
 9619POPC   C4A66222  12.044  33.848   7.350
 9619POPC   C1B66223  12.294  33.744   6.450
 9619POPC   C2B66224  12.254  33.653   6.750
 9619POPC   C3B66225  12.347  33.701   7.050
 9619POPC   C4B66226  12.263  33.657   7.350
 9620POPC   NC366227  29.963  10.540   5.550
 9620POPC   PO466228  29.936  10.478   5.850
 9620POPC   GL166229  29.949  10.529   6.150
 9620POPC   GL266230  30.024  10.465   6.150
 9620POPC   C1A66231  29.911  10.568   6.450
 9620POPC   D2A66232  29.934  10.570   6.750
 9620POPC   C3A66233  29.924  10.564   7.050
 9620POPC   C4A66234  29.932  10.498   7.350
 9620POPC   C1B66235  30.063  10.313   6.450
 9620POPC   C2B66236  30.064  10.367   6.750
 9620POPC   C3B66237  30.103  10.309   7.050
 9620POPC   C4B66238  30.095  10.382   7.350
 9621POPC   NC366239   3.538  19.107   5.550
 9621POPC   PO466240   3.588  19.107   5.850
 9621POPC   GL166241   3.550  19.057   6.150
 9621POPC   GL266242   3.493  19.205   6.150
 9621POPC   C1A66243   3.493  19.106   6.450
 9621POPC   D2A66244   3.542  19.077   6.750
 9621POPC   C3A66245   3.495  19.083   7.050
 9621POPC   C4A66246   3.515  19.071   7.350
 9621POPC   C1B66247   3.444  19.264   6.450
 9621POPC   C2B66248   3.487  19.267   6.750
 9621POPC   C3B66249   3.489  19.251   7.050
 9621POPC   C4B66250   3.455  19.260   7.350
 9622POPC   NC366251  32.248  21.405   5.550
 9622POPC   PO466252  32.212  21.379   5.850
 9622POPC   GL166253  32.285  21.402   6.150
 9622POPC   GL266254  32.290  21.511   6.150
 9622POPC   C1A66255  32.262  21.371   6.450
 9622POPC   D2A66256  32.210  21.420   6.750
 9622POPC   C3A66257  32.211  21.348   7.050
 9622POPC   C4A66258  32.243  21.393   7.350
 9622POPC   C1B66259  32.363  21.571   6.450
 9622POPC   C2B66260  32.308  21.607   6.750
 9622POPC   C3B66261  32.335  21.663   7.050
 9622POPC   C4B66262  32.376  21.623   7.350
 9623POPC   NC366263  15.221  40.745   5.550
 9623POPC   PO466264  15.133  40.822   5.850
 9623POPC   GL166265  15.133  40.769   6.150
 9623POPC   GL266266  15.099  40.664   6.150
 9623POPC   C1A66267  15.160  40.822   6.450
 9623POPC   D2A66268  15.224  40.741   6.750
 9623POPC   C3A66269  15.134  40.762   7.050
 9623POPC   C4A66270  15.225  40.832   7.350
 9623POPC   C1B66271  15.022  40.540   6.450
 9623POPC   C2B66272  15.067  40.535   6.750
 9623POPC   C3B66273  15.110  40.533   7.050
 9623POPC   C4B66274  15.097  40.522   7.350
 9624POPC   NC366275  22.172  31.509   5.550
 9624POPC   PO466276  22.182  31.433   5.850
 9624POPC   GL166277  22.201  31.435   6.150
 9624POPC   GL266278  22.241  31.623   6.150
 9624POPC   C1A66279  22.118  31.477   6.450
 9624POPC   D2A66280  22.197  31.503   6.750
 9624POPC   C3A66281  22.170  31.515   7.050
 9624POPC   C4A66282  22.122  31.424   7.350
 9624POPC   C1B66283  22.232  31.755   6.450
 9624POPC   C2B66284  22.226  31.664   6.750
 9624POPC   C3B66285  22.195  31.686   7.050
 9624POPC   C4B66286  22.191  31.751   7.350
 9625POPC   NC366287  17.550   5.094   5.550
 9625POPC   PO466288  17.493   5.060   5.850
 9625POPC   GL166289  17.475   5.085   6.150
 9625POPC   GL266290  17.372   5.165   6.150
 9625POPC   C1A66291  17.491   5.127   6.450
 9625POPC   D2A66292  17.540   5.096   6.750
 9625POPC   C3A66293  17.478   5.050   7.050
 9625POPC   C4A66294  17.554   5.051   7.350
 9625POPC   C1B66295  17.250   5.236   6.450
 9625POPC   C2B66296  17.252   5.237   6.750
 9625POPC   C3B66297  17.279   5.183   7.050
 9625POPC   C4B66298  17.298   5.245   7.350
 9626POPC   NC366299   1.941  15.201   5.550
 9626POPC   PO466300   2.003  15.185   5.850
 9626POPC   GL166301   2.002  15.165   6.150
 9626POPC   GL266302   1.921  15.224   6.150
 9626POPC   C1A66303   1.973  15.165   6.450
 9626POPC   D2A66304   2.030  15.181   6.750
 9626POPC   C3A66305   2.020  15.196   7.050
 9626POPC   C4A66306   1.943  15.154   7.350
 9626POPC   C1B66307   1.809  15.290   6.450
 9626POPC   C2B66308   1.798  15.305   6.750
 9626POPC   C3B66309   1.732  15.262   7.050
 9626POPC   C4B66310   1.784  15.325   7.350
 9627POPC   NC366311  10.543  11.333   5.550
 9627POPC   PO466312  10.481  11.260   5.850
 9627POPC   GL166313  10.517  11.304   6.150
 9627POPC   GL266314  10.521  11.137   6.150
 9627POPC   C1A66315  10.497  11.253   6.450
 9627POPC   D2A66316  10.517  11.265   6.750
 9627POPC   C3A66317  10.531  11.283   7.050
 9627POPC   C4A66318  10.574  11.301   7.350
 9627POPC   C1B66319  10.482  11.092   6.450
 9627POPC   C2B66320  10.482  11.098   6.750
 9627POPC   C3B66321  10.476  11.031   7.050
 9627POPC   C4B66322  10.487  11.076   7.350
 9628POPC   NC366323  33.758  42.352   5.550
 9628POPC   PO466324  33.842  42.349   5.850
 9628POPC   GL166325  33.824  42.299   6.150
 9628POPC   GL266326  33.840  42.456   6.150
 9628POPC   C1A66327  33.752  42.326   6.450
 9628POPC   D2A66328  33.832  42.285   6.750
 9628POPC   C3A66329  33.792  42.293   7.050
 9628POPC   C4A66330  33.828  42.291   7.350
 9628POPC   C1B66331  33.829  42.615   6.450
 9628POPC   C2B66332  33.810  42.543   6.750
 9628POPC   C3B66333  33.828  42.607   7.050
 9628POPC   C4B66334  33.748  42.549   7.350
 9629POPC   NC366335   8.223  25.224   5.550
 9629POPC   PO466336   8.220  25.277   5.850
 9629POPC   GL166337   8.218  25.238   6.150
 9629POPC   GL266338   8.355  25.199   6.150
 9629POPC   C1A66339   8.163  25.249   6.450
 9629POPC   D2A66340   8.178  25.285   6.750
 9629POPC   C3A66341   8.218  25.289   7.050
 9629POPC   C4A66342   8.177  25.283   7.350
 9629POPC   C1B66343   8.399  25.132   6.450
 9629POPC   C2B66344   8.405  25.205   6.750
 9629POPC   C3B66345   8.442  25.128   7.050
 9629POPC   C4B66346   8.371  25.127   7.350
 9630POPC   NC366347  32.254  30.651   5.550
 9630POPC   PO466348  32.263  30.660   5.850
 9630POPC   GL166349  32.213  30.720   6.150
 9630POPC   GL266350  32.275  30.843   6.150
 9630POPC   C1A66351  32.290  30.662   6.450
 9630POPC   D2A66352  32.277  30.680   6.750
 9630POPC   C3A66353  32.278  30.717   7.050
 9630POPC   C4A66354  32.254  30.647   7.350
 9630POPC   C1B66355  32.338  30.909   6.450
 9630POPC   C2B66356  32.344  30.941   6.750
 9630POPC   C3B66357  32.321  30.904   7.050
 9630POPC   C4B66358  32.250  30.985   7.350
 9631POPC   NC366359  14.366  32.254   5.550
 9631POPC   PO466360  14.374  32.277   5.850
 9631POPC   GL166361  14.433  32.214   6.150
 9631POPC   GL266362  14.506  32.341   6.150
 9631POPC   C1A66363  14.414  32.218   6.450
 9631POPC   D2A66364  14.363  32.236   6.750
 9631POPC   C3A66365  14.370  32.267   7.050
 9631POPC   C4A66366  14.444  32.243   7.350
 9631POPC   C1B66367  14.536  32.487   6.450
 9631POPC   C2B66368  14.544  32.461   6.750
 9631POPC   C3B66369  14.518  32.511   7.050
 9631POPC   C4B66370  14.567  32.474   7.350
 9632POPC   NC366371   5.044   9.006   5.550
 9632POPC   PO466372   5.090   9.002   5.850
 9632POPC   GL166373   5.138   8.975   6.150
 9632POPC   GL266374   5.260   8.985   6.150
 9632POPC   C1A66375   5.134   8.954   6.450
 9632POPC   D2A66376   5.050   8.954   6.750
 9632POPC   C3A66377   5.050   8.989   7.050
 9632POPC   C4A66378   5.111   8.958   7.350
 9632POPC   C1B66379   5.331   9.085   6.450
 9632POPC   C2B66380   5.352   9.070   6.750
 9632POPC   C3B66381   5.297   8.990   7.050
 9632POPC   C4B66382   5.321   9.008   7.350
 9633POPC   NC366383   4.346  34.596   5.550
 9633POPC   PO466384   4.360  34.556   5.850
 9633POPC   GL166385   4.335  34.549   6.150
 9633POPC   GL266386   4.306  34.655   6.150
 9633POPC   C1A66387   4.304  34.545   6.450
 9633POPC   D2A66388   4.343  34.578   6.750
 9633POPC   C3A66389   4.366  34.546   7.050
 9633POPC   C4A66390   4.273  34.551   7.350
 9633POPC   C1B66391   4.387  34.839   6.450
 9633POPC   C2B66392   4.364  34.851   6.750
 9633POPC   C3B66393   4.322  34.836   7.050
 9633POPC   C4B66394   4.324  34.859   7.350
 9634POPC   NC366395   9.745  31.498   5.550
 9634POPC   PO466396   9.734  31.519   5.850
 9634POPC   GL166397   9.753  31.479   6.150
 9634POPC   GL266398   9.632  31.466   6.150
 9634POPC   C1A66399   9.746  31.456   6.450
 9634POPC   D2A66400   9.711  31.489   6.750
 9634POPC   C3A66401   9.761  31.434   7.050
 9634POPC   C4A66402   9.766  31.462   7.350
 9634POPC   C1B66403   9.543  31.511   6.450
 9634POPC   C2B66404   9.542  31.502   6.750
 9634POPC   C3B66405   9.481  31.493   7.050
 9634POPC   C4B66406   9.492  31.435   7.350
 9635POPC   NC366407  18.324  38.478   5.550
 9635POPC   PO466408  18.306  38.444   5.850
 9635POPC   GL166409  18.285  38.464   6.150
 9635POPC   GL266410  18.277  38.561   6.150
 9635POPC   C1A66411  18.298  38.480   6.450
 9635POPC   D2A66412  18.316  38.479   6.750
 9635POPC   C3A66413  18.312  38.416   7.050
 9635POPC   C4A66414  18.274  38.501   7.350
 9635POPC   C1B66415  18.221  38.660   6.450
 9635POPC   C2B66416  18.241  38.748   6.750
 9635POPC   C3B66417  18.267  38.716   7.050
 9635POPC   C4B66418  18.264  38.660   7.350
 9636POPC   NC366419   0.484  35.304   5.550
 9636POPC   PO466420   0.438  35.312   5.850
 9636POPC   GL166421   0.393  35.346   6.150
 9636POPC   GL266422   0.412  35.479   6.150
 9636POPC   C1A66423   0.429  35.334   6.450
 9636POPC   D2A66424   0.456  35.375   6.750
 9636POPC   C3A66425   0.462  35.314   7.050
 9636POPC   C4A66426   0.411  35.366   7.350
 9636POPC   C1B66427   0.301  35.560   6.450
 9636POPC   C2B66428   0.342  35.511   6.750
 9636POPC   C3B66429   0.290  35.541   7.050
 9636POPC   C4B66430   0.300  35.530   7.350
 9637POPC   NC366431  29.918  19.826   5.550
 9637POPC   PO466432  29.926  19.883   5.850
 9637POPC   GL166433  29.895  19.879   6.150
 9637POPC   GL266434  29.853  19.888   6.150
 9637POPC   C1A66435  29.960  19.830   6.450
 9637POPC   D2A66436  29.898  19.798   6.750
 9637POPC   C3A66437  29.946  19.850   7.050
 9637POPC   C4A66438  29.945  19.817   7.350
 9637POPC   C1B66439  29.815  19.999   6.450
 9637POPC   C2B66440  29.746  20.035   6.750
 9637POPC   C3B66441  29.813  20.014   7.050
 9637POPC   C4B66442  29.740  20.044   7.350
 9638POPC   NC366443   2.028  22.117   5.550
 9638POPC   PO466444   1.992  22.139   5.850
 9638POPC   GL166445   2.024  22.122   6.150
 9638POPC   GL266446   1.953  22.333   6.150
 9638POPC   C1A66447   1.997  22.124   6.450
 9638POPC   D2A66448   2.026  22.112   6.750
 9638POPC   C3A66449   1.995  22.113   7.050
 9638POPC   C4A66450   2.017  22.134   7.350
 9638POPC   C1B66451   1.973  22.419   6.450
 9638POPC   C2B66452   1.943  22.376   6.750
 9638POPC   C3B66453   2.036  22.382   7.050
 9638POPC   C4B66454   2.001  22.417   7.350
 9639POPC   NC366455  44.686  29.958   5.550
 9639POPC   PO466456  44.643  29.882   5.850
 9639POPC   GL166457  44.689  29.967   6.150
 9639POPC   GL266458  44.727  29.839   6.150
 9639POPC   C1A66459  44.621  29.935   6.450
 9639POPC   D2A66460  44.693  29.923   6.750
 9639POPC   C3A66461  44.666  29.932   7.050
 9639POPC   C4A66462  44.625  29.952   7.350
 9639POPC   C1B66463  44.936  29.787   6.450
 9639POPC   C2B66464  44.868  29.859   6.750
 9639POPC   C3B66465  44.912  29.821   7.050
 9639POPC   C4B66466  44.935  29.781   7.350
 9640POPC   NC366467  29.132  38.482   5.550
 9640POPC   PO466468  29.103  38.412   5.850
 9640POPC   GL166469  29.192  38.470   6.150
 9640POPC   GL266470  29.084  38.395   6.150
 9640POPC   C1A66471  29.168  38.410   6.450
 9640POPC   D2A66472  29.167  38.468   6.750
 9640POPC   C3A66473  29.135  38.471   7.050
 9640POPC   C4A66474  29.133  38.421   7.350
 9640POPC   C1B66475  28.975  38.235   6.450
 9640POPC   C2B66476  28.927  38.249   6.750
 9640POPC   C3B66477  29.001  38.292   7.050
 9640POPC   C4B66478  28.991  38.226   7.350
 9641POPC   NC366479  33.032   1.211   5.550
 9641POPC   PO466480  33.064   1.168   5.850
 9641POPC   GL166481  33.047   1.229   6.150
 9641POPC   GL266482  33.179   1.266   6.150
 9641POPC   C1A66483  33.055   1.213   6.450
 9641POPC   D2A66484  33.065   1.252   6.750
 9641POPC   C3A66485  32.992   1.260   7.050
 9641POPC   C4A66486  33.031   1.188   7.350
 9641POPC   C1B66487  33.247   1.307   6.450
 9641POPC   C2B66488  33.235   1.317   6.750
 9641POPC   C3B66489  33.208   1.335   7.050
 9641POPC   C4B66490  33.216   1.334   7.350
 9642POPC   NC366491   1.949  41.538   5.550
 9642POPC   PO466492   1.942  41.593   5.850
 9642POPC   GL166493   2.011  41.518   6.150
 9642POPC   GL266494   1.953  41.490   6.150
 9642POPC   C1A66495   1.996  41.591   6.450
 9642POPC   D2A66496   1.990  41.594   6.750
 9642POPC   C3A66497   2.033  41.530   7.050
 9642POPC   C4A66498   1.972  41.594   7.350
 9642POPC   C1B66499   1.832  41.311   6.450
 9642POPC   C2B66500   1.853  41.296   6.750
 9642POPC   C3B66501   1.899  41.359   7.050
 9642POPC   C4B66502   1.900  41.370   7.350
 9643POPC   NC366503  31.470  32.988   5.550
 9643POPC   PO466504  31.433  33.018   5.850
 9643POPC   GL166505  31.503  33.039   6.150
 9643POPC   GL266506  31.574  32.953   6.150
 9643POPC   C1A66507  31.498  33.031   6.450
 9643POPC   D2A66508  31.520  32.981   6.750
 9643POPC   C3A66509  31.443  33.058   7.050
 9643POPC   C4A66510  31.448  33.010   7.350
 9643POPC   C1B66511  31.665  32.850   6.450
 9643POPC   C2B66512  31.634  32.798   6.750
 9643POPC   C3B66513  31.693  32.799   7.050
 9643POPC   C4B66514  31.616  32.820   7.350
 9644POPC   NC366515  35.321  18.271   5.550
 9644POPC   PO466516  35.359  18.261   5.850
 9644POPC   GL166517  35.356  18.260   6.150
 9644POPC   GL266518  35.324  18.363   6.150
 9644POPC   C1A66519  35.393  18.242   6.450
 9644POPC   D2A66520  35.310  18.259   6.750
 9644POPC   C3A66521  35.375  18.313   7.050
 9644POPC   C4A66522  35.353  18.307   7.350
 9644POPC   C1B66523  35.303  18.505   6.450
 9644POPC   C2B66524  35.372  18.497   6.750
 9644POPC   C3B66525  35.380  18.577   7.050
 9644POPC   C4B66526  35.338  18.531   7.350
 9645POPC   NC366527   5.832  21.403   5.550
 9645POPC   PO466528   5.905  21.365   5.850
 9645POPC   GL166529   5.900  21.391   6.150
 9645POPC   GL266530   5.985  21.237   6.150
 9645POPC   C1A66531   5.899  21.349   6.450
 9645POPC   D2A66532   5.884  21.374   6.750
 9645POPC   C3A66533   5.823  21.428   7.050
 9645POPC   C4A66534   5.892  21.427   7.350
 9645POPC   C1B66535   5.997  21.175   6.450
 9645POPC   C2B66536   5.982  21.223   6.750
 9645POPC   C3B66537   5.998  21.220   7.050
 9645POPC   C4B66538   5.964  21.173   7.350
 9646POPC   NC366539  10.485  30.663   5.550
 9646POPC   PO466540  10.570  30.666   5.850
 9646POPC   GL166541  10.503  30.715   6.150
 9646POPC   GL266542  10.470  30.751   6.150
 9646POPC   C1A66543  10.478  30.695   6.450
 9646POPC   D2A66544  10.504  30.657   6.750
 9646POPC   C3A66545  10.541  30.687   7.050
 9646POPC   C4A66546  10.565  30.709   7.350
 9646POPC   C1B66547  10.394  30.843   6.450
 9646POPC   C2B66548  10.318  30.930   6.750
 9646POPC   C3B66549  10.357  30.934   7.050
 9646POPC   C4B66550  10.406  30.890   7.350
 9647POPC   NC366551  34.588  30.733   5.550
 9647POPC   PO466552  34.527  30.703   5.850
 9647POPC   GL166553  34.528  30.649   6.150
 9647POPC   GL266554  34.506  30.859   6.150
 9647POPC   C1A66555  34.605  30.690   6.450
 9647POPC   D2A66556  34.551  30.688   6.750
 9647POPC   C3A66557  34.570  30.721   7.050
 9647POPC   C4A66558  34.607  30.705   7.350
 9647POPC   C1B66559  34.495  30.891   6.450
 9647POPC   C2B66560  34.513  30.954   6.750
 9647POPC   C3B66561  34.495  30.881   7.050
 9647POPC   C4B66562  34.429  30.962   7.350
 9648POPC   NC366563  33.027  24.478   5.550
 9648POPC   PO466564  33.073  24.442   5.850
 9648POPC   GL166565  33.005  24.537   6.150
 9648POPC   GL266566  32.990  24.408   6.150
 9648POPC   C1A66567  32.982  24.475   6.450
 9648POPC   D2A66568  33.036  24.538   6.750
 9648POPC   C3A66569  33.008  24.458   7.050
 9648POPC   C4A66570  32.991  24.529   7.350
 9648POPC   C1B66571  32.879  24.277   6.450
 9648POPC   C2B66572  32.903  24.284   6.750
 9648POPC   C3B66573  32.924  24.272   7.050
 9648POPC   C4B66574  32.905  24.281   7.350
 9649POPC   NC366575   4.354  15.193   5.550
 9649POPC   PO466576   4.345  15.136   5.850
 9649POPC   GL166577   4.332  15.183   6.150
 9649POPC   GL266578   4.311  15.307   6.150
 9649POPC   C1A66579   4.292  15.220   6.450
 9649POPC   D2A66580   4.297  15.226   6.750
 9649POPC   C3A66581   4.359  15.184   7.050
 9649POPC   C4A66582   4.341  15.148   7.350
 9649POPC   C1B66583   4.401  15.393   6.450
 9649POPC   C2B66584   4.331  15.398   6.750
 9649POPC   C3B66585   4.385  15.419   7.050
 9649POPC   C4B66586   4.400  15.467   7.350
 9650POPC   NC366587   0.473  22.140   5.550
 9650POPC   PO466588   0.486  22.204   5.850
 9650POPC   GL166589   0.451  22.118   6.150
 9650POPC   GL266590   0.500  22.272   6.150
 9650POPC   C1A66591   0.434  22.130   6.450
 9650POPC   D2A66592   0.397  22.131   6.750
 9650POPC   C3A66593   0.429  22.144   7.050
 9650POPC   C4A66594   0.406  22.142   7.350
 9650POPC   C1B66595   0.508  22.427   6.450
 9650POPC   C2B66596   0.524  22.455   6.750
 9650POPC   C3B66597   0.497  22.419   7.050
 9650POPC   C4B66598   0.473  22.419   7.350
 9651POPC   NC366599   2.747  30.721   5.550
 9651POPC   PO466600   2.777  30.666   5.850
 9651POPC   GL166601   2.719  30.651   6.150
 9651POPC   GL266602   2.682  30.710   6.150
 9651POPC   C1A66603   2.728  30.722   6.450
 9651POPC   D2A66604   2.747  30.707   6.750
 9651POPC   C3A66605   2.789  30.742   7.050
 9651POPC   C4A66606   2.719  30.677   7.350
 9651POPC   C1B66607   2.561  30.815   6.450
 9651POPC   C2B66608   2.508  30.798   6.750
 9651POPC   C3B66609   2.574  30.786   7.050
 9651POPC   C4B66610   2.513  30.809   7.350
 9652POPC   NC366611  10.530  23.709   5.550
 9652POPC   PO466612  10.518  23.682   5.850
 9652POPC   GL166613  10.508  23.690   6.150
 9652POPC   GL266614  10.455  23.635   6.150
 9652POPC   C1A66615  10.568  23.744   6.450
 9652POPC   D2A66616  10.569  23.702   6.750
 9652POPC   C3A66617  10.555  23.744   7.050
 9652POPC   C4A66618  10.555  23.692   7.350
 9652POPC   C1B66619  10.441  23.527   6.450
 9652POPC   C2B66620  10.466  23.532   6.750
 9652POPC   C3B66621  10.422  23.462   7.050
 9652POPC   C4B66622  10.455  23.460   7.350
 9653POPC   NC366623  16.728   4.324   5.550
 9653POPC   PO466624  16.687   4.345   5.850
 9653POPC   GL166625  16.704   4.284   6.150
 9653POPC   GL266626  16.571   4.386   6.150
 9653POPC   C1A66627  16.758   4.273   6.450
 9653POPC   D2A66628  16.778   4.268   6.750
 9653POPC   C3A66629  16.743   4.339   7.050
 9653POPC   C4A66630  16.753   4.282   7.350
 9653POPC   C1B66631  16.529   4.394   6.450
 9653POPC   C2B66632  16.463   4.404   6.750
 9653POPC   C3B66633  16.543   4.391   7.050
 9653POPC   C4B66634  16.485   4.405   7.350
 9654POPC   NC366635  22.199  41.561   5.550
 9654POPC   PO466636  22.153  41.573   5.850
 9654POPC   GL166637  22.165  41.585   6.150
 9654POPC   GL266638  22.002  41.560   6.150
 9654POPC   C1A66639  22.148  41.554   6.450
 9654POPC   D2A66640  22.155  41.591   6.750
 9654POPC   C3A66641  22.207  41.582   7.050
 9654POPC   C4A66642  22.168  41.604   7.350
 9654POPC   C1B66643  21.921  41.595   6.450
 9654POPC   C2B66644  21.863  41.548   6.750
 9654POPC   C3B66645  21.897  41.511   7.050
 9654POPC   C4B66646  21.959  41.576   7.350
 9655POPC   NC366647  37.685   9.795   5.550
 9655POPC   PO466648  37.689   9.783   5.850
 9655POPC   GL166649  37.678   9.775   6.150
 9655POPC   GL266650  37.718   9.692   6.150
 9655POPC   C1A66651  37.684   9.719   6.450
 9655POPC   D2A66652  37.704   9.709   6.750
 9655POPC   C3A66653  37.659   9.745   7.050
 9655POPC   C4A66654  37.663   9.790   7.350
 9655POPC   C1B66655  37.886   9.542   6.450
 9655POPC   C2B66656  37.842   9.579   6.750
 9655POPC   C3B66657  37.864   9.581   7.050
 9655POPC   C4B66658  37.798   9.575   7.350
 9656POPC   NC366659  44.647  40.038   5.550
 9656POPC   PO466660  44.640  40.005   5.850
 9656POPC   GL166661  44.634  40.043   6.150
 9656POPC   GL266662  44.652  39.889   6.150
 9656POPC   C1A66663  44.647  39.979   6.450
 9656POPC   D2A66664  44.635  40.051   6.750
 9656POPC   C3A66665  44.701  39.967   7.050
 9656POPC   C4A66666  44.675  39.977   7.350
 9656POPC   C1B66667  44.750  39.802   6.450
 9656POPC   C2B66668  44.691  39.814   6.750
 9656POPC   C3B66669  44.748  39.724   7.050
 9656POPC   C4B66670  44.704  39.750   7.350
 9657POPC   NC366671  21.342  28.384   5.550
 9657POPC   PO466672  21.352  28.415   5.850
 9657POPC   GL166673  21.391  28.396   6.150
 9657POPC   GL266674  21.513  28.462   6.150
 9657POPC   C1A66675  21.348  28.350   6.450
 9657POPC   D2A66676  21.369  28.372   6.750
 9657POPC   C3A66677  21.364  28.365   7.050
 9657POPC   C4A66678  21.404  28.323   7.350
 9657POPC   C1B66679  21.598  28.526   6.450
 9657POPC   C2B66680  21.566  28.562   6.750
 9657POPC   C3B66681  21.561  28.505   7.050
 9657POPC   C4B66682  21.588  28.513   7.350
 9658POPC   NC366683  16.755  42.328   5.550
 9658POPC   PO466684  16.742  42.287   5.850
 9658POPC   GL166685  16.692  42.384   6.150
 9658POPC   GL266686  16.881  42.300   6.150
 9658POPC   C1A66687  16.709  42.327   6.450
 9658POPC   D2A66688  16.773  42.342   6.750
 9658POPC   C3A66689  16.692  42.350   7.050
 9658POPC   C4A66690  16.780  42.378   7.350
 9658POPC   C1B66691  16.952  42.292   6.450
 9658POPC   C2B66692  16.942  42.315   6.750
 9658POPC   C3B66693  17.003  42.368   7.050
 9658POPC   C4B66694  16.933  42.298   7.350
 9659POPC   NC366695  12.067  27.558   5.550
 9659POPC   PO466696  12.077  27.613   5.850
 9659POPC   GL166697  12.065  27.609   6.150
 9659POPC   GL266698  11.970  27.494   6.150
 9659POPC   C1A66699  12.052  27.579   6.450
 9659POPC   D2A66700  12.039  27.604   6.750
 9659POPC   C3A66701  12.122  27.601   7.050
 9659POPC   C4A66702  12.055  27.622   7.350
 9659POPC   C1B66703  11.868  27.458   6.450
 9659POPC   C2B66704  11.870  27.472   6.750
 9659POPC   C3B66705  11.911  27.420   7.050
 9659POPC   C4B66706  11.898  27.452   7.350
 9660POPC   NC366707  13.640  29.924   5.550
 9660POPC   PO466708  13.639  29.889   5.850
 9660POPC   GL166709  13.584  29.929   6.150
 9660POPC   GL266710  13.677  29.957   6.150
 9660POPC   C1A66711  13.595  29.935   6.450
 9660POPC   D2A66712  13.597  29.909   6.750
 9660POPC   C3A66713  13.583  29.952   7.050
 9660POPC   C4A66714  13.673  29.958   7.350
 9660POPC   C1B66715  13.836  30.126   6.450
 9660POPC   C2B66716  13.842  30.122   6.750
 9660POPC   C3B66717  13.773  30.048   7.050
 9660POPC   C4B66718  13.772  30.119   7.350
 9661POPC   NC366719  33.005  43.847   5.550
 9661POPC   PO466720  32.980  43.871   5.850
 9661POPC   GL166721  33.061  43.894   6.150
 9661POPC   GL266722  32.979  44.012   6.150
 9661POPC   C1A66723  33.007  43.848   6.450
 9661POPC   D2A66724  33.005  43.933   6.750
 9661POPC   C3A66725  33.029  43.872   7.050
 9661POPC   C4A66726  32.997  43.875   7.350
 9661POPC   C1B66727  32.881  44.071   6.450
 9661POPC   C2B66728  32.920  44.145   6.750
 9661POPC   C3B66729  32.944  44.136   7.050
 9661POPC   C4B66730  32.866  44.071   7.350
 9662POPC   NC366731  22.197   9.015   5.550
 9662POPC   PO466732  22.136   9.017   5.850
 9662POPC   GL166733  22.148   8.972   6.150
 9662POPC   GL266734  22.194   9.128   6.150
 9662POPC   C1A66735  22.113   9.016   6.450
 9662POPC   D2A66736  22.186   8.959   6.750
 9662POPC   C3A66737  22.160   9.019   7.050
 9662POPC   C4A66738  22.154   8.966   7.350
 9662POPC   C1B66739  22.173   9.245   6.450
 9662POPC   C2B66740  22.185   9.214   6.750
 9662POPC   C3B66741  22.178   9.269   7.050
 9662POPC   C4B66742  22.179   9.227   7.350
 9663POPC   NC366743  17.537  25.236   5.550
 9663POPC   PO466744  17.471  25.269   5.850
 9663POPC   GL166745  17.512  25.232   6.150
 9663POPC   GL266746  17.430  25.194   6.150
 9663POPC   C1A66747  17.550  25.294   6.450
 9663POPC   D2A66748  17.534  25.304   6.750
 9663POPC   C3A66749  17.459  25.260   7.050
 9663POPC   C4A66750  17.510  25.224   7.350
 9663POPC   C1B66751  17.369  25.085   6.450
 9663POPC   C2B66752  17.324  25.088   6.750
 9663POPC   C3B66753  17.372  25.051   7.050
 9663POPC   C4B66754  17.357  25.064   7.350
 9664POPC   NC366755  26.832   8.166   5.550
 9664POPC   PO466756  26.774   8.217   5.850
 9664POPC   GL166757  26.824   8.194   6.150
 9664POPC   GL266758  26.820   8.333   6.150
 9664POPC   C1A66759  26.794   8.216   6.450
 9664POPC   D2A66760  26.811   8.208   6.750
 9664POPC   C3A66761  26.831   8.235   7.050
 9664POPC   C4A66762  26.778   8.219   7.350
 9664POPC   C1B66763  26.942   8.455   6.450
 9664POPC   C2B66764  26.871   8.460   6.750
 9664POPC   C3B66765  26.873   8.480   7.050
 9664POPC   C4B66766  26.864   8.392   7.350
 9665POPC   NC366767   5.841   2.034   5.550
 9665POPC   PO466768   5.892   1.940   5.850
 9665POPC   GL166769   5.867   1.947   6.150
 9665POPC   GL266770   5.955   1.987   6.150
 9665POPC   C1A66771   5.900   2.015   6.450
 9665POPC   D2A66772   5.892   1.948   6.750
 9665POPC   C3A66773   5.831   1.965   7.050
 9665POPC   C4A66774   5.881   1.960   7.350
 9665POPC   C1B66775   6.086   1.918   6.450
 9665POPC   C2B66776   6.150   1.918   6.750
 9665POPC   C3B66777   6.124   1.881   7.050
 9665POPC   C4B66778   6.132   1.895   7.350
 9666POPC   NC366779  23.708   5.123   5.550
 9666POPC   PO466780  23.701   5.104   5.850
 9666POPC   GL166781  23.671   5.055   6.150
 9666POPC   GL266782  23.646   5.190   6.150
 9666POPC   C1A66783  23.735   5.060   6.450
 9666POPC   D2A66784  23.756   5.109   6.750
 9666POPC   C3A66785  23.762   5.104   7.050
 9666POPC   C4A66786  23.705   5.133   7.350
 9666POPC   C1B66787  23.615   5.363   6.450
 9666POPC   C2B66788  23.648   5.316   6.750
 9666POPC   C3B66789  23.604   5.296   7.050
 9666POPC   C4B66790  23.574   5.306   7.350
 9667POPC   NC366791  23.718  28.333   5.550
 9667POPC   PO466792  23.717  28.411   5.850
 9667POPC   GL166793  23.696  28.402   6.150
 9667POPC   GL266794  23.820  28.261   6.150
 9667POPC   C1A66795  23.744  28.376   6.450
 9667POPC   D2A66796  23.760  28.321   6.750
 9667POPC   C3A66797  23.715  28.368   7.050
 9667POPC   C4A66798  23.669  28.349   7.350
 9667POPC   C1B66799  23.888  28.205   6.450
 9667POPC   C2B66800  23.836  28.181   6.750
 9667POPC   C3B66801  23.819  28.121   7.050
 9667POPC   C4B66802  23.865  28.167   7.350
 9668POPC   NC366803   8.992  13.644   5.550
 9668POPC   PO466804   8.973  13.589   5.850
 9668POPC   GL166805   8.933  13.590   6.150
 9668POPC   GL266806   9.126  13.698   6.150
 9668POPC   C1A66807   8.946  13.602   6.450
 9668POPC   D2A66808   9.008  13.629   6.750
 9668POPC   C3A66809   9.004  13.633   7.050
 9668POPC   C4A66810   9.019  13.606   7.350
 9668POPC   C1B66811   9.149  13.788   6.450
 9668POPC   C2B66812   9.184  13.737   6.750
 9668POPC   C3B66813   9.166  13.756   7.050
 9668POPC   C4B66814   9.186  13.744   7.350
 9669POPC   NC366815   2.784   1.994   5.550
 9669POPC   PO466816   2.787   2.022   5.850
 9669POPC   GL166817   2.724   1.963   6.150
 9669POPC   GL266818   2.696   2.012   6.150
 9669POPC   C1A66819   2.785   1.983   6.450
 9669POPC   D2A66820   2.726   1.949   6.750
 9669POPC   C3A66821   2.797   1.984   7.050
 9669POPC   C4A66822   2.773   2.002   7.350
 9669POPC   C1B66823   2.566   2.030   6.450
 9669POPC   C2B66824   2.523   2.032   6.750
 9669POPC   C3B66825   2.572   2.092   7.050
 9669POPC   C4B66826   2.502   2.046   7.350
 9670POPC   NC366827  40.054   5.861   5.550
 9670POPC   PO466828  39.994   5.882   5.850
 9670POPC   GL166829  40.007   5.894   6.150
 9670POPC   GL266830  39.866   5.897   6.150
 9670POPC   C1A66831  40.055   5.835   6.450
 9670POPC   D2A66832  40.054   5.885   6.750
 9670POPC   C3A66833  39.972   5.828   7.050
 9670POPC   C4A66834  39.975   5.822   7.350
 9670POPC   C1B66835  39.757   5.887   6.450
 9670POPC   C2B66836  39.726   5.857   6.750
 9670POPC   C3B66837  39.787   5.851   7.050
 9670POPC   C4B66838  39.774   5.913   7.350
 9671POPC   NC366839  22.209   0.488   5.550
 9671POPC   PO466840  22.138   0.448   5.850
 9671POPC   GL166841  22.170   0.394   6.150
 9671POPC   GL266842  22.171   0.532   6.150
 9671POPC   C1A66843  22.156   0.415   6.450
 9671POPC   D2A66844  22.183   0.415   6.750
 9671POPC   C3A66845  22.129   0.414   7.050
 9671POPC   C4A66846  22.122   0.464   7.350
 9671POPC   C1B66847  22.275   0.699   6.450
 9671POPC   C2B66848  22.204   0.703   6.750
 9671POPC   C3B66849  22.280   0.710   7.050
 9671POPC   C4B66850  22.254   0.689   7.350
 9672POPC   NC366851  36.891  42.295   5.550
 9672POPC   PO466852  36.893  42.339   5.850
 9672POPC   GL166853  36.934  42.311   6.150
 9672POPC   GL266854  36.750  42.339   6.150
 9672POPC   C1A66855  36.878  42.320   6.450
 9672POPC   D2A66856  36.883  42.342   6.750
 9672POPC   C3A66857  36.869  42.331   7.050
 9672POPC   C4A66858  36.943  42.327   7.350
 9672POPC   C1B66859  36.680  42.287   6.450
 9672POPC   C2B66860  36.674  42.253   6.750
 9672POPC   C3B66861  36.678  42.260   7.050
 9672POPC   C4B66862  36.670  42.264   7.350
 9673POPC   NC366863   9.008  29.128   5.550
 9673POPC   PO466864   8.995  29.163   5.850
 9673POPC   GL166865   8.964  29.159   6.150
 9673POPC   GL266866   9.044  29.109   6.150
 9673POPC   C1A66867   8.987  29.124   6.450
 9673POPC   D2A66868   8.944  29.162   6.750
 9673POPC   C3A66869   8.924  29.161   7.050
 9673POPC   C4A66870   9.004  29.130   7.350
 9673POPC   C1B66871   9.164  28.992   6.450
 9673POPC   C2B66872   9.126  28.958   6.750
 9673POPC   C3B66873   9.142  28.992   7.050
 9673POPC   C4B66874   9.168  29.004   7.350
 9674POPC   NC366875  21.400  21.373   5.550
 9674POPC   PO466876  21.398  21.433   5.850
 9674POPC   GL166877  21.351  21.403   6.150
 9674POPC   GL266878  21.270  21.289   6.150
 9674POPC   C1A66879  21.383  21.387   6.450
 9674POPC   D2A66880  21.338  21.386   6.750
 9674POPC   C3A66881  21.435  21.420   7.050
 9674POPC   C4A66882  21.409  21.393   7.350
 9674POPC   C1B66883  21.282  21.166   6.450
 9674POPC   C2B66884  21.291  21.211   6.750
 9674POPC   C3B66885  21.217  21.221   7.050
 9674POPC   C4B66886  21.199  21.173   7.350
 9675POPC   NC366887  22.937  13.591   5.550
 9675POPC   PO466888  22.970  13.607   5.850
 9675POPC   GL166889  22.984  13.612   6.150
 9675POPC   GL266890  22.848  13.511   6.150
 9675POPC   C1A66891  22.938  13.633   6.450
 9675POPC   D2A66892  22.931  13.625   6.750
 9675POPC   C3A66893  22.965  13.672   7.050
 9675POPC   C4A66894  22.974  13.650   7.350
 9675POPC   C1B66895  22.760  13.489   6.450
 9675POPC   C2B66896  22.762  13.421   6.750
 9675POPC   C3B66897  22.766  13.477   7.050
 9675POPC   C4B66898  22.723  13.448   7.350
 9676POPC   NC366899  34.619   9.022   5.550
 9676POPC   PO466900  34.589   8.994   5.850
 9676POPC   GL166901  34.542   8.953   6.150
 9676POPC   GL266902  34.444   8.931   6.150
 9676POPC   C1A66903  34.553   8.964   6.450
 9676POPC   D2A66904  34.615   8.937   6.750
 9676POPC   C3A66905  34.529   8.989   7.050
 9676POPC   C4A66906  34.550   8.972   7.350
 9676POPC   C1B66907  34.366   8.985   6.450
 9676POPC   C2B66908  34.308   8.946   6.750
 9676POPC   C3B66909  34.293   8.977   7.050
 9676POPC   C4B66910  34.375   8.938   7.350
 9677POPC   NC366911   8.218  23.721   5.550
 9677POPC   PO466912   8.243  23.674   5.850
 9677POPC   GL166913   8.224  23.706   6.150
 9677POPC   GL266914   8.166  23.641   6.150
 9677POPC   C1A66915   8.224  23.665   6.450
 9677POPC   D2A66916   8.178  23.704   6.750
 9677POPC   C3A66917   8.148  23.712   7.050
 9677POPC   C4A66918   8.156  23.760   7.350
 9677POPC   C1B66919   8.128  23.471   6.450
 9677POPC   C2B66920   8.082  23.512   6.750
 9677POPC   C3B66921   8.112  23.516   7.050
 9677POPC   C4B66922   8.073  23.463   7.350
 9678POPC   NC366923  42.303  37.705   5.550
 9678POPC   PO466924  42.299  37.690   5.850
 9678POPC   GL166925  42.345  37.654   6.150
 9678POPC   GL266926  42.217  37.662   6.150
 9678POPC   C1A66927  42.373  37.699   6.450
 9678POPC   D2A66928  42.288  37.640   6.750
 9678POPC   C3A66929  42.354  37.725   7.050
 9678POPC   C4A66930  42.381  37.705   7.350
 9678POPC   C1B66931  42.049  37.671   6.450
 9678POPC   C2B66932  42.078  37.747   6.750
 9678POPC   C3B66933  42.083  37.724   7.050
 9678POPC   C4B66934  42.132  37.738   7.350
 9679POPC   NC366935  12.122  39.204   5.550
 9679POPC   PO466936  12.107  39.253   5.850
 9679POPC   GL166937  12.113  39.244   6.150
 9679POPC   GL266938  11.998  39.070   6.150
 9679POPC   C1A66939  12.038  39.190   6.450
 9679POPC   D2A66940  12.086  39.257   6.750
 9679POPC   C3A66941  12.030  39.251   7.050
 9679POPC   C4A66942  12.046  39.205   7.350
 9679POPC   C1B66943  12.045  39.022   6.450
 9679POPC   C2B66944  12.013  39.042   6.750
 9679POPC   C3B66945  12.000  39.017   7.050
 9679POPC   C4B66946  12.020  39.037   7.350
 9680POPC   NC366947  22.187  29.194   5.550
 9680POPC   PO466948  22.195  29.194   5.850
 9680POPC   GL166949  22.143  29.109   6.150
 9680POPC   GL266950  22.183  29.273   6.150
 9680POPC   C1A66951  22.131  29.119   6.450
 9680POPC   D2A66952  22.209  29.162   6.750
 9680POPC   C3A66953  22.204  29.158   7.050
 9680POPC   C4A66954  22.148  29.142   7.350
 9680POPC   C1B66955  22.184  29.409   6.450
 9680POPC   C2B66956  22.201  29.412   6.750
 9680POPC   C3B66957  22.223  29.359   7.050
 9680POPC   C4B66958  22.197  29.357   7.350
 9681POPC   NC366959  41.520  36.934   5.550
 9681POPC   PO466960  41.521  36.890   5.850
 9681POPC   GL166961  41.511  36.888   6.150
 9681POPC   GL266962  41.490  36.797   6.150
 9681POPC   C1A66963  41.570  36.912   6.450
 9681POPC   D2A66964  41.509  36.863   6.750
 9681POPC   C3A66965  41.523  36.934   7.050
 9681POPC   C4A66966  41.574  36.904   7.350
 9681POPC   C1B66967  41.407  36.724   6.450
 9681POPC   C2B66968  41.406  36.714   6.750
 9681POPC   C3B66969  41.411  36.667   7.050
 9681POPC   C4B66970  41.484  36.666   7.350
 9682POPC   NC366971   4.358  30.691   5.550
 9682POPC   PO466972   4.320  30.670   5.850
 9682POPC   GL166973   4.320  30.653   6.150
 9682POPC   GL266974   4.443  30.828   6.150
 9682POPC   C1A66975   4.338  30.720   6.450
 9682POPC   D2A66976   4.278  30.730   6.750
 9682POPC   C3A66977   4.306  30.745   7.050
 9682POPC   C4A66978   4.326  30.723   7.350
 9682POPC   C1B66979   4.470  30.845   6.450
 9682POPC   C2B66980   4.488  30.882   6.750
 9682POPC   C3B66981   4.478  30.892   7.050
 9682POPC   C4B66982   4.452  30.843   7.350
 9683POPC   NC366983  42.352  27.635   5.550
 9683POPC   PO466984  42.322  27.613   5.850
 9683POPC   GL166985  42.369  27.616   6.150
 9683POPC   GL266986  42.500  27.669   6.150
 9683POPC   C1A66987  42.298  27.548   6.450
 9683POPC   D2A66988  42.301  27.620   6.750
 9683POPC   C3A66989  42.377  27.565   7.050
 9683POPC   C4A66990  42.346  27.548   7.350
 9683POPC   C1B66991  42.601  27.649   6.450
 9683POPC   C2B66992  42.552  27.648   6.750
 9683POPC   C3B66993  42.565  27.703   7.050
 9683POPC   C4B66994  42.554  27.692   7.350
 9684POPC   NC366995  17.484  41.596   5.550
 9684POPC   PO466996  17.458  41.578   5.850
 9684POPC   GL166997  17.482  41.589   6.150
 9684POPC   GL266998  17.583  41.707   6.150
 9684POPC   C1A66999  17.526  41.593   6.450
 9684POPC   D2A67000  17.533  41.540   6.750
 9684POPC   C3A67001  17.478  41.600   7.050
 9684POPC   C4A67002  17.498  41.558   7.350
 9684POPC   C1B67003  17.577  41.845   6.450
 9684POPC   C2B67004  17.599  41.767   6.750
 9684POPC   C3B67005  17.590  41.845   7.050
 9684POPC   C4B67006  17.610  41.789   7.350
 9685POPC   NC367007  29.133  43.127   5.550
 9685POPC   PO467008  29.149  43.147   5.850
 9685POPC   GL167009  29.150  43.126   6.150
 9685POPC   GL267010  29.231  43.023   6.150
 9685POPC   C1A67011  29.105  43.134   6.450
 9685POPC   D2A67012  29.096  43.124   6.750
 9685POPC   C3A67013  29.103  43.102   7.050
 9685POPC   C4A67014  29.173  43.151   7.350
 9685POPC   C1B67015  29.179  42.885   6.450
 9685POPC   C2B67016  29.269  42.884   6.750
 9685POPC   C3B67017  29.232  42.900   7.050
 9685POPC   C4B67018  29.264  42.888   7.350
 9686POPC   NC367019   5.139   3.555   5.550
 9686POPC   PO467020   5.092   3.525   5.850
 9686POPC   GL167021   5.111   3.545   6.150
 9686POPC   GL267022   5.194   3.572   6.150
 9686POPC   C1A67023   5.111   3.578   6.450
 9686POPC   D2A67024   5.067   3.579   6.750
 9686POPC   C3A67025   5.131   3.541   7.050
 9686POPC   C4A67026   5.043   3.559   7.350
 9686POPC   C1B67027   5.376   3.665   6.450
 9686POPC   C2B67028   5.343   3.609   6.750
 9686POPC   C3B67029   5.303   3.604   7.050
 9686POPC   C4B67030   5.356   3.642   7.350
 9687POPC   NC367031  16.736  33.016   5.550
 9687POPC   PO467032  16.687  33.046   5.850
 9687POPC   GL167033  16.737  33.020   6.150
 9687POPC   GL267034  16.860  33.154   6.150
 9687POPC   C1A67035  16.749  33.003   6.450
 9687POPC   D2A67036  16.774  33.053   6.750
 9687POPC   C3A67037  16.773  32.975   7.050
 9687POPC   C4A67038  16.720  33.019   7.350
 9687POPC   C1B67039  16.886  33.173   6.450
 9687POPC   C2B67040  16.959  33.171   6.750
 9687POPC   C3B67041  16.896  33.179   7.050
 9687POPC   C4B67042  16.949  33.168   7.350
 9688POPC   NC367043  23.700  44.698   5.550
 9688POPC   PO467044  23.723  44.647   5.850
 9688POPC   GL167045  23.681  44.614   6.150
 9688POPC   GL267046  23.759  44.813   6.150
 9688POPC   C1A67047  23.701  44.632   6.450
 9688POPC   D2A67048  23.704  44.643   6.750
 9688POPC   C3A67049  23.707  44.613   7.050
 9688POPC   C4A67050  23.707  44.629   7.350
 9688POPC   C1B67051  23.694  44.894   6.450
 9688POPC   C2B67052  23.706  44.875   6.750
 9688POPC   C3B67053  23.769  44.913   7.050
 9688POPC   C4B67054  23.690  44.873   7.350
 9689POPC   NC367055  41.527  22.143   5.550
 9689POPC   PO467056  41.568  22.144   5.850
 9689POPC   GL167057  41.543  22.190   6.150
 9689POPC   GL267058  41.727  22.199   6.150
 9689POPC   C1A67059  41.553  22.155   6.450
 9689POPC   D2A67060  41.543  22.161   6.750
 9689POPC   C3A67061  41.510  22.200   7.050
 9689POPC   C4A67062  41.521  22.186   7.350
 9689POPC   C1B67063  41.836  22.164   6.450
 9689POPC   C2B67064  41.826  22.251   6.750
 9689POPC   C3B67065  41.792  22.201   7.050
 9689POPC   C4B67066  41.807  22.197   7.350
 9690POPC   NC367067  14.406  23.705   5.550
 9690POPC   PO467068  14.384  23.679   5.850
 9690POPC   GL167069  14.378  23.760   6.150
 9690POPC   GL267070  14.514  23.799   6.150
 9690POPC   C1A67071  14.445  23.727   6.450
 9690POPC   D2A67072  14.445  23.688   6.750
 9690POPC   C3A67073  14.372  23.763   7.050
 9690POPC   C4A67074  14.430  23.693   7.350
 9690POPC   C1B67075  14.577  23.895   6.450
 9690POPC   C2B67076  14.551  23.874   6.750
 9690POPC   C3B67077  14.565  23.879   7.050
 9690POPC   C4B67078  14.572  23.853   7.350
 9691POPC   NC367079  25.247  41.525   5.550
 9691POPC   PO467080  25.236  41.600   5.850
 9691POPC   GL167081  25.277  41.543   6.150
 9691POPC   GL267082  25.348  41.472   6.150
 9691POPC   C1A67083  25.301  41.588   6.450
 9691POPC   D2A67084  25.277  41.509   6.750
 9691POPC   C3A67085  25.221  41.600   7.050
 9691POPC   C4A67086  25.309  41.604   7.350
 9691POPC   C1B67087  25.524  41.446   6.450
 9691POPC   C2B67088  25.492  41.491   6.750
 9691POPC   C3B67089  25.468  41.424   7.050
 9691POPC   C4B67090  25.527  41.432   7.350
 9692POPC   NC367091  33.820   9.765   5.550
 9692POPC   PO467092  33.834   9.747   5.850
 9692POPC   GL167093  33.848   9.723   6.150
 9692POPC   GL267094  33.961   9.736   6.150
 9692POPC   C1A67095  33.767   9.768   6.450
 9692POPC   D2A67096  33.846   9.704   6.750
 9692POPC   C3A67097  33.778   9.770   7.050
 9692POPC   C4A67098  33.755   9.758   7.350
 9692POPC   C1B67099  34.087   9.670   6.450
 9692POPC   C2B67100  34.009   9.701   6.750
 9692POPC   C3B67101  34.070   9.749   7.050
 9692POPC   C4B67102  34.052   9.756   7.350
 9693POPC   NC367103  19.033  11.294   5.550
 9693POPC   PO467104  19.043  11.349   5.850
 9693POPC   GL167105  19.082  11.279   6.150
 9693POPC   GL267106  18.984  11.275   6.150
 9693POPC   C1A67107  19.092  11.280   6.450
 9693POPC   D2A67108  19.022  11.251   6.750
 9693POPC   C3A67109  19.088  11.345   7.050
 9693POPC   C4A67110  19.009  11.340   7.350
 9693POPC   C1B67111  18.806  11.188   6.450
 9693POPC   C2B67112  18.869  11.196   6.750
 9693POPC   C3B67113  18.792  11.145   7.050
 9693POPC   C4B67114  18.837  11.196   7.350
 9694POPC   NC367115  25.249  43.116   5.550
 9694POPC   PO467116  25.290  43.128   5.850
 9694POPC   GL167117  25.239  43.135   6.150
 9694POPC   GL267118  25.240  42.989   6.150
 9694POPC   C1A67119  25.288  43.133   6.450
 9694POPC   D2A67120  25.302  43.107   6.750
 9694POPC   C3A67121  25.300  43.126   7.050
 9694POPC   C4A67122  25.223  43.090   7.350
 9694POPC   C1B67123  25.241  42.812   6.450
 9694POPC   C2B67124  25.213  42.831   6.750
 9694POPC   C3B67125  25.234  42.881   7.050
 9694POPC   C4B67126  25.212  42.859   7.350
 9695POPC   NC367127  44.649  42.319   5.550
 9695POPC   PO467128  44.651  42.365   5.850
 9695POPC   GL167129  44.675  42.324   6.150
 9695POPC   GL267130  44.572  42.402   6.150
 9695POPC   C1A67131  44.633  42.336   6.450
 9695POPC   D2A67132  44.653  42.368   6.750
 9695POPC   C3A67133  44.654  42.343   7.050
 9695POPC   C4A67134  44.680  42.348   7.350
 9695POPC   C1B67135  44.398  42.419   6.450
 9695POPC   C2B67136  44.453  42.438   6.750
 9695POPC   C3B67137  44.483  42.503   7.050
 9695POPC   C4B67138  44.426  42.459   7.350
 9696POPC   NC367139  43.837  18.313   5.550
 9696POPC   PO467140  43.896  18.307   5.850
 9696POPC   GL167141  43.847  18.260   6.150
 9696POPC   GL267142  43.833  18.242   6.150
 9696POPC   C1A67143  43.879  18.277   6.450
 9696POPC   D2A67144  43.846  18.263   6.750
 9696POPC   C3A67145  43.860  18.270   7.050
 9696POPC   C4A67146  43.873  18.292   7.350
 9696POPC   C1B67147  43.696  18.096   6.450
 9696POPC   C2B67148  43.687  18.105   6.750
 9696POPC   C3B67149  43.665  18.156   7.050
 9696POPC   C4B67150  43.697  18.084   7.350
 9697POPC   NC367151   5.049  26.038   5.550
 9697POPC   PO467152   5.051  26.020   5.850
 9697POPC   GL167153   5.136  26.057   6.150
 9697POPC   GL267154   4.973  25.903   6.150
 9697POPC   C1A67155   5.138  26.031   6.450
 9697POPC   D2A67156   5.133  26.050   6.750
 9697POPC   C3A67157   5.046  26.076   7.050
 9697POPC   C4A67158   5.050  26.002   7.350
 9697POPC   C1B67159   4.941  25.850   6.450
 9697POPC   C2B67160   4.953  25.825   6.750
 9697POPC   C3B67161   4.888  25.880   7.050
 9697POPC   C4B67162   4.915  25.897   7.350
 9698POPC   NC367163  44.621  44.644   5.550
 9698POPC   PO467164  44.697  44.649   5.850
 9698POPC   GL167165  44.640  44.650   6.150
 9698POPC   GL267166  44.646  44.570   6.150
 9698POPC   C1A67167  44.636  44.643   6.450
 9698POPC   D2A67168  44.648  44.623   6.750
 9698POPC   C3A67169  44.650  44.657   7.050
 9698POPC   C4A67170  44.693  44.665   7.350
 9698POPC   C1B67171  44.509  44.485   6.450
 9698POPC   C2B67172  44.577  44.451   6.750
 9698POPC   C3B67173  44.502  44.489   7.050
 9698POPC   C4B67174  44.497  44.416   7.350
 9699POPC   NC367175   8.191  32.259   5.550
 9699POPC   PO467176   8.191  32.258   5.850
 9699POPC   GL167177   8.214  32.213   6.150
 9699POPC   GL267178   8.330  32.313   6.150
 9699POPC   C1A67179   8.207  32.220   6.450
 9699POPC   D2A67180   8.179  32.282   6.750
 9699POPC   C3A67181   8.149  32.218   7.050
 9699POPC   C4A67182   8.196  32.281   7.350
 9699POPC   C1B67183   8.345  32.454   6.450
 9699POPC   C2B67184   8.398  32.403   6.750
 9699POPC   C3B67185   8.401  32.470   7.050
 9699POPC   C4B67186   8.377  32.464   7.350
 9700POPC   NC367187   1.960  15.935   5.550
 9700POPC   PO467188   2.037  15.951   5.850
 9700POPC   GL167189   1.940  15.997   6.150
 9700POPC   GL267190   2.091  16.032   6.150
 9700POPC   C1A67191   2.035  15.974   6.450
 9700POPC   D2A67192   1.962  16.002   6.750
 9700POPC   C3A67193   2.020  16.003   7.050
 9700POPC   C4A67194   1.957  15.931   7.350
 9700POPC   C1B67195   2.137  16.154   6.450
 9700POPC   C2B67196   2.166  16.124   6.750
 9700POPC   C3B67197   2.133  16.167   7.050
 9700POPC   C4B67198   2.159  16.128   7.350
 9701POPC   NC367199  42.300   5.867   5.550
 9701POPC   PO467200  42.337   5.904   5.850
 9701POPC   GL167201  42.382   5.820   6.150
 9701POPC   GL267202  42.241   5.904   6.150
 9701POPC   C1A67203  42.332   5.918   6.450
 9701POPC   D2A67204  42.375   5.867   6.750
 9701POPC   C3A67205  42.347   5.901   7.050
 9701POPC   C4A67206  42.358   5.868   7.350
 9701POPC   C1B67207  42.176   5.990   6.450
 9701POPC   C2B67208  42.136   6.007   6.750
 9701POPC   C3B67209  42.146   6.039   7.050
 9701POPC   C4B67210  42.171   6.010   7.350
 9702POPC   NC367211  34.596  11.305   5.550
 9702POPC   PO467212  34.566  11.316   5.850
 9702POPC   GL167213  34.535  11.251   6.150
 9702POPC   GL267214  34.647  11.409   6.150
 9702POPC   C1A67215  34.540  11.293   6.450
 9702POPC   D2A67216  34.556  11.273   6.750
 9702POPC   C3A67217  34.562  11.260   7.050
 9702POPC   C4A67218  34.576  11.315   7.350
 9702POPC   C1B67219  34.812  11.479   6.450
 9702POPC   C2B67220  34.770  11.399   6.750
 9702POPC   C3B67221  34.810  11.393   7.050
 9702POPC   C4B67222  34.778  11.410   7.350
 9703POPC   NC367223  11.281  32.998   5.550
 9703POPC   PO467224  11.339  33.029   5.850
 9703POPC   GL167225  11.300  33.041   6.150
 9703POPC   GL267226  11.344  32.906   6.150
 9703POPC   C1A67227  11.309  33.057   6.450
 9703POPC   D2A67228  11.298  33.029   6.750
 9703POPC   C3A67229  11.273  32.997   7.050
 9703POPC   C4A67230  11.251  33.023   7.350
 9703POPC   C1B67231  11.298  32.785   6.450
 9703POPC   C2B67232  11.336  32.777   6.750
 9703POPC   C3B67233  11.319  32.785   7.050
 9703POPC   C4B67234  11.279  32.739   7.350
 9704POPC   NC367235  11.316  42.354   5.550
 9704POPC   PO467236  11.342  42.370   5.850
 9704POPC   GL167237  11.268  42.320   6.150
 9704POPC   GL267238  11.189  42.404   6.150
 9704POPC   C1A67239  11.318  42.359   6.450
 9704POPC   D2A67240  11.312  42.336   6.750
 9704POPC   C3A67241  11.335  42.285   7.050
 9704POPC   C4A67242  11.251  42.357   7.350
 9704POPC   C1B67243  11.094  42.447   6.450
 9704POPC   C2B67244  11.124  42.471   6.750
 9704POPC   C3B67245  11.065  42.430   7.050
 9704POPC   C4B67246  11.133  42.443   7.350
 9705POPC   NC367247  40.041  29.151   5.550
 9705POPC   PO467248  39.995  29.138   5.850
 9705POPC   GL167249  40.017  29.165   6.150
 9705POPC   GL267250  40.004  29.051   6.150
 9705POPC   C1A67251  40.037  29.181   6.450
 9705POPC   D2A67252  40.040  29.103   6.750
 9705POPC   C3A67253  40.018  29.185   7.050
 9705POPC   C4A67254  39.988  29.100   7.350
 9705POPC   C1B67255  40.035  28.901   6.450
 9705POPC   C2B67256  40.087  28.853   6.750
 9705POPC   C3B67257  40.033  28.915   7.050
 9705POPC   C4B67258  40.091  28.917   7.350
 9706POPC   NC367259  13.668  24.512   5.550
 9706POPC   PO467260  13.648  24.515   5.850
 9706POPC   GL167261  13.590  24.509   6.150
 9706POPC   GL267262  13.474  24.461   6.150
 9706POPC   C1A67263  13.609  24.458   6.450
 9706POPC   D2A67264  13.643  24.445   6.750
 9706POPC   C3A67265  13.659  24.539   7.050
 9706POPC   C4A67266  13.604  24.505   7.350
 9706POPC   C1B67267  13.428  24.478   6.450
 9706POPC   C2B67268  13.403  24.440   6.750
 9706POPC   C3B67269  13.409  24.470   7.050
 9706POPC   C4B67270  13.417  24.495   7.350
 9707POPC   NC367271  26.846  44.706   5.550
 9707POPC   PO467272  26.826  44.678   5.850
 9707POPC   GL167273  26.795  44.657   6.150
 9707POPC   GL267274  26.953  44.754   6.150
 9707POPC   C1A67275  26.849  44.643   6.450
 9707POPC   D2A67276  26.835  44.702   6.750
 9707POPC   C3A67277  26.792  44.691   7.050
 9707POPC   C4A67278  26.861  44.692   7.350
 9707POPC   C1B67279  27.044  44.833   6.450
 9707POPC   C2B67280  26.972  44.758   6.750
 9707POPC   C3B67281  27.023  44.852   7.050
 9707POPC   C4B67282  26.980  44.836   7.350
 9708POPC   NC367283   8.190  22.112   5.550
 9708POPC   PO467284   8.230  22.161   5.850
 9708POPC   GL167285   8.217  22.189   6.150
 9708POPC   GL267286   8.174  22.080   6.150
 9708POPC   C1A67287   8.150  22.144   6.450
 9708POPC   D2A67288   8.226  22.123   6.750
 9708POPC   C3A67289   8.175  22.158   7.050
 9708POPC   C4A67290   8.205  22.140   7.350
 9708POPC   C1B67291   8.130  21.889   6.450
 9708POPC   C2B67292   8.144  21.876   6.750
 9708POPC   C3B67293   8.152  21.939   7.050
 9708POPC   C4B67294   8.154  21.931   7.350
 9709POPC   NC367295  36.950   6.597   5.550
 9709POPC   PO467296  36.893   6.652   5.850
 9709POPC   GL167297  36.939   6.679   6.150
 9709POPC   GL267298  37.007   6.672   6.150
 9709POPC   C1A67299  36.942   6.626   6.450
 9709POPC   D2A67300  36.887   6.623   6.750
 9709POPC   C3A67301  36.939   6.613   7.050
 9709POPC   C4A67302  36.893   6.638   7.350
 9709POPC   C1B67303  37.095   6.786   6.450
 9709POPC   C2B67304  37.112   6.800   6.750
 9709POPC   C3B67305  37.133   6.737   7.050
 9709POPC   C4B67306  37.069   6.769   7.350
 9710POPC   NC367307  24.528  17.468   5.550
 9710POPC   PO467308  24.450  17.482   5.850
 9710POPC   GL167309  24.498  17.477   6.150
 9710POPC   GL267310  24.466  17.677   6.150
 9710POPC   C1A67311  24.440  17.556   6.450
 9710POPC   D2A67312  24.464  17.496   6.750
 9710POPC   C3A67313  24.491  17.521   7.050
 9710POPC   C4A67314  24.530  17.468   7.350
 9710POPC   C1B67315  24.546  17.736   6.450
 9710POPC   C2B67316  24.460  17.713   6.750
 9710POPC   C3B67317  24.470  17.797   7.050
 9710POPC   C4B67318  24.546  17.779   7.350
 9711POPC   NC367319  40.044  41.517   5.550
 9711POPC   PO467320  40.046  41.574   5.850
 9711POPC   GL167321  39.992  41.596   6.150
 9711POPC   GL267322  39.894  41.519   6.150
 9711POPC   C1A67323  39.973  41.524   6.450
 9711POPC   D2A67324  39.960  41.531   6.750
 9711POPC   C3A67325  40.006  41.531   7.050
 9711POPC   C4A67326  39.972  41.570   7.350
 9711POPC   C1B67327  39.731  41.427   6.450
 9711POPC   C2B67328  39.740  41.424   6.750
 9711POPC   C3B67329  39.785  41.498   7.050
 9711POPC   C4B67330  39.803  41.497   7.350
 9712POPC   NC367331  28.337  41.590   5.550
 9712POPC   PO467332  28.335  41.595   5.850
 9712POPC   GL167333  28.386  41.521   6.150
 9712POPC   GL267334  28.263  41.538   6.150
 9712POPC   C1A67335  28.412  41.579   6.450
 9712POPC   D2A67336  28.419  41.569   6.750
 9712POPC   C3A67337  28.405  41.552   7.050
 9712POPC   C4A67338  28.346  41.570   7.350
 9712POPC   C1B67339  28.179  41.447   6.450
 9712POPC   C2B67340  28.131  41.426   6.750
 9712POPC   C3B67341  28.204  41.394   7.050
 9712POPC   C4B67342  28.189  41.446   7.350
 9713POPC   NC367343  20.569   4.364   5.550
 9713POPC   PO467344  20.586   4.316   5.850
 9713POPC   GL167345  20.562   4.362   6.150
 9713POPC   GL267346  20.735   4.309   6.150
 9713POPC   C1A67347  20.615   4.286   6.450
 9713POPC   D2A67348  20.579   4.355   6.750
 9713POPC   C3A67349  20.632   4.329   7.050
 9713POPC   C4A67350  20.598   4.363   7.350
 9713POPC   C1B67351  20.868   4.278   6.450
 9713POPC   C2B67352  20.850   4.282   6.750
 9713POPC   C3B67353  20.840   4.270   7.050
 9713POPC   C4B67354  20.807   4.246   7.350
 9714POPC   NC367355  39.264  10.542   5.550
 9714POPC   PO467356  39.190  10.495   5.850
 9714POPC   GL167357  39.221  10.496   6.150
 9714POPC   GL267358  39.165  10.470   6.150
 9714POPC   C1A67359  39.281  10.520   6.450
 9714POPC   D2A67360  39.274  10.569   6.750
 9714POPC   C3A67361  39.238  10.534   7.050
 9714POPC   C4A67362  39.279  10.483   7.350
 9714POPC   C1B67363  39.031  10.385   6.450
 9714POPC   C2B67364  38.979  10.464   6.750
 9714POPC   C3B67365  39.028  10.464   7.050
 9714POPC   C4B67366  38.963  10.458   7.350
 9715POPC   NC367367  25.251  18.236   5.550
 9715POPC   PO467368  25.311  18.236   5.850
 9715POPC   GL167369  25.270  18.257   6.150
 9715POPC   GL267370  25.384  18.198   6.150
 9715POPC   C1A67371  25.245  18.246   6.450
 9715POPC   D2A67372  25.255  18.255   6.750
 9715POPC   C3A67373  25.243  18.296   7.050
 9715POPC   C4A67374  25.287  18.251   7.350
 9715POPC   C1B67375  25.479  18.178   6.450
 9715POPC   C2B67376  25.513  18.159   6.750
 9715POPC   C3B67377  25.481  18.198   7.050
 9715POPC   C4B67378  25.534  18.159   7.350
 9716POPC   NC367379   1.202  28.335   5.550
 9716POPC   PO467380   1.253  28.378   5.850
 9716POPC   GL167381   1.251  28.326   6.150
 9716POPC   GL267382   1.086  28.318   6.150
 9716POPC   C1A67383   1.178  28.392   6.450
 9716POPC   D2A67384   1.242  28.347   6.750
 9716POPC   C3A67385   1.170  28.402   7.050
 9716POPC   C4A67386   1.177  28.323   7.350
 9716POPC   C1B67387   0.966  28.254   6.450
 9716POPC   C2B67388   1.030  28.288   6.750
 9716POPC   C3B67389   0.983  28.296   7.050
 9716POPC   C4B67390   0.972  28.248   7.350
 9717POPC   NC367391  38.470  12.816   5.550
 9717POPC   PO467392  38.488  12.830   5.850
 9717POPC   GL167393  38.475  12.850   6.150
 9717POPC   GL267394  38.610  12.873   6.150
 9717POPC   C1A67395  38.473  12.847   6.450
 9717POPC   D2A67396  38.441  12.826   6.750
 9717POPC   C3A67397  38.407  12.844   7.050
 9717POPC   C4A67398  38.417  12.840   7.350
 9717POPC   C1B67399  38.627  13.020   6.450
 9717POPC   C2B67400  38.653  12.945   6.750
 9717POPC   C3B67401  38.664  13.017   7.050
 9717POPC   C4B67402  38.647  13.022   7.350
 9718POPC   NC367403   0.436  42.381   5.550
 9718POPC   PO467404   0.405  42.376   5.850
 9718POPC   GL167405   0.404  42.332   6.150
 9718POPC   GL267406   0.383  42.269   6.150
 9718POPC   C1A67407   0.466  42.361   6.450
 9718POPC   D2A67408   0.480  42.306   6.750
 9718POPC   C3A67409   0.433  42.325   7.050
 9718POPC   C4A67410   0.435  42.316   7.350
 9718POPC   C1B67411   0.236  42.098   6.450
 9718POPC   C2B67412   0.300  42.160   6.750
 9718POPC   C3B67413   0.321  42.175   7.050
 9718POPC   C4B67414   0.299  42.116   7.350
 9719POPC   NC367415  12.113  25.253   5.550
 9719POPC   PO467416  12.046  25.310   5.850
 9719POPC   GL167417  12.083  25.264   6.150
 9719POPC   GL267418  12.215  25.201   6.150
 9719POPC   C1A67419  12.071  25.219   6.450
 9719POPC   D2A67420  12.081  25.257   6.750
 9719POPC   C3A67421  12.115  25.232   7.050
 9719POPC   C4A67422  12.087  25.274   7.350
 9719POPC   C1B67423  12.274  25.170   6.450
 9719POPC   C2B67424  12.345  25.139   6.750
 9719POPC   C3B67425  12.319  25.123   7.050
 9719POPC   C4B67426  12.307  25.122   7.350
 9720POPC   NC367427  36.939  16.732   5.550
 9720POPC   PO467428  36.859  16.741   5.850
 9720POPC   GL167429  36.915  16.755   6.150
 9720POPC   GL267430  37.069  16.775   6.150
 9720POPC   C1A67431  36.948  16.779   6.450
 9720POPC   D2A67432  36.867  16.739   6.750
 9720POPC   C3A67433  36.953  16.690   7.050
 9720POPC   C4A67434  36.935  16.758   7.350
 9720POPC   C1B67435  37.164  16.772   6.450
 9720POPC   C2B67436  37.137  16.721   6.750
 9720POPC   C3B67437  37.119  16.790   7.050
 9720POPC   C4B67438  37.188  16.757   7.350
 9721POPC   NC367439  43.158   2.025   5.550
 9721POPC   PO467440  43.159   1.981   5.850
 9721POPC   GL167441  43.062   1.978   6.150
 9721POPC   GL267442  43.050   1.888   6.150
 9721POPC   C1A67443  43.124   1.992   6.450
 9721POPC   D2A67444  43.105   2.030   6.750
 9721POPC   C3A67445  43.118   2.001   7.050
 9721POPC   C4A67446  43.100   2.029   7.350
 9721POPC   C1B67447  43.096   1.713   6.450
 9721POPC   C2B67448  43.097   1.776   6.750
 9721POPC   C3B67449  43.078   1.692   7.050
 9721POPC   C4B67450  43.095   1.751   7.350
 9722POPC   NC367451  20.569  24.472   5.550
 9722POPC   PO467452  20.627  24.464   5.850
 9722POPC   GL167453  20.604  24.476   6.150
 9722POPC   GL267454  20.727  24.562   6.150
 9722POPC   C1A67455  20.570  24.478   6.450
 9722POPC   D2A67456  20.601  24.454   6.750
 9722POPC   C3A67457  20.568  24.472   7.050
 9722POPC   C4A67458  20.615  24.496   7.350
 9722POPC   C1B67459  20.777  24.664   6.450
 9722POPC   C2B67460  20.796  24.622   6.750
 9722POPC   C3B67461  20.832  24.650   7.050
 9722POPC   C4B67462  20.771  24.697   7.350
 9723POPC   NC367463   2.746  25.999   5.550
 9723POPC   PO467464   2.781  26.052   5.850
 9723POPC   GL167465   2.778  26.057   6.150
 9723POPC   GL267466   2.882  26.145   6.150
 9723POPC   C1A67467   2.763  26.083   6.450
 9723POPC   D2A67468   2.765  26.029   6.750
 9723POPC   C3A67469   2.781  26.073   7.050
 9723POPC   C4A67470   2.747  26.085   7.350
 9723POPC   C1B67471   2.936  26.210   6.450
 9723POPC   C2B67472   2.863  26.203   6.750
 9723POPC   C3B67473   2.868  26.198   7.050
 9723POPC   C4B67474   2.954  26.199   7.350
 9724POPC   NC367475   1.170  19.087   5.550
 9724POPC   PO467476   1.223  19.070   5.850
 9724POPC   GL167477   1.227  19.073   6.150
 9724POPC   GL267478   1.043  19.084   6.150
 9724POPC   C1A67479   1.182  19.052   6.450
 9724POPC   D2A67480   1.233  19.084   6.750
 9724POPC   C3A67481   1.254  19.055   7.050
 9724POPC   C4A67482   1.187  19.047   7.350
 9724POPC   C1B67483   1.009  19.113   6.450
 9724POPC   C2B67484   0.954  19.098   6.750
 9724POPC   C3B67485   0.992  19.042   7.050
 9724POPC   C4B67486   0.968  19.097   7.350
 9725POPC   NC367487  10.506  26.860   5.550
 9725POPC   PO467488  10.514  26.864   5.850
 9725POPC   GL167489  10.544  26.789   6.150
 9725POPC   GL267490  10.397  26.904   6.150
 9725POPC   C1A67491  10.566  26.816   6.450
 9725POPC   D2A67492  10.490  26.855   6.750
 9725POPC   C3A67493  10.476  26.811   7.050
 9725POPC   C4A67494  10.515  26.803   7.350
 9725POPC   C1B67495  10.298  27.003   6.450
 9725POPC   C2B67496  10.304  26.981   6.750
 9725POPC   C3B67497  10.306  26.977   7.050
 9725POPC   C4B67498  10.379  26.947   7.350
 9726POPC   NC367499  19.875  22.911   5.550
 9726POPC   PO467500  19.848  22.935   5.850
 9726POPC   GL167501  19.788  22.891   6.150
 9726POPC   GL267502  19.986  22.926   6.150
 9726POPC   C1A67503  19.828  22.940   6.450
 9726POPC   D2A67504  19.835  22.932   6.750
 9726POPC   C3A67505  19.820  22.911   7.050
 9726POPC   C4A67506  19.813  22.962   7.350
 9726POPC   C1B67507  20.081  22.832   6.450
 9726POPC   C2B67508  20.079  22.819   6.750
 9726POPC   C3B67509  20.077  22.772   7.050
 9726POPC   C4B67510  20.064  22.791   7.350
 9727POPC   NC367511   6.612  36.903   5.550
 9727POPC   PO467512   6.622  36.906   5.850
 9727POPC   GL167513   6.686  36.865   6.150
 9727POPC   GL267514   6.518  36.823   6.150
 9727POPC   C1A67515   6.626  36.855   6.450
 9727POPC   D2A67516   6.640  36.857   6.750
 9727POPC   C3A67517   6.655  36.906   7.050
 9727POPC   C4A67518   6.653  36.905   7.350
 9727POPC   C1B67519   6.400  36.789   6.450
 9727POPC   C2B67520   6.459  36.778   6.750
 9727POPC   C3B67521   6.418  36.840   7.050
 9727POPC   C4B67522   6.383  36.861   7.350
 9728POPC   NC367523  22.179  43.085   5.550
 9728POPC   PO467524  22.194  43.153   5.850
 9728POPC   GL167525  22.130  43.097   6.150
 9728POPC   GL267526  22.205  43.220   6.150
 9728POPC   C1A67527  22.191  43.128   6.450
 9728POPC   D2A67528  22.165  43.080   6.750
 9728POPC   C3A67529  22.186  43.117   7.050
 9728POPC   C4A67530  22.134  43.070   7.350
 9728POPC   C1B67531  22.235  43.372   6.450
 9728POPC   C2B67532  22.216  43.369   6.750
 9728POPC   C3B67533  22.218  43.394   7.050
 9728POPC   C4B67534  22.206  43.408   7.350
 9729POPC   NC367535   8.220  29.893   5.550
 9729POPC   PO467536   8.240  29.952   5.850
 9729POPC   GL167537   8.177  29.941   6.150
 9729POPC   GL267538   8.283  29.815   6.150
 9729POPC   C1A67539   8.182  29.896   6.450
 9729POPC   D2A67540   8.209  29.932   6.750
 9729POPC   C3A67541   8.150  29.886   7.050
 9729POPC   C4A67542   8.194  29.900   7.350
 9729POPC   C1B67543   8.319  29.697   6.450
 9729POPC   C2B67544   8.259  29.715   6.750
 9729POPC   C3B67545   8.328  29.720   7.050
 9729POPC   C4B67546   8.328  29.654   7.350
 9730POPC   NC367547  37.684  32.271   5.550
 9730POPC   PO467548  37.654  32.211   5.850
 9730POPC   GL167549  37.721  32.244   6.150
 9730POPC   GL267550  37.816  32.267   6.150
 9730POPC   C1A67551  37.675  32.212   6.450
 9730POPC   D2A67552  37.711  32.288   6.750
 9730POPC   C3A67553  37.672  32.200   7.050
 9730POPC   C4A67554  37.652  32.221   7.350
 9730POPC   C1B67555  37.935  32.305   6.450
 9730POPC   C2B67556  37.901  32.346   6.750
 9730POPC   C3B67557  37.921  32.340   7.050
 9730POPC   C4B67558  37.898  32.356   7.350
 9731POPC   NC367559  43.904  30.696   5.550
 9731POPC   PO467560  43.906  30.690   5.850
 9731POPC   GL167561  43.929  30.658   6.150
 9731POPC   GL267562  43.799  30.725   6.150
 9731POPC   C1A67563  43.859  30.735   6.450
 9731POPC   D2A67564  43.847  30.699   6.750
 9731POPC   C3A67565  43.906  30.744   7.050
 9731POPC   C4A67566  43.916  30.650   7.350
 9731POPC   C1B67567  43.665  30.812   6.450
 9731POPC   C2B67568  43.691  30.830   6.750
 9731POPC   C3B67569  43.657  30.804   7.050
 9731POPC   C4B67570  43.686  30.819   7.350
 9732POPC   NC367571  25.312  29.894   5.550
 9732POPC   PO467572  25.248  29.957   5.850
 9732POPC   GL167573  25.293  29.894   6.150
 9732POPC   GL267574  25.250  30.008   6.150
 9732POPC   C1A67575  25.314  29.896   6.450
 9732POPC   D2A67576  25.310  29.885   6.750
 9732POPC   C3A67577  25.245  29.886   7.050
 9732POPC   C4A67578  25.223  29.875   7.350
 9732POPC   C1B67579  25.190  30.141   6.450
 9732POPC   C2B67580  25.193  30.151   6.750
 9732POPC   C3B67581  25.118  30.133   7.050
 9732POPC   C4B67582  25.117  30.173   7.350
 9733POPC   NC367583  39.985  14.403   5.550
 9733POPC   PO467584  39.999  14.373   5.850
 9733POPC   GL167585  39.970  14.372   6.150
 9733POPC   GL267586  39.935  14.312   6.150
 9733POPC   C1A67587  39.993  14.448   6.450
 9733POPC   D2A67588  40.013  14.390   6.750
 9733POPC   C3A67589  39.973  14.394   7.050
 9733POPC   C4A67590  39.992  14.417   7.350
 9733POPC   C1B67591  39.853  14.265   6.450
 9733POPC   C2B67592  39.818  14.218   6.750
 9733POPC   C3B67593  39.830  14.266   7.050
 9733POPC   C4B67594  39.786  14.203   7.350
 9734POPC   NC367595  42.286   2.719   5.550
 9734POPC   PO467596  42.362   2.778   5.850
 9734POPC   GL167597  42.371   2.811   6.150
 9734POPC   GL267598  42.372   2.863   6.150
 9734POPC   C1A67599  42.323   2.736   6.450
 9734POPC   D2A67600  42.288   2.752   6.750
 9734POPC   C3A67601  42.368   2.744   7.050
 9734POPC   C4A67602  42.345   2.735   7.350
 9734POPC   C1B67603  42.490   2.928   6.450
 9734POPC   C2B67604  42.499   2.978   6.750
 9734POPC   C3B67605  42.537   2.937   7.050
 9734POPC   C4B67606  42.534   2.924   7.350
 9735POPC   NC367607  40.002  44.617   5.550
 9735POPC   PO467608  40.034  44.614   5.850
 9735POPC   GL167609  40.055  44.639   6.150
 9735POPC   GL267610  40.154  44.629   6.150
 9735POPC   C1A67611  40.022  44.628   6.450
 9735POPC   D2A67612  40.053  44.691   6.750
 9735POPC   C3A67613  40.025  44.677   7.050
 9735POPC   C4A67614  39.987  44.695   7.350
 9735POPC   C1B67615  40.254  44.679   6.450
 9735POPC   C2B67616  40.255  44.618   6.750
 9735POPC   C3B67617  40.247  44.672   7.050
 9735POPC   C4B67618  40.250  44.606   7.350
 9736POPC   NC367619   8.226   6.629   5.550
 9736POPC   PO467620   8.163   6.633   5.850
 9736POPC   GL167621   8.242   6.639   6.150
 9736POPC   GL267622   8.031   6.677   6.150
 9736POPC   C1A67623   8.227   6.657   6.450
 9736POPC   D2A67624   8.236   6.643   6.750
 9736POPC   C3A67625   8.211   6.601   7.050
 9736POPC   C4A67626   8.170   6.605   7.350
 9736POPC   C1B67627   7.942   6.648   6.450
 9736POPC   C2B67628   7.983   6.596   6.750
 9736POPC   C3B67629   7.948   6.595   7.050
 9736POPC   C4B67630   7.937   6.646   7.350
 9737POPC   NC367631  29.892  22.903   5.550
 9737POPC   PO467632  29.887  22.941   5.850
 9737POPC   GL167633  29.881  22.929   6.150
 9737POPC   GL267634  30.009  22.887   6.150
 9737POPC   C1A67635  29.908  22.958   6.450
 9737POPC   D2A67636  29.960  22.890   6.750
 9737POPC   C3A67637  29.921  22.935   7.050
 9737POPC   C4A67638  29.890  22.969   7.350
 9737POPC   C1B67639  30.096  22.771   6.450
 9737POPC   C2B67640  30.160  22.801   6.750
 9737POPC   C3B67641  30.140  22.858   7.050
 9737POPC   C4B67642  30.107  22.849   7.350
 9738POPC   NC367643   6.662  37.728   5.550
 9738POPC   PO467644   6.600  37.709   5.850
 9738POPC   GL167645   6.643  37.716   6.150
 9738POPC   GL267646   6.728  37.567   6.150
 9738POPC   C1A67647   6.655  37.708   6.450
 9738POPC   D2A67648   6.601  37.728   6.750
 9738POPC   C3A67649   6.651  37.720   7.050
 9738POPC   C4A67650   6.616  37.662   7.350
 9738POPC   C1B67651   6.883  37.555   6.450
 9738POPC   C2B67652   6.803  37.486   6.750
 9738POPC   C3B67653   6.880  37.493   7.050
 9738POPC   C4B67654   6.859  37.531   7.350
 9739POPC   NC367655  12.860  15.147   5.550
 9739POPC   PO467656  12.844  15.146   5.850
 9739POPC   GL167657  12.839  15.136   6.150
 9739POPC   GL267658  12.725  15.206   6.150
 9739POPC   C1A67659  12.837  15.186   6.450
 9739POPC   D2A67660  12.818  15.223   6.750
 9739POPC   C3A67661  12.840  15.178   7.050
 9739POPC   C4A67662  12.883  15.166   7.350
 9739POPC   C1B67663  12.646  15.207   6.450
 9739POPC   C2B67664  12.599  15.198   6.750
 9739POPC   C3B67665  12.649  15.128   7.050
 9739POPC   C4B67666  12.638  15.197   7.350
 9740POPC   NC367667  24.512  15.180   5.550
 9740POPC   PO467668  24.477  15.155   5.850
 9740POPC   GL167669  24.458  15.191   6.150
 9740POPC   GL267670  24.554  15.093   6.150
 9740POPC   C1A67671  24.445  15.164   6.450
 9740POPC   D2A67672  24.446  15.177   6.750
 9740POPC   C3A67673  24.452  15.146   7.050
 9740POPC   C4A67674  24.514  15.132   7.350
 9740POPC   C1B67675  24.677  15.037   6.450
 9740POPC   C2B67676  24.653  15.086   6.750
 9740POPC   C3B67677  24.742  15.033   7.050
 9740POPC   C4B67678  24.720  15.076   7.350
 9741POPC   NC367679   2.011  30.690   5.550
 9741POPC   PO467680   1.998  30.715   5.850
 9741POPC   GL167681   2.003  30.685   6.150
 9741POPC   GL267682   1.892  30.661   6.150
 9741POPC   C1A67683   2.025  30.660   6.450
 9741POPC   D2A67684   2.039  30.676   6.750
 9741POPC   C3A67685   2.037  30.647   7.050
 9741POPC   C4A67686   1.987  30.687   7.350
 9741POPC   C1B67687   1.712  30.757   6.450
 9741POPC   C2B67688   1.723  30.771   6.750
 9741POPC   C3B67689   1.694  30.740   7.050
 9741POPC   C4B67690   1.768  30.706   7.350
 9742POPC   NC367691  44.628  34.608   5.550
 9742POPC   PO467692  44.623  34.626   5.850
 9742POPC   GL167693  44.663  34.563   6.150
 9742POPC   GL267694  44.815  34.648   6.150
 9742POPC   C1A67695  44.690  34.573   6.450
 9742POPC   D2A67696  44.668  34.536   6.750
 9742POPC   C3A67697  44.622  34.585   7.050
 9742POPC   C4A67698  44.641  34.538   7.350
 9742POPC   C1B67699  44.913  34.660   6.450
 9742POPC   C2B67700  44.909  34.658   6.750
 9742POPC   C3B67701  44.929  34.709   7.050
 9742POPC   C4B67702  44.899  34.732   7.350
 9743POPC   NC367703  11.311   5.834   5.550
 9743POPC   PO467704  11.328   5.863   5.850
 9743POPC   GL167705  11.348   5.842   6.150
 9743POPC   GL267706  11.356   5.716   6.150
 9743POPC   C1A67707  11.259   5.905   6.450
 9743POPC   D2A67708  11.294   5.842   6.750
 9743POPC   C3A67709  11.255   5.862   7.050
 9743POPC   C4A67710  11.261   5.911   7.350
 9743POPC   C1B67711  11.323   5.649   6.450
 9743POPC   C2B67712  11.284   5.667   6.750
 9743POPC   C3B67713  11.356   5.594   7.050
 9743POPC   C4B67714  11.279   5.588   7.350
 9744POPC   NC367715  36.083  12.027   5.550
 9744POPC   PO467716  36.176  12.050   5.850
 9744POPC   GL167717  36.081  12.072   6.150
 9744POPC   GL267718  36.080  11.901   6.150
 9744POPC   C1A67719  36.130  12.039   6.450
 9744POPC   D2A67720  36.119  12.042   6.750
 9744POPC   C3A67721  36.120  12.076   7.050
 9744POPC   C4A67722  36.150  12.066   7.350
 9744POPC   C1B67723  36.105  11.845   6.450
 9744POPC   C2B67724  36.164  11.806   6.750
 9744POPC   C3B67725  36.083  11.862   7.050
 9744POPC   C4B67726  36.165  11.842   7.350
 9745POPC   NC367727  21.424  38.479   5.550
 9745POPC   PO467728  21.393  38.443   5.850
 9745POPC   GL167729  21.409  38.461   6.150
 9745POPC   GL267730  21.387  38.343   6.150
 9745POPC   C1A67731  21.412  38.496   6.450
 9745POPC   D2A67732  21.391  38.448   6.750
 9745POPC   C3A67733  21.359  38.487   7.050
 9745POPC   C4A67734  21.339  38.456   7.350
 9745POPC   C1B67735  21.382  38.164   6.450
 9745POPC   C2B67736  21.389  38.258   6.750
 9745POPC   C3B67737  21.435  38.186   7.050
 9745POPC   C4B67738  21.409  38.168   7.350
 9746POPC   NC367739  22.917  41.515   5.550
 9746POPC   PO467740  22.925  41.536   5.850
 9746POPC   GL167741  22.978  41.606   6.150
 9746POPC   GL267742  22.895  41.684   6.150
 9746POPC   C1A67743  22.926  41.558   6.450
 9746POPC   D2A67744  22.985  41.535   6.750
 9746POPC   C3A67745  22.901  41.598   7.050
 9746POPC   C4A67746  22.943  41.526   7.350
 9746POPC   C1B67747  22.901  41.759   6.450
 9746POPC   C2B67748  22.969  41.826   6.750
 9746POPC   C3B67749  22.920  41.793   7.050
 9746POPC   C4B67750  22.923  41.858   7.350
 9747POPC   NC367751  24.536   8.163   5.550
 9747POPC   PO467752  24.505   8.153   5.850
 9747POPC   GL167753  24.453   8.212   6.150
 9747POPC   GL267754  24.374   8.116   6.150
 9747POPC   C1A67755  24.507   8.206   6.450
 9747POPC   D2A67756  24.504   8.203   6.750
 9747POPC   C3A67757  24.537   8.195   7.050
 9747POPC   C4A67758  24.533   8.221   7.350
 9747POPC   C1B67759  24.241   8.080   6.450
 9747POPC   C2B67760  24.244   8.030   6.750
 9747POPC   C3B67761  24.307   8.075   7.050
 9747POPC   C4B67762  24.239   8.026   7.350
 9748POPC   NC367763   9.761  36.160   5.550
 9748POPC   PO467764   9.729  36.174   5.850
 9748POPC   GL167765   9.713  36.085   6.150
 9748POPC   GL267766   9.741  36.197   6.150
 9748POPC   C1A67767   9.700  36.160   6.450
 9748POPC   D2A67768   9.781  36.092   6.750
 9748POPC   C3A67769   9.736  36.094   7.050
 9748POPC   C4A67770   9.775  36.162   7.350
 9748POPC   C1B67771   9.808  36.398   6.450
 9748POPC   C2B67772   9.834  36.322   6.750
 9748POPC   C3B67773   9.836  36.398   7.050
 9748POPC   C4B67774   9.820  36.349   7.350
 9749POPC   NC367775  22.143  19.834   5.550
 9749POPC   PO467776  22.133  19.827   5.850
 9749POPC   GL167777  22.127  19.855   6.150
 9749POPC   GL267778  22.135  19.708   6.150
 9749POPC   C1A67779  22.209  19.803   6.450
 9749POPC   D2A67780  22.121  19.820   6.750
 9749POPC   C3A67781  22.188  19.796   7.050
 9749POPC   C4A67782  22.150  19.869   7.350
 9749POPC   C1B67783  22.149  19.564   6.450
 9749POPC   C2B67784  22.135  19.617   6.750
 9749POPC   C3B67785  22.136  19.621   7.050
 9749POPC   C4B67786  22.116  19.556   7.350
 9750POPC   NC367787   9.731   7.402   5.550
 9750POPC   PO467788   9.798   7.421   5.850
 9750POPC   GL167789   9.753   7.390   6.150
 9750POPC   GL267790   9.642   7.511   6.150
 9750POPC   C1A67791   9.746   7.433   6.450
 9750POPC   D2A67792   9.757   7.397   6.750
 9750POPC   C3A67793   9.790   7.462   7.050
 9750POPC   C4A67794   9.738   7.427   7.350
 9750POPC   C1B67795   9.570   7.593   6.450
 9750POPC   C2B67796   9.602   7.609   6.750
 9750POPC   C3B67797   9.652   7.603   7.050
 9750POPC   C4B67798   9.595   7.676   7.350
 9751POPC   NC367799  15.166   6.643   5.550
 9751POPC   PO467800  15.175   6.638   5.850
 9751POPC   GL167801  15.186   6.668   6.150
 9751POPC   GL267802  15.298   6.632   6.150
 9751POPC   C1A67803  15.160   6.639   6.450
 9751POPC   D2A67804  15.168   6.604   6.750
 9751POPC   C3A67805  15.133   6.632   7.050
 9751POPC   C4A67806  15.206   6.677   7.350
 9751POPC   C1B67807  15.432   6.545   6.450
 9751POPC   C2B67808  15.383   6.514   6.750
 9751POPC   C3B67809  15.393   6.505   7.050
 9751POPC   C4B67810  15.361   6.550   7.350
 9752POPC   NC367811  30.707  12.834   5.550
 9752POPC   PO467812  30.674  12.895   5.850
 9752POPC   GL167813  30.679  12.874   6.150
 9752POPC   GL267814  30.856  12.922   6.150
 9752POPC   C1A67815  30.714  12.848   6.450
 9752POPC   D2A67816  30.724  12.816   6.750
 9752POPC   C3A67817  30.713  12.895   7.050
 9752POPC   C4A67818  30.721  12.804   7.350
 9752POPC   C1B67819  30.954  12.988   6.450
 9752POPC   C2B67820  30.964  12.962   6.750
 9752POPC   C3B67821  30.946  12.912   7.050
 9752POPC   C4B67822  30.964  12.991   7.350
 9753POPC   NC367823  10.568   1.208   5.550
 9753POPC   PO467824  10.565   1.167   5.850
 9753POPC   GL167825  10.508   1.178   6.150
 9753POPC   GL267826  10.525   1.327   6.150
 9753POPC   C1A67827  10.550   1.180   6.450
 9753POPC   D2A67828  10.488   1.166   6.750
 9753POPC   C3A67829  10.490   1.166   7.050
 9753POPC   C4A67830  10.534   1.168   7.350
 9753POPC   C1B67831  10.569   1.498   6.450
 9753POPC   C2B67832  10.655   1.472   6.750
 9753POPC   C3B67833  10.580   1.459   7.050
 9753POPC   C4B67834  10.656   1.408   7.350
 9754POPC   NC367835  18.270  33.006   5.550
 9754POPC   PO467836  18.289  32.986   5.850
 9754POPC   GL167837  18.249  33.024   6.150
 9754POPC   GL267838  18.354  32.873   6.150
 9754POPC   C1A67839  18.309  33.051   6.450
 9754POPC   D2A67840  18.254  33.002   6.750
 9754POPC   C3A67841  18.310  33.073   7.050
 9754POPC   C4A67842  18.265  33.039   7.350
 9754POPC   C1B67843  18.390  32.794   6.450
 9754POPC   C2B67844  18.388  32.826   6.750
 9754POPC   C3B67845  18.425  32.767   7.050
 9754POPC   C4B67846  18.382  32.793   7.350
 9755POPC   NC367847  23.746  29.152   5.550
 9755POPC   PO467848  23.703  29.137   5.850
 9755POPC   GL167849  23.741  29.144   6.150
 9755POPC   GL267850  23.773  29.075   6.150
 9755POPC   C1A67851  23.713  29.139   6.450
 9755POPC   D2A67852  23.694  29.193   6.750
 9755POPC   C3A67853  23.693  29.162   7.050
 9755POPC   C4A67854  23.760  29.096   7.350
 9755POPC   C1B67855  23.869  28.937   6.450
 9755POPC   C2B67856  23.855  28.971   6.750
 9755POPC   C3B67857  23.851  28.969   7.050
 9755POPC   C4B67858  23.903  28.987   7.350
 9756POPC   NC367859  41.548  40.830   5.550
 9756POPC   PO467860  41.609  40.805   5.850
 9756POPC   GL167861  41.602  40.825   6.150
 9756POPC   GL267862  41.433  40.821   6.150
 9756POPC   C1A67863  41.561  40.776   6.450
 9756POPC   D2A67864  41.548  40.774   6.750
 9756POPC   C3A67865  41.536  40.803   7.050
 9756POPC   C4A67866  41.557  40.807   7.350
 9756POPC   C1B67867  41.266  40.752   6.450
 9756POPC   C2B67868  41.283  40.775   6.750
 9756POPC   C3B67869  41.299  40.802   7.050
 9756POPC   C4B67870  41.318  40.775   7.350
 9757POPC   NC367871  43.892  44.668   5.550
 9757POPC   PO467872  43.881  44.680   5.850
 9757POPC   GL167873  43.920  44.696   6.150
 9757POPC   GL267874  43.966  44.744   6.150
 9757POPC   C1A67875  43.930  44.619   6.450
 9757POPC   D2A67876  43.930  44.698   6.750
 9757POPC   C3A67877  43.836  44.627   7.050
 9757POPC   C4A67878  43.886  44.676   7.350
 9757POPC   C1B67879  43.952  44.877   6.450
 9757POPC   C2B67880  44.000  44.878   6.750
 9757POPC   C3B67881  43.951  44.940   7.050
 9757POPC   C4B67882  44.005  44.873   7.350
 9758POPC   NC367883  27.567  33.826   5.550
 9758POPC   PO467884  27.632  33.821   5.850
 9758POPC   GL167885  27.580  33.775   6.150
 9758POPC   GL267886  27.694  33.917   6.150
 9758POPC   C1A67887  27.587  33.752   6.450
 9758POPC   D2A67888  27.564  33.751   6.750
 9758POPC   C3A67889  27.566  33.751   7.050
 9758POPC   C4A67890  27.592  33.808   7.350
 9758POPC   C1B67891  27.844  33.934   6.450
 9758POPC   C2B67892  27.821  33.889   6.750
 9758POPC   C3B67893  27.775  33.981   7.050
 9758POPC   C4B67894  27.789  33.908   7.350
 9759POPC   NC367895  30.669  43.897   5.550
 9759POPC   PO467896  30.660  43.931   5.850
 9759POPC   GL167897  30.690  43.893   6.150
 9759POPC   GL267898  30.646  44.026   6.150
 9759POPC   C1A67899  30.717  43.897   6.450
 9759POPC   D2A67900  30.699  43.888   6.750
 9759POPC   C3A67901  30.651  43.932   7.050
 9759POPC   C4A67902  30.707  43.843   7.350
 9759POPC   C1B67903  30.551  44.047   6.450
 9759POPC   C2B67904  30.531  44.063   6.750
 9759POPC   C3B67905  30.504  44.048   7.050
 9759POPC   C4B67906  30.575  44.028   7.350
 9760POPC   NC367907  35.342  37.647   5.550
 9760POPC   PO467908  35.363  37.706   5.850
 9760POPC   GL167909  35.351  37.716   6.150
 9760POPC   GL267910  35.301  37.789   6.150
 9760POPC   C1A67911  35.331  37.674   6.450
 9760POPC   D2A67912  35.324  37.665   6.750
 9760POPC   C3A67913  35.397  37.687   7.050
 9760POPC   C4A67914  35.358  37.712   7.350
 9760POPC   C1B67915  35.222  37.935   6.450
 9760POPC   C2B67916  35.214  37.926   6.750
 9760POPC   C3B67917  35.211  37.899   7.050
 9760POPC   C4B67918  35.266  37.946   7.350
 9761POPC   NC367919  33.054  12.895   5.550
 9761POPC   PO467920  33.049  12.898   5.850
 9761POPC   GL167921  33.007  12.867   6.150
 9761POPC   GL267922  33.171  12.914   6.150
 9761POPC   C1A67923  33.022  12.863   6.450
 9761POPC   D2A67924  33.027  12.850   6.750
 9761POPC   C3A67925  33.066  12.864   7.050
 9761POPC   C4A67926  33.020  12.834   7.350
 9761POPC   C1B67927  33.260  12.891   6.450
 9761POPC   C2B67928  33.290  12.883   6.750
 9761POPC   C3B67929  33.268  12.902   7.050
 9761POPC   C4B67930  33.269  12.895   7.350
 9762POPC   NC367931  23.668  19.022   5.550
 9762POPC   PO467932  23.749  19.037   5.850
 9762POPC   GL167933  23.693  19.009   6.150
 9762POPC   GL267934  23.739  19.216   6.150
 9762POPC   C1A67935  23.685  19.018   6.450
 9762POPC   D2A67936  23.719  19.016   6.750
 9762POPC   C3A67937  23.751  19.080   7.050
 9762POPC   C4A67938  23.706  19.077   7.350
 9762POPC   C1B67939  23.805  19.292   6.450
 9762POPC   C2B67940  23.747  19.258   6.750
 9762POPC   C3B67941  23.792  19.343   7.050
 9762POPC   C4B67942  23.756  19.313   7.350
 9763POPC   NC367943  36.873  15.908   5.550
 9763POPC   PO467944  36.871  15.971   5.850
 9763POPC   GL167945  36.855  16.000   6.150
 9763POPC   GL267946  36.977  16.040   6.150
 9763POPC   C1A67947  36.902  15.989   6.450
 9763POPC   D2A67948  36.908  15.918   6.750
 9763POPC   C3A67949  36.857  16.000   7.050
 9763POPC   C4A67950  36.929  15.978   7.350
 9763POPC   C1B67951  37.055  16.117   6.450
 9763POPC   C2B67952  37.074  16.143   6.750
 9763POPC   C3B67953  37.037  16.182   7.050
 9763POPC   C4B67954  37.035  16.108   7.350
 9764POPC   NC367955   2.011  19.014   5.550
 9764POPC   PO467956   2.027  19.084   5.850
 9764POPC   GL167957   1.994  19.043   6.150
 9764POPC   GL267958   1.987  18.922   6.150
 9764POPC   C1A67959   1.953  19.068   6.450
 9764POPC   D2A67960   2.016  19.048   6.750
 9764POPC   C3A67961   2.006  19.104   7.050
 9764POPC   C4A67962   2.007  19.075   7.350
 9764POPC   C1B67963   2.014  18.792   6.450
 9764POPC   C2B67964   2.050  18.772   6.750
 9764POPC   C3B67965   2.067  18.850   7.050
 9764POPC   C4B67966   1.989  18.769   7.350
 9765POPC   NC367967   8.961  27.549   5.550
 9765POPC   PO467968   8.938  27.559   5.850
 9765POPC   GL167969   8.941  27.562   6.150
 9765POPC   GL267970   8.953  27.681   6.150
 9765POPC   C1A67971   8.960  27.550   6.450
 9765POPC   D2A67972   9.011  27.575   6.750
 9765POPC   C3A67973   8.972  27.616   7.050
 9765POPC   C4A67974   8.991  27.594   7.350
 9765POPC   C1B67975   8.856  27.845   6.450
 9765POPC   C2B67976   8.891  27.819   6.750
 9765POPC   C3B67977   8.872  27.775   7.050
 9765POPC   C4B67978   8.817  27.816   7.350
 9766POPC   NC367979  33.068  15.185   5.550
 9766POPC   PO467980  33.021  15.205   5.850
 9766POPC   GL167981  32.992  15.137   6.150
 9766POPC   GL267982  32.900  15.287   6.150
 9766POPC   C1A67983  33.073  15.173   6.450
 9766POPC   D2A67984  32.995  15.213   6.750
 9766POPC   C3A67985  33.004  15.150   7.050
 9766POPC   C4A67986  33.002  15.217   7.350
 9766POPC   C1B67987  32.763  15.289   6.450
 9766POPC   C2B67988  32.835  15.302   6.750
 9766POPC   C3B67989  32.760  15.319   7.050
 9766POPC   C4B67990  32.833  15.251   7.350
 9767POPC   NC367991  29.190   7.429   5.550
 9767POPC   PO467992  29.178   7.415   5.850
 9767POPC   GL167993  29.183   7.459   6.150
 9767POPC   GL267994  29.226   7.308   6.150
 9767POPC   C1A67995  29.113   7.414   6.450
 9767POPC   D2A67996  29.151   7.444   6.750
 9767POPC   C3A67997  29.184   7.415   7.050
 9767POPC   C4A67998  29.116   7.421   7.350
 9767POPC   C1B67999  29.307   7.247   6.450
 9767POPC   C2B68000  29.290   7.162   6.750
 9767POPC   C3B68001  29.224   7.156   7.050
 9767POPC   C4B68002  29.277   7.230   7.350
 9768POPC   NC368003  19.023  10.571   5.550
 9768POPC   PO468004  19.098  10.494   5.850
 9768POPC   GL168005  19.042  10.498   6.150
 9768POPC   GL268006  18.926  10.634   6.150
 9768POPC   C1A68007  19.074  10.567   6.450
 9768POPC   D2A68008  19.078  10.477   6.750
 9768POPC   C3A68009  19.108  10.507   7.050
 9768POPC   C4A68010  19.105  10.555   7.350
 9768POPC   C1B68011  18.890  10.726   6.450
 9768POPC   C2B68012  18.855  10.698   6.750
 9768POPC   C3B68013  18.907  10.712   7.050
 9768POPC   C4B68014  18.834  10.642   7.350
 9769POPC   NC368015  41.571  20.598   5.550
 9769POPC   PO468016  41.515  20.626   5.850
 9769POPC   GL168017  41.607  20.606   6.150
 9769POPC   GL268018  41.600  20.688   6.150
 9769POPC   C1A68019  41.568  20.583   6.450
 9769POPC   D2A68020  41.584  20.562   6.750
 9769POPC   C3A68021  41.608  20.595   7.050
 9769POPC   C4A68022  41.514  20.569   7.350
 9769POPC   C1B68023  41.691  20.780   6.450
 9769POPC   C2B68024  41.705  20.853   6.750
 9769POPC   C3B68025  41.685  20.776   7.050
 9769POPC   C4B68026  41.727  20.792   7.350
 9770POPC   NC368027   2.025  20.608   5.550
 9770POPC   PO468028   2.003  20.656   5.850
 9770POPC   GL168029   1.985  20.616   6.150
 9770POPC   GL268030   2.024  20.476   6.150
 9770POPC   C1A68031   2.001  20.585   6.450
 9770POPC   D2A68032   1.993  20.584   6.750
 9770POPC   C3A68033   2.009  20.613   7.050
 9770POPC   C4A68034   1.988  20.634   7.350
 9770POPC   C1B68035   2.128  20.426   6.450
 9770POPC   C2B68036   2.152  20.451   6.750
 9770POPC   C3B68037   2.128  20.406   7.050
 9770POPC   C4B68038   2.161  20.418   7.350
 9771POPC   NC368039  31.513  22.188   5.550
 9771POPC   PO468040  31.506  22.206   5.850
 9771POPC   GL168041  31.495  22.205   6.150
 9771POPC   GL268042  31.548  22.093   6.150
 9771POPC   C1A68043  31.522  22.190   6.450
 9771POPC   D2A68044  31.436  22.193   6.750
 9771POPC   C3A68045  31.457  22.161   7.050
 9771POPC   C4A68046  31.471  22.144   7.350
 9771POPC   C1B68047  31.547  21.945   6.450
 9771POPC   C2B68048  31.569  21.960   6.750
 9771POPC   C3B68049  31.595  21.907   7.050
 9771POPC   C4B68050  31.565  21.881   7.350
 9772POPC   NC368051  44.707  33.838   5.550
 9772POPC   PO468052  44.659  33.753   5.850
 9772POPC   GL168053  44.704  33.849   6.150
 9772POPC   GL268054  44.664  33.906   6.150
 9772POPC   C1A68055  44.684  33.803   6.450
 9772POPC   D2A68056  44.659  33.836   6.750
 9772POPC   C3A68057  44.677  33.805   7.050
 9772POPC   C4A68058  44.674  33.799   7.350
 9772POPC   C1B68059  44.724  34.012   6.450
 9772POPC   C2B68060  44.674  34.038   6.750
 9772POPC   C3B68061  44.721  34.009   7.050
 9772POPC   C4B68062  44.684  34.023   7.350
 9773POPC   NC368063  36.888  22.965   5.550
 9773POPC   PO468064  36.894  22.905   5.850
 9773POPC   GL168065  36.925  22.972   6.150
 9773POPC   GL268066  37.060  22.941   6.150
 9773POPC   C1A68067  36.952  22.962   6.450
 9773POPC   D2A68068  36.913  22.921   6.750
 9773POPC   C3A68069  36.938  22.943   7.050
 9773POPC   C4A68070  36.923  22.958   7.350
 9773POPC   C1B68071  37.117  23.043   6.450
 9773POPC   C2B68072  37.102  22.987   6.750
 9773POPC   C3B68073  37.098  22.967   7.050
 9773POPC   C4B68074  37.100  23.048   7.350
 9774POPC   NC368075  18.322  32.285   5.550
 9774POPC   PO468076  18.246  32.218   5.850
 9774POPC   GL168077  18.272  32.225   6.150
 9774POPC   GL268078  18.155  32.153   6.150
 9774POPC   C1A68079  18.325  32.273   6.450
 9774POPC   D2A68080  18.282  32.247   6.750
 9774POPC   C3A68081  18.277  32.234   7.050
 9774POPC   C4A68082  18.296  32.226   7.350
 9774POPC   C1B68083  18.116  32.153   6.450
 9774POPC   C2B68084  18.046  32.124   6.750
 9774POPC   C3B68085  18.070  32.072   7.050
 9774POPC   C4B68086  18.040  32.067   7.350
 9775POPC   NC368087   3.543   6.687   5.550
 9775POPC   PO468088   3.585   6.612   5.850
 9775POPC   GL168089   3.575   6.600   6.150
 9775POPC   GL268090   3.474   6.787   6.150
 9775POPC   C1A68091   3.529   6.689   6.450
 9775POPC   D2A68092   3.554   6.660   6.750
 9775POPC   C3A68093   3.531   6.694   7.050
 9775POPC   C4A68094   3.589   6.644   7.350
 9775POPC   C1B68095   3.376   6.791   6.450
 9775POPC   C2B68096   3.406   6.794   6.750
 9775POPC   C3B68097   3.389   6.792   7.050
 9775POPC   C4B68098   3.405   6.807   7.350
 9776POPC   NC368099  40.742  15.914   5.550
 9776POPC   PO468100  40.734  15.996   5.850
 9776POPC   GL168101  40.828  15.946   6.150
 9776POPC   GL268102  40.844  16.057   6.150
 9776POPC   C1A68103  40.765  15.914   6.450
 9776POPC   D2A68104  40.822  16.003   6.750
 9776POPC   C3A68105  40.775  16.004   7.050
 9776POPC   C4A68106  40.794  15.979   7.350
 9776POPC   C1B68107  40.955  16.108   6.450
 9776POPC   C2B68108  40.978  16.101   6.750
 9776POPC   C3B68109  40.932  16.098   7.050
 9776POPC   C4B68110  40.958  16.136   7.350
 9777POPC   NC368111  17.469  33.777   5.550
 9777POPC   PO468112  17.499  33.750   5.850
 9777POPC   GL168113  17.503  33.834   6.150
 9777POPC   GL268114  17.592  33.694   6.150
 9777POPC   C1A68115  17.555  33.759   6.450
 9777POPC   D2A68116  17.494  33.841   6.750
 9777POPC   C3A68117  17.513  33.755   7.050
 9777POPC   C4A68118  17.473  33.823   7.350
 9777POPC   C1B68119  17.737  33.670   6.450
 9777POPC   C2B68120  17.748  33.679   6.750
 9777POPC   C3B68121  17.686  33.686   7.050
 9777POPC   C4B68122  17.675  33.701   7.350
 9778POPC   NC368123  44.647  15.992   5.550
 9778POPC   PO468124  44.620  15.944   5.850
 9778POPC   GL168125  44.677  15.906   6.150
 9778POPC   GL268126  44.523  15.893   6.150
 9778POPC   C1A68127  44.690  15.920   6.450
 9778POPC   D2A68128  44.635  15.955   6.750
 9778POPC   C3A68129  44.625  15.941   7.050
 9778POPC   C4A68130  44.674  15.945   7.350
 9778POPC   C1B68131  44.387  15.851   6.450
 9778POPC   C2B68132  44.475  15.803   6.750
 9778POPC   C3B68133  44.401  15.882   7.050
 9778POPC   C4B68134  44.404  15.836   7.350
 9779POPC   NC368135   9.780  19.827   5.550
 9779POPC   PO468136   9.729  19.849   5.850
 9779POPC   GL168137   9.704  19.807   6.150
 9779POPC   GL268138   9.896  19.856   6.150
 9779POPC   C1A68139   9.706  19.798   6.450
 9779POPC   D2A68140   9.795  19.838   6.750
 9779POPC   C3A68141   9.754  19.808   7.050
 9779POPC   C4A68142   9.776  19.792   7.350
 9779POPC   C1B68143  10.028  19.773   6.450
 9779POPC   C2B68144   9.992  19.761   6.750
 9779POPC   C3B68145  10.009  19.816   7.050
 9779POPC   C4B68146  10.016  19.788   7.350
 9780POPC   NC368147  31.479   0.409   5.550
 9780POPC   PO468148  31.500   0.462   5.850
 9780POPC   GL168149  31.462   0.393   6.150
 9780POPC   GL268150  31.444   0.561   6.150
 9780POPC   C1A68151  31.497   0.394   6.450
 9780POPC   D2A68152  31.471   0.486   6.750
 9780POPC   C3A68153  31.428   0.399   7.050
 9780POPC   C4A68154  31.505   0.459   7.350
 9780POPC   C1B68155  31.346   0.605   6.450
 9780POPC   C2B68156  31.320   0.589   6.750
 9780POPC   C3B68157  31.333   0.654   7.050
 9780POPC   C4B68158  31.327   0.636   7.350
 9781POPC   NC368159  36.157  40.783   5.550
 9781POPC   PO468160  36.163  40.804   5.850
 9781POPC   GL168161  36.174  40.749   6.150
 9781POPC   GL268162  36.167  40.921   6.150
 9781POPC   C1A68163  36.089  40.733   6.450
 9781POPC   D2A68164  36.126  40.820   6.750
 9781POPC   C3A68165  36.080  40.815   7.050
 9781POPC   C4A68166  36.160  40.815   7.350
 9781POPC   C1B68167  36.198  41.016   6.450
 9781POPC   C2B68168  36.172  41.019   6.750
 9781POPC   C3B68169  36.163  41.063   7.050
 9781POPC   C4B68170  36.163  40.974   7.350
 9782POPC   NC368171  12.085   5.048   5.550
 9782POPC   PO468172  12.077   5.123   5.850
 9782POPC   GL168173  12.061   5.060   6.150
 9782POPC   GL268174  12.220   5.038   6.150
 9782POPC   C1A68175  12.072   5.086   6.450
 9782POPC   D2A68176  12.084   5.137   6.750
 9782POPC   C3A68177  12.081   5.061   7.050
 9782POPC   C4A68178  12.034   5.108   7.350
 9782POPC   C1B68179  12.347   5.032   6.450
 9782POPC   C2B68180  12.307   5.032   6.750
 9782POPC   C3B68181  12.356   5.026   7.050
 9782POPC   C4B68182  12.323   5.081   7.350
 9783POPC   NC368183  39.970  42.341   5.550
 9783POPC   PO468184  40.003  42.361   5.850
 9783POPC   GL168185  39.968  42.291   6.150
 9783POPC   GL268186  39.914  42.234   6.150
 9783POPC   C1A68187  40.022  42.298   6.450
 9783POPC   D2A68188  39.980  42.334   6.750
 9783POPC   C3A68189  40.025  42.335   7.050
 9783POPC   C4A68190  40.048  42.339   7.350
 9783POPC   C1B68191  39.862  42.140   6.450
 9783POPC   C2B68192  39.863  42.187   6.750
 9783POPC   C3B68193  39.859  42.132   7.050
 9783POPC   C4B68194  39.806  42.121   7.350
 9784POPC   NC368195  10.478   6.600   5.550
 9784POPC   PO468196  10.493   6.595   5.850
 9784POPC   GL168197  10.542   6.601   6.150
 9784POPC   GL268198  10.430   6.681   6.150
 9784POPC   C1A68199  10.562   6.606   6.450
 9784POPC   D2A68200  10.477   6.687   6.750
 9784POPC   C3A68201  10.545   6.686   7.050
 9784POPC   C4A68202  10.493   6.595   7.350
 9784POPC   C1B68203  10.269   6.637   6.450
 9784POPC   C2B68204  10.277   6.659   6.750
 9784POPC   C3B68205  10.307   6.606   7.050
 9784POPC   C4B68206  10.293   6.578   7.350
 9785POPC   NC368207  23.756   3.528   5.550
 9785POPC   PO468208  23.667   3.504   5.850
 9785POPC   GL168209  23.721   3.520   6.150
 9785POPC   GL268210  23.719   3.657   6.150
 9785POPC   C1A68211  23.737   3.513   6.450
 9785POPC   D2A68212  23.732   3.555   6.750
 9785POPC   C3A68213  23.740   3.559   7.050
 9785POPC   C4A68214  23.754   3.586   7.350
 9785POPC   C1B68215  23.697   3.775   6.450
 9785POPC   C2B68216  23.728   3.749   6.750
 9785POPC   C3B68217  23.685   3.768   7.050
 9785POPC   C4B68218  23.742   3.822   7.350
 9786POPC   NC368219   9.741   5.847   5.550
 9786POPC   PO468220   9.795   5.854   5.850
 9786POPC   GL168221   9.735   5.906   6.150
 9786POPC   GL268222   9.842   5.971   6.150
 9786POPC   C1A68223   9.756   5.827   6.450
 9786POPC   D2A68224   9.731   5.919   6.750
 9786POPC   C3A68225   9.738   5.879   7.050
 9786POPC   C4A68226   9.714   5.821   7.350
 9786POPC   C1B68227   9.927   5.960   6.450
 9786POPC   C2B68228   9.950   6.008   6.750
 9786POPC   C3B68229  10.010   6.016   7.050
 9786POPC   C4B68230   9.928   5.953   7.350
 9787POPC   NC368231  21.381  25.995   5.550
 9787POPC   PO468232  21.355  26.015   5.850
 9787POPC   GL168233  21.421  26.056   6.150
 9787POPC   GL268234  21.496  25.927   6.150
 9787POPC   C1A68235  21.357  26.000   6.450
 9787POPC   D2A68236  21.358  26.067   6.750
 9787POPC   C3A68237  21.353  26.046   7.050
 9787POPC   C4A68238  21.418  26.003   7.350
 9787POPC   C1B68239  21.524  25.835   6.450
 9787POPC   C2B68240  21.536  25.900   6.750
 9787POPC   C3B68241  21.532  25.864   7.050
 9787POPC   C4B68242  21.613  25.852   7.350
 9788POPC   NC368243   6.675   5.913   5.550
 9788POPC   PO468244   6.692   5.912   5.850
 9788POPC   GL168245   6.673   5.918   6.150
 9788POPC   GL268246   6.662   5.780   6.150
 9788POPC   C1A68247   6.613   5.826   6.450
 9788POPC   D2A68248   6.686   5.906   6.750
 9788POPC   C3A68249   6.633   5.844   7.050
 9788POPC   C4A68250   6.633   5.872   7.350
 9788POPC   C1B68251   6.680   5.571   6.450
 9788POPC   C2B68252   6.662   5.597   6.750
 9788POPC   C3B68253   6.604   5.612   7.050
 9788POPC   C4B68254   6.679   5.622   7.350
 9789POPC   NC368255  29.111  20.617   5.550
 9789POPC   PO468256  29.158  20.577   5.850
 9789POPC   GL168257  29.102  20.606   6.150
 9789POPC   GL268258  29.223  20.555   6.150
 9789POPC   C1A68259  29.117  20.659   6.450
 9789POPC   D2A68260  29.184  20.617   6.750
 9789POPC   C3A68261  29.180  20.593   7.050
 9789POPC   C4A68262  29.142  20.658   7.350
 9789POPC   C1B68263  29.412  20.583   6.450
 9789POPC   C2B68264  29.434  20.565   6.750
 9789POPC   C3B68265  29.441  20.557   7.050
 9789POPC   C4B68266  29.363  20.562   7.350
 9790POPC   NC368267  18.281   6.685   5.550
 9790POPC   PO468268  18.258   6.643   5.850
 9790POPC   GL168269  18.265   6.669   6.150
 9790POPC   GL268270  18.250   6.525   6.150
 9790POPC   C1A68271  18.245   6.661   6.450
 9790POPC   D2A68272  18.254   6.665   6.750
 9790POPC   C3A68273  18.315   6.642   7.050
 9790POPC   C4A68274  18.295   6.616   7.350
 9790POPC   C1B68275  18.185   6.454   6.450
 9790POPC   C2B68276  18.128   6.433   6.750
 9790POPC   C3B68277  18.145   6.418   7.050
 9790POPC   C4B68278  18.196   6.452   7.350
 9791POPC   NC368279   3.499  28.336   5.550
 9791POPC   PO468280   3.527  28.402   5.850
 9791POPC   GL168281   3.518  28.337   6.150
 9791POPC   GL268282   3.634  28.270   6.150
 9791POPC   C1A68283   3.564  28.337   6.450
 9791POPC   D2A68284   3.506  28.331   6.750
 9791POPC   C3A68285   3.583  28.406   7.050
 9791POPC   C4A68286   3.501  28.418   7.350
 9791POPC   C1B68287   3.746  28.206   6.450
 9791POPC   C2B68288   3.777  28.193   6.750
 9791POPC   C3B68289   3.745  28.178   7.050
 9791POPC   C4B68290   3.787  28.188   7.350
 9792POPC   NC368291   8.196  11.311   5.550
 9792POPC   PO468292   8.201  11.326   5.850
 9792POPC   GL168293   8.167  11.254   6.150
 9792POPC   GL268294   8.266  11.434   6.150
 9792POPC   C1A68295   8.206  11.254   6.450
 9792POPC   D2A68296   8.232  11.331   6.750
 9792POPC   C3A68297   8.219  11.302   7.050
 9792POPC   C4A68298   8.177  11.264   7.350
 9792POPC   C1B68299   8.267  11.512   6.450
 9792POPC   C2B68300   8.287  11.533   6.750
 9792POPC   C3B68301   8.283  11.572   7.050
 9792POPC   C4B68302   8.276  11.594   7.350
 9793POPC   NC368303  21.367   9.726   5.550
 9793POPC   PO468304  21.413   9.747   5.850
 9793POPC   GL168305  21.369   9.704   6.150
 9793POPC   GL268306  21.403   9.643   6.150
 9793POPC   C1A68307  21.376   9.788   6.450
 9793POPC   D2A68308  21.393   9.742   6.750
 9793POPC   C3A68309  21.394   9.751   7.050
 9793POPC   C4A68310  21.348   9.729   7.350
 9793POPC   C1B68311  21.319   9.468   6.450
 9793POPC   C2B68312  21.331   9.527   6.750
 9793POPC   C3B68313  21.379   9.480   7.050
 9793POPC   C4B68314  21.356   9.479   7.350
 9794POPC   NC368315  42.377  44.643   5.550
 9794POPC   PO468316  42.351  44.623   5.850
 9794POPC   GL168317  42.309  44.710   6.150
 9794POPC   GL268318  42.342  44.498   6.150
 9794POPC   C1A68319  42.331  44.711   6.450
 9794POPC   D2A68320  42.380  44.623   6.750
 9794POPC   C3A68321  42.381  44.707   7.050
 9794POPC   C4A68322  42.301  44.703   7.350
 9794POPC   C1B68323  42.383  44.440   6.450
 9794POPC   C2B68324  42.413  44.434   6.750
 9794POPC   C3B68325  42.457  44.414   7.050
 9794POPC   C4B68326  42.385  44.399   7.350
 9795POPC   NC368327  13.635  27.626   5.550
 9795POPC   PO468328  13.606  27.641   5.850
 9795POPC   GL168329  13.603  27.547   6.150
 9795POPC   GL268330  13.706  27.451   6.150
 9795POPC   C1A68331  13.584  27.583   6.450
 9795POPC   D2A68332  13.582  27.602   6.750
 9795POPC   C3A68333  13.660  27.625   7.050
 9795POPC   C4A68334  13.646  27.578   7.350
 9795POPC   C1B68335  13.775  27.374   6.450
 9795POPC   C2B68336  13.746  27.407   6.750
 9795POPC   C3B68337  13.739  27.422   7.050
 9795POPC   C4B68338  13.769  27.342   7.350
 9796POPC   NC368339   7.388   5.873   5.550
 9796POPC   PO468340   7.420   5.897   5.850
 9796POPC   GL168341   7.448   5.860   6.150
 9796POPC   GL268342   7.446   5.752   6.150
 9796POPC   C1A68343   7.460   5.823   6.450
 9796POPC   D2A68344   7.387   5.902   6.750
 9796POPC   C3A68345   7.435   5.904   7.050
 9796POPC   C4A68346   7.450   5.863   7.350
 9796POPC   C1B68347   7.592   5.616   6.450
 9796POPC   C2B68348   7.536   5.712   6.750
 9796POPC   C3B68349   7.517   5.614   7.050
 9796POPC   C4B68350   7.518   5.705   7.350
 9797POPC   NC368351  34.559  15.208   5.550
 9797POPC   PO468352  34.585  15.202   5.850
 9797POPC   GL168353  34.532  15.152   6.150
 9797POPC   GL268354  34.614  15.093   6.150
 9797POPC   C1A68355  34.626  15.219   6.450
 9797POPC   D2A68356  34.538  15.226   6.750
 9797POPC   C3A68357  34.617  15.223   7.050
 9797POPC   C4A68358  34.596  15.147   7.350
 9797POPC   C1B68359  34.681  14.927   6.450
 9797POPC   C2B68360  34.616  14.913   6.750
 9797POPC   C3B68361  34.698  14.961   7.050
 9797POPC   C4B68362  34.689  14.967   7.350
 9798POPC   NC368363  11.260  29.874   5.550
 9798POPC   PO468364  11.288  29.883   5.850
 9798POPC   GL168365  11.347  29.890   6.150
 9798POPC   GL268366  11.157  29.863   6.150
 9798POPC   C1A68367  11.337  29.958   6.450
 9798POPC   D2A68368  11.297  29.926   6.750
 9798POPC   C3A68369  11.291  29.885   7.050
 9798POPC   C4A68370  11.288  29.907   7.350
 9798POPC   C1B68371  11.080  29.709   6.450
 9798POPC   C2B68372  11.062  29.771   6.750
 9798POPC   C3B68373  11.105  29.732   7.050
 9798POPC   C4B68374  11.064  29.738   7.350
 9799POPC   NC368375  11.324  25.250   5.550
 9799POPC   PO468376  11.321  25.235   5.850
 9799POPC   GL168377  11.286  25.247   6.150
 9799POPC   GL268378  11.261  25.179   6.150
 9799POPC   C1A68379  11.331  25.251   6.450
 9799POPC   D2A68380  11.313  25.225   6.750
 9799POPC   C3A68381  11.304  25.263   7.050
 9799POPC   C4A68382  11.279  25.257   7.350
 9799POPC   C1B68383  11.223  25.067   6.450
 9799POPC   C2B68384  11.250  25.058   6.750
 9799POPC   C3B68385  11.229  25.045   7.050
 9799POPC   C4B68386  11.226  24.996   7.350
 9800POPC   NC368387   1.168  29.904   5.550
 9800POPC   PO468388   1.256  29.904   5.850
 9800POPC   GL168389   1.222  29.916   6.150
 9800POPC   GL268390   1.060  29.901   6.150
 9800POPC   C1A68391   1.246  29.878   6.450
 9800POPC   D2A68392   1.234  29.884   6.750
 9800POPC   C3A68393   1.193  29.882   7.050
 9800POPC   C4A68394   1.244  29.957   7.350
 9800POPC   C1B68395   0.998  29.813   6.450
 9800POPC   C2B68396   0.986  29.769   6.750
 9800POPC   C3B68397   0.980  29.805   7.050
 9800POPC   C4B68398   0.974  29.837   7.350
 9801POPC   NC368399  15.968  25.294   5.550
 9801POPC   PO468400  16.001  25.230   5.850
 9801POPC   GL168401  15.982  25.304   6.150
 9801POPC   GL268402  15.809  25.186   6.150
 9801POPC   C1A68403  15.949  25.236   6.450
 9801POPC   D2A68404  15.921  25.297   6.750
 9801POPC   C3A68405  15.952  25.239   7.050
 9801POPC   C4A68406  15.994  25.270   7.350
 9801POPC   C1B68407  15.700  25.201   6.450
 9801POPC   C2B68408  15.747  25.187   6.750
 9801POPC   C3B68409  15.741  25.153   7.050
 9801POPC   C4B68410  15.719  25.205   7.350
 9802POPC   NC368411  19.828  21.366   5.550
 9802POPC   PO468412  19.816  21.361   5.850
 9802POPC   GL168413  19.813  21.419   6.150
 9802POPC   GL268414  19.864  21.247   6.150
 9802POPC   C1A68415  19.785  21.342   6.450
 9802POPC   D2A68416  19.811  21.412   6.750
 9802POPC   C3A68417  19.842  21.421   7.050
 9802POPC   C4A68418  19.872  21.342   7.350
 9802POPC   C1B68419  20.009  21.176   6.450
 9802POPC   C2B68420  19.986  21.154   6.750
 9802POPC   C3B68421  20.003  21.189   7.050
 9802POPC   C4B68422  20.026  21.135   7.350
 9803POPC   NC368423   5.131  37.686   5.550
 9803POPC   PO468424   5.046  37.707   5.850
 9803POPC   GL168425   5.059  37.638   6.150
 9803POPC   GL268426   5.084  37.554   6.150
 9803POPC   C1A68427   5.087  37.659   6.450
 9803POPC   D2A68428   5.081  37.697   6.750
 9803POPC   C3A68429   5.118  37.707   7.050
 9803POPC   C4A68430   5.070  37.677   7.350
 9803POPC   C1B68431   5.031  37.467   6.450
 9803POPC   C2B68432   5.046  37.422   6.750
 9803POPC   C3B68433   5.017  37.427   7.050
 9803POPC   C4B68434   5.032  37.414   7.350
 9804POPC   NC368435  25.261  13.640   5.550
 9804POPC   PO468436  25.287  13.600   5.850
 9804POPC   GL168437  25.297  13.635   6.150
 9804POPC   GL268438  25.362  13.563   6.150
 9804POPC   C1A68439  25.234  13.674   6.450
 9804POPC   D2A68440  25.282  13.668   6.750
 9804POPC   C3A68441  25.220  13.584   7.050
 9804POPC   C4A68442  25.304  13.674   7.350
 9804POPC   C1B68443  25.465  13.576   6.450
 9804POPC   C2B68444  25.481  13.562   6.750
 9804POPC   C3B68445  25.475  13.531   7.050
 9804POPC   C4B68446  25.479  13.557   7.350
 9805POPC   NC368447  43.137  27.641   5.550
 9805POPC   PO468448  43.112  27.600   5.850
 9805POPC   GL168449  43.091  27.604   6.150
 9805POPC   GL268450  43.242  27.523   6.150
 9805POPC   C1A68451  43.151  27.632   6.450
 9805POPC   D2A68452  43.123  27.554   6.750
 9805POPC   C3A68453  43.148  27.589   7.050
 9805POPC   C4A68454  43.062  27.600   7.350
 9805POPC   C1B68455  43.271  27.411   6.450
 9805POPC   C2B68456  43.310  27.412   6.750
 9805POPC   C3B68457  43.269  27.408   7.050
 9805POPC   C4B68458  43.249  27.437   7.350
 9806POPC   NC368459  12.856   8.190   5.550
 9806POPC   PO468460  12.879   8.193   5.850
 9806POPC   GL168461  12.898   8.150   6.150
 9806POPC   GL268462  12.765   8.329   6.150
 9806POPC   C1A68463  12.872   8.171   6.450
 9806POPC   D2A68464  12.901   8.213   6.750
 9806POPC   C3A68465  12.883   8.166   7.050
 9806POPC   C4A68466  12.802   8.175   7.350
 9806POPC   C1B68467  12.693   8.395   6.450
 9806POPC   C2B68468  12.730   8.419   6.750
 9806POPC   C3B68469  12.764   8.366   7.050
 9806POPC   C4B68470  12.734   8.408   7.350
 9807POPC   NC368471  34.538  19.851   5.550
 9807POPC   PO468472  34.600  19.855   5.850
 9807POPC   GL168473  34.557  19.882   6.150
 9807POPC   GL268474  34.471  19.949   6.150
 9807POPC   C1A68475  34.611  19.808   6.450
 9807POPC   D2A68476  34.573  19.813   6.750
 9807POPC   C3A68477  34.559  19.818   7.050
 9807POPC   C4A68478  34.599  19.837   7.350
 9807POPC   C1B68479  34.381  20.005   6.450
 9807POPC   C2B68480  34.421  20.028   6.750
 9807POPC   C3B68481  34.364  20.031   7.050
 9807POPC   C4B68482  34.382  20.021   7.350
 9808POPC   NC368483  22.894   8.156   5.550
 9808POPC   PO468484  22.932   8.161   5.850
 9808POPC   GL168485  22.909   8.152   6.150
 9808POPC   GL268486  22.836   8.123   6.150
 9808POPC   C1A68487  22.987   8.190   6.450
 9808POPC   D2A68488  22.914   8.194   6.750
 9808POPC   C3A68489  22.921   8.149   7.050
 9808POPC   C4A68490  22.901   8.160   7.350
 9808POPC   C1B68491  22.811   7.932   6.450
 9808POPC   C2B68492  22.839   8.021   6.750
 9808POPC   C3B68493  22.780   7.947   7.050
 9808POPC   C4B68494  22.841   7.969   7.350
 9809POPC   NC368495  16.754  16.734   5.550
 9809POPC   PO468496  16.743  16.761   5.850
 9809POPC   GL168497  16.714  16.754   6.150
 9809POPC   GL268498  16.660  16.660   6.150
 9809POPC   C1A68499  16.690  16.770   6.450
 9809POPC   D2A68500  16.765  16.780   6.750
 9809POPC   C3A68501  16.753  16.774   7.050
 9809POPC   C4A68502  16.741  16.766   7.350
 9809POPC   C1B68503  16.630  16.451   6.450
 9809POPC   C2B68504  16.655  16.491   6.750
 9809POPC   C3B68505  16.669  16.462   7.050
 9809POPC   C4B68506  16.680  16.472   7.350
 9810POPC   NC368507  28.396  28.362   5.550
 9810POPC   PO468508  28.351  28.417   5.850
 9810POPC   GL168509  28.362  28.401   6.150
 9810POPC   GL268510  28.409  28.253   6.150
 9810POPC   C1A68511  28.372  28.346   6.450
 9810POPC   D2A68512  28.338  28.372   6.750
 9810POPC   C3A68513  28.329  28.416   7.050
 9810POPC   C4A68514  28.360  28.404   7.350
 9810POPC   C1B68515  28.442  28.136   6.450
 9810POPC   C2B68516  28.433  28.156   6.750
 9810POPC   C3B68517  28.448  28.178   7.050
 9810POPC   C4B68518  28.476  28.126   7.350
 9811POPC   NC368519  42.317   4.317   5.550
 9811POPC   PO468520  42.299   4.339   5.850
 9811POPC   GL168521  42.292   4.312   6.150
 9811POPC   GL268522  42.271   4.432   6.150
 9811POPC   C1A68523  42.298   4.319   6.450
 9811POPC   D2A68524  42.292   4.336   6.750
 9811POPC   C3A68525  42.341   4.315   7.050
 9811POPC   C4A68526  42.366   4.299   7.350
 9811POPC   C1B68527  42.213   4.530   6.450
 9811POPC   C2B68528  42.211   4.581   6.750
 9811POPC   C3B68529  42.227   4.510   7.050
 9811POPC   C4B68530  42.283   4.504   7.350
 9812POPC   NC368531  35.368   1.197   5.550
 9812POPC   PO468532  35.377   1.165   5.850
 9812POPC   GL168533  35.384   1.224   6.150
 9812POPC   GL268534  35.187   1.253   6.150
 9812POPC   C1A68535  35.372   1.172   6.450
 9812POPC   D2A68536  35.328   1.193   6.750
 9812POPC   C3A68537  35.399   1.172   7.050
 9812POPC   C4A68538  35.370   1.225   7.350
 9812POPC   C1B68539  35.112   1.278   6.450
 9812POPC   C2B68540  35.157   1.314   6.750
 9812POPC   C3B68541  35.083   1.236   7.050
 9812POPC   C4B68542  35.066   1.247   7.350
 9813POPC   NC368543   5.051  21.338   5.550
 9813POPC   PO468544   5.098  21.362   5.850
 9813POPC   GL168545   5.124  21.418   6.150
 9813POPC   GL268546   5.204  21.366   6.150
 9813POPC   C1A68547   5.121  21.355   6.450
 9813POPC   D2A68548   5.143  21.371   6.750
 9813POPC   C3A68549   5.073  21.336   7.050
 9813POPC   C4A68550   5.139  21.365   7.350
 9813POPC   C1B68551   5.336  21.273   6.450
 9813POPC   C2B68552   5.280  21.268   6.750
 9813POPC   C3B68553   5.349  21.274   7.050
 9813POPC   C4B68554   5.288  21.331   7.350
 9814POPC   NC368555   8.165  36.165   5.550
 9814POPC   PO468556   8.233  36.083   5.850
 9814POPC   GL168557   8.244  36.136   6.150
 9814POPC   GL268558   8.094  36.026   6.150
 9814POPC   C1A68559   8.172  36.086   6.450
 9814POPC   D2A68560   8.194  36.085   6.750
 9814POPC   C3A68561   8.204  36.094   7.050
 9814POPC   C4A68562   8.234  36.123   7.350
 9814POPC   C1B68563   7.991  35.977   6.450
 9814POPC   C2B68564   8.000  35.945   6.750
 9814POPC   C3B68565   8.069  35.942   7.050
 9814POPC   C4B68566   8.031  35.918   7.350
 9815POPC   NC368567  43.144   3.584   5.550
 9815POPC   PO468568  43.094   3.550   5.850
 9815POPC   GL168569  43.101   3.564   6.150
 9815POPC   GL268570  43.163   3.617   6.150
 9815POPC   C1A68571  43.154   3.523   6.450
 9815POPC   D2A68572  43.124   3.502   6.750
 9815POPC   C3A68573  43.089   3.515   7.050
 9815POPC   C4A68574  43.151   3.501   7.350
 9815POPC   C1B68575  43.211   3.713   6.450
 9815POPC   C2B68576  43.217   3.719   6.750
 9815POPC   C3B68577  43.244   3.737   7.050
 9815POPC   C4B68578  43.259   3.699   7.350
 9816POPC   NC368579  40.045  30.731   5.550
 9816POPC   PO468580  39.967  30.717   5.850
 9816POPC   GL168581  39.986  30.707   6.150
 9816POPC   GL268582  40.067  30.762   6.150
 9816POPC   C1A68583  40.055  30.660   6.450
 9816POPC   D2A68584  39.975  30.701   6.750
 9816POPC   C3A68585  40.007  30.649   7.050
 9816POPC   C4A68586  39.998  30.707   7.350
 9816POPC   C1B68587  40.182  30.882   6.450
 9816POPC   C2B68588  40.203  30.869   6.750
 9816POPC   C3B68589  40.143  30.831   7.050
 9816POPC   C4B68590  40.140  30.896   7.350
 9817POPC   NC368591  19.819  20.621   5.550
 9817POPC   PO468592  19.867  20.658   5.850
 9817POPC   GL168593  19.882  20.657   6.150
 9817POPC   GL268594  19.818  20.525   6.150
 9817POPC   C1A68595  19.832  20.659   6.450
 9817POPC   D2A68596  19.823  20.574   6.750
 9817POPC   C3A68597  19.838  20.639   7.050
 9817POPC   C4A68598  19.802  20.583   7.350
 9817POPC   C1B68599  19.788  20.373   6.450
 9817POPC   C2B68600  19.767  20.374   6.750
 9817POPC   C3B68601  19.802  20.349   7.050
 9817POPC   C4B68602  19.781  20.336   7.350
 9818POPC   NC368603  31.479  42.378   5.550
 9818POPC   PO468604  31.443  42.352   5.850
 9818POPC   GL168605  31.458  42.291   6.150
 9818POPC   GL268606  31.493  42.441   6.150
 9818POPC   C1A68607  31.503  42.383   6.450
 9818POPC   D2A68608  31.458  42.311   6.750
 9818POPC   C3A68609  31.505  42.379   7.050
 9818POPC   C4A68610  31.500  42.372   7.350
 9818POPC   C1B68611  31.414  42.578   6.450
 9818POPC   C2B68612  31.487  42.542   6.750
 9818POPC   C3B68613  31.411  42.570   7.050
 9818POPC   C4B68614  31.413  42.580   7.350
 9819POPC   NC368615  26.003  36.913   5.550
 9819POPC   PO468616  26.015  36.944   5.850
 9819POPC   GL168617  26.051  36.947   6.150
 9819POPC   GL268618  26.053  36.992   6.150
 9819POPC   C1A68619  25.999  36.893   6.450
 9819POPC   D2A68620  26.060  36.935   6.750
 9819POPC   C3A68621  26.052  36.859   7.050
 9819POPC   C4A68622  25.998  36.923   7.350
 9819POPC   C1B68623  26.034  37.143   6.450
 9819POPC   C2B68624  25.954  37.131   6.750
 9819POPC   C3B68625  26.022  37.118   7.050
 9819POPC   C4B68626  25.985  37.106   7.350
 9820POPC   NC368627   3.564   5.826   5.550
 9820POPC   PO468628   3.582   5.895   5.850
 9820POPC   GL168629   3.567   5.893   6.150
 9820POPC   GL268630   3.612   5.826   6.150
 9820POPC   C1A68631   3.586   5.835   6.450
 9820POPC   D2A68632   3.527   5.883   6.750
 9820POPC   C3A68633   3.515   5.899   7.050
 9820POPC   C4A68634   3.514   5.890   7.350
 9820POPC   C1B68635   3.751   5.764   6.450
 9820POPC   C2B68636   3.786   5.711   6.750
 9820POPC   C3B68637   3.760   5.708   7.050
 9820POPC   C4B68638   3.736   5.791   7.350
 9821POPC   NC368639   3.498  12.871   5.550
 9821POPC   PO468640   3.538  12.881   5.850
 9821POPC   GL168641   3.521  12.892   6.150
 9821POPC   GL268642   3.699  12.871   6.150
 9821POPC   C1A68643   3.568  12.843   6.450
 9821POPC   D2A68644   3.518  12.834   6.750
 9821POPC   C3A68645   3.576  12.851   7.050
 9821POPC   C4A68646   3.577  12.838   7.350
 9821POPC   C1B68647   3.762  12.785   6.450
 9821POPC   C2B68648   3.776  12.809   6.750
 9821POPC   C3B68649   3.768  12.780   7.050
 9821POPC   C4B68650   3.743  12.807   7.350
 9822POPC   NC368651  41.580  10.474   5.550
 9822POPC   PO468652  41.529  10.481   5.850
 9822POPC   GL168653  41.541  10.520   6.150
 9822POPC   GL268654  41.427  10.519   6.150
 9822POPC   C1A68655  41.564  10.492   6.450
 9822POPC   D2A68656  41.530  10.489   6.750
 9822POPC   C3A68657  41.566  10.495   7.050
 9822POPC   C4A68658  41.537  10.538   7.350
 9822POPC   C1B68659  41.322  10.496   6.450
 9822POPC   C2B68660  41.323  10.482   6.750
 9822POPC   C3B68661  41.279  10.473   7.050
 9822POPC   C4B68662  41.295  10.497   7.350
 9823POPC   NC368663  36.940   7.389   5.550
 9823POPC   PO468664  36.914   7.459   5.850
 9823POPC   GL168665  36.923   7.470   6.150
 9823POPC   GL268666  37.059   7.494   6.150
 9823POPC   C1A68667  36.872   7.451   6.450
 9823POPC   D2A68668  36.924   7.410   6.750
 9823POPC   C3A68669  36.913   7.441   7.050
 9823POPC   C4A68670  36.952   7.395   7.350
 9823POPC   C1B68671  37.140   7.572   6.450
 9823POPC   C2B68672  37.179   7.509   6.750
 9823POPC   C3B68673  37.107   7.559   7.050
 9823POPC   C4B68674  37.124   7.493   7.350
 9824POPC   NC368675  12.093  22.112   5.550
 9824POPC   PO468676  12.042  22.138   5.850
 9824POPC   GL168677  12.081  22.211   6.150
 9824POPC   GL268678  11.992  22.037   6.150
 9824POPC   C1A68679  12.052  22.173   6.450
 9824POPC   D2A68680  12.029  22.135   6.750
 9824POPC   C3A68681  12.036  22.140   7.050
 9824POPC   C4A68682  12.088  22.178   7.350
 9824POPC   C1B68683  11.926  21.909   6.450
 9824POPC   C2B68684  12.003  21.930   6.750
 9824POPC   C3B68685  12.002  21.903   7.050
 9824POPC   C4B68686  11.925  21.962   7.350
 9825POPC   NC368687   0.446  39.981   5.550
 9825POPC   PO468688   0.463  39.998   5.850
 9825POPC   GL168689   0.392  40.038   6.150
 9825POPC   GL268690   0.515  40.103   6.150
 9825POPC   C1A68691   0.458  40.038   6.450
 9825POPC   D2A68692   0.428  40.057   6.750
 9825POPC   C3A68693   0.412  39.988   7.050
 9825POPC   C4A68694   0.446  40.023   7.350
 9825POPC   C1B68695   0.554  40.206   6.450
 9825POPC   C2B68696   0.559  40.231   6.750
 9825POPC   C3B68697   0.569  40.213   7.050
 9825POPC   C4B68698   0.553  40.212   7.350
 9826POPC   NC368699  15.153  17.513   5.550
 9826POPC   PO468700  15.157  17.519   5.850
 9826POPC   GL168701  15.138  17.540   6.150
 9826POPC   GL268702  15.238  17.613   6.150
 9826POPC   C1A68703  15.141  17.516   6.450
 9826POPC   D2A68704  15.166  17.534   6.750
 9826POPC   C3A68705  15.190  17.464   7.050
 9826POPC   C4A68706  15.156  17.497   7.350
 9826POPC   C1B68707  15.312  17.684   6.450
 9826POPC   C2B68708  15.295  17.723   6.750
 9826POPC   C3B68709  15.348  17.721   7.050
 9826POPC   C4B68710  15.300  17.708   7.350
 9827POPC   NC368711  37.648  30.687   5.550
 9827POPC   PO468712  37.654  30.706   5.850
 9827POPC   GL168713  37.634  30.702   6.150
 9827POPC   GL268714  37.732  30.801   6.150
 9827POPC   C1A68715  37.662  30.660   6.450
 9827POPC   D2A68716  37.649  30.726   6.750
 9827POPC   C3A68717  37.718  30.691   7.050
 9827POPC   C4A68718  37.717  30.649   7.350
 9827POPC   C1B68719  37.759  30.975   6.450
 9827POPC   C2B68720  37.733  30.937   6.750
 9827POPC   C3B68721  37.741  30.885   7.050
 9827POPC   C4B68722  37.803  30.964   7.350
 9828POPC   NC368723   1.212  18.309   5.550
 9828POPC   PO468724   1.177  18.324   5.850
 9828POPC   GL168725   1.229  18.245   6.150
 9828POPC   GL268726   1.109  18.143   6.150
 9828POPC   C1A68727   1.214  18.317   6.450
 9828POPC   D2A68728   1.174  18.252   6.750
 9828POPC   C3A68729   1.189  18.283   7.050
 9828POPC   C4A68730   1.193  18.272   7.350
 9828POPC   C1B68731   1.091  18.046   6.450
 9828POPC   C2B68732   1.041  18.091   6.750
 9828POPC   C3B68733   1.079  18.062   7.050
 9828POPC   C4B68734   1.110  18.036   7.350
 9829POPC   NC368735  40.791   1.195   5.550
 9829POPC   PO468736  40.758   1.193   5.850
 9829POPC   GL168737  40.770   1.246   6.150
 9829POPC   GL268738  40.680   1.232   6.150
 9829POPC   C1A68739  40.753   1.200   6.450
 9829POPC   D2A68740  40.760   1.218   6.750
 9829POPC   C3A68741  40.742   1.238   7.050
 9829POPC   C4A68742  40.828   1.199   7.350
 9829POPC   C1B68743  40.600   1.307   6.450
 9829POPC   C2B68744  40.598   1.312   6.750
 9829POPC   C3B68745  40.536   1.362   7.050
 9829POPC   C4B68746  40.600   1.299   7.350
 9830POPC   NC368747  12.053  22.897   5.550
 9830POPC   PO468748  12.124  22.939   5.850
 9830POPC   GL168749  12.028  22.974   6.150
 9830POPC   GL268750  12.125  23.091   6.150
 9830POPC   C1A68751  12.099  22.940   6.450
 9830POPC   D2A68752  12.113  22.920   6.750
 9830POPC   C3A68753  12.035  22.899   7.050
 9830POPC   C4A68754  12.052  22.955   7.350
 9830POPC   C1B68755  12.179  23.130   6.450
 9830POPC   C2B68756  12.149  23.142   6.750
 9830POPC   C3B68757  12.218  23.192   7.050
 9830POPC   C4B68758  12.141  23.154   7.350
 9831POPC   NC368759  21.421  18.319   5.550
 9831POPC   PO468760  21.395  18.248   5.850
 9831POPC   GL168761  21.338  18.309   6.150
 9831POPC   GL268762  21.248  18.245   6.150
 9831POPC   C1A68763  21.402  18.286   6.450
 9831POPC   D2A68764  21.397  18.281   6.750
 9831POPC   C3A68765  21.419  18.317   7.050
 9831POPC   C4A68766  21.349  18.251   7.350
 9831POPC   C1B68767  21.206  18.096   6.450
 9831POPC   C2B68768  21.188  18.139   6.750
 9831POPC   C3B68769  21.140  18.184   7.050
 9831POPC   C4B68770  21.204  18.098   7.350
 9832POPC   NC368771  15.193   7.462   5.550
 9832POPC   PO468772  15.193   7.444   5.850
 9832POPC   GL168773  15.209   7.377   6.150
 9832POPC   GL268774  15.232   7.289   6.150
 9832POPC   C1A68775  15.161   7.384   6.450
 9832POPC   D2A68776  15.211   7.457   6.750
 9832POPC   C3A68777  15.206   7.419   7.050
 9832POPC   C4A68778  15.224   7.467   7.350
 9832POPC   C1B68779  15.327   7.203   6.450
 9832POPC   C2B68780  15.360   7.198   6.750
 9832POPC   C3B68781  15.356   7.256   7.050
 9832POPC   C4B68782  15.338   7.233   7.350
 9833POPC   NC368783  23.738  18.259   5.550
 9833POPC   PO468784  23.751  18.294   5.850
 9833POPC   GL168785  23.672  18.268   6.150
 9833POPC   GL268786  23.768  18.187   6.150
 9833POPC   C1A68787  23.756  18.270   6.450
 9833POPC   D2A68788  23.708  18.298   6.750
 9833POPC   C3A68789  23.736  18.278   7.050
 9833POPC   C4A68790  23.754  18.321   7.350
 9833POPC   C1B68791  23.780  18.020   6.450
 9833POPC   C2B68792  23.791  17.994   6.750
 9833POPC   C3B68793  23.722  17.997   7.050
 9833POPC   C4B68794  23.783  18.051   7.350
 9834POPC   NC368795  21.398   5.054   5.550
 9834POPC   PO468796  21.388   5.057   5.850
 9834POPC   GL168797  21.426   5.096   6.150
 9834POPC   GL268798  21.418   4.980   6.150
 9834POPC   C1A68799  21.356   5.084   6.450
 9834POPC   D2A68800  21.381   5.098   6.750
 9834POPC   C3A68801  21.371   5.053   7.050
 9834POPC   C4A68802  21.409   5.096   7.350
 9834POPC   C1B68803  21.524   4.938   6.450
 9834POPC   C2B68804  21.555   4.843   6.750
 9834POPC   C3B68805  21.523   4.904   7.050
 9834POPC   C4B68806  21.519   4.892   7.350
 9835POPC   NC368807  20.629  10.527   5.550
 9835POPC   PO468808  20.627  10.519   5.850
 9835POPC   GL168809  20.586  10.543   6.150
 9835POPC   GL268810  20.536  10.383   6.150
 9835POPC   C1A68811  20.561  10.491   6.450
 9835POPC   D2A68812  20.623  10.531   6.750
 9835POPC   C3A68813  20.622  10.492   7.050
 9835POPC   C4A68814  20.659  10.574   7.350
 9835POPC   C1B68815  20.506  10.289   6.450
 9835POPC   C2B68816  20.537  10.324   6.750
 9835POPC   C3B68817  20.562  10.268   7.050
 9835POPC   C4B68818  20.480  10.319   7.350
 9836POPC   NC368819   9.743   0.444   5.550
 9836POPC   PO468820   9.703   0.440   5.850
 9836POPC   GL168821   9.717   0.395   6.150
 9836POPC   GL268822   9.670   0.518   6.150
 9836POPC   C1A68823   9.724   0.469   6.450
 9836POPC   D2A68824   9.702   0.430   6.750
 9836POPC   C3A68825   9.747   0.405   7.050
 9836POPC   C4A68826   9.710   0.430   7.350
 9836POPC   C1B68827   9.679   0.702   6.450
 9836POPC   C2B68828   9.585   0.654   6.750
 9836POPC   C3B68829   9.593   0.658   7.050
 9836POPC   C4B68830   9.635   0.639   7.350
 9837POPC   NC368831  33.035   8.959   5.550
 9837POPC   PO468832  32.986   9.017   5.850
 9837POPC   GL168833  33.005   8.971   6.150
 9837POPC   GL268834  33.006   8.887   6.150
 9837POPC   C1A68835  33.013   8.935   6.450
 9837POPC   D2A68836  33.001   8.929   6.750
 9837POPC   C3A68837  32.988   8.974   7.050
 9837POPC   C4A68838  32.978   8.924   7.350
 9837POPC   C1B68839  32.925   8.733   6.450
 9837POPC   C2B68840  32.929   8.754   6.750
 9837POPC   C3B68841  32.981   8.784   7.050
 9837POPC   C4B68842  32.932   8.763   7.350
 9838POPC   NC368843  13.621  14.392   5.550
 9838POPC   PO468844  13.597  14.407   5.850
 9838POPC   GL168845  13.615  14.370   6.150
 9838POPC   GL268846  13.715  14.382   6.150
 9838POPC   C1A68847  13.581  14.366   6.450
 9838POPC   D2A68848  13.677  14.362   6.750
 9838POPC   C3A68849  13.600  14.386   7.050
 9838POPC   C4A68850  13.617  14.453   7.350
 9838POPC   C1B68851  13.812  14.294   6.450
 9838POPC   C2B68852  13.810  14.282   6.750
 9838POPC   C3B68853  13.815  14.300   7.050
 9838POPC   C4B68854  13.844  14.309   7.350
 9839POPC   NC368855  28.413   8.233   5.550
 9839POPC   PO468856  28.371   8.189   5.850
 9839POPC   GL168857  28.410   8.238   6.150
 9839POPC   GL268858  28.497   8.271   6.150
 9839POPC   C1A68859  28.371   8.179   6.450
 9839POPC   D2A68860  28.410   8.164   6.750
 9839POPC   C3A68861  28.385   8.167   7.050
 9839POPC   C4A68862  28.363   8.175   7.350
 9839POPC   C1B68863  28.550   8.326   6.450
 9839POPC   C2B68864  28.518   8.382   6.750
 9839POPC   C3B68865  28.567   8.329   7.050
 9839POPC   C4B68866  28.524   8.403   7.350
 9840POPC   NC368867  15.204  11.307   5.550
 9840POPC   PO468868  15.158  11.316   5.850
 9840POPC   GL168869  15.228  11.296   6.150
 9840POPC   GL268870  15.273  11.328   6.150
 9840POPC   C1A68871  15.216  11.305   6.450
 9840POPC   D2A68872  15.202  11.294   6.750
 9840POPC   C3A68873  15.184  11.270   7.050
 9840POPC   C4A68874  15.200  11.295   7.350
 9840POPC   C1B68875  15.427  11.318   6.450
 9840POPC   C2B68876  15.437  11.340   6.750
 9840POPC   C3B68877  15.391  11.287   7.050
 9840POPC   C4B68878  15.428  11.356   7.350
 9841POPC   NC368879  43.881  25.307   5.550
 9841POPC   PO468880  43.918  25.297   5.850
 9841POPC   GL168881  43.884  25.289   6.150
 9841POPC   GL268882  43.756  25.329   6.150
 9841POPC   C1A68883  43.867  25.285   6.450
 9841POPC   D2A68884  43.917  25.263   6.750
 9841POPC   C3A68885  43.878  25.302   7.050
 9841POPC   C4A68886  43.915  25.242   7.350
 9841POPC   C1B68887  43.702  25.416   6.450
 9841POPC   C2B68888  43.764  25.462   6.750
 9841POPC   C3B68889  43.722  25.485   7.050
 9841POPC   C4B68890  43.761  25.500   7.350
 9842POPC   NC368891  10.543  41.556   5.550
 9842POPC   PO468892  10.561  41.581   5.850
 9842POPC   GL168893  10.528  41.541   6.150
 9842POPC   GL268894  10.462  41.684   6.150
 9842POPC   C1A68895  10.523  41.589   6.450
 9842POPC   D2A68896  10.529  41.539   6.750
 9842POPC   C3A68897  10.511  41.581   7.050
 9842POPC   C4A68898  10.550  41.536   7.350
 9842POPC   C1B68899  10.386  41.702   6.450
 9842POPC   C2B68900  10.301  41.776   6.750
 9842POPC   C3B68901  10.372  41.777   7.050
 9842POPC   C4B68902  10.342  41.700   7.350
 9843POPC   NC368903  33.024  39.206   5.550
 9843POPC   PO468904  33.029  39.246   5.850
 9843POPC   GL168905  33.073  39.185   6.150
 9843POPC   GL268906  32.988  39.347   6.150
 9843POPC   C1A68907  33.067  39.247   6.450
 9843POPC   D2A68908  33.064  39.237   6.750
 9843POPC   C3A68909  32.998  39.251   7.050
 9843POPC   C4A68910  33.019  39.277   7.350
 9843POPC   C1B68911  32.942  39.465   6.450
 9843POPC   C2B68912  33.006  39.476   6.750
 9843POPC   C3B68913  32.993  39.474   7.050
 9843POPC   C4B68914  32.972  39.469   7.350
 9844POPC   NC368915   1.965  44.628   5.550
 9844POPC   PO468916   2.011  44.692   5.850
 9844POPC   GL168917   1.958  44.666   6.150
 9844POPC   GL268918   2.065  44.782   6.150
 9844POPC   C1A68919   1.954  44.627   6.450
 9844POPC   D2A68920   2.005  44.673   6.750
 9844POPC   C3A68921   1.961  44.678   7.050
 9844POPC   C4A68922   1.994  44.678   7.350
 9844POPC   C1B68923   2.044  44.886   6.450
 9844POPC   C2B68924   2.066  44.903   6.750
 9844POPC   C3B68925   2.093  44.902   7.050
 9844POPC   C4B68926   2.056  44.874   7.350
 9845POPC   NC368927  29.116  22.139   5.550
 9845POPC   PO468928  29.137  22.161   5.850
 9845POPC   GL168929  29.190  22.143   6.150
 9845POPC   GL268930  29.032  22.076   6.150
 9845POPC   C1A68931  29.110  22.180   6.450
 9845POPC   D2A68932  29.155  22.114   6.750
 9845POPC   C3A68933  29.143  22.118   7.050
 9845POPC   C4A68934  29.123  22.150   7.350
 9845POPC   C1B68935  28.894  22.058   6.450
 9845POPC   C2B68936  28.929  21.990   6.750
 9845POPC   C3B68937  28.966  22.000   7.050
 9845POPC   C4B68938  28.939  22.060   7.350
 9846POPC   NC368939  29.919  12.064   5.550
 9846POPC   PO468940  29.952  12.071   5.850
 9846POPC   GL168941  29.948  12.075   6.150
 9846POPC   GL268942  29.793  12.016   6.150
 9846POPC   C1A68943  29.903  12.109   6.450
 9846POPC   D2A68944  29.873  12.110   6.750
 9846POPC   C3A68945  29.901  12.108   7.050
 9846POPC   C4A68946  29.903  12.076   7.350
 9846POPC   C1B68947  29.706  11.889   6.450
 9846POPC   C2B68948  29.779  11.852   6.750
 9846POPC   C3B68949  29.794  11.901   7.050
 9846POPC   C4B68950  29.784  11.884   7.350
 9847POPC   NC368951   3.574  34.535   5.550
 9847POPC   PO468952   3.520  34.570   5.850
 9847POPC   GL168953   3.564  34.581   6.150
 9847POPC   GL268954   3.472  34.491   6.150
 9847POPC   C1A68955   3.538  34.531   6.450
 9847POPC   D2A68956   3.564  34.591   6.750
 9847POPC   C3A68957   3.492  34.599   7.050
 9847POPC   C4A68958   3.553  34.578   7.350
 9847POPC   C1B68959   3.323  34.399   6.450
 9847POPC   C2B68960   3.375  34.439   6.750
 9847POPC   C3B68961   3.378  34.427   7.050
 9847POPC   C4B68962   3.330  34.401   7.350
 9848POPC   NC368963  14.394  38.441   5.550
 9848POPC   PO468964  14.374  38.428   5.850
 9848POPC   GL168965  14.393  38.450   6.150
 9848POPC   GL268966  14.290  38.479   6.150
 9848POPC   C1A68967  14.412  38.454   6.450
 9848POPC   D2A68968  14.399  38.499   6.750
 9848POPC   C3A68969  14.370  38.452   7.050
 9848POPC   C4A68970  14.379  38.417   7.350
 9848POPC   C1B68971  14.164  38.561   6.450
 9848POPC   C2B68972  14.167  38.533   6.750
 9848POPC   C3B68973  14.174  38.483   7.050
 9848POPC   C4B68974  14.122  38.534   7.350
 9849POPC   NC368975  22.948  38.465   5.550
 9849POPC   PO468976  22.964  38.458   5.850
 9849POPC   GL168977  22.915  38.441   6.150
 9849POPC   GL268978  22.791  38.477   6.150
 9849POPC   C1A68979  22.942  38.476   6.450
 9849POPC   D2A68980  22.941  38.429   6.750
 9849POPC   C3A68981  22.958  38.499   7.050
 9849POPC   C4A68982  22.902  38.464   7.350
 9849POPC   C1B68983  22.717  38.462   6.450
 9849POPC   C2B68984  22.678  38.463   6.750
 9849POPC   C3B68985  22.736  38.470   7.050
 9849POPC   C4B68986  22.732  38.485   7.350
 9850POPC   NC368987   9.782   2.735   5.550
 9850POPC   PO468988   9.706   2.768   5.850
 9850POPC   GL168989   9.736   2.741   6.150
 9850POPC   GL268990   9.632   2.719   6.150
 9850POPC   C1A68991   9.702   2.719   6.450
 9850POPC   D2A68992   9.747   2.783   6.750
 9850POPC   C3A68993   9.757   2.795   7.050
 9850POPC   C4A68994   9.762   2.777   7.350
 9850POPC   C1B68995   9.493   2.618   6.450
 9850POPC   C2B68996   9.569   2.640   6.750
 9850POPC   C3B68997   9.541   2.668   7.050
 9850POPC   C4B68998   9.578   2.590   7.350
 9851POPC   NC368999  15.980  19.057   5.550
 9851POPC   PO469000  15.990  19.019   5.850
 9851POPC   GL169001  15.998  19.038   6.150
 9851POPC   GL269002  15.921  19.121   6.150
 9851POPC   C1A69003  15.952  19.014   6.450
 9851POPC   D2A69004  15.924  19.033   6.750
 9851POPC   C3A69005  15.956  19.033   7.050
 9851POPC   C4A69006  15.993  19.101   7.350
 9851POPC   C1B69007  15.823  19.317   6.450
 9851POPC   C2B69008  15.798  19.256   6.750
 9851POPC   C3B69009  15.825  19.257   7.050
 9851POPC   C4B69010  15.819  19.272   7.350
 9852POPC   NC369011  30.671  24.471   5.550
 9852POPC   PO469012  30.683  24.505   5.850
 9852POPC   GL169013  30.673  24.524   6.150
 9852POPC   GL269014  30.619  24.522   6.150
 9852POPC   C1A69015  30.739  24.492   6.450
 9852POPC   D2A69016  30.707  24.460   6.750
 9852POPC   C3A69017  30.732  24.533   7.050
 9852POPC   C4A69018  30.660  24.531   7.350
 9852POPC   C1B69019  30.482  24.606   6.450
 9852POPC   C2B69020  30.429  24.639   6.750
 9852POPC   C3B69021  30.467  24.566   7.050
 9852POPC   C4B69022  30.484  24.627   7.350
 9853POPC   NC369023  19.032  26.046   5.550
 9853POPC   PO469024  19.095  26.067   5.850
 9853POPC   GL169025  19.011  26.045   6.150
 9853POPC   GL269026  19.135  26.003   6.150
 9853POPC   C1A69027  19.045  26.021   6.450
 9853POPC   D2A69028  19.018  26.002   6.750
 9853POPC   C3A69029  19.064  26.039   7.050
 9853POPC   C4A69030  19.022  26.021   7.350
 9853POPC   C1B69031  19.252  25.943   6.450
 9853POPC   C2B69032  19.267  25.982   6.750
 9853POPC   C3B69033  19.312  25.972   7.050
 9853POPC   C4B69034  19.322  25.978   7.350
 9854POPC   NC369035  11.299   4.314   5.550
 9854POPC   PO469036  11.309   4.292   5.850
 9854POPC   GL169037  11.315   4.296   6.150
 9854POPC   GL269038  11.428   4.253   6.150
 9854POPC   C1A69039  11.280   4.336   6.450
 9854POPC   D2A69040  11.288   4.283   6.750
 9854POPC   C3A69041  11.337   4.347   7.050
 9854POPC   C4A69042  11.316   4.299   7.350
 9854POPC   C1B69043  11.562   4.178   6.450
 9854POPC   C2B69044  11.508   4.172   6.750
 9854POPC   C3B69045  11.497   4.176   7.050
 9854POPC   C4B69046  11.541   4.204   7.350
 9855POPC   NC369047  22.194   9.711   5.550
 9855POPC   PO469048  22.144   9.719   5.850
 9855POPC   GL169049  22.169   9.749   6.150
 9855POPC   GL269050  22.280   9.832   6.150
 9855POPC   C1A69051  22.119   9.723   6.450
 9855POPC   D2A69052  22.119   9.769   6.750
 9855POPC   C3A69053  22.210   9.791   7.050
 9855POPC   C4A69054  22.137   9.747   7.350
 9855POPC   C1B69055  22.390   9.858   6.450
 9855POPC   C2B69056  22.406   9.857   6.750
 9855POPC   C3B69057  22.440   9.857   7.050
 9855POPC   C4B69058  22.360   9.858   7.350
 9856POPC   NC369059   8.175   7.450   5.550
 9856POPC   PO469060   8.160   7.384   5.850
 9856POPC   GL169061   8.178   7.378   6.150
 9856POPC   GL269062   8.116   7.312   6.150
 9856POPC   C1A69063   8.239   7.391   6.450
 9856POPC   D2A69064   8.246   7.442   6.750
 9856POPC   C3A69065   8.161   7.403   7.050
 9856POPC   C4A69066   8.203   7.467   7.350
 9856POPC   C1B69067   8.054   7.247   6.450
 9856POPC   C2B69068   8.002   7.282   6.750
 9856POPC   C3B69069   8.035   7.210   7.050
 9856POPC   C4B69070   8.035   7.224   7.350
 9857POPC   NC369071  32.219  18.248   5.550
 9857POPC   PO469072  32.269  18.291   5.850
 9857POPC   GL169073  32.200  18.257   6.150
 9857POPC   GL269074  32.247  18.384   6.150
 9857POPC   C1A69075  32.256  18.320   6.450
 9857POPC   D2A69076  32.239  18.284   6.750
 9857POPC   C3A69077  32.290  18.319   7.050
 9857POPC   C4A69078  32.228  18.263   7.350
 9857POPC   C1B69079  32.233  18.570   6.450
 9857POPC   C2B69080  32.318  18.481   6.750
 9857POPC   C3B69081  32.305  18.488   7.050
 9857POPC   C4B69082  32.248  18.537   7.350
 9858POPC   NC369083  34.526   4.363   5.550
 9858POPC   PO469084  34.625   4.348   5.850
 9858POPC   GL169085  34.534   4.332   6.150
 9858POPC   GL269086  34.483   4.445   6.150
 9858POPC   C1A69087  34.593   4.294   6.450
 9858POPC   D2A69088  34.584   4.352   6.750
 9858POPC   C3A69089  34.582   4.315   7.050
 9858POPC   C4A69090  34.623   4.315   7.350
 9858POPC   C1B69091  34.440   4.542   6.450
 9858POPC   C2B69092  34.451   4.533   6.750
 9858POPC   C3B69093  34.405   4.514   7.050
 9858POPC   C4B69094  34.397   4.494   7.350
 9859POPC   NC369095  44.655  26.825   5.550
 9859POPC   PO469096  44.693  26.863   5.850
 9859POPC   GL169097  44.675  26.799   6.150
 9859POPC   GL269098  44.689  26.902   6.150
 9859POPC   C1A69099  44.655  26.776   6.450
 9859POPC   D2A69100  44.644  26.818   6.750
 9859POPC   C3A69101  44.668  26.790   7.050
 9859POPC   C4A69102  44.623  26.866   7.350
 9859POPC   C1B69103  44.707  27.101   6.450
 9859POPC   C2B69104  44.754  27.065   6.750
 9859POPC   C3B69105  44.739  27.101   7.050
 9859POPC   C4B69106  44.717  27.084   7.350
 9860POPC   NC369107   1.201  12.850   5.550
 9860POPC   PO469108   1.219  12.820   5.850
 9860POPC   GL169109   1.196  12.886   6.150
 9860POPC   GL269110   1.052  12.870   6.150
 9860POPC   C1A69111   1.241  12.845   6.450
 9860POPC   D2A69112   1.249  12.870   6.750
 9860POPC   C3A69113   1.244  12.834   7.050
 9860POPC   C4A69114   1.184  12.810   7.350
 9860POPC   C1B69115   0.989  12.823   6.450
 9860POPC   C2B69116   0.966  12.846   6.750
 9860POPC   C3B69117   0.924  12.847   7.050
 9860POPC   C4B69118   0.994  12.843   7.350
 9861POPC   NC369119  36.114  42.301   5.550
 9861POPC   PO469120  36.151  42.354   5.850
 9861POPC   GL169121  36.168  42.334   6.150
 9861POPC   GL269122  36.064  42.446   6.150
 9861POPC   C1A69123  36.143  42.320   6.450
 9861POPC   D2A69124  36.095  42.289   6.750
 9861POPC   C3A69125  36.110  42.285   7.050
 9861POPC   C4A69126  36.120  42.346   7.350
 9861POPC   C1B69127  36.033  42.537   6.450
 9861POPC   C2B69128  35.994  42.545   6.750
 9861POPC   C3B69129  36.041  42.566   7.050
 9861POPC   C4B69130  36.049  42.548   7.350
 9862POPC   NC369131  12.847  40.734   5.550
 9862POPC   PO469132  12.854  40.785   5.850
 9862POPC   GL169133  12.888  40.758   6.150
 9862POPC   GL269134  12.984  40.877   6.150
 9862POPC   C1A69135  12.810  40.826   6.450
 9862POPC   D2A69136  12.827  40.820   6.750
 9862POPC   C3A69137  12.894  40.832   7.050
 9862POPC   C4A69138  12.890  40.773   7.350
 9862POPC   C1B69139  13.063  40.983   6.450
 9862POPC   C2B69140  13.002  40.899   6.750
 9862POPC   C3B69141  13.041  40.919   7.050
 9862POPC   C4B69142  13.023  40.921   7.350
 9863POPC   NC369143  36.150  24.448   5.550
 9863POPC   PO469144  36.103  24.444   5.850
 9863POPC   GL169145  36.098  24.463   6.150
 9863POPC   GL269146  36.174  24.408   6.150
 9863POPC   C1A69147  36.132  24.501   6.450
 9863POPC   D2A69148  36.111  24.458   6.750
 9863POPC   C3A69149  36.094  24.443   7.050
 9863POPC   C4A69150  36.122  24.492   7.350
 9863POPC   C1B69151  36.276  24.324   6.450
 9863POPC   C2B69152  36.275  24.278   6.750
 9863POPC   C3B69153  36.216  24.262   7.050
 9863POPC   C4B69154  36.236  24.257   7.350
 9864POPC   NC369155  21.344  26.795   5.550
 9864POPC   PO469156  21.428  26.823   5.850
 9864POPC   GL169157  21.345  26.776   6.150
 9864POPC   GL269158  21.476  26.950   6.150
 9864POPC   C1A69159  21.434  26.779   6.450
 9864POPC   D2A69160  21.343  26.836   6.750
 9864POPC   C3A69161  21.383  26.824   7.050
 9864POPC   C4A69162  21.390  26.830   7.350
 9864POPC   C1B69163  21.551  27.007   6.450
 9864POPC   C2B69164  21.583  27.034   6.750
 9864POPC   C3B69165  21.583  26.968   7.050
 9864POPC   C4B69166  21.587  26.971   7.350
 9865POPC   NC369167  17.478   1.259   5.550
 9865POPC   PO469168  17.488   1.217   5.850
 9865POPC   GL169169  17.540   1.218   6.150
 9865POPC   GL269170  17.436   1.092   6.150
 9865POPC   C1A69171  17.538   1.181   6.450
 9865POPC   D2A69172  17.516   1.207   6.750
 9865POPC   C3A69173  17.548   1.180   7.050
 9865POPC   C4A69174  17.488   1.170   7.350
 9865POPC   C1B69175  17.269   1.034   6.450
 9865POPC   C2B69176  17.276   1.046   6.750
 9865POPC   C3B69177  17.364   1.052   7.050
 9865POPC   C4B69178  17.358   1.062   7.350
 9866POPC   NC369179  38.475  34.623   5.550
 9866POPC   PO469180  38.482  34.560   5.850
 9866POPC   GL169181  38.450  34.584   6.150
 9866POPC   GL269182  38.390  34.468   6.150
 9866POPC   C1A69183  38.484  34.603   6.450
 9866POPC   D2A69184  38.453  34.553   6.750
 9866POPC   C3A69185  38.478  34.590   7.050
 9866POPC   C4A69186  38.477  34.601   7.350
 9866POPC   C1B69187  38.261  34.456   6.450
 9866POPC   C2B69188  38.291  34.445   6.750
 9866POPC   C3B69189  38.235  34.411   7.050
 9866POPC   C4B69190  38.251  34.448   7.350
 9867POPC   NC369191  29.902  26.792   5.550
 9867POPC   PO469192  29.888  26.779   5.850
 9867POPC   GL169193  29.945  26.815   6.150
 9867POPC   GL269194  29.799  26.928   6.150
 9867POPC   C1A69195  29.955  26.773   6.450
 9867POPC   D2A69196  29.901  26.836   6.750
 9867POPC   C3A69197  29.922  26.841   7.050
 9867POPC   C4A69198  29.902  26.859   7.350
 9867POPC   C1B69199  29.767  27.036   6.450
 9867POPC   C2B69200  29.714  26.942   6.750
 9867POPC   C3B69201  29.726  27.034   7.050
 9867POPC   C4B69202  29.743  26.971   7.350
 9868POPC   NC369203   2.774  16.763   5.550
 9868POPC   PO469204   2.756  16.731   5.850
 9868POPC   GL169205   2.792  16.736   6.150
 9868POPC   GL269206   2.775  16.638   6.150
 9868POPC   C1A69207   2.787  16.724   6.450
 9868POPC   D2A69208   2.769  16.728   6.750
 9868POPC   C3A69209   2.773  16.755   7.050
 9868POPC   C4A69210   2.815  16.707   7.350
 9868POPC   C1B69211   2.773  16.459   6.450
 9868POPC   C2B69212   2.799  16.452   6.750
 9868POPC   C3B69213   2.786  16.524   7.050
 9868POPC   C4B69214   2.802  16.449   7.350
 9869POPC   NC369215   5.102   2.751   5.550
 9869POPC   PO469216   5.049   2.787   5.850
 9869POPC   GL169217   5.079   2.803   6.150
 9869POPC   GL269218   5.171   2.681   6.150
 9869POPC   C1A69219   5.140   2.807   6.450
 9869POPC   D2A69220   5.043   2.769   6.750
 9869POPC   C3A69221   5.075   2.808   7.050
 9869POPC   C4A69222   5.061   2.779   7.350
 9869POPC   C1B69223   5.195   2.542   6.450
 9869POPC   C2B69224   5.141   2.514   6.750
 9869POPC   C3B69225   5.120   2.547   7.050
 9869POPC   C4B69226   5.114   2.512   7.350
 9870POPC   NC369227  24.459  34.566   5.550
 9870POPC   PO469228  24.512  34.610   5.850
 9870POPC   GL169229  24.492  34.593   6.150
 9870POPC   GL269230  24.424  34.641   6.150
 9870POPC   C1A69231  24.449  34.552   6.450
 9870POPC   D2A69232  24.493  34.605   6.750
 9870POPC   C3A69233  24.535  34.566   7.050
 9870POPC   C4A69234  24.539  34.590   7.350
 9870POPC   C1B69235  24.296  34.779   6.450
 9870POPC   C2B69236  24.300  34.782   6.750
 9870POPC   C3B69237  24.325  34.732   7.050
 9870POPC   C4B69238  24.307  34.748   7.350
 9871POPC   NC369239  30.738  19.098   5.550
 9871POPC   PO469240  30.660  19.087   5.850
 9871POPC   GL169241  30.677  19.067   6.150
 9871POPC   GL269242  30.846  19.035   6.150
 9871POPC   C1A69243  30.660  19.081   6.450
 9871POPC   D2A69244  30.740  19.018   6.750
 9871POPC   C3A69245  30.720  19.091   7.050
 9871POPC   C4A69246  30.716  19.039   7.350
 9871POPC   C1B69247  30.945  18.992   6.450
 9871POPC   C2B69248  30.886  18.955   6.750
 9871POPC   C3B69249  30.879  18.979   7.050
 9871POPC   C4B69250  30.879  18.928   7.350
 9872POPC   NC369251  13.600  20.631   5.550
 9872POPC   PO469252  13.628  20.642   5.850
 9872POPC   GL169253  13.593  20.615   6.150
 9872POPC   GL269254  13.537  20.720   6.150
 9872POPC   C1A69255  13.603  20.614   6.450
 9872POPC   D2A69256  13.582  20.597   6.750
 9872POPC   C3A69257  13.619  20.608   7.050
 9872POPC   C4A69258  13.645  20.591   7.350
 9872POPC   C1B69259  13.459  20.785   6.450
 9872POPC   C2B69260  13.483  20.784   6.750
 9872POPC   C3B69261  13.462  20.804   7.050
 9872POPC   C4B69262  13.516  20.859   7.350
 9873POPC   NC369263   9.789   8.201   5.550
 9873POPC   PO469264   9.726   8.206   5.850
 9873POPC   GL169265   9.762   8.234   6.150
 9873POPC   GL269266   9.657   8.299   6.150
 9873POPC   C1A69267   9.760   8.170   6.450
 9873POPC   D2A69268   9.707   8.192   6.750
 9873POPC   C3A69269   9.788   8.194   7.050
 9873POPC   C4A69270   9.748   8.175   7.350
 9873POPC   C1B69271   9.560   8.393   6.450
 9873POPC   C2B69272   9.577   8.433   6.750
 9873POPC   C3B69273   9.643   8.357   7.050
 9873POPC   C4B69274   9.633   8.393   7.350
 9874POPC   NC369275   3.582  33.070   5.550
 9874POPC   PO469276   3.506  33.049   5.850
 9874POPC   GL169277   3.574  33.040   6.150
 9874POPC   GL269278   3.546  33.103   6.150
 9874POPC   C1A69279   3.523  33.033   6.450
 9874POPC   D2A69280   3.564  33.052   6.750
 9874POPC   C3A69281   3.552  32.998   7.050
 9874POPC   C4A69282   3.583  33.063   7.350
 9874POPC   C1B69283   3.585  33.259   6.450
 9874POPC   C2B69284   3.598  33.267   6.750
 9874POPC   C3B69285   3.584  33.216   7.050
 9874POPC   C4B69286   3.672  33.222   7.350
 9875POPC   NC369287  34.622  20.644   5.550
 9875POPC   PO469288  34.597  20.635   5.850
 9875POPC   GL169289  34.619  20.636   6.150
 9875POPC   GL269290  34.463  20.484   6.150
 9875POPC   C1A69291  34.546  20.591   6.450
 9875POPC   D2A69292  34.625  20.601   6.750
 9875POPC   C3A69293  34.539  20.601   7.050
 9875POPC   C4A69294  34.616  20.600   7.350
 9875POPC   C1B69295  34.463  20.438   6.450
 9875POPC   C2B69296  34.443  20.439   6.750
 9875POPC   C3B69297  34.419  20.360   7.050
 9875POPC   C4B69298  34.486  20.398   7.350
 9876POPC   NC369299   7.386  21.368   5.550
 9876POPC   PO469300   7.392  21.386   5.850
 9876POPC   GL169301   7.459  21.421   6.150
 9876POPC   GL269302   7.426  21.481   6.150
 9876POPC   C1A69303   7.406  21.405   6.450
 9876POPC   D2A69304   7.376  21.352   6.750
 9876POPC   C3A69305   7.419  21.389   7.050
 9876POPC   C4A69306   7.454  21.372   7.350
 9876POPC   C1B69307   7.345  21.607   6.450
 9876POPC   C2B69308   7.380  21.664   6.750
 9876POPC   C3B69309   7.328  21.670   7.050
 9876POPC   C4B69310   7.299  21.579   7.350
 9877POPC   NC369311   1.164  19.857   5.550
 9877POPC   PO469312   1.261  19.863   5.850
 9877POPC   GL169313   1.202  19.795   6.150
 9877POPC   GL269314   1.052  19.891   6.150
 9877POPC   C1A69315   1.260  19.866   6.450
 9877POPC   D2A69316   1.205  19.860   6.750
 9877POPC   C3A69317   1.169  19.848   7.050
 9877POPC   C4A69318   1.229  19.808   7.350
 9877POPC   C1B69319   1.015  19.898   6.450
 9877POPC   C2B69320   0.946  19.890   6.750
 9877POPC   C3B69321   0.974  19.921   7.050
 9877POPC   C4B69322   0.972  19.917   7.350
 9878POPC   NC369323  30.716  32.224   5.550
 9878POPC   PO469324  30.706  32.206   5.850
 9878POPC   GL169325  30.726  32.251   6.150
 9878POPC   GL269326  30.713  32.106   6.150
 9878POPC   C1A69327  30.695  32.249   6.450
 9878POPC   D2A69328  30.687  32.203   6.750
 9878POPC   C3A69329  30.672  32.234   7.050
 9878POPC   C4A69330  30.654  32.295   7.350
 9878POPC   C1B69331  30.798  31.983   6.450
 9878POPC   C2B69332  30.797  32.042   6.750
 9878POPC   C3B69333  30.741  32.034   7.050
 9878POPC   C4B69334  30.735  32.023   7.350
 9879POPC   NC369335  38.420  29.143   5.550
 9879POPC   PO469336  38.481  29.126   5.850
 9879POPC   GL169337  38.422  29.109   6.150
 9879POPC   GL269338  38.587  29.205   6.150
 9879POPC   C1A69339  38.435  29.194   6.450
 9879POPC   D2A69340  38.458  29.107   6.750
 9879POPC   C3A69341  38.470  29.173   7.050
 9879POPC   C4A69342  38.453  29.143   7.350
 9879POPC   C1B69343  38.690  29.251   6.450
 9879POPC   C2B69344  38.688  29.240   6.750
 9879POPC   C3B69345  38.699  29.282   7.050
 9879POPC   C4B69346  38.724  29.257   7.350
 9880POPC   NC369347  39.214  29.916   5.550
 9880POPC   PO469348  39.269  29.930   5.850
 9880POPC   GL169349  39.195  29.909   6.150
 9880POPC   GL269350  39.125  29.898   6.150
 9880POPC   C1A69351  39.191  29.872   6.450
 9880POPC   D2A69352  39.188  29.953   6.750
 9880POPC   C3A69353  39.211  29.959   7.050
 9880POPC   C4A69354  39.276  29.910   7.350
 9880POPC   C1B69355  38.980  29.853   6.450
 9880POPC   C2B69356  39.033  29.867   6.750
 9880POPC   C3B69357  38.976  29.818   7.050
 9880POPC   C4B69358  38.994  29.846   7.350
 9881POPC   NC369359   2.039  29.161   5.550
 9881POPC   PO469360   2.008  29.145   5.850
 9881POPC   GL169361   2.008  29.190   6.150
 9881POPC   GL269362   1.965  28.991   6.150
 9881POPC   C1A69363   2.011  29.111   6.450
 9881POPC   D2A69364   1.976  29.171   6.750
 9881POPC   C3A69365   2.029  29.194   7.050
 9881POPC   C4A69366   1.979  29.107   7.350
 9881POPC   C1B69367   1.927  28.945   6.450
 9881POPC   C2B69368   1.966  28.874   6.750
 9881POPC   C3B69369   1.940  28.925   7.050
 9881POPC   C4B69370   1.939  28.917   7.350
 9882POPC   NC369371  29.951  11.346   5.550
 9882POPC   PO469372  29.871  11.260   5.850
 9882POPC   GL169373  29.942  11.305   6.150
 9882POPC   GL269374  30.010  11.378   6.150
 9882POPC   C1A69375  29.949  11.280   6.450
 9882POPC   D2A69376  29.878  11.272   6.750
 9882POPC   C3A69377  29.909  11.341   7.050
 9882POPC   C4A69378  29.964  11.297   7.350
 9882POPC   C1B69379  30.175  11.400   6.450
 9882POPC   C2B69380  30.121  11.443   6.750
 9882POPC   C3B69381  30.186  11.402   7.050
 9882POPC   C4B69382  30.114  11.452   7.350
 9883POPC   NC369383   3.527  16.721   5.550
 9883POPC   PO469384   3.516  16.690   5.850
 9883POPC   GL169385   3.564  16.761   6.150
 9883POPC   GL269386   3.624  16.777   6.150
 9883POPC   C1A69387   3.509  16.727   6.450
 9883POPC   D2A69388   3.530  16.780   6.750
 9883POPC   C3A69389   3.557  16.723   7.050
 9883POPC   C4A69390   3.547  16.757   7.350
 9883POPC   C1B69391   3.783  16.835   6.450
 9883POPC   C2B69392   3.727  16.815   6.750
 9883POPC   C3B69393   3.815  16.856   7.050
 9883POPC   C4B69394   3.789  16.796   7.350
 9884POPC   NC369395   5.899   7.388   5.550
 9884POPC   PO469396   5.852   7.438   5.850
 9884POPC   GL169397   5.835   7.416   6.150
 9884POPC   GL269398   5.727   7.446   6.150
 9884POPC   C1A69399   5.867   7.410   6.450
 9884POPC   D2A69400   5.875   7.467   6.750
 9884POPC   C3A69401   5.918   7.450   7.050
 9884POPC   C4A69402   5.907   7.448   7.350
 9884POPC   C1B69403   5.663   7.458   6.450
 9884POPC   C2B69404   5.597   7.533   6.750
 9884POPC   C3B69405   5.597   7.546   7.050
 9884POPC   C4B69406   5.615   7.494   7.350
 9885POPC   NC369407  33.829  22.123   5.550
 9885POPC   PO469408  33.777  22.136   5.850
 9885POPC   GL169409  33.845  22.167   6.150
 9885POPC   GL269410  33.681  22.199   6.150
 9885POPC   C1A69411  33.817  22.173   6.450
 9885POPC   D2A69412  33.807  22.132   6.750
 9885POPC   C3A69413  33.790  22.116   7.050
 9885POPC   C4A69414  33.785  22.122   7.350
 9885POPC   C1B69415  33.569  22.302   6.450
 9885POPC   C2B69416  33.650  22.361   6.750
 9885POPC   C3B69417  33.563  22.330   7.050
 9885POPC   C4B69418  33.569  22.354   7.350
 9886POPC   NC369419  20.622  17.505   5.550
 9886POPC   PO469420  20.573  17.509   5.850
 9886POPC   GL169421  20.651  17.526   6.150
 9886POPC   GL269422  20.476  17.392   6.150
 9886POPC   C1A69423  20.650  17.486   6.450
 9886POPC   D2A69424  20.592  17.504   6.750
 9886POPC   C3A69425  20.600  17.512   7.050
 9886POPC   C4A69426  20.597  17.551   7.350
 9886POPC   C1B69427  20.389  17.306   6.450
 9886POPC   C2B69428  20.414  17.321   6.750
 9886POPC   C3B69429  20.467  17.371   7.050
 9886POPC   C4B69430  20.408  17.356   7.350
 9887POPC   NC369431  10.527  31.449   5.550
 9887POPC   PO469432  10.558  31.481   5.850
 9887POPC   GL169433  10.494  31.485   6.150
 9887POPC   GL269434  10.695  31.415   6.150
 9887POPC   C1A69435  10.551  31.474   6.450
 9887POPC   D2A69436  10.511  31.457   6.750
 9887POPC   C3A69437  10.509  31.499   7.050
 9887POPC   C4A69438  10.557  31.442   7.350
 9887POPC   C1B69439  10.818  31.411   6.450
 9887POPC   C2B69440  10.741  31.390   6.750
 9887POPC   C3B69441  10.758  31.455   7.050
 9887POPC   C4B69442  10.818  31.435   7.350
 9888POPC   NC369443  36.917  43.155   5.550
 9888POPC   PO469444  36.865  43.074   5.850
 9888POPC   GL169445  36.948  43.122   6.150
 9888POPC   GL269446  36.970  43.062   6.150
 9888POPC   C1A69447  36.859  43.095   6.450
 9888POPC   D2A69448  36.904  43.079   6.750
 9888POPC   C3A69449  36.877  43.102   7.050
 9888POPC   C4A69450  36.949  43.137   7.350
 9888POPC   C1B69451  37.046  42.917   6.450
 9888POPC   C2B69452  37.102  42.906   6.750
 9888POPC   C3B69453  37.061  42.931   7.050
 9888POPC   C4B69454  37.071  42.918   7.350
 9889POPC   NC369455   1.167   8.246   5.550
 9889POPC   PO469456   1.233   8.243   5.850
 9889POPC   GL169457   1.176   8.176   6.150
 9889POPC   GL269458   1.106   8.083   6.150
 9889POPC   C1A69459   1.172   8.206   6.450
 9889POPC   D2A69460   1.188   8.218   6.750
 9889POPC   C3A69461   1.262   8.148   7.050
 9889POPC   C4A69462   1.168   8.178   7.350
 9889POPC   C1B69463   1.074   8.035   6.450
 9889POPC   C2B69464   1.073   8.038   6.750
 9889POPC   C3B69465   1.053   8.018   7.050
 9889POPC   C4B69466   1.104   7.950   7.350
 9890POPC   NC369467  30.742  22.955   5.550
 9890POPC   PO469468  30.677  22.947   5.850
 9890POPC   GL169469  30.676  22.934   6.150
 9890POPC   GL269470  30.855  22.921   6.150
 9890POPC   C1A69471  30.668  22.905   6.450
 9890POPC   D2A69472  30.652  22.980   6.750
 9890POPC   C3A69473  30.746  22.981   7.050
 9890POPC   C4A69474  30.668  22.932   7.350
 9890POPC   C1B69475  30.922  22.837   6.450
 9890POPC   C2B69476  30.892  22.878   6.750
 9890POPC   C3B69477  30.966  22.821   7.050
 9890POPC   C4B69478  30.948  22.847   7.350
 9891POPC   NC369479  12.039  36.926   5.550
 9891POPC   PO469480  12.071  36.951   5.850
 9891POPC   GL169481  12.110  36.917   6.150
 9891POPC   GL269482  12.016  37.046   6.150
 9891POPC   C1A69483  12.079  36.896   6.450
 9891POPC   D2A69484  12.071  36.914   6.750
 9891POPC   C3A69485  12.106  36.873   7.050
 9891POPC   C4A69486  12.031  36.935   7.350
 9891POPC   C1B69487  12.018  37.094   6.450
 9891POPC   C2B69488  11.971  37.151   6.750
 9891POPC   C3B69489  12.025  37.142   7.050
 9891POPC   C4B69490  11.990  37.165   7.350
 9892POPC   NC369491  20.656  20.640   5.550
 9892POPC   PO469492  20.578  20.623   5.850
 9892POPC   GL169493  20.579  20.653   6.150
 9892POPC   GL269494  20.475  20.719   6.150
 9892POPC   C1A69495  20.630  20.573   6.450
 9892POPC   D2A69496  20.629  20.590   6.750
 9892POPC   C3A69497  20.597  20.579   7.050
 9892POPC   C4A69498  20.566  20.648   7.350
 9892POPC   C1B69499  20.437  20.756   6.450
 9892POPC   C2B69500  20.425  20.833   6.750
 9892POPC   C3B69501  20.407  20.796   7.050
 9892POPC   C4B69502  20.432  20.804   7.350
 9893POPC   NC369503  40.000  22.920   5.550
 9893POPC   PO469504  40.000  22.985   5.850
 9893POPC   GL169505  40.038  22.979   6.150
 9893POPC   GL269506  40.120  22.850   6.150
 9893POPC   C1A69507  40.005  22.893   6.450
 9893POPC   D2A69508  40.050  22.977   6.750
 9893POPC   C3A69509  40.043  22.953   7.050
 9893POPC   C4A69510  39.982  22.975   7.350
 9893POPC   C1B69511  40.221  22.852   6.450
 9893POPC   C2B69512  40.191  22.806   6.750
 9893POPC   C3B69513  40.208  22.799   7.050
 9893POPC   C4B69514  40.263  22.798   7.350
 9894POPC   NC369515  36.858  18.271   5.550
 9894POPC   PO469516  36.866  18.315   5.850
 9894POPC   GL169517  36.929  18.244   6.150
 9894POPC   GL269518  36.890  18.386   6.150
 9894POPC   C1A69519  36.895  18.320   6.450
 9894POPC   D2A69520  36.945  18.252   6.750
 9894POPC   C3A69521  36.935  18.316   7.050
 9894POPC   C4A69522  36.949  18.295   7.350
 9894POPC   C1B69523  36.939  18.565   6.450
 9894POPC   C2B69524  36.888  18.521   6.750
 9894POPC   C3B69525  36.872  18.542   7.050
 9894POPC   C4B69526  36.930  18.514   7.350
 9895POPC   NC369527  39.980   5.141   5.550
 9895POPC   PO469528  40.018   5.108   5.850
 9895POPC   GL169529  39.972   5.063   6.150
 9895POPC   GL269530  40.079   5.052   6.150
 9895POPC   C1A69531  39.987   5.050   6.450
 9895POPC   D2A69532  40.024   5.122   6.750
 9895POPC   C3A69533  40.020   5.130   7.050
 9895POPC   C4A69534  40.023   5.100   7.350
 9895POPC   C1B69535  40.174   4.963   6.450
 9895POPC   C2B69536  40.153   4.982   6.750
 9895POPC   C3B69537  40.153   4.972   7.050
 9895POPC   C4B69538  40.176   4.942   7.350
 9896POPC   NC369539  38.474  22.199   5.550
 9896POPC   PO469540  38.446  22.154   5.850
 9896POPC   GL169541  38.467  22.127   6.150
 9896POPC   GL269542  38.372  22.091   6.150
 9896POPC   C1A69543  38.445  22.115   6.450
 9896POPC   D2A69544  38.420  22.179   6.750
 9896POPC   C3A69545  38.500  22.173   7.050
 9896POPC   C4A69546  38.409  22.168   7.350
 9896POPC   C1B69547  38.210  22.011   6.450
 9896POPC   C2B69548  38.288  22.032   6.750
 9896POPC   C3B69549  38.298  22.039   7.050
 9896POPC   C4B69550  38.254  21.970   7.350
 9897POPC   NC369551   8.936  22.889   5.550
 9897POPC   PO469552   9.019  22.895   5.850
 9897POPC   GL169553   8.944  22.983   6.150
 9897POPC   GL269554   9.055  22.856   6.150
 9897POPC   C1A69555   8.950  22.948   6.450
 9897POPC   D2A69556   8.941  22.942   6.750
 9897POPC   C3A69557   9.000  22.914   7.050
 9897POPC   C4A69558   8.948  22.939   7.350
 9897POPC   C1B69559   9.090  22.685   6.450
 9897POPC   C2B69560   9.107  22.684   6.750
 9897POPC   C3B69561   9.130  22.760   7.050
 9897POPC   C4B69562   9.114  22.727   7.350
 9898POPC   NC369563  43.125  16.731   5.550
 9898POPC   PO469564  43.153  16.724   5.850
 9898POPC   GL169565  43.150  16.736   6.150
 9898POPC   GL269566  43.181  16.612   6.150
 9898POPC   C1A69567  43.141  16.714   6.450
 9898POPC   D2A69568  43.064  16.698   6.750
 9898POPC   C3A69569  43.145  16.709   7.050
 9898POPC   C4A69570  43.115  16.771   7.350
 9898POPC   C1B69571  43.329  16.539   6.450
 9898POPC   C2B69572  43.266  16.543   6.750
 9898POPC   C3B69573  43.264  16.606   7.050
 9898POPC   C4B69574  43.273  16.588   7.350
 9899POPC   NC369575  41.559  34.558   5.550
 9899POPC   PO469576  41.563  34.563   5.850
 9899POPC   GL169577  41.560  34.613   6.150
 9899POPC   GL269578  41.578  34.457   6.150
 9899POPC   C1A69579  41.546  34.528   6.450
 9899POPC   D2A69580  41.534  34.581   6.750
 9899POPC   C3A69581  41.512  34.533   7.050
 9899POPC   C4A69582  41.544  34.554   7.350
 9899POPC   C1B69583  41.468  34.302   6.450
 9899POPC   C2B69584  41.492  34.317   6.750
 9899POPC   C3B69585  41.518  34.376   7.050
 9899POPC   C4B69586  41.553  34.345   7.350
 9900POPC   NC369587   2.751  33.825   5.550
 9900POPC   PO469588   2.756  33.765   5.850
 9900POPC   GL169589   2.788  33.790   6.150
 9900POPC   GL269590   2.688  33.730   6.150
 9900POPC   C1A69591   2.797  33.817   6.450
 9900POPC   D2A69592   2.718  33.788   6.750
 9900POPC   C3A69593   2.796  33.816   7.050
 9900POPC   C4A69594   2.752  33.768   7.350
 9900POPC   C1B69595   2.494  33.763   6.450
 9900POPC   C2B69596   2.542  33.739   6.750
 9900POPC   C3B69597   2.504  33.700   7.050
 9900POPC   C4B69598   2.514  33.710   7.350
 9901POPC   NC369599  39.191  37.722   5.550
 9901POPC   PO469600  39.233  37.723   5.850
 9901POPC   GL169601  39.215  37.684   6.150
 9901POPC   GL269602  39.199  37.587   6.150
 9901POPC   C1A69603  39.238  37.630   6.450
 9901POPC   D2A69604  39.224  37.683   6.750
 9901POPC   C3A69605  39.197  37.686   7.050
 9901POPC   C4A69606  39.254  37.705   7.350
 9901POPC   C1B69607  39.080  37.509   6.450
 9901POPC   C2B69608  39.087  37.508   6.750
 9901POPC   C3B69609  39.109  37.471   7.050
 9901POPC   C4B69610  39.105  37.526   7.350
 9902POPC   NC369611  33.022   9.776   5.550
 9902POPC   PO469612  33.041   9.744   5.850
 9902POPC   GL169613  33.031   9.736   6.150
 9902POPC   GL269614  33.008   9.825   6.150
 9902POPC   C1A69615  32.978   9.777   6.450
 9902POPC   D2A69616  33.012   9.795   6.750
 9902POPC   C3A69617  33.023   9.752   7.050
 9902POPC   C4A69618  32.978   9.752   7.350
 9902POPC   C1B69619  32.953  10.004   6.450
 9902POPC   C2B69620  32.951   9.995   6.750
 9902POPC   C3B69621  33.024  10.001   7.050
 9902POPC   C4B69622  33.017  10.014   7.350
 9903POPC   NC369623  26.782   9.021   5.550
 9903POPC   PO469624  26.857   8.940   5.850
 9903POPC   GL169625  26.782   8.990   6.150
 9903POPC   GL269626  26.942   8.970   6.150
 9903POPC   C1A69627  26.854   9.016   6.450
 9903POPC   D2A69628  26.834   8.963   6.750
 9903POPC   C3A69629  26.799   8.943   7.050
 9903POPC   C4A69630  26.816   8.979   7.350
 9903POPC   C1B69631  27.087   8.896   6.450
 9903POPC   C2B69632  27.013   8.921   6.750
 9903POPC   C3B69633  27.048   8.914   7.050
 9903POPC   C4B69634  27.039   8.873   7.350
 9904POPC   NC369635  11.317  26.791   5.550
 9904POPC   PO469636  11.275  26.794   5.850
 9904POPC   GL169637  11.331  26.837   6.150
 9904POPC   GL269638  11.347  26.917   6.150
 9904POPC   C1A69639  11.294  26.814   6.450
 9904POPC   D2A69640  11.301  26.863   6.750
 9904POPC   C3A69641  11.338  26.844   7.050
 9904POPC   C4A69642  11.255  26.822   7.350
 9904POPC   C1B69643  11.455  27.001   6.450
 9904POPC   C2B69644  11.436  27.001   6.750
 9904POPC   C3B69645  11.426  27.052   7.050
 9904POPC   C4B69646  11.482  26.997   7.350
 9905POPC   NC369647  34.580  31.496   5.550
 9905POPC   PO469648  34.577  31.521   5.850
 9905POPC   GL169649  34.574  31.455   6.150
 9905POPC   GL269650  34.615  31.336   6.150
 9905POPC   C1A69651  34.624  31.438   6.450
 9905POPC   D2A69652  34.580  31.507   6.750
 9905POPC   C3A69653  34.528  31.490   7.050
 9905POPC   C4A69654  34.596  31.509   7.350
 9905POPC   C1B69655  34.666  31.260   6.450
 9905POPC   C2B69656  34.692  31.272   6.750
 9905POPC   C3B69657  34.708  31.198   7.050
 9905POPC   C4B69658  34.665  31.278   7.350
 9906POPC   NC369659  19.834   5.858   5.550
 9906POPC   PO469660  19.878   5.859   5.850
 9906POPC   GL169661  19.813   5.830   6.150
 9906POPC   GL269662  19.821   6.026   6.150
 9906POPC   C1A69663  19.807   5.883   6.450
 9906POPC   D2A69664  19.875   5.897   6.750
 9906POPC   C3A69665  19.813   5.884   7.050
 9906POPC   C4A69666  19.808   5.868   7.350
 9906POPC   C1B69667  19.791   6.122   6.450
 9906POPC   C2B69668  19.759   6.090   6.750
 9906POPC   C3B69669  19.763   6.097   7.050
 9906POPC   C4B69670  19.777   6.057   7.350
 9907POPC   NC369671  21.372  41.571   5.550
 9907POPC   PO469672  21.366  41.584   5.850
 9907POPC   GL169673  21.413  41.509   6.150
 9907POPC   GL269674  21.241  41.532   6.150
 9907POPC   C1A69675  21.414  41.590   6.450
 9907POPC   D2A69676  21.430  41.606   6.750
 9907POPC   C3A69677  21.421  41.602   7.050
 9907POPC   C4A69678  21.394  41.586   7.350
 9907POPC   C1B69679  21.127  41.503   6.450
 9907POPC   C2B69680  21.124  41.537   6.750
 9907POPC   C3B69681  21.186  41.478   7.050
 9907POPC   C4B69682  21.111  41.463   7.350
 9908POPC   NC369683  12.075   1.189   5.550
 9908POPC   PO469684  12.092   1.218   5.850
 9908POPC   GL169685  12.117   1.234   6.150
 9908POPC   GL269686  12.200   1.203   6.150
 9908POPC   C1A69687  12.056   1.179   6.450
 9908POPC   D2A69688  12.118   1.225   6.750
 9908POPC   C3A69689  12.061   1.251   7.050
 9908POPC   C4A69690  12.088   1.218   7.350
 9908POPC   C1B69691  12.313   1.249   6.450
 9908POPC   C2B69692  12.346   1.269   6.750
 9908POPC   C3B69693  12.374   1.273   7.050
 9908POPC   C4B69694  12.277   1.224   7.350
 9909POPC   NC369695  44.648  11.314   5.550
 9909POPC   PO469696  44.639  11.251   5.850
 9909POPC   GL169697  44.704  11.315   6.150
 9909POPC   GL269698  44.623  11.157   6.150
 9909POPC   C1A69699  44.667  11.291   6.450
 9909POPC   D2A69700  44.695  11.279   6.750
 9909POPC   C3A69701  44.698  11.252   7.050
 9909POPC   C4A69702  44.695  11.305   7.350
 9909POPC   C1B69703  44.692  11.011   6.450
 9909POPC   C2B69704  44.722  11.065   6.750
 9909POPC   C3B69705  44.696  11.063   7.050
 9909POPC   C4B69706  44.697  11.030   7.350
 9910POPC   NC369707  29.126  34.526   5.550
 9910POPC   PO469708  29.163  34.615   5.850
 9910POPC   GL169709  29.127  34.610   6.150
 9910POPC   GL269710  29.165  34.502   6.150
 9910POPC   C1A69711  29.120  34.616   6.450
 9910POPC   D2A69712  29.124  34.556   6.750
 9910POPC   C3A69713  29.168  34.536   7.050
 9910POPC   C4A69714  29.194  34.567   7.350
 9910POPC   C1B69715  29.219  34.348   6.450
 9910POPC   C2B69716  29.256  34.290   6.750
 9910POPC   C3B69717  29.177  34.378   7.050
 9910POPC   C4B69718  29.212  34.351   7.350
 9911POPC   NC369719  31.503  41.563   5.550
 9911POPC   PO469720  31.454  41.516   5.850
 9911POPC   GL169721  31.467  41.515   6.150
 9911POPC   GL269722  31.519  41.681   6.150
 9911POPC   C1A69723  31.460  41.606   6.450
 9911POPC   D2A69724  31.468  41.601   6.750
 9911POPC   C3A69725  31.517  41.533   7.050
 9911POPC   C4A69726  31.427  41.591   7.350
 9911POPC   C1B69727  31.463  41.832   6.450
 9911POPC   C2B69728  31.462  41.839   6.750
 9911POPC   C3B69729  31.450  41.805   7.050
 9911POPC   C4B69730  31.448  41.809   7.350
 9912POPC   NC369731  12.114  31.473   5.550
 9912POPC   PO469732  12.067  31.436   5.850
 9912POPC   GL169733  12.100  31.515   6.150
 9912POPC   GL269734  11.957  31.488   6.150
 9912POPC   C1A69735  12.071  31.437   6.450
 9912POPC   D2A69736  12.098  31.453   6.750
 9912POPC   C3A69737  12.101  31.474   7.050
 9912POPC   C4A69738  12.092  31.434   7.350
 9912POPC   C1B69739  11.871  31.546   6.450
 9912POPC   C2B69740  11.876  31.539   6.750
 9912POPC   C3B69741  11.880  31.567   7.050
 9912POPC   C4B69742  11.822  31.503   7.350
 9913POPC   NC369743   5.851  32.265   5.550
 9913POPC   PO469744   5.837  32.266   5.850
 9913POPC   GL169745   5.891  32.289   6.150
 9913POPC   GL269746   5.780  32.294   6.150
 9913POPC   C1A69747   5.825  32.234   6.450
 9913POPC   D2A69748   5.880  32.289   6.750
 9913POPC   C3A69749   5.846  32.223   7.050
 9913POPC   C4A69750   5.885  32.217   7.350
 9913POPC   C1B69751   5.687  32.420   6.450
 9913POPC   C2B69752   5.722  32.412   6.750
 9913POPC   C3B69753   5.723  32.471   7.050
 9913POPC   C4B69754   5.656  32.470   7.350
 9914POPC   NC369755  30.719  40.774   5.550
 9914POPC   PO469756  30.674  40.801   5.850
 9914POPC   GL169757  30.745  40.798   6.150
 9914POPC   GL269758  30.781  40.693   6.150
 9914POPC   C1A69759  30.731  40.785   6.450
 9914POPC   D2A69760  30.661  40.767   6.750
 9914POPC   C3A69761  30.745  40.816   7.050
 9914POPC   C4A69762  30.731  40.750   7.350
 9914POPC   C1B69763  30.877  40.623   6.450
 9914POPC   C2B69764  30.878  40.630   6.750
 9914POPC   C3B69765  30.873  40.663   7.050
 9914POPC   C4B69766  30.919  40.626   7.350
 9915POPC   NC369767  36.078  36.861   5.550
 9915POPC   PO469768  36.118  36.947   5.850
 9915POPC   GL169769  36.091  36.906   6.150
 9915POPC   GL269770  36.078  37.030   6.150
 9915POPC   C1A69771  36.153  36.862   6.450
 9915POPC   D2A69772  36.081  36.891   6.750
 9915POPC   C3A69773  36.131  36.909   7.050
 9915POPC   C4A69774  36.166  36.930   7.350
 9915POPC   C1B69775  36.076  37.159   6.450
 9915POPC   C2B69776  36.078  37.151   6.750
 9915POPC   C3B69777  36.098  37.128   7.050
 9915POPC   C4B69778  36.143  37.114   7.350
 9916POPC   NC369779  18.254  22.197   5.550
 9916POPC   PO469780  18.290  22.134   5.850
 9916POPC   GL169781  18.303  22.117   6.150
 9916POPC   GL269782  18.271  22.240   6.150
 9916POPC   C1A69783  18.272  22.197   6.450
 9916POPC   D2A69784  18.239  22.175   6.750
 9916POPC   C3A69785  18.266  22.125   7.050
 9916POPC   C4A69786  18.306  22.204   7.350
 9916POPC   C1B69787  18.279  22.369   6.450
 9916POPC   C2B69788  18.288  22.440   6.750
 9916POPC   C3B69789  18.217  22.439   7.050
 9916POPC   C4B69790  18.278  22.375   7.350
 9917POPC   NC369791  19.867  16.684   5.550
 9917POPC   PO469792  19.859  16.705   5.850
 9917POPC   GL169793  19.872  16.682   6.150
 9917POPC   GL269794  19.669  16.746   6.150
 9917POPC   C1A69795  19.879  16.698   6.450
 9917POPC   D2A69796  19.844  16.777   6.750
 9917POPC   C3A69797  19.791  16.694   7.050
 9917POPC   C4A69798  19.871  16.682   7.350
 9917POPC   C1B69799  19.564  16.762   6.450
 9917POPC   C2B69800  19.557  16.754   6.750
 9917POPC   C3B69801  19.602  16.673   7.050
 9917POPC   C4B69802  19.570  16.682   7.350
 9918POPC   NC369803  12.078   4.322   5.550
 9918POPC   PO469804  12.118   4.327   5.850
 9918POPC   GL169805  12.073   4.366   6.150
 9918POPC   GL269806  12.171   4.302   6.150
 9918POPC   C1A69807  12.085   4.347   6.450
 9918POPC   D2A69808  12.065   4.315   6.750
 9918POPC   C3A69809  12.040   4.332   7.050
 9918POPC   C4A69810  12.042   4.317   7.350
 9918POPC   C1B69811  12.278   4.350   6.450
 9918POPC   C2B69812  12.365   4.341   6.750
 9918POPC   C3B69813  12.359   4.308   7.050
 9918POPC   C4B69814  12.344   4.381   7.350
 9919POPC   NC369815  34.550  42.374   5.550
 9919POPC   PO469816  34.572  42.351   5.850
 9919POPC   GL169817  34.584  42.354   6.150
 9919POPC   GL269818  34.708  42.398   6.150
 9919POPC   C1A69819  34.565  42.286   6.450
 9919POPC   D2A69820  34.526  42.329   6.750
 9919POPC   C3A69821  34.578  42.314   7.050
 9919POPC   C4A69822  34.589  42.369   7.350
 9919POPC   C1B69823  34.853  42.335   6.450
 9919POPC   C2B69824  34.815  42.334   6.750
 9919POPC   C3B69825  34.861  42.348   7.050
 9919POPC   C4B69826  34.784  42.339   7.350
 9920POPC   NC369827  19.034  37.638   5.550
 9920POPC   PO469828  19.024  37.696   5.850
 9920POPC   GL169829  19.040  37.672   6.150
 9920POPC   GL269830  18.962  37.585   6.150
 9920POPC   C1A69831  19.105  37.698   6.450
 9920POPC   D2A69832  19.034  37.699   6.750
 9920POPC   C3A69833  19.073  37.695   7.050
 9920POPC   C4A69834  19.056  37.676   7.350
 9920POPC   C1B69835  18.916  37.476   6.450
 9920POPC   C2B69836  18.829  37.495   6.750
 9920POPC   C3B69837  18.887  37.541   7.050
 9920POPC   C4B69838  18.822  37.559   7.350
 9921POPC   NC369839   1.175  26.002   5.550
 9921POPC   PO469840   1.224  26.012   5.850
 9921POPC   GL169841   1.251  26.063   6.150
 9921POPC   GL269842   1.129  26.163   6.150
 9921POPC   C1A69843   1.244  26.069   6.450
 9921POPC   D2A69844   1.261  26.034   6.750
 9921POPC   C3A69845   1.206  26.075   7.050
 9921POPC   C4A69846   1.244  26.044   7.350
 9921POPC   C1B69847   1.055  26.200   6.450
 9921POPC   C2B69848   0.981  26.159   6.750
 9921POPC   C3B69849   0.970  26.162   7.050
 9921POPC   C4B69850   1.014  26.235   7.350
 9922POPC   NC369851  39.996  43.921   5.550
 9922POPC   PO469852  39.984  43.876   5.850
 9922POPC   GL169853  40.012  43.863   6.150
 9922POPC   GL269854  39.909  43.929   6.150
 9922POPC   C1A69855  39.964  43.879   6.450
 9922POPC   D2A69856  39.977  43.907   6.750
 9922POPC   C3A69857  39.963  43.841   7.050
 9922POPC   C4A69858  39.974  43.864   7.350
 9922POPC   C1B69859  39.792  43.969   6.450
 9922POPC   C2B69860  39.733  43.907   6.750
 9922POPC   C3B69861  39.743  43.921   7.050
 9922POPC   C4B69862  39.789  43.889   7.350
 9923POPC   NC369863  27.631   1.998   5.550
 9923POPC   PO469864  27.623   2.035   5.850
 9923POPC   GL169865  27.641   2.010   6.150
 9923POPC   GL269866  27.682   2.026   6.150
 9923POPC   C1A69867  27.593   2.004   6.450
 9923POPC   D2A69868  27.626   2.007   6.750
 9923POPC   C3A69869  27.544   2.038   7.050
 9923POPC   C4A69870  27.544   1.968   7.350
 9923POPC   C1B69871  27.848   1.985   6.450
 9923POPC   C2B69872  27.797   1.983   6.750
 9923POPC   C3B69873  27.853   2.050   7.050
 9923POPC   C4B69874  27.809   2.010   7.350
 9924POPC   NC369875  10.571  27.571   5.550
 9924POPC   PO469876  10.502  27.628   5.850
 9924POPC   GL169877  10.490  27.589   6.150
 9924POPC   GL269878  10.541  27.725   6.150
 9924POPC   C1A69879  10.480  27.637   6.450
 9924POPC   D2A69880  10.533  27.623   6.750
 9924POPC   C3A69881  10.518  27.605   7.050
 9924POPC   C4A69882  10.487  27.628   7.350
 9924POPC   C1B69883  10.548  27.858   6.450
 9924POPC   C2B69884  10.575  27.796   6.750
 9924POPC   C3B69885  10.556  27.864   7.050
 9924POPC   C4B69886  10.529  27.848   7.350
 9925POPC   NC369887  22.115  25.992   5.550
 9925POPC   PO469888  22.129  26.045   5.850
 9925POPC   GL169889  22.205  26.075   6.150
 9925POPC   GL269890  22.305  25.973   6.150
 9925POPC   C1A69891  22.186  26.016   6.450
 9925POPC   D2A69892  22.172  26.023   6.750
 9925POPC   C3A69893  22.192  26.017   7.050
 9925POPC   C4A69894  22.175  26.064   7.350
 9925POPC   C1B69895  22.442  25.932   6.450
 9925POPC   C2B69896  22.372  25.971   6.750
 9925POPC   C3B69897  22.351  25.965   7.050
 9925POPC   C4B69898  22.434  25.941   7.350
 9926POPC   NC369899   3.495  18.276   5.550
 9926POPC   PO469900   3.542  18.249   5.850
 9926POPC   GL169901   3.526  18.250   6.150
 9926POPC   GL269902   3.441  18.247   6.150
 9926POPC   C1A69903   3.540  18.302   6.450
 9926POPC   D2A69904   3.582  18.279   6.750
 9926POPC   C3A69905   3.568  18.284   7.050
 9926POPC   C4A69906   3.514  18.246   7.350
 9926POPC   C1B69907   3.329  18.221   6.450
 9926POPC   C2B69908   3.265  18.187   6.750
 9926POPC   C3B69909   3.276  18.170   7.050
 9926POPC   C4B69910   3.346  18.240   7.350
 9927POPC   NC369911  35.376  39.246   5.550
 9927POPC   PO469912  35.303  39.193   5.850
 9927POPC   GL169913  35.365  39.273   6.150
 9927POPC   GL269914  35.241  39.254   6.150
 9927POPC   C1A69915  35.308  39.271   6.450
 9927POPC   D2A69916  35.395  39.241   6.750
 9927POPC   C3A69917  35.302  39.227   7.050
 9927POPC   C4A69918  35.345  39.181   7.350
 9927POPC   C1B69919  35.131  39.175   6.450
 9927POPC   C2B69920  35.088  39.247   6.750
 9927POPC   C3B69921  35.054  39.230   7.050
 9927POPC   C4B69922  35.080  39.209   7.350
 9928POPC   NC369923   4.355  33.752   5.550
 9928POPC   PO469924   4.286  33.821   5.850
 9928POPC   GL169925   4.345  33.812   6.150
 9928POPC   GL269926   4.195  33.817   6.150
 9928POPC   C1A69927   4.300  33.844   6.450
 9928POPC   D2A69928   4.337  33.792   6.750
 9928POPC   C3A69929   4.293  33.848   7.050
 9928POPC   C4A69930   4.300  33.780   7.350
 9928POPC   C1B69931   4.056  33.909   6.450
 9928POPC   C2B69932   4.094  33.861   6.750
 9928POPC   C3B69933   4.064  33.911   7.050
 9928POPC   C4B69934   4.058  33.855   7.350
 9929POPC   NC369935  24.444  42.321   5.550
 9929POPC   PO469936  24.496  42.299   5.850
 9929POPC   GL169937  24.457  42.342   6.150
 9929POPC   GL269938  24.576  42.465   6.150
 9929POPC   C1A69939  24.488  42.327   6.450
 9929POPC   D2A69940  24.471  42.369   6.750
 9929POPC   C3A69941  24.445  42.302   7.050
 9929POPC   C4A69942  24.443  42.363   7.350
 9929POPC   C1B69943  24.610  42.587   6.450
 9929POPC   C2B69944  24.658  42.550   6.750
 9929POPC   C3B69945  24.660  42.533   7.050
 9929POPC   C4B69946  24.613  42.573   7.350
 9930POPC   NC369947  43.883   5.069   5.550
 9930POPC   PO469948  43.853   5.103   5.850
 9930POPC   GL169949  43.913   5.104   6.150
 9930POPC   GL269950  43.853   4.971   6.150
 9930POPC   C1A69951  43.857   5.114   6.450
 9930POPC   D2A69952  43.840   5.057   6.750
 9930POPC   C3A69953  43.898   5.122   7.050
 9930POPC   C4A69954  43.915   5.130   7.350
 9930POPC   C1B69955  43.884   4.867   6.450
 9930POPC   C2B69956  43.844   4.882   6.750
 9930POPC   C3B69957  43.829   4.820   7.050
 9930POPC   C4B69958  43.907   4.892   7.350
 9931POPC   NC369959   6.648  31.451   5.550
 9931POPC   PO469960   6.650  31.491   5.850
 9931POPC   GL169961   6.657  31.505   6.150
 9931POPC   GL269962   6.497  31.532   6.150
 9931POPC   C1A69963   6.679  31.520   6.450
 9931POPC   D2A69964   6.649  31.455   6.750
 9931POPC   C3A69965   6.629  31.513   7.050
 9931POPC   C4A69966   6.620  31.432   7.350
 9931POPC   C1B69967   6.380  31.500   6.450
 9931POPC   C2B69968   6.440  31.496   6.750
 9931POPC   C3B69969   6.426  31.537   7.050
 9931POPC   C4B69970   6.360  31.531   7.350
 9932POPC   NC369971  43.068   2.781   5.550
 9932POPC   PO469972  43.122   2.787   5.850
 9932POPC   GL169973  43.103   2.747   6.150
 9932POPC   GL269974  43.053   2.668   6.150
 9932POPC   C1A69975  43.137   2.801   6.450
 9932POPC   D2A69976  43.146   2.753   6.750
 9932POPC   C3A69977  43.069   2.736   7.050
 9932POPC   C4A69978  43.153   2.805   7.350
 9932POPC   C1B69979  42.924   2.588   6.450
 9932POPC   C2B69980  42.932   2.637   6.750
 9932POPC   C3B69981  42.896   2.585   7.050
 9932POPC   C4B69982  42.923   2.579   7.350
 9933POPC   NC369983  12.032  17.535   5.550
 9933POPC   PO469984  12.060  17.473   5.850
 9933POPC   GL169985  12.069  17.513   6.150
 9933POPC   GL269986  12.167  17.435   6.150
 9933POPC   C1A69987  12.093  17.504   6.450
 9933POPC   D2A69988  12.028  17.473   6.750
 9933POPC   C3A69989  12.105  17.490   7.050
 9933POPC   C4A69990  12.106  17.494   7.350
 9933POPC   C1B69991  12.212  17.290   6.450
 9933POPC   C2B69992  12.248  17.300   6.750
 9933POPC   C3B69993  12.298  17.368   7.050
 9933POPC   C4B69994  12.257  17.307   7.350
 9934POPC   NC369995  15.918   8.166   5.550
 9934POPC   PO469996  15.924   8.171   5.850
 9934POPC   GL169997  15.965   8.183   6.150
 9934POPC   GL269998  15.937   8.075   6.150
 9934POPC   C1A69999  15.953   8.244   6.450
 9934POPC   D2A70000  15.940   8.177   6.750
 9934POPC   C3A70001  15.999   8.194   7.050
 9934POPC   C4A70002  15.988   8.240   7.350
 9934POPC   C1B70003  16.011   7.953   6.450
 9934POPC   C2B70004  16.035   7.972   6.750
 9934POPC   C3B70005  15.969   7.905   7.050
 9934POPC   C4B70006  16.020   7.985   7.350
 9935POPC   NC370007   9.774  28.418   5.550
 9935POPC   PO470008   9.779  28.397   5.850
 9935POPC   GL170009   9.791  28.393   6.150
 9935POPC   GL270010   9.754  28.447   6.150
 9935POPC   C1A70011   9.761  28.415   6.450
 9935POPC   D2A70012   9.791  28.321   6.750
 9935POPC   C3A70013   9.754  28.358   7.050
 9935POPC   C4A70014   9.700  28.382   7.350
 9935POPC   C1B70015   9.734  28.605   6.450
 9935POPC   C2B70016   9.741  28.599   6.750
 9935POPC   C3B70017   9.678  28.667   7.050
 9935POPC   C4B70018   9.743  28.612   7.350
 9936POPC   NC370019  19.090   8.162   5.550
 9936POPC   PO470020  19.099   8.230   5.850
 9936POPC   GL170021  19.034   8.161   6.150
 9936POPC   GL270022  18.899   8.161   6.150
 9936POPC   C1A70023  19.104   8.192   6.450
 9936POPC   D2A70024  19.033   8.171   6.750
 9936POPC   C3A70025  19.012   8.194   7.050
 9936POPC   C4A70026  19.030   8.170   7.350
 9936POPC   C1B70027  18.871   8.134   6.450
 9936POPC   C2B70028  18.842   8.126   6.750
 9936POPC   C3B70029  18.791   8.158   7.050
 9936POPC   C4B70030  18.799   8.075   7.350
 9937POPC   NC370031  22.926  15.996   5.550
 9937POPC   PO470032  22.918  16.001   5.850
 9937POPC   GL170033  22.984  15.960   6.150
 9937POPC   GL270034  23.008  15.905   6.150
 9937POPC   C1A70035  22.900  15.919   6.450
 9937POPC   D2A70036  22.970  15.937   6.750
 9937POPC   C3A70037  22.928  16.001   7.050
 9937POPC   C4A70038  22.985  15.924   7.350
 9937POPC   C1B70039  23.125  15.850   6.450
 9937POPC   C2B70040  23.119  15.898   6.750
 9937POPC   C3B70041  23.168  15.838   7.050
 9937POPC   C4B70042  23.140  15.844   7.350
 9938POPC   NC370043  12.055  12.087   5.550
 9938POPC   PO470044  12.116  12.078   5.850
 9938POPC   GL170045  12.070  12.041   6.150
 9938POPC   GL270046  11.965  12.076   6.150
 9938POPC   C1A70047  12.051  12.086   6.450
 9938POPC   D2A70048  12.107  12.122   6.750
 9938POPC   C3A70049  12.099  12.031   7.050
 9938POPC   C4A70050  12.039  12.094   7.350
 9938POPC   C1B70051  11.795  12.069   6.450
 9938POPC   C2B70052  11.777  12.051   6.750
 9938POPC   C3B70053  11.799  12.121   7.050
 9938POPC   C4B70054  11.863  12.082   7.350
 9939POPC   NC370055  24.483  27.601   5.550
 9939POPC   PO470056  24.445  27.623   5.850
 9939POPC   GL170057  24.520  27.615   6.150
 9939POPC   GL270058  24.558  27.688   6.150
 9939POPC   C1A70059  24.524  27.577   6.450
 9939POPC   D2A70060  24.442  27.560   6.750
 9939POPC   C3A70061  24.463  27.591   7.050
 9939POPC   C4A70062  24.468  27.565   7.350
 9939POPC   C1B70063  24.554  27.879   6.450
 9939POPC   C2B70064  24.540  27.785   6.750
 9939POPC   C3B70065  24.619  27.880   7.050
 9939POPC   C4B70066  24.604  27.819   7.350
 9940POPC   NC370067  22.115  21.357   5.550
 9940POPC   PO470068  22.118  21.365   5.850
 9940POPC   GL170069  22.115  21.347   6.150
 9940POPC   GL270070  22.076  21.483   6.150
 9940POPC   C1A70071  22.158  21.393   6.450
 9940POPC   D2A70072  22.137  21.374   6.750
 9940POPC   C3A70073  22.142  21.427   7.050
 9940POPC   C4A70074  22.116  21.418   7.350
 9940POPC   C1B70075  21.965  21.577   6.450
 9940POPC   C2B70076  21.933  21.570   6.750
 9940POPC   C3B70077  21.934  21.603   7.050
 9940POPC   C4B70078  21.983  21.523   7.350
 9941POPC   NC370079  16.727  31.494   5.550
 9941POPC   PO470080  16.733  31.433   5.850
 9941POPC   GL170081  16.717  31.519   6.150
 9941POPC   GL270082  16.859  31.400   6.150
 9941POPC   C1A70083  16.704  31.466   6.450
 9941POPC   D2A70084  16.698  31.454   6.750
 9941POPC   C3A70085  16.744  31.506   7.050
 9941POPC   C4A70086  16.697  31.470   7.350
 9941POPC   C1B70087  16.932  31.415   6.450
 9941POPC   C2B70088  16.963  31.369   6.750
 9941POPC   C3B70089  16.954  31.344   7.050
 9941POPC   C4B70090  16.993  31.378   7.350
 9942POPC   NC370091   8.170  36.933   5.550
 9942POPC   PO470092   8.186  36.895   5.850
 9942POPC   GL170093   8.180  36.880   6.150
 9942POPC   GL270094   8.218  37.078   6.150
 9942POPC   C1A70095   8.221  36.886   6.450
 9942POPC   D2A70096   8.213  36.926   6.750
 9942POPC   C3A70097   8.208  36.938   7.050
 9942POPC   C4A70098   8.198  36.866   7.350
 9942POPC   C1B70099   8.196  37.155   6.450
 9942POPC   C2B70100   8.173  37.116   6.750
 9942POPC   C3B70101   8.200  37.193   7.050
 9942POPC   C4B70102   8.216  37.168   7.350
 9943POPC   NC370103  17.503  30.692   5.550
 9943POPC   PO470104  17.553  30.736   5.850
 9943POPC   GL170105  17.496  30.679   6.150
 9943POPC   GL270106  17.553  30.807   6.150
 9943POPC   C1A70107  17.514  30.674   6.450
 9943POPC   D2A70108  17.483  30.670   6.750
 9943POPC   C3A70109  17.532  30.689   7.050
 9943POPC   C4A70110  17.544  30.658   7.350
 9943POPC   C1B70111  17.529  30.971   6.450
 9943POPC   C2B70112  17.546  30.992   6.750
 9943POPC   C3B70113  17.518  30.955   7.050
 9943POPC   C4B70114  17.483  30.937   7.350
 9944POPC   NC370115  12.028  29.957   5.550
 9944POPC   PO470116  12.063  29.937   5.850
 9944POPC   GL170117  12.122  29.885   6.150
 9944POPC   GL270118  12.142  29.987   6.150
 9944POPC   C1A70119  12.069  29.904   6.450
 9944POPC   D2A70120  12.063  29.874   6.750
 9944POPC   C3A70121  12.107  29.945   7.050
 9944POPC   C4A70122  12.058  29.893   7.350
 9944POPC   C1B70123  12.233  30.147   6.450
 9944POPC   C2B70124  12.174  30.096   6.750
 9944POPC   C3B70125  12.170  30.126   7.050
 9944POPC   C4B70126  12.241  30.165   7.350
 9945POPC   NC370127  21.408  20.580   5.550
 9945POPC   PO470128  21.361  20.591   5.850
 9945POPC   GL170129  21.421  20.565   6.150
 9945POPC   GL270130  21.448  20.584   6.150
 9945POPC   C1A70131  21.392  20.565   6.450
 9945POPC   D2A70132  21.346  20.622   6.750
 9945POPC   C3A70133  21.342  20.617   7.050
 9945POPC   C4A70134  21.378  20.642   7.350
 9945POPC   C1B70135  21.628  20.437   6.450
 9945POPC   C2B70136  21.603  20.504   6.750
 9945POPC   C3B70137  21.544  20.498   7.050
 9945POPC   C4B70138  21.628  20.450   7.350
 9946POPC   NC370139  31.472  25.271   5.550
 9946POPC   PO470140  31.485  25.287   5.850
 9946POPC   GL170141  31.490  25.225   6.150
 9946POPC   GL270142  31.517  25.144   6.150
 9946POPC   C1A70143  31.466  25.266   6.450
 9946POPC   D2A70144  31.479  25.307   6.750
 9946POPC   C3A70145  31.507  25.307   7.050
 9946POPC   C4A70146  31.459  25.253   7.350
 9946POPC   C1B70147  31.501  24.978   6.450
 9946POPC   C2B70148  31.497  25.027   6.750
 9946POPC   C3B70149  31.571  25.051   7.050
 9946POPC   C4B70150  31.489  25.060   7.350
 9947POPC   NC370151  12.031  28.372   5.550
 9947POPC   PO470152  12.123  28.382   5.850
 9947POPC   GL170153  12.064  28.344   6.150
 9947POPC   GL270154  12.168  28.371   6.150
 9947POPC   C1A70155  12.044  28.371   6.450
 9947POPC   D2A70156  12.119  28.401   6.750
 9947POPC   C3A70157  12.035  28.385   7.050
 9947POPC   C4A70158  12.093  28.340   7.350
 9947POPC   C1B70159  12.371  28.377   6.450
 9947POPC   C2B70160  12.287  28.411   6.750
 9947POPC   C3B70161  12.290  28.373   7.050
 9947POPC   C4B70162  12.353  28.343   7.350
 9948POPC   NC370163   3.495  21.406   5.550
 9948POPC   PO470164   3.589  21.348   5.850
 9948POPC   GL170165   3.510  21.424   6.150
 9948POPC   GL270166   3.649  21.388   6.150
 9948POPC   C1A70167   3.569  21.407   6.450
 9948POPC   D2A70168   3.502  21.353   6.750
 9948POPC   C3A70169   3.513  21.344   7.050
 9948POPC   C4A70170   3.515  21.418   7.350
 9948POPC   C1B70171   3.827  21.305   6.450
 9948POPC   C2B70172   3.781  21.303   6.750
 9948POPC   C3B70173   3.747  21.327   7.050
 9948POPC   C4B70174   3.834  21.334   7.350
 9949POPC   NC370175   2.797  10.549   5.550
 9949POPC   PO470176   2.765  10.529   5.850
 9949POPC   GL170177   2.718  10.475   6.150
 9949POPC   GL270178   2.624  10.473   6.150
 9949POPC   C1A70179   2.762  10.556   6.450
 9949POPC   D2A70180   2.728  10.480   6.750
 9949POPC   C3A70181   2.768  10.490   7.050
 9949POPC   C4A70182   2.724  10.534   7.350
 9949POPC   C1B70183   2.576  10.371   6.450
 9949POPC   C2B70184   2.580  10.420   6.750
 9949POPC   C3B70185   2.516  10.432   7.050
 9949POPC   C4B70186   2.567  10.370   7.350
 9950POPC   NC370187  39.233  26.069   5.550
 9950POPC   PO470188  39.192  26.088   5.850
 9950POPC   GL170189  39.271  26.072   6.150
 9950POPC   GL270190  39.342  26.042   6.150
 9950POPC   C1A70191  39.220  26.023   6.450
 9950POPC   D2A70192  39.243  26.019   6.750
 9950POPC   C3A70193  39.200  25.998   7.050
 9950POPC   C4A70194  39.246  26.034   7.350
 9950POPC   C1B70195  39.445  26.022   6.450
 9950POPC   C2B70196  39.507  25.975   6.750
 9950POPC   C3B70197  39.483  26.013   7.050
 9950POPC   C4B70198  39.499  26.008   7.350
 9951POPC   NC370199  40.026  26.016   5.550
 9951POPC   PO470200  40.038  26.021   5.850
 9951POPC   GL170201  40.034  26.050   6.150
 9951POPC   GL270202  39.985  26.124   6.150
 9951POPC   C1A70203  40.045  26.010   6.450
 9951POPC   D2A70204  39.978  26.068   6.750
 9951POPC   C3A70205  40.053  26.082   7.050
 9951POPC   C4A70206  40.000  25.996   7.350
 9951POPC   C1B70207  39.883  26.278   6.450
 9951POPC   C2B70208  39.898  26.281   6.750
 9951POPC   C3B70209  39.959  26.310   7.050
 9951POPC   C4B70210  39.919  26.263   7.350
 9952POPC   NC370211  12.816  26.022   5.550
 9952POPC   PO470212  12.825  26.052   5.850
 9952POPC   GL170213  12.876  26.059   6.150
 9952POPC   GL270214  12.933  26.089   6.150
 9952POPC   C1A70215  12.895  26.080   6.450
 9952POPC   D2A70216  12.854  26.010   6.750
 9952POPC   C3A70217  12.848  26.078   7.050
 9952POPC   C4A70218  12.827  26.011   7.350
 9952POPC   C1B70219  13.098  26.127   6.450
 9952POPC   C2B70220  13.099  26.181   6.750
 9952POPC   C3B70221  13.050  26.182   7.050
 9952POPC   C4B70222  13.032  26.193   7.350
 9953POPC   NC370223  28.400  36.106   5.550
 9953POPC   PO470224  28.396  36.090   5.850
 9953POPC   GL170225  28.360  36.169   6.150
 9953POPC   GL270226  28.455  36.089   6.150
 9953POPC   C1A70227  28.405  36.104   6.450
 9953POPC   D2A70228  28.405  36.116   6.750
 9953POPC   C3A70229  28.365  36.102   7.050
 9953POPC   C4A70230  28.389  36.128   7.350
 9953POPC   C1B70231  28.605  36.135   6.450
 9953POPC   C2B70232  28.573  36.127   6.750
 9953POPC   C3B70233  28.580  36.146   7.050
 9953POPC   C4B70234  28.610  36.136   7.350
 9954POPC   NC370235   6.621  26.067   5.550
 9954POPC   PO470236   6.613  26.055   5.850
 9954POPC   GL170237   6.681  26.091   6.150
 9954POPC   GL270238   6.477  25.999   6.150
 9954POPC   C1A70239   6.655  26.084   6.450
 9954POPC   D2A70240   6.604  26.016   6.750
 9954POPC   C3A70241   6.627  26.070   7.050
 9954POPC   C4A70242   6.621  26.023   7.350
 9954POPC   C1B70243   6.364  26.038   6.450
 9954POPC   C2B70244   6.404  26.008   6.750
 9954POPC   C3B70245   6.426  26.051   7.050
 9954POPC   C4B70246   6.442  26.030   7.350
 9955POPC   NC370247  43.097  30.654   5.550
 9955POPC   PO470248  43.082  30.712   5.850
 9955POPC   GL170249  43.123  30.745   6.150
 9955POPC   GL270250  43.184  30.579   6.150
 9955POPC   C1A70251  43.116  30.688   6.450
 9955POPC   D2A70252  43.129  30.734   6.750
 9955POPC   C3A70253  43.090  30.668   7.050
 9955POPC   C4A70254  43.158  30.744   7.350
 9955POPC   C1B70255  43.229  30.449   6.450
 9955POPC   C2B70256  43.234  30.435   6.750
 9955POPC   C3B70257  43.228  30.442   7.050
 9955POPC   C4B70258  43.184  30.428   7.350
 9956POPC   NC370259  14.392  15.932   5.550
 9956POPC   PO470260  14.362  15.934   5.850
 9956POPC   GL170261  14.370  15.920   6.150
 9956POPC   GL270262  14.448  15.879   6.150
 9956POPC   C1A70263  14.382  15.912   6.450
 9956POPC   D2A70264  14.413  15.979   6.750
 9956POPC   C3A70265  14.377  15.996   7.050
 9956POPC   C4A70266  14.367  15.946   7.350
 9956POPC   C1B70267  14.608  15.769   6.450
 9956POPC   C2B70268  14.585  15.814   6.750
 9956POPC   C3B70269  14.557  15.736   7.050
 9956POPC   C4B70270  14.634  15.819   7.350
 9957POPC   NC370271  31.460   7.371   5.550
 9957POPC   PO470272  31.461   7.420   5.850
 9957POPC   GL170273  31.434   7.434   6.150
 9957POPC   GL270274  31.552   7.334   6.150
 9957POPC   C1A70275  31.517   7.414   6.450
 9957POPC   D2A70276  31.428   7.467   6.750
 9957POPC   C3A70277  31.472   7.455   7.050
 9957POPC   C4A70278  31.522   7.443   7.350
 9957POPC   C1B70279  31.731   7.374   6.450
 9957POPC   C2B70280  31.666   7.378   6.750
 9957POPC   C3B70281  31.728   7.338   7.050
 9957POPC   C4B70282  31.696   7.366   7.350
 9958POPC   NC370283  15.176   3.586   5.550
 9958POPC   PO470284  15.139   3.509   5.850
 9958POPC   GL170285  15.208   3.540   6.150
 9958POPC   GL270286  15.287   3.661   6.150
 9958POPC   C1A70287  15.197   3.539   6.450
 9958POPC   D2A70288  15.206   3.582   6.750
 9958POPC   C3A70289  15.156   3.513   7.050
 9958POPC   C4A70290  15.196   3.549   7.350
 9958POPC   C1B70291  15.275   3.762   6.450
 9958POPC   C2B70292  15.300   3.714   6.750
 9958POPC   C3B70293  15.301   3.732   7.050
 9958POPC   C4B70294  15.278   3.778   7.350
 9959POPC   NC370295  22.894  17.533   5.550
 9959POPC   PO470296  22.928  17.514   5.850
 9959POPC   GL170297  22.916  17.471   6.150
 9959POPC   GL270298  22.988  17.655   6.150
 9959POPC   C1A70299  22.925  17.527   6.450
 9959POPC   D2A70300  22.941  17.504   6.750
 9959POPC   C3A70301  22.919  17.555   7.050
 9959POPC   C4A70302  22.960  17.481   7.350
 9959POPC   C1B70303  23.061  17.739   6.450
 9959POPC   C2B70304  23.120  17.696   6.750
 9959POPC   C3B70305  23.112  17.708   7.050
 9959POPC   C4B70306  23.066  17.671   7.350
 9960POPC   NC370307   0.412   5.898   5.550
 9960POPC   PO470308   0.476   5.834   5.850
 9960POPC   GL170309   0.468   5.820   6.150
 9960POPC   GL270310   0.360   6.021   6.150
 9960POPC   C1A70311   0.444   5.859   6.450
 9960POPC   D2A70312   0.480   5.907   6.750
 9960POPC   C3A70313   0.448   5.907   7.050
 9960POPC   C4A70314   0.423   5.894   7.350
 9960POPC   C1B70315   0.299   6.122   6.450
 9960POPC   C2B70316   0.302   6.119   6.750
 9960POPC   C3B70317   0.365   6.097   7.050
 9960POPC   C4B70318   0.389   6.066   7.350
 9961POPC   NC370319  40.753  15.227   5.550
 9961POPC   PO470320  40.742  15.130   5.850
 9961POPC   GL170321  40.799  15.198   6.150
 9961POPC   GL270322  40.748  15.351   6.150
 9961POPC   C1A70323  40.781  15.172   6.450
 9961POPC   D2A70324  40.797  15.198   6.750
 9961POPC   C3A70325  40.755  15.214   7.050
 9961POPC   C4A70326  40.772  15.158   7.350
 9961POPC   C1B70327  40.800  15.421   6.450
 9961POPC   C2B70328  40.791  15.471   6.750
 9961POPC   C3B70329  40.810  15.473   7.050
 9961POPC   C4B70330  40.726  15.426   7.350
 9962POPC   NC370331  11.280  11.264   5.550
 9962POPC   PO470332  11.348  11.294   5.850
 9962POPC   GL170333  11.301  11.284   6.150
 9962POPC   GL270334  11.450  11.341   6.150
 9962POPC   C1A70335  11.346  11.260   6.450
 9962POPC   D2A70336  11.273  11.336   6.750
 9962POPC   C3A70337  11.267  11.277   7.050
 9962POPC   C4A70338  11.276  11.293   7.350
 9962POPC   C1B70339  11.563  11.383   6.450
 9962POPC   C2B70340  11.518  11.388   6.750
 9962POPC   C3B70341  11.511  11.384   7.050
 9962POPC   C4B70342  11.478  11.461   7.350
 9963POPC   NC370343  10.495   9.771   5.550
 9963POPC   PO470344  10.543   9.772   5.850
 9963POPC   GL170345  10.523   9.718   6.150
 9963POPC   GL270346  10.534   9.592   6.150
 9963POPC   C1A70347  10.570   9.708   6.450
 9963POPC   D2A70348  10.504   9.745   6.750
 9963POPC   C3A70349  10.509   9.709   7.050
 9963POPC   C4A70350  10.517   9.756   7.350
 9963POPC   C1B70351  10.618   9.481   6.450
 9963POPC   C2B70352  10.532   9.539   6.750
 9963POPC   C3B70353  10.547   9.459   7.050
 9963POPC   C4B70354  10.580   9.531   7.350
 9964POPC   NC370355   7.388   6.605   5.550
 9964POPC   PO470356   7.423   6.660   5.850
 9964POPC   GL170357   7.458   6.646   6.150
 9964POPC   GL270358   7.340   6.727   6.150
 9964POPC   C1A70359   7.426   6.677   6.450
 9964POPC   D2A70360   7.439   6.665   6.750
 9964POPC   C3A70361   7.420   6.645   7.050
 9964POPC   C4A70362   7.437   6.678   7.350
 9964POPC   C1B70363   7.194   6.792   6.450
 9964POPC   C2B70364   7.215   6.712   6.750
 9964POPC   C3B70365   7.156   6.782   7.050
 9964POPC   C4B70366   7.161   6.698   7.350
 9965POPC   NC370367  40.784  39.957   5.550
 9965POPC   PO470368  40.744  40.008   5.850
 9965POPC   GL170369  40.791  39.990   6.150
 9965POPC   GL270370  40.609  39.989   6.150
 9965POPC   C1A70371  40.759  40.033   6.450
 9965POPC   D2A70372  40.785  39.960   6.750
 9965POPC   C3A70373  40.747  40.052   7.050
 9965POPC   C4A70374  40.795  40.023   7.350
 9965POPC   C1B70375  40.566  40.012   6.450
 9965POPC   C2B70376  40.575  39.979   6.750
 9965POPC   C3B70377  40.548  40.033   7.050
 9965POPC   C4B70378  40.573  40.050   7.350
 9966POPC   NC370379  22.899  18.272   5.550
 9966POPC   PO470380  22.940  18.270   5.850
 9966POPC   GL170381  22.891  18.282   6.150
 9966POPC   GL270382  22.948  18.370   6.150
 9966POPC   C1A70383  22.902  18.297   6.450
 9966POPC   D2A70384  22.937  18.306   6.750
 9966POPC   C3A70385  22.893  18.283   7.050
 9966POPC   C4A70386  22.980  18.313   7.350
 9966POPC   C1B70387  22.966  18.513   6.450
 9966POPC   C2B70388  23.010  18.566   6.750
 9966POPC   C3B70389  23.041  18.492   7.050
 9966POPC   C4B70390  23.048  18.531   7.350
 9967POPC   NC370391  28.369   2.024   5.550
 9967POPC   PO470392  28.417   1.945   5.850
 9967POPC   GL170393  28.399   2.038   6.150
 9967POPC   GL270394  28.265   2.036   6.150
 9967POPC   C1A70395  28.362   1.963   6.450
 9967POPC   D2A70396  28.397   2.038   6.750
 9967POPC   C3A70397  28.408   2.036   7.050
 9967POPC   C4A70398  28.331   1.956   7.350
 9967POPC   C1B70399  28.179   2.194   6.450
 9967POPC   C2B70400  28.213   2.193   6.750
 9967POPC   C3B70401  28.144   2.190   7.050
 9967POPC   C4B70402  28.129   2.188   7.350
 9968POPC   NC370403  12.081  19.069   5.550
 9968POPC   PO470404  12.041  19.044   5.850
 9968POPC   GL170405  12.107  19.040   6.150
 9968POPC   GL270406  12.227  19.045   6.150
 9968POPC   C1A70407  12.085  19.050   6.450
 9968POPC   D2A70408  12.087  19.062   6.750
 9968POPC   C3A70409  12.096  19.108   7.050
 9968POPC   C4A70410  12.053  19.042   7.350
 9968POPC   C1B70411  12.250  18.921   6.450
 9968POPC   C2B70412  12.333  18.957   6.750
 9968POPC   C3B70413  12.255  18.902   7.050
 9968POPC   C4B70414  12.297  18.906   7.350
 9969POPC   NC370415  33.049  22.125   5.550
 9969POPC   PO470416  33.045  22.142   5.850
 9969POPC   GL170417  32.997  22.177   6.150
 9969POPC   GL270418  33.163  22.141   6.150
 9969POPC   C1A70419  32.978  22.125   6.450
 9969POPC   D2A70420  33.068  22.129   6.750
 9969POPC   C3A70421  33.002  22.136   7.050
 9969POPC   C4A70422  33.068  22.158   7.350
 9969POPC   C1B70423  33.264  22.104   6.450
 9969POPC   C2B70424  33.291  22.077   6.750
 9969POPC   C3B70425  33.264  22.109   7.050
 9969POPC   C4B70426  33.221  22.115   7.350
 9970POPC   NC370427   7.422  22.209   5.550
 9970POPC   PO470428   7.381  22.127   5.850
 9970POPC   GL170429   7.393  22.201   6.150
 9970POPC   GL270430   7.363  22.261   6.150
 9970POPC   C1A70431   7.468  22.130   6.450
 9970POPC   D2A70432   7.406  22.199   6.750
 9970POPC   C3A70433   7.429  22.202   7.050
 9970POPC   C4A70434   7.428  22.199   7.350
 9970POPC   C1B70435   7.256  22.301   6.450
 9970POPC   C2B70436   7.267  22.319   6.750
 9970POPC   C3B70437   7.207  22.318   7.050
 9970POPC   C4B70438   7.283  22.334   7.350
 9971POPC   NC370439  31.495  39.194   5.550
 9971POPC   PO470440  31.493  39.228   5.850
 9971POPC   GL170441  31.519  39.247   6.150
 9971POPC   GL270442  31.437  39.356   6.150
 9971POPC   C1A70443  31.479  39.240   6.450
 9971POPC   D2A70444  31.441  39.191   6.750
 9971POPC   C3A70445  31.429  39.206   7.050
 9971POPC   C4A70446  31.508  39.241   7.350
 9971POPC   C1B70447  31.518  39.481   6.450
 9971POPC   C2B70448  31.465  39.470   6.750
 9971POPC   C3B70449  31.483  39.477   7.050
 9971POPC   C4B70450  31.456  39.495   7.350
 9972POPC   NC370451  41.529  42.351   5.550
 9972POPC   PO470452  41.553  42.309   5.850
 9972POPC   GL170453  41.544  42.375   6.150
 9972POPC   GL270454  41.594  42.425   6.150
 9972POPC   C1A70455  41.510  42.384   6.450
 9972POPC   D2A70456  41.573  42.347   6.750
 9972POPC   C3A70457  41.546  42.335   7.050
 9972POPC   C4A70458  41.597  42.311   7.350
 9972POPC   C1B70459  41.636  42.571   6.450
 9972POPC   C2B70460  41.634  42.585   6.750
 9972POPC   C3B70461  41.711  42.518   7.050
 9972POPC   C4B70462  41.666  42.584   7.350
 9973POPC   NC370463  11.349  29.164   5.550
 9973POPC   PO470464  11.287  29.135   5.850
 9973POPC   GL170465  11.339  29.130   6.150
 9973POPC   GL270466  11.349  29.019   6.150
 9973POPC   C1A70467  11.325  29.099   6.450
 9973POPC   D2A70468  11.295  29.116   6.750
 9973POPC   C3A70469  11.346  29.136   7.050
 9973POPC   C4A70470  11.326  29.154   7.350
 9973POPC   C1B70471  11.434  28.916   6.450
 9973POPC   C2B70472  11.444  28.911   6.750
 9973POPC   C3B70473  11.481  28.983   7.050
 9973POPC   C4B70474  11.413  28.965   7.350
 9974POPC   NC370475  31.476   9.712   5.550
 9974POPC   PO470476  31.455   9.764   5.850
 9974POPC   GL170477  31.469   9.749   6.150
 9974POPC   GL270478  31.342   9.851   6.150
 9974POPC   C1A70479  31.463   9.734   6.450
 9974POPC   D2A70480  31.464   9.702   6.750
 9974POPC   C3A70481  31.514   9.766   7.050
 9974POPC   C4A70482  31.477   9.786   7.350
 9974POPC   C1B70483  31.230   9.902   6.450
 9974POPC   C2B70484  31.240   9.878   6.750
 9974POPC   C3B70485  31.246   9.914   7.050
 9974POPC   C4B70486  31.266   9.876   7.350
 9975POPC   NC370487  15.968   1.964   5.550
 9975POPC   PO470488  15.933   1.959   5.850
 9975POPC   GL170489  15.923   1.990   6.150
 9975POPC   GL270490  16.114   2.000   6.150
 9975POPC   C1A70491  15.989   2.036   6.450
 9975POPC   D2A70492  15.979   1.989   6.750
 9975POPC   C3A70493  16.001   2.031   7.050
 9975POPC   C4A70494  15.909   1.943   7.350
 9975POPC   C1B70495  16.191   2.050   6.450
 9975POPC   C2B70496  16.168   2.084   6.750
 9975POPC   C3B70497  16.178   2.020   7.050
 9975POPC   C4B70498  16.246   2.029   7.350
 9976POPC   NC370499  41.576   9.778   5.550
 9976POPC   PO470500  41.575   9.704   5.850
 9976POPC   GL170501  41.604   9.719   6.150
 9976POPC   GL270502  41.655   9.844   6.150
 9976POPC   C1A70503  41.594   9.729   6.450
 9976POPC   D2A70504  41.554   9.727   6.750
 9976POPC   C3A70505  41.589   9.717   7.050
 9976POPC   C4A70506  41.578   9.720   7.350
 9976POPC   C1B70507  41.755   9.959   6.450
 9976POPC   C2B70508  41.717   9.895   6.750
 9976POPC   C3B70509  41.762   9.932   7.050
 9976POPC   C4B70510  41.722   9.904   7.350
 9977POPC   NC370511  40.036  16.739   5.550
 9977POPC   PO470512  40.041  16.734   5.850
 9977POPC   GL170513  40.023  16.740   6.150
 9977POPC   GL270514  40.125  16.682   6.150
 9977POPC   C1A70515  39.978  16.695   6.450
 9977POPC   D2A70516  39.980  16.698   6.750
 9977POPC   C3A70517  40.012  16.715   7.050
 9977POPC   C4A70518  40.016  16.724   7.350
 9977POPC   C1B70519  40.273  16.668   6.450
 9977POPC   C2B70520  40.305  16.708   6.750
 9977POPC   C3B70521  40.289  16.687   7.050
 9977POPC   C4B70522  40.270  16.757   7.350
 9978POPC   NC370523  36.861  37.689   5.550
 9978POPC   PO470524  36.897  37.646   5.850
 9978POPC   GL170525  36.938  37.649   6.150
 9978POPC   GL270526  36.983  37.554   6.150
 9978POPC   C1A70527  36.870  37.644   6.450
 9978POPC   D2A70528  36.923  37.681   6.750
 9978POPC   C3A70529  36.859  37.701   7.050
 9978POPC   C4A70530  36.891  37.722   7.350
 9978POPC   C1B70531  36.985  37.464   6.450
 9978POPC   C2B70532  36.952  37.489   6.750
 9978POPC   C3B70533  36.979  37.417   7.050
 9978POPC   C4B70534  36.999  37.425   7.350
 9979POPC   NC370535  26.058  29.113   5.550
 9979POPC   PO470536  26.017  29.138   5.850
 9979POPC   GL170537  26.002  29.167   6.150
 9979POPC   GL270538  26.143  29.278   6.150
 9979POPC   C1A70539  26.087  29.182   6.450
 9979POPC   D2A70540  26.077  29.166   6.750
 9979POPC   C3A70541  26.059  29.194   7.050
 9979POPC   C4A70542  26.011  29.096   7.350
 9979POPC   C1B70543  26.235  29.301   6.450
 9979POPC   C2B70544  26.170  29.300   6.750
 9979POPC   C3B70545  26.189  29.328   7.050
 9979POPC   C4B70546  26.229  29.374   7.350
 9980POPC   NC370547   2.744   8.239   5.550
 9980POPC   PO470548   2.752   8.164   5.850
 9980POPC   GL170549   2.722   8.156   6.150
 9980POPC   GL270550   2.670   8.313   6.150
 9980POPC   C1A70551   2.757   8.197   6.450
 9980POPC   D2A70552   2.811   8.236   6.750
 9980POPC   C3A70553   2.796   8.184   7.050
 9980POPC   C4A70554   2.743   8.162   7.350
 9980POPC   C1B70555   2.570   8.404   6.450
 9980POPC   C2B70556   2.547   8.392   6.750
 9980POPC   C3B70557   2.596   8.402   7.050
 9980POPC   C4B70558   2.528   8.365   7.350
 9981POPC   NC370559  25.305  36.121   5.550
 9981POPC   PO470560  25.237  36.079   5.850
 9981POPC   GL170561  25.227  36.113   6.150
 9981POPC   GL270562  25.390  36.182   6.150
 9981POPC   C1A70563  25.233  36.125   6.450
 9981POPC   D2A70564  25.277  36.156   6.750
 9981POPC   C3A70565  25.300  36.086   7.050
 9981POPC   C4A70566  25.228  36.145   7.350
 9981POPC   C1B70567  25.505  36.197   6.450
 9981POPC   C2B70568  25.478  36.208   6.750
 9981POPC   C3B70569  25.530  36.201   7.050
 9981POPC   C4B70570  25.536  36.151   7.350
 9982POPC   NC370571  10.530  10.537   5.550
 9982POPC   PO470572  10.491  10.529   5.850
 9982POPC   GL170573  10.546  10.528   6.150
 9982POPC   GL270574  10.554  10.386   6.150
 9982POPC   C1A70575  10.568  10.497   6.450
 9982POPC   D2A70576  10.561  10.557   6.750
 9982POPC   C3A70577  10.555  10.573   7.050
 9982POPC   C4A70578  10.519  10.539   7.350
 9982POPC   C1B70579  10.501  10.258   6.450
 9982POPC   C2B70580  10.506  10.319   6.750
 9982POPC   C3B70581  10.507  10.251   7.050
 9982POPC   C4B70582  10.547  10.293   7.350
 9983POPC   NC370583  31.489  43.075   5.550
 9983POPC   PO470584  31.463  43.085   5.850
 9983POPC   GL170585  31.520  43.097   6.150
 9983POPC   GL270586  31.487  43.173   6.150
 9983POPC   C1A70587  31.517  43.149   6.450
 9983POPC   D2A70588  31.502  43.077   6.750
 9983POPC   C3A70589  31.438  43.112   7.050
 9983POPC   C4A70590  31.521  43.075   7.350
 9983POPC   C1B70591  31.625  43.309   6.450
 9983POPC   C2B70592  31.543  43.319   6.750
 9983POPC   C3B70593  31.545  43.302   7.050
 9983POPC   C4B70594  31.587  43.346   7.350
 9984POPC   NC370595  42.351  32.219   5.550
 9984POPC   PO470596  42.381  32.215   5.850
 9984POPC   GL170597  42.300  32.252   6.150
 9984POPC   GL270598  42.381  32.310   6.150
 9984POPC   C1A70599  42.377  32.233   6.450
 9984POPC   D2A70600  42.326  32.204   6.750
 9984POPC   C3A70601  42.336  32.277   7.050
 9984POPC   C4A70602  42.298  32.293   7.350
 9984POPC   C1B70603  42.533  32.393   6.450
 9984POPC   C2B70604  42.479  32.450   6.750
 9984POPC   C3B70605  42.486  32.474   7.050
 9984POPC   C4B70606  42.460  32.400   7.350
 9985POPC   NC370607  31.498  14.420   5.550
 9985POPC   PO470608  31.497  14.386   5.850
 9985POPC   GL170609  31.500  14.366   6.150
 9985POPC   GL270610  31.329  14.468   6.150
 9985POPC   C1A70611  31.494  14.380   6.450
 9985POPC   D2A70612  31.458  14.374   6.750
 9985POPC   C3A70613  31.462  14.397   7.050
 9985POPC   C4A70614  31.521  14.359   7.350
 9985POPC   C1B70615  31.175  14.476   6.450
 9985POPC   C2B70616  31.245  14.434   6.750
 9985POPC   C3B70617  31.189  14.468   7.050
 9985POPC   C4B70618  31.224  14.429   7.350
 9986POPC   NC370619  42.352  26.771   5.550
 9986POPC   PO470620  42.352  26.842   5.850
 9986POPC   GL170621  42.346  26.860   6.150
 9986POPC   GL270622  42.256  26.732   6.150
 9986POPC   C1A70623  42.347  26.819   6.450
 9986POPC   D2A70624  42.379  26.840   6.750
 9986POPC   C3A70625  42.357  26.824   7.050
 9986POPC   C4A70626  42.346  26.821   7.350
 9986POPC   C1B70627  42.213  26.549   6.450
 9986POPC   C2B70628  42.264  26.559   6.750
 9986POPC   C3B70629  42.226  26.623   7.050
 9986POPC   C4B70630  42.198  26.633   7.350
 9987POPC   NC370631  37.677   8.989   5.550
 9987POPC   PO470632  37.634   8.970   5.850
 9987POPC   GL170633  37.655   8.935   6.150
 9987POPC   GL270634  37.578   8.910   6.150
 9987POPC   C1A70635  37.676   8.973   6.450
 9987POPC   D2A70636  37.712   8.951   6.750
 9987POPC   C3A70637  37.655   8.956   7.050
 9987POPC   C4A70638  37.674   8.949   7.350
 9987POPC   C1B70639  37.435   8.861   6.450
 9987POPC   C2B70640  37.418   8.882   6.750
 9987POPC   C3B70641  37.401   8.921   7.050
 9987POPC   C4B70642  37.458   8.845   7.350
 9988POPC   NC370643   3.533  35.315   5.550
 9988POPC   PO470644   3.544  35.386   5.850
 9988POPC   GL170645   3.588  35.353   6.150
 9988POPC   GL270646   3.552  35.230   6.150
 9988POPC   C1A70647   3.560  35.384   6.450
 9988POPC   D2A70648   3.526  35.372   6.750
 9988POPC   C3A70649   3.516  35.380   7.050
 9988POPC   C4A70650   3.577  35.397   7.350
 9988POPC   C1B70651   3.578  35.113   6.450
 9988POPC   C2B70652   3.608  35.112   6.750
 9988POPC   C3B70653   3.614  35.116   7.050
 9988POPC   C4B70654   3.582  35.119   7.350
 9989POPC   NC370655  12.809  21.416   5.550
 9989POPC   PO470656  12.898  21.414   5.850
 9989POPC   GL170657  12.817  21.428   6.150
 9989POPC   GL270658  12.867  21.491   6.150
 9989POPC   C1A70659  12.831  21.426   6.450
 9989POPC   D2A70660  12.895  21.369   6.750
 9989POPC   C3A70661  12.817  21.342   7.050
 9989POPC   C4A70662  12.892  21.412   7.350
 9989POPC   C1B70663  12.834  21.679   6.450
 9989POPC   C2B70664  12.803  21.670   6.750
 9989POPC   C3B70665  12.845  21.604   7.050
 9989POPC   C4B70666  12.781  21.609   7.350
 9990POPC   NC370667  42.372   7.405   5.550
 9990POPC   PO470668  42.356   7.419   5.850
 9990POPC   GL170669  42.304   7.441   6.150
 9990POPC   GL270670  42.226   7.300   6.150
 9990POPC   C1A70671  42.285   7.378   6.450
 9990POPC   D2A70672  42.348   7.444   6.750
 9990POPC   C3A70673  42.341   7.398   7.050
 9990POPC   C4A70674  42.337   7.458   7.350
 9990POPC   C1B70675  42.150   7.262   6.450
 9990POPC   C2B70676  42.145   7.287   6.750
 9990POPC   C3B70677  42.205   7.289   7.050
 9990POPC   C4B70678  42.152   7.288   7.350
 9991POPC   NC370679   6.636  26.793   5.550
 9991POPC   PO470680   6.615  26.834   5.850
 9991POPC   GL170681   6.638  26.821   6.150
 9991POPC   GL270682   6.646  26.896   6.150
 9991POPC   C1A70683   6.649  26.855   6.450
 9991POPC   D2A70684   6.635  26.771   6.750
 9991POPC   C3A70685   6.665  26.861   7.050
 9991POPC   C4A70686   6.653  26.770   7.350
 9991POPC   C1B70687   6.636  27.086   6.450
 9991POPC   C2B70688   6.628  27.016   6.750
 9991POPC   C3B70689   6.636  27.020   7.050
 9991POPC   C4B70690   6.581  27.050   7.350
 9992POPC   NC370691  43.933  10.484   5.550
 9992POPC   PO470692  43.846  10.496   5.850
 9992POPC   GL170693  43.885  10.478   6.150
 9992POPC   GL270694  43.741  10.464   6.150
 9992POPC   C1A70695  43.875  10.491   6.450
 9992POPC   D2A70696  43.930  10.522   6.750
 9992POPC   C3A70697  43.850  10.480   7.050
 9992POPC   C4A70698  43.863  10.508   7.350
 9992POPC   C1B70699  43.616  10.411   6.450
 9992POPC   C2B70700  43.690  10.467   6.750
 9992POPC   C3B70701  43.706  10.411   7.050
 9992POPC   C4B70702  43.695  10.438   7.350
 9993POPC   NC370703  40.766  38.502   5.550
 9993POPC   PO470704  40.742  38.417   5.850
 9993POPC   GL170705  40.795  38.471   6.150
 9993POPC   GL270706  40.929  38.404   6.150
 9993POPC   C1A70707  40.801  38.438   6.450
 9993POPC   D2A70708  40.785  38.459   6.750
 9993POPC   C3A70709  40.814  38.412   7.050
 9993POPC   C4A70710  40.824  38.419   7.350
 9993POPC   C1B70711  40.979  38.396   6.450
 9993POPC   C2B70712  40.990  38.355   6.750
 9993POPC   C3B70713  41.054  38.352   7.050
 9993POPC   C4B70714  40.987  38.441   7.350
 9994POPC   NC370715  24.463  16.703   5.550
 9994POPC   PO470716  24.502  16.705   5.850
 9994POPC   GL170717  24.540  16.738   6.150
 9994POPC   GL270718  24.588  16.748   6.150
 9994POPC   C1A70719  24.500  16.687   6.450
 9994POPC   D2A70720  24.496  16.725   6.750
 9994POPC   C3A70721  24.506  16.713   7.050
 9994POPC   C4A70722  24.471  16.713   7.350
 9994POPC   C1B70723  24.755  16.893   6.450
 9994POPC   C2B70724  24.751  16.796   6.750
 9994POPC   C3B70725  24.694  16.859   7.050
 9994POPC   C4B70726  24.742  16.798   7.350
 9995POPC   NC370727  27.586  17.466   5.550
 9995POPC   PO470728  27.597  17.552   5.850
 9995POPC   GL170729  27.624  17.460   6.150
 9995POPC   GL270730  27.604  17.339   6.150
 9995POPC   C1A70731  27.622  17.481   6.450
 9995POPC   D2A70732  27.591  17.464   6.750
 9995POPC   C3A70733  27.605  17.518   7.050
 9995POPC   C4A70734  27.586  17.516   7.350
 9995POPC   C1B70735  27.580  17.235   6.450
 9995POPC   C2B70736  27.584  17.294   6.750
 9995POPC   C3B70737  27.573  17.216   7.050
 9995POPC   C4B70738  27.594  17.232   7.350
 9996POPC   NC370739  37.687  12.837   5.550
 9996POPC   PO470740  37.636  12.870   5.850
 9996POPC   GL170741  37.665  12.870   6.150
 9996POPC   GL270742  37.814  12.934   6.150
 9996POPC   C1A70743  37.727  12.877   6.450
 9996POPC   D2A70744  37.648  12.878   6.750
 9996POPC   C3A70745  37.682  12.810   7.050
 9996POPC   C4A70746  37.679  12.882   7.350
 9996POPC   C1B70747  37.920  13.011   6.450
 9996POPC   C2B70748  37.900  12.954   6.750
 9996POPC   C3B70749  37.918  12.953   7.050
 9996POPC   C4B70750  37.917  12.995   7.350
 9997POPC   NC370751  11.340  40.028   5.550
 9997POPC   PO470752  11.253  39.985   5.850
 9997POPC   GL170753  11.256  39.974   6.150
 9997POPC   GL270754  11.229  40.098   6.150
 9997POPC   C1A70755  11.344  39.991   6.450
 9997POPC   D2A70756  11.286  39.984   6.750
 9997POPC   C3A70757  11.310  39.990   7.050
 9997POPC   C4A70758  11.262  40.012   7.350
 9997POPC   C1B70759  11.087  40.123   6.450
 9997POPC   C2B70760  11.106  40.175   6.750
 9997POPC   C3B70761  11.066  40.135   7.050
 9997POPC   C4B70762  11.079  40.160   7.350
 9998POPC   NC370763   3.514  29.928   5.550
 9998POPC   PO470764   3.495  29.871   5.850
 9998POPC   GL170765   3.576  29.884   6.150
 9998POPC   GL270766   3.623  29.815   6.150
 9998POPC   C1A70767   3.512  29.935   6.450
 9998POPC   D2A70768   3.526  29.910   6.750
 9998POPC   C3A70769   3.588  29.924   7.050
 9998POPC   C4A70770   3.561  29.926   7.350
 9998POPC   C1B70771   3.693  29.759   6.450
 9998POPC   C2B70772   3.781  29.732   6.750
 9998POPC   C3B70773   3.735  29.750   7.050
 9998POPC   C4B70774   3.766  29.745   7.350
 9999POPC   NC370775  42.365  39.252   5.550
 9999POPC   PO470776  42.351  39.263   5.850
 9999POPC   GL170777  42.336  39.214   6.150
 9999POPC   GL270778  42.324  39.077   6.150
 9999POPC   C1A70779  42.346  39.206   6.450
 9999POPC   D2A70780  42.343  39.276   6.750
 9999POPC   C3A70781  42.328  39.248   7.050
 9999POPC   C4A70782  42.290  39.230   7.350
 9999POPC   C1B70783  42.247  39.039   6.450
 9999POPC   C2B70784  42.270  38.970   6.750
 9999POPC   C3B70785  42.278  39.022   7.050
 9999POPC   C4B70786  42.237  39.036   7.350
10000POPC   NC370787   2.037  23.734   5.550
10000POPC   PO470788   2.025  23.762   5.850
10000POPC   GL170789   2.022  23.739   6.150
10000POPC   GL270790   1.836  23.606   6.150
10000POPC   C1A70791   1.947  23.727   6.450
10000POPC   D2A70792   1.989  23.743   6.750
10000POPC   C3A70793   2.027  23.710   7.050
10000POPC   C4A70794   1.963  23.747   7.350
10000POPC   C1B70795   1.730  23.558   6.450
10000POPC   C2B70796   1.774  23.619   6.750
10000POPC   C3B70797   1.745  23.570   7.050
10000POPC   C4B70798   1.754  23.587   7.350
10001POPC   NC370799  38.423  40.008   5.550
10001POPC   PO470800  38.501  40.020   5.850
10001POPC   GL170801  38.462  40.021   6.150
10001POPC   GL270802  38.566  40.055   6.150
10001POPC   C1A70803  38.446  40.042   6.450
10001POPC   D2A70804  38.411  40.006   6.750
10001POPC   C3A70805  38.489  39.959   7.050
10001POPC   C4A70806  38.469  40.048   7.350
10001POPC   C1B70807  38.694  40.092   6.450
10001POPC   C2B70808  38.678  40.095   6.750
10001POPC   C3B70809  38.627  40.093   7.050
10001POPC   C4B70810  38.628  40.129   7.350
10002POPC   NC370811  36.119  14.419   5.550
10002POPC   PO470812  36.177  14.453   5.850
10002POPC   GL170813  36.108  14.434   6.150
10002POPC   GL270814  36.025  14.285   6.150
10002POPC   C1A70815  36.144  14.405   6.450
10002POPC   D2A70816  36.097  14.419   6.750
10002POPC   C3A70817  36.150  14.428   7.050
10002POPC   C4A70818  36.123  14.429   7.350
10002POPC   C1B70819  36.039  14.170   6.450
10002POPC   C2B70820  35.996  14.210   6.750
10002POPC   C3B70821  35.967  14.191   7.050
10002POPC   C4B70822  36.035  14.151   7.350
10003POPC   NC370823  26.048  26.778   5.550
10003POPC   PO470824  26.027  26.801   5.850
10003POPC   GL170825  26.001  26.803   6.150
10003POPC   GL270826  26.139  26.759   6.150
10003POPC   C1A70827  26.048  26.837   6.450
10003POPC   D2A70828  26.020  26.850   6.750
10003POPC   C3A70829  26.034  26.781   7.050
10003POPC   C4A70830  26.017  26.849   7.350
10003POPC   C1B70831  26.204  26.651   6.450
10003POPC   C2B70832  26.264  26.681   6.750
10003POPC   C3B70833  26.243  26.604   7.050
10003POPC   C4B70834  26.168  26.610   7.350
10004POPC   NC370835   3.578  38.428   5.550
10004POPC   PO470836   3.539  38.474   5.850
10004POPC   GL170837   3.524  38.412   6.150
10004POPC   GL270838   3.503  38.317   6.150
10004POPC   C1A70839   3.578  38.504   6.450
10004POPC   D2A70840   3.522  38.416   6.750
10004POPC   C3A70841   3.560  38.454   7.050
10004POPC   C4A70842   3.515  38.495   7.350
10004POPC   C1B70843   3.557  38.235   6.450
10004POPC   C2B70844   3.604  38.210   6.750
10004POPC   C3B70845   3.547  38.249   7.050
10004POPC   C4B70846   3.608  38.250   7.350
10005POPC   NC370847  11.293  22.116   5.550
10005POPC   PO470848  11.255  22.203   5.850
10005POPC   GL170849  11.296  22.121   6.150
10005POPC   GL270850  11.333  21.995   6.150
10005POPC   C1A70851  11.289  22.202   6.450
10005POPC   D2A70852  11.264  22.147   6.750
10005POPC   C3A70853  11.254  22.137   7.050
10005POPC   C4A70854  11.273  22.180   7.350
10005POPC   C1B70855  11.295  21.948   6.450
10005POPC   C2B70856  11.374  21.877   6.750
10005POPC   C3B70857  11.340  21.951   7.050
10005POPC   C4B70858  11.367  21.928   7.350
10006POPC   NC370859  14.354  19.806   5.550
10006POPC   PO470860  14.374  19.813   5.850
10006POPC   GL170861  14.435  19.805   6.150
10006POPC   GL270862  14.293  19.836   6.150
10006POPC   C1A70863  14.430  19.792   6.450
10006POPC   D2A70864  14.440  19.820   6.750
10006POPC   C3A70865  14.360  19.823   7.050
10006POPC   C4A70866  14.362  19.844   7.350
10006POPC   C1B70867  14.128  19.895   6.450
10006POPC   C2B70868  14.158  19.901   6.750
10006POPC   C3B70869  14.127  19.910   7.050
10006POPC   C4B70870  14.125  19.959   7.350
10007POPC   NC370871  20.593   5.048   5.550
10007POPC   PO470872  20.594   5.068   5.850
10007POPC   GL170873  20.562   5.107   6.150
10007POPC   GL270874  20.744   5.061   6.150
10007POPC   C1A70875  20.622   5.137   6.450
10007POPC   D2A70876  20.567   5.139   6.750
10007POPC   C3A70877  20.648   5.130   7.050
10007POPC   C4A70878  20.608   5.087   7.350
10007POPC   C1B70879  20.830   5.022   6.450
10007POPC   C2B70880  20.844   5.034   6.750
10007POPC   C3B70881  20.878   5.025   7.050
10007POPC   C4B70882  20.887   5.034   7.350
10008POPC   NC370883  34.611  41.521   5.550
10008POPC   PO470884  34.581  41.563   5.850
10008POPC   GL170885  34.611  41.564   6.150
10008POPC   GL270886  34.599  41.661   6.150
10008POPC   C1A70887  34.580  41.590   6.450
10008POPC   D2A70888  34.605  41.565   6.750
10008POPC   C3A70889  34.620  41.584   7.050
10008POPC   C4A70890  34.625  41.604   7.350
10008POPC   C1B70891  34.621  41.834   6.450
10008POPC   C2B70892  34.570  41.812   6.750
10008POPC   C3B70893  34.585  41.841   7.050
10008POPC   C4B70894  34.571  41.826   7.350
10009POPC   NC370895   5.076  22.925   5.550
10009POPC   PO470896   5.046  22.944   5.850
10009POPC   GL170897   5.082  22.911   6.150
10009POPC   GL270898   5.217  22.946   6.150
10009POPC   C1A70899   5.048  22.955   6.450
10009POPC   D2A70900   5.076  22.949   6.750
10009POPC   C3A70901   5.066  22.964   7.050
10009POPC   C4A70902   5.083  22.930   7.350
10009POPC   C1B70903   5.365  22.847   6.450
10009POPC   C2B70904   5.328  22.865   6.750
10009POPC   C3B70905   5.326  22.908   7.050
10009POPC   C4B70906   5.323  22.886   7.350
10010POPC   NC370907   8.184  34.527   5.550
10010POPC   PO470908   8.175  34.583   5.850
10010POPC   GL170909   8.184  34.534   6.150
10010POPC   GL270910   8.152  34.502   6.150
10010POPC   C1A70911   8.191  34.571   6.450
10010POPC   D2A70912   8.153  34.578   6.750
10010POPC   C3A70913   8.194  34.571   7.050
10010POPC   C4A70914   8.168  34.533   7.350
10010POPC   C1B70915   8.052  34.380   6.450
10010POPC   C2B70916   8.012  34.424   6.750
10010POPC   C3B70917   8.011  34.369   7.050
10010POPC   C4B70918   8.077  34.387   7.350
10011POPC   NC370919   5.133   6.649   5.550
10011POPC   PO470920   5.066   6.637   5.850
10011POPC   GL170921   5.128   6.693   6.150
10011POPC   GL270922   5.176   6.615   6.150
10011POPC   C1A70923   5.077   6.677   6.450
10011POPC   D2A70924   5.085   6.618   6.750
10011POPC   C3A70925   5.058   6.598   7.050
10011POPC   C4A70926   5.075   6.614   7.350
10011POPC   C1B70927   5.283   6.502   6.450
10011POPC   C2B70928   5.270   6.535   6.750
10011POPC   C3B70929   5.267   6.461   7.050
10011POPC   C4B70930   5.321   6.468   7.350
10012POPC   NC370931  17.491   2.007   5.550
10012POPC   PO470932  17.546   1.958   5.850
10012POPC   GL170933  17.461   1.947   6.150
10012POPC   GL270934  17.349   1.914   6.150
10012POPC   C1A70935  17.495   1.957   6.450
10012POPC   D2A70936  17.486   2.015   6.750
10012POPC   C3A70937  17.482   2.013   7.050
10012POPC   C4A70938  17.511   1.942   7.350
10012POPC   C1B70939  17.286   1.955   6.450
10012POPC   C2B70940  17.303   1.961   6.750
10012POPC   C3B70941  17.263   1.955   7.050
10012POPC   C4B70942  17.260   1.937   7.350
10013POPC   NC370943  19.062  29.128   5.550
10013POPC   PO470944  19.073  29.102   5.850
10013POPC   GL170945  19.036  29.161   6.150
10013POPC   GL270946  18.938  29.040   6.150
10013POPC   C1A70947  19.073  29.100   6.450
10013POPC   D2A70948  19.049  29.109   6.750
10013POPC   C3A70949  19.020  29.098   7.050
10013POPC   C4A70950  19.096  29.126   7.350
10013POPC   C1B70951  18.870  29.011   6.450
10013POPC   C2B70952  18.805  29.013   6.750
10013POPC   C3B70953  18.819  29.034   7.050
10013POPC   C4B70954  18.877  29.058   7.350
10014POPC   NC370955  16.717  40.805   5.550
10014POPC   PO470956  16.698  40.818   5.850
10014POPC   GL170957  16.743  40.794   6.150
10014POPC   GL270958  16.626  40.904   6.150
10014POPC   C1A70959  16.725  40.796   6.450
10014POPC   D2A70960  16.703  40.770   6.750
10014POPC   C3A70961  16.730  40.814   7.050
10014POPC   C4A70962  16.754  40.826   7.350
10014POPC   C1B70963  16.600  41.032   6.450
10014POPC   C2B70964  16.596  41.039   6.750
10014POPC   C3B70965  16.583  41.014   7.050
10014POPC   C4B70966  16.648  40.954   7.350
10015POPC   NC370967   6.688   1.211   5.550
10015POPC   PO470968   6.629   1.209   5.850
10015POPC   GL170969   6.627   1.219   6.150
10015POPC   GL270970   6.599   1.126   6.150
10015POPC   C1A70971   6.668   1.255   6.450
10015POPC   D2A70972   6.624   1.248   6.750
10015POPC   C3A70973   6.603   1.246   7.050
10015POPC   C4A70974   6.633   1.172   7.350
10015POPC   C1B70975   6.464   0.960   6.450
10015POPC   C2B70976   6.501   0.988   6.750
10015POPC   C3B70977   6.507   1.008   7.050
10015POPC   C4B70978   6.500   0.982   7.350
10016POPC   NC370979  37.641   5.087   5.550
10016POPC   PO470980  37.632   5.091   5.850
10016POPC   GL170981  37.657   5.120   6.150
10016POPC   GL270982  37.534   5.010   6.150
10016POPC   C1A70983  37.647   5.053   6.450
10016POPC   D2A70984  37.664   5.109   6.750
10016POPC   C3A70985  37.729   5.120   7.050
10016POPC   C4A70986  37.701   5.133   7.350
10016POPC   C1B70987  37.449   5.027   6.450
10016POPC   C2B70988  37.502   4.961   6.750
10016POPC   C3B70989  37.424   4.944   7.050
10016POPC   C4B70990  37.450   4.942   7.350
10017POPC   NC370991  43.888  22.940   5.550
10017POPC   PO470992  43.877  22.972   5.850
10017POPC   GL170993  43.857  22.972   6.150
10017POPC   GL270994  43.826  23.014   6.150
10017POPC   C1A70995  43.874  22.953   6.450
10017POPC   D2A70996  43.882  22.915   6.750
10017POPC   C3A70997  43.899  22.954   7.050
10017POPC   C4A70998  43.869  22.889   7.350
10017POPC   C1B70999  43.841  23.227   6.450
10017POPC   C2B71000  43.859  23.133   6.750
10017POPC   C3B71001  43.861  23.168   7.050
10017POPC   C4B71002  43.854  23.184   7.350
10018POPC   NC371003  12.866   7.447   5.550
10018POPC   PO471004  12.860   7.417   5.850
10018POPC   GL171005  12.805   7.433   6.150
10018POPC   GL271006  12.759   7.445   6.150
10018POPC   C1A71007  12.837   7.386   6.450
10018POPC   D2A71008  12.815   7.455   6.750
10018POPC   C3A71009  12.847   7.414   7.050
10018POPC   C4A71010  12.811   7.470   7.350
10018POPC   C1B71011  12.641   7.403   6.450
10018POPC   C2B71012  12.619   7.409   6.750
10018POPC   C3B71013  12.593   7.437   7.050
10018POPC   C4B71014  12.636   7.390   7.350
10019POPC   NC371015  24.449  40.822   5.550
10019POPC   PO471016  24.471  40.755   5.850
10019POPC   GL171017  24.496  40.803   6.150
10019POPC   GL271018  24.570  40.630   6.150
10019POPC   C1A71019  24.463  40.746   6.450
10019POPC   D2A71020  24.453  40.828   6.750
10019POPC   C3A71021  24.524  40.810   7.050
10019POPC   C4A71022  24.489  40.752   7.350
10019POPC   C1B71023  24.540  40.526   6.450
10019POPC   C2B71024  24.588  40.513   6.750
10019POPC   C3B71025  24.605  40.590   7.050
10019POPC   C4B71026  24.549  40.534   7.350
10020POPC   NC371027  23.720  17.475   5.550
10020POPC   PO471028  23.675  17.495   5.850
10020POPC   GL171029  23.710  17.481   6.150
10020POPC   GL271030  23.616  17.487   6.150
10020POPC   C1A71031  23.763  17.462   6.450
10020POPC   D2A71032  23.678  17.528   6.750
10020POPC   C3A71033  23.704  17.538   7.050
10020POPC   C4A71034  23.693  17.519   7.350
10020POPC   C1B71035  23.505  17.389   6.450
10020POPC   C2B71036  23.483  17.426   6.750
10020POPC   C3B71037  23.473  17.425   7.050
10020POPC   C4B71038  23.527  17.370   7.350
10021POPC   NC371039  20.566   0.391   5.550
10021POPC   PO471040  20.619   0.482   5.850
10021POPC   GL171041  20.595   0.460   6.150
10021POPC   GL271042  20.516   0.410   6.150
10021POPC   C1A71043  20.620   0.399   6.450
10021POPC   D2A71044  20.568   0.450   6.750
10021POPC   C3A71045  20.596   0.454   7.050
10021POPC   C4A71046  20.578   0.474   7.350
10021POPC   C1B71047  20.348   0.406   6.450
10021POPC   C2B71048  20.380   0.427   6.750
10021POPC   C3B71049  20.390   0.338   7.050
10021POPC   C4B71050  20.385   0.336   7.350
10022POPC   NC371051  43.097  19.065   5.550
10022POPC   PO471052  43.117  19.102   5.850
10022POPC   GL171053  43.117  19.040   6.150
10022POPC   GL271054  43.141  18.892   6.150
10022POPC   C1A71055  43.117  19.013   6.450
10022POPC   D2A71056  43.109  19.060   6.750
10022POPC   C3A71057  43.098  19.026   7.050
10022POPC   C4A71058  43.131  19.030   7.350
10022POPC   C1B71059  43.218  18.775   6.450
10022POPC   C2B71060  43.217  18.777   6.750
10022POPC   C3B71061  43.171  18.774   7.050
10022POPC   C4B71062  43.201  18.867   7.350
10023POPC   NC371063  44.635   6.678   5.550
10023POPC   PO471064  44.633   6.613   5.850
10023POPC   GL171065  44.708   6.639   6.150
10023POPC   GL271066  44.566   6.643   6.150
10023POPC   C1A71067  44.681   6.603   6.450
10023POPC   D2A71068  44.622   6.650   6.750
10023POPC   C3A71069  44.670   6.687   7.050
10023POPC   C4A71070  44.688   6.669   7.350
10023POPC   C1B71071  44.444   6.712   6.450
10023POPC   C2B71072  44.397   6.746   6.750
10023POPC   C3B71073  44.399   6.768   7.050
10023POPC   C4B71074  44.462   6.780   7.350
10024POPC   NC371075  29.129  12.072   5.550
10024POPC   PO471076  29.172  12.100   5.850
10024POPC   GL171077  29.172  12.053   6.150
10024POPC   GL271078  29.032  11.961   6.150
10024POPC   C1A71079  29.150  12.043   6.450
10024POPC   D2A71080  29.169  12.027   6.750
10024POPC   C3A71081  29.195  12.108   7.050
10024POPC   C4A71082  29.145  12.037   7.350
10024POPC   C1B71083  28.983  11.839   6.450
10024POPC   C2B71084  28.982  11.869   6.750
10024POPC   C3B71085  28.991  11.907   7.050
10024POPC   C4B71086  29.035  11.850   7.350
10025POPC   NC371087  18.277  39.268   5.550
10025POPC   PO471088  18.287  39.198   5.850
10025POPC   GL171089  18.330  39.224   6.150
10025POPC   GL271090  18.280  39.087   6.150
10025POPC   C1A71091  18.255  39.229   6.450
10025POPC   D2A71092  18.276  39.217   6.750
10025POPC   C3A71093  18.330  39.244   7.050
10025POPC   C4A71094  18.266  39.243   7.350
10025POPC   C1B71095  18.222  39.019   6.450
10025POPC   C2B71096  18.219  39.001   6.750
10025POPC   C3B71097  18.183  39.049   7.050
10025POPC   C4B71098  18.218  38.963   7.350
10026POPC   NC371099  39.981  39.223   5.550
10026POPC   PO471100  39.959  39.201   5.850
10026POPC   GL171101  40.045  39.256   6.150
10026POPC   GL271102  39.974  39.160   6.150
10026POPC   C1A71103  40.023  39.217   6.450
10026POPC   D2A71104  39.989  39.216   6.750
10026POPC   C3A71105  40.021  39.277   7.050
10026POPC   C4A71106  40.006  39.251   7.350
10026POPC   C1B71107  39.889  39.010   6.450
10026POPC   C2B71108  39.902  38.982   6.750
10026POPC   C3B71109  39.843  38.973   7.050
10026POPC   C4B71110  39.869  39.059   7.350
10027POPC   NC371111  23.752  43.131   5.550
10027POPC   PO471112  23.738  43.152   5.850
10027POPC   GL171113  23.717  43.157   6.150
10027POPC   GL271114  23.649  42.998   6.150
10027POPC   C1A71115  23.671  43.136   6.450
10027POPC   D2A71116  23.681  43.151   6.750
10027POPC   C3A71117  23.734  43.082   7.050
10027POPC   C4A71118  23.675  43.069   7.350
10027POPC   C1B71119  23.540  42.871   6.450
10027POPC   C2B71120  23.583  42.909   6.750
10027POPC   C3B71121  23.604  42.915   7.050
10027POPC   C4B71122  23.524  42.944   7.350
10028POPC   NC371123  32.254  33.796   5.550
10028POPC   PO471124  32.232  33.784   5.850
10028POPC   GL171125  32.203  33.772   6.150
10028POPC   GL271126  32.395  33.745   6.150
10028POPC   C1A71127  32.297  33.799   6.450
10028POPC   D2A71128  32.201  33.806   6.750
10028POPC   C3A71129  32.232  33.831   7.050
10028POPC   C4A71130  32.279  33.817   7.350
10028POPC   C1B71131  32.513  33.789   6.450
10028POPC   C2B71132  32.461  33.743   6.750
10028POPC   C3B71133  32.496  33.793   7.050
10028POPC   C4B71134  32.546  33.813   7.350
10029POPC   NC371135  23.700  40.017   5.550
10029POPC   PO471136  23.681  40.048   5.850
10029POPC   GL171137  23.666  40.025   6.150
10029POPC   GL271138  23.864  40.031   6.150
10029POPC   C1A71139  23.668  40.011   6.450
10029POPC   D2A71140  23.691  40.011   6.750
10029POPC   C3A71141  23.719  40.007   7.050
10029POPC   C4A71142  23.751  39.979   7.350
10029POPC   C1B71143  23.915  40.074   6.450
10029POPC   C2B71144  23.987  40.092   6.750
10029POPC   C3B71145  23.986  40.064   7.050
10029POPC   C4B71146  23.918  40.075   7.350
10030POPC   NC371147  15.934  29.113   5.550
10030POPC   PO471148  15.951  29.147   5.850
10030POPC   GL171149  15.936  29.187   6.150
10030POPC   GL271150  15.839  29.192   6.150
10030POPC   C1A71151  15.952  29.149   6.450
10030POPC   D2A71152  15.978  29.129   6.750
10030POPC   C3A71153  15.992  29.105   7.050
10030POPC   C4A71154  15.945  29.194   7.350
10030POPC   C1B71155  15.663  29.181   6.450
10030POPC   C2B71156  15.702  29.163   6.750
10030POPC   C3B71157  15.738  29.239   7.050
10030POPC   C4B71158  15.719  29.223   7.350
10031POPC   NC371159  37.685  36.910   5.550
10031POPC   PO471160  37.717  36.871   5.850
10031POPC   GL171161  37.657  36.864   6.150
10031POPC   GL271162  37.847  36.938   6.150
10031POPC   C1A71163  37.659  36.882   6.450
10031POPC   D2A71164  37.676  36.907   6.750
10031POPC   C3A71165  37.639  36.917   7.050
10031POPC   C4A71166  37.692  36.925   7.350
10031POPC   C1B71167  37.949  36.940   6.450
10031POPC   C2B71168  37.921  36.910   6.750
10031POPC   C3B71169  37.893  36.997   7.050
10031POPC   C4B71170  37.877  36.991   7.350
10032POPC   NC371171  22.973  15.188   5.550
10032POPC   PO471172  22.900  15.170   5.850
10032POPC   GL171173  22.934  15.192   6.150
10032POPC   GL271174  22.857  15.209   6.150
10032POPC   C1A71175  22.904  15.177   6.450
10032POPC   D2A71176  22.926  15.211   6.750
10032POPC   C3A71177  22.919  15.222   7.050
10032POPC   C4A71178  22.931  15.157   7.350
10032POPC   C1B71179  22.663  15.200   6.450
10032POPC   C2B71180  22.690  15.204   6.750
10032POPC   C3B71181  22.701  15.211   7.050
10032POPC   C4B71182  22.715  15.182   7.350
10033POPC   NC371183  26.033  31.497   5.550
10033POPC   PO471184  26.022  31.507   5.850
10033POPC   GL171185  26.045  31.490   6.150
10033POPC   GL271186  26.145  31.551   6.150
10033POPC   C1A71187  26.071  31.515   6.450
10033POPC   D2A71188  26.041  31.508   6.750
10033POPC   C3A71189  26.076  31.451   7.050
10033POPC   C4A71190  25.995  31.423   7.350
10033POPC   C1B71191  26.223  31.629   6.450
10033POPC   C2B71192  26.239  31.542   6.750
10033POPC   C3B71193  26.314  31.621   7.050
10033POPC   C4B71194  26.293  31.566   7.350
10034POPC   NC371195  28.338  36.922   5.550
10034POPC   PO471196  28.353  36.862   5.850
10034POPC   GL171197  28.336  36.951   6.150
10034POPC   GL271198  28.425  36.762   6.150
10034POPC   C1A71199  28.340  36.947   6.450
10034POPC   D2A71200  28.331  36.880   6.750
10034POPC   C3A71201  28.387  36.900   7.050
10034POPC   C4A71202  28.404  36.918   7.350
10034POPC   C1B71203  28.457  36.692   6.450
10034POPC   C2B71204  28.439  36.658   6.750
10034POPC   C3B71205  28.469  36.613   7.050
10034POPC   C4B71206  28.429  36.640   7.350
10035POPC   NC371207  36.160   9.786   5.550
10035POPC   PO471208  36.160   9.792   5.850
10035POPC   GL171209  36.141   9.760   6.150
10035POPC   GL271210  36.208   9.629   6.150
10035POPC   C1A71211  36.126   9.724   6.450
10035POPC   D2A71212  36.102   9.725   6.750
10035POPC   C3A71213  36.119   9.738   7.050
10035POPC   C4A71214  36.159   9.720   7.350
10035POPC   C1B71215  36.367   9.632   6.450
10035POPC   C2B71216  36.329   9.636   6.750
10035POPC   C3B71217  36.318   9.584   7.050
10035POPC   C4B71218  36.304   9.595   7.350
10036POPC   NC371219  37.709  12.044   5.550
10036POPC   PO471220  37.673  12.049   5.850
10036POPC   GL171221  37.690  12.071   6.150
10036POPC   GL271222  37.741  12.140   6.150
10036POPC   C1A71223  37.681  12.073   6.450
10036POPC   D2A71224  37.663  12.030   6.750
10036POPC   C3A71225  37.657  12.056   7.050
10036POPC   C4A71226  37.680  12.122   7.350
10036POPC   C1B71227  37.832  12.237   6.450
10036POPC   C2B71228  37.886  12.250   6.750
10036POPC   C3B71229  37.888  12.219   7.050
10036POPC   C4B71230  37.813  12.286   7.350
10037POPC   NC371231  31.498   8.214   5.550
10037POPC   PO471232  31.441   8.216   5.850
10037POPC   GL171233  31.424   8.149   6.150
10037POPC   GL271234  31.505   8.066   6.150
10037POPC   C1A71235  31.510   8.193   6.450
10037POPC   D2A71236  31.517   8.218   6.750
10037POPC   C3A71237  31.485   8.221   7.050
10037POPC   C4A71238  31.464   8.180   7.350
10037POPC   C1B71239  31.598   7.924   6.450
10037POPC   C2B71240  31.534   7.937   6.750
10037POPC   C3B71241  31.574   7.963   7.050
10037POPC   C4B71242  31.581   7.912   7.350
10038POPC   NC371243  40.807  19.052   5.550
10038POPC   PO471244  40.747  19.044   5.850
10038POPC   GL171245  40.757  19.048   6.150
10038POPC   GL271246  40.773  18.925   6.150
10038POPC   C1A71247  40.767  19.042   6.450
10038POPC   D2A71248  40.759  19.026   6.750
10038POPC   C3A71249  40.759  19.010   7.050
10038POPC   C4A71250  40.806  19.051   7.350
10038POPC   C1B71251  40.719  18.811   6.450
10038POPC   C2B71252  40.701  18.781   6.750
10038POPC   C3B71253  40.742  18.822   7.050
10038POPC   C4B71254  40.745  18.870   7.350
10039POPC   NC371255  26.830  39.185   5.550
10039POPC   PO471256  26.786  39.232   5.850
10039POPC   GL171257  26.821  39.191   6.150
10039POPC   GL271258  26.741  39.107   6.150
10039POPC   C1A71259  26.817  39.228   6.450
10039POPC   D2A71260  26.826  39.265   6.750
10039POPC   C3A71261  26.783  39.213   7.050
10039POPC   C4A71262  26.821  39.229   7.350
10039POPC   C1B71263  26.643  39.064   6.450
10039POPC   C2B71264  26.675  39.049   6.750
10039POPC   C3B71265  26.597  39.053   7.050
10039POPC   C4B71266  26.603  39.025   7.350
10040POPC   NC371267  34.607  32.997   5.550
10040POPC   PO471268  34.566  33.050   5.850
10040POPC   GL171269  34.528  33.014   6.150
10040POPC   GL271270  34.516  33.130   6.150
10040POPC   C1A71271  34.553  33.035   6.450
10040POPC   D2A71272  34.584  33.035   6.750
10040POPC   C3A71273  34.624  33.064   7.050
10040POPC   C4A71274  34.538  32.983   7.350
10040POPC   C1B71275  34.508  33.289   6.450
10040POPC   C2B71276  34.458  33.251   6.750
10040POPC   C3B71277  34.441  33.288   7.050
10040POPC   C4B71278  34.469  33.266   7.350
10041POPC   NC371279  12.805  35.390   5.550
10041POPC   PO471280  12.825  35.314   5.850
10041POPC   GL171281  12.857  35.370   6.150
10041POPC   GL271282  12.912  35.242   6.150
10041POPC   C1A71283  12.855  35.312   6.450
10041POPC   D2A71284  12.828  35.358   6.750
10041POPC   C3A71285  12.818  35.305   7.050
10041POPC   C4A71286  12.804  35.380   7.350
10041POPC   C1B71287  13.058  35.149   6.450
10041POPC   C2B71288  13.005  35.159   6.750
10041POPC   C3B71289  12.994  35.163   7.050
10041POPC   C4B71290  13.053  35.213   7.350
10042POPC   NC371291  13.672  29.152   5.550
10042POPC   PO471292  13.669  29.153   5.850
10042POPC   GL171293  13.621  29.185   6.150
10042POPC   GL271294  13.501  29.077   6.150
10042POPC   C1A71295  13.596  29.188   6.450
10042POPC   D2A71296  13.578  29.121   6.750
10042POPC   C3A71297  13.652  29.123   7.050
10042POPC   C4A71298  13.613  29.140   7.350
10042POPC   C1B71299  13.398  29.095   6.450
10042POPC   C2B71300  13.369  29.131   6.750
10042POPC   C3B71301  13.368  29.070   7.050
10042POPC   C4B71302  13.373  29.083   7.350
10043POPC   NC371303   6.653   9.772   5.550
10043POPC   PO471304   6.615   9.700   5.850
10043POPC   GL171305   6.641   9.781   6.150
10043POPC   GL271306   6.565   9.666   6.150
10043POPC   C1A71307   6.620   9.790   6.450
10043POPC   D2A71308   6.629   9.770   6.750
10043POPC   C3A71309   6.677   9.781   7.050
10043POPC   C4A71310   6.622   9.794   7.350
10043POPC   C1B71311   6.528   9.542   6.450
10043POPC   C2B71312   6.560   9.553   6.750
10043POPC   C3B71313   6.495   9.486   7.050
10043POPC   C4B71314   6.554   9.494   7.350
10044POPC   NC371315  12.111  19.823   5.550
10044POPC   PO471316  12.066  19.810   5.850
10044POPC   GL171317  12.059  19.869   6.150
10044POPC   GL271318  12.201  19.744   6.150
10044POPC   C1A71319  12.049  19.873   6.450
10044POPC   D2A71320  12.051  19.837   6.750
10044POPC   C3A71321  12.099  19.869   7.050
10044POPC   C4A71322  12.057  19.786   7.350
10044POPC   C1B71323  12.227  19.676   6.450
10044POPC   C2B71324  12.272  19.596   6.750
10044POPC   C3B71325  12.233  19.601   7.050
10044POPC   C4B71326  12.193  19.643   7.350
10045POPC   NC371327  43.843  16.685   5.550
10045POPC   PO471328  43.923  16.734   5.850
10045POPC   GL171329  43.860  16.717   6.150
10045POPC   GL271330  43.940  16.843   6.150
10045POPC   C1A71331  43.928  16.685   6.450
10045POPC   D2A71332  43.914  16.699   6.750
10045POPC   C3A71333  43.842  16.747   7.050
10045POPC   C4A71334  43.861  16.774   7.350
10045POPC   C1B71335  44.093  16.909   6.450
10045POPC   C2B71336  44.118  16.873   6.750
10045POPC   C3B71337  44.121  16.924   7.050
10045POPC   C4B71338  44.067  16.869   7.350
10046POPC   NC371339  33.784   2.792   5.550
10046POPC   PO471340  33.784   2.791   5.850
10046POPC   GL171341  33.832   2.755   6.150
10046POPC   GL271342  33.834   2.665   6.150
10046POPC   C1A71343  33.763   2.725   6.450
10046POPC   D2A71344  33.850   2.793   6.750
10046POPC   C3A71345  33.841   2.804   7.050
10046POPC   C4A71346  33.808   2.799   7.350
10046POPC   C1B71347  33.895   2.550   6.450
10046POPC   C2B71348  33.895   2.559   6.750
10046POPC   C3B71349  33.923   2.569   7.050
10046POPC   C4B71350  33.867   2.534   7.350
10047POPC   NC371351  26.785  18.247   5.550
10047POPC   PO471352  26.806  18.277   5.850
10047POPC   GL171353  26.857  18.246   6.150
10047POPC   GL271354  26.665  18.303   6.150
10047POPC   C1A71355  26.783  18.245   6.450
10047POPC   D2A71356  26.867  18.303   6.750
10047POPC   C3A71357  26.806  18.244   7.050
10047POPC   C4A71358  26.793  18.256   7.350
10047POPC   C1B71359  26.593  18.394   6.450
10047POPC   C2B71360  26.619  18.396   6.750
10047POPC   C3B71361  26.540  18.318   7.050
10047POPC   C4B71362  26.626  18.324   7.350
10048POPC   NC371363  22.980  22.912   5.550
10048POPC   PO471364  22.979  22.909   5.850
10048POPC   GL171365  22.912  22.954   6.150
10048POPC   GL271366  23.036  22.875   6.150
10048POPC   C1A71367  22.930  22.968   6.450
10048POPC   D2A71368  22.911  22.963   6.750
10048POPC   C3A71369  22.938  22.925   7.050
10048POPC   C4A71370  22.932  22.968   7.350
10048POPC   C1B71371  23.112  22.717   6.450
10048POPC   C2B71372  23.087  22.775   6.750
10048POPC   C3B71373  23.086  22.751   7.050
10048POPC   C4B71374  23.142  22.710   7.350
10049POPC   NC371375   9.746  39.231   5.550
10049POPC   PO471376   9.699  39.239   5.850
10049POPC   GL171377   9.728  39.204   6.150
10049POPC   GL271378   9.833  39.256   6.150
10049POPC   C1A71379   9.708  39.278   6.450
10049POPC   D2A71380   9.771  39.264   6.750
10049POPC   C3A71381   9.729  39.183   7.050
10049POPC   C4A71382   9.716  39.188   7.350
10049POPC   C1B71383   9.988  39.350   6.450
10049POPC   C2B71384   9.989  39.393   6.750
10049POPC   C3B71385   9.976  39.309   7.050
10049POPC   C4B71386   9.975  39.344   7.350
10050POPC   NC371387   7.406  30.738   5.550
10050POPC   PO471388   7.441  30.678   5.850
10050POPC   GL171389   7.426  30.739   6.150
10050POPC   GL271390   7.310  30.760   6.150
10050POPC   C1A71391   7.406  30.667   6.450
10050POPC   D2A71392   7.454  30.647   6.750
10050POPC   C3A71393   7.388  30.692   7.050
10050POPC   C4A71394   7.460  30.730   7.350
10050POPC   C1B71395   7.248  30.935   6.450
10050POPC   C2B71396   7.305  30.858   6.750
10050POPC   C3B71397   7.263  30.919   7.050
10050POPC   C4B71398   7.282  30.897   7.350
10051POPC   NC371399  27.576   5.834   5.550
10051POPC   PO471400  27.628   5.838   5.850
10051POPC   GL171401  27.610   5.851   6.150
10051POPC   GL271402  27.436   5.935   6.150
10051POPC   C1A71403  27.629   5.901   6.450
10051POPC   D2A71404  27.551   5.847   6.750
10051POPC   C3A71405  27.620   5.919   7.050
10051POPC   C4A71406  27.562   5.909   7.350
10051POPC   C1B71407  27.392   5.988   6.450
10051POPC   C2B71408  27.378   6.026   6.750
10051POPC   C3B71409  27.371   6.009   7.050
10051POPC   C4B71410  27.378   5.949   7.350
10052POPC   NC371411  11.253  44.627   5.550
10052POPC   PO471412  11.304  44.709   5.850
10052POPC   GL171413  11.302  44.705   6.150
10052POPC   GL271414  11.224  44.682   6.150
10052POPC   C1A71415  11.270  44.685   6.450
10052POPC   D2A71416  11.318  44.614   6.750
10052POPC   C3A71417  11.311  44.638   7.050
10052POPC   C4A71418  11.322  44.668   7.350
10052POPC   C1B71419  11.073  44.697   6.450
10052POPC   C2B71420  11.002  44.651   6.750
10052POPC   C3B71421  11.093  44.649   7.050
10052POPC   C4B71422  11.019  44.681   7.350
10053POPC   NC371423  12.072  33.067   5.550
10053POPC   PO471424  12.026  33.066   5.850
10053POPC   GL171425  12.049  33.027   6.150
10053POPC   GL271426  12.021  32.910   6.150
10053POPC   C1A71427  12.043  33.060   6.450
10053POPC   D2A71428  12.028  33.072   6.750
10053POPC   C3A71429  12.080  32.987   7.050
10053POPC   C4A71430  12.066  33.066   7.350
10053POPC   C1B71431  11.995  32.822   6.450
10053POPC   C2B71432  12.034  32.810   6.750
10053POPC   C3B71433  12.031  32.801   7.050
10053POPC   C4B71434  12.009  32.822   7.350
10054POPC   NC371435  31.513  23.699   5.550
10054POPC   PO471436  31.516  23.682   5.850
10054POPC   GL171437  31.489  23.703   6.150
10054POPC   GL271438  31.571  23.840   6.150
10054POPC   C1A71439  31.450  23.685   6.450
10054POPC   D2A71440  31.456  23.728   6.750
10054POPC   C3A71441  31.500  23.735   7.050
10054POPC   C4A71442  31.502  23.757   7.350
10054POPC   C1B71443  31.588  23.878   6.450
10054POPC   C2B71444  31.621  23.950   6.750
10054POPC   C3B71445  31.592  23.921   7.050
10054POPC   C4B71446  31.595  23.891   7.350
10055POPC   NC371447   7.403   3.496   5.550
10055POPC   PO471448   7.408   3.557   5.850
10055POPC   GL171449   7.392   3.564   6.150
10055POPC   GL271450   7.379   3.665   6.150
10055POPC   C1A71451   7.387   3.509   6.450
10055POPC   D2A71452   7.454   3.567   6.750
10055POPC   C3A71453   7.393   3.502   7.050
10055POPC   C4A71454   7.454   3.552   7.350
10055POPC   C1B71455   7.405   3.783   6.450
10055POPC   C2B71456   7.356   3.744   6.750
10055POPC   C3B71457   7.350   3.771   7.050
10055POPC   C4B71458   7.362   3.742   7.350
10056POPC   NC371459  26.004  30.690   5.550
10056POPC   PO471460  26.000  30.735   5.850
10056POPC   GL171461  26.036  30.734   6.150
10056POPC   GL271462  25.995  30.852   6.150
10056POPC   C1A71463  26.067  30.716   6.450
10056POPC   D2A71464  26.065  30.710   6.750
10056POPC   C3A71465  26.087  30.728   7.050
10056POPC   C4A71466  26.054  30.678   7.350
10056POPC   C1B71467  26.024  30.928   6.450
10056POPC   C2B71468  26.035  30.990   6.750
10056POPC   C3B71469  26.077  30.975   7.050
10056POPC   C4B71470  25.995  30.990   7.350
10057POPC   NC371471  15.198  30.676   5.550
10057POPC   PO471472  15.204  30.667   5.850
10057POPC   GL171473  15.184  30.679   6.150
10057POPC   GL271474  15.291  30.666   6.150
10057POPC   C1A71475  15.207  30.694   6.450
10057POPC   D2A71476  15.224  30.655   6.750
10057POPC   C3A71477  15.216  30.726   7.050
10057POPC   C4A71478  15.211  30.676   7.350
10057POPC   C1B71479  15.369  30.538   6.450
10057POPC   C2B71480  15.342  30.552   6.750
10057POPC   C3B71481  15.373  30.497   7.050
10057POPC   C4B71482  15.334  30.587   7.350
10058POPC   NC371483  41.539   6.620   5.550
10058POPC   PO471484  41.517   6.652   5.850
10058POPC   GL171485  41.559   6.651   6.150
10058POPC   GL271486  41.528   6.801   6.150
10058POPC   C1A71487  41.584   6.693   6.450
10058POPC   D2A71488  41.545   6.605   6.750
10058POPC   C3A71489  41.582   6.638   7.050
10058POPC   C4A71490  41.541   6.672   7.350
10058POPC   C1B71491  41.476   6.854   6.450
10058POPC   C2B71492  41.405   6.837   6.750
10058POPC   C3B71493  41.441   6.837   7.050
10058POPC   C4B71494  41.475   6.889   7.350
10059POPC   NC371495  26.783  32.255   5.550
10059POPC   PO471496  26.798  32.208   5.850
10059POPC   GL171497  26.831  32.205   6.150
10059POPC   GL271498  26.675  32.261   6.150
10059POPC   C1A71499  26.850  32.217   6.450
10059POPC   D2A71500  26.794  32.204   6.750
10059POPC   C3A71501  26.771  32.286   7.050
10059POPC   C4A71502  26.784  32.212   7.350
10059POPC   C1B71503  26.538  32.358   6.450
10059POPC   C2B71504  26.562  32.326   6.750
10059POPC   C3B71505  26.600  32.350   7.050
10059POPC   C4B71506  26.578  32.300   7.350
10060POPC   NC371507  16.768  27.588   5.550
10060POPC   PO471508  16.725  27.605   5.850
10060POPC   GL171509  16.700  27.577   6.150
10060POPC   GL271510  16.855  27.661   6.150
10060POPC   C1A71511  16.687  27.578   6.450
10060POPC   D2A71512  16.688  27.611   6.750
10060POPC   C3A71513  16.777  27.624   7.050
10060POPC   C4A71514  16.719  27.595   7.350
10060POPC   C1B71515  16.856  27.817   6.450
10060POPC   C2B71516  16.855  27.813   6.750
10060POPC   C3B71517  16.867  27.812   7.050
10060POPC   C4B71518  16.871  27.793   7.350
10061POPC   NC371519  43.098   8.948   5.550
10061POPC   PO471520  43.138   9.006   5.850
10061POPC   GL171521  43.096   8.999   6.150
10061POPC   GL271522  43.164   8.867   6.150
10061POPC   C1A71523  43.080   8.983   6.450
10061POPC   D2A71524  43.152   8.964   6.750
10061POPC   C3A71525  43.121   9.002   7.050
10061POPC   C4A71526  43.083   8.978   7.350
10061POPC   C1B71527  43.275   8.717   6.450
10061POPC   C2B71528  43.278   8.763   6.750
10061POPC   C3B71529  43.249   8.766   7.050
10061POPC   C4B71530  43.189   8.708   7.350
10062POPC   NC371531  10.560  43.082   5.550
10062POPC   PO471532  10.559  43.070   5.850
10062POPC   GL171533  10.552  43.078   6.150
10062POPC   GL271534  10.606  43.141   6.150
10062POPC   C1A71535  10.569  43.148   6.450
10062POPC   D2A71536  10.506  43.138   6.750
10062POPC   C3A71537  10.544  43.146   7.050
10062POPC   C4A71538  10.528  43.074   7.350
10062POPC   C1B71539  10.753  43.063   6.450
10062POPC   C2B71540  10.748  43.140   6.750
10062POPC   C3B71541  10.736  43.095   7.050
10062POPC   C4B71542  10.802  43.085   7.350
10063POPC   NC371543  19.839   1.186   5.550
10063POPC   PO471544  19.803   1.229   5.850
10063POPC   GL171545  19.795   1.221   6.150
10063POPC   GL271546  19.909   1.296   6.150
10063POPC   C1A71547  19.863   1.209   6.450
10063POPC   D2A71548  19.798   1.201   6.750
10063POPC   C3A71549  19.841   1.196   7.050
10063POPC   C4A71550  19.798   1.262   7.350
10063POPC   C1B71551  20.054   1.391   6.450
10063POPC   C2B71552  19.971   1.385   6.750
10063POPC   C3B71553  20.049   1.406   7.050
10063POPC   C4B71554  20.038   1.406   7.350
10064POPC   NC371555   3.511  15.168   5.550
10064POPC   PO471556   3.549  15.208   5.850
10064POPC   GL171557   3.546  15.139   6.150
10064POPC   GL271558   3.424  15.137   6.150
10064POPC   C1A71559   3.513  15.143   6.450
10064POPC   D2A71560   3.499  15.167   6.750
10064POPC   C3A71561   3.506  15.196   7.050
10064POPC   C4A71562   3.583  15.212   7.350
10064POPC   C1B71563   3.342  15.070   6.450
10064POPC   C2B71564   3.268  15.056   6.750
10064POPC   C3B71565   3.289  15.062   7.050
10064POPC   C4B71566   3.284  15.118   7.350
10065POPC   NC371567   1.168  16.726   5.550
10065POPC   PO471568   1.201  16.731   5.850
10065POPC   GL171569   1.224  16.753   6.150
10065POPC   GL271570   1.256  16.843   6.150
10065POPC   C1A71571   1.170  16.762   6.450
10065POPC   D2A71572   1.207  16.737   6.750
10065POPC   C3A71573   1.240  16.756   7.050
10065POPC   C4A71574   1.230  16.692   7.350
10065POPC   C1B71575   1.278  16.949   6.450
10065POPC   C2B71576   1.331  16.949   6.750
10065POPC   C3B71577   1.282  17.015   7.050
10065POPC   C4B71578   1.269  16.933   7.350
10066POPC   NC371579   1.235  12.060   5.550
10066POPC   PO471580   1.190  12.051   5.850
10066POPC   GL171581   1.256  12.079   6.150
10066POPC   GL271582   1.173  12.133   6.150
10066POPC   C1A71583   1.168  12.075   6.450
10066POPC   D2A71584   1.201  12.101   6.750
10066POPC   C3A71585   1.250  12.040   7.050
10066POPC   C4A71586   1.225  12.068   7.350
10066POPC   C1B71587   1.060  12.340   6.450
10066POPC   C2B71588   1.066  12.263   6.750
10066POPC   C3B71589   1.115  12.274   7.050
10066POPC   C4B71590   1.120  12.255   7.350
10067POPC   NC371591  19.046  22.986   5.550
10067POPC   PO471592  19.086  22.903   5.850
10067POPC   GL171593  19.083  22.901   6.150
10067POPC   GL271594  18.992  23.032   6.150
10067POPC   C1A71595  19.090  22.968   6.450
10067POPC   D2A71596  19.095  22.894   6.750
10067POPC   C3A71597  19.021  22.988   7.050
10067POPC   C4A71598  19.018  22.970   7.350
10067POPC   C1B71599  18.993  23.188   6.450
10067POPC   C2B71600  19.069  23.222   6.750
10067POPC   C3B71601  19.059  23.136   7.050
10067POPC   C4B71602  19.010  23.151   7.350
10068POPC   NC371603  38.491  17.488   5.550
10068POPC   PO471604  38.443  17.493   5.850
10068POPC   GL171605  38.489  17.549   6.150
10068POPC   GL271606  38.443  17.390   6.150
10068POPC   C1A71607  38.420  17.465   6.450
10068POPC   D2A71608  38.408  17.554   6.750
10068POPC   C3A71609  38.496  17.513   7.050
10068POPC   C4A71610  38.472  17.556   7.350
10068POPC   C1B71611  38.373  17.305   6.450
10068POPC   C2B71612  38.332  17.320   6.750
10068POPC   C3B71613  38.366  17.266   7.050
10068POPC   C4B71614  38.296  17.305   7.350
10069POPC   NC371615  25.292  42.378   5.550
10069POPC   PO471616  25.216  42.352   5.850
10069POPC   GL171617  25.228  42.314   6.150
10069POPC   GL271618  25.204  42.269   6.150
10069POPC   C1A71619  25.250  42.381   6.450
10069POPC   D2A71620  25.244  42.350   6.750
10069POPC   C3A71621  25.267  42.359   7.050
10069POPC   C4A71622  25.256  42.299   7.350
10069POPC   C1B71623  25.092  42.245   6.450
10069POPC   C2B71624  25.010  42.171   6.750
10069POPC   C3B71625  25.093  42.210   7.050
10069POPC   C4B71626  25.065  42.168   7.350
10070POPC   NC371627  40.769  16.727   5.550
10070POPC   PO471628  40.799  16.706   5.850
10070POPC   GL171629  40.772  16.699   6.150
10070POPC   GL271630  40.910  16.764   6.150
10070POPC   C1A71631  40.788  16.736   6.450
10070POPC   D2A71632  40.766  16.702   6.750
10070POPC   C3A71633  40.734  16.732   7.050
10070POPC   C4A71634  40.802  16.685   7.350
10070POPC   C1B71635  41.033  16.751   6.450
10070POPC   C2B71636  41.048  16.749   6.750
10070POPC   C3B71637  41.014  16.688   7.050
10070POPC   C4B71638  41.005  16.728   7.350
10071POPC   NC371639  29.881  29.939   5.550
10071POPC   PO471640  29.910  29.947   5.850
10071POPC   GL171641  29.907  29.875   6.150
10071POPC   GL271642  29.909  30.079   6.150
10071POPC   C1A71643  29.907  29.960   6.450
10071POPC   D2A71644  29.957  29.908   6.750
10071POPC   C3A71645  29.940  29.871   7.050
10071POPC   C4A71646  29.889  29.886   7.350
10071POPC   C1B71647  29.901  30.185   6.450
10071POPC   C2B71648  29.907  30.214   6.750
10071POPC   C3B71649  29.973  30.155   7.050
10071POPC   C4B71650  29.955  30.194   7.350
10072POPC   NC371651  10.489  26.023   5.550
10072POPC   PO471652  10.518  25.998   5.850
10072POPC   GL171653  10.510  26.009   6.150
10072POPC   GL271654  10.619  26.114   6.150
10072POPC   C1A71655  10.474  26.053   6.450
10072POPC   D2A71656  10.478  26.078   6.750
10072POPC   C3A71657  10.522  26.087   7.050
10072POPC   C4A71658  10.502  26.042   7.350
10072POPC   C1B71659  10.630  26.264   6.450
10072POPC   C2B71660  10.672  26.302   6.750
10072POPC   C3B71661  10.645  26.288   7.050
10072POPC   C4B71662  10.649  26.236   7.350
10073POPC   NC371663  18.288   4.330   5.550
10073POPC   PO471664  18.311   4.329   5.850
10073POPC   GL171665  18.249   4.332   6.150
10073POPC   GL271666  18.296   4.440   6.150
10073POPC   C1A71667  18.321   4.283   6.450
10073POPC   D2A71668  18.277   4.364   6.750
10073POPC   C3A71669  18.279   4.281   7.050
10073POPC   C4A71670  18.280   4.272   7.350
10073POPC   C1B71671  18.261   4.576   6.450
10073POPC   C2B71672  18.324   4.596   6.750
10073POPC   C3B71673  18.288   4.581   7.050
10073POPC   C4B71674  18.293   4.572   7.350
10074POPC   NC371675  40.819  17.531   5.550
10074POPC   PO471676  40.735  17.542   5.850
10074POPC   GL171677  40.829  17.550   6.150
10074POPC   GL271678  40.682  17.388   6.150
10074POPC   C1A71679  40.813  17.531   6.450
10074POPC   D2A71680  40.784  17.462   6.750
10074POPC   C3A71681  40.830  17.477   7.050
10074POPC   C4A71682  40.760  17.478   7.350
10074POPC   C1B71683  40.682  17.255   6.450
10074POPC   C2B71684  40.653  17.333   6.750
10074POPC   C3B71685  40.629  17.318   7.050
10074POPC   C4B71686  40.671  17.307   7.350
10075POPC   NC371687  34.560  21.340   5.550
10075POPC   PO471688  34.537  21.427   5.850
10075POPC   GL171689  34.545  21.399   6.150
10075POPC   GL271690  34.605  21.307   6.150
10075POPC   C1A71691  34.573  21.379   6.450
10075POPC   D2A71692  34.584  21.344   6.750
10075POPC   C3A71693  34.544  21.420   7.050
10075POPC   C4A71694  34.589  21.373   7.350
10075POPC   C1B71695  34.697  21.204   6.450
10075POPC   C2B71696  34.642  21.182   6.750
10075POPC   C3B71697  34.682  21.203   7.050
10075POPC   C4B71698  34.636  21.180   7.350
10076POPC   NC371699   5.086  33.846   5.550
10076POPC   PO471700   5.129  33.823   5.850
10076POPC   GL171701   5.064  33.818   6.150
10076POPC   GL271702   5.089  33.715   6.150
10076POPC   C1A71703   5.132  33.785   6.450
10076POPC   D2A71704   5.054  33.787   6.750
10076POPC   C3A71705   5.052  33.787   7.050
10076POPC   C4A71706   5.105  33.791   7.350
10076POPC   C1B71707   5.020  33.530   6.450
10076POPC   C2B71708   5.051  33.557   6.750
10076POPC   C3B71709   4.991  33.541   7.050
10076POPC   C4B71710   5.063  33.574   7.350
10077POPC   NC371711  42.302  29.952   5.550
10077POPC   PO471712  42.347  29.926   5.850
10077POPC   GL171713  42.352  29.897   6.150
10077POPC   GL271714  42.349  30.002   6.150
10077POPC   C1A71715  42.311  29.921   6.450
10077POPC   D2A71716  42.324  29.885   6.750
10077POPC   C3A71717  42.315  29.959   7.050
10077POPC   C4A71718  42.373  29.876   7.350
10077POPC   C1B71719  42.403  30.152   6.450
10077POPC   C2B71720  42.415  30.120   6.750
10077POPC   C3B71721  42.419  30.187   7.050
10077POPC   C4B71722  42.419  30.193   7.350
10078POPC   NC371723  39.249  12.857   5.550
10078POPC   PO471724  39.190  12.804   5.850
10078POPC   GL171725  39.270  12.899   6.150
10078POPC   GL271726  39.279  12.684   6.150
10078POPC   C1A71727  39.235  12.846   6.450
10078POPC   D2A71728  39.277  12.806   6.750
10078POPC   C3A71729  39.205  12.806   7.050
10078POPC   C4A71730  39.232  12.877   7.350
10078POPC   C1B71731  39.304  12.575   6.450
10078POPC   C2B71732  39.300  12.608   6.750
10078POPC   C3B71733  39.326  12.573   7.050
10078POPC   C4B71734  39.331  12.633   7.350
10079POPC   NC371735  35.399  12.039   5.550
10079POPC   PO471736  35.344  12.121   5.850
10079POPC   GL171737  35.373  12.063   6.150
10079POPC   GL271738  35.206  12.018   6.150
10079POPC   C1A71739  35.396  12.048   6.450
10079POPC   D2A71740  35.367  12.066   6.750
10079POPC   C3A71741  35.306  12.069   7.050
10079POPC   C4A71742  35.318  12.110   7.350
10079POPC   C1B71743  35.133  11.924   6.450
10079POPC   C2B71744  35.081  12.004   6.750
10079POPC   C3B71745  35.126  11.990   7.050
10079POPC   C4B71746  35.176  11.932   7.350
10080POPC   NC371747  12.051  35.401   5.550
10080POPC   PO471748  12.058  35.370   5.850
10080POPC   GL171749  12.041  35.356   6.150
10080POPC   GL271750  12.005  35.459   6.150
10080POPC   C1A71751  12.119  35.368   6.450
10080POPC   D2A71752  12.121  35.339   6.750
10080POPC   C3A71753  12.092  35.303   7.050
10080POPC   C4A71754  12.078  35.310   7.350
10080POPC   C1B71755  11.909  35.499   6.450
10080POPC   C2B71756  11.881  35.527   6.750
10080POPC   C3B71757  11.910  35.550   7.050
10080POPC   C4B71758  11.932  35.509   7.350
10081POPC   NC371759  36.894  10.536   5.550
10081POPC   PO471760  36.882  10.513   5.850
10081POPC   GL171761  36.935  10.566   6.150
10081POPC   GL271762  36.973  10.615   6.150
10081POPC   C1A71763  36.892  10.541   6.450
10081POPC   D2A71764  36.860  10.567   6.750
10081POPC   C3A71765  36.861  10.547   7.050
10081POPC   C4A71766  36.886  10.522   7.350
10081POPC   C1B71767  36.917  10.729   6.450
10081POPC   C2B71768  36.981  10.747   6.750
10081POPC   C3B71769  36.989  10.760   7.050
10081POPC   C4B71770  36.951  10.760   7.350
10082POPC   NC371771  37.672  43.868   5.550
10082POPC   PO471772  37.657  43.914   5.850
10082POPC   GL171773  37.661  43.838   6.150
10082POPC   GL271774  37.765  43.993   6.150
10082POPC   C1A71775  37.678  43.874   6.450
10082POPC   D2A71776  37.674  43.909   6.750
10082POPC   C3A71777  37.667  43.872   7.050
10082POPC   C4A71778  37.673  43.879   7.350
10082POPC   C1B71779  37.883  43.984   6.450
10082POPC   C2B71780  37.859  44.023   6.750
10082POPC   C3B71781  37.843  43.985   7.050
10082POPC   C4B71782  37.868  44.072   7.350
10083POPC   NC371783  43.097  13.664   5.550
10083POPC   PO471784  43.063  13.656   5.850
10083POPC   GL171785  43.082  13.617   6.150
10083POPC   GL271786  43.240  13.678   6.150
10083POPC   C1A71787  43.092  13.669   6.450
10083POPC   D2A71788  43.107  13.634   6.750
10083POPC   C3A71789  43.133  13.650   7.050
10083POPC   C4A71790  43.117  13.658   7.350
10083POPC   C1B71791  43.409  13.671   6.450
10083POPC   C2B71792  43.410  13.653   6.750
10083POPC   C3B71793  43.365  13.662   7.050
10083POPC   C4B71794  43.374  13.627   7.350
10084POPC   NC371795  20.570  12.870   5.550
10084POPC   PO471796  20.654  12.886   5.850
10084POPC   GL171797  20.652  12.882   6.150
10084POPC   GL271798  20.557  12.964   6.150
10084POPC   C1A71799  20.620  12.847   6.450
10084POPC   D2A71800  20.583  12.849   6.750
10084POPC   C3A71801  20.572  12.874   7.050
10084POPC   C4A71802  20.651  12.899   7.350
10084POPC   C1B71803  20.546  13.123   6.450
10084POPC   C2B71804  20.581  13.138   6.750
10084POPC   C3B71805  20.579  13.095   7.050
10084POPC   C4B71806  20.519  13.130   7.350
10085POPC   NC371807  36.113  22.200   5.550
10085POPC   PO471808  36.166  22.143   5.850
10085POPC   GL171809  36.133  22.207   6.150
10085POPC   GL271810  36.011  22.067   6.150
10085POPC   C1A71811  36.137  22.125   6.450
10085POPC   D2A71812  36.102  22.115   6.750
10085POPC   C3A71813  36.172  22.198   7.050
10085POPC   C4A71814  36.124  22.177   7.350
10085POPC   C1B71815  35.947  21.967   6.450
10085POPC   C2B71816  35.976  21.991   6.750
10085POPC   C3B71817  35.951  21.984   7.050
10085POPC   C4B71818  35.926  21.959   7.350
10086POPC   NC371819  23.741   1.982   5.550
10086POPC   PO471820  23.721   1.943   5.850
10086POPC   GL171821  23.743   1.940   6.150
10086POPC   GL271822  23.644   2.039   6.150
10086POPC   C1A71823  23.715   1.995   6.450
10086POPC   D2A71824  23.701   1.961   6.750
10086POPC   C3A71825  23.714   1.975   7.050
10086POPC   C4A71826  23.760   2.003   7.350
10086POPC   C1B71827  23.509   2.144   6.450
10086POPC   C2B71828  23.487   2.109   6.750
10086POPC   C3B71829  23.545   2.114   7.050
10086POPC   C4B71830  23.528   2.123   7.350
10087POPC   NC371831  44.692  31.445   5.550
10087POPC   PO471832  44.707  31.455   5.850
10087POPC   GL171833  44.683  31.485   6.150
10087POPC   GL271834  44.674  31.569   6.150
10087POPC   C1A71835  44.660  31.448   6.450
10087POPC   D2A71836  44.616  31.507   6.750
10087POPC   C3A71837  44.640  31.487   7.050
10087POPC   C4A71838  44.695  31.432   7.350
10087POPC   C1B71839  44.598  31.686   6.450
10087POPC   C2B71840  44.669  31.767   6.750
10087POPC   C3B71841  44.619  31.710   7.050
10087POPC   C4B71842  44.626  31.699   7.350
10088POPC   NC371843  19.049  40.798   5.550
10088POPC   PO471844  19.100  40.769   5.850
10088POPC   GL171845  19.037  40.810   6.150
10088POPC   GL271846  19.016  40.884   6.150
10088POPC   C1A71847  19.049  40.825   6.450
10088POPC   D2A71848  19.098  40.805   6.750
10088POPC   C3A71849  19.048  40.741   7.050
10088POPC   C4A71850  19.049  40.779   7.350
10088POPC   C1B71851  19.080  41.074   6.450
10088POPC   C2B71852  19.051  41.000   6.750
10088POPC   C3B71853  19.097  41.071   7.050
10088POPC   C4B71854  19.036  41.038   7.350
10089POPC   NC371855  12.853  38.434   5.550
10089POPC   PO471856  12.835  38.446   5.850
10089POPC   GL171857  12.872  38.496   6.150
10089POPC   GL271858  12.883  38.330   6.150
10089POPC   C1A71859  12.857  38.480   6.450
10089POPC   D2A71860  12.897  38.427   6.750
10089POPC   C3A71861  12.875  38.483   7.050
10089POPC   C4A71862  12.875  38.488   7.350
10089POPC   C1B71863  12.866  38.183   6.450
10089POPC   C2B71864  12.795  38.219   6.750
10089POPC   C3B71865  12.792  38.200   7.050
10089POPC   C4B71866  12.793  38.172   7.350
10090POPC   NC371867  35.385   9.744   5.550
10090POPC   PO471868  35.327   9.705   5.850
10090POPC   GL171869  35.368   9.730   6.150
10090POPC   GL271870  35.228   9.729   6.150
10090POPC   C1A71871  35.353   9.767   6.450
10090POPC   D2A71872  35.331   9.714   6.750
10090POPC   C3A71873  35.339   9.765   7.050
10090POPC   C4A71874  35.397   9.703   7.350
10090POPC   C1B71875  35.080   9.789   6.450
10090POPC   C2B71876  35.119   9.759   6.750
10090POPC   C3B71877  35.063   9.793   7.050
10090POPC   C4B71878  35.140   9.809   7.350
10091POPC   NC371879  21.414   6.671   5.550
10091POPC   PO471880  21.418   6.673   5.850
10091POPC   GL171881  21.391   6.627   6.150
10091POPC   GL271882  21.247   6.601   6.150
10091POPC   C1A71883  21.425   6.661   6.450
10091POPC   D2A71884  21.403   6.615   6.750
10091POPC   C3A71885  21.378   6.638   7.050
10091POPC   C4A71886  21.434   6.694   7.350
10091POPC   C1B71887  21.169   6.602   6.450
10091POPC   C2B71888  21.104   6.591   6.750
10091POPC   C3B71889  21.117   6.653   7.050
10091POPC   C4B71890  21.153   6.623   7.350
10092POPC   NC371891  15.220  29.126   5.550
10092POPC   PO471892  15.132  29.163   5.850
10092POPC   GL171893  15.169  29.102   6.150
10092POPC   GL271894  15.196  29.059   6.150
10092POPC   C1A71895  15.153  29.104   6.450
10092POPC   D2A71896  15.217  29.175   6.750
10092POPC   C3A71897  15.182  29.181   7.050
10092POPC   C4A71898  15.149  29.187   7.350
10092POPC   C1B71899  15.203  28.927   6.450
10092POPC   C2B71900  15.203  28.867   6.750
10092POPC   C3B71901  15.134  28.942   7.050
10092POPC   C4B71902  15.145  28.944   7.350
10093POPC   NC371903  17.479  40.026   5.550
10093POPC   PO471904  17.488  40.028   5.850
10093POPC   GL171905  17.534  39.991   6.150
10093POPC   GL271906  17.429  40.151   6.150
10093POPC   C1A71907  17.532  40.031   6.450
10093POPC   D2A71908  17.520  40.023   6.750
10093POPC   C3A71909  17.484  40.044   7.050
10093POPC   C4A71910  17.513  39.963   7.350
10093POPC   C1B71911  17.418  40.250   6.450
10093POPC   C2B71912  17.363  40.226   6.750
10093POPC   C3B71913  17.435  40.226   7.050
10093POPC   C4B71914  17.368  40.193   7.350
10094POPC   NC371915  42.295  16.766   5.550
10094POPC   PO471916  42.362  16.708   5.850
10094POPC   GL171917  42.323  16.770   6.150
10094POPC   GL271918  42.374  16.685   6.150
10094POPC   C1A71919  42.384  16.750   6.450
10094POPC   D2A71920  42.354  16.761   6.750
10094POPC   C3A71921  42.285  16.716   7.050
10094POPC   C4A71922  42.375  16.709   7.350
10094POPC   C1B71923  42.487  16.554   6.450
10094POPC   C2B71924  42.518  16.588   6.750
10094POPC   C3B71925  42.533  16.568   7.050
10094POPC   C4B71926  42.511  16.528   7.350
10095POPC   NC371927  22.931  10.496   5.550
10095POPC   PO471928  22.902  10.570   5.850
10095POPC   GL171929  22.893  10.567   6.150
10095POPC   GL271930  22.797  10.455   6.150
10095POPC   C1A71931  22.933  10.514   6.450
10095POPC   D2A71932  22.972  10.556   6.750
10095POPC   C3A71933  22.967  10.504   7.050
10095POPC   C4A71934  22.988  10.573   7.350
10095POPC   C1B71935  22.736  10.419   6.450
10095POPC   C2B71936  22.665  10.417   6.750
10095POPC   C3B71937  22.681  10.477   7.050
10095POPC   C4B71938  22.745  10.387   7.350
10096POPC   NC371939  42.348  25.992   5.550
10096POPC   PO471940  42.295  26.049   5.850
10096POPC   GL171941  42.311  26.017   6.150
10096POPC   GL271942  42.457  25.977   6.150
10096POPC   C1A71943  42.333  26.011   6.450
10096POPC   D2A71944  42.299  26.078   6.750
10096POPC   C3A71945  42.350  26.078   7.050
10096POPC   C4A71946  42.309  26.070   7.350
10096POPC   C1B71947  42.581  25.949   6.450
10096POPC   C2B71948  42.520  25.902   6.750
10096POPC   C3B71949  42.550  25.932   7.050
10096POPC   C4B71950  42.556  25.907   7.350
10097POPC   NC371951  29.102  39.260   5.550
10097POPC   PO471952  29.131  39.271   5.850
10097POPC   GL171953  29.150  39.214   6.150
10097POPC   GL271954  29.167  39.069   6.150
10097POPC   C1A71955  29.168  39.267   6.450
10097POPC   D2A71956  29.169  39.204   6.750
10097POPC   C3A71957  29.182  39.207   7.050
10097POPC   C4A71958  29.148  39.239   7.350
10097POPC   C1B71959  29.153  38.958   6.450
10097POPC   C2B71960  29.198  38.936   6.750
10097POPC   C3B71961  29.195  38.957   7.050
10097POPC   C4B71962  29.193  39.012   7.350
10098POPC   NC371963  23.704  32.259   5.550
10098POPC   PO471964  23.666  32.242   5.850
10098POPC   GL171965  23.755  32.234   6.150
10098POPC   GL271966  23.615  32.242   6.150
10098POPC   C1A71967  23.674  32.222   6.450
10098POPC   D2A71968  23.690  32.229   6.750
10098POPC   C3A71969  23.748  32.285   7.050
10098POPC   C4A71970  23.746  32.250   7.350
10098POPC   C1B71971  23.429  32.178   6.450
10098POPC   C2B71972  23.420  32.179   6.750
10098POPC   C3B71973  23.442  32.255   7.050
10098POPC   C4B71974  23.445  32.188   7.350
10099POPC   NC371975  15.929  31.428   5.550
10099POPC   PO471976  15.970  31.490   5.850
10099POPC   GL171977  15.910  31.517   6.150
10099POPC   GL271978  16.059  31.604   6.150
10099POPC   C1A71979  15.972  31.447   6.450
10099POPC   D2A71980  15.915  31.517   6.750
10099POPC   C3A71981  15.907  31.432   7.050
10099POPC   C4A71982  15.991  31.488   7.350
10099POPC   C1B71983  16.150  31.617   6.450
10099POPC   C2B71984  16.105  31.704   6.750
10099POPC   C3B71985  16.163  31.630   7.050
10099POPC   C4B71986  16.120  31.698   7.350
10100POPC   NC371987  23.729  27.638   5.550
10100POPC   PO471988  23.716  27.576   5.850
10100POPC   GL171989  23.721  27.620   6.150
10100POPC   GL271990  23.703  27.692   6.150
10100POPC   C1A71991  23.674  27.603   6.450
10100POPC   D2A71992  23.690  27.580   6.750
10100POPC   C3A71993  23.681  27.629   7.050
10100POPC   C4A71994  23.691  27.627   7.350
10100POPC   C1B71995  23.698  27.826   6.450
10100POPC   C2B71996  23.748  27.814   6.750
10100POPC   C3B71997  23.696  27.831   7.050
10100POPC   C4B71998  23.678  27.805   7.350
10101POPC   NC371999  24.532  39.199   5.550
10101POPC   PO472000  24.472  39.234   5.850
10101POPC   GL172001  24.446  39.193   6.150
10101POPC   GL272002  24.455  39.156   6.150
10101POPC   C1A72003  24.518  39.210   6.450
10101POPC   D2A72004  24.494  39.224   6.750
10101POPC   C3A72005  24.461  39.208   7.050
10101POPC   C4A72006  24.464  39.274   7.350
10101POPC   C1B72007  24.373  39.016   6.450
10101POPC   C2B72008  24.407  39.013   6.750
10101POPC   C3B72009  24.398  39.039   7.050
10101POPC   C4B72010  24.425  39.029   7.350
10102POPC   NC372011  25.283  30.666   5.550
10102POPC   PO472012  25.270  30.675   5.850
10102POPC   GL172013  25.264  30.675   6.150
10102POPC   GL272014  25.328  30.642   6.150
10102POPC   C1A72015  25.287  30.725   6.450
10102POPC   D2A72016  25.280  30.719   6.750
10102POPC   C3A72017  25.243  30.722   7.050
10102POPC   C4A72018  25.266  30.688   7.350
10102POPC   C1B72019  25.373  30.482   6.450
10102POPC   C2B72020  25.422  30.498   6.750
10102POPC   C3B72021  25.458  30.482   7.050
10102POPC   C4B72022  25.456  30.463   7.350
10103POPC   NC372023   8.194   5.052   5.550
10103POPC   PO472024   8.167   5.127   5.850
10103POPC   GL172025   8.246   5.119   6.150
10103POPC   GL272026   8.265   5.205   6.150
10103POPC   C1A72027   8.241   5.079   6.450
10103POPC   D2A72028   8.219   5.113   6.750
10103POPC   C3A72029   8.209   5.136   7.050
10103POPC   C4A72030   8.180   5.062   7.350
10103POPC   C1B72031   8.362   5.278   6.450
10103POPC   C2B72032   8.357   5.291   6.750
10103POPC   C3B72033   8.326   5.352   7.050
10103POPC   C4B72034   8.280   5.306   7.350
10104POPC   NC372035  29.144  29.961   5.550
10104POPC   PO472036  29.179  29.911   5.850
10104POPC   GL172037  29.185  29.891   6.150
10104POPC   GL272038  29.023  29.774   6.150
10104POPC   C1A72039  29.099  29.935   6.450
10104POPC   D2A72040  29.126  29.918   6.750
10104POPC   C3A72041  29.177  29.912   7.050
10104POPC   C4A72042  29.186  29.894   7.350
10104POPC   C1B72043  29.008  29.739   6.450
10104POPC   C2B72044  29.028  29.738   6.750
10104POPC   C3B72045  28.953  29.733   7.050
10104POPC   C4B72046  29.036  29.745   7.350
10105POPC   NC372047  27.580  29.149   5.550
10105POPC   PO472048  27.550  29.157   5.850
10105POPC   GL172049  27.596  29.145   6.150
10105POPC   GL272050  27.508  29.284   6.150
10105POPC   C1A72051  27.545  29.179   6.450
10105POPC   D2A72052  27.634  29.117   6.750
10105POPC   C3A72053  27.637  29.119   7.050
10105POPC   C4A72054  27.598  29.167   7.350
10105POPC   C1B72055  27.491  29.335   6.450
10105POPC   C2B72056  27.471  29.310   6.750
10105POPC   C3B72057  27.454  29.379   7.050
10105POPC   C4B72058  27.449  29.305   7.350
10106POPC   NC372059  22.142   5.867   5.550
10106POPC   PO472060  22.131   5.878   5.850
10106POPC   GL172061  22.149   5.875   6.150
10106POPC   GL272062  22.021   5.854   6.150
10106POPC   C1A72063  22.138   5.829   6.450
10106POPC   D2A72064  22.191   5.910   6.750
10106POPC   C3A72065  22.121   5.866   7.050
10106POPC   C4A72066  22.193   5.828   7.350
10106POPC   C1B72067  21.886   5.939   6.450
10106POPC   C2B72068  21.903   5.907   6.750
10106POPC   C3B72069  21.882   5.902   7.050
10106POPC   C4B72070  21.958   5.929   7.350
10107POPC   NC372071  19.034   6.672   5.550
10107POPC   PO472072  19.035   6.619   5.850
10107POPC   GL172073  19.097   6.663   6.150
10107POPC   GL272074  19.156   6.745   6.150
10107POPC   C1A72075  19.085   6.636   6.450
10107POPC   D2A72076  19.061   6.693   6.750
10107POPC   C3A72077  19.075   6.691   7.050
10107POPC   C4A72078  19.027   6.643   7.350
10107POPC   C1B72079  19.138   6.886   6.450
10107POPC   C2B72080  19.221   6.904   6.750
10107POPC   C3B72081  19.194   6.845   7.050
10107POPC   C4B72082  19.185   6.857   7.350
10108POPC   NC372083  17.464  32.260   5.550
10108POPC   PO472084  17.492  32.248   5.850
10108POPC   GL172085  17.512  32.280   6.150
10108POPC   GL272086  17.375  32.266   6.150
10108POPC   C1A72087  17.510  32.276   6.450
10108POPC   D2A72088  17.457  32.215   6.750
10108POPC   C3A72089  17.485  32.242   7.050
10108POPC   C4A72090  17.534  32.232   7.350
10108POPC   C1B72091  17.279  32.233   6.450
10108POPC   C2B72092  17.308  32.164   6.750
10108POPC   C3B72093  17.267  32.242   7.050
10108POPC   C4B72094  17.271  32.145   7.350
10109POPC   NC372095  22.207  37.645   5.550
10109POPC   PO472096  22.161  37.717   5.850
10109POPC   GL172097  22.178  37.688   6.150
10109POPC   GL272098  22.039  37.635   6.150
10109POPC   C1A72099  22.129  37.655   6.450
10109POPC   D2A72100  22.118  37.722   6.750
10109POPC   C3A72101  22.191  37.713   7.050
10109POPC   C4A72102  22.211  37.716   7.350
10109POPC   C1B72103  21.890  37.569   6.450
10109POPC   C2B72104  21.919  37.535   6.750
10109POPC   C3B72105  21.979  37.589   7.050
10109POPC   C4B72106  21.965  37.594   7.350
10110POPC   NC372107  16.713  11.307   5.550
10110POPC   PO472108  16.734  11.257   5.850
10110POPC   GL172109  16.771  11.349   6.150
10110POPC   GL272110  16.817  11.313   6.150
10110POPC   C1A72111  16.730  11.292   6.450
10110POPC   D2A72112  16.758  11.284   6.750
10110POPC   C3A72113  16.710  11.319   7.050
10110POPC   C4A72114  16.730  11.277   7.350
10110POPC   C1B72115  16.976  11.436   6.450
10110POPC   C2B72116  16.944  11.396   6.750
10110POPC   C3B72117  16.929  11.425   7.050
10110POPC   C4B72118  16.949  11.364   7.350
10111POPC   NC372119  40.032  29.911   5.550
10111POPC   PO472120  39.984  29.914   5.850
10111POPC   GL172121  40.037  29.964   6.150
10111POPC   GL272122  39.917  29.838   6.150
10111POPC   C1A72123  40.005  29.950   6.450
10111POPC   D2A72124  39.995  29.951   6.750
10111POPC   C3A72125  39.999  29.922   7.050
10111POPC   C4A72126  40.037  29.956   7.350
10111POPC   C1B72127  39.788  29.822   6.450
10111POPC   C2B72128  39.818  29.866   6.750
10111POPC   C3B72129  39.749  29.789   7.050
10111POPC   C4B72130  39.785  29.869   7.350
10112POPC   NC372131  19.055  43.061   5.550
10112POPC   PO472132  19.106  43.075   5.850
10112POPC   GL172133  19.085  43.069   6.150
10112POPC   GL272134  19.110  43.240   6.150
10112POPC   C1A72135  19.024  43.072   6.450
10112POPC   D2A72136  19.018  43.140   6.750
10112POPC   C3A72137  19.038  43.066   7.050
10112POPC   C4A72138  19.037  43.093   7.350
10112POPC   C1B72139  19.150  43.290   6.450
10112POPC   C2B72140  19.188  43.337   6.750
10112POPC   C3B72141  19.139  43.340   7.050
10112POPC   C4B72142  19.190  43.372   7.350
10113POPC   NC372143  26.083  11.276   5.550
10113POPC   PO472144  26.057  11.279   5.850
10113POPC   GL172145  26.030  11.295   6.150
10113POPC   GL272146  26.072  11.197   6.150
10113POPC   C1A72147  26.089  11.281   6.450
10113POPC   D2A72148  25.996  11.289   6.750
10113POPC   C3A72149  26.065  11.329   7.050
10113POPC   C4A72150  26.083  11.348   7.350
10113POPC   C1B72151  26.166  11.035   6.450
10113POPC   C2B72152  26.200  11.053   6.750
10113POPC   C3B72153  26.164  11.121   7.050
10113POPC   C4B72154  26.184  11.124   7.350
10114POPC   NC372155  38.493  12.047   5.550
10114POPC   PO472156  38.476  12.036   5.850
10114POPC   GL172157  38.447  12.093   6.150
10114POPC   GL272158  38.464  11.992   6.150
10114POPC   C1A72159  38.444  12.125   6.450
10114POPC   D2A72160  38.435  12.071   6.750
10114POPC   C3A72161  38.456  12.107   7.050
10114POPC   C4A72162  38.459  12.034   7.350
10114POPC   C1B72163  38.523  11.849   6.450
10114POPC   C2B72164  38.486  11.847   6.750
10114POPC   C3B72165  38.469  11.839   7.050
10114POPC   C4B72166  38.466  11.875   7.350
10115POPC   NC372167  21.383  12.859   5.550
10115POPC   PO472168  21.376  12.805   5.850
10115POPC   GL172169  21.375  12.806   6.150
10115POPC   GL272170  21.521  12.780   6.150
10115POPC   C1A72171  21.415  12.857   6.450
10115POPC   D2A72172  21.393  12.818   6.750
10115POPC   C3A72173  21.378  12.836   7.050
10115POPC   C4A72174  21.338  12.814   7.350
10115POPC   C1B72175  21.539  12.674   6.450
10115POPC   C2B72176  21.616  12.650   6.750
10115POPC   C3B72177  21.589  12.733   7.050
10115POPC   C4B72178  21.614  12.684   7.350
10116POPC   NC372179   1.961  26.014   5.550
10116POPC   PO472180   1.988  25.994   5.850
10116POPC   GL172181   2.018  26.009   6.150
10116POPC   GL272182   2.108  26.023   6.150
10116POPC   C1A72183   2.037  26.085   6.450
10116POPC   D2A72184   2.015  26.054   6.750
10116POPC   C3A72185   2.008  26.079   7.050
10116POPC   C4A72186   1.956  26.074   7.350
10116POPC   C1B72187   2.280  25.981   6.450
10116POPC   C2B72188   2.257  26.022   6.750
10116POPC   C3B72189   2.269  26.023   7.050
10116POPC   C4B72190   2.238  26.005   7.350
10117POPC   NC372191  15.980  38.412   5.550
10117POPC   PO472192  15.942  38.431   5.850
10117POPC   GL172193  15.967  38.448   6.150
10117POPC   GL272194  15.912  38.592   6.150
10117POPC   C1A72195  15.987  38.472   6.450
10117POPC   D2A72196  15.935  38.408   6.750
10117POPC   C3A72197  15.969  38.495   7.050
10117POPC   C4A72198  15.946  38.460   7.350
10117POPC   C1B72199  15.829  38.674   6.450
10117POPC   C2B72200  15.819  38.684   6.750
10117POPC   C3B72201  15.823  38.649   7.050
10117POPC   C4B72202  15.768  38.658   7.350
10118POPC   NC372203  40.765  36.856   5.550
10118POPC   PO472204  40.788  36.886   5.850
10118POPC   GL172205  40.739  36.896   6.150
10118POPC   GL272206  40.870  36.968   6.150
10118POPC   C1A72207  40.811  36.887   6.450
10118POPC   D2A72208  40.760  36.932   6.750
10118POPC   C3A72209  40.768  36.934   7.050
10118POPC   C4A72210  40.833  36.952   7.350
10118POPC   C1B72211  41.009  36.963   6.450
10118POPC   C2B72212  41.001  36.985   6.750
10118POPC   C3B72213  41.011  37.009   7.050
10118POPC   C4B72214  41.057  36.979   7.350
10119POPC   NC372215  29.939  39.271   5.550
10119POPC   PO472216  29.891  39.232   5.850
10119POPC   GL172217  29.969  39.230   6.150
10119POPC   GL272218  29.829  39.101   6.150
10119POPC   C1A72219  29.902  39.182   6.450
10119POPC   D2A72220  29.891  39.271   6.750
10119POPC   C3A72221  29.929  39.266   7.050
10119POPC   C4A72222  29.874  39.253   7.350
10119POPC   C1B72223  29.697  39.087   6.450
10119POPC   C2B72224  29.737  39.049   6.750
10119POPC   C3B72225  29.723  39.095   7.050
10119POPC   C4B72226  29.709  39.067   7.350
10120POPC   NC372227   4.267  18.309   5.550
10120POPC   PO472228   4.364  18.276   5.850
10120POPC   GL172229   4.362  18.264   6.150
10120POPC   GL272230   4.179  18.227   6.150
10120POPC   C1A72231   4.317  18.321   6.450
10120POPC   D2A72232   4.320  18.280   6.750
10120POPC   C3A72233   4.289  18.284   7.050
10120POPC   C4A72234   4.278  18.300   7.350
10120POPC   C1B72235   4.147  18.134   6.450
10120POPC   C2B72236   4.138  18.120   6.750
10120POPC   C3B72237   4.158  18.129   7.050
10120POPC   C4B72238   4.190  18.101   7.350
10121POPC   NC372239  13.623  38.441   5.550
10121POPC   PO472240  13.604  38.495   5.850
10121POPC   GL172241  13.644  38.479   6.150
10121POPC   GL272242  13.715  38.573   6.150
10121POPC   C1A72243  13.579  38.497   6.450
10121POPC   D2A72244  13.600  38.463   6.750
10121POPC   C3A72245  13.647  38.478   7.050
10121POPC   C4A72246  13.602  38.481   7.350
10121POPC   C1B72247  13.768  38.682   6.450
10121POPC   C2B72248  13.768  38.682   6.750
10121POPC   C3B72249  13.791  38.618   7.050
10121POPC   C4B72250  13.793  38.669   7.350
10122POPC   NC372251  26.799  12.823   5.550
10122POPC   PO472252  26.835  12.805   5.850
10122POPC   GL172253  26.851  12.859   6.150
10122POPC   GL272254  26.705  12.804   6.150
10122POPC   C1A72255  26.835  12.864   6.450
10122POPC   D2A72256  26.821  12.846   6.750
10122POPC   C3A72257  26.838  12.880   7.050
10122POPC   C4A72258  26.830  12.860   7.350
10122POPC   C1B72259  26.557  12.678   6.450
10122POPC   C2B72260  26.625  12.722   6.750
10122POPC   C3B72261  26.585  12.703   7.050
10122POPC   C4B72262  26.575  12.689   7.350
10123POPC   NC372263  19.018   1.260   5.550
10123POPC   PO472264  19.072   1.192   5.850
10123POPC   GL172265  19.046   1.250   6.150
10123POPC   GL272266  18.972   1.300   6.150
10123POPC   C1A72267  19.025   1.230   6.450
10123POPC   D2A72268  19.045   1.251   6.750
10123POPC   C3A72269  19.084   1.201   7.050
10123POPC   C4A72270  19.016   1.177   7.350
10123POPC   C1B72271  18.825   1.347   6.450
10123POPC   C2B72272  18.895   1.356   6.750
10123POPC   C3B72273  18.888   1.385   7.050
10123POPC   C4B72274  18.855   1.342   7.350
10124POPC   NC372275  33.779  37.721   5.550
10124POPC   PO472276  33.781  37.691   5.850
10124POPC   GL172277  33.830  37.720   6.150
10124POPC   GL272278  33.703  37.781   6.150
10124POPC   C1A72279  33.761  37.666   6.450
10124POPC   D2A72280  33.790  37.664   6.750
10124POPC   C3A72281  33.801  37.708   7.050
10124POPC   C4A72282  33.803  37.724   7.350
10124POPC   C1B72283  33.610  37.815   6.450
10124POPC   C2B72284  33.567  37.849   6.750
10124POPC   C3B72285  33.617  37.837   7.050
10124POPC   C4B72286  33.605  37.857   7.350
10125POPC   NC372287  32.278  41.544   5.550
10125POPC   PO472288  32.235  41.552   5.850
10125POPC   GL172289  32.253  41.530   6.150
10125POPC   GL272290  32.310  41.600   6.150
10125POPC   C1A72291  32.277  41.598   6.450
10125POPC   D2A72292  32.279  41.574   6.750
10125POPC   C3A72293  32.240  41.535   7.050
10125POPC   C4A72294  32.241  41.524   7.350
10125POPC   C1B72295  32.453  41.692   6.450
10125POPC   C2B72296  32.438  41.726   6.750
10125POPC   C3B72297  32.423  41.760   7.050
10125POPC   C4B72298  32.431  41.711   7.350
10126POPC   NC372299  23.743  12.098   5.550
10126POPC   PO472300  23.696  12.094   5.850
10126POPC   GL172301  23.739  12.046   6.150
10126POPC   GL272302  23.633  11.976   6.150
10126POPC   C1A72303  23.717  12.118   6.450
10126POPC   D2A72304  23.751  12.086   6.750
10126POPC   C3A72305  23.746  12.044   7.050
10126POPC   C4A72306  23.742  12.030   7.350
10126POPC   C1B72307  23.545  11.933   6.450
10126POPC   C2B72308  23.522  11.882   6.750
10126POPC   C3B72309  23.552  11.859   7.050
10126POPC   C4B72310  23.539  11.867   7.350
10127POPC   NC372311  26.041  36.149   5.550
10127POPC   PO472312  26.003  36.142   5.850
10127POPC   GL172313  26.018  36.156   6.150
10127POPC   GL272314  26.016  36.265   6.150
10127POPC   C1A72315  26.081  36.084   6.450
10127POPC   D2A72316  26.003  36.168   6.750
10127POPC   C3A72317  26.019  36.112   7.050
10127POPC   C4A72318  26.065  36.172   7.350
10127POPC   C1B72319  25.884  36.333   6.450
10127POPC   C2B72320  25.926  36.372   6.750
10127POPC   C3B72321  25.925  36.333   7.050
10127POPC   C4B72322  25.859  36.347   7.350
10128POPC   NC372323  28.360  32.272   5.550
10128POPC   PO472324  28.370  32.242   5.850
10128POPC   GL172325  28.384  32.216   6.150
10128POPC   GL272326  28.406  32.390   6.150
10128POPC   C1A72327  28.341  32.237   6.450
10128POPC   D2A72328  28.383  32.278   6.750
10128POPC   C3A72329  28.343  32.224   7.050
10128POPC   C4A72330  28.356  32.257   7.350
10128POPC   C1B72331  28.539  32.473   6.450
10128POPC   C2B72332  28.555  32.441   6.750
10128POPC   C3B72333  28.515  32.449   7.050
10128POPC   C4B72334  28.543  32.460   7.350
10129POPC   NC372335  12.841  13.605   5.550
10129POPC   PO472336  12.835  13.628   5.850
10129POPC   GL172337  12.898  13.606   6.150
10129POPC   GL272338  12.808  13.748   6.150
10129POPC   C1A72339  12.861  13.588   6.450
10129POPC   D2A72340  12.836  13.617   6.750
10129POPC   C3A72341  12.880  13.641   7.050
10129POPC   C4A72342  12.893  13.590   7.350
10129POPC   C1B72343  12.831  13.918   6.450
10129POPC   C2B72344  12.838  13.904   6.750
10129POPC   C3B72345  12.884  13.842   7.050
10129POPC   C4B72346  12.874  13.866   7.350
10130POPC   NC372347  21.406  25.283   5.550
10130POPC   PO472348  21.371  25.302   5.850
10130POPC   GL172349  21.399  25.293   6.150
10130POPC   GL272350  21.238  25.171   6.150
10130POPC   C1A72351  21.401  25.313   6.450
10130POPC   D2A72352  21.345  25.228   6.750
10130POPC   C3A72353  21.399  25.265   7.050
10130POPC   C4A72354  21.403  25.216   7.350
10130POPC   C1B72355  21.148  25.124   6.450
10130POPC   C2B72356  21.191  25.128   6.750
10130POPC   C3B72357  21.164  25.176   7.050
10130POPC   C4B72358  21.207  25.132   7.350
10131POPC   NC372359   4.348  19.079   5.550
10131POPC   PO472360   4.289  19.065   5.850
10131POPC   GL172361   4.297  19.038   6.150
10131POPC   GL272362   4.362  19.165   6.150
10131POPC   C1A72363   4.340  19.038   6.450
10131POPC   D2A72364   4.269  19.080   6.750
10131POPC   C3A72365   4.301  19.087   7.050
10131POPC   C4A72366   4.283  19.056   7.350
10131POPC   C1B72367   4.444  19.275   6.450
10131POPC   C2B72368   4.455  19.202   6.750
10131POPC   C3B72369   4.441  19.242   7.050
10131POPC   C4B72370   4.497  19.196   7.350
10132POPC   NC372371  29.127  42.362   5.550
10132POPC   PO472372  29.152  42.318   5.850
10132POPC   GL172373  29.182  42.348   6.150
10132POPC   GL272374  29.004  42.398   6.150
10132POPC   C1A72375  29.171  42.323   6.450
10132POPC   D2A72376  29.138  42.375   6.750
10132POPC   C3A72377  29.177  42.311   7.050
10132POPC   C4A72378  29.156  42.372   7.350
10132POPC   C1B72379  28.881  42.368   6.450
10132POPC   C2B72380  28.890  42.389   6.750
10132POPC   C3B72381  28.905  42.389   7.050
10132POPC   C4B72382  28.945  42.374   7.350
10133POPC   NC372383   5.877  38.457   5.550
10133POPC   PO472384   5.861  38.409   5.850
10133POPC   GL172385   5.849  38.472   6.150
10133POPC   GL272386   5.885  38.290   6.150
10133POPC   C1A72387   5.874  38.450   6.450
10133POPC   D2A72388   5.836  38.485   6.750
10133POPC   C3A72389   5.911  38.484   7.050
10133POPC   C4A72390   5.841  38.481   7.350
10133POPC   C1B72391   5.958  38.245   6.450
10133POPC   C2B72392   5.942  38.237   6.750
10133POPC   C3B72393   5.934  38.245   7.050
10133POPC   C4B72394   5.953  38.183   7.350
10134POPC   NC372395  33.055  13.605   5.550
10134POPC   PO472396  33.022  13.590   5.850
10134POPC   GL172397  32.997  13.606   6.150
10134POPC   GL272398  33.110  13.476   6.150
10134POPC   C1A72399  33.009  13.619   6.450
10134POPC   D2A72400  33.066  13.642   6.750
10134POPC   C3A72401  32.981  13.649   7.050
10134POPC   C4A72402  33.023  13.646   7.350
10134POPC   C1B72403  33.123  13.400   6.450
10134POPC   C2B72404  33.120  13.390   6.750
10134POPC   C3B72405  33.147  13.423   7.050
10134POPC   C4B72406  33.107  13.390   7.350
10135POPC   NC372407  32.276  15.962   5.550
10135POPC   PO472408  32.270  16.000   5.850
10135POPC   GL172409  32.273  15.921   6.150
10135POPC   GL272410  32.175  15.934   6.150
10135POPC   C1A72411  32.232  15.989   6.450
10135POPC   D2A72412  32.215  15.966   6.750
10135POPC   C3A72413  32.214  15.969   7.050
10135POPC   C4A72414  32.283  15.916   7.350
10135POPC   C1B72415  31.953  15.899   6.450
10135POPC   C2B72416  31.953  15.960   6.750
10135POPC   C3B72417  32.025  15.956   7.050
10135POPC   C4B72418  32.045  15.960   7.350
10136POPC   NC372419  11.274   1.210   5.550
10136POPC   PO472420  11.304   1.250   5.850
10136POPC   GL172421  11.296   1.232   6.150
10136POPC   GL272422  11.252   1.138   6.150
10136POPC   C1A72423  11.254   1.235   6.450
10136POPC   D2A72424  11.253   1.188   6.750
10136POPC   C3A72425  11.280   1.196   7.050
10136POPC   C4A72426  11.300   1.236   7.350
10136POPC   C1B72427  11.296   0.982   6.450
10136POPC   C2B72428  11.318   1.010   6.750
10136POPC   C3B72429  11.311   0.946   7.050
10136POPC   C4B72430  11.284   0.971   7.350
10137POPC   NC372431   3.554  23.713   5.550
10137POPC   PO472432   3.545  23.725   5.850
10137POPC   GL172433   3.563  23.758   6.150
10137POPC   GL272434   3.517  23.786   6.150
10137POPC   C1A72435   3.579  23.667   6.450
10137POPC   D2A72436   3.555  23.748   6.750
10137POPC   C3A72437   3.526  23.728   7.050
10137POPC   C4A72438   3.525  23.752   7.350
10137POPC   C1B72439   3.520  23.962   6.450
10137POPC   C2B72440   3.516  23.928   6.750
10137POPC   C3B72441   3.505  23.927   7.050
10137POPC   C4B72442   3.515  23.923   7.350
10138POPC   NC372443   8.978  44.694   5.550
10138POPC   PO472444   8.932  44.652   5.850
10138POPC   GL172445   8.923  44.694   6.150
10138POPC   GL272446   8.818  44.727   6.150
10138POPC   C1A72447   9.003  44.669   6.450
10138POPC   D2A72448   8.979  44.703   6.750
10138POPC   C3A72449   8.956  44.711   7.050
10138POPC   C4A72450   8.985  44.705   7.350
10138POPC   C1B72451   8.770  44.841   6.450
10138POPC   C2B72452   8.796  44.817   6.750
10138POPC   C3B72453   8.804  44.789   7.050
10138POPC   C4B72454   8.783  44.753   7.350
10139POPC   NC372455   9.721  43.882   5.550
10139POPC   PO472456   9.741  43.915   5.850
10139POPC   GL172457   9.775  43.927   6.150
10139POPC   GL272458   9.626  43.850   6.150
10139POPC   C1A72459   9.719  43.900   6.450
10139POPC   D2A72460   9.731  43.902   6.750
10139POPC   C3A72461   9.707  43.918   7.050
10139POPC   C4A72462   9.723  43.907   7.350
10139POPC   C1B72463   9.587  43.716   6.450
10139POPC   C2B72464   9.549  43.721   6.750
10139POPC   C3B72465   9.587  43.742   7.050
10139POPC   C4B72466   9.563  43.778   7.350
10140POPC   NC372467   2.719  27.588   5.550
10140POPC   PO472468   2.774  27.597   5.850
10140POPC   GL172469   2.792  27.619   6.150
10140POPC   GL272470   2.799  27.737   6.150
10140POPC   C1A72471   2.751  27.626   6.450
10140POPC   D2A72472   2.735  27.615   6.750
10140POPC   C3A72473   2.770  27.564   7.050
10140POPC   C4A72474   2.781  27.549   7.350
10140POPC   C1B72475   2.794  27.838   6.450
10140POPC   C2B72476   2.865  27.880   6.750
10140POPC   C3B72477   2.835  27.792   7.050
10140POPC   C4B72478   2.857  27.862   7.350
10141POPC   NC372479  39.970  34.529   5.550
10141POPC   PO472480  39.991  34.569   5.850
10141POPC   GL172481  39.978  34.592   6.150
10141POPC   GL272482  40.030  34.474   6.150
10141POPC   C1A72483  40.053  34.542   6.450
10141POPC   D2A72484  39.958  34.552   6.750
10141POPC   C3A72485  39.960  34.593   7.050
10141POPC   C4A72486  39.985  34.620   7.350
10141POPC   C1B72487  40.076  34.360   6.450
10141POPC   C2B72488  40.133  34.353   6.750
10141POPC   C3B72489  40.071  34.295   7.050
10141POPC   C4B72490  40.135  34.312   7.350
10142POPC   NC372491   6.693   2.028   5.550
10142POPC   PO472492   6.611   1.980   5.850
10142POPC   GL172493   6.658   1.973   6.150
10142POPC   GL272494   6.699   2.088   6.150
10142POPC   C1A72495   6.615   1.952   6.450
10142POPC   D2A72496   6.634   1.948   6.750
10142POPC   C3A72497   6.610   2.021   7.050
10142POPC   C4A72498   6.654   2.026   7.350
10142POPC   C1B72499   6.660   2.239   6.450
10142POPC   C2B72500   6.693   2.223   6.750
10142POPC   C3B72501   6.680   2.268   7.050
10142POPC   C4B72502   6.674   2.241   7.350
10143POPC   NC372503   3.543  11.325   5.550
10143POPC   PO472504   3.524  11.274   5.850
10143POPC   GL172505   3.503  11.261   6.150
10143POPC   GL272506   3.499  11.186   6.150
10143POPC   C1A72507   3.567  11.350   6.450
10143POPC   D2A72508   3.578  11.266   6.750
10143POPC   C3A72509   3.492  11.262   7.050
10143POPC   C4A72510   3.513  11.339   7.350
10143POPC   C1B72511   3.399  11.052   6.450
10143POPC   C2B72512   3.450  11.077   6.750
10143POPC   C3B72513   3.437  11.038   7.050
10143POPC   C4B72514   3.413  11.034   7.350
10144POPC   NC372515  27.624  19.040   5.550
10144POPC   PO472516  27.629  19.032   5.850
10144POPC   GL172517  27.604  19.039   6.150
10144POPC   GL272518  27.458  19.101   6.150
10144POPC   C1A72519  27.593  19.046   6.450
10144POPC   D2A72520  27.578  19.052   6.750
10144POPC   C3A72521  27.580  19.041   7.050
10144POPC   C4A72522  27.552  19.028   7.350
10144POPC   C1B72523  27.463  19.281   6.450
10144POPC   C2B72524  27.417  19.210   6.750
10144POPC   C3B72525  27.378  19.243   7.050
10144POPC   C4B72526  27.459  19.285   7.350
10145POPC   NC372527   5.126  26.838   5.550
10145POPC   PO472528   5.097  26.783   5.850
10145POPC   GL172529   5.092  26.791   6.150
10145POPC   GL272530   5.046  26.756   6.150
10145POPC   C1A72531   5.142  26.838   6.450
10145POPC   D2A72532   5.094  26.862   6.750
10145POPC   C3A72533   5.122  26.772   7.050
10145POPC   C4A72534   5.107  26.816   7.350
10145POPC   C1B72535   4.947  26.643   6.450
10145POPC   C2B72536   4.940  26.644   6.750
10145POPC   C3B72537   4.933  26.621   7.050
10145POPC   C4B72538   4.878  26.672   7.350
10146POPC   NC372539  17.473  36.860   5.550
10146POPC   PO472540  17.459  36.912   5.850
10146POPC   GL172541  17.518  36.857   6.150
10146POPC   GL272542  17.400  36.837   6.150
10146POPC   C1A72543  17.486  36.882   6.450
10146POPC   D2A72544  17.546  36.873   6.750
10146POPC   C3A72545  17.553  36.871   7.050
10146POPC   C4A72546  17.502  36.931   7.350
10146POPC   C1B72547  17.257  36.845   6.450
10146POPC   C2B72548  17.284  36.912   6.750
10146POPC   C3B72549  17.225  36.853   7.050
10146POPC   C4B72550  17.261  36.843   7.350
10147POPC   NC372551   4.337  32.266   5.550
10147POPC   PO472552   4.346  32.289   5.850
10147POPC   GL172553   4.311  32.225   6.150
10147POPC   GL272554   4.295  32.351   6.150
10147POPC   C1A72555   4.324  32.217   6.450
10147POPC   D2A72556   4.336  32.256   6.750
10147POPC   C3A72557   4.268  32.263   7.050
10147POPC   C4A72558   4.290  32.276   7.350
10147POPC   C1B72559   4.372  32.514   6.450
10147POPC   C2B72560   4.407  32.481   6.750
10147POPC   C3B72561   4.320  32.455   7.050
10147POPC   C4B72562   4.405  32.538   7.350
10148POPC   NC372563  17.459  38.440   5.550
10148POPC   PO472564  17.496  38.430   5.850
10148POPC   GL172565  17.556  38.456   6.150
10148POPC   GL272566  17.546  38.573   6.150
10148POPC   C1A72567  17.465  38.485   6.450
10148POPC   D2A72568  17.531  38.444   6.750
10148POPC   C3A72569  17.479  38.445   7.050
10148POPC   C4A72570  17.543  38.470   7.350
10148POPC   C1B72571  17.568  38.644   6.450
10148POPC   C2B72572  17.562  38.698   6.750
10148POPC   C3B72573  17.549  38.702   7.050
10148POPC   C4B72574  17.554  38.715   7.350
10149POPC   NC372575  19.785   1.949   5.550
10149POPC   PO472576  19.856   1.979   5.850
10149POPC   GL172577  19.868   1.956   6.150
10149POPC   GL272578  19.974   1.964   6.150
10149POPC   C1A72579  19.802   1.959   6.450
10149POPC   D2A72580  19.853   1.983   6.750
10149POPC   C3A72581  19.854   2.014   7.050
10149POPC   C4A72582  19.810   1.965   7.350
10149POPC   C1B72583  20.043   1.819   6.450
10149POPC   C2B72584  20.036   1.881   6.750
10149POPC   C3B72585  20.024   1.820   7.050
10149POPC   C4B72586  20.079   1.884   7.350
10150POPC   NC372587  32.997  20.613   5.550
10150POPC   PO472588  33.035  20.592   5.850
10150POPC   GL172589  33.064  20.594   6.150
10150POPC   GL272590  33.083  20.526   6.150
10150POPC   C1A72591  33.005  20.603   6.450
10150POPC   D2A72592  33.003  20.564   6.750
10150POPC   C3A72593  33.033  20.568   7.050
10150POPC   C4A72594  33.055  20.584   7.350
10150POPC   C1B72595  33.081  20.391   6.450
10150POPC   C2B72596  33.041  20.390   6.750
10150POPC   C3B72597  33.080  20.320   7.050
10150POPC   C4B72598  33.054  20.368   7.350
10151POPC   NC372599  33.838  33.848   5.550
10151POPC   PO472600  33.757  33.766   5.850
10151POPC   GL172601  33.794  33.801   6.150
10151POPC   GL272602  33.912  33.756   6.150
10151POPC   C1A72603  33.754  33.819   6.450
10151POPC   D2A72604  33.772  33.845   6.750
10151POPC   C3A72605  33.766  33.759   7.050
10151POPC   C4A72606  33.784  33.824   7.350
10151POPC   C1B72607  33.995  33.622   6.450
10151POPC   C2B72608  33.963  33.621   6.750
10151POPC   C3B72609  33.998  33.606   7.050
10151POPC   C4B72610  33.994  33.672   7.350
10152POPC   NC372611  36.946  15.178   5.550
10152POPC   PO472612  36.897  15.207   5.850
10152POPC   GL172613  36.949  15.182   6.150
10152POPC   GL272614  36.979  15.045   6.150
10152POPC   C1A72615  36.865  15.206   6.450
10152POPC   D2A72616  36.911  15.203   6.750
10152POPC   C3A72617  36.917  15.141   7.050
10152POPC   C4A72618  36.894  15.209   7.350
10152POPC   C1B72619  36.999  14.937   6.450
10152POPC   C2B72620  36.984  14.941   6.750
10152POPC   C3B72621  36.973  14.943   7.050
10152POPC   C4B72622  37.052  14.968   7.350
10153POPC   NC372623  20.580  40.023   5.550
10153POPC   PO472624  20.647  39.999   5.850
10153POPC   GL172625  20.585  40.021   6.150
10153POPC   GL272626  20.527  39.984   6.150
10153POPC   C1A72627  20.646  40.015   6.450
10153POPC   D2A72628  20.564  40.046   6.750
10153POPC   C3A72629  20.589  40.023   7.050
10153POPC   C4A72630  20.640  39.964   7.350
10153POPC   C1B72631  20.398  39.882   6.450
10153POPC   C2B72632  20.332  39.878   6.750
10153POPC   C3B72633  20.325  39.879   7.050
10153POPC   C4B72634  20.329  39.972   7.350
10154POPC   NC372635  25.307   5.120   5.550
10154POPC   PO472636  25.281   5.086   5.850
10154POPC   GL172637  25.246   5.080   6.150
10154POPC   GL272638  25.143   5.084   6.150
10154POPC   C1A72639  25.249   5.062   6.450
10154POPC   D2A72640  25.221   5.078   6.750
10154POPC   C3A72641  25.283   5.080   7.050
10154POPC   C4A72642  25.278   5.096   7.350
10154POPC   C1B72643  25.005   5.046   6.450
10154POPC   C2B72644  25.059   5.116   6.750
10154POPC   C3B72645  24.997   5.112   7.050
10154POPC   C4B72646  25.037   5.080   7.350
10155POPC   NC372647  35.339  41.589   5.550
10155POPC   PO472648  35.337  41.569   5.850
10155POPC   GL172649  35.383  41.583   6.150
10155POPC   GL272650  35.225  41.435   6.150
10155POPC   C1A72651  35.395  41.519   6.450
10155POPC   D2A72652  35.335  41.574   6.750
10155POPC   C3A72653  35.397  41.549   7.050
10155POPC   C4A72654  35.398  41.607   7.350
10155POPC   C1B72655  35.144  41.355   6.450
10155POPC   C2B72656  35.198  41.384   6.750
10155POPC   C3B72657  35.125  41.391   7.050
10155POPC   C4B72658  35.141  41.437   7.350
10156POPC   NC372659  43.141  32.257   5.550
10156POPC   PO472660  43.082  32.204   5.850
10156POPC   GL172661  43.122  32.229   6.150
10156POPC   GL272662  43.186  32.161   6.150
10156POPC   C1A72663  43.122  32.248   6.450
10156POPC   D2A72664  43.141  32.268   6.750
10156POPC   C3A72665  43.083  32.243   7.050
10156POPC   C4A72666  43.152  32.232   7.350
10156POPC   C1B72667  43.350  32.126   6.450
10156POPC   C2B72668  43.330  32.133   6.750
10156POPC   C3B72669  43.284  32.110   7.050
10156POPC   C4B72670  43.367  32.071   7.350
10157POPC   NC372671  39.990   8.931   5.550
10157POPC   PO472672  40.039   8.996   5.850
10157POPC   GL172673  39.964   8.993   6.150
10157POPC   GL272674  40.044   8.888   6.150
10157POPC   C1A72675  39.978   8.998   6.450
10157POPC   D2A72676  39.969   8.952   6.750
10157POPC   C3A72677  40.021   8.946   7.050
10157POPC   C4A72678  39.989   8.924   7.350
10157POPC   C1B72679  40.086   8.733   6.450
10157POPC   C2B72680  40.106   8.688   6.750
10157POPC   C3B72681  40.122   8.738   7.050
10157POPC   C4B72682  40.103   8.705   7.350
10158POPC   NC372683  24.468   9.742   5.550
10158POPC   PO472684  24.507   9.725   5.850
10158POPC   GL172685  24.491   9.741   6.150
10158POPC   GL272686  24.485   9.597   6.150
10158POPC   C1A72687  24.447   9.722   6.450
10158POPC   D2A72688  24.493   9.756   6.750
10158POPC   C3A72689  24.510   9.773   7.050
10158POPC   C4A72690  24.517   9.765   7.350
10158POPC   C1B72691  24.493   9.457   6.450
10158POPC   C2B72692  24.511   9.466   6.750
10158POPC   C3B72693  24.427   9.497   7.050
10158POPC   C4B72694  24.440   9.527   7.350
10159POPC   NC372695  13.589   2.017   5.550
10159POPC   PO472696  13.664   1.988   5.850
10159POPC   GL172697  13.591   2.010   6.150
10159POPC   GL272698  13.497   2.061   6.150
10159POPC   C1A72699  13.618   1.951   6.450
10159POPC   D2A72700  13.601   1.979   6.750
10159POPC   C3A72701  13.658   2.038   7.050
10159POPC   C4A72702  13.581   1.995   7.350
10159POPC   C1B72703  13.389   2.171   6.450
10159POPC   C2B72704  13.451   2.112   6.750
10159POPC   C3B72705  13.429   2.085   7.050
10159POPC   C4B72706  13.378   2.099   7.350
10160POPC   NC372707  43.882  36.168   5.550
10160POPC   PO472708  43.848  36.131   5.850
10160POPC   GL172709  43.858  36.172   6.150
10160POPC   GL272710  43.899  36.035   6.150
10160POPC   C1A72711  43.853  36.132   6.450
10160POPC   D2A72712  43.858  36.102   6.750
10160POPC   C3A72713  43.843  36.161   7.050
10160POPC   C4A72714  43.845  36.086   7.350
10160POPC   C1B72715  43.920  35.842   6.450
10160POPC   C2B72716  43.869  35.833   6.750
10160POPC   C3B72717  43.907  35.864   7.050
10160POPC   C4B72718  43.855  35.881   7.350
10161POPC   NC372719  12.075  20.587   5.550
10161POPC   PO472720  12.087  20.606   5.850
10161POPC   GL172721  12.120  20.594   6.150
10161POPC   GL272722  12.149  20.725   6.150
10161POPC   C1A72723  12.039  20.563   6.450
10161POPC   D2A72724  12.070  20.633   6.750
10161POPC   C3A72725  12.061  20.650   7.050
10161POPC   C4A72726  12.065  20.590   7.350
10161POPC   C1B72727  12.241  20.806   6.450
10161POPC   C2B72728  12.296  20.761   6.750
10161POPC   C3B72729  12.318  20.748   7.050
10161POPC   C4B72730  12.321  20.726   7.350
10162POPC   NC372731   4.294   2.729   5.550
10162POPC   PO472732   4.316   2.794   5.850
10162POPC   GL172733   4.364   2.746   6.150
10162POPC   GL272734   4.443   2.754   6.150
10162POPC   C1A72735   4.314   2.738   6.450
10162POPC   D2A72736   4.290   2.801   6.750
10162POPC   C3A72737   4.320   2.725   7.050
10162POPC   C4A72738   4.311   2.750   7.350
10162POPC   C1B72739   4.547   2.687   6.450
10162POPC   C2B72740   4.546   2.673   6.750
10162POPC   C3B72741   4.544   2.643   7.050
10162POPC   C4B72742   4.507   2.721   7.350
10163POPC   NC372743  36.119   5.122   5.550
10163POPC   PO472744  36.084   5.116   5.850
10163POPC   GL172745  36.144   5.123   6.150
10163POPC   GL272746  36.034   5.191   6.150
10163POPC   C1A72747  36.132   5.050   6.450
10163POPC   D2A72748  36.176   5.065   6.750
10163POPC   C3A72749  36.174   5.124   7.050
10163POPC   C4A72750  36.170   5.059   7.350
10163POPC   C1B72751  35.920   5.319   6.450
10163POPC   C2B72752  35.979   5.314   6.750
10163POPC   C3B72753  35.928   5.311   7.050
10163POPC   C4B72754  35.941   5.267   7.350
10164POPC   NC372755  10.524   4.300   5.550
10164POPC   PO472756  10.494   4.300   5.850
10164POPC   GL172757  10.556   4.320   6.150
10164POPC   GL272758  10.545   4.184   6.150
10164POPC   C1A72759  10.543   4.342   6.450
10164POPC   D2A72760  10.562   4.317   6.750
10164POPC   C3A72761  10.475   4.304   7.050
10164POPC   C4A72762  10.513   4.352   7.350
10164POPC   C1B72763  10.602   4.136   6.450
10164POPC   C2B72764  10.659   4.050   6.750
10164POPC   C3B72765  10.602   4.045   7.050
10164POPC   C4B72766  10.636   4.060   7.350
10165POPC   NC372767  13.658  32.255   5.550
10165POPC   PO472768  13.665  32.265   5.850
10165POPC   GL172769  13.644  32.213   6.150
10165POPC   GL272770  13.725  32.166   6.150
10165POPC   C1A72771  13.651  32.291   6.450
10165POPC   D2A72772  13.609  32.238   6.750
10165POPC   C3A72773  13.677  32.271   7.050
10165POPC   C4A72774  13.641  32.206   7.350
10165POPC   C1B72775  13.785  32.062   6.450
10165POPC   C2B72776  13.785  32.030   6.750
10165POPC   C3B72777  13.798  32.084   7.050
10165POPC   C4B72778  13.798  32.108   7.350
10166POPC   NC372779  41.517  32.215   5.550
10166POPC   PO472780  41.565  32.269   5.850
10166POPC   GL172781  41.608  32.239   6.150
10166POPC   GL272782  41.507  32.147   6.150
10166POPC   C1A72783  41.513  32.199   6.450
10166POPC   D2A72784  41.568  32.295   6.750
10166POPC   C3A72785  41.598  32.224   7.050
10166POPC   C4A72786  41.597  32.235   7.350
10166POPC   C1B72787  41.406  32.058   6.450
10166POPC   C2B72788  41.342  32.087   6.750
10166POPC   C3B72789  41.406  32.018   7.050
10166POPC   C4B72790  41.428  32.061   7.350
10167POPC   NC372791  40.792  12.804   5.550
10167POPC   PO472792  40.763  12.865   5.850
10167POPC   GL172793  40.788  12.879   6.150
10167POPC   GL272794  40.671  12.912   6.150
10167POPC   C1A72795  40.829  12.846   6.450
10167POPC   D2A72796  40.786  12.832   6.750
10167POPC   C3A72797  40.808  12.861   7.050
10167POPC   C4A72798  40.799  12.816   7.350
10167POPC   C1B72799  40.541  12.896   6.450
10167POPC   C2B72800  40.576  12.899   6.750
10167POPC   C3B72801  40.513  12.920   7.050
10167POPC   C4B72802  40.561  12.857   7.350
10168POPC   NC372803   1.195  14.407   5.550
10168POPC   PO472804   1.261  14.386   5.850
10168POPC   GL172805   1.207  14.382   6.150
10168POPC   GL272806   1.227  14.564   6.150
10168POPC   C1A72807   1.194  14.411   6.450
10168POPC   D2A72808   1.257  14.384   6.750
10168POPC   C3A72809   1.244  14.420   7.050
10168POPC   C4A72810   1.219  14.428   7.350
10168POPC   C1B72811   1.114  14.664   6.450
10168POPC   C2B72812   1.130  14.612   6.750
10168POPC   C3B72813   1.156  14.615   7.050
10168POPC   C4B72814   1.129  14.620   7.350
10169POPC   NC372815  35.392  36.860   5.550
10169POPC   PO472816  35.379  36.879   5.850
10169POPC   GL172817  35.356  36.889   6.150
10169POPC   GL272818  35.231  36.966   6.150
10169POPC   C1A72819  35.351  36.934   6.450
10169POPC   D2A72820  35.389  36.864   6.750
10169POPC   C3A72821  35.378  36.860   7.050
10169POPC   C4A72822  35.392  36.875   7.350
10169POPC   C1B72823  35.125  36.909   6.450
10169POPC   C2B72824  35.077  36.927   6.750
10169POPC   C3B72825  35.116  36.968   7.050
10169POPC   C4B72826  35.122  36.893   7.350
10170POPC   NC372827  24.465  18.265   5.550
10170POPC   PO472828  24.484  18.236   5.850
10170POPC   GL172829  24.496  18.318   6.150
10170POPC   GL272830  24.476  18.445   6.150
10170POPC   C1A72831  24.480  18.265   6.450
10170POPC   D2A72832  24.532  18.310   6.750
10170POPC   C3A72833  24.502  18.258   7.050
10170POPC   C4A72834  24.497  18.240   7.350
10170POPC   C1B72835  24.528  18.510   6.450
10170POPC   C2B72836  24.588  18.506   6.750
10170POPC   C3B72837  24.561  18.478   7.050
10170POPC   C4B72838  24.510  18.547   7.350
10171POPC   NC372839  32.229  43.882   5.550
10171POPC   PO472840  32.224  43.861   5.850
10171POPC   GL172841  32.264  43.923   6.150
10171POPC   GL272842  32.280  43.817   6.150
10171POPC   C1A72843  32.269  43.866   6.450
10171POPC   D2A72844  32.244  43.855   6.750
10171POPC   C3A72845  32.293  43.912   7.050
10171POPC   C4A72846  32.242  43.871   7.350
10171POPC   C1B72847  32.421  43.722   6.450
10171POPC   C2B72848  32.451  43.730   6.750
10171POPC   C3B72849  32.391  43.725   7.050
10171POPC   C4B72850  32.390  43.731   7.350
10172POPC   NC372851  16.763   2.741   5.550
10172POPC   PO472852  16.691   2.718   5.850
10172POPC   GL172853  16.699   2.763   6.150
10172POPC   GL272854  16.615   2.835   6.150
10172POPC   C1A72855  16.688   2.738   6.450
10172POPC   D2A72856  16.684   2.811   6.750
10172POPC   C3A72857  16.713   2.762   7.050
10172POPC   C4A72858  16.735   2.773   7.350
10172POPC   C1B72859  16.614   2.947   6.450
10172POPC   C2B72860  16.570   3.001   6.750
10172POPC   C3B72861  16.582   3.011   7.050
10172POPC   C4B72862  16.609   2.939   7.350
10173POPC   NC372863  19.108  34.559   5.550
10173POPC   PO472864  19.082  34.586   5.850
10173POPC   GL172865  19.098  34.534   6.150
10173POPC   GL272866  19.166  34.610   6.150
10173POPC   C1A72867  19.096  34.547   6.450
10173POPC   D2A72868  19.059  34.593   6.750
10173POPC   C3A72869  19.075  34.545   7.050
10173POPC   C4A72870  19.102  34.600   7.350
10173POPC   C1B72871  19.323  34.598   6.450
10173POPC   C2B72872  19.348  34.570   6.750
10173POPC   C3B72873  19.293  34.644   7.050
10173POPC   C4B72874  19.351  34.582   7.350
10174POPC   NC372875  41.548  35.304   5.550
10174POPC   PO472876  41.602  35.305   5.850
10174POPC   GL172877  41.529  35.401   6.150
10174POPC   GL272878  41.598  35.260   6.150
10174POPC   C1A72879  41.565  35.337   6.450
10174POPC   D2A72880  41.529  35.333   6.750
10174POPC   C3A72881  41.520  35.339   7.050
10174POPC   C4A72882  41.538  35.318   7.350
10174POPC   C1B72883  41.759  35.185   6.450
10174POPC   C2B72884  41.731  35.196   6.750
10174POPC   C3B72885  41.743  35.137   7.050
10174POPC   C4B72886  41.714  35.122   7.350
10175POPC   NC372887  38.490  36.167   5.550
10175POPC   PO472888  38.432  36.102   5.850
10175POPC   GL172889  38.456  36.164   6.150
10175POPC   GL272890  38.467  35.962   6.150
10175POPC   C1A72891  38.498  36.138   6.450
10175POPC   D2A72892  38.499  36.168   6.750
10175POPC   C3A72893  38.484  36.100   7.050
10175POPC   C4A72894  38.479  36.112   7.350
10175POPC   C1B72895  38.411  35.836   6.450
10175POPC   C2B72896  38.413  35.890   6.750
10175POPC   C3B72897  38.379  35.919   7.050
10175POPC   C4B72898  38.354  35.913   7.350
10176POPC   NC372899   8.941  22.190   5.550
10176POPC   PO472900   8.986  22.192   5.850
10176POPC   GL172901   8.935  22.188   6.150
10176POPC   GL272902   9.021  22.009   6.150
10176POPC   C1A72903   8.939  22.180   6.450
10176POPC   D2A72904   8.962  22.136   6.750
10176POPC   C3A72905   8.972  22.199   7.050
10176POPC   C4A72906   8.928  22.170   7.350
10176POPC   C1B72907   9.018  21.869   6.450
10176POPC   C2B72908   9.005  21.907   6.750
10176POPC   C3B72909   8.963  21.878   7.050
10176POPC   C4B72910   8.963  21.958   7.350
10177POPC   NC372911  30.744   0.474   5.550
10177POPC   PO472912  30.692   0.402   5.850
10177POPC   GL172913  30.720   0.424   6.150
10177POPC   GL272914  30.619   0.369   6.150
10177POPC   C1A72915  30.734   0.419   6.450
10177POPC   D2A72916  30.677   0.403   6.750
10177POPC   C3A72917  30.727   0.429   7.050
10177POPC   C4A72918  30.680   0.419   7.350
10177POPC   C1B72919  30.504   0.218   6.450
10177POPC   C2B72920  30.543   0.262   6.750
10177POPC   C3B72921  30.494   0.278   7.050
10177POPC   C4B72922  30.494   0.214   7.350
10178POPC   NC372923  27.593  32.207   5.550
10178POPC   PO472924  27.571  32.235   5.850
10178POPC   GL172925  27.585  32.259   6.150
10178POPC   GL272926  27.659  32.143   6.150
10178POPC   C1A72927  27.553  32.214   6.450
10178POPC   D2A72928  27.554  32.205   6.750
10178POPC   C3A72929  27.575  32.271   7.050
10178POPC   C4A72930  27.634  32.207   7.350
10178POPC   C1B72931  27.661  31.988   6.450
10178POPC   C2B72932  27.593  32.025   6.750
10178POPC   C3B72933  27.666  31.969   7.050
10178POPC   C4B72934  27.664  31.988   7.350
10179POPC   NC372935  16.778   8.979   5.550
10179POPC   PO472936  16.702   8.931   5.850
10179POPC   GL172937  16.712   8.954   6.150
10179POPC   GL272938  16.747   8.884   6.150
10179POPC   C1A72939  16.691   8.964   6.450
10179POPC   D2A72940  16.737   8.961   6.750
10179POPC   C3A72941  16.710   8.947   7.050
10179POPC   C4A72942  16.748   9.014   7.350
10179POPC   C1B72943  16.681   8.717   6.450
10179POPC   C2B72944  16.651   8.775   6.750
10179POPC   C3B72945  16.672   8.676   7.050
10179POPC   C4B72946  16.677   8.729   7.350
10180POPC   NC372947   3.494   9.753   5.550
10180POPC   PO472948   3.514   9.722   5.850
10180POPC   GL172949   3.506   9.750   6.150
10180POPC   GL272950   3.580   9.696   6.150
10180POPC   C1A72951   3.560   9.711   6.450
10180POPC   D2A72952   3.567   9.706   6.750
10180POPC   C3A72953   3.565   9.716   7.050
10180POPC   C4A72954   3.517   9.768   7.350
10180POPC   C1B72955   3.689   9.515   6.450
10180POPC   C2B72956   3.713   9.599   6.750
10180POPC   C3B72957   3.734   9.594   7.050
10180POPC   C4B72958   3.746   9.582   7.350
10181POPC   NC372959   7.399   4.317   5.550
10181POPC   PO472960   7.386   4.300   5.850
10181POPC   GL172961   7.382   4.337   6.150
10181POPC   GL272962   7.369   4.211   6.150
10181POPC   C1A72963   7.416   4.355   6.450
10181POPC   D2A72964   7.458   4.315   6.750
10181POPC   C3A72965   7.403   4.297   7.050
10181POPC   C4A72966   7.463   4.343   7.350
10181POPC   C1B72967   7.380   4.053   6.450
10181POPC   C2B72968   7.347   4.042   6.750
10181POPC   C3B72969   7.338   4.103   7.050
10181POPC   C4B72970   7.357   4.097   7.350
10182POPC   NC372971   4.295  17.522   5.550
10182POPC   PO472972   4.322  17.519   5.850
10182POPC   GL172973   4.269  17.475   6.150
10182POPC   GL272974   4.322  17.601   6.150
10182POPC   C1A72975   4.365  17.490   6.450
10182POPC   D2A72976   4.332  17.458   6.750
10182POPC   C3A72977   4.364  17.509   7.050
10182POPC   C4A72978   4.302  17.521   7.350
10182POPC   C1B72979   4.275  17.747   6.450
10182POPC   C2B72980   4.300  17.782   6.750
10182POPC   C3B72981   4.260  17.730   7.050
10182POPC   C4B72982   4.336  17.795   7.350
10183POPC   NC372983   5.110  36.153   5.550
10183POPC   PO472984   5.127  36.162   5.850
10183POPC   GL172985   5.134  36.139   6.150
10183POPC   GL272986   5.082  36.237   6.150
10183POPC   C1A72987   5.089  36.108   6.450
10183POPC   D2A72988   5.075  36.108   6.750
10183POPC   C3A72989   5.070  36.130   7.050
10183POPC   C4A72990   5.058  36.089   7.350
10183POPC   C1B72991   5.195  36.408   6.450
10183POPC   C2B72992   5.117  36.326   6.750
10183POPC   C3B72993   5.124  36.398   7.050
10183POPC   C4B72994   5.124  36.372   7.350
10184POPC   NC372995   7.426  32.241   5.550
10184POPC   PO472996   7.467  32.253   5.850
10184POPC   GL172997   7.455  32.257   6.150
10184POPC   GL272998   7.343  32.114   6.150
10184POPC   C1A72999   7.420  32.253   6.450
10184POPC   D2A73000   7.415  32.288   6.750
10184POPC   C3A73001   7.414  32.256   7.050
10184POPC   C4A73002   7.460  32.206   7.350
10184POPC   C1B73003   7.306  32.054   6.450
10184POPC   C2B73004   7.276  32.057   6.750
10184POPC   C3B73005   7.313  32.009   7.050
10184POPC   C4B73006   7.269  31.980   7.350
10185POPC   NC373007  34.584  14.384   5.550
10185POPC   PO473008  34.569  14.431   5.850
10185POPC   GL173009  34.621  14.411   6.150
10185POPC   GL273010  34.423  14.454   6.150
10185POPC   C1A73011  34.540  14.411   6.450
10185POPC   D2A73012  34.588  14.409   6.750
10185POPC   C3A73013  34.541  14.402   7.050
10185POPC   C4A73014  34.572  14.380   7.350
10185POPC   C1B73015  34.346  14.495   6.450
10185POPC   C2B73016  34.298  14.492   6.750
10185POPC   C3B73017  34.340  14.491   7.050
10185POPC   C4B73018  34.337  14.460   7.350
10186POPC   NC373019  12.865  12.879   5.550
10186POPC   PO473020  12.807  12.825   5.850
10186POPC   GL173021  12.865  12.819   6.150
10186POPC   GL273022  12.709  12.872   6.150
10186POPC   C1A73023  12.863  12.821   6.450
10186POPC   D2A73024  12.846  12.855   6.750
10186POPC   C3A73025  12.803  12.870   7.050
10186POPC   C4A73026  12.807  12.805   7.350
10186POPC   C1B73027  12.599  12.940   6.450
10186POPC   C2B73028  12.625  12.965   6.750
10186POPC   C3B73029  12.648  12.967   7.050
10186POPC   C4B73030  12.603  12.963   7.350
10187POPC   NC373031  26.067  17.483   5.550
10187POPC   PO473032  26.034  17.536   5.850
10187POPC   GL173033  26.067  17.459   6.150
10187POPC   GL273034  26.160  17.511   6.150
10187POPC   C1A73035  26.025  17.527   6.450
10187POPC   D2A73036  26.061  17.471   6.750
10187POPC   C3A73037  26.041  17.521   7.050
10187POPC   C4A73038  26.076  17.521   7.350
10187POPC   C1B73039  26.299  17.515   6.450
10187POPC   C2B73040  26.339  17.469   6.750
10187POPC   C3B73041  26.261  17.554   7.050
10187POPC   C4B73042  26.264  17.509   7.350
10188POPC   NC373043   0.434  24.482   5.550
10188POPC   PO473044   0.393  24.500   5.850
10188POPC   GL173045   0.438  24.512   6.150
10188POPC   GL273046   0.480  24.365   6.150
10188POPC   C1A73047   0.461  24.457   6.450
10188POPC   D2A73048   0.417  24.478   6.750
10188POPC   C3A73049   0.404  24.526   7.050
10188POPC   C4A73050   0.396  24.522   7.350
10188POPC   C1B73051   0.492  24.242   6.450
10188POPC   C2B73052   0.452  24.259   6.750
10188POPC   C3B73053   0.505  24.268   7.050
10188POPC   C4B73054   0.435  24.232   7.350
10189POPC   NC373055  13.588  31.429   5.550
10189POPC   PO473056  13.657  31.458   5.850
10189POPC   GL173057  13.666  31.444   6.150
10189POPC   GL273058  13.456  31.491   6.150
10189POPC   C1A73059  13.659  31.454   6.450
10189POPC   D2A73060  13.593  31.453   6.750
10189POPC   C3A73061  13.609  31.474   7.050
10189POPC   C4A73062  13.651  31.475   7.350
10189POPC   C1B73063  13.419  31.477   6.450
10189POPC   C2B73064  13.421  31.551   6.750
10189POPC   C3B73065  13.415  31.563   7.050
10189POPC   C4B73066  13.381  31.507   7.350
10190POPC   NC373067  16.691  22.144   5.550
10190POPC   PO473068  16.776  22.160   5.850
10190POPC   GL173069  16.686  22.126   6.150
10190POPC   GL273070  16.864  22.222   6.150
10190POPC   C1A73071  16.773  22.183   6.450
10190POPC   D2A73072  16.705  22.132   6.750
10190POPC   C3A73073  16.769  22.165   7.050
10190POPC   C4A73074  16.736  22.146   7.350
10190POPC   C1B73075  16.971  22.194   6.450
10190POPC   C2B73076  16.969  22.164   6.750
10190POPC   C3B73077  16.978  22.230   7.050
10190POPC   C4B73078  17.019  22.179   7.350
10191POPC   NC373079   6.613  19.872   5.550
10191POPC   PO473080   6.632  19.858   5.850
10191POPC   GL173081   6.672  19.796   6.150
10191POPC   GL273082   6.745  19.872   6.150
10191POPC   C1A73083   6.645  19.833   6.450
10191POPC   D2A73084   6.637  19.864   6.750
10191POPC   C3A73085   6.615  19.880   7.050
10191POPC   C4A73086   6.682  19.837   7.350
10191POPC   C1B73087   6.806  19.966   6.450
10191POPC   C2B73088   6.881  19.973   6.750
10191POPC   C3B73089   6.880  19.987   7.050
10191POPC   C4B73090   6.817  19.986   7.350
10192POPC   NC373091   8.202  10.476   5.550
10192POPC   PO473092   8.195  10.510   5.850
10192POPC   GL173093   8.230  10.573   6.150
10192POPC   GL273094   8.354  10.471   6.150
10192POPC   C1A73095   8.221  10.491   6.450
10192POPC   D2A73096   8.224  10.503   6.750
10192POPC   C3A73097   8.218  10.556   7.050
10192POPC   C4A73098   8.215  10.540   7.350
10192POPC   C1B73099   8.466  10.429   6.450
10192POPC   C2B73100   8.448  10.466   6.750
10192POPC   C3B73101   8.425  10.440   7.050
10192POPC   C4B73102   8.408  10.413   7.350
10193POPC   NC373103  14.418   4.292   5.550
10193POPC   PO473104  14.402   4.341   5.850
10193POPC   GL173105  14.391   4.282   6.150
10193POPC   GL273106  14.554   4.395   6.150
10193POPC   C1A73107  14.432   4.299   6.450
10193POPC   D2A73108  14.379   4.310   6.750
10193POPC   C3A73109  14.447   4.313   7.050
10193POPC   C4A73110  14.405   4.276   7.350
10193POPC   C1B73111  14.610   4.350   6.450
10193POPC   C2B73112  14.630   4.379   6.750
10193POPC   C3B73113  14.594   4.376   7.050
10193POPC   C4B73114  14.670   4.352   7.350
10194POPC   NC373115  43.909  24.480   5.550
10194POPC   PO473116  43.870  24.500   5.850
10194POPC   GL173117  43.875  24.503   6.150
10194POPC   GL273118  44.039  24.494   6.150
10194POPC   C1A73119  43.906  24.465   6.450
10194POPC   D2A73120  43.926  24.457   6.750
10194POPC   C3A73121  43.878  24.443   7.050
10194POPC   C4A73122  43.915  24.472   7.350
10194POPC   C1B73123  44.106  24.636   6.450
10194POPC   C2B73124  44.144  24.608   6.750
10194POPC   C3B73125  44.090  24.575   7.050
10194POPC   C4B73126  44.100  24.560   7.350
10195POPC   NC373127   9.713   9.012   5.550
10195POPC   PO473128   9.756   8.989   5.850
10195POPC   GL173129   9.774   8.961   6.150
10195POPC   GL273130   9.669   9.005   6.150
10195POPC   C1A73131   9.724   8.946   6.450
10195POPC   D2A73132   9.754   9.015   6.750
10195POPC   C3A73133   9.705   8.967   7.050
10195POPC   C4A73134   9.777   8.994   7.350
10195POPC   C1B73135   9.518   9.042   6.450
10195POPC   C2B73136   9.534   9.107   6.750
10195POPC   C3B73137   9.494   9.063   7.050
10195POPC   C4B73138   9.559   9.024   7.350
10196POPC   NC373139  22.119   8.199   5.550
10196POPC   PO473140  22.166   8.166   5.850
10196POPC   GL173141  22.185   8.177   6.150
10196POPC   GL273142  22.185   8.048   6.150
10196POPC   C1A73143  22.156   8.172   6.450
10196POPC   D2A73144  22.193   8.165   6.750
10196POPC   C3A73145  22.201   8.161   7.050
10196POPC   C4A73146  22.156   8.174   7.350
10196POPC   C1B73147  22.311   7.935   6.450
10196POPC   C2B73148  22.324   7.965   6.750
10196POPC   C3B73149  22.263   8.004   7.050
10196POPC   C4B73150  22.269   7.961   7.350
10197POPC   NC373151   9.731  20.571   5.550
10197POPC   PO473152   9.704  20.624   5.850
10197POPC   GL173153   9.786  20.567   6.150
10197POPC   GL273154   9.654  20.514   6.150
10197POPC   C1A73155   9.749  20.577   6.450
10197POPC   D2A73156   9.723  20.616   6.750
10197POPC   C3A73157   9.747  20.592   7.050
10197POPC   C4A73158   9.797  20.638   7.350
10197POPC   C1B73159   9.603  20.397   6.450
10197POPC   C2B73160   9.542  20.453   6.750
10197POPC   C3B73161   9.550  20.448   7.050
10197POPC   C4B73162   9.597  20.474   7.350
10198POPC   NC373163   7.449  26.817   5.550
10198POPC   PO473164   7.396  26.834   5.850
10198POPC   GL173165   7.436  26.818   6.150
10198POPC   GL273166   7.403  26.705   6.150
10198POPC   C1A73167   7.428  26.797   6.450
10198POPC   D2A73168   7.459  26.824   6.750
10198POPC   C3A73169   7.450  26.863   7.050
10198POPC   C4A73170   7.459  26.848   7.350
10198POPC   C1B73171   7.422  26.620   6.450
10198POPC   C2B73172   7.500  26.610   6.750
10198POPC   C3B73173   7.426  26.599   7.050
10198POPC   C4B73174   7.462  26.561   7.350
10199POPC   NC373175  16.763  19.813   5.550
10199POPC   PO473176  16.694  19.856   5.850
10199POPC   GL173177  16.763  19.881   6.150
10199POPC   GL273178  16.803  19.730   6.150
10199POPC   C1A73179  16.772  19.808   6.450
10199POPC   D2A73180  16.705  19.786   6.750
10199POPC   C3A73181  16.759  19.821   7.050
10199POPC   C4A73182  16.772  19.808   7.350
10199POPC   C1B73183  16.908  19.673   6.450
10199POPC   C2B73184  16.920  19.676   6.750
10199POPC   C3B73185  16.939  19.654   7.050
10199POPC   C4B73186  16.939  19.632   7.350
10200POPC   NC373187  30.724   7.401   5.550
10200POPC   PO473188  30.660   7.375   5.850
10200POPC   GL173189  30.651   7.470   6.150
10200POPC   GL273190  30.588   7.456   6.150
10200POPC   C1A73191  30.708   7.425   6.450
10200POPC   D2A73192  30.695   7.389   6.750
10200POPC   C3A73193  30.654   7.408   7.050
10200POPC   C4A73194  30.746   7.372   7.350
10200POPC   C1B73195  30.485   7.354   6.450
10200POPC   C2B73196  30.416   7.416   6.750
10200POPC   C3B73197  30.496   7.360   7.050
10200POPC   C4B73198  30.438   7.406   7.350
10201POPC   NC373199  11.313  10.494   5.550
10201POPC   PO473200  11.287  10.479   5.850
10201POPC   GL173201  11.308  10.495   6.150
10201POPC   GL273202  11.205  10.427   6.150
10201POPC   C1A73203  11.288  10.563   6.450
10201POPC   D2A73204  11.265  10.528   6.750
10201POPC   C3A73205  11.279  10.499   7.050
10201POPC   C4A73206  11.344  10.516   7.350
10201POPC   C1B73207  11.110  10.322   6.450
10201POPC   C2B73208  11.103  10.381   6.750
10201POPC   C3B73209  11.114  10.330   7.050
10201POPC   C4B73210  11.076  10.330   7.350
10202POPC   NC373211  28.322   2.771   5.550
10202POPC   PO473212  28.355   2.813   5.850
10202POPC   GL173213  28.338   2.802   6.150
10202POPC   GL273214  28.275   2.731   6.150
10202POPC   C1A73215  28.378   2.769   6.450
10202POPC   D2A73216  28.335   2.806   6.750
10202POPC   C3A73217  28.328   2.773   7.050
10202POPC   C4A73218  28.321   2.802   7.350
10202POPC   C1B73219  28.153   2.572   6.450
10202POPC   C2B73220  28.191   2.613   6.750
10202POPC   C3B73221  28.218   2.574   7.050
10202POPC   C4B73222  28.197   2.613   7.350
10203POPC   NC373223  44.624   0.486   5.550
10203POPC   PO473224  44.636   0.432   5.850
10203POPC   GL173225  44.617   0.450   6.150
10203POPC   GL273226  44.605   0.497   6.150
10203POPC   C1A73227  44.708   0.440   6.450
10203POPC   D2A73228  44.617   0.454   6.750
10203POPC   C3A73229  44.628   0.442   7.050
10203POPC   C4A73230  44.703   0.474   7.350
10203POPC   C1B73231  44.466   0.602   6.450
10203POPC   C2B73232  44.540   0.622   6.750
10203POPC   C3B73233  44.539   0.638   7.050
10203POPC   C4B73234  44.513   0.588   7.350
10204POPC   NC373235  14.383  29.121   5.550
10204POPC   PO473236  14.422  29.102   5.850
10204POPC   GL173237  14.419  29.115   6.150
10204POPC   GL273238  14.309  29.097   6.150
10204POPC   C1A73239  14.435  29.122   6.450
10204POPC   D2A73240  14.410  29.114   6.750
10204POPC   C3A73241  14.393  29.162   7.050
10204POPC   C4A73242  14.431  29.114   7.350
10204POPC   C1B73243  14.110  29.158   6.450
10204POPC   C2B73244  14.203  29.178   6.750
10204POPC   C3B73245  14.175  29.112   7.050
10204POPC   C4B73246  14.137  29.177   7.350
10205POPC   NC373247   4.339  15.999   5.550
10205POPC   PO473248   4.350  15.981   5.850
10205POPC   GL173249   4.279  15.933   6.150
10205POPC   GL273250   4.218  15.984   6.150
10205POPC   C1A73251   4.321  15.967   6.450
10205POPC   D2A73252   4.300  15.963   6.750
10205POPC   C3A73253   4.337  15.958   7.050
10205POPC   C4A73254   4.346  15.912   7.350
10205POPC   C1B73255   4.020  15.988   6.450
10205POPC   C2B73256   4.051  15.950   6.750
10205POPC   C3B73257   4.079  15.975   7.050
10205POPC   C4B73258   4.102  15.956   7.350
10206POPC   NC373259  12.108  34.539   5.550
10206POPC   PO473260  12.077  34.528   5.850
10206POPC   GL173261  12.078  34.553   6.150
10206POPC   GL273262  12.182  34.629   6.150
10206POPC   C1A73263  12.113  34.553   6.450
10206POPC   D2A73264  12.045  34.527   6.750
10206POPC   C3A73265  12.054  34.531   7.050
10206POPC   C4A73266  12.119  34.621   7.350
10206POPC   C1B73267  12.262  34.774   6.450
10206POPC   C2B73268  12.298  34.728   6.750
10206POPC   C3B73269  12.240  34.736   7.050
10206POPC   C4B73270  12.276  34.720   7.350
10207POPC   NC373271   1.206  40.795   5.550
10207POPC   PO473272   1.208  40.820   5.850
10207POPC   GL173273   1.175  40.832   6.150
10207POPC   GL273274   1.300  40.935   6.150
10207POPC   C1A73275   1.223  40.831   6.450
10207POPC   D2A73276   1.207  40.767   6.750
10207POPC   C3A73277   1.258  40.739   7.050
10207POPC   C4A73278   1.209  40.739   7.350
10207POPC   C1B73279   1.287  41.017   6.450
10207POPC   C2B73280   1.267  40.986   6.750
10207POPC   C3B73281   1.331  40.998   7.050
10207POPC   C4B73282   1.319  41.046   7.350
10208POPC   NC373283  27.601  44.664   5.550
10208POPC   PO473284  27.591  44.676   5.850
10208POPC   GL173285  27.602  44.656   6.150
10208POPC   GL273286  27.630  44.740   6.150
10208POPC   C1A73287  27.552  44.687   6.450
10208POPC   D2A73288  27.636  44.647   6.750
10208POPC   C3A73289  27.568  44.703   7.050
10208POPC   C4A73290  27.565  44.668   7.350
10208POPC   C1B73291  27.736  44.827   6.450
10208POPC   C2B73292  27.787  44.882   6.750
10208POPC   C3B73293  27.789  44.861   7.050
10208POPC   C4B73294  27.715  44.876   7.350
10209POPC   NC373295  11.310   3.566   5.550
10209POPC   PO473296  11.334   3.568   5.850
10209POPC   GL173297  11.297   3.530   6.150
10209POPC   GL273298  11.211   3.416   6.150
10209POPC   C1A73299  11.305   3.530   6.450
10209POPC   D2A73300  11.267   3.522   6.750
10209POPC   C3A73301  11.263   3.543   7.050
10209POPC   C4A73302  11.318   3.548   7.350
10209POPC   C1B73303  11.118   3.424   6.450
10209POPC   C2B73304  11.160   3.335   6.750
10209POPC   C3B73305  11.119   3.357   7.050
10209POPC   C4B73306  11.143   3.375   7.350
10210POPC   NC373307   5.849  28.389   5.550
10210POPC   PO473308   5.828  28.357   5.850
10210POPC   GL173309   5.901  28.342   6.150
10210POPC   GL273310   5.980  28.295   6.150
10210POPC   C1A73311   5.835  28.387   6.450
10210POPC   D2A73312   5.906  28.355   6.750
10210POPC   C3A73313   5.918  28.413   7.050
10210POPC   C4A73314   5.836  28.383   7.350
10210POPC   C1B73315   6.070  28.323   6.450
10210POPC   C2B73316   6.065  28.311   6.750
10210POPC   C3B73317   6.162  28.342   7.050
10210POPC   C4B73318   6.113  28.275   7.350
10211POPC   NC373319  28.357  43.148   5.550
10211POPC   PO473320  28.390  43.076   5.850
10211POPC   GL173321  28.344  43.124   6.150
10211POPC   GL273322  28.380  43.006   6.150
10211POPC   C1A73323  28.399  43.084   6.450
10211POPC   D2A73324  28.328  43.087   6.750
10211POPC   C3A73325  28.407  43.140   7.050
10211POPC   C4A73326  28.389  43.154   7.350
10211POPC   C1B73327  28.441  42.878   6.450
10211POPC   C2B73328  28.410  42.846   6.750
10211POPC   C3B73329  28.466  42.842   7.050
10211POPC   C4B73330  28.455  42.866   7.350
10212POPC   NC373331  31.470   8.989   5.550
10212POPC   PO473332  31.521   8.950   5.850
10212POPC   GL173333  31.462   9.010   6.150
10212POPC   GL273334  31.545   9.105   6.150
10212POPC   C1A73335  31.458   8.978   6.450
10212POPC   D2A73336  31.437   8.944   6.750
10212POPC   C3A73337  31.477   8.955   7.050
10212POPC   C4A73338  31.484   8.994   7.350
10212POPC   C1B73339  31.618   9.194   6.450
10212POPC   C2B73340  31.657   9.111   6.750
10212POPC   C3B73341  31.619   9.191   7.050
10212POPC   C4B73342  31.669   9.172   7.350
10213POPC   NC373343  22.201   1.183   5.550
10213POPC   PO473344  22.200   1.180   5.850
10213POPC   GL173345  22.199   1.169   6.150
10213POPC   GL273346  22.052   1.256   6.150
10213POPC   C1A73347  22.151   1.258   6.450
10213POPC   D2A73348  22.118   1.217   6.750
10213POPC   C3A73349  22.205   1.190   7.050
10213POPC   C4A73350  22.125   1.252   7.350
10213POPC   C1B73351  21.960   1.396   6.450
10213POPC   C2B73352  21.967   1.414   6.750
10213POPC   C3B73353  21.949   1.347   7.050
10213POPC   C4B73354  21.997   1.397   7.350
10214POPC   NC373355  19.858  29.109   5.550
10214POPC   PO473356  19.838  29.180   5.850
10214POPC   GL173357  19.864  29.125   6.150
10214POPC   GL273358  19.916  29.012   6.150
10214POPC   C1A73359  19.793  29.176   6.450
10214POPC   D2A73360  19.818  29.170   6.750
10214POPC   C3A73361  19.816  29.132   7.050
10214POPC   C4A73362  19.866  29.160   7.350
10214POPC   C1B73363  19.967  28.895   6.450
10214POPC   C2B73364  20.002  28.894   6.750
10214POPC   C3B73365  20.015  28.980   7.050
10214POPC   C4B73366  19.947  28.901   7.350
10215POPC   NC373367  18.267  18.280   5.550
10215POPC   PO473368  18.235  18.267   5.850
10215POPC   GL173369  18.310  18.281   6.150
10215POPC   GL273370  18.198  18.236   6.150
10215POPC   C1A73371  18.243  18.239   6.450
10215POPC   D2A73372  18.286  18.267   6.750
10215POPC   C3A73373  18.326  18.233   7.050
10215POPC   C4A73374  18.328  18.256   7.350
10215POPC   C1B73375  18.060  18.093   6.450
10215POPC   C2B73376  18.082  18.147   6.750
10215POPC   C3B73377  18.061  18.105   7.050
10215POPC   C4B73378  18.079  18.130   7.350
10216POPC   NC373379  24.471   3.557   5.550
10216POPC   PO473380  24.464   3.516   5.850
10216POPC   GL173381  24.514   3.587   6.150
10216POPC   GL273382  24.537   3.394   6.150
10216POPC   C1A73383  24.500   3.538   6.450
10216POPC   D2A73384  24.474   3.537   6.750
10216POPC   C3A73385  24.477   3.579   7.050
10216POPC   C4A73386  24.443   3.529   7.350
10216POPC   C1B73387  24.565   3.311   6.450
10216POPC   C2B73388  24.514   3.314   6.750
10216POPC   C3B73389  24.503   3.292   7.050
10216POPC   C4B73390  24.559   3.246   7.350
10217POPC   NC373391   6.600  14.422   5.550
10217POPC   PO473392   6.615  14.381   5.850
10217POPC   GL173393   6.649  14.377   6.150
10217POPC   GL273394   6.608  14.534   6.150
10217POPC   C1A73395   6.631  14.389   6.450
10217POPC   D2A73396   6.611  14.448   6.750
10217POPC   C3A73397   6.649  14.418   7.050
10217POPC   C4A73398   6.638  14.430   7.350
10217POPC   C1B73399   6.620  14.614   6.450
10217POPC   C2B73400   6.619  14.616   6.750
10217POPC   C3B73401   6.638  14.634   7.050
10217POPC   C4B73402   6.682  14.702   7.350
10218POPC   NC373403   1.213  13.622   5.550
10218POPC   PO473404   1.170  13.643   5.850
10218POPC   GL173405   1.189  13.621   6.150
10218POPC   GL273406   1.163  13.778   6.150
10218POPC   C1A73407   1.193  13.632   6.450
10218POPC   D2A73408   1.184  13.650   6.750
10218POPC   C3A73409   1.184  13.676   7.050
10218POPC   C4A73410   1.228  13.674   7.350
10218POPC   C1B73411   1.114  13.829   6.450
10218POPC   C2B73412   1.150  13.866   6.750
10218POPC   C3B73413   1.143  13.811   7.050
10218POPC   C4B73414   1.119  13.898   7.350
10219POPC   NC373415  26.000  34.546   5.550
10219POPC   PO473416  26.041  34.603   5.850
10219POPC   GL173417  26.046  34.614   6.150
10219POPC   GL273418  25.894  34.486   6.150
10219POPC   C1A73419  26.016  34.603   6.450
10219POPC   D2A73420  25.999  34.547   6.750
10219POPC   C3A73421  26.086  34.550   7.050
10219POPC   C4A73422  26.010  34.559   7.350
10219POPC   C1B73423  25.878  34.433   6.450
10219POPC   C2B73424  25.864  34.437   6.750
10219POPC   C3B73425  25.826  34.460   7.050
10219POPC   C4B73426  25.829  34.406   7.350
10220POPC   NC373427  43.900   8.190   5.550
10220POPC   PO473428  43.906   8.217   5.850
10220POPC   GL173429  43.861   8.225   6.150
10220POPC   GL273430  44.051   8.187   6.150
10220POPC   C1A73431  43.861   8.167   6.450
10220POPC   D2A73432  43.837   8.225   6.750
10220POPC   C3A73433  43.897   8.176   7.050
10220POPC   C4A73434  43.843   8.182   7.350
10220POPC   C1B73435  44.155   8.174   6.450
10220POPC   C2B73436  44.097   8.197   6.750
10220POPC   C3B73437  44.089   8.191   7.050
10220POPC   C4B73438  44.104   8.247   7.350
10221POPC   NC373439  27.642  40.740   5.550
10221POPC   PO473440  27.616  40.829   5.850
10221POPC   GL173441  27.642  40.820   6.150
10221POPC   GL273442  27.516  40.712   6.150
10221POPC   C1A73443  27.551  40.757   6.450
10221POPC   D2A73444  27.629  40.774   6.750
10221POPC   C3A73445  27.560  40.776   7.050
10221POPC   C4A73446  27.586  40.807   7.350
10221POPC   C1B73447  27.371  40.769   6.450
10221POPC   C2B73448  27.327  40.683   6.750
10221POPC   C3B73449  27.362  40.694   7.050
10221POPC   C4B73450  27.385  40.751   7.350
10222POPC   NC373451  37.704  24.445   5.550
10222POPC   PO473452  37.645  24.465   5.850
10222POPC   GL173453  37.653  24.456   6.150
10222POPC   GL273454  37.784  24.408   6.150
10222POPC   C1A73455  37.688  24.474   6.450
10222POPC   D2A73456  37.693  24.484   6.750
10222POPC   C3A73457  37.658  24.440   7.050
10222POPC   C4A73458  37.683  24.521   7.350
10222POPC   C1B73459  37.862  24.271   6.450
10222POPC   C2B73460  37.813  24.306   6.750
10222POPC   C3B73461  37.858  24.314   7.050
10222POPC   C4B73462  37.794  24.302   7.350
10223POPC   NC373463  43.868  15.914   5.550
10223POPC   PO473464  43.867  15.933   5.850
10223POPC   GL173465  43.934  15.948   6.150
10223POPC   GL273466  43.914  15.844   6.150
10223POPC   C1A73467  43.907  15.909   6.450
10223POPC   D2A73468  43.873  15.990   6.750
10223POPC   C3A73469  43.886  15.970   7.050
10223POPC   C4A73470  43.853  15.987   7.350
10223POPC   C1B73471  43.886  15.695   6.450
10223POPC   C2B73472  43.842  15.732   6.750
10223POPC   C3B73473  43.875  15.746   7.050
10223POPC   C4B73474  43.832  15.695   7.350
10224POPC   NC373475  20.598  12.027   5.550
10224POPC   PO473476  20.595  12.109   5.850
10224POPC   GL173477  20.613  12.059   6.150
10224POPC   GL273478  20.594  12.219   6.150
10224POPC   C1A73479  20.614  12.068   6.450
10224POPC   D2A73480  20.589  12.028   6.750
10224POPC   C3A73481  20.607  12.113   7.050
10224POPC   C4A73482  20.575  12.064   7.350
10224POPC   C1B73483  20.628  12.304   6.450
10224POPC   C2B73484  20.701  12.339   6.750
10224POPC   C3B73485  20.713  12.341   7.050
10224POPC   C4B73486  20.628  12.295   7.350
10225POPC   NC373487  13.627  40.029   5.550
10225POPC   PO473488  13.624  40.003   5.850
10225POPC   GL173489  13.656  40.027   6.150
10225POPC   GL273490  13.482  40.099   6.150
10225POPC   C1A73491  13.631  40.055   6.450
10225POPC   D2A73492  13.584  39.994   6.750
10225POPC   C3A73493  13.613  40.040   7.050
10225POPC   C4A73494  13.584  39.988   7.350
10225POPC   C1B73495  13.478  40.170   6.450
10225POPC   C2B73496  13.443  40.194   6.750
10225POPC   C3B73497  13.412  40.199   7.050
10225POPC   C4B73498  13.427  40.200   7.350
10226POPC   NC373499  10.486  21.342   5.550
10226POPC   PO473500  10.561  21.337   5.850
10226POPC   GL173501  10.539  21.357   6.150
10226POPC   GL273502  10.581  21.484   6.150
10226POPC   C1A73503  10.549  21.354   6.450
10226POPC   D2A73504  10.570  21.337   6.750
10226POPC   C3A73505  10.523  21.423   7.050
10226POPC   C4A73506  10.566  21.344   7.350
10226POPC   C1B73507  10.664  21.584   6.450
10226POPC   C2B73508  10.682  21.633   6.750
10226POPC   C3B73509  10.630  21.599   7.050
10226POPC   C4B73510  10.696  21.573   7.350
10227POPC   NC373511  33.056  43.100   5.550
10227POPC   PO473512  33.044  43.111   5.850
10227POPC   GL173513  33.041  43.129   6.150
10227POPC   GL273514  33.163  43.025   6.150
10227POPC   C1A73515  33.043  43.121   6.450
10227POPC   D2A73516  33.035  43.111   6.750
10227POPC   C3A73517  32.988  43.063   7.050
10227POPC   C4A73518  32.992  43.088   7.350
10227POPC   C1B73519  33.261  42.972   6.450
10227POPC   C2B73520  33.276  43.049   6.750
10227POPC   C3B73521  33.242  43.047   7.050
10227POPC   C4B73522  33.250  43.061   7.350
10228POPC   NC373523  18.324  42.368   5.550
10228POPC   PO473524  18.255  42.336   5.850
10228POPC   GL173525  18.267  42.361   6.150
10228POPC   GL273526  18.270  42.174   6.150
10228POPC   C1A73527  18.292  42.342   6.450
10228POPC   D2A73528  18.292  42.375   6.750
10228POPC   C3A73529  18.318  42.320   7.050
10228POPC   C4A73530  18.313  42.334   7.350
10228POPC   C1B73531  18.190  42.089   6.450
10228POPC   C2B73532  18.268  42.085   6.750
10228POPC   C3B73533  18.200  42.107   7.050
10228POPC   C4B73534  18.266  42.136   7.350
10229POPC   NC373535  26.777  31.453   5.550
10229POPC   PO473536  26.867  31.464   5.850
10229POPC   GL173537  26.769  31.500   6.150
10229POPC   GL273538  26.844  31.586   6.150
10229POPC   C1A73539  26.824  31.469   6.450
10229POPC   D2A73540  26.826  31.514   6.750
10229POPC   C3A73541  26.843  31.468   7.050
10229POPC   C4A73542  26.856  31.508   7.350
10229POPC   C1B73543  26.766  31.702   6.450
10229POPC   C2B73544  26.814  31.746   6.750
10229POPC   C3B73545  26.765  31.749   7.050
10229POPC   C4B73546  26.729  31.746   7.350
10230POPC   NC373547  16.695  19.018   5.550
10230POPC   PO473548  16.722  19.085   5.850
10230POPC   GL173549  16.695  19.061   6.150
10230POPC   GL273550  16.669  19.148   6.150
10230POPC   C1A73551  16.712  19.069   6.450
10230POPC   D2A73552  16.717  19.097   6.750
10230POPC   C3A73553  16.749  19.109   7.050
10230POPC   C4A73554  16.726  19.030   7.350
10230POPC   C1B73555  16.713  19.291   6.450
10230POPC   C2B73556  16.699  19.349   6.750
10230POPC   C3B73557  16.677  19.257   7.050
10230POPC   C4B73558  16.676  19.350   7.350
10231POPC   NC373559  41.591  15.907   5.550
10231POPC   PO473560  41.539  15.998   5.850
10231POPC   GL173561  41.575  15.928   6.150
10231POPC   GL273562  41.652  15.949   6.150
10231POPC   C1A73563  41.591  15.968   6.450
10231POPC   D2A73564  41.604  15.917   6.750
10231POPC   C3A73565  41.580  16.000   7.050
10231POPC   C4A73566  41.552  15.971   7.350
10231POPC   C1B73567  41.791  15.848   6.450
10231POPC   C2B73568  41.739  15.860   6.750
10231POPC   C3B73569  41.773  15.895   7.050
10231POPC   C4B73570  41.783  15.875   7.350
10232POPC   NC373571  27.585  31.445   5.550
10232POPC   PO473572  27.641  31.513   5.850
10232POPC   GL173573  27.639  31.488   6.150
10232POPC   GL273574  27.518  31.553   6.150
10232POPC   C1A73575  27.587  31.491   6.450
10232POPC   D2A73576  27.589  31.456   6.750
10232POPC   C3A73577  27.624  31.516   7.050
10232POPC   C4A73578  27.595  31.474   7.350
10232POPC   C1B73579  27.505  31.692   6.450
10232POPC   C2B73580  27.569  31.741   6.750
10232POPC   C3B73581  27.487  31.690   7.050
10232POPC   C4B73582  27.535  31.677   7.350
10233POPC   NC373583  17.505   6.666   5.550
10233POPC   PO473584  17.506   6.631   5.850
10233POPC   GL173585  17.542   6.621   6.150
10233POPC   GL273586  17.471   6.744   6.150
10233POPC   C1A73587  17.486   6.645   6.450
10233POPC   D2A73588  17.522   6.668   6.750
10233POPC   C3A73589  17.540   6.665   7.050
10233POPC   C4A73590  17.492   6.682   7.350
10233POPC   C1B73591  17.472   6.918   6.450
10233POPC   C2B73592  17.511   6.927   6.750
10233POPC   C3B73593  17.513   6.850   7.050
10233POPC   C4B73594  17.461   6.888   7.350
10234POPC   NC373595  40.814  13.671   5.550
10234POPC   PO473596  40.743  13.627   5.850
10234POPC   GL173597  40.733  13.638   6.150
10234POPC   GL273598  40.784  13.796   6.150
10234POPC   C1A73599  40.740  13.583   6.450
10234POPC   D2A73600  40.755  13.584   6.750
10234POPC   C3A73601  40.789  13.624   7.050
10234POPC   C4A73602  40.766  13.675   7.350
10234POPC   C1B73603  40.829  13.826   6.450
10234POPC   C2B73604  40.885  13.882   6.750
10234POPC   C3B73605  40.871  13.832   7.050
10234POPC   C4B73606  40.809  13.875   7.350
10235POPC   NC373607  36.933  26.865   5.550
10235POPC   PO473608  36.872  26.811   5.850
10235POPC   GL173609  36.897  26.786   6.150
10235POPC   GL273610  36.923  26.650   6.150
10235POPC   C1A73611  36.919  26.839   6.450
10235POPC   D2A73612  36.855  26.802   6.750
10235POPC   C3A73613  36.872  26.818   7.050
10235POPC   C4A73614  36.857  26.768   7.350
10235POPC   C1B73615  36.874  26.556   6.450
10235POPC   C2B73616  36.886  26.534   6.750
10235POPC   C3B73617  36.880  26.592   7.050
10235POPC   C4B73618  36.807  26.527   7.350
10236POPC   NC373619  33.045  36.102   5.550
10236POPC   PO473620  33.022  36.176   5.850
10236POPC   GL173621  33.022  36.162   6.150
10236POPC   GL273622  32.945  36.198   6.150
10236POPC   C1A73623  33.057  36.166   6.450
10236POPC   D2A73624  32.990  36.122   6.750
10236POPC   C3A73625  33.052  36.161   7.050
10236POPC   C4A73626  33.004  36.104   7.350
10236POPC   C1B73627  32.812  36.257   6.450
10236POPC   C2B73628  32.821  36.252   6.750
10236POPC   C3B73629  32.782  36.280   7.050
10236POPC   C4B73630  32.798  36.228   7.350
10237POPC   NC373631  29.930  25.993   5.550
10237POPC   PO473632  29.917  26.011   5.850
10237POPC   GL173633  29.893  26.087   6.150
10237POPC   GL273634  29.823  26.086   6.150
10237POPC   C1A73635  29.904  26.022   6.450
10237POPC   D2A73636  29.957  26.060   6.750
10237POPC   C3A73637  29.871  26.036   7.050
10237POPC   C4A73638  29.945  26.013   7.350
10237POPC   C1B73639  29.664  26.029   6.450
10237POPC   C2B73640  29.713  26.100   6.750
10237POPC   C3B73641  29.622  26.067   7.050
10237POPC   C4B73642  29.644  26.052   7.350
10238POPC   NC373643  24.490  11.276   5.550
10238POPC   PO473644  24.514  11.252   5.850
10238POPC   GL173645  24.514  11.286   6.150
10238POPC   GL273646  24.636  11.250   6.150
10238POPC   C1A73647  24.482  11.260   6.450
10238POPC   D2A73648  24.486  11.263   6.750
10238POPC   C3A73649  24.497  11.331   7.050
10238POPC   C4A73650  24.534  11.254   7.350
10238POPC   C1B73651  24.734  11.260   6.450
10238POPC   C2B73652  24.695  11.199   6.750
10238POPC   C3B73653  24.746  11.200   7.050
10238POPC   C4B73654  24.707  11.230   7.350
10239POPC   NC373655  38.458  19.852   5.550
10239POPC   PO473656  38.493  19.858   5.850
10239POPC   GL173657  38.410  19.807   6.150
10239POPC   GL273658  38.594  19.871   6.150
10239POPC   C1A73659  38.412  19.878   6.450
10239POPC   D2A73660  38.417  19.842   6.750
10239POPC   C3A73661  38.486  19.849   7.050
10239POPC   C4A73662  38.422  19.818   7.350
10239POPC   C1B73663  38.731  19.970   6.450
10239POPC   C2B73664  38.710  19.924   6.750
10239POPC   C3B73665  38.703  19.908   7.050
10239POPC   C4B73666  38.699  19.957   7.350
10240POPC   NC373667  44.622  13.617   5.550
10240POPC   PO473668  44.651  13.651   5.850
10240POPC   GL173669  44.639  13.623   6.150
10240POPC   GL273670  44.556  13.764   6.150
10240POPC   C1A73671  44.613  13.633   6.450
10240POPC   D2A73672  44.697  13.585   6.750
10240POPC   C3A73673  44.624  13.593   7.050
10240POPC   C4A73674  44.654  13.673   7.350
10240POPC   C1B73675  44.481  13.814   6.450
10240POPC   C2B73676  44.550  13.821   6.750
10240POPC   C3B73677  44.494  13.806   7.050
10240POPC   C4B73678  44.544  13.790   7.350
10241POPC   NC373679  23.712  23.686   5.550
10241POPC   PO473680  23.715  23.748   5.850
10241POPC   GL173681  23.763  23.686   6.150
10241POPC   GL273682  23.711  23.637   6.150
10241POPC   C1A73683  23.681  23.746   6.450
10241POPC   D2A73684  23.678  23.750   6.750
10241POPC   C3A73685  23.727  23.667   7.050
10241POPC   C4A73686  23.706  23.701   7.350
10241POPC   C1B73687  23.671  23.523   6.450
10241POPC   C2B73688  23.654  23.494   6.750
10241POPC   C3B73689  23.642  23.490   7.050
10241POPC   C4B73690  23.627  23.521   7.350
10242POPC   NC373691  12.896  17.486   5.550
10242POPC   PO473692  12.827  17.553   5.850
10242POPC   GL173693  12.832  17.546   6.150
10242POPC   GL273694  12.783  17.483   6.150
10242POPC   C1A73695  12.891  17.550   6.450
10242POPC   D2A73696  12.858  17.532   6.750
10242POPC   C3A73697  12.816  17.555   7.050
10242POPC   C4A73698  12.866  17.506   7.350
10242POPC   C1B73699  12.583  17.427   6.450
10242POPC   C2B73700  12.645  17.395   6.750
10242POPC   C3B73701  12.577  17.397   7.050
10242POPC   C4B73702  12.625  17.374   7.350
10243POPC   NC373703   6.677  12.060   5.550
10243POPC   PO473704   6.693  12.083   5.850
10243POPC   GL173705   6.614  12.037   6.150
10243POPC   GL273706   6.476  12.054   6.150
10243POPC   C1A73707   6.677  12.049   6.450
10243POPC   D2A73708   6.646  12.101   6.750
10243POPC   C3A73709   6.617  12.081   7.050
10243POPC   C4A73710   6.597  12.091   7.350
10243POPC   C1B73711   6.350  12.056   6.450
10243POPC   C2B73712   6.387  12.121   6.750
10243POPC   C3B73713   6.431  12.152   7.050
10243POPC   C4B73714   6.388  12.092   7.350
10244POPC   NC373715   5.111  23.669   5.550
10244POPC   PO473716   5.103  23.691   5.850
10244POPC   GL173717   5.095  23.751   6.150
10244POPC   GL273718   5.235  23.656   6.150
10244POPC   C1A73719   5.053  23.664   6.450
10244POPC   D2A73720   5.095  23.734   6.750
10244POPC   C3A73721   5.076  23.763   7.050
10244POPC   C4A73722   5.086  23.762   7.350
10244POPC   C1B73723   5.297  23.584   6.450
10244POPC   C2B73724   5.323  23.560   6.750
10244POPC   C3B73725   5.309  23.631   7.050
10244POPC   C4B73726   5.297  23.630   7.350
10245POPC   NC373727  40.786  42.310   5.550
10245POPC   PO473728  40.743  42.371   5.850
10245POPC   GL173729  40.816  42.338   6.150
10245POPC   GL273730  40.685  42.301   6.150
10245POPC   C1A73731  40.774  42.287   6.450
10245POPC   D2A73732  40.827  42.305   6.750
10245POPC   C3A73733  40.801  42.293   7.050
10245POPC   C4A73734  40.743  42.313   7.350
10245POPC   C1B73735  40.618  42.181   6.450
10245POPC   C2B73736  40.581  42.221   6.750
10245POPC   C3B73737  40.559  42.204   7.050
10245POPC   C4B73738  40.585  42.151   7.350
10246POPC   NC373739  20.562  40.733   5.550
10246POPC   PO473740  20.578  40.747   5.850
10246POPC   GL173741  20.576  40.825   6.150
10246POPC   GL273742  20.659  40.705   6.150
10246POPC   C1A73743  20.650  40.782   6.450
10246POPC   D2A73744  20.568  40.777   6.750
10246POPC   C3A73745  20.567  40.805   7.050
10246POPC   C4A73746  20.581  40.782   7.350
10246POPC   C1B73747  20.742  40.516   6.450
10246POPC   C2B73748  20.701  40.593   6.750
10246POPC   C3B73749  20.675  40.545   7.050
10246POPC   C4B73750  20.741  40.568   7.350
10247POPC   NC373751  35.370  40.038   5.550
10247POPC   PO473752  35.330  40.009   5.850
10247POPC   GL173753  35.375  39.992   6.150
10247POPC   GL273754  35.283  40.057   6.150
10247POPC   C1A73755  35.374  40.016   6.450
10247POPC   D2A73756  35.356  40.030   6.750
10247POPC   C3A73757  35.386  40.052   7.050
10247POPC   C4A73758  35.325  40.009   7.350
10247POPC   C1B73759  35.173  40.139   6.450
10247POPC   C2B73760  35.131  40.168   6.750
10247POPC   C3B73761  35.120  40.138   7.050
10247POPC   C4B73762  35.184  40.181   7.350
10248POPC   NC373763  25.312  40.831   5.550
10248POPC   PO473764  25.298  40.812   5.850
10248POPC   GL173765  25.256  40.818   6.150
10248POPC   GL273766  25.293  40.900   6.150
10248POPC   C1A73767  25.303  40.774   6.450
10248POPC   D2A73768  25.280  40.738   6.750
10248POPC   C3A73769  25.216  40.829   7.050
10248POPC   C4A73770  25.238  40.818   7.350
10248POPC   C1B73771  25.379  41.001   6.450
10248POPC   C2B73772  25.393  41.024   6.750
10248POPC   C3B73773  25.344  40.993   7.050
10248POPC   C4B73774  25.412  40.997   7.350
10249POPC   NC373775  36.929  44.664   5.550
10249POPC   PO473776  36.866  44.677   5.850
10249POPC   GL173777  36.938  44.644   6.150
10249POPC   GL273778  36.783  44.659   6.150
10249POPC   C1A73779  36.952  44.615   6.450
10249POPC   D2A73780  36.923  44.668   6.750
10249POPC   C3A73781  36.917  44.639   7.050
10249POPC   C4A73782  36.937  44.673   7.350
10249POPC   C1B73783  36.700  44.625   6.450
10249POPC   C2B73784  36.658  44.673   6.750
10249POPC   C3B73785  36.612  44.653   7.050
10249POPC   C4B73786  36.661  44.657   7.350
10250POPC   NC373787  10.532   0.424   5.550
10250POPC   PO473788  10.477   0.485   5.850
10250POPC   GL173789  10.489   0.397   6.150
10250POPC   GL273790  10.430   0.299   6.150
10250POPC   C1A73791  10.517   0.444   6.450
10250POPC   D2A73792  10.498   0.473   6.750
10250POPC   C3A73793  10.531   0.411   7.050
10250POPC   C4A73794  10.500   0.472   7.350
10250POPC   C1B73795  10.331   0.229   6.450
10250POPC   C2B73796  10.366   0.241   6.750
10250POPC   C3B73797  10.331   0.241   7.050
10250POPC   C4B73798  10.342   0.237   7.350
10251POPC   NC373799   2.761   1.264   5.550
10251POPC   PO473800   2.734   1.171   5.850
10251POPC   GL173801   2.801   1.196   6.150
10251POPC   GL273802   2.739   1.290   6.150
10251POPC   C1A73803   2.755   1.196   6.450
10251POPC   D2A73804   2.751   1.243   6.750
10251POPC   C3A73805   2.781   1.169   7.050
10251POPC   C4A73806   2.732   1.194   7.350
10251POPC   C1B73807   2.809   1.499   6.450
10251POPC   C2B73808   2.824   1.458   6.750
10251POPC   C3B73809   2.746   1.421   7.050
10251POPC   C4B73810   2.742   1.499   7.350
10252POPC   NC373811  43.096  17.481   5.550
10252POPC   PO473812  43.083  17.540   5.850
10252POPC   GL173813  43.081  17.525   6.150
10252POPC   GL273814  43.157  17.607   6.150
10252POPC   C1A73815  43.120  17.474   6.450
10252POPC   D2A73816  43.110  17.508   6.750
10252POPC   C3A73817  43.140  17.538   7.050
10252POPC   C4A73818  43.061  17.471   7.350
10252POPC   C1B73819  43.211  17.782   6.450
10252POPC   C2B73820  43.225  17.791   6.750
10252POPC   C3B73821  43.133  17.697   7.050
10252POPC   C4B73822  43.179  17.768   7.350
10253POPC   NC373823  29.971  33.010   5.550
10253POPC   PO473824  29.886  32.982   5.850
10253POPC   GL173825  29.934  33.025   6.150
10253POPC   GL273826  30.057  33.063   6.150
10253POPC   C1A73827  29.902  33.038   6.450
10253POPC   D2A73828  29.901  33.043   6.750
10253POPC   C3A73829  29.963  33.062   7.050
10253POPC   C4A73830  29.890  32.989   7.350
10253POPC   C1B73831  30.118  33.100   6.450
10253POPC   C2B73832  30.190  33.144   6.750
10253POPC   C3B73833  30.112  33.171   7.050
10253POPC   C4B73834  30.140  33.182   7.350
10254POPC   NC373835  38.501  30.713   5.550
10254POPC   PO473836  38.470  30.709   5.850
10254POPC   GL173837  38.428  30.730   6.150
10254POPC   GL273838  38.482  30.541   6.150
10254POPC   C1A73839  38.457  30.740   6.450
10254POPC   D2A73840  38.479  30.729   6.750
10254POPC   C3A73841  38.477  30.740   7.050
10254POPC   C4A73842  38.441  30.720   7.350
10254POPC   C1B73843  38.558  30.510   6.450
10254POPC   C2B73844  38.605  30.467   6.750
10254POPC   C3B73845  38.523  30.517   7.050
10254POPC   C4B73846  38.546  30.425   7.350
10255POPC   NC373847  19.038  41.539   5.550
10255POPC   PO473848  19.016  41.601   5.850
10255POPC   GL173849  19.088  41.576   6.150
10255POPC   GL273850  19.174  41.595   6.150
10255POPC   C1A73851  19.086  41.514   6.450
10255POPC   D2A73852  19.083  41.530   6.750
10255POPC   C3A73853  19.087  41.528   7.050
10255POPC   C4A73854  19.014  41.601   7.350
10255POPC   C1B73855  19.349  41.615   6.450
10255POPC   C2B73856  19.296  41.600   6.750
10255POPC   C3B73857  19.284  41.647   7.050
10255POPC   C4B73858  19.340  41.641   7.350
10256POPC   NC373859  26.866  12.104   5.550
10256POPC   PO473860  26.845  12.043   5.850
10256POPC   GL173861  26.853  12.044   6.150
10256POPC   GL273862  26.760  11.967   6.150
10256POPC   C1A73863  26.792  12.058   6.450
10256POPC   D2A73864  26.862  12.060   6.750
10256POPC   C3A73865  26.798  12.119   7.050
10256POPC   C4A73866  26.866  12.097   7.350
10256POPC   C1B73867  26.612  11.959   6.450
10256POPC   C2B73868  26.611  11.973   6.750
10256POPC   C3B73869  26.652  11.930   7.050
10256POPC   C4B73870  26.576  11.957   7.350
10257POPC   NC373871  30.696   8.973   5.550
10257POPC   PO473872  30.680   8.997   5.850
10257POPC   GL173873  30.673   8.949   6.150
10257POPC   GL273874  30.733   8.891   6.150
10257POPC   C1A73875  30.659   8.925   6.450
10257POPC   D2A73876  30.715   8.953   6.750
10257POPC   C3A73877  30.719   8.944   7.050
10257POPC   C4A73878  30.712   8.947   7.350
10257POPC   C1B73879  30.767   8.775   6.450
10257POPC   C2B73880  30.832   8.735   6.750
10257POPC   C3B73881  30.828   8.706   7.050
10257POPC   C4B73882  30.843   8.781   7.350
10258POPC   NC373883  26.002  19.025   5.550
10258POPC   PO473884  26.079  19.057   5.850
10258POPC   GL173885  26.032  19.018   6.150
10258POPC   GL273886  26.121  18.980   6.150
10258POPC   C1A73887  26.071  19.046   6.450
10258POPC   D2A73888  26.085  19.032   6.750
10258POPC   C3A73889  26.073  19.017   7.050
10258POPC   C4A73890  26.043  19.036   7.350
10258POPC   C1B73891  26.138  18.810   6.450
10258POPC   C2B73892  26.145  18.842   6.750
10258POPC   C3B73893  26.184  18.868   7.050
10258POPC   C4B73894  26.210  18.805   7.350
10259POPC   NC373895   4.348  44.632   5.550
10259POPC   PO473896   4.349  44.680   5.850
10259POPC   GL173897   4.299  44.677   6.150
10259POPC   GL273898   4.229  44.668   6.150
10259POPC   C1A73899   4.296  44.683   6.450
10259POPC   D2A73900   4.277  44.709   6.750
10259POPC   C3A73901   4.321  44.694   7.050
10259POPC   C4A73902   4.285  44.655   7.350
10259POPC   C1B73903   4.086  44.597   6.450
10259POPC   C2B73904   4.026  44.596   6.750
10259POPC   C3B73905   4.035  44.647   7.050
10259POPC   C4B73906   4.093  44.651   7.350
10260POPC   NC373907  23.670  42.298   5.550
10260POPC   PO473908  23.741  42.358   5.850
10260POPC   GL173909  23.712  42.372   6.150
10260POPC   GL273910  23.770  42.216   6.150
10260POPC   C1A73911  23.758  42.343   6.450
10260POPC   D2A73912  23.684  42.295   6.750
10260POPC   C3A73913  23.723  42.342   7.050
10260POPC   C4A73914  23.721  42.363   7.350
10260POPC   C1B73915  23.951  42.184   6.450
10260POPC   C2B73916  23.863  42.171   6.750
10260POPC   C3B73917  23.942  42.140   7.050
10260POPC   C4B73918  23.906  42.181   7.350
10261POPC   NC373919  11.344  37.715   5.550
10261POPC   PO473920  11.255  37.706   5.850
10261POPC   GL173921  11.313  37.689   6.150
10261POPC   GL273922  11.308  37.542   6.150
10261POPC   C1A73923  11.330  37.729   6.450
10261POPC   D2A73924  11.319  37.636   6.750
10261POPC   C3A73925  11.318  37.697   7.050
10261POPC   C4A73926  11.296  37.723   7.350
10261POPC   C1B73927  11.319  37.432   6.450
10261POPC   C2B73928  11.241  37.445   6.750
10261POPC   C3B73929  11.333  37.393   7.050
10261POPC   C4B73930  11.251  37.401   7.350
10262POPC   NC373931   9.012  41.578   5.550
10262POPC   PO473932   8.998  41.548   5.850
10262POPC   GL173933   8.990  41.571   6.150
10262POPC   GL273934   8.889  41.645   6.150
10262POPC   C1A73935   8.988  41.563   6.450
10262POPC   D2A73936   8.940  41.524   6.750
10262POPC   C3A73937   8.998  41.545   7.050
10262POPC   C4A73938   8.971  41.571   7.350
10262POPC   C1B73939   8.818  41.758   6.450
10262POPC   C2B73940   8.849  41.788   6.750
10262POPC   C3B73941   8.835  41.759   7.050
10262POPC   C4B73942   8.826  41.767   7.350
10263POPC   NC373943  22.195  19.068   5.550
10263POPC   PO473944  22.164  19.024   5.850
10263POPC   GL173945  22.134  19.081   6.150
10263POPC   GL273946  22.062  19.050   6.150
10263POPC   C1A73947  22.117  19.088   6.450
10263POPC   D2A73948  22.186  19.075   6.750
10263POPC   C3A73949  22.192  19.025   7.050
10263POPC   C4A73950  22.119  19.082   7.350
10263POPC   C1B73951  21.942  18.953   6.450
10263POPC   C2B73952  21.927  18.981   6.750
10263POPC   C3B73953  21.953  18.963   7.050
10263POPC   C4B73954  21.911  18.916   7.350
10264POPC   NC373955  37.725  10.515   5.550
10264POPC   PO473956  37.666  10.569   5.850
10264POPC   GL173957  37.709  10.508   6.150
10264POPC   GL273958  37.683  10.691   6.150
10264POPC   C1A73959  37.664  10.557   6.450
10264POPC   D2A73960  37.665  10.555   6.750
10264POPC   C3A73961  37.717  10.537   7.050
10264POPC   C4A73962  37.727  10.508   7.350
10264POPC   C1B73963  37.621  10.733   6.450
10264POPC   C2B73964  37.556  10.799   6.750
10264POPC   C3B73965  37.638  10.714   7.050
10264POPC   C4B73966  37.552  10.798   7.350
10265POPC   NC373967  28.354  27.557   5.550
10265POPC   PO473968  28.349  27.550   5.850
10265POPC   GL173969  28.401  27.564   6.150
10265POPC   GL273970  28.391  27.430   6.150
10265POPC   C1A73971  28.356  27.569   6.450
10265POPC   D2A73972  28.325  27.585   6.750
10265POPC   C3A73973  28.381  27.625   7.050
10265POPC   C4A73974  28.365  27.620   7.350
10265POPC   C1B73975  28.380  27.321   6.450
10265POPC   C2B73976  28.339  27.361   6.750
10265POPC   C3B73977  28.394  27.324   7.050
10265POPC   C4B73978  28.358  27.378   7.350
10266POPC   NC373979   3.492   5.107   5.550
10266POPC   PO473980   3.500   5.071   5.850
10266POPC   GL173981   3.513   5.078   6.150
10266POPC   GL273982   3.402   4.999   6.150
10266POPC   C1A73983   3.575   5.096   6.450
10266POPC   D2A73984   3.556   5.051   6.750
10266POPC   C3A73985   3.571   5.143   7.050
10266POPC   C4A73986   3.568   5.051   7.350
10266POPC   C1B73987   3.321   4.973   6.450
10266POPC   C2B73988   3.288   5.016   6.750
10266POPC   C3B73989   3.285   5.033   7.050
10266POPC   C4B73990   3.314   5.027   7.350
10267POPC   NC373991  31.473  17.495   5.550
10267POPC   PO473992  31.436  17.554   5.850
10267POPC   GL173993  31.500  17.509   6.150
10267POPC   GL273994  31.388  17.383   6.150
10267POPC   C1A73995  31.512  17.551   6.450
10267POPC   D2A73996  31.447  17.511   6.750
10267POPC   C3A73997  31.516  17.543   7.050
10267POPC   C4A73998  31.494  17.540   7.350
10267POPC   C1B73999  31.327  17.363   6.450
10267POPC   C2B74000  31.245  17.378   6.750
10267POPC   C3B74001  31.283  17.355   7.050
10267POPC   C4B74002  31.275  17.389   7.350
10268POPC   NC374003  39.268  42.323   5.550
10268POPC   PO474004  39.205  42.316   5.850
10268POPC   GL174005  39.182  42.343   6.150
10268POPC   GL274006  39.344  42.349   6.150
10268POPC   C1A74007  39.247  42.291   6.450
10268POPC   D2A74008  39.188  42.361   6.750
10268POPC   C3A74009  39.210  42.315   7.050
10268POPC   C4A74010  39.203  42.337   7.350
10268POPC   C1B74011  39.441  42.322   6.450
10268POPC   C2B74012  39.461  42.348   6.750
10268POPC   C3B74013  39.471  42.275   7.050
10268POPC   C4B74014  39.460  42.276   7.350
10269POPC   NC374015  19.078  42.308   5.550
10269POPC   PO474016  19.098  42.380   5.850
10269POPC   GL174017  19.037  42.342   6.150
10269POPC   GL274018  18.977  42.266   6.150
10269POPC   C1A74019  19.085  42.325   6.450
10269POPC   D2A74020  19.027  42.299   6.750
10269POPC   C3A74021  19.099  42.299   7.050
10269POPC   C4A74022  19.038  42.383   7.350
10269POPC   C1B74023  18.917  42.111   6.450
10269POPC   C2B74024  18.992  42.111   6.750
10269POPC   C3B74025  18.954  42.063   7.050
10269POPC   C4B74026  18.910  42.082   7.350
10270W        W74027  25.981  23.510   3.854
10271W        W74028  39.545  40.894   1.377
10272W        W74029  19.769  19.704   3.275
10273W        W74030  23.530  40.343  10.584
10274W        W74031  20.586  25.490   2.357
10275W        W74032  10.768   9.259  14.381
10276W        W74033  23.182  35.004   0.293
10277W        W74034  26.011  20.709  11.045
10278W        W74035  10.298  34.081   1.713
10279W        W74036   9.844   6.684   4.697
10280W        W74037  37.967   6.370   4.698
10281W        W74038  32.603   0.440  10.429
10282W        W74039  40.934  14.325  11.925
10283W        W74040   1.376  44.992  13.500
10284W        W74041   3.391   5.267  14.969
10285W        W74042  37.966  27.131   4.134
10286W        W74043  36.075  39.847   2.821
10287W        W74044   6.281  40.491  12.823
10288W        W74045  30.118   2.454  13.942
10289W        W74046  26.169  42.806  10.606
10290W        W74047  31.958   1.888   3.295
10291W        W74048  12.689   4.246   3.233
10292W        W74049  17.705  38.538   1.857
10293W        W74050  32.450   4.205   2.343
10294W        W74051  20.675   7.766   4.825
10295W        W74052   0.811  37.883  14.324
10296W        W74053  17.580   7.252  10.934
10297W        W74054   9.329  28.020   0.297
10298W        W74055  26.547   9.355  12.390
10299W        W74056   6.843  33.539   1.328
10300W        W74057  38.875   4.378   1.806
10301W        W74058  30.105  43.295   2.687
10302W        W74059  24.152  23.239  13.476
10303W        W74060  26.982  38.455  12.429
10304W        W74061  40.854  23.673  10.434
10305W        W74062  27.616  37.842   4.336
10306W        W74063  38.075  30.552   2.298
10307W        W74064  26.559  42.303  10.598
10308W        W74065  13.683  28.556   2.899
10309W        W74066  40.034  40.400   2.783
10310W        W74067  10.749  12.140   4.766
10311W        W74068  19.224  18.768  12.557
10312W        W74069   6.739  40.434   5.169
10313W        W74070  11.744  12.665   3.699
10314W        W74071  28.490  42.904  12.576
10315W        W74072  44.976  24.613   1.881
10316W        W74073   2.316  11.738  14.998
10317W        W74074  29.069  15.319   1.379
10318W        W74075  38.900  26.530  12.508
10319W        W74076  15.113  12.332  14.977
10320W        W74077  36.975   3.413  14.472
10321W        W74078  34.927  38.378   3.342
10322W        W74079  13.348   2.294  14.907
10323W        W74080  23.079  31.631   4.265
10324W        W74081   8.692  26.029  12.014
10325W        W74082  17.069  33.394  12.838
10326W        W74083  31.067   1.835  13.864
10327W        W74084  11.800  38.041   3.763
10328W        W74085  41.937  35.365   2.803
10329W        W74086  14.192  39.520  11.491
10330W        W74087  39.811   0.424   2.376
10331W        W74088  20.175  33.961  14.400
10332W        W74089  10.830   4.206  11.581
10333W        W74090   3.370  43.390  14.776
10334W        W74091  10.152  16.129   3.817
10335W        W74092  43.372  16.683   4.311
10336W        W74093   9.211  20.194  13.008
10337W        W74094  37.418  33.457   5.195
10338W        W74095  28.992  36.979   4.701
10339W        W74096  19.693  12.318  11.613
10340W        W74097  33.450   4.427  11.378
10341W        W74098   4.868  12.239  13.452
10342W        W74099  26.662  31.413  12.040
10343W        W74100  35.387  13.808  13.825
10344W        W74101  37.406  32.889  14.021
10345W        W74102   3.815  14.330   2.416
10346W        W74103  33.887  24.981   0.746
10347W        W74104   0.766  19.710   2.848
10348W        W74105  44.386  26.054   3.823
10349W        W74106  29.149  43.406  12.991
10350W        W74107   3.315  35.546  10.954
10351W        W74108  28.532   0.824  14.340
10352W        W74109  26.047  26.623   1.788
10353W        W74110   5.716   5.812   0.245
10354W        W74111  20.727  44.941   2.238
10355W        W74112   0.329  16.567  12.899
10356W        W74113  43.976   9.805   3.691
10357W        W74114  34.577  39.887  12.971
10358W        W74115  10.281  43.953  13.359
10359W        W74116  10.269  30.448  13.917
10360W        W74117  11.257  39.938   0.399
10361W        W74118  17.572  41.323   0.478
10362W        W74119  29.946   5.831  12.541
10363W        W74120  36.863   8.282   0.454
10364W        W74121  43.006  33.950  10.446
10365W        W74122  29.018  41.951  14.819
10366W        W74123  33.882  13.665   2.730
10367W        W74124   1.379  31.902  13.354
10368W        W74125  25.606  35.041   5.104
10369W        W74126  41.973  19.147   1.732
10370W        W74127  31.920  44.346  10.416
10371W        W74128   5.348  36.893  10.532
10372W        W74129  36.073  37.366  14.994
10373W        W74130  44.493  37.459   0.307
10374W        W74131  23.558   1.249  10.410
10375W        W74132   4.350  30.937   0.793
10376W        W74133  13.758   0.898  11.472
10377W        W74134  11.258  31.070  14.390
10378W        W74135  41.424   3.820  13.987
10379W        W74136  30.424   4.404  14.418
10380W        W74137  10.382   9.338   2.225
10381W        W74138  34.601  24.063   2.265
10382W        W74139   1.837   6.922  11.906
10383W        W74140  18.785   4.806   4.346
10384W        W74141  13.314   7.818  14.920
10385W        W74142  41.421  33.472   0.833
10386W        W74143  42.985  25.570   1.439
10387W        W74144  18.062   3.905  13.318
10388W        W74145  17.631  28.076   4.621
10389W        W74146  17.160  32.977  13.366
10390W        W74147  39.002   8.748  14.436
10391W        W74148  24.521  28.613  13.827
10392W        W74149  10.826   5.833   2.388
10393W        W74150  21.549  15.694  11.496
10394W        W74151  13.239  30.103  12.381
10395W        W74152  21.555  11.347   4.138
10396W        W74153  30.438  31.646   1.774
10397W        W74154  18.754  34.985  11.106
10398W        W74155  33.131  32.938   1.395
10399W        W74156   5.217  17.700  10.903
10400W        W74157  30.541   0.383   0.255
10401W        W74158   7.744  19.119   2.246
10402W        W74159   4.801  41.827  13.531
10403W        W74160   6.700  38.542  11.870
10404W        W74161  41.947   1.457  12.841
10405W        W74162   9.181  12.807   1.895
10406W        W74163   1.740  41.863   1.396
10407W        W74164  21.205  11.301   1.934
10408W        W74165  11.312  44.830   3.867
10409W        W74166   9.206  42.875   0.800
10410W        W74167  26.518  19.086  14.345
10411W        W74168  17.238   9.192   4.206
10412W        W74169  44.451   3.850   4.751
10413W        W74170  14.109  31.496  14.881
10414W        W74171  37.537  15.286   0.760
10415W        W74172  16.207  44.379   2.375
10416W        W74173  33.520  21.637  11.607
10417W        W74174  28.956  27.145  11.898
10418W        W74175  35.942  18.196   1.287
10419W        W74176  43.816   3.899   3.815
10420W        W74177  18.176  38.857  13.832
10421W        W74178   2.326  43.998   4.175
10422W        W74179  40.996  42.501   4.777
10423W        W74180  26.522  31.533   1.830
10424W        W74181  44.363  31.558  11.493
10425W        W74182  30.514  35.056  11.423
10426W        W74183  20.101  24.148  12.090
10427W        W74184  22.589  11.769   2.835
10428W        W74185   0.747  39.976   0.343
10429W        W74186  32.459  34.377  13.399
10430W        W74187  16.802   1.735  13.957
10431W        W74188   0.461  43.847   3.806
10432W        W74189  27.671   6.335  12.446
10433W        W74190  12.623  34.533   2.337
10434W        W74191  13.780  24.503  11.037
10435W        W74192  29.598  14.180  10.075
10436W        W74193   8.725  11.253   1.407
10437W        W74194   2.803  42.904  11.493
10438W        W74195  27.144  10.339   2.702
10439W        W74196  29.528  34.065   1.335
10440W        W74197  43.931  38.419   2.709
10441W        W74198   3.314  40.910  12.882
10442W        W74199   0.775   7.402  14.767
10443W        W74200  43.994  12.307  11.485
10444W        W74201  14.196  24.662   1.764
10445W        W74202  30.082  39.007   1.902
10446W        W74203  31.064   0.366  10.404
10447W        W74204  16.090  30.597  11.980
10448W        W74205  44.503  43.017   2.895
10449W        W74206  35.591  22.557   0.755
10450W        W74207  28.981   5.915  14.969
10451W        W74208  17.660  11.293   3.234
10452W        W74209   4.414   5.413   2.670
10453W        W74210  32.062  34.007   0.347
10454W        W74211  36.442  27.557  11.875
10455W        W74212   5.817  38.944  13.821
10456W        W74213  33.877  40.455  14.413
10457W        W74214   5.889  11.760   3.820
10458W        W74215  32.910  20.219   1.351
10459W        W74216  17.574  17.182  10.975
10460W        W74217  30.165  41.794  10.445
10461W        W74218  22.106  25.603   0.881
10462W        W74219  43.975  38.477  12.342
10463W        W74220  21.554  21.711  10.984
10464W        W74221  40.309  24.205  13.008
10465W        W74222  13.657  40.356  10.514
10466W        W74223  16.318  27.577   1.432
10467W        W74224  24.981  37.527  11.431
10468W        W74225  44.348  40.922   0.473
10469W        W74226  15.232   0.983  11.079
10470W        W74227  35.367  19.583  12.950
10471W        W74228  19.587  30.145  13.386
10472W        W74229  32.485  11.850   4.723
10473W        W74230  35.858   7.336  12.577
10474W        W74231  27.088  16.697  10.888
10475W        W74232  20.668  22.505  12.400
10476W        W74233  25.037  27.011  12.855
10477W        W74234   0.789  44.974   1.312
10478W        W74235   7.410  12.811   2.695
10479W        W74236  26.024   5.814   1.841
10480W        W74237  19.185  36.477   0.765
10481W        W74238   6.904  30.028  12.980
10482W        W74239   9.311  21.516   0.894
10483W        W74240   7.176  34.881  14.024
10484W        W74241   3.929   6.323  12.853
10485W        W74242  32.985   8.336  14.931
10486W        W74243  10.291   4.353   0.940
10487W        W74244  43.329   7.329  13.334
10488W        W74245   5.374  44.389  14.891
10489W        W74246   8.364  24.635  14.820
10490W        W74247  28.068  20.578   5.285
10491W        W74248  21.651  13.304   3.739
10492W        W74249   6.904  30.109  14.943
10493W        W74250  26.550   6.422   5.271
10494W        W74251  30.542  42.450   0.256
10495W        W74252   5.408  27.984  11.900
10496W        W74253  33.475   9.843   0.445
10497W        W74254  23.215  30.039  13.823
10498W        W74255   1.388  44.782  12.847
10499W        W74256  30.920   5.351   1.329
10500W        W74257   9.239  42.355  11.408
10501W        W74258  14.718  27.110  11.926
10502W        W74259  42.477  13.614  12.070
10503W        W74260  22.741   7.793   1.901
10504W        W74261   9.290  17.251  12.346
10505W        W74262  15.712  39.498  12.469
10506W        W74263   8.405   0.393   2.881
10507W        W74264  10.779  18.772  11.422
10508W        W74265  24.112   8.725   3.848
10509W        W74266  16.254  15.591  13.481
10510W        W74267  26.559  42.929  13.020
10511W        W74268  40.938  12.715   0.376
10512W        W74269  40.941  30.930  14.839
10513W        W74270   7.749  37.848  14.894
10514W        W74271   5.777  33.484  12.579
10515W        W74272  31.936  14.805   4.776
10516W        W74273  25.514   0.953  13.834
10517W        W74274  33.494  36.874  14.464
10518W        W74275  19.762   0.345  11.903
10519W        W74276  39.962  34.053  14.772
10520W        W74277   8.282  38.567  13.477
10521W        W74278  39.988   7.847  13.390
10522W        W74279  22.710  39.555   2.247
10523W        W74280  19.706   3.919   1.701
10524W        W74281   5.408  30.481  10.943
10525W        W74282  42.527  40.445  13.503
10526W        W74283  21.241   4.400  13.825
10527W        W74284  34.885   7.350   2.412
10528W        W74285  32.580  39.503  12.072
10529W        W74286  34.542  30.145   1.268
10530W        W74287  19.237  19.764   0.923
10531W        W74288  27.548  22.131   3.812
10532W        W74289  20.161   2.842  10.936
10533W        W74290  13.711  12.767   3.194
10534W        W74291  36.019  21.206  12.085
10535W        W74292  16.256  19.752   5.203
10536W        W74293  33.467  33.430  14.441
10537W        W74294  17.759   2.314   3.737
10538W        W74295   7.172  18.765   2.399
10539W        W74296  23.194  15.146  13.446
10540W        W74297   7.672   2.964   0.753
10541W        W74298  11.285  20.597   2.322
10542W        W74299   5.857   7.773  11.948
10543W        W74300  33.411  34.412   3.167
10544W        W74301  39.449   9.873  13.511
10545W        W74302  31.123  14.244  12.880
10546W        W74303  44.843  43.956   3.831
10547W        W74304   0.356  24.480   1.744
10548W        W74305  23.190  29.025   1.448
10549W        W74306  35.451  42.498   3.174
10550W        W74307   9.343  28.513   2.868
10551W        W74308   3.222   5.289   2.844
10552W        W74309  24.177   9.778   0.411
10553W        W74310  28.568   5.297   0.350
10554W        W74311  23.117   8.200   4.181
10555W        W74312  18.053  33.578   3.709
10556W        W74313  19.248  37.957  13.011
10557W        W74314   9.876  17.669   3.781
10558W        W74315  35.914  33.594  12.892
10559W        W74316  31.996  21.518   2.713
10560W        W74317   9.303  41.934  14.016
10561W        W74318  39.038   0.909   4.314
10562W        W74319   7.352  35.908   4.289
10563W        W74320  26.569  13.168   2.828
10564W        W74321   8.234   8.840  14.942
10565W        W74322  10.776   0.788  12.515
10566W        W74323  30.420   5.295   2.765
10567W        W74324  32.909  37.086  14.507
10568W        W74325  10.838  40.920  13.002
10569W        W74326   7.829  20.080   1.254
10570W        W74327  13.298  25.074   3.763
10571W        W74328  32.062   3.880   2.896
10572W        W74329  20.222  41.809  12.402
10573W        W74330   0.946   3.767   4.277
10574W        W74331  37.927  10.279  14.973
10575W        W74332   7.888  14.651   2.386
10576W        W74333  37.477   9.173  12.878
10577W        W74334  23.093   6.211  13.844
10578W        W74335  24.598  26.590  13.506
10579W        W74336   3.426  22.621   0.775
10580W        W74337  42.436  11.630  13.016
10581W        W74338  23.051  34.945  10.420
10582W        W74339   7.789   8.775   3.670
10583W        W74340  43.322  24.514  12.344
10584W        W74341   0.904  27.543  11.590
10585W        W74342   0.888  41.536   0.758
10586W        W74343  18.758  10.851  12.979
10587W        W74344  11.177  18.682   0.278
10588W        W74345  26.055  12.272  11.403
10589W        W74346  25.019  17.149  13.454
10590W        W74347  25.648  38.415   3.323
10591W        W74348  39.061  29.466   4.647
10592W        W74349   6.726  44.407   5.270
10593W        W74350  11.657  27.074  14.421
10594W        W74351  25.514  15.134   1.932
10595W        W74352  13.333  24.082  12.077
10596W        W74353  17.759   9.737   0.445
10597W        W74354  11.703  14.678   1.298
10598W        W74355  29.460   2.341   5.094
10599W        W74356   7.276  30.519  13.043
10600W        W74357  39.354   1.456  10.891
10601W        W74358  37.984  14.788   4.267
10602W        W74359  36.928  30.623   4.135
10603W        W74360   7.732  42.857  12.561
10604W        W74361   5.303   5.374   0.746
10605W        W74362  11.298  13.266  10.458
10606W        W74363  10.293  28.491   3.682
10607W        W74364  39.329   9.888   1.829
10608W        W74365   9.271   5.408   0.283
10609W        W74366  44.417   1.853   4.211
10610W        W74367  39.845   0.962  14.882
10611W        W74368  21.530  44.375   3.718
10612W        W74369   3.389  22.719   4.798
10613W        W74370  39.933  11.160   3.159
10614W        W74371  16.664  14.742   3.294
10615W        W74372  36.964  21.711   3.309
10616W        W74373  44.908  39.467   3.699
10617W        W74374   8.167  25.707  10.974
10618W        W74375  35.603  41.938   4.677
10619W        W74376  34.972   5.821  13.876
10620W        W74377  39.968   2.726   2.199
10621W        W74378  30.161  20.102  12.895
10622W        W74379  28.989  10.873   1.858
10623W        W74380  33.392  22.658  14.765
10624W        W74381  31.622  19.272   3.736
10625W        W74382   2.294  14.156  11.998
10626W        W74383  13.180  27.090  10.568
10627W        W74384  32.478  15.249  14.999
10628W        W74385   9.810   5.387   1.366
10629W        W74386  14.326   1.257  10.033
10630W        W74387  21.227   6.221   0.450
10631W        W74388  11.813  37.566  11.003
10632W        W74389  35.374   6.253   1.826
10633W        W74390  17.759  17.567  14.427
10634W        W74391   6.218  28.540   2.217
10635W        W74392   6.331  18.549  12.382
10636W        W74393   2.322  20.706   3.765
10637W        W74394   1.467  38.856  13.478
10638W        W74395  29.585   1.967   1.900
10639W        W74396   8.819  18.682   2.379
10640W        W74397  10.196  27.564  11.562
10641W        W74398   2.820  12.229   3.680
10642W        W74399  27.973  43.776  14.823
10643W        W74400  30.090   5.372  14.777
10644W        W74401  29.952  34.422   0.427
10645W        W74402  32.910  28.149   0.900
10646W        W74403   6.792   9.783   0.363
10647W        W74404  42.845   1.950   3.796
10648W        W74405  16.172  30.907  10.425
10649W        W74406  19.056  21.155  10.899
10650W        W74407  39.552  22.655  11.509
10651W        W74408   8.281  22.688  11.612
10652W        W74409  31.572   6.300   3.717
10653W        W74410  11.700   8.375   4.306
10654W        W74411  19.566  33.381   9.675
10655W        W74412  11.346  11.197   2.397
10656W        W74413  30.137  36.552   2.764
10657W        W74414   2.299  41.942  12.436
10658W        W74415  36.878  26.487  11.442
10659W        W74416   8.809  23.653  12.010
10660W        W74417  13.792  30.489  14.833
10661W        W74418  34.536  31.905   0.828
10662W        W74419  41.454   6.277   1.913
10663W        W74420  11.168  44.980  13.338
10664W        W74421   4.784  27.154   4.281
10665W        W74422   8.266  21.251  11.906
10666W        W74423  25.971  22.604   0.390
10667W        W74424  12.312  16.195   2.678
10668W        W74425   9.295  23.679   4.731
10669W        W74426  32.059  26.694  13.803
10670W        W74427  34.562  43.813   4.779
10671W        W74428  22.097  28.000  14.440
10672W        W74429  13.727  19.069   3.328
10673W        W74430   2.368  35.000   0.450
10674W        W74431   0.317  21.625  12.510
10675W        W74432  35.468  28.071   2.337
10676W        W74433  43.915  38.379   2.251
10677W        W74434  26.204  21.120  14.874
10678W        W74435  31.910   1.735  11.918
10679W        W74436  13.682  34.498  14.410
10680W        W74437  29.613  21.121  10.006
10681W        W74438   9.793   8.174   3.692
10682W        W74439  18.161   7.350  11.103
10683W        W74440  24.656  31.463  13.500
10684W        W74441  36.517  17.096   4.742
10685W        W74442  27.601  16.295  13.830
10686W        W74443  29.470  40.988  14.773
10687W        W74444  32.398  10.841  12.868
10688W        W74445  11.642  17.280  12.077
10689W        W74446  34.440  42.012   1.398
10690W        W74447   7.889  25.705  12.401
10691W        W74448  44.401  18.723  14.506
10692W        W74449  18.782  28.081   0.481
10693W        W74450  21.126  14.639  14.380
10694W        W74451  41.018  25.120   0.272
10695W        W74452  40.322  34.869   3.384
10696W        W74453  10.840  12.632   0.339
10697W        W74454   4.204  14.147   3.237
10698W        W74455  11.167  44.494   2.722
10699W        W74456  27.615  33.112   0.892
10700W        W74457  23.165  13.185   3.215
10701W        W74458  23.732   6.333   0.389
10702W        W74459  29.520  25.088  12.012
10703W        W74460   6.842  28.181   3.833
10704W        W74461  24.124  26.510  13.050
10705W        W74462   8.693  35.386  14.797
10706W        W74463  33.031  37.437   0.937
10707W        W74464  14.308   2.410   2.285
10708W        W74465  33.508  32.615  14.926
10709W        W74466  16.264  21.071  14.412
10710W        W74467  29.610  20.621   1.343
10711W        W74468  25.090  23.663   2.669
10712W        W74469   6.277  15.146  13.017
10713W        W74470  22.022   8.188   4.161
10714W        W74471  38.882   6.323   9.929
10715W        W74472  11.635  25.005  11.873
10716W        W74473   5.842  44.901  12.026
10717W        W74474  12.215  38.914  14.011
10718W        W74475  15.623  35.994   1.438
10719W        W74476  24.044  29.043  10.508
10720W        W74477  32.140  36.885   0.855
10721W        W74478  13.745  25.087   4.334
10722W        W74479  36.398  16.635  11.021
10723W        W74480  41.424  13.258   3.830
10724W        W74481  30.938  13.216  13.462
10725W        W74482  44.325  18.071  14.974
10726W        W74483  33.433  14.751   1.724
10727W        W74484  28.559   7.794  10.564
10728W        W74485   4.253  44.832   3.328
10729W        W74486  34.447   7.184   4.708
10730W        W74487  20.584  31.434   4.279
10731W        W74488  37.381  41.373  11.124
10732W        W74489  19.282  27.078  11.594
10733W        W74490  30.136  17.636  11.103
10734W        W74491  19.711  12.142  12.046
10735W        W74492  10.778  43.374  12.488
10736W        W74493  30.128  37.059  10.616
10737W        W74494  10.785  42.862  14.449
10738W        W74495  42.847  21.552  10.962
10739W        W74496  15.777   6.830   0.277
10740W        W74497   0.898  12.189  10.441
10741W        W74498  34.980   1.424  10.556
10742W        W74499  15.816  22.155   2.226
10743W        W74500  43.456  29.971   3.754
10744W        W74501   8.176  10.324   1.218
10745W        W74502   6.702  25.619   2.810
10746W        W74503  22.552  19.071   2.883
10747W        W74504   3.882   3.215   3.808
10748W        W74505   3.881  40.969   0.331
10749W        W74506  16.630  13.280  11.102
10750W        W74507  39.466  27.567  13.822
10751W        W74508  42.822  26.578  12.037
10752W        W74509   3.818  42.280   0.328
10753W        W74510  41.340   6.383   4.760
10754W        W74511   5.881  40.489   5.211
10755W        W74512   6.234  36.910   1.278
10756W        W74513   4.834  44.001  14.507
10757W        W74514  11.680  43.475   2.812
10758W        W74515  39.558   5.834  12.966
10759W        W74516  40.492  37.555   2.358
10760W        W74517  35.424  26.143   0.806
10761W        W74518  39.484  41.834  12.067
10762W        W74519   7.375   0.282   0.928
10763W        W74520  19.686  35.052   5.301
10764W        W74521  42.318  15.789   2.254
10765W        W74522  36.448   4.339   4.599
10766W        W74523   1.265  32.088   2.370
10767W        W74524  33.470  38.893   3.214
10768W        W74525  34.054  13.806   3.822
10769W        W74526  15.164  40.867  12.524
10770W        W74527   4.341  37.008  10.451
10771W        W74528  31.913   5.725   9.460
10772W        W74529   5.795  43.372  12.981
10773W        W74530   3.742  23.209  12.475
10774W        W74531  39.871  39.879   0.342
10775W        W74532  41.317  38.481  11.019
10776W        W74533  19.711  40.048  13.518
10777W        W74534  35.416  42.794   4.795
10778W        W74535  28.985   2.299   0.905
10779W        W74536  29.507  24.510  11.603
10780W        W74537  41.950   0.893   4.626
10781W        W74538  21.172  28.454   0.467
10782W        W74539  38.332  15.731   2.745
10783W        W74540  42.507  44.911   1.291
10784W        W74541  36.487  28.999   3.319
10785W        W74542  44.315  34.542   3.736
10786W        W74543  17.722  31.598  12.975
10787W        W74544  39.002  16.235  12.509
10788W        W74545  29.530  38.938   2.188
10789W        W74546  35.545   4.239   0.940
10790W        W74547  38.040  29.107   2.301
10791W        W74548   8.357   3.219   1.853
10792W        W74549  29.000   7.347   2.348
10793W        W74550  37.928  22.143  11.093
10794W        W74551  21.634   5.242   1.380
10795W        W74552  32.585  34.600   4.126
10796W        W74553  37.946  31.086   4.741
10797W        W74554   8.285  29.566  14.494
10798W        W74555  15.756  12.800  11.538
10799W        W74556   7.171  37.553   3.826
10800W        W74557   4.938  36.957  12.049
10801W        W74558  25.712   1.838   1.323
10802W        W74559  43.362  20.234  10.587
10803W        W74560  18.570   4.705  11.864
10804W        W74561  13.811  13.216  14.931
10805W        W74562   2.770   4.702  10.902
10806W        W74563  20.157  12.145   1.796
10807W        W74564  42.856  15.193   1.746
10808W        W74565  40.963  11.333  12.979
10809W        W74566  18.595  30.625  12.539
10810W        W74567   5.229  42.524  14.798
10811W        W74568  40.317  37.578  14.324
10812W        W74569  14.322  20.221  14.397
10813W        W74570  21.710  25.974   3.162
10814W        W74571  27.064  29.918   2.750
10815W        W74572  23.112  37.548  14.973
10816W        W74573  41.894  12.222   3.732
10817W        W74574  14.657  26.986  10.530
10818W        W74575  40.475   5.340  11.947
10819W        W74576   4.942  28.452   0.374
10820W        W74577  35.977  17.075   3.191
10821W        W74578  44.347  37.409   3.150
10822W        W74579  30.985  37.346  10.986
10823W        W74580  20.036  22.214   4.675
10824W        W74581  30.040   3.386  10.013
10825W        W74582  17.202   2.741   3.218
10826W        W74583  41.821  33.622   0.963
10827W        W74584  44.405  43.362  10.894
10828W        W74585   6.719  20.215  13.058
10829W        W74586  41.871  24.993   2.741
10830W        W74587  31.531  33.996   2.211
10831W        W74588  41.991  33.437  11.587
10832W        W74589  34.945  16.641   2.417
10833W        W74590   0.931  29.955  13.949
10834W        W74591  21.605  16.639  10.541
10835W        W74592  31.000  24.195   3.254
10836W        W74593  35.567  22.730   4.665
10837W        W74594  42.447   0.782  14.780
10838W        W74595  29.142  32.443   3.301
10839W        W74596  42.836  18.102  11.531
10840W        W74597  37.919  35.034   3.259
10841W        W74598  10.182  16.130   1.220
10842W        W74599  14.119  40.442   3.631
10843W        W74600  36.581   8.163   4.345
10844W        W74601  27.099   1.250  14.016
10845W        W74602  21.056  19.604   1.721
10846W        W74603  24.663   6.792   2.325
10847W        W74604   1.440  14.756  13.020
10848W        W74605  30.559  16.638   3.677
10849W        W74606   2.758  13.212  11.567
10850W        W74607  21.575   2.388  12.487
10851W        W74608  16.251  24.174  12.977
10852W        W74609  20.176  20.756  12.895
10853W        W74610  18.129  16.078  12.368
10854W        W74611  41.842  32.955   4.602
10855W        W74612  15.723  11.137  13.882
10856W        W74613  41.927  39.924   0.312
10857W        W74614   1.412  17.715  13.034
10858W        W74615  26.668  25.584   2.682
10859W        W74616   5.424   1.891   3.332
10860W        W74617  29.591  41.015   2.838
10861W        W74618  30.050  25.186  11.539
10862W        W74619  20.634  11.658   1.754
10863W        W74620  32.893  34.981  12.548
10864W        W74621  30.122  14.810  11.528
10865W        W74622  29.485   1.417  13.794
10866W        W74623   8.875  21.188  11.445
10867W        W74624  16.130   3.329   0.407
10868W        W74625  43.500  21.554  14.928
10869W        W74626   6.200  41.426  12.071
10870W        W74627  11.858  22.539   1.292
10871W        W74628  31.617  37.341   4.657
10872W        W74629  10.308  31.506  11.002
10873W        W74630  38.547  35.422  14.442
10874W        W74631  13.751  25.198   3.194
10875W        W74632  13.782  27.479   0.361
10876W        W74633  43.468  44.273   1.702
10877W        W74634   3.277  14.180  12.851
10878W        W74635   9.373  18.220   1.758
10879W        W74636  22.567  37.410   5.218
10880W        W74637  34.100   0.302  11.434
10881W        W74638  31.576  26.963  13.012
10882W        W74639  29.933  39.340  12.443
10883W        W74640   7.764  22.728   1.435
10884W        W74641  24.536  24.625   2.854
10885W        W74642  40.848  16.641   1.319
10886W        W74643   5.811  14.235   1.824
10887W        W74644  43.791  15.156  14.381
10888W        W74645  17.591  19.220   3.731
10889W        W74646  15.649  34.395  10.560
10890W        W74647  37.045  17.068  11.488
10891W        W74648  13.828  11.650  14.975
10892W        W74649  29.105  27.563   2.245
10893W        W74650   3.814   4.447  14.898
10894W        W74651  41.964  33.617   4.621
10895W        W74652  41.852  28.465   2.809
10896W        W74653  29.072  35.570  11.474
10897W        W74654  44.807  44.941   3.155
10898W        W74655  21.655  43.355   4.701
10899W        W74656  12.690   6.815  13.912
10900W        W74657   5.308   0.919   3.262
10901W        W74658  26.544  14.665   3.638
10902W        W74659  28.949  21.092  13.972
10903W        W74660  18.759  28.673   3.283
10904W        W74661  15.157  16.626  14.303
10905W        W74662  23.009   9.803   3.661
10906W        W74663  30.593  42.893   1.307
10907W        W74664  11.776  18.153   1.300
10908W        W74665   5.307  25.206  14.766
10909W        W74666  27.576  31.587  10.998
10910W        W74667  23.148  22.168  13.924
10911W        W74668  34.949  28.677   3.191
10912W        W74669  44.440  13.156  13.368
10913W        W74670  35.975  31.536  12.533
10914W        W74671  37.344  24.554   3.671
10915W        W74672  21.185   6.871  11.584
10916W        W74673   1.257  14.226   2.414
10917W        W74674  25.161  25.648   3.342
10918W        W74675  16.262  42.442   5.636
10919W        W74676  36.556   0.489  14.927
10920W        W74677   2.418  36.012  12.836
10921W        W74678  22.996  10.748  14.363
10922W        W74679  39.895  13.729   4.807
10923W        W74680  39.383  15.684   2.834
10924W        W74681  20.526   9.207   1.260
10925W        W74682  37.530  34.398   3.680
10926W        W74683  33.012  41.812   2.699
10927W        W74684   1.846  39.401  12.946
10928W        W74685  13.287  28.537  11.588
10929W        W74686  16.736   1.881   3.728
10930W        W74687  40.547  37.392   4.837
10931W        W74688  42.894  10.173  11.986
10932W        W74689  22.730  39.010   4.297
10933W        W74690  13.723  44.342  13.375
10934W        W74691  44.303  13.686  12.896
10935W        W74692  40.387  33.105  14.850
10936W        W74693  36.981  14.749   1.364
10937W        W74694  25.982   0.318   1.827
10938W        W74695  22.742   5.804  14.025
10939W        W74696  32.987  29.952   1.282
10940W        W74697  23.491  29.596   3.634
10941W        W74698  16.674  44.387  13.943
10942W        W74699  28.543  30.540   4.313
10943W        W74700  34.041  27.087   3.355
10944W        W74701  29.657   4.408   2.236
10945W        W74702  18.748  12.668  12.342
10946W        W74703   0.305  19.648   5.308
10947W        W74704  11.789   1.939  13.966
10948W        W74705  29.662  29.982  10.638
10949W        W74706  37.450  43.922  10.523
10950W        W74707   8.399  13.248  10.467
10951W        W74708  29.983   9.842  10.971
10952W        W74709  30.911  20.638   4.174
10953W        W74710  13.682  34.472  13.538
10954W        W74711  15.756  41.834   0.840
10955W        W74712  33.495  12.203   0.345
10956W        W74713  29.007  33.594   1.853
10957W        W74714  28.641   4.832   0.907
10958W        W74715  22.720   0.491  10.112
10959W        W74716  31.934  11.858  13.505
10960W        W74717   8.772  42.030   5.082
10961W        W74718  17.751  39.489  11.387
10962W        W74719  26.472  26.087  12.953
10963W        W74720   4.205  16.703  10.586
10964W        W74721  31.988  30.034  12.511
10965W        W74722  43.449  27.153   2.799
10966W        W74723  27.547  35.374  14.860
10967W        W74724  28.505  28.082   2.213
10968W        W74725  22.654  24.179  11.879
10969W        W74726  44.273  28.663   0.307
10970W        W74727  27.687  42.863   2.338
10971W        W74728  28.059  19.622  10.088
10972W        W74729  44.299  10.764  13.947
10973W        W74730  14.785   8.763   1.357
10974W        W74731  44.447  24.489   0.885
10975W        W74732  20.167   1.769  13.026
10976W        W74733  26.673  18.590   4.233
10977W        W74734  10.639  15.230   0.896
10978W        W74735   0.794  16.176  12.519
10979W        W74736  25.069  31.606   2.841
10980W        W74737   5.772  36.489   0.293
10981W        W74738  24.170   8.245   0.778
10982W        W74739  21.583  11.226  10.961
10983W        W74740  24.511   9.798  11.125
10984W        W74741  10.696  39.876  11.023
10985W        W74742  22.721  11.288   0.947
10986W        W74743  18.124  34.569   4.689
10987W        W74744  43.889  25.156  12.940
10988W        W74745  24.020  20.149   4.678
10989W        W74746  32.990  10.682  11.021
10990W        W74747   0.846   2.410   2.197
10991W        W74748  12.337  14.284  10.628
10992W        W74749  26.970  12.706   0.264
10993W        W74750  35.450  30.637  10.617
10994W        W74751  33.042   7.222   4.664
10995W        W74752  21.024  17.676   1.923
10996W        W74753  42.494   6.763  10.968
10997W        W74754   0.468  31.141   2.740
10998W        W74755  36.897  27.050   1.247
10999W        W74756  10.788  26.502   2.669
11000W        W74757  40.900  20.678   2.811
11001W        W74758  28.010  16.081   5.262
11002W        W74759  39.908  31.055  10.525
11003W        W74760  24.683  39.831   0.471
11004W        W74761  36.435  33.441  12.521
11005W        W74762  23.204  34.875   3.769
11006W        W74763   3.457  39.488  13.829
11007W        W74764  43.315  16.159   2.868
11008W        W74765  21.052  39.433  11.906
11009W        W74766  13.740  27.153   2.900
11010W        W74767  44.433  28.010  10.468
11011W        W74768  32.523   9.751  12.456
11012W        W74769  37.930  35.528   2.181
11013W        W74770   8.669  19.704  11.887
11014W        W74771  26.008   6.748   1.891
11015W        W74772   9.198   7.855   2.677
11016W        W74773   1.422  24.183  10.963
11017W        W74774  16.229  18.100   1.794
11018W        W74775  22.057   4.264  14.499
11019W        W74776   1.732   7.675   2.198
11020W        W74777   3.768  22.514   3.701
11021W        W74778  34.947  38.500  13.916
11022W        W74779   5.723   9.312  12.446
11023W        W74780  16.290   1.803   4.290
11024W        W74781  18.747   3.340   5.188
11025W        W74782  24.207  13.609  12.068
11026W        W74783  41.857   5.382  13.902
11027W        W74784  33.458  12.336   1.221
11028W        W74785  29.573  12.626   3.157
11029W        W74786  12.350   8.239   0.948
11030W        W74787  43.826  21.049   1.930
11031W        W74788  31.494  38.936  13.974
11032W        W74789  38.874  36.944  13.507
11033W        W74790  11.673   0.757  13.322
11034W        W74791  29.162  15.084   2.684
11035W        W74792  10.239  10.867  12.041
11036W        W74793  42.792  31.428   0.355
11037W        W74794   7.282  22.542  11.570
11038W        W74795   6.347  24.178   2.682
11039W        W74796  12.664  29.100   3.652
11040W        W74797   4.782  19.706  11.062
11041W        W74798  33.598  30.971  12.445
11042W        W74799  11.298  36.073   3.848
11043W        W74800   8.799  28.477   0.871
11044W        W74801  30.587  33.094   0.449
11045W        W74802   1.955  18.220  12.475
11046W        W74803  13.284  29.118   5.222
11047W        W74804  44.870  43.291   0.435
11048W        W74805   2.928  23.633  10.610
11049W        W74806  35.457  16.221  12.525
11050W        W74807  17.667  33.056  13.822
11051W        W74808  16.251  19.735  14.025
11052W        W74809  10.238  25.508   3.690
11053W        W74810  22.638   6.890   3.777
11054W        W74811  26.457  40.841  11.065
11055W        W74812   4.316  19.778  11.458
11056W        W74813  34.115   0.862   0.894
11057W        W74814  30.136  35.893  13.848
11058W        W74815  13.195   5.290  12.848
11059W        W74816  38.965  34.608   1.256
11060W        W74817   8.845  33.419   0.401
11061W        W74818  11.283  38.407  14.340
11062W        W74819  21.168  40.816   2.808
11063W        W74820  12.825  28.101  13.016
11064W        W74821   6.856  40.004   0.319
11065W        W74822  33.003  19.779  12.968
11066W        W74823  43.323   1.359  10.464
11067W        W74824   5.763  37.443   5.314
11068W        W74825  19.182  33.458   4.149
11069W        W74826  10.247  37.404  14.779
11070W        W74827  40.353   6.268  11.899
11071W        W74828   8.825  40.947  12.510
11072W        W74829  26.122  17.774  11.477
11073W        W74830  14.767  38.433   1.347
11074W        W74831  29.945  40.016  12.852
11075W        W74832  18.229  38.061   0.774
11076W        W74833  10.186  37.020   0.323
11077W        W74834  40.463  18.674  12.478
11078W        W74835  44.975  37.906  10.964
11079W        W74836  12.191   6.361   1.289
11080W        W74837  40.821   6.344  10.564
11081W        W74838  40.508   9.241  14.479
11082W        W74839  21.175  42.829  14.398
11083W        W74840  44.800  26.625  10.049
11084W        W74841  18.056  23.563  14.487
11085W        W74842  18.103  17.300   3.220
11086W        W74843  19.140  25.076  14.965
11087W        W74844  26.166  42.865   2.855
11088W        W74845  44.837   9.879  14.354
11089W        W74846  32.029  41.459  11.068
11090W        W74847  34.969  14.097   2.899
11091W        W74848  44.821   9.190  11.526
11092W        W74849  16.263  27.672  14.954
11093W        W74850  35.487   0.876  13.530
11094W        W74851  40.902  15.761  14.318
11095W        W74852  13.669  42.394   3.661
11096W        W74853  30.014  17.097   0.444
11097W        W74854   9.788  24.501   3.667
11098W        W74855  12.206  29.600   0.294
11099W        W74856  43.810   3.315  13.314
11100W        W74857  43.886  36.467   2.405
11101W        W74858   6.908  44.454  14.457
11102W        W74859  21.144  15.797  12.446
11103W        W74860   7.863  17.769  12.077
11104W        W74861  39.503  16.716  13.007
11105W        W74862  12.261  28.007   0.370
11106W        W74863  27.454  24.147   2.351
11107W        W74864  22.207   9.767   0.743
11108W        W74865   6.364  25.643   2.221
11109W        W74866  43.796  43.911   4.282
11110W        W74867   8.731  23.715  12.365
11111W        W74868  41.812  16.589   3.198
11112W        W74869  19.207   5.796  12.906
11113W        W74870  21.619  22.714  10.972
11114W        W74871  44.402  12.355  13.525
11115W        W74872  15.281  33.610  10.584
11116W        W74873   7.786  43.891   0.730
11117W        W74874   3.738  33.596   3.824
11118W        W74875   4.328  36.078   2.685
11119W        W74876  18.268   4.770  10.461
11120W        W74877  13.631   0.383   3.821
11121W        W74878  22.566  42.385   3.364
11122W        W74879  32.986  40.428  13.523
11123W        W74880  40.334   7.890   1.785
11124W        W74881  31.456  35.483   3.210
11125W        W74882  24.695  39.966   0.753
11126W        W74883  36.467  37.084   2.277
11127W        W74884  42.415  41.419   1.761
11128W        W74885   1.271  43.823   3.735
11129W        W74886  15.584  27.673   0.915
11130W        W74887   0.463  30.121   3.328
11131W        W74888  17.110  37.851   3.650
11132W        W74889  36.864  25.555  12.994
11133W        W74890  31.406  36.441   3.323
11134W        W74891  19.636   8.280   3.176
11135W        W74892  26.182  14.200   5.287
11136W        W74893  43.477  27.527   0.260
11137W        W74894   8.898  34.975   2.878
11138W        W74895   5.825   7.319  13.441
11139W        W74896  36.391   3.304   9.971
11140W        W74897   1.895  21.554   1.270
11141W        W74898  17.702  36.374  13.343
11142W        W74899   5.299  44.816  13.401
11143W        W74900  33.935  22.160  14.366
11144W        W74901   1.884  35.095   2.269
11145W        W74902  36.443  38.870  12.474
11146W        W74903   1.440  13.660  12.866
11147W        W74904   6.923  36.920  14.838
11148W        W74905  19.195  19.233   4.818
11149W        W74906  18.637  12.841  13.358
11150W        W74907  14.695  33.040   1.859
11151W        W74908  35.564  29.091   0.792
11152W        W74909  33.390  43.515  13.483
11153W        W74910  19.195  25.106  14.322
11154W        W74911  11.220  11.131  12.874
11155W        W74912  17.083  39.344   9.938
11156W        W74913  17.606  13.263  10.638
11157W        W74914  15.154  22.578   2.367
11158W        W74915  18.731  35.585  14.410
11159W        W74916  37.073   1.745   1.817
11160W        W74917  29.568   4.210   3.188
11161W        W74918  12.832  34.411  13.469
11162W        W74919   6.418   6.300  11.065
11163W        W74920  11.767  31.951  12.969
11164W        W74921  29.648  19.123   3.309
11165W        W74922  13.254  34.571   2.386
11166W        W74923  13.671  25.158   0.762
11167W        W74924   6.288  13.752  12.014
11168W        W74925  38.020  28.599  14.767
11169W        W74926   3.280   3.377  14.369
11170W        W74927  43.435  40.938  14.335
11171W        W74928  28.990  21.173  12.050
11172W        W74929  21.115  13.796  14.496
11173W        W74930   6.722  42.444   1.388
11174W        W74931   7.246  37.866   4.677
11175W        W74932  23.018   6.857   1.770
11176W        W74933  40.389   0.810  12.972
11177W        W74934   5.331  25.182  12.863
11178W        W74935  25.203  18.193   0.891
11179W        W74936   4.803  13.713   2.387
11180W        W74937  16.734  13.327   0.345
11181W        W74938  20.559  15.805  12.455
11182W        W74939   4.420  29.128   2.412
11183W        W74940  39.984  32.630   4.607
11184W        W74941  25.712   0.351  12.090
11185W        W74942  27.564  27.956   3.149
11186W        W74943  33.500  42.863  13.031
11187W        W74944  18.637  15.622   4.353
11188W        W74945  43.004  26.045   0.456
11189W        W74946  11.845  18.773  12.495
11190W        W74947  15.235   5.908  13.987
11191W        W74948  41.467  32.040  10.966
11192W        W74949   7.367  32.904  12.006
11193W        W74950  32.569   8.774   0.401
11194W        W74951  14.694  10.257  11.414
11195W        W74952  32.063  13.165   0.813
11196W        W74953  44.324   6.307   4.643
11197W        W74954   0.898  38.851   5.152
11198W        W74955  41.458  39.897   4.146
11199W        W74956   7.781  23.023   2.897
11200W        W74957  16.164  35.000  13.994
11201W        W74958  44.839  34.092  11.531
11202W        W74959  11.273  30.597  12.890
11203W        W74960   2.407  14.111   2.345
11204W        W74961  44.789  36.866  11.525
11205W        W74962  43.864  19.128  11.380
11206W        W74963  18.075  22.076  12.007
11207W        W74964  40.390  23.605   0.836
11208W        W74965  10.326  26.678   1.350
11209W        W74966  24.163  32.395  11.966
11210W        W74967  44.775  44.365  14.785
11211W        W74968  38.819  36.874  10.967
11212W        W74969  30.093   0.817  14.909
11213W        W74970  21.227  43.501   2.779
11214W        W74971  26.472  31.025  13.394
11215W        W74972  11.741  10.833   0.309
11216W        W74973   8.772  31.581  14.364
11217W        W74974  30.509  21.531   4.836
11218W        W74975  38.349   7.280  14.321
11219W        W74976  41.966   9.277  14.924
11220W        W74977  41.538   5.367  10.513
11221W        W74978  20.087  14.250   0.270
11222W        W74979  32.587  29.128   1.695
11223W        W74980  44.988  10.843  12.077
11224W        W74981  33.483  33.066   4.171
11225W        W74982  23.507  33.070   0.408
11226W        W74983  23.732   1.408  11.521
11227W        W74984  22.013  39.536  13.497
11228W        W74985  23.061  44.809  13.344
11229W        W74986   3.449  21.119   2.356
11230W        W74987  17.576  18.134   4.818
11231W        W74988  36.400  41.395  10.068
11232W        W74989  18.636  24.625  11.989
11233W        W74990  34.503  36.873  12.066
11234W        W74991  17.784  25.685   3.369
11235W        W74992  14.315  41.518   1.753
11236W        W74993   9.155   3.261   4.230
11237W        W74994  24.049  26.980  13.820
11238W        W74995  41.828  24.609  10.906
11239W        W74996  43.847  35.401  12.535
11240W        W74997  36.869  25.648  13.907
11241W        W74998  33.125  15.242  12.394
11242W        W74999  33.022  29.147  11.015
11243W        W75000  26.087  15.253   3.764
11244W        W75001  12.240  22.193   2.862
11245W        W75002   1.394   5.865  12.891
11246W        W75003  38.035   4.825   1.324
11247W        W75004  32.988   9.707   1.427
11248W        W75005  43.904  36.999   4.300
11249W        W75006   4.852  38.891  10.098
11250W        W75007  23.207   0.325  12.926
11251W        W75008  27.050   3.216  12.523
11252W        W75009   4.734  30.412   1.288
11253W        W75010   0.364   5.420  14.418
11254W        W75011  30.588  23.000  12.094
11255W        W75012  36.890  15.744  12.419
11256W        W75013  35.457  41.021   0.756
11257W        W75014  32.046  21.195   1.716
11258W        W75015  27.094  27.154  13.495
11259W        W75016  44.980  38.511   3.800
11260W        W75017  23.613   7.273  11.928
11261W        W75018   1.432  10.228  12.372
11262W        W75019   4.328   6.830  13.495
11263W        W75020   6.339  29.127  10.451
11264W        W75021  19.707  20.141   4.667
11265W        W75022   8.744   6.852  13.395
11266W        W75023  44.952  27.152  11.432
11267W        W75024  41.491  13.290   2.700
11268W        W75025  37.375   0.878   0.886
11269W        W75026  20.565  33.060  11.555
11270W        W75027  17.192  30.991   3.747
11271W        W75028  35.071  38.938  13.947
11272W        W75029  31.555   0.753   0.338
11273W        W75030   0.918  19.592   5.186
11274W        W75031  10.163  14.724   1.847
11275W        W75032  39.845  31.958  10.990
11276W        W75033   0.846  27.125  14.460
11277W        W75034   7.273  36.056   0.945
11278W        W75035   1.886  17.292   1.351
11279W        W75036  22.244  37.861  11.084
11280W        W75037  17.195  26.137   2.868
11281W        W75038  27.558  26.548  14.992
11282W        W75039  25.480  30.157  14.017
11283W        W75040  21.156  37.508   3.148
11284W        W75041  15.097  27.553  10.503
11285W        W75042  16.593  38.024  10.503
11286W        W75043  16.089  35.440   2.820
11287W        W75044  39.409  11.287  11.067
11288W        W75045   9.876  18.111   0.459
11289W        W75046   7.818  16.731  12.449
11290W        W75047  13.844  41.030  13.959
11291W        W75048  26.036  29.975   0.325
11292W        W75049  34.951  26.550   1.290
11293W        W75050  42.898  33.914  14.833
11294W        W75051  44.333   0.964   3.158
11295W        W75052  13.107  14.593  13.949
11296W        W75053  39.811  30.100  14.511
11297W        W75054  21.059  41.916   3.786
11298W        W75055  19.130  10.358  14.817
11299W        W75056  42.458  11.736  13.872
11300W        W75057  16.101  33.548   0.809
11301W        W75058  31.603  26.956  12.426
11302W        W75059  44.853   0.411  12.414
11303W        W75060  31.522   8.852   3.830
11304W        W75061  37.474  17.716  12.980
11305W        W75062   0.413  12.228   4.122
11306W        W75063  32.932  38.516  14.410
11307W        W75064  41.821   2.770   2.727
11308W        W75065   9.263  43.820   0.379
11309W        W75066  12.703   3.833   4.241
11310W        W75067   4.273  28.149   3.322
11311W        W75068  36.086  17.188  11.954
11312W        W75069  37.843   9.683   1.795
11313W        W75070  30.601  30.540  11.424
11314W        W75071  36.486  15.752  12.387
11315W        W75072  26.060  43.405   3.360
11316W        W75073  12.742  34.908  13.839
11317W        W75074  17.794  27.468  12.920
11318W        W75075  23.012  18.700  11.124
11319W        W75076   2.951   0.257  13.898
11320W        W75077   3.766  26.608  12.927
11321W        W75078   4.360  27.674   2.234
11322W        W75079   1.916  44.969  14.798
11323W        W75080  20.115  32.099   3.212
11324W        W75081  20.218  33.003   3.318
11325W        W75082  30.453  33.890   3.299
11326W        W75083  36.976  35.978  12.083
11327W        W75084  37.912   3.325   1.863
11328W        W75085  35.101   5.271   3.296
11329W        W75086  31.407  38.543  12.509
11330W        W75087  27.524  18.200  11.508
11331W        W75088   9.264   7.899   3.379
11332W        W75089   7.747  26.633  10.470
11333W        W75090  13.798  12.167  14.948
11334W        W75091  10.658  19.188   2.740
11335W        W75092  29.138  21.245   4.133
11336W        W75093  31.906  41.981  10.618
11337W        W75094  36.952   5.895  12.863
11338W        W75095  39.342  41.452   4.192
11339W        W75096  23.581   2.900   1.725
11340W        W75097   5.823  26.642  11.554
11341W        W75098  43.406   9.707   2.334
11342W        W75099  36.039  22.714   3.744
11343W        W75100  37.434   8.800  13.486
11344W        W75101  35.877   6.762  12.482
11345W        W75102   8.180  31.516   4.327
11346W        W75103   0.282  39.869  13.330
11347W        W75104   4.284   1.884  11.895
11348W        W75105  37.838  14.722   3.384
11349W        W75106  37.904  37.867   1.729
11350W        W75107  23.500   7.242   2.345
11351W        W75108  30.125   8.274  10.440
11352W        W75109  33.009  14.740  12.001
11353W        W75110  25.219  15.601   0.365
11354W        W75111  28.580  16.076  13.478
11355W        W75112  26.161  27.058  11.034
11356W        W75113   2.463  36.494   0.401
11357W        W75114  30.136  15.666  11.110
11358W        W75115  28.495  29.152  14.411
11359W        W75116  36.524   0.330   1.782
11360W        W75117  25.626   4.866  11.455
11361W        W75118  28.159  29.163   4.724
11362W        W75119  26.487  21.225  12.843
11363W        W75120  42.916  27.463  13.323
11364W        W75121   5.769  19.717   4.294
11365W        W75122  41.314  40.494   1.736
11366W        W75123  42.885  13.313  13.813
11367W        W75124  10.301  39.991   4.257
11368W        W75125  22.691  40.509  11.985
11369W        W75126  28.553   3.303  13.410
11370W        W75127   1.354  27.023  11.021
11371W        W75128  16.119  37.360   3.368
11372W        W75129  28.548   9.189   0.943
11373W        W75130  25.117   0.267   2.282
11374W        W75131  37.039   1.296  14.840
11375W        W75132   4.711  10.206  10.053
11376W        W75133  24.724  35.436  14.833
11377W        W75134   3.430  15.152  13.024
11378W        W75135  24.557  12.813  10.927
11379W        W75136   0.919   2.456  13.809
11380W        W75137  12.230  35.030   1.881
11381W        W75138  10.152  35.391   1.380
11382W        W75139  27.081   7.171  10.589
11383W        W75140  38.358  26.677   2.371
11384W        W75141  38.537  29.171  13.391
11385W        W75142  13.286  28.966   9.924
11386W        W75143  20.595  27.969   4.258
11387W        W75144  11.652  43.848   9.620
11388W        W75145  43.488   7.414   1.916
11389W        W75146  19.198  21.044  14.477
11390W        W75147  31.038  17.685  14.313
11391W        W75148  30.427  39.488  11.424
11392W        W75149  31.103   9.850  14.389
11393W        W75150  14.606  16.591  14.918
11394W        W75151   3.880   8.876   2.268
11395W        W75152  10.150  18.270  13.002
11396W        W75153  34.403   0.353  10.975
11397W        W75154  28.960   3.825   5.149
11398W        W75155  32.993  18.624  13.018
11399W        W75156  18.730  36.966   2.850
11400W        W75157   4.435  18.722   3.757
11401W        W75158  40.355  43.905  11.867
11402W        W75159   0.380  29.521   0.479
11403W        W75160  24.073  37.989   4.240
11404W        W75161  37.871  16.178  12.006
11405W        W75162  21.558  19.754   1.293
11406W        W75163  34.530   5.320  11.386
11407W        W75164  32.915  41.902   0.448
11408W        W75165  11.828  32.949   2.373
11409W        W75166  28.045  31.592  10.940
11410W        W75167  15.270   5.811  12.982
11411W        W75168  25.983  19.064  11.091
11412W        W75169  24.068  11.313   0.806
11413W        W75170   6.335   0.275   3.167
11414W        W75171  32.977  40.528  12.573
11415W        W75172  16.575   9.271  13.523
11416W        W75173  34.993   9.274  12.435
11417W        W75174  29.475  31.431   2.380
11418W        W75175  34.615  20.599  14.012
11419W        W75176  33.495  30.574  12.984
11420W        W75177  13.319  43.384  14.809
11421W        W75178  22.666  37.395   0.369
11422W        W75179   7.236  22.117  14.836
11423W        W75180  44.381   0.904   1.384
11424W        W75181  34.459  41.421  12.342
11425W        W75182   8.173  10.319  11.591
11426W        W75183  26.514  38.915  14.866
11427W        W75184  44.396  31.077   1.436
11428W        W75185   3.887  19.645  11.477
11429W        W75186  24.623  36.943   2.341
11430W        W75187  26.532  39.811  14.426
11431W        W75188  34.100  18.185  13.890
11432W        W75189  42.397  34.530   0.279
11433W        W75190  40.004  22.569  14.397
11434W        W75191  32.018  13.635   2.283
11435W        W75192  25.686  43.883   0.753
11436W        W75193  14.153  42.945  12.964
11437W        W75194  33.483  18.122   3.759
11438W        W75195  23.513  21.613   2.825
11439W        W75196   5.324  11.273   3.638
11440W        W75197  10.335  22.115   4.806
11441W        W75198  40.807  37.553  11.104
11442W        W75199  37.872  28.676   2.199
11443W        W75200   3.790  29.610  14.960
11444W        W75201  26.996  36.487   2.301
11445W        W75202  11.169  14.304   3.640
11446W        W75203  34.384  31.452   2.877
11447W        W75204  41.911  30.557  14.440
11448W        W75205  30.628  28.097  10.058
11449W        W75206  14.238  41.483  14.920
11450W        W75207  14.155  31.505   3.632
11451W        W75208  32.093  26.095  11.570
11452W        W75209  40.911  15.141   4.619
11453W        W75210  14.184  29.089   1.777
11454W        W75211  26.512  40.408  12.570
11455W        W75212   2.839  18.145   2.847
11456W        W75213  30.089   7.223  12.941
11457W        W75214   3.390  33.109  12.046
11458W        W75215  27.039  26.662  13.826
11459W        W75216  27.583  38.836  11.861
11460W        W75217   8.777   8.753   4.681
11461W        W75218  21.190   4.869  14.441
11462W        W75219  44.754  29.067  14.790
11463W        W75220  15.652  16.768   4.308
11464W        W75221  22.517  10.364   1.841
11465W        W75222  37.362   9.804   4.156
11466W        W75223  15.299  29.496   4.733
11467W        W75224  22.612  11.634   1.276
11468W        W75225  34.458  27.166   3.362
11469W        W75226  26.117  19.243   2.251
11470W        W75227  22.231  44.830  10.563
11471W        W75228   0.252  24.165  13.038
11472W        W75229  32.125  41.786  14.030
11473W        W75230  10.752   6.303  12.055
11474W        W75231   8.376  44.816   3.358
11475W        W75232  42.025  39.809   4.758
11476W        W75233  29.159  33.883   3.292
11477W        W75234  25.143  39.946  11.982
11478W        W75235  26.545   6.286  14.998
11479W        W75236  38.424   3.238   0.338
11480W        W75237   1.964  11.269   4.754
11481W        W75238  44.874   3.291  12.047
11482W        W75239  21.529   9.812   4.314
11483W        W75240  13.182   4.712   3.634
11484W        W75241  28.541  16.692   2.377
11485W        W75242  10.241  30.492   4.190
11486W        W75243  15.684  41.039  11.565
11487W        W75244  35.552   6.806  12.973
11488W        W75245  37.384   2.773  12.979
11489W        W75246  44.462  21.232   0.885
11490W        W75247  24.013  36.090   4.827
11491W        W75248  25.561  28.517  10.964
11492W        W75249  40.507  15.215   2.347
11493W        W75250  14.589  10.685  10.625
11494W        W75251  26.493  17.295   1.327
11495W        W75252  10.142  40.949   2.380
11496W        W75253   5.875  24.526   3.246
11497W        W75254  29.665  32.053  12.867
11498W        W75255  17.287  31.096  14.411
11499W        W75256   6.240  43.787  11.466
11500W        W75257  10.232  29.516   1.240
11501W        W75258  24.121  12.784   1.916
11502W        W75259  32.120  37.507  11.500
11503W        W75260  43.269   6.870   1.449
11504W        W75261  40.804  38.041  14.501
11505W        W75262   0.285  33.107  14.980
11506W        W75263  23.011  22.568   2.180
11507W        W75264  19.205   7.677  11.427
11508W        W75265  26.125  17.194   4.174
11509W        W75266   0.433  14.245   3.719
11510W        W75267  17.157   2.250   2.793
11511W        W75268  23.143  17.786  14.403
11512W        W75269  17.202  21.112  12.914
11513W        W75270  20.548  22.163  14.278
11514W        W75271  39.479  40.962   1.843
11515W        W75272  21.660   6.794  14.337
11516W        W75273  31.473  28.929  14.343
11517W        W75274   6.417  16.160  13.839
11518W        W75275  18.085  32.610   3.328
11519W        W75276   3.890  24.517  13.327
11520W        W75277  44.355  32.068   0.925
11521W        W75278  43.019  22.599   0.410
11522W        W75279  27.966  19.638   3.668
11523W        W75280   3.797  24.564  12.563
11524W        W75281  31.926   9.835  12.514
11525W        W75282  44.916  41.355  12.967
11526W        W75283  10.689  23.575   2.302
11527W        W75284   5.897  26.155  13.000
11528W        W75285  34.045  40.834   2.788
11529W        W75286   7.677  17.251   3.712
11530W        W75287  36.018  23.103  13.361
11531W        W75288  21.615  30.046  12.976
11532W        W75289  38.054  10.309   0.791
11533W        W75290  43.774  36.084   2.336
11534W        W75291  27.966   0.931  14.825
11535W        W75292   0.890  11.692   2.300
11536W        W75293   9.249   5.351   4.148
11537W        W75294  23.501  27.994   0.462
11538W        W75295  34.460  21.534   2.817
11539W        W75296   1.804  42.973  13.937
11540W        W75297  34.606   0.334   3.713
11541W        W75298  26.982  33.950  10.911
11542W        W75299   0.805   3.873  10.926
11543W        W75300  10.721   3.893  12.957
11544W        W75301  43.990   2.444   2.765
11545W        W75302   6.784  35.002  12.019
11546W        W75303   8.817  41.329  14.869
11547W        W75304  16.642  32.934   4.633
11548W        W75305  16.700  31.416   2.391
11549W        W75306  43.878  29.016   1.437
11550W        W75307  28.115  41.296   0.248
11551W        W75308  12.270  22.634  12.542
11552W        W75309   0.975  44.797   0.361
11553W        W75310  14.824  32.476   4.636
11554W        W75311  16.677  38.054  11.894
11555W        W75312  33.880  29.940  13.856
11556W        W75313  13.146  14.609  11.435
11557W        W75314  30.489  39.012   4.701
11558W        W75315  40.322  28.459   0.800
11559W        W75316  12.812   5.383  12.466
11560W        W75317  42.436  18.697  13.825
11561W        W75318  25.531   6.756   4.800
11562W        W75319  20.056  33.506   1.232
11563W        W75320  25.702   3.734  11.892
11564W        W75321   4.866   0.873   0.301
11565W        W75322  44.787   1.806  10.524
11566W        W75323  14.724   1.928  13.801
11567W        W75324  15.264  43.330   2.281
11568W        W75325  37.468  40.850   4.149
11569W        W75326   1.808   9.747   3.235
11570W        W75327  16.149  44.901   4.229
11571W        W75328  42.315   2.290  13.916
11572W        W75329   1.823  39.436   4.154
11573W        W75330  12.848   2.953   1.775
11574W        W75331  36.865  32.511  14.923
11575W        W75332  22.660   7.811   5.212
11576W        W75333  33.468  10.760   0.796
11577W        W75334  37.408  35.451  11.586
11578W        W75335   5.300  16.138  11.999
11579W        W75336  13.747  40.308  11.860
11580W        W75337  10.325  21.174  13.321
11581W        W75338   9.866  22.742   3.802
11582W        W75339  17.246  28.009  12.864
11583W        W75340   6.767  21.080  10.589
11584W        W75341   0.977  10.672  12.843
11585W        W75342  33.021  39.944   0.744
11586W        W75343   4.406  25.157  14.828
11587W        W75344  10.768  13.713  10.900
11588W        W75345  16.574   2.284   3.717
11589W        W75346   9.869  10.786  12.391
11590W        W75347  19.232  29.952   2.836
11591W        W75348  10.268  36.975  10.621
11592W        W75349  17.705  22.724   1.851
11593W        W75350  20.625  11.669   0.432
11594W        W75351   4.313  27.948  14.498
11595W        W75352   1.407  33.594  12.503
11596W        W75353  17.290  30.437   0.879
11597W        W75354  26.623   4.434   3.361
11598W        W75355   3.817  19.682   3.693
11599W        W75356  37.468  43.331  13.990
11600W        W75357   1.418   1.295  14.497
11601W        W75358  13.204  19.583  11.576
11602W        W75359  41.807   6.207  14.492
11603W        W75360  11.844  27.100  10.403
11604W        W75361  20.551  15.111  11.455
11605W        W75362   6.373   8.711  11.013
11606W        W75363  27.471  23.648  13.419
11607W        W75364  23.541  28.109   2.879
11608W        W75365   2.793  34.878  14.858
11609W        W75366   6.690  39.399   5.797
11610W        W75367  29.500  38.967   1.798
11611W        W75368   9.818   8.190  10.608
11612W        W75369  10.651  43.442  13.998
11613W        W75370  17.574  34.560  10.518
11614W        W75371  17.660  41.787  13.991
11615W        W75372  35.410   8.659  11.383
11616W        W75373  10.220   0.286   0.893
11617W        W75374  28.681  42.305   2.251
11618W        W75375  23.024   1.822  10.894
11619W        W75376  41.913   6.418   3.697
11620W        W75377  17.691   1.898  13.871
11621W        W75378   4.737  29.471  14.005
11622W        W75379  18.114  37.062   3.187
11623W        W75380   7.849  24.977   5.124
11624W        W75381  36.979  14.135   2.833
11625W        W75382   9.720  37.511   1.383
11626W        W75383  42.942  23.136  13.887
11627W        W75384  21.115   8.819  10.890
11628W        W75385  43.424  38.368  14.934
11629W        W75386  15.598  31.079   2.415
11630W        W75387   3.837  33.887  11.974
11631W        W75388  44.318  31.648   3.327
11632W        W75389  26.513   4.450  11.509
11633W        W75390   0.267  33.463   2.812
11634W        W75391  20.033  13.229  11.048
11635W        W75392   4.254   6.830   3.194
11636W        W75393  18.746  27.193   0.766
11637W        W75394  15.180   0.466   2.822
11638W        W75395  29.963  27.634   2.363
11639W        W75396  35.986  15.207   0.905
11640W        W75397  19.072  35.885  13.061
11641W        W75398  12.684  43.423   0.328
11642W        W75399  17.178  27.578   1.337
11643W        W75400   7.261  21.126   3.233
11644W        W75401   1.871   6.261   2.266
11645W        W75402  16.628  20.244  12.947
11646W        W75403  10.277  26.190  13.055
11647W        W75404  14.184  28.958  11.568
11648W        W75405  24.536  11.183  12.923
11649W        W75406  12.699  33.451   0.432
11650W        W75407  31.981  25.650  11.544
11651W        W75408  31.451  31.464   0.460
11652W        W75409  26.685  32.080  11.977
11653W        W75410   3.769  38.346  14.498
11654W        W75411  22.182   9.388   0.811
11655W        W75412  19.125  17.235  12.918
11656W        W75413  20.127  35.559  12.504
11657W        W75414  13.262  26.992  12.977
11658W        W75415  11.143  11.794  10.995
11659W        W75416   4.713  10.770  13.832
11660W        W75417  16.142  17.079  14.342
11661W        W75418   8.861  43.880   1.430
11662W        W75419  23.651  30.012  11.947
11663W        W75420  10.382  11.270   0.762
11664W        W75421  11.331  41.484   4.161
11665W        W75422  14.107  10.340  10.920
11666W        W75423  42.452  40.932   0.445
11667W        W75424  42.430  30.549   0.301
11668W        W75425  37.486  19.564  14.403
11669W        W75426  31.583  25.206  10.962
11670W        W75427  30.988   5.793  13.063
11671W        W75428  30.651  35.004  12.873
11672W        W75429  17.078  32.606  11.103
11673W        W75430   7.199   0.947   0.892
11674W        W75431  25.171  26.019  10.481
11675W        W75432  10.837   9.668   4.649
11676W        W75433  29.974  19.053  12.541
11677W        W75434  22.736  38.341  14.312
11678W        W75435   9.874  39.026  13.439
11679W        W75436   1.882  38.836   1.930
11680W        W75437  33.081  28.146  12.428
11681W        W75438  44.303   7.202   4.195
11682W        W75439  14.292  30.927  11.904
11683W        W75440  27.686  39.507  11.537
11684W        W75441  29.481  38.365   0.379
11685W        W75442  36.043   1.310   1.885
11686W        W75443  31.042  22.093  11.931
11687W        W75444   3.892  38.961   2.865
11688W        W75445  11.329  17.259   2.417
11689W        W75446  14.182  24.582   3.851
11690W        W75447  29.576   3.260  10.447
11691W        W75448  41.788  25.198  13.466
11692W        W75449  13.286  30.529   3.771
11693W        W75450  43.973  41.853  11.967
11694W        W75451  13.800  30.507  12.980
11695W        W75452  10.248   6.274   0.738
11696W        W75453  14.821   8.161  11.866
11697W        W75454  13.255  10.159  12.355
11698W        W75455  32.518  23.991  11.430
11699W        W75456   2.302  37.485  12.948
11700W        W75457  34.582  21.130   2.242
11701W        W75458  28.025  11.336   2.194
11702W        W75459  31.406  39.046  12.354
11703W        W75460  23.064  31.083   4.221
11704W        W75461  37.365  27.611  11.934
11705W        W75462  31.403  41.829  11.935
11706W        W75463  39.960  13.287   1.814
11707W        W75464  18.098  13.338  13.315
11708W        W75465  44.985  16.251   4.158
11709W        W75466  37.497  15.586   3.302
11710W        W75467  30.162  18.762  14.354
11711W        W75468  39.440  29.988   0.775
11712W        W75469  14.831  28.980   2.184
11713W        W75470  40.002  39.506   3.866
11714W        W75471  23.594  28.654   2.224
11715W        W75472  10.861  17.722  10.985
11716W        W75473   2.925  26.114  11.037
11717W        W75474  16.696   1.746   4.219
11718W        W75475  39.450  10.790  10.444
11719W        W75476  11.683  10.835  13.413
11720W        W75477  19.178  25.471  13.960
11721W        W75478  28.059  34.904   2.268
11722W        W75479  32.560  29.562  13.812
11723W        W75480   7.864   8.761   4.252
11724W        W75481  43.439  32.141  12.998
11725W        W75482  35.367  23.008   1.694
11726W        W75483  23.547  38.449   1.403
11727W        W75484  14.223  37.542   2.793
11728W        W75485  24.583  27.615  11.530
11729W        W75486  11.713  35.859   0.733
11730W        W75487  43.911   1.283  11.907
11731W        W75488   2.782   7.175  13.516
11732W        W75489  29.450  29.146   1.321
11733W        W75490   6.321   7.720  11.865
11734W        W75491  36.907  33.505   3.773
11735W        W75492   5.780   8.831  10.540
11736W        W75493  43.948  11.860   3.239
11737W        W75494  31.543  22.708  10.554
11738W        W75495  12.180  15.293   0.887
11739W        W75496   9.250  22.089  11.575
11740W        W75497  44.004  20.066  11.900
11741W        W75498   5.197  23.609  14.957
11742W        W75499  20.602   3.904   3.851
11743W        W75500  31.967  23.114  13.413
11744W        W75501  16.797  43.772   4.175
11745W        W75502  24.649  17.742   0.444
11746W        W75503  22.088   4.349  11.020
11747W        W75504  13.221  32.559  11.560
11748W        W75505  13.815  14.174   4.272
11749W        W75506  44.312   9.815  14.839
11750W        W75507  25.215  20.762   2.665
11751W        W75508   5.755  24.153  12.465
11752W        W75509  23.105  16.594  10.598
11753W        W75510   0.357   4.861  14.923
11754W        W75511   9.261   0.981   4.755
11755W        W75512  16.773   9.887   2.846
11756W        W75513  23.019   0.936  12.463
11757W        W75514   8.292  10.686   4.278
11758W        W75515  29.930  25.053   4.700
11759W        W75516  25.967  22.091   3.673
11760W        W75517  23.497  28.582  11.415
11761W        W75518   8.896   4.255   3.715
11762W        W75519   3.325  40.335   4.163
11763W        W75520  17.800   5.885   1.828
11764W        W75521   3.795   3.302  13.329
11765W        W75522  34.106  38.480  10.924
11766W        W75523   2.897  18.690  12.077
11767W        W75524  13.132  35.898  10.553
11768W        W75525  43.412  12.283  11.573
11769W        W75526  35.549  42.016   0.369
11770W        W75527   6.185  37.039  12.035
11771W        W75528   0.767  37.009  12.491
11772W        W75529  38.475   2.327  11.998
11773W        W75530  39.871  15.270  14.999
11774W        W75531  35.409  20.181  11.523
11775W        W75532  42.476  17.586   2.335
11776W        W75533  12.745  24.573  11.418
11777W        W75534   0.378  15.671   4.709
11778W        W75535  30.522  43.401  14.483
11779W        W75536  25.706   3.879  12.880
11780W        W75537   9.266  43.331  12.925
11781W        W75538  37.003  32.577  11.528
11782W        W75539   9.306   4.756   1.810
11783W        W75540  37.540   6.761  12.951
11784W        W75541  20.604  33.879   2.371
11785W        W75542  37.494  35.487  14.940
11786W        W75543  13.303  20.542  13.939
11787W        W75544  26.189  32.986   2.218
11788W        W75545  16.297  43.513  10.577
11789W        W75546  18.736  20.234   4.728
11790W        W75547  32.567  31.588   0.900
11791W        W75548   2.361  19.716  13.962
11792W        W75549   0.344  16.745   1.363
11793W        W75550  36.388  35.022   1.275
11794W        W75551   3.389  31.580  14.341
11795W        W75552  10.771  28.668  12.967
11796W        W75553  35.540  40.549  11.556
11797W        W75554  27.173   6.233  12.392
11798W        W75555  24.056   0.959  14.496
11799W        W75556  14.216  24.043   3.376
11800W        W75557  29.054   6.372   1.344
11801W        W75558  28.997   1.411   3.724
11802W        W75559  24.156  26.150  11.386
11803W        W75560  16.684  32.033  10.458
11804W        W75561  22.514   2.887   1.389
11805W        W75562   1.949  18.569  13.028
11806W        W75563  11.665  28.598   1.710
11807W        W75564  11.272   5.737   3.834
11808W        W75565  29.580  38.532   0.839
11809W        W75566  27.118  25.168  10.415
11810W        W75567  19.198  44.999  12.072
11811W        W75568  44.476  21.738   2.897
11812W        W75569  26.649  35.939  10.093
11813W        W75570  30.100   9.356   2.408
11814W        W75571  26.485  14.322   0.309
11815W        W75572  19.163   0.414  12.455
11816W        W75573  39.508   2.364   4.227
11817W        W75574  12.772  37.561   1.764
11818W        W75575  33.926   0.743  12.381
11819W        W75576  26.951  15.161   2.798
11820W        W75577   3.334  43.316  11.068
11821W        W75578   3.280  44.772  14.392
11822W        W75579  35.941  37.400  12.945
11823W        W75580  12.770   1.266   0.846
11824W        W75581   4.332  33.442  12.995
11825W        W75582   1.868  31.906  11.059
11826W        W75583  11.816  44.903   3.338
11827W        W75584   0.290  17.559  10.604
11828W        W75585  28.121  36.037   1.434
11829W        W75586  32.902  39.025  11.122
11830W        W75587   0.868   4.814  10.528
11831W        W75588   3.352  25.013  12.554
11832W        W75589  27.000  39.326   1.753
11833W        W75590  41.862  14.827  11.030
11834W        W75591  31.637  26.580   0.251
11835W        W75592  11.625  21.123   0.338
11836W        W75593   8.279  40.951  13.467
11837W        W75594  36.569   7.801   2.307
11838W        W75595  38.834  16.705   4.744
11839W        W75596  25.545  20.064  10.946
11840W        W75597  40.845   3.770  10.056
11841W        W75598  29.933  27.591  13.797
11842W        W75599  38.367  20.643  12.960
11843W        W75600   1.326   7.254  13.412
11844W        W75601   3.326  31.484   1.407
11845W        W75602  43.941  21.533  10.945
11846W        W75603  40.879  31.904  12.369
11847W        W75604  42.984  44.762   0.281
11848W        W75605  30.604  35.962  12.436
11849W        W75606  16.812  31.112   2.820
11850W        W75607  29.113   2.752  11.403
11851W        W75608  23.682  42.401  12.413
11852W        W75609  33.406  44.352   2.331
11853W        W75610   7.398  38.069  10.554
11854W        W75611  14.290   0.396   3.266
11855W        W75612  29.952  25.061   1.430
11856W        W75613  20.569  44.407   0.828
11857W        W75614  34.062  44.980   2.354
11858W        W75615  32.444  22.170   3.656
11859W        W75616   9.203  32.608   4.794
11860W        W75617  40.992  33.473   1.344
11861W        W75618  39.024   7.208  10.411
11862W        W75619  11.129  16.709  11.540
11863W        W75620  36.426  29.059  10.923
11864W        W75621   2.754  13.119   2.853
11865W        W75622  34.447   3.276  11.416
11866W        W75623   5.803  39.955   5.283
11867W        W75624  11.651  14.702   3.175
11868W        W75625   1.317  25.698  11.603
11869W        W75626   4.726  18.773  13.520
11870W        W75627  39.024  15.678  10.106
11871W        W75628   9.175  37.364   4.726
11872W        W75629  36.491  22.644   1.812
11873W        W75630  18.085   1.356   4.202
11874W        W75631  13.716   1.326   3.753
11875W        W75632  31.410  40.915  14.986
11876W        W75633  34.487   6.694   4.765
11877W        W75634  35.393  13.207   4.837
11878W        W75635  10.235  37.010  12.035
11879W        W75636   5.300  25.140  14.468
11880W        W75637  41.788  42.414  12.852
11881W        W75638  14.276  27.009   3.187
11882W        W75639  35.564  25.171  14.472
11883W        W75640  31.134  13.737  12.942
11884W        W75641  43.490  28.133  13.932
11885W        W75642  19.104   3.426   4.319
11886W        W75643   5.277  18.132  11.012
11887W        W75644   5.834  10.769  10.595
11888W        W75645   7.232   1.280  11.088
11889W        W75646   7.286   7.277  11.505
11890W        W75647  37.355  29.129  10.448
11891W        W75648  32.140  21.017   4.680
11892W        W75649  16.672  30.150   0.950
11893W        W75650  37.553  12.637  10.575
11894W        W75651   6.872  36.879  12.834
11895W        W75652   3.926  11.211   3.184
11896W        W75653  15.106  27.987   0.465
11897W        W75654  37.999  39.022   2.728
11898W        W75655  26.475  33.451   0.874
11899W        W75656  16.235  42.488  13.487
11900W        W75657   4.712  18.207  14.921
11901W        W75658  14.668   0.487   2.854
11902W        W75659  39.389  28.973   1.807
11903W        W75660  16.190  34.873  12.473
11904W        W75661   9.390  20.657  11.104
11905W        W75662   3.762  14.716  12.458
11906W        W75663   3.237  36.979   3.199
11907W        W75664  20.252  42.941   1.699
11908W        W75665  25.620  20.170   0.293
11909W        W75666  35.439  19.197  10.483
11910W        W75667  42.985   2.944   0.360
11911W        W75668  27.494  39.465  13.858
11912W        W75669  44.999   3.934  12.892
11913W        W75670   3.231  43.987  11.059
11914W        W75671  27.458   8.740   1.434
11915W        W75672  26.702  37.398   3.846
11916W        W75673  42.431  32.939   3.681
11917W        W75674  29.625  37.544   5.090
11918W        W75675  36.959   1.247   0.433
11919W        W75676   3.242  26.030  14.786
11920W        W75677   0.956  10.188  11.111
11921W        W75678  25.498  12.210  11.528
11922W        W75679  40.424  38.047   2.261
11923W        W75680  24.000  18.125  11.402
11924W        W75681  13.197  37.383   5.141
11925W        W75682  30.529  20.581  10.582
11926W        W75683  15.146   4.934  14.789
11927W        W75684  14.705  26.106   3.803
11928W        W75685  17.731  32.997  11.940
11929W        W75686  34.516   2.928  14.359
11930W        W75687  34.540  15.788   1.298
11931W        W75688  34.895   6.863   3.769
11932W        W75689  22.524  12.836   3.211
11933W        W75690  11.350  33.902   4.163
11934W        W75691  26.515  42.933  13.369
11935W        W75692  21.172  32.572  13.933
11936W        W75693  43.892   1.254   2.708
11937W        W75694  31.636  37.420   1.325
11938W        W75695  34.090  43.015  14.400
11939W        W75696  35.929   3.723   2.375
11940W        W75697  38.041   1.968  12.862
11941W        W75698  35.856   7.727  11.609
11942W        W75699   6.806  25.659  11.409
11943W        W75700  11.850  38.560  13.336
11944W        W75701  16.272  27.148   3.791
11945W        W75702  37.449  20.695  13.944
11946W        W75703  19.146  22.131  13.481
11947W        W75704  42.886  41.434  11.433
11948W        W75705  20.679  34.082  13.843
11949W        W75706  16.690   9.182   3.729
11950W        W75707  19.622  27.950  12.379
11951W        W75708  17.576  35.018   3.713
11952W        W75709  29.495  37.885   3.777
11953W        W75710  30.131  21.547  11.058
11954W        W75711  42.293  34.999  11.919
11955W        W75712  16.191  43.770  11.880
11956W        W75713  20.210  30.919  14.795
11957W        W75714  19.647  40.331   2.256
11958W        W75715   5.869  32.039   1.242
11959W        W75716  20.552  31.989   4.701
11960W        W75717   9.737  15.689  10.444
11961W        W75718  24.098  34.110   0.755
11962W        W75719   8.188  11.312  12.851
11963W        W75720  27.550   3.781  13.829
11964W        W75721  18.744  27.446  14.009
11965W        W75722  44.952  14.218   2.855
11966W        W75723  43.333  38.848  14.335
11967W        W75724  18.075   3.857  10.594
11968W        W75725  24.716   4.355   4.825
11969W        W75726  16.262  25.628  14.849
11970W        W75727  31.514  27.509   0.339
11971W        W75728  21.643   8.852   3.790
11972W        W75729   1.400   8.377   4.188
11973W        W75730  37.442  35.865  12.352
11974W        W75731   9.155   0.975   3.821
11975W        W75732  34.867   2.825  11.950
11976W        W75733   6.767  21.706   0.950
11977W        W75734  12.179   1.962   2.182
11978W        W75735  28.677  33.007   0.470
11979W        W75736  30.070   1.283  12.870
11980W        W75737  43.405   3.753  11.014
11981W        W75738   8.664  12.169   0.844
11982W        W75739  18.587   9.812   2.668
11983W        W75740   0.912  32.477  14.931
11984W        W75741   7.258  25.596   1.821
11985W        W75742   8.694   0.971   3.790
11986W        W75743  21.535  25.580  13.360
11987W        W75744  33.119  42.959   3.289
11988W        W75745  30.933   1.437   0.293
11989W        W75746  43.831  36.539  11.943
11990W        W75747  41.323  12.280   4.707
11991W        W75748  19.093  14.205  12.990
11992W        W75749  27.460   9.212  10.521
11993W        W75750   8.222  27.671  14.978
11994W        W75751  21.154  23.188  13.827
11995W        W75752  43.791  11.190  14.855
11996W        W75753  38.417  11.700  11.932
11997W        W75754   4.743  22.611  11.989
11998W        W75755  23.099  34.474   0.941
11999W        W75756  29.928  41.466   4.137
12000W        W75757   4.274   4.402  12.544
12001W        W75758  27.481  39.875   3.740
12002W        W75759  30.931   7.877  12.869
12003W        W75760  20.703  16.085   9.644
12004W        W75761   7.343   5.928   1.928
12005W        W75762  15.278  32.971   1.833
12006W        W75763  34.878  28.017   1.868
12007W        W75764  30.502  24.984  11.387
12008W        W75765  20.096  32.565   4.142
12009W        W75766  43.422   8.891  10.995
12010W        W75767  28.018  30.150  12.479
12011W        W75768  38.985  16.258   1.828
12012W        W75769  38.512  22.616  11.101
12013W        W75770   0.397  10.708  11.102
12014W        W75771   7.714  38.477   3.783
12015W        W75772  34.965  14.160  13.331
12016W        W75773  34.930   7.184  11.562
12017W        W75774  36.078  35.578  14.811
12018W        W75775  33.417  16.584   1.307
12019W        W75776  20.610  23.701   2.257
12020W        W75777   0.827   0.430  14.773
12021W        W75778   2.462  24.006  13.359
12022W        W75779  19.644  28.086  10.503
12023W        W75780   5.821  13.670   0.268
12024W        W75781   5.276  35.481   2.834
12025W        W75782  29.934  17.698  13.485
12026W        W75783  22.614  36.466   1.340
12027W        W75784   4.858  23.172  14.024
12028W        W75785  42.880   2.393  14.945
12029W        W75786   7.868  10.307  14.026
12030W        W75787  44.963   3.221   2.334
12031W        W75788   3.771  28.675   3.700
12032W        W75789  40.491   9.278   2.745
12033W        W75790  19.667  25.618  10.932
12034W        W75791  18.689  31.013   0.322
12035W        W75792  44.331  24.534  11.415
12036W        W75793   4.342  31.412  13.028
12037W        W75794  31.402   6.874  13.998
12038W        W75795  18.257  11.860  14.328
12039W        W75796  16.777  24.983  11.443
12040W        W75797   8.889  20.551   4.781
12041W        W75798  28.056  31.088   0.353
12042W        W75799  38.545   5.205  13.966
12043W        W75800  16.750   4.790  14.283
12044W        W75801  20.208  24.583  12.862
12045W        W75802  42.487   0.310  11.526
12046W        W75803   7.374  44.336   2.687
12047W        W75804  20.613   3.428   3.240
12048W        W75805  18.057  19.779   2.748
12049W        W75806  36.980  13.819  14.354
12050W        W75807  24.667  13.111  13.535
12051W        W75808  34.380   7.270  12.393
12052W        W75809  11.165  37.964  14.824
12053W        W75810  14.205  38.953  11.053
12054W        W75811  10.193  11.749   0.948
12055W        W75812   2.436  31.003  14.408
12056W        W75813  37.888   9.693  12.437
12057W        W75814  10.791  36.420  14.396
12058W        W75815   2.749  30.413   0.826
12059W        W75816  20.199  19.764   2.317
12060W        W75817  21.633  26.631  13.804
12061W        W75818  36.054  25.050  14.837
12062W        W75819  11.646  13.323  10.891
12063W        W75820  43.912  15.817   4.327
12064W        W75821   9.259  20.034  10.889
12065W        W75822  20.637  25.509  12.950
12066W        W75823  18.187  15.620   9.922
12067W        W75824  44.987  23.583  12.508
12068W        W75825  42.991  21.055  13.918
12069W        W75826   1.847  26.201  11.859
12070W        W75827  22.690  20.582  10.563
12071W        W75828  41.323   6.825  13.316
12072W        W75829   9.789  42.839  13.501
12073W        W75830  42.997   3.449  12.519
12074W        W75831  34.073  43.336  11.054
12075W        W75832  31.504  13.211  11.863
12076W        W75833  39.854   7.833   0.295
12077W        W75834  29.601  16.696   4.181
12078W        W75835  17.256   1.279   0.354
12079W        W75836  24.576   9.821   2.291
12080W        W75837   3.406  31.498   3.210
12081W        W75838  12.745  18.130  11.879
12082W        W75839  30.943  17.125   4.285
12083W        W75840   9.374  26.020  11.384
12084W        W75841  36.014   5.426   2.792
12085W        W75842  35.544  29.583   2.298
12086W        W75843  25.981  22.179  10.558
12087W        W75844   7.362  16.622   0.308
12088W        W75845  26.996  40.984  10.889
12089W        W75846  21.699  21.170  10.955
12090W        W75847  11.700  10.247  12.086
12091W        W75848   4.421   4.818   4.313
12092W        W75849  10.805  12.285  13.021
12093W        W75850  37.061   7.411   2.243
12094W        W75851   1.921  26.140   3.306
12095W        W75852  14.632  33.404   1.723
12096W        W75853  17.161  28.988   3.810
12097W        W75854  29.483   7.284   3.293
12098W        W75855  21.106  20.125  13.853
12099W        W75856  14.771  18.237  14.914
12100W        W75857  40.034   0.493   5.311
12101W        W75858   1.438  15.798  12.935
12102W        W75859  21.206  31.111  13.522
12103W        W75860  16.107  26.476  10.493
12104W        W75861  44.483   9.386   4.757
12105W        W75862  18.553  39.433  12.826
12106W        W75863  20.156  13.259  10.124
12107W        W75864   1.483  18.117   2.811
12108W        W75865  18.144  44.913   3.760
12109W        W75866  20.056  44.395   4.129
12110W        W75867  38.353  24.114  11.864
12111W        W75868  39.832   6.677   0.796
12112W        W75869  36.353  35.504   4.606
12113W        W75870  39.494  11.636  13.803
12114W        W75871  17.686  35.937  11.905
12115W        W75872  41.299  17.129  10.543
12116W        W75873  32.541  40.461  13.541
12117W        W75874  34.515  14.117  12.004
12118W        W75875  38.435  35.519  12.940
12119W        W75876  17.161  27.021   1.259
12120W        W75877  21.045  25.628   4.116
12121W        W75878  36.566   8.767  12.083
12122W        W75879  15.321  20.170   1.387
12123W        W75880   4.798  44.912   1.766
12124W        W75881  37.085  17.757  12.384
12125W        W75882  12.151  12.626   2.273
12126W        W75883   3.459  13.330   4.710
12127W        W75884   4.240  37.953  14.985
12128W        W75885  14.601  42.416  11.549
12129W        W75886   8.297  25.541  11.536
12130W        W75887  28.538  31.913   2.878
12131W        W75888  31.136  34.407   3.237
12132W        W75889  11.775  26.464  12.936
12133W        W75890  37.340  33.084   2.849
12134W        W75891   1.347  19.278   1.796
12135W        W75892  31.134  34.958   0.304
12136W        W75893  29.130  38.560  11.996
12137W        W75894   3.927  19.214  13.391
12138W        W75895  38.904  28.933   0.324
12139W        W75896   9.853  12.189  14.354
12140W        W75897  23.496  41.867  14.372
12141W        W75898  42.403   1.345  13.437
12142W        W75899  23.078  32.945  14.838
12143W        W75900  15.578  31.503  11.385
12144W        W75901  32.133  25.496  14.465
12145W        W75902  27.047   8.207   3.170
12146W        W75903   8.331  21.598  13.342
12147W        W75904  22.559  38.958  11.029
12148W        W75905   0.327  18.606  13.481
12149W        W75906  33.874  24.569   2.181
12150W        W75907  12.774   2.842   1.386
12151W        W75908  24.559  25.487  13.900
12152W        W75909  21.211   1.270   4.236
12153W        W75910   0.968   5.319   0.298
12154W        W75911  31.514   8.700  11.041
12155W        W75912  22.048  11.712   2.714
12156W        W75913  21.176  38.389   5.205
12157W        W75914  34.392  32.931   1.390
12158W        W75915  37.876   3.460  11.581
12159W        W75916   1.953  35.001   3.820
12160W        W75917  33.132  24.133  10.559
12161W        W75918   7.749   6.366   5.165
12162W        W75919  29.629   6.836   2.869
12163W        W75920  11.273   5.210   1.370
12164W        W75921   1.311   8.293  10.889
12165W        W75922   7.706  11.130   3.172
12166W        W75923  32.447   0.764  14.806
12167W        W75924  43.495  30.561   3.740
12168W        W75925  23.646  33.559  11.601
12169W        W75926   9.343   4.348  12.577
12170W        W75927  20.184  33.131  11.557
12171W        W75928  35.439  26.521   2.816
12172W        W75929  37.386  43.988  11.918
12173W        W75930  12.120   8.366  12.492
12174W        W75931  11.838  34.088   4.310
12175W        W75932  18.722  41.501  12.346
12176W        W75933   3.340   8.757  13.861
12177W        W75934  22.105   6.376  10.499
12178W        W75935  42.806  44.432   2.218
12179W        W75936  22.727   5.196   1.424
12180W        W75937  20.645   8.794  10.630
12181W        W75938  37.045  10.230  13.882
12182W        W75939   6.913  37.021  14.408
12183W        W75940   3.831   0.409   1.717
12184W        W75941  21.518  20.237   3.271
12185W        W75942  28.992  23.140  11.109
12186W        W75943  13.297  28.983  12.541
12187W        W75944  26.503  11.326  12.344
12188W        W75945  16.795  42.016  14.004
12189W        W75946  28.952   5.905  14.318
12190W        W75947  18.122   0.774   2.808
12191W        W75948  16.664   1.351  14.461
12192W        W75949  24.163  30.020  14.339
12193W        W75950  43.974  42.990  12.445
12194W        W75951  38.836   4.225   0.274
12195W        W75952  18.588   4.827  13.912
12196W        W75953   5.931   7.669  11.421
12197W        W75954  16.652   7.222   0.362
12198W        W75955  10.248   8.729  11.950
12199W        W75956  28.556  28.998   3.387
12200W        W75957   8.286  43.782  12.079
12201W        W75958  26.486  24.221  10.556
12202W        W75959  33.901  25.682  13.455
12203W        W75960  37.416  36.889   2.349
12204W        W75961  18.602  21.530  10.598
12205W        W75962  13.680  34.980  13.917
12206W        W75963   6.397  40.028  10.473
12207W        W75964  21.658  40.379   3.670
12208W        W75965  35.894  38.337  12.578
12209W        W75966  18.289   0.317   2.370
12210W        W75967  18.198  41.875   1.741
12211W        W75968  39.866   9.764   0.365
12212W        W75969   6.231  42.808   2.859
12213W        W75970  32.066  22.639  12.381
12214W        W75971  23.189  35.107  14.931
12215W        W75972   1.837  33.094  12.926
12216W        W75973  15.255  27.100   4.228
12217W        W75974  27.190  26.061   4.227
12218W        W75975  23.720  21.094  13.407
12219W        W75976  41.450  23.140  13.851
12220W        W75977  30.066   1.480   4.680
12221W        W75978   2.402  16.203   4.610
12222W        W75979  38.958  38.531   2.810
12223W        W75980  41.293  19.625  12.929
12224W        W75981  37.453  36.395  13.889
12225W        W75982  36.590  35.059   2.755
12226W        W75983  31.998  38.999   3.685
12227W        W75984  29.490  21.158  14.385
12228W        W75985  12.673  33.995  12.352
12229W        W75986   8.831  33.041   0.796
12230W        W75987  21.699  12.118  14.419
12231W        W75988  15.279  22.617  13.852
12232W        W75989   4.245  30.484   0.763
12233W        W75990   2.274   1.901   0.808
12234W        W75991  25.091  26.552  13.921
12235W        W75992   4.389  40.924  10.946
12236W        W75993  24.085  37.894   0.770
12237W        W75994  40.331  44.388   3.730
12238W        W75995  41.863   4.412  14.428
12239W        W75996  37.950  25.503   1.707
12240W        W75997  12.309  43.903  13.436
12241W        W75998  20.683   7.759   3.313
12242W        W75999  16.282  26.559   3.376
12243W        W76000  13.225  37.064   1.880
12244W        W76001  20.230  18.106   2.714
12245W        W76002  23.131   5.375   3.267
12246W        W76003  25.611  21.595  11.935
12247W        W76004  10.268   1.449   3.378
12248W        W76005  44.996  17.712  10.635
12249W        W76006  17.129   6.709  14.408
12250W        W76007  28.965   2.442   2.677
12251W        W76008   5.235  18.649  13.806
12252W        W76009  41.970  19.687  11.402
12253W        W76010  43.418  19.719  13.378
12254W        W76011  29.584  39.537   0.430
12255W        W76012  19.680  18.184  12.080
12256W        W76013   3.875  32.069   3.860
12257W        W76014  30.162  11.352  14.472
12258W        W76015  42.011  11.167   0.822
12259W        W76016  41.477  10.736   2.287
12260W        W76017  30.632  42.863   2.779
12261W        W76018   1.419   6.187   4.779
12262W        W76019  33.582  11.148   1.793
12263W        W76020  12.265  16.794  14.825
12264W        W76021  23.088  38.564  13.916
12265W        W76022   7.201  26.022  11.073
12266W        W76023  39.379  30.004   3.186
12267W        W76024  12.346   4.243  11.093
12268W        W76025   7.686  35.988   3.148
12269W        W76026  43.835  36.910  11.010
12270W        W76027  41.918   8.822  12.930
12271W        W76028   1.941  20.060   1.827
12272W        W76029  11.697  44.475  14.810
12273W        W76030  24.073  29.469  12.067
12274W        W76031  28.123  20.209  12.866
12275W        W76032   8.679  41.529   4.777
12276W        W76033  20.529  21.131  10.103
12277W        W76034  35.412  26.077   3.153
12278W        W76035  13.172   8.729   3.231
12279W        W76036  13.813  36.994   4.264
12280W        W76037   8.384  32.394   4.751
12281W        W76038  31.595  34.610  14.308
12282W        W76039  23.697  42.902  13.931
12283W        W76040   4.406  26.146  12.034
12284W        W76041  28.453   6.364   2.201
12285W        W76042  25.695   5.802   4.669
12286W        W76043  14.707  37.361   2.353
12287W        W76044  12.174   5.785   2.289
12288W        W76045   3.389  35.526   3.263
12289W        W76046   3.453  30.434  14.840
12290W        W76047  31.515  23.510  13.917
12291W        W76048  12.212  30.597  13.479
12292W        W76049  33.573  18.632  14.349
12293W        W76050  19.670  38.374  13.030
12294W        W76051  13.302  31.571  14.334
12295W        W76052  32.071  14.229   3.346
12296W        W76053  24.707   6.198  11.973
12297W        W76054  20.109   1.831   0.860
12298W        W76055  31.578  15.220  11.887
12299W        W76056  17.776  34.419   1.253
12300W        W76057  14.596  26.670  12.847
12301W        W76058  38.828  10.366   5.300
12302W        W76059  14.666  16.312   1.792
12303W        W76060   3.297  17.191   5.167
12304W        W76061  41.429  25.704  14.319
12305W        W76062  37.419  38.833   4.685
12306W        W76063  16.756  43.859  13.845
12307W        W76064  41.022   2.911   5.122
12308W        W76065  18.790  35.375   5.166
12309W        W76066  23.496  29.426   0.911
12310W        W76067   7.201  40.989  14.887
12311W        W76068  26.163  29.062  13.403
12312W        W76069  24.504   9.327   1.845
12313W        W76070  25.978  42.451   2.187
12314W        W76071  40.418  30.450  14.454
12315W        W76072   7.319  33.098  11.482
12316W        W76073  36.871  35.438  11.559
12317W        W76074  14.156  40.034  14.454
12318W        W76075   5.876  42.780   1.342
12319W        W76076  38.954  19.164   0.823
12320W        W76077  35.967  12.216  12.568
12321W        W76078  24.095  11.743  13.963
12322W        W76079  37.950  32.023   1.323
12323W        W76080   5.836  43.911   2.317
12324W        W76081  33.527  33.956   0.801
12325W        W76082  26.019  31.955  13.047
12326W        W76083   1.931   2.807   0.896
12327W        W76084   1.400  19.281  13.451
12328W        W76085  32.955  41.504   3.743
12329W        W76086  11.658  32.489   0.787
12330W        W76087  44.977  32.038   3.821
12331W        W76088  10.293  37.414  14.281
12332W        W76089  38.018   5.807  13.936
12333W        W76090  26.486  32.062  13.850
12334W        W76091  40.332  20.198   1.696
12335W        W76092  40.320  32.961  10.961
12336W        W76093  35.387  15.202  11.423
12337W        W76094  22.996  19.632  13.473
12338W        W76095  25.646  30.143   3.281
12339W        W76096   1.263  35.555  14.966
12340W        W76097  21.523  20.072   4.152
12341W        W76098  21.199   3.389   3.154
12342W        W76099  14.769   1.948  11.926
12343W        W76100  29.924  16.244   4.238
12344W        W76101   9.792  16.258  14.918
12345W        W76102  32.556  19.561   1.410
12346W        W76103  40.808   4.306  13.954
12347W        W76104  18.257  42.863   3.863
12348W        W76105  41.010  36.494   2.243
12349W        W76106  32.086  14.815   1.731
12350W        W76107   9.694  11.785  13.520
12351W        W76108  20.548  32.932  12.059
12352W        W76109   6.245   7.296  14.871
12353W        W76110   1.817   5.699  11.897
12354W        W76111   1.977   2.831   1.416
12355W        W76112  32.017  32.096  12.093
12356W        W76113  12.217  35.958   3.368
12357W        W76114  44.923  10.150  12.969
12358W        W76115  13.257   8.659  13.974
12359W        W76116  26.095   1.824   4.163
12360W        W76117  18.067  31.571   0.395
12361W        W76118  35.078  39.328   3.331
12362W        W76119  19.183   2.339   1.274
12363W        W76120  15.689  37.580  11.397
12364W        W76121  31.464  26.532  10.631
12365W        W76122   6.205  16.648  10.412
12366W        W76123   5.899  28.034  12.557
12367W        W76124  15.102  33.938  10.611
12368W        W76125  29.628  17.784   4.267
12369W        W76126   6.873  22.676  13.540
12370W        W76127   5.696   9.661  14.431
12371W        W76128  42.339  36.092  11.061
12372W        W76129  40.441   5.689  13.033
12373W        W76130  41.016  15.729   3.701
12374W        W76131  11.626  16.770  12.892
12375W        W76132  34.542  42.442   0.872
12376W        W76133   4.864  22.127  11.408
12377W        W76134   5.877  37.990  11.441
12378W        W76135  19.594  22.650  10.957
12379W        W76136  42.788  43.398  13.402
12380W        W76137  12.256  42.964  10.969
12381W        W76138  29.153   7.284   0.861
12382W        W76139   5.753   7.760   4.839
12383W        W76140  15.665  35.882   0.779
12384W        W76141   7.228  34.571   2.270
12385W        W76142  37.404  24.076  14.872
12386W        W76143  29.491   3.306  12.038
12387W        W76144  26.494   2.753  13.460
12388W        W76145   3.745   2.418   4.308
12389W        W76146  44.871  19.668  12.889
12390W        W76147  33.439   4.711  13.533
12391W        W76148  15.289  41.989  14.024
12392W        W76149   3.775  27.954   3.862
12393W        W76150  35.040   2.949  14.324
12394W        W76151   9.268  23.582  11.903
12395W        W76152  29.531  32.963  11.448
12396W        W76153  25.014   4.377   1.778
12397W        W76154   3.405  34.893   3.651
12398W        W76155  15.615  42.776  12.567
12399W        W76156  12.709  29.005  13.871
12400W        W76157   5.803  14.131   2.303
12401W        W76158   6.716  41.911  10.930
12402W        W76159  21.605   9.682  12.006
12403W        W76160  21.751  25.073   5.141
12404W        W76161  37.851   9.283  14.970
12405W        W76162  31.934  28.160  10.975
12406W        W76163   9.656  37.505   2.878
12407W        W76164  14.291  44.007   0.257
12408W        W76165  28.178  44.003   2.223
12409W        W76166  34.935   6.701  11.108
12410W        W76167  28.045  21.657   0.431
12411W        W76168  36.412  15.219  11.540
12412W        W76169  15.251  40.813   4.717
12413W        W76170   4.297  12.180   0.763
12414W        W76171  41.997  36.062  13.422
12415W        W76172  38.954  16.695   4.194
12416W        W76173  30.599  21.168   4.131
12417W        W76174  31.921   3.264  11.022
12418W        W76175  24.130  26.195   2.686
12419W        W76176  20.101  39.886  11.935
12420W        W76177   0.474   7.263  11.568
12421W        W76178  10.753   5.360  10.621
12422W        W76179  23.222   7.819  12.963
12423W        W76180  27.637  36.869   2.217
12424W        W76181  38.380  36.997  14.870
12425W        W76182  21.695   5.236  13.351
12426W        W76183  30.951  24.681  13.359
12427W        W76184  10.232   7.798   1.333
12428W        W76185  32.441  38.496   3.298
12429W        W76186  38.354   0.417   0.950
12430W        W76187  37.480  17.664   2.676
12431W        W76188  13.772   5.913  12.470
12432W        W76189  33.507  10.345   3.734
12433W        W76190   8.726  31.955  11.907
12434W        W76191  36.002  26.208  14.314
12435W        W76192  40.896  14.275   4.703
12436W        W76193  13.272  14.275  12.406
12437W        W76194  16.154  21.755  12.410
12438W        W76195   1.918  37.552   2.833
12439W        W76196   0.880   5.882   1.700
12440W        W76197  22.203  10.358   4.204
12441W        W76198  38.331   1.450   4.702
12442W        W76199  35.002  28.444   3.678
12443W        W76200  29.138  21.128  14.900
12444W        W76201  30.063   5.725   0.790
12445W        W76202  24.594   7.751  11.533
12446W        W76203  22.165  36.035   0.772
12447W        W76204   3.435  16.640   1.446
12448W        W76205  22.126   0.891  10.990
12449W        W76206  24.506  40.468  11.952
12450W        W76207  13.313   8.833   2.688
12451W        W76208  28.982  41.869  14.371
12452W        W76209  37.083  21.602  10.924
12453W        W76210  38.999  43.939   4.352
12454W        W76211  17.181  22.729   5.085
12455W        W76212  44.859  39.460   2.302
12456W        W76213  38.853  18.217  11.503
12457W        W76214  10.775   2.311  11.527
12458W        W76215  18.171  17.726   2.737
12459W        W76216  36.539   5.274  12.940
12460W        W76217  30.639  29.061   4.620
12461W        W76218  24.978  39.928   4.727
12462W        W76219   8.673  12.701   0.770
12463W        W76220  11.669  12.711  11.409
12464W        W76221  31.591  19.184  12.087
12465W        W76222  41.416  43.490   1.238
12466W        W76223  25.707  36.504   0.829
12467W        W76224   9.750  42.004  12.856
12468W        W76225  29.558  40.025   3.316
12469W        W76226  35.377  20.730  10.628
12470W        W76227   8.370  16.194  13.857
12471W        W76228  34.490  29.552   0.868
12472W        W76229   0.445  17.647  13.008
12473W        W76230  27.166  30.584   4.219
12474W        W76231   6.237  21.568  13.030
12475W        W76232  40.864  22.172   2.733
12476W        W76233  16.236   9.347   2.719
12477W        W76234  11.249  16.569   2.681
12478W        W76235  37.343   0.862   5.110
12479W        W76236  34.387  41.983  14.396
12480W        W76237  27.682  26.145  12.546
12481W        W76238   0.420   3.720   1.717
12482W        W76239  19.142  23.549   0.412
12483W        W76240   3.839  36.992   2.868
12484W        W76241  26.493  10.239   2.758
12485W        W76242  17.645   2.363  14.939
12486W        W76243  22.137   5.807  13.990
12487W        W76244  42.299  42.821  13.953
12488W        W76245  27.515  30.115  10.640
12489W        W76246  21.693  10.286   2.896
12490W        W76247  26.508   1.371  12.566
12491W        W76248  29.514  14.192   3.640
12492W        W76249  29.120  30.969   2.245
12493W        W76250   2.281  32.097  13.539
12494W        W76251  41.304   1.806  11.119
12495W        W76252   2.235   4.340  11.426
12496W        W76253   1.920  14.334   3.196
12497W        W76254  41.449  15.681   3.203
12498W        W76255   0.987   6.918   3.651
12499W        W76256  27.589  15.783   0.843
12500W        W76257  12.855  11.179   2.802
12501W        W76258  37.054  26.026   3.159
12502W        W76259  15.578   1.920  10.635
12503W        W76260  24.481  16.589   2.761
12504W        W76261  10.680   8.875  11.429
12505W        W76262   0.415  34.101  14.770
12506W        W76263  31.456  28.953   0.834
12507W        W76264  16.615  30.452  12.524
12508W        W76265  18.587  11.287   3.832
12509W        W76266  23.663  37.832  12.429
12510W        W76267  31.497  44.771   4.823
12511W        W76268  16.739  26.696   0.378
12512W        W76269  13.838  36.537   0.423
12513W        W76270  29.020  18.588   4.188
12514W        W76271  30.417  28.081   4.751
12515W        W76272  23.181   1.879  13.826
12516W        W76273   6.280  25.524   0.347
12517W        W76274  37.889  39.435  14.927
12518W        W76275  23.692  36.860  13.892
12519W        W76276  32.139   9.759   1.769
12520W        W76277  34.588   5.438   9.937
12521W        W76278  10.378  42.297   4.615
12522W        W76279  23.046   1.408  10.501
12523W        W76280   9.266  35.038   3.272
12524W        W76281  44.392  40.024  10.569
12525W        W76282   5.231  33.602  10.115
12526W        W76283   9.672  32.443   1.908
12527W        W76284  16.720  38.433   4.597
12528W        W76285  39.940  26.045  14.882
12529W        W76286  34.944  39.042  14.465
12530W        W76287   2.406  17.749   4.299
12531W        W76288  17.667  17.783  11.033
12532W        W76289  19.683  15.635  10.483
12533W        W76290   1.855  18.196  11.489
12534W        W76291   1.887  42.829   4.133
12535W        W76292  38.885  22.193   0.448
12536W        W76293  18.079  43.806  14.810
12537W        W76294  26.551  44.421  13.472
12538W        W76295  44.954  31.057  13.477
12539W        W76296  17.765   0.391   0.849
12540W        W76297  28.644  24.178  10.032
12541W        W76298   0.308   3.276   5.220
12542W        W76299  42.844   0.826   2.301
12543W        W76300   0.272  20.186  14.978
12544W        W76301  21.542  12.154   2.878
12545W        W76302   6.757   8.722   4.276
12546W        W76303   4.242   7.285  10.460
12547W        W76304  34.903  26.192  11.533
12548W        W76305  12.672  21.115   5.105
12549W        W76306  33.934  28.969   1.344
12550W        W76307  27.110   6.304  14.014
12551W        W76308  44.965   3.830  11.074
12552W        W76309  41.907  23.127   1.371
12553W        W76310   8.404  25.199  11.067
12554W        W76311  17.158  26.966  10.449
12555W        W76312  43.869  36.406  10.991
12556W        W76313  28.629  28.932   1.374
12557W        W76314  44.415  22.743   3.147
12558W        W76315  22.585  18.575  13.837
12559W        W76316  29.078  14.747   4.126
12560W        W76317  10.699   2.893  12.020
12561W        W76318  19.588  32.454  14.027
12562W        W76319   8.795  18.580  13.040
12563W        W76320  25.194  34.110   3.211
12564W        W76321   5.310  39.858  11.553
12565W        W76322  16.607  10.637   3.194
12566W        W76323  40.357   8.895   0.317
12567W        W76324   9.371   6.775   2.273
12568W        W76325  10.639  12.646   1.865
12569W        W76326  10.265  14.613  13.951
12570W        W76327   2.854   5.877  11.974
12571W        W76328  43.342  21.660  12.533
12572W        W76329  37.402  25.591  13.342
12573W        W76330  10.227   5.841   4.244
12574W        W76331  31.087  24.624   2.676
12575W        W76332  29.941   5.817   3.774
12576W        W76333  35.436  21.022   1.915
12577W        W76334  16.284   6.811  10.472
12578W        W76335  44.780  18.616  11.979
12579W        W76336  35.467  28.998  12.023
12580W        W76337  35.946  31.592  10.538
12581W        W76338  11.700  24.641  13.948
12582W        W76339   0.962  11.327  13.880
12583W        W76340  25.697  29.934   0.759
12584W        W76341   9.761   2.856   3.300
12585W        W76342  33.544   9.280   0.307
12586W        W76343  12.197  18.638  12.029
12587W        W76344  40.320  26.054  10.452
12588W        W76345  30.136  28.567  14.375
12589W        W76346  26.662   3.409   3.698
12590W        W76347  32.575  19.564  11.476
12591W        W76348  14.718  28.944  10.594
12592W        W76349  29.125  28.626   0.459
12593W        W76350  37.900   4.255   0.276
12594W        W76351  40.358   2.431   1.374
12595W        W76352  40.350  13.659  12.064
12596W        W76353  10.749  26.123  14.341
12597W        W76354  35.999  20.049   2.731
12598W        W76355   0.805  16.142  10.493
12599W        W76356  24.981  16.586   1.225
12600W        W76357   1.761  32.989   0.319
12601W        W76358  22.068   8.207  14.986
12602W        W76359  17.075  30.649  11.466
12603W        W76360  31.423  43.336  11.877
12604W        W76361  43.848  20.580  11.971
12605W        W76362  25.146   5.309   0.254
12606W        W76363  27.119   1.738  11.047
12607W        W76364  28.987  15.786  14.320
12608W        W76365  16.285   9.263   3.792
12609W        W76366   6.747   2.389   1.833
12610W        W76367   2.320  32.464   4.130
12611W        W76368  12.133  39.505   1.741
12612W        W76369  42.875  28.590   2.717
12613W        W76370  27.558  31.593   2.903
12614W        W76371  36.376  36.410   2.745
12615W        W76372  25.144  31.462  12.452
12616W        W76373  10.314   2.452  13.812
12617W        W76374  40.016  34.550  14.396
12618W        W76375  40.960  16.268   4.829
12619W        W76376  39.002  18.700  14.379
12620W        W76377  34.530  33.400  11.859
12621W        W76378  19.770   8.200   0.394
12622W        W76379   3.272   0.742   2.849
12623W        W76380  23.124   3.936   0.877
12624W        W76381   5.906  18.676  10.903
12625W        W76382   1.444  17.167  14.763
12626W        W76383   4.927  33.554  14.023
12627W        W76384   8.328  34.581  11.612
12628W        W76385  34.114   0.411   4.261
12629W        W76386  23.215  38.381  10.633
12630W        W76387  32.988  24.169   0.849
12631W        W76388  10.212   8.301  14.852
12632W        W76389  33.559  39.985  13.477
12633W        W76390  38.485  20.215  14.991
12634W        W76391  17.233  34.957   1.336
12635W        W76392  37.840  41.027  12.370
12636W        W76393  37.370  39.885  14.972
12637W        W76394   3.910  39.399  10.970
12638W        W76395   4.371  19.104   2.302
12639W        W76396  12.339  40.507  14.396
12640W        W76397  35.061  13.717  10.560
12641W        W76398  23.580  44.421  14.416
12642W        W76399  26.641  35.033  13.518
12643W        W76400   4.760  18.786   3.724
12644W        W76401  11.789  41.890  11.953
12645W        W76402  22.206  33.441   3.763
12646W        W76403  19.779  24.008   5.239
12647W        W76404   4.423  19.163  13.359
12648W        W76405  29.101   5.832  11.423
12649W        W76406  38.387  25.977   3.306
12650W        W76407  29.517  31.518   4.665
12651W        W76408  40.486  21.735  14.849
12652W        W76409  31.083  14.633  12.879
12653W        W76410  11.632  27.668   2.666
12654W        W76411  20.590  26.078   2.411
12655W        W76412  27.098  36.911  14.970
12656W        W76413  42.833  23.495  13.977
12657W        W76414  16.619  41.372  11.000
12658W        W76415  43.474  30.644  11.911
12659W        W76416   2.326   5.869   2.833
12660W        W76417  10.180  41.388  12.954
12661W        W76418  31.431  14.830   2.251
12662W        W76419   1.865  12.247   2.806
12663W        W76420  27.071  19.688   2.676
12664W        W76421   0.332   5.421   1.278
12665W        W76422  27.512   8.719   3.377
12666W        W76423  24.489  44.753   0.895
12667W        W76424   5.330   7.863   1.407
12668W        W76425   2.301  32.092  11.460
12669W        W76426  14.695  22.098   1.299
12670W        W76427  29.923   1.271  13.534
12671W        W76428  12.764  17.592   4.794
12672W        W76429   2.266  11.777   3.342
12673W        W76430   8.856   5.723  12.939
12674W        W76431  30.419  15.136   0.392
12675W        W76432  15.103  20.525   4.668
12676W        W76433  25.528  17.670  11.019
12677W        W76434  21.034  42.477   1.790
12678W        W76435  40.051  24.551  14.426
12679W        W76436  32.452  32.115  12.444
12680W        W76437  17.724  36.494  11.503
12681W        W76438  12.633   6.874   4.265
12682W        W76439  10.154  26.990   1.792
12683W        W76440  22.232  28.152  13.463
12684W        W76441  37.390  42.018   4.218
12685W        W76442  32.959  10.240   2.297
12686W        W76443  26.475   9.179   3.752
12687W        W76444  15.261  25.072  14.317
12688W        W76445  22.720  29.100   1.910
12689W        W76446   7.232  17.256   3.245
12690W        W76447  31.559  10.316   4.793
12691W        W76448   6.274  18.118   3.635
12692W        W76449  40.015  18.181   0.411
12693W        W76450  33.004   7.393  12.953
12694W        W76451   9.653   9.829  14.445
12695W        W76452  14.636  30.038  14.830
12696W        W76453  32.631  31.633   3.381
12697W        W76454  37.932  25.053   3.245
12698W        W76455  23.613  24.630   3.735
12699W        W76456  29.501  37.936   1.419
12700W        W76457  37.549  29.606   1.345
12701W        W76458  14.263   3.732   0.957
12702W        W76459  24.178  36.451   3.208
12703W        W76460   4.226  32.491  14.329
12704W        W76461  23.176  10.633   0.344
12705W        W76462  13.168  12.767  12.859
12706W        W76463  32.536  23.502   1.248
12707W        W76464   5.734  25.069   4.161
12708W        W76465   6.295  19.554   2.744
12709W        W76466  40.470  35.869   3.314
12710W        W76467   4.846  13.107   1.335
12711W        W76468  23.544  12.231   0.451
12712W        W76469  30.614  31.956   0.740
12713W        W76470  40.814  22.600  14.881
12714W        W76471   6.423  31.077   1.404
12715W        W76472   3.718  35.490   1.256
12716W        W76473  19.258   1.744   1.712
12717W        W76474  16.614   0.851   5.137
12718W        W76475   1.899  24.536   3.167
12719W        W76476  44.455  32.952   1.902
12720W        W76477   9.181  34.435  11.949
12721W        W76478  39.436  25.111   3.630
12722W        W76479   3.929   2.813  11.095
12723W        W76480  40.952  35.904   0.884
12724W        W76481  22.644  13.649  13.865
12725W        W76482  22.210  30.428   3.664
12726W        W76483  19.211   0.742  12.433
12727W        W76484  23.658  41.296   4.288
12728W        W76485  13.168  36.375  11.870
12729W        W76486  22.523   1.941   4.325
12730W        W76487   2.238  26.535   3.691
12731W        W76488  19.582  35.599  10.622
12732W        W76489   9.370  40.035  13.800
12733W        W76490  28.506  18.148  10.601
12734W        W76491  23.507  43.935   0.278
12735W        W76492  11.670   8.822   3.815
12736W        W76493  44.353  25.471   1.280
12737W        W76494  11.806   7.203   3.750
12738W        W76495  32.498  18.573  10.924
12739W        W76496  31.453   0.338   0.388
12740W        W76497  32.928  24.701   1.842
12741W        W76498  39.918  25.105  14.953
12742W        W76499   7.383  11.152  12.890
12743W        W76500  22.715  24.134  14.296
12744W        W76501  39.517  25.571  14.892
12745W        W76502  44.388  36.053   4.755
12746W        W76503  44.866  34.966  12.400
12747W        W76504  18.197  40.822   0.435
12748W        W76505  33.415  17.738   0.910
12749W        W76506  20.685   6.251  11.903
12750W        W76507  36.509  13.114  14.971
12751W        W76508  30.088  18.276   3.230
12752W        W76509  23.986  43.303  13.003
12753W        W76510  32.992  35.958  10.613
12754W        W76511  39.446  24.039   3.342
12755W        W76512   1.946  39.960  13.859
12756W        W76513  30.953   7.267  11.417
12757W        W76514  22.022  38.326  11.506
12758W        W76515  38.437  18.712   2.712
12759W        W76516  22.202   2.373  14.483
12760W        W76517   7.739  27.976   2.827
12761W        W76518   0.274   4.321   0.729
12762W        W76519  14.293  28.051   2.364
12763W        W76520  41.355  19.221  12.078
12764W        W76521  43.868   9.247   4.247
12765W        W76522   2.242  14.659  11.104
12766W        W76523   3.906  39.395   2.889
12767W        W76524  16.182  38.484  12.390
12768W        W76525   8.379  36.964  12.865
12769W        W76526  24.719  25.011  14.934
12770W        W76527  10.867  26.480   0.860
12771W        W76528  34.376   1.474  11.407
12772W        W76529  16.131  35.400  11.386
12773W        W76530  26.153  44.428  11.905
12774W        W76531  37.556  42.030   3.161
12775W        W76532  30.589  35.020  10.959
12776W        W76533   9.325  28.100   2.792
12777W        W76534  23.497  20.553  13.873
12778W        W76535   2.424  28.573  11.056
12779W        W76536  17.074  27.084  10.891
12780W        W76537  27.103  26.566   4.739
12781W        W76538  40.305  18.547   0.435
12782W        W76539  40.316  31.076  14.310
12783W        W76540  42.378  34.036  11.475
12784W        W76541  24.080  20.623  11.536
12785W        W76542  14.660  19.124  12.421
12786W        W76543  32.974  12.851   4.170
12787W        W76544  44.888  11.319   0.288
12788W        W76545  18.593  20.236  11.122
12789W        W76546  41.849  22.521   4.776
12790W        W76547   4.395  39.447  11.034
12791W        W76548  30.517  33.126   1.257
12792W        W76549   8.377  27.535  14.016
12793W        W76550  37.899  29.039  14.300
12794W        W76551  28.930  36.070   4.608
12795W        W76552  15.170  25.695  11.481
12796W        W76553  31.434   6.255   2.886
12797W        W76554  42.283  36.547   2.806
12798W        W76555   6.216  25.005  10.515
12799W        W76556  37.509  31.512  11.948
12800W        W76557  28.103  23.705  11.445
12801W        W76558  33.018  22.530   3.755
12802W        W76559   1.831   2.399  14.275
12803W        W76560  28.056   5.305  11.579
12804W        W76561  38.951  24.679   1.824
12805W        W76562  43.335  11.689  10.528
12806W        W76563  36.488   8.777   3.376
12807W        W76564  21.226  36.853   9.997
12808W        W76565  43.904  19.229   1.335
12809W        W76566  18.082  23.684   3.844
12810W        W76567  10.635   6.341  14.280
12811W        W76568  32.023  39.815   2.335
12812W        W76569   1.796  36.458   4.715
12813W        W76570  42.382  19.116  10.638
12814W        W76571  34.449   2.432   2.342
12815W        W76572  26.005  17.127  10.128
12816W        W76573  11.211  34.042  13.830
12817W        W76574  15.702   4.773  14.404
12818W        W76575   6.902  42.376  12.455
12819W        W76576  18.130  20.166  11.398
12820W        W76577  35.554   1.285  10.520
12821W        W76578  24.560  13.172  12.956
12822W        W76579  27.637  23.091  11.489
12823W        W76580  42.910   7.322  12.078
12824W        W76581  23.707  26.097  12.830
12825W        W76582   9.707  20.628  13.507
12826W        W76583  38.971  19.136   1.418
12827W        W76584  32.995  18.239  14.335
12828W        W76585   4.723  10.194  14.312
12829W        W76586  24.582  37.875   3.704
12830W        W76587  44.842  28.618  12.086
12831W        W76588  40.513  11.631   0.326
12832W        W76589  34.943   3.848   0.827
12833W        W76590  26.613  24.171   5.117
12834W        W76591  20.056  16.206   5.168
12835W        W76592   9.841   5.894   0.729
12836W        W76593  38.491  15.097  11.979
12837W        W76594  17.771  37.980  14.959
12838W        W76595  43.332  33.518   3.857
12839W        W76596   8.812  13.155  12.836
12840W        W76597  25.145  19.740  13.463
12841W        W76598  25.021  21.160  14.788
12842W        W76599  39.981   2.967   1.405
12843W        W76600  21.755  41.901  13.335
12844W        W76601  26.658  28.472  10.571
12845W        W76602  15.710  33.554   0.330
12846W        W76603  20.529  44.431   1.258
12847W        W76604  11.709  17.080   5.202
12848W        W76605  21.518   8.675  11.988
12849W        W76606  10.227  29.134  13.847
12850W        W76607  30.623  29.520   4.673
12851W        W76608   1.445   0.295  13.886
12852W        W76609   1.746  41.303   2.410
12853W        W76610  32.987  33.955  11.468
12854W        W76611  33.932  13.835  10.463
12855W        W76612  12.142  11.801   4.141
12856W        W76613  34.615  17.752  14.475
12857W        W76614  19.281  12.340   4.140
12858W        W76615   5.370   4.813  12.568
12859W        W76616  27.595  37.897   0.924
12860W        W76617  33.895  44.472   1.273
12861W        W76618  11.688  17.796   2.322
12862W        W76619  19.623   5.308   2.326
12863W        W76620  18.291  38.452  14.483
12864W        W76621   3.305  41.354   4.239
12865W        W76622   1.281  39.334   4.824
12866W        W76623  43.014   9.778  12.510
12867W        W76624  44.897   2.956  12.031
12868W        W76625  24.527   5.693   2.886
12869W        W76626  14.818  10.824   2.271
12870W        W76627  34.024  26.209   2.276
12871W        W76628  14.333  19.118  14.516
12872W        W76629   6.684  10.138   0.941
12873W        W76630  38.481  17.718  13.845
12874W        W76631  24.585   5.220  10.428
12875W        W76632  13.228  36.385   4.227
12876W        W76633  29.016  37.487  13.858
12877W        W76634   9.881  19.218  10.553
12878W        W76635  18.158   4.221   3.728
12879W        W76636  33.549  43.829   4.209
12880W        W76637  42.306  40.936   4.610
12881W        W76638  12.614  32.953   2.353
12882W        W76639  15.227  41.906  11.526
12883W        W76640   5.764  21.673   3.828
12884W        W76641   7.340  40.842  12.490
12885W        W76642  26.468  30.578  10.440
12886W        W76643  41.995  38.869   0.862
12887W        W76644  30.586   4.368   1.306
12888W        W76645   5.729  20.612   1.845
12889W        W76646  38.495  44.289  11.514
12890W        W76647  21.575  17.687  14.854
12891W        W76648  23.648  13.610   1.442
12892W        W76649  36.536  23.732   2.898
12893W        W76650   9.296  17.200  14.765
12894W        W76651  32.056  25.976  13.358
12895W        W76652  37.970  43.451  13.977
12896W        W76653  34.595  36.053  13.372
12897W        W76654  24.505  38.435  14.769
12898W        W76655   9.769  17.631   2.731
12899W        W76656  38.008   0.886   3.849
12900W        W76657  11.129  27.000   0.446
12901W        W76658   5.303   5.375  14.471
12902W        W76659  30.125  11.164  11.105
12903W        W76660  37.486  11.722  13.817
12904W        W76661   6.393  37.062  12.542
12905W        W76662   8.897  28.175  11.552
12906W        W76663   1.835  13.258   0.732
12907W        W76664  27.674  22.634  13.521
12908W        W76665  11.257  30.056  13.401
12909W        W76666  22.501  17.193   2.886
12910W        W76667  18.063  14.171   2.185
12911W        W76668  14.112  36.422   5.200
12912W        W76669  40.504  20.186   4.352
12913W        W76670  34.387  21.531   1.219
12914W        W76671  32.619   5.867   0.391
12915W        W76672  37.840  41.381   1.244
12916W        W76673  15.215   1.409   2.280
12917W        W76674  11.739   8.319  11.424
12918W        W76675   6.299  17.736  11.978
12919W        W76676  39.340  22.663  14.983
12920W        W76677   0.267  41.022  11.432
12921W        W76678  41.398  13.752   1.930
12922W        W76679   6.291  10.834  12.860
12923W        W76680   7.776   2.862  14.508
12924W        W76681  41.342  43.936  13.378
12925W        W76682   6.867  43.926  11.398
12926W        W76683  21.512   2.876   0.894
12927W        W76684  14.244  28.991   3.666
12928W        W76685  24.139   6.765   0.402
12929W        W76686  23.601  19.158   3.758
12930W        W76687  27.158  28.957  10.562
12931W        W76688  12.844  13.160   4.683
12932W        W76689  13.253  20.582  10.526
12933W        W76690  36.453  44.270  10.058
12934W        W76691  41.953  17.111   2.823
12935W        W76692  27.472   6.759  10.636
12936W        W76693  29.098  44.302   1.844
12937W        W76694  36.993  20.562   0.740
12938W        W76695  20.704  29.157  11.597
12939W        W76696  30.438  10.139   0.881
12940W        W76697  32.602  22.563   3.787
12941W        W76698   0.404  29.463   3.256
12942W        W76699  39.888  17.203  12.462
12943W        W76700   9.878  31.144   1.805
12944W        W76701  23.179  42.947   5.294
12945W        W76702  28.023  27.620   3.361
12946W        W76703  15.304  17.656  13.997
12947W        W76704  38.429  42.882  10.528
12948W        W76705  15.587   2.789  11.537
12949W        W76706  14.673  32.575  10.627
12950W        W76707  29.584   6.884   0.242
12951W        W76708  16.145  32.957   0.471
12952W        W76709   1.822   6.776   3.695
12953W        W76710  40.040  19.613  14.454
12954W        W76711  28.930  34.552  14.325
12955W        W76712   1.381  43.879  10.981
12956W        W76713  36.379   8.211  12.378
12957W        W76714  43.021   9.648   3.810
12958W        W76715   2.821   9.284  10.589
12959W        W76716  20.154   3.346  13.339
12960W        W76717   8.656   7.380   1.309
12961W        W76718  21.253  34.388  11.040
12962W        W76719  32.932  22.007  13.849
12963W        W76720   3.251  11.723  13.997
12964W        W76721   8.734  23.005   0.482
12965W        W76722  25.469   0.267   3.266
12966W        W76723   6.712  25.579   0.928
12967W        W76724   3.921  23.119   0.874
12968W        W76725  12.810  27.105   4.179
12969W        W76726  15.186  34.923  10.931
12970W        W76727  18.103   8.391   0.937
12971W        W76728  40.316  22.083   0.422
12972W        W76729  11.329   6.364   0.317
12973W        W76730  30.080  37.068   1.328
12974W        W76731   0.269   3.789   4.178
12975W        W76732   0.409  26.456   0.922
12976W        W76733  13.643  41.468  13.387
12977W        W76734  39.377   2.836  12.009
12978W        W76735  24.050  32.032  13.792
12979W        W76736  11.817  44.412  10.560
12980W        W76737  27.974  18.111  13.391
12981W        W76738  36.959  11.280   3.831
12982W        W76739   5.335  43.362  13.846
12983W        W76740  38.358  25.975   4.678
12984W        W76741  25.214  20.132   0.820
12985W        W76742  30.659  20.247  11.858
12986W        W76743   5.733  17.678  10.473
12987W        W76744  33.442  16.140   4.264
12988W        W76745  23.224  34.934   9.525
12989W        W76746  12.678   9.706  14.906
12990W        W76747  24.056   7.733   0.921
12991W        W76748  27.620  24.508  13.927
12992W        W76749   0.369  30.142   4.344
12993W        W76750  31.963  21.084  12.462
12994W        W76751   6.251  36.465   3.309
12995W        W76752  10.747  36.993   2.754
12996W        W76753  44.880  31.496   1.368
12997W        W76754   4.413  40.403  13.968
12998W        W76755   3.780   1.413  11.375
12999W        W76756  36.387  15.803   0.410
13000W        W76757  37.523  24.206   2.344
13001W        W76758  44.863  19.619  14.005
13002W        W76759  11.850  11.285  14.471
13003W        W76760  35.953   4.291   1.850
13004W        W76761  20.170  28.450  13.810
13005W        W76762  41.936  25.178  12.904
13006W        W76763  23.642  39.450   3.638
13007W        W76764   6.915  19.759  11.979
13008W        W76765  20.617  43.412   2.375
13009W        W76766  22.154  27.483   1.900
13010W        W76767  13.697  36.046  14.306
13011W        W76768  14.668  31.112  11.916
13012W        W76769   7.820  22.576   4.249
13013W        W76770  41.941   5.381   1.371
13014W        W76771   4.880  28.127  11.570
13015W        W76772  23.586  21.049  12.966
13016W        W76773  43.773  10.711   2.393
13017W        W76774  39.520   9.817   3.651
13018W        W76775   3.897  42.973   1.906
13019W        W76776  43.430  34.390   5.307
13020W        W76777  23.565  42.288   2.309
13021W        W76778  16.655  30.598  13.991
13022W        W76779   7.852   6.227   1.351
13023W        W76780   0.427  12.757   1.309
13024W        W76781  33.965  14.274  14.351
13025W        W76782  42.994  15.710  13.396
13026W        W76783  42.866  27.537  13.023
13027W        W76784  22.063   4.297   2.235
13028W        W76785  30.973  24.160  14.968
13029W        W76786  15.164  27.596   1.751
13030W        W76787   5.407  43.498  11.457
13031W        W76788  20.731  33.573   3.178
13032W        W76789  37.838   4.722  14.448
13033W        W76790  37.043  20.073  12.493
13034W        W76791  16.166  44.854  10.918
13035W        W76792  16.725  11.268  10.540
13036W        W76793  37.992  22.573  11.855
13037W        W76794  28.006  17.152  10.920
13038W        W76795  12.278  30.512   3.262
13039W        W76796   2.773  26.535   1.396
13040W        W76797  37.907  37.487  14.015
13041W        W76798  36.857   3.406   1.285
13042W        W76799  37.972  43.494  11.490
13043W        W76800  10.859  16.219  10.409
13044W        W76801  32.456   2.808   2.699
13045W        W76802   1.400  37.572  13.372
13046W        W76803  34.030  13.658  11.107
13047W        W76804  37.848  27.190  10.936
13048W        W76805  25.213  19.682   3.197
13049W        W76806  28.600  10.151  11.871
13050W        W76807  22.677  43.852   0.469
13051W        W76808  44.783   1.278   0.287
13052W        W76809   4.887   3.310  10.143
13053W        W76810  39.846  36.010   4.199
13054W        W76811  37.545  28.571   4.235
13055W        W76812  12.691  21.188  14.503
13056W        W76813  32.026  16.295   1.758
13057W        W76814  16.672   2.807  14.349
13058W        W76815  11.350  23.053   0.959
13059W        W76816  24.145   1.928  10.448
13060W        W76817  34.963  13.234   1.753
13061W        W76818  24.697  33.948  13.406
13062W        W76819  33.602   2.724  13.333
13063W        W76820   1.254  30.093   3.166
13064W        W76821  30.625   3.227  11.122
13065W        W76822  32.448  31.970   2.824
13066W        W76823  40.911  12.626  10.928
13067W        W76824  14.710  40.927  14.418
13068W        W76825  21.632  37.844   5.751
13069W        W76826  20.611   9.270   2.223
13070W        W76827  18.185  38.421   2.240
13071W        W76828  30.537  29.144   2.335
13072W        W76829  43.430  25.151   2.362
13073W        W76830  39.838  25.611  10.437
13074W        W76831  36.929  22.736  14.836
13075W        W76832  32.422  35.403  12.450
13076W        W76833  15.223   5.933  10.920
13077W        W76834  37.379  43.874   3.810
13078W        W76835  13.171  16.794   3.159
13079W        W76836   0.488   1.924   0.938
13080W        W76837  36.079   0.864  10.085
13081W        W76838  20.222  12.753   1.734
13082W        W76839  40.382  38.887   2.179
13083W        W76840  37.838  29.985  12.413
13084W        W76841  28.009  42.835   4.781
13085W        W76842  44.967  28.446  13.056
13086W        W76843   9.834  26.130  11.911
13087W        W76844  33.989  42.803   2.898
13088W        W76845   2.286  22.664  13.386
13089W        W76846  32.023  37.946  14.834
13090W        W76847  42.927  17.770  14.512
13091W        W76848  42.501  23.677   1.263
13092W        W76849  20.126  17.184  11.589
13093W        W76850  16.309  24.519   0.391
13094W        W76851  25.182  24.096   3.745
13095W        W76852  28.171   4.795  12.383
13096W        W76853   7.241  38.936   3.236
13097W        W76854  42.482  18.589  12.497
13098W        W76855   3.251  12.177   0.940
13099W        W76856  44.285  28.567   4.770
13100W        W76857  12.847  11.748  14.802
13101W        W76858  13.234  16.809  10.430
13102W        W76859   4.405  18.727   0.735
13103W        W76860  35.921  39.044  11.437
13104W        W76861  11.775  15.272  13.397
13105W        W76862  17.657   4.371  13.994
13106W        W76863  18.293  22.062  14.423
13107W        W76864  24.527  37.559   1.447
13108W        W76865  24.193  12.116   3.650
13109W        W76866   0.910   5.434   3.371
13110W        W76867  39.419  42.380  11.411
13111W        W76868  41.407  44.436  13.505
13112W        W76869  24.718  25.069  12.417
13113W        W76870  18.774  37.575  13.455
13114W        W76871  34.548  15.121  11.053
13115W        W76872  19.247   5.763   1.344
13116W        W76873   7.257  13.284   2.700
13117W        W76874  17.277  32.887   2.870
13118W        W76875  10.843  28.495  11.452
13119W        W76876  24.622  37.386  12.848
13120W        W76877  10.831  35.530  10.428
13121W        W76878  30.051  16.251  14.304
13122W        W76879  35.469  23.217  14.399
13123W        W76880  38.396   0.326   3.630
13124W        W76881  19.068  30.488  11.928
13125W        W76882   6.803  13.190   0.829
13126W        W76883   2.845  41.483   2.718
13127W        W76884   0.464  34.388  13.397
13128W        W76885  17.705  32.931  14.929
13129W        W76886   6.861  13.293  14.507
13130W        W76887   4.423   9.875  11.018
13131W        W76888  31.425  32.111   4.125
13132W        W76889  32.987  36.024   1.221
13133W        W76890  33.576  24.007  14.356
13134W        W76891   2.863  17.242   3.184
13135W        W76892  16.702  26.021  11.972
13136W        W76893  13.246   6.336  14.407
13137W        W76894  41.379  37.889  14.342
13138W        W76895  14.316  25.204  14.812
13139W        W76896  33.436  12.684   9.998
13140W        W76897  16.311  10.780  10.414
13141W        W76898  13.715  32.505   0.859
13142W        W76899   6.785  20.585   1.362
13143W        W76900  41.391   1.339   3.708
13144W        W76901   4.703  31.029  14.344
13145W        W76902  32.444  32.967  12.823
13146W        W76903  18.663  43.838  12.497
13147W        W76904   3.932   7.213   4.149
13148W        W76905  21.522  28.662   0.967
13149W        W76906  37.888  10.798   0.741
13150W        W76907  21.239  25.971  10.934
13151W        W76908  30.578  15.155  14.025
13152W        W76909   2.421  11.194  11.105
13153W        W76910  43.808  18.788  12.026
13154W        W76911  21.704  16.124  13.390
13155W        W76912  30.159  15.184   1.751
13156W        W76913   9.739   2.371  13.484
13157W        W76914  39.316   1.363  14.853
13158W        W76915  44.320   3.366  12.559
13159W        W76916  13.837  20.597   4.694
13160W        W76917  36.460  17.573  10.613
13161W        W76918  40.842  13.114  12.048
13162W        W76919  27.077  20.596   0.353
13163W        W76920  20.651  19.710  12.457
13164W        W76921   5.812  42.289   0.279
13165W        W76922  31.515  19.270   4.256
13166W        W76923  43.356  29.659   1.888
13167W        W76924   8.231  15.577   0.726
13168W        W76925  38.478  18.153  11.987
13169W        W76926   2.766  25.702   4.643
13170W        W76927   4.935  19.734   4.191
13171W        W76928  37.894  10.324   2.874
13172W        W76929  40.871  22.504   2.774
13173W        W76930  28.581  13.785   2.884
13174W        W76931   2.805   7.895   1.713
13175W        W76932   9.338  42.022   0.266
13176W        W76933  13.775   7.197   4.789
13177W        W76934   8.734  39.551   4.150
13178W        W76935  20.563   8.753  12.918
13179W        W76936  34.532   7.265  11.593
13180W        W76937  32.109  23.728   3.207
13181W        W76938  26.632   6.811   2.775
13182W        W76939  39.042  12.631  13.040
13183W        W76940  39.968  31.103  14.893
13184W        W76941  33.517  23.621   1.366
13185W        W76942   3.243  32.561   2.898
13186W        W76943   7.368   0.306  13.505
13187W        W76944  19.613  22.010   1.383
13188W        W76945   6.208  16.214  13.313
13189W        W76946  43.345  42.820  14.786
13190W        W76947   5.251  16.117   1.272
13191W        W76948  41.508  27.491   1.311
13192W        W76949  37.337  17.753  13.984
13193W        W76950  26.687  23.693   1.818
13194W        W76951  23.582  30.101  11.601
13195W        W76952  12.659  16.718  11.437
13196W        W76953  29.492   0.748  12.362
13197W        W76954   1.751  31.436  12.452
13198W        W76955  31.048  25.636   1.867
13199W        W76956  30.033   0.942  13.545
13200W        W76957   7.305  27.683   1.822
13201W        W76958  16.783  12.662   2.328
13202W        W76959  25.655  18.271   3.758
13203W        W76960  44.292  15.199   1.719
13204W        W76961  44.259  15.279   0.952
13205W        W76962  15.586  36.479  12.578
13206W        W76963  30.922  41.958   1.735
13207W        W76964  37.954  29.544  12.368
13208W        W76965  28.079   1.439  13.480
13209W        W76966   8.389  27.107   4.177
13210W        W76967  41.965  31.549  11.015
13211W        W76968   8.210  13.638   1.212
13212W        W76969  40.512  17.560   4.771
13213W        W76970  33.877  32.399   2.272
13214W        W76971  40.839  43.967   2.192
13215W        W76972   5.836  29.608   0.805
13216W        W76973  14.814  23.090   2.249
13217W        W76974  35.937  44.392   3.833
13218W        W76975   3.436  32.031   2.220
13219W        W76976  42.400  13.118  13.372
13220W        W76977  39.061  11.339   3.328
13221W        W76978  38.457  38.067   4.772
13222W        W76979  16.731   4.818  12.873
13223W        W76980  15.299  37.578   4.193
13224W        W76981  12.707  24.517   1.254
13225W        W76982  12.232   8.279   1.269
13226W        W76983  36.394  17.175   2.812
13227W        W76984  29.977   0.384  12.573
13228W        W76985  17.222  43.421   4.836
13229W        W76986  34.370  18.736   1.811
13230W        W76987  44.005  16.755   2.804
13231W        W76988  36.091  19.249  14.482
13232W        W76989  24.007   2.787  13.866
13233W        W76990  36.922  19.086  13.521
13234W        W76991  36.020   7.236   4.775
13235W        W76992  17.297  20.066   0.338
13236W        W76993  37.435   7.761  11.512
13237W        W76994  20.030  36.561  14.939
13238W        W76995  32.927   9.841  13.847
13239W        W76996  23.125   2.898   1.806
13240W        W76997  40.007  23.529  10.625
13241W        W76998  20.260  32.394   1.400
13242W        W76999   3.828  15.173  12.854
13243W        W77000  21.555  32.414  10.991
13244W        W77001  43.014  40.838   1.762
13245W        W77002  12.176   1.346  14.471
13246W        W77003   1.262  28.505  11.560
13247W        W77004  22.135   1.444   3.321
13248W        W77005   6.795  36.405  13.490
13249W        W77006   3.294   2.379  12.456
13250W        W77007  42.345   3.844   4.218
13251W        W77008  26.990   1.285  10.449
13252W        W77009  20.097  34.493   0.835
13253W        W77010   8.301   7.338   0.408
13254W        W77011  38.350  17.636   4.627
13255W        W77012  20.182   1.318  11.409
13256W        W77013  42.378  15.746   3.640
13257W        W77014  13.790  29.033   1.399
13258W        W77015  17.698   8.709   2.800
13259W        W77016  16.265  21.547  10.446
13260W        W77017  23.118  34.472   4.237
13261W        W77018  39.813  33.595   4.619
13262W        W77019  15.237  31.140  13.821
13263W        W77020  39.512   9.372  10.549
13264W        W77021  44.421   0.263  11.592
13265W        W77022  37.923   5.927   3.820
13266W        W77023  41.042  17.185   4.703
13267W        W77024  34.975  16.695  14.436
13268W        W77025  31.541  35.423   2.386
13269W        W77026  33.526  13.840   1.917
13270W        W77027  15.312  23.547  11.980
13271W        W77028  38.976   8.287  10.455
13272W        W77029   5.402  34.059  13.424
13273W        W77030  21.129  21.661   1.801
13274W        W77031   8.755  35.514   3.828
13275W        W77032  13.159   3.319  12.012
13276W        W77033  11.274   0.369  13.368
13277W        W77034  35.475  25.066  13.947
13278W        W77035  42.887  21.082   5.192
13279W        W77036   5.737  15.284  11.941
13280W        W77037  44.816  37.077   4.773
13281W        W77038  16.567  27.469  13.926
13282W        W77039  43.310  11.808   1.212
13283W        W77040  41.895  11.275   0.252
13284W        W77041  22.241  44.318   0.735
13285W        W77042  44.846   5.761  13.475
13286W        W77043  14.660   8.339  13.543
13287W        W77044  44.331   8.176   1.293
13288W        W77045   2.323  32.637  12.521
13289W        W77046   2.281  31.461  10.921
13290W        W77047   6.350   5.922  14.329
13291W        W77048  22.524  15.823   1.891
13292W        W77049   5.322  34.879  13.807
13293W        W77050  41.864  42.445  14.327
13294W        W77051  17.161  19.581   4.724
13295W        W77052  17.665  28.154   2.280
13296W        W77053  24.140  15.779  13.810
13297W        W77054  16.268  29.531  10.925
13298W        W77055  17.620  29.009  12.904
13299W        W77056  41.998  37.901   2.739
13300W        W77057  14.683  43.944   3.190
13301W        W77058  20.080   7.901   2.333
13302W        W77059  30.984  44.276  14.842
13303W        W77060  26.573   3.288   4.746
13304W        W77061  36.929  28.047   1.738
13305W        W77062  31.014  10.177  10.509
13306W        W77063   7.785   6.777  12.900
13307W        W77064  21.530  31.070   2.306
13308W        W77065  13.661  21.539  14.973
13309W        W77066  11.329  38.021  12.919
13310W        W77067   6.280  31.036  14.468
13311W        W77068  24.573  43.976  12.048
13312W        W77069  22.167  20.599  14.814
13313W        W77070  12.813  13.630  13.523
13314W        W77071  41.980  39.512   1.870
13315W        W77072  42.865   1.919   4.315
13316W        W77073   1.475  25.697   3.360
13317W        W77074  19.196  42.434   2.765
13318W        W77075  13.232   4.294  14.361
13319W        W77076  23.002  39.916   1.304
13320W        W77077  35.523  31.986   4.768
13321W        W77078  15.233  34.556  10.508
13322W        W77079  29.575  27.169   1.369
13323W        W77080  10.349   8.849  13.460
13324W        W77081  21.617   0.477  10.991
13325W        W77082  18.695  33.591   0.424
13326W        W77083  23.521   7.711  11.941
13327W        W77084  28.110  39.507  11.126
13328W        W77085  13.796  23.591  11.521
13329W        W77086  19.138  36.368  12.381
13330W        W77087  39.023   0.451  11.054
13331W        W77088  39.869   6.211   3.848
13332W        W77089  11.295  40.460   3.819
13333W        W77090  37.054  23.012  12.466
13334W        W77091  13.661  32.582  14.855
13335W        W77092  10.655  16.072  12.973
13336W        W77093  12.249  10.738   1.933
13337W        W77094  39.875  21.589   3.664
13338W        W77095   9.850  39.522   3.723
13339W        W77096  40.053  16.667  11.374
13340W        W77097   2.899   1.861   2.245
13341W        W77098   2.733  44.300   1.254
13342W        W77099  39.844  13.807  13.509
13343W        W77100  33.447  23.639  10.088
13344W        W77101  22.024  34.891  11.951
13345W        W77102  12.308   4.806  12.935
13346W        W77103  24.700  25.535  13.389
13347W        W77104   9.843  34.025   4.234
13348W        W77105   4.405  14.229  12.363
13349W        W77106  38.344  22.165  12.022
13350W        W77107  37.864  10.277   2.284
13351W        W77108  10.821  35.487   3.330
13352W        W77109  28.671  16.669  12.091
13353W        W77110  27.003  14.251   4.248
13354W        W77111  27.590  31.035  12.540
13355W        W77112  44.961  42.290  12.831
13356W        W77113  43.782  31.069  12.862
13357W        W77114  23.165   5.821  11.442
13358W        W77115  10.336  41.818   5.114
13359W        W77116  43.452   4.212  13.896
13360W        W77117  37.404  41.848   5.207
13361W        W77118  34.089  29.121  12.088
13362W        W77119  20.700  38.433   1.848
13363W        W77120  27.184   6.279   0.773
13364W        W77121  29.065  16.092  12.553
13365W        W77122  43.375  32.402   3.670
13366W        W77123  43.993  43.400   4.198
13367W        W77124   4.395  12.263   1.311
13368W        W77125  13.138  29.583   4.676
13369W        W77126  15.178  38.916  14.941
13370W        W77127  43.417  41.873   2.845
13371W        W77128  11.683  14.094  12.939
13372W        W77129  11.791  35.442   2.182
13373W        W77130  19.234  18.130  11.984
13374W        W77131  19.072   6.694  14.765
13375W        W77132  40.429   1.786  11.982
13376W        W77133   8.363  43.977   4.740
13377W        W77134  19.710   0.888  10.627
13378W        W77135   6.356  12.660   2.253
13379W        W77136  37.928  20.541   2.180
13380W        W77137  27.551  19.551   3.201
13381W        W77138  39.472  25.969  11.895
13382W        W77139  28.459   6.825   0.926
13383W        W77140  41.902   6.682   1.896
13384W        W77141   8.819  24.085   2.256
13385W        W77142  13.624   6.420  13.498
13386W        W77143  33.890  27.120   1.448
13387W        W77144  33.120  31.007  14.882
13388W        W77145   0.776  15.719  13.506
13389W        W77146   2.330  43.830  14.006
13390W        W77147   1.412   8.682  14.971
13391W        W77148   3.710  21.632   2.897
13392W        W77149   7.741  37.019   3.288
13393W        W77150   5.239  12.312   2.328
13394W        W77151  19.719  42.948  12.960
13395W        W77152  38.554  12.206   4.239
13396W        W77153  30.922  15.092  12.934
13397W        W77154  22.081  44.927   4.616
13398W        W77155  30.561  42.856   3.868
13399W        W77156   2.365  18.073   5.101
13400W        W77157  33.057   7.286  11.441
13401W        W77158  14.208  23.661  12.049
13402W        W77159  14.273  12.154   4.130
13403W        W77160  40.426  10.771   2.410
13404W        W77161  30.131  19.048  13.030
13405W        W77162  42.474  29.425   1.814
13406W        W77163  21.585   1.887  14.001
13407W        W77164  32.601  38.444   1.398
13408W        W77165  40.370  37.894  12.997
13409W        W77166  35.364  30.531   3.780
13410W        W77167  10.730  17.166   1.265
13411W        W77168  17.709  30.649   2.776
13412W        W77169  27.507  44.761  12.552
13413W        W77170  36.403  13.305  11.425
13414W        W77171  41.971  29.466  11.928
13415W        W77172  21.150   8.386   3.305
13416W        W77173  43.392  22.150  13.040
13417W        W77174  39.500  32.131  11.596
13418W        W77175  10.369   9.253  12.398
13419W        W77176   7.296  21.255  14.279
13420W        W77177  33.517   0.770   2.703
13421W        W77178  26.973  28.464  14.369
13422W        W77179  41.904  41.814   3.374
13423W        W77180  43.464  42.980  10.963
13424W        W77181  34.877  29.062   4.714
13425W        W77182   7.900  39.455  12.565
13426W        W77183  32.425  15.262  14.015
13427W        W77184   7.220   5.857  12.858
13428W        W77185  44.855  14.632  12.840
13429W        W77186   8.656  26.526   2.739
13430W        W77187  36.992  17.218  10.920
13431W        W77188  24.141  22.054  12.078
13432W        W77189  18.620   6.423   2.874
13433W        W77190  28.450  20.227  12.874
13434W        W77191  22.190  10.348   2.767
13435W        W77192  14.700  37.074   3.762
13436W        W77193  31.448  42.391  12.579
13437W        W77194   6.745  22.706  10.989
13438W        W77195   2.949  27.173   2.344
13439W        W77196  16.118  39.919  14.930
13440W        W77197  28.664  29.075  14.790
13441W        W77198  39.443   4.745   0.245
13442W        W77199  41.333  34.547   0.960
13443W        W77200  39.328  38.368  12.031
13444W        W77201  34.368   9.361   3.749
13445W        W77202  31.140  26.951   2.704
13446W        W77203  41.873   5.704  11.609
13447W        W77204  24.714   6.814  13.372
13448W        W77205   6.339  11.751  11.524
13449W        W77206  42.892  20.053   5.265
13450W        W77207  29.515  21.669   0.377
13451W        W77208  16.773  23.114   0.449
13452W        W77209   0.476  18.090   4.615
13453W        W77210  13.190  17.162   3.731
13454W        W77211  14.801  13.664  14.368
13455W        W77212   0.778  34.574  14.922
13456W        W77213   2.282  12.163  13.946
13457W        W77214  12.347  32.543  12.908
13458W        W77215  39.417  35.577   4.814
13459W        W77216  43.503  11.844  13.799
13460W        W77217  21.240  35.096  13.467
13461W        W77218   4.926  38.402  14.007
13462W        W77219  13.263   3.444  11.054
13463W        W77220  31.622   2.310   2.793
13464W        W77221  38.047  25.196   2.705
13465W        W77222  20.591  36.554   3.156
13466W        W77223   8.716  32.415   2.290
13467W        W77224  30.477  39.375   1.277
13468W        W77225  13.255  42.338  11.865
13469W        W77226  29.494  44.315  14.450
13470W        W77227  41.373  28.021   3.782
13471W        W77228  29.644   9.816   4.171
13472W        W77229   9.857  34.568   2.377
13473W        W77230   7.884  43.910  12.832
13474W        W77231  30.095   3.362  10.938
13475W        W77232  30.995  18.253   3.864
13476W        W77233   4.744  31.413   3.211
13477W        W77234  44.294  25.128  13.927
13478W        W77235  17.570  27.032   3.228
13479W        W77236  24.598  40.390  14.498
13480W        W77237  14.337  14.733   4.162
13481W        W77238  12.141  23.135   1.413
13482W        W77239   8.360  42.406   3.713
13483W        W77240  22.708  33.535  11.583
13484W        W77241  29.451  31.909   3.267
13485W        W77242   4.838  27.647  13.935
13486W        W77243  41.881  34.080   1.717
13487W        W77244   2.257  21.632  11.611
13488W        W77245  29.489  38.824   2.807
13489W        W77246  23.232  41.403  12.903
13490W        W77247   1.247  11.676   4.174
13491W        W77248  15.298   1.978  10.433
13492W        W77249   7.822  22.249  14.026
13493W        W77250  21.071  29.473  12.989
13494W        W77251  35.919   1.899  13.928
13495W        W77252  29.949   6.358  14.788
13496W        W77253  39.866  11.688   0.948
13497W        W77254  17.218  30.032  12.426
13498W        W77255  27.079  36.411   4.198
13499W        W77256  26.585  13.320   0.788
13500W        W77257  22.672   9.303   3.169
13501W        W77258  36.464  32.423  12.088
13502W        W77259  21.623  30.954  11.994
13503W        W77260   1.884   1.894  13.895
13504W        W77261  32.982  14.737  11.465
13505W        W77262   6.699  19.163  10.449
13506W        W77263  34.462  24.169   3.220
13507W        W77264  19.263   3.720   1.263
13508W        W77265   2.799   3.848   2.778
13509W        W77266  35.962  19.224  11.467
13510W        W77267  26.700  37.061  11.974
13511W        W77268  38.922  39.427   2.368
13512W        W77269  42.786   2.949   2.346
13513W        W77270  12.842   1.770  13.925
13514W        W77271   8.216  16.251   4.232
13515W        W77272  32.958  44.909   4.836
13516W        W77273   5.370  14.808   4.243
13517W        W77274  20.140  14.834   2.364
13518W        W77275  35.018  30.570  10.550
13519W        W77276  36.391  21.550   4.354
13520W        W77277  30.074   5.895   2.900
13521W        W77278  35.050  35.376  14.964
13522W        W77279  24.008  38.456   3.844
13523W        W77280  30.599   9.679  11.459
13524W        W77281   5.217  33.544   1.370
13525W        W77282  23.525   6.741  13.525
13526W        W77283  20.760  23.066   1.282
13527W        W77284  36.451   6.352  13.832
13528W        W77285   0.882  41.828   0.773
13529W        W77286  11.208   7.276  14.764
13530W        W77287   2.941  35.878  11.539
13531W        W77288   9.385  23.021   0.408
13532W        W77289  13.805   2.265   3.689
13533W        W77290  30.622  22.086  12.379
13534W        W77291  33.967  43.497  14.032
13535W        W77292  10.278   6.350  14.962
13536W        W77293  44.287  43.907   2.381
13537W        W77294  40.921   8.298   4.119
13538W        W77295  29.514  15.228   1.238
13539W        W77296  31.590  11.827   2.375
13540W        W77297  19.231   4.412  13.962
13541W        W77298  12.278  14.275   4.709
13542W        W77299  28.047  33.092  11.086
13543W        W77300  27.464  16.760  11.372
13544W        W77301  21.205  36.446  10.907
13545W        W77302  40.028  20.670   2.818
13546W        W77303  21.564  31.471   1.787
13547W        W77304  10.151   8.858  12.997
13548W        W77305   9.700  40.902  12.081
13549W        W77306   9.221  32.601  14.014
13550W        W77307  36.530   1.365  12.497
13551W        W77308  28.146   0.272   0.366
13552W        W77309  30.469  21.033   4.751
13553W        W77310   1.954  44.297   1.422
13554W        W77311  32.542  43.985   2.231
13555W        W77312  14.276  24.190   0.738
13556W        W77313  16.613  35.395  10.906
13557W        W77314  43.274   2.790  13.895
13558W        W77315   4.805  38.075  11.576
13559W        W77316   4.699   5.719   4.135
13560W        W77317  34.975   2.787   2.375
13561W        W77318   9.847   3.913   0.924
13562W        W77319   3.436   7.247   2.666
13563W        W77320  27.060  30.545   5.135
13564W        W77321   9.871   5.813  10.531
13565W        W77322  20.629  26.643   9.959
13566W        W77323  34.380  42.892   1.275
13567W        W77324  22.517  34.596   2.838
13568W        W77325  30.031  28.480  13.915
13569W        W77326  10.751   5.856   3.704
13570W        W77327  12.801   0.391   5.205
13571W        W77328  18.612  27.582   4.246
13572W        W77329  33.112   8.194   3.376
13573W        W77330  25.605  33.622  12.489
13574W        W77331   8.208  41.990   0.853
13575W        W77332  14.229   8.283   2.351
13576W        W77333   1.913   7.696  13.846
13577W        W77334  10.231  41.446   0.907
13578W        W77335  25.543   2.457   4.790
13579W        W77336  10.153  38.836  11.409
13580W        W77337  24.645  20.069  11.565
13581W        W77338   5.890  24.542  12.551
13582W        W77339  20.091  29.128  12.412
13583W        W77340  10.656  16.659  11.978
13584W        W77341  43.334  42.951   1.903
13585W        W77342  12.843   9.275   1.393
13586W        W77343  19.651  35.889  10.487
13587W        W77344  11.806  12.159  14.897
13588W        W77345  39.034  22.666   1.364
13589W        W77346   9.234  32.045   3.279
13590W        W77347  37.872  39.441   3.223
13591W        W77348  14.310   1.953   1.749
13592W        W77349   0.794  25.193  14.476
13593W        W77350  19.168  21.084  13.439
13594W        W77351  26.013   6.326   3.782
13595W        W77352   2.890  19.111  11.121
13596W        W77353  23.127  17.071  12.069
13597W        W77354  32.433   1.308   0.303
13598W        W77355  17.295  39.823   0.278
13599W        W77356  42.876  31.540  14.887
13600W        W77357  36.355  24.492   2.393
13601W        W77358  10.872  13.786  11.472
13602W        W77359  26.507  40.375  10.431
13603W        W77360   1.948  24.593  13.913
13604W        W77361  29.531  12.788  13.440
13605W        W77362   5.909  26.642   3.769
13606W        W77363  44.906  34.026   2.286
13607W        W77364  36.513   9.324  10.605
13608W        W77365   3.254  29.543   0.326
13609W        W77366  44.427  33.014   4.125
13610W        W77367   6.898  35.480   2.797
13611W        W77368  37.998  27.969   4.279
13612W        W77369  41.928  42.942   3.315
13613W        W77370   9.191  23.211   4.341
13614W        W77371  32.442  41.373  12.478
13615W        W77372  20.720  27.464  13.510
13616W        W77373  38.404  40.811   2.894
13617W        W77374  18.731   4.339  12.882
13618W        W77375  33.095   1.910   5.116
13619W        W77376  22.024   7.748  11.122
13620W        W77377  18.119   0.478   2.703
13621W        W77378  17.288  14.283   3.664
13622W        W77379  10.717  23.164   0.369
13623W        W77380  22.064   4.860  14.317
13624W        W77381  25.656  15.753  14.419
13625W        W77382   3.770   3.888  11.895
13626W        W77383   9.832   2.823   0.318
13627W        W77384  35.546   6.860   0.468
13628W        W77385  14.645  25.610   0.292
13629W        W77386  14.135  17.690   4.148
13630W        W77387  31.143  30.036   1.297
13631W        W77388  25.589   9.875   1.835
13632W        W77389  25.711  12.272  14.869
13633W        W77390  11.331  26.692   4.808
13634W        W77391  44.988  36.054  11.875
13635W        W77392  32.038  39.526   3.329
13636W        W77393   8.862  40.911  10.152
13637W        W77394  26.656   8.706   5.289
13638W        W77395  20.634  40.050   2.255
13639W        W77396  17.769  26.172  14.320
13640W        W77397  25.148  23.131   0.947
13641W        W77398  22.570  19.053  13.353
13642W        W77399  38.017  24.707   3.369
13643W        W77400   9.654   7.735  12.453
13644W        W77401  38.013   2.885  13.413
13645W        W77402  13.321  30.447  13.442
13646W        W77403  12.314  32.938  11.518
13647W        W77404  20.692   9.672  10.943
13648W        W77405  32.468  30.559   2.686
13649W        W77406  26.484  30.589  10.010
13650W        W77407   3.911  27.496   4.127
13651W        W77408  25.994  12.116   3.290
13652W        W77409  16.287  36.426  12.980
13653W        W77410   5.193   9.346   2.418
13654W        W77411  21.663   3.450  13.008
13655W        W77412   9.881  19.128  13.931
13656W        W77413  34.050  43.445  11.551
13657W        W77414  31.949  37.498   3.272
13658W        W77415  42.315  14.633  13.459
13659W        W77416  27.143  27.958  13.531
13660W        W77417   1.943   3.764   1.755
13661W        W77418  19.182  14.670  11.945
13662W        W77419  27.041  15.281  12.872
13663W        W77420  40.950  39.921   1.860
13664W        W77421   3.710  40.010   5.091
13665W        W77422  21.636  42.324   2.673
13666W        W77423  26.140  25.577  12.435
13667W        W77424   9.648  34.508  10.983
13668W        W77425   5.844  21.093   0.451
13669W        W77426   5.927  11.694  12.580
13670W        W77427   4.884   3.219  12.975
13671W        W77428  30.454  37.416   3.343
13672W        W77429  16.075  38.031   1.451
13673W        W77430  10.747  36.991   1.851
13674W        W77431  27.016  16.132  12.453
13675W        W77432  42.414  38.490   4.767
13676W        W77433  14.224  36.913   2.816
13677W        W77434  28.493  37.566   2.666
13678W        W77435  17.129  22.068  14.780
13679W        W77436   3.303  40.356  14.282
13680W        W77437   2.864  42.938  10.514
13681W        W77438  38.917  17.794   2.760
13682W        W77439  34.120  33.996   1.371
13683W        W77440  34.890  44.987   2.417
13684W        W77441   6.377   8.874   0.324
13685W        W77442  12.140  35.870  13.937
13686W        W77443  24.541  10.826  11.989
13687W        W77444  40.488  27.017   4.311
13688W        W77445  22.557  31.145   1.701
13689W        W77446  44.300  11.707  10.590
13690W        W77447  40.340  35.941  11.923
13691W        W77448   1.386  43.407  14.458
13692W        W77449  14.829  33.440   2.239
13693W        W77450   8.290  37.083  14.328
13694W        W77451  31.013   6.222  14.484
13695W        W77452  30.569  27.692   3.851
13696W        W77453   5.213  14.270  11.068
13697W        W77454  34.529   7.689   0.786
13698W        W77455   0.924  42.991  11.906
13699W        W77456   6.427  39.847   9.470
13700W        W77457   2.255  39.378  12.930
13701W        W77458  14.117  16.660  12.898
13702W        W77459  18.265  17.670   0.314
13703W        W77460  31.110  24.164   0.323
13704W        W77461  15.284  41.483   3.146
13705W        W77462  39.518  24.133   4.120
13706W        W77463  33.580  35.571  12.924
13707W        W77464   5.228  14.119   3.720
13708W        W77465  18.128   6.717   2.882
13709W        W77466  12.708   9.783   4.711
13710W        W77467   2.393  16.675   1.864
13711W        W77468   2.423  17.768   0.379
13712W        W77469   5.211  26.627   4.183
13713W        W77470  41.952   4.896   5.283
13714W        W77471  15.143  18.168   2.709
13715W        W77472  40.477  42.879   1.780
13716W        W77473  35.015  23.500  13.439
13717W        W77474  29.941  35.967   0.745
13718W        W77475  23.196  39.833   0.741
13719W        W77476   7.363  30.090   4.351
13720W        W77477  17.127  22.070   4.262
13721W        W77478  10.854  33.501  10.530
13722W        W77479  30.145  33.926   1.870
13723W        W77480   8.743  32.393   1.359
13724W        W77481   2.806  10.771   2.308
13725W        W77482   4.698   9.371   0.400
13726W        W77483  42.368   9.237   2.375
13727W        W77484  33.594  39.960  13.863
13728W        W77485  43.007  25.468  12.397
13729W        W77486  13.839   3.740   0.915
13730W        W77487  11.293  37.555  11.976
13731W        W77488  17.271  13.810  14.997
13732W        W77489  28.473   0.311   1.419
13733W        W77490  17.674  17.108   1.921
13734W        W77491  13.830   5.195  14.330
13735W        W77492  11.648   9.674  13.327
13736W        W77493  24.638  35.416  12.003
13737W        W77494  40.863   8.676   0.954
13738W        W77495  32.439  28.596   3.246
13739W        W77496  23.110   4.212  11.871
13740W        W77497  30.094  16.749  11.860
13741W        W77498   0.871  19.586   1.814
13742W        W77499  18.553  18.557  14.020
13743W        W77500  19.176  30.113   3.204
13744W        W77501  26.638  11.841   1.781
13745W        W77502   2.355  42.783   2.354
13746W        W77503  29.045   8.835  10.963
13747W        W77504  22.742   4.822  13.544
13748W        W77505  23.233  29.472   3.242
13749W        W77506  33.132  33.006   3.749
13750W        W77507   4.872  18.776  10.987
13751W        W77508  12.750  18.190  12.966
13752W        W77509  18.094  15.721   2.313
13753W        W77510  41.517  40.856  10.943
13754W        W77511   7.797  37.028  12.558
13755W        W77512  21.660  14.104  13.880
13756W        W77513  29.927   9.174   1.369
13757W        W77514  44.979   7.354   3.387
13758W        W77515  32.547  18.566   4.625
13759W        W77516  29.003  18.240   9.649
13760W        W77517   0.949  40.408   1.305
13761W        W77518  24.199  13.720  11.046
13762W        W77519  14.253   3.335  12.923
13763W        W77520  11.192   9.714  13.441
13764W        W77521  33.936  12.324   4.789
13765W        W77522  21.743   1.879  11.910
13766W        W77523   0.397  15.606   2.376
13767W        W77524  34.949  12.240  12.493
13768W        W77525  24.512   3.740  13.445
13769W        W77526  25.526  20.085   4.118
13770W        W77527  27.569  17.691   1.309
13771W        W77528   8.312  36.473  11.010
13772W        W77529  32.578  28.436  14.018
13773W        W77530  15.229  18.643  14.448
13774W        W77531  25.106  40.303   5.314
13775W        W77532  18.615  15.158  11.460
13776W        W77533   5.194  42.361  14.404
13777W        W77534  41.485  28.517  12.511
13778W        W77535   0.481   3.719  13.394
13779W        W77536   1.792  38.399   2.233
13780W        W77537  35.937  31.409  14.788
13781W        W77538   6.843  30.598  14.346
13782W        W77539  41.394   3.322   4.146
13783W        W77540   8.875  18.547  13.903
13784W        W77541  20.583  12.796  13.479
13785W        W77542  36.529  29.644  14.886
13786W        W77543  23.172  33.057   1.707
13787W        W77544  11.845  13.605  13.455
13788W        W77545  33.090  44.370   2.286
13789W        W77546  31.555  24.638   1.390
13790W        W77547  42.950   0.875   4.609
13791W        W77548   2.946  18.704  10.425
13792W        W77549  14.708  23.590   1.858
13793W        W77550  21.065  29.429   3.251
13794W        W77551  17.125  15.586  10.906
13795W        W77552  23.053   3.289  13.320
13796W        W77553  20.189  23.167  14.952
13797W        W77554  31.068  23.587  12.041
13798W        W77555  26.161   0.871  11.995
13799W        W77556   5.295  30.471   2.829
13800W        W77557   8.657  11.851  10.955
13801W        W77558  37.415  21.741  11.382
13802W        W77559  20.173  43.474   4.129
13803W        W77560  42.831  41.482  14.356
13804W        W77561  27.963  20.258   4.745
13805W        W77562  22.049  18.787  12.344
13806W        W77563  36.921  40.313  14.473
13807W        W77564  30.639  17.154  14.382
13808W        W77565  35.406   3.381  12.904
13809W        W77566  36.970  25.969   4.290
13810W        W77567  33.577  13.271  14.495
13811W        W77568  41.410  14.709   4.820
13812W        W77569  13.814  15.805  14.778
13813W        W77570   7.763  37.361   0.811
13814W        W77571  42.868  13.723  12.549
13815W        W77572  40.799   5.263   3.847
13816W        W77573  40.006  29.929  13.004
13817W        W77574  11.257  21.705   2.691
13818W        W77575   1.400  36.561  14.360
13819W        W77576  36.461  28.506   3.788
13820W        W77577   8.397  21.161   1.222
13821W        W77578  34.374   9.821  11.484
13822W        W77579  28.011  25.617   1.323
13823W        W77580  24.169  40.874   3.674
13824W        W77581  17.718  42.823  13.992
13825W        W77582  28.673  31.113  14.934
13826W        W77583   7.835  26.693  10.081
13827W        W77584  29.636  41.044   0.305
13828W        W77585  15.619  16.158   4.667
13829W        W77586  36.962  44.958  14.959
13830W        W77587  34.009  37.866  10.505
13831W        W77588  40.469  11.145  13.048
13832W        W77589  19.705  26.985  12.473
13833W        W77590  10.177  26.540   5.270
13834W        W77591   8.815  10.654   4.345
13835W        W77592  15.261  21.094   3.749
13836W        W77593  15.754  16.582   3.178
13837W        W77594  11.744  31.428   4.132
13838W        W77595  24.636  13.211  12.506
13839W        W77596   3.733  44.795   3.231
13840W        W77597   4.738  31.043   4.677
13841W        W77598  24.062  39.016   2.331
13842W        W77599  35.010  33.986  14.467
13843W        W77600  27.078   7.825   3.280
13844W        W77601  18.647  40.808   2.662
13845W        W77602  22.606   6.269   1.250
13846W        W77603   1.423   6.268  12.031
13847W        W77604  13.792  18.613   0.928
13848W        W77605  40.018   1.858  10.149
13849W        W77606  21.187  42.022   4.791
13850W        W77607  19.175  26.991   4.205
13851W        W77608   8.755  42.392  10.033
13852W        W77609  37.541  18.177  10.982
13853W        W77610  26.983   0.432  14.448
13854W        W77611  43.323  39.475   2.854
13855W        W77612  39.904  33.455   2.824
13856W        W77613  24.208  29.152  10.159
13857W        W77614  29.489  25.074  12.352
13858W        W77615   6.269   8.875   1.800
13859W        W77616  30.118  25.510  12.839
13860W        W77617  10.745  10.674  14.363
13861W        W77618  20.184  44.803  13.535
13862W        W77619  25.642  36.376  13.063
13863W        W77620  12.264  40.839   3.334
13864W        W77621   3.814  21.106   3.769
13865W        W77622  39.329  42.997   4.772
13866W        W77623  28.008  25.998   0.438
13867W        W77624  31.002  14.245  14.389
13868W        W77625  23.115   4.303   4.802
13869W        W77626  18.099  19.135  11.467
13870W        W77627  29.044   0.866  10.919
13871W        W77628  22.053  42.283   2.741
13872W        W77629  38.044  21.709  13.460
13873W        W77630   3.216  27.552   2.737
13874W        W77631  15.727  19.632   0.354
13875W        W77632  37.498  33.426  13.063
13876W        W77633  15.260  25.211   2.850
13877W        W77634  14.833  27.525  14.020
13878W        W77635   8.896  33.453  14.430
13879W        W77636  10.181  33.593  13.978
13880W        W77637   8.793  38.541   0.470
13881W        W77638  15.115   0.874   4.738
13882W        W77639   4.926  37.045   2.716
13883W        W77640  23.106  14.710   4.697
13884W        W77641   7.236  15.183   2.847
13885W        W77642  26.588  14.239  11.870
13886W        W77643  15.231  33.573  12.515
13887W        W77644  12.205  31.947  12.878
13888W        W77645   5.367  27.002   1.912
13889W        W77646  25.706  35.415  14.493
13890W        W77647   9.814   0.783  14.427
13891W        W77648  27.975  36.358  12.926
13892W        W77649   2.944  11.269   2.217
13893W        W77650  42.522  44.807   4.239
13894W        W77651  41.502  27.465   1.800
13895W        W77652  11.782   5.329   4.152
13896W        W77653   4.242  24.122  10.563
13897W        W77654   3.457  37.497  11.596
13898W        W77655  27.997  27.187   4.829
13899W        W77656  12.833  42.466  11.551
13900W        W77657  17.632  25.646   2.806
13901W        W77658  15.696   2.230   1.807
13902W        W77659   1.409  19.547  13.828
13903W        W77660  18.156  26.596   3.375
13904W        W77661  36.904   3.842  14.952
13905W        W77662  18.072  26.673   0.340
13906W        W77663  43.405  32.430  10.536
13907W        W77664  36.370  17.784   2.833
13908W        W77665  13.216   7.210   1.759
13909W        W77666  25.121  12.732   4.756
13910W        W77667   2.292  26.134  13.326
13911W        W77668  37.468   5.361  13.467
13912W        W77669  43.430   5.418   2.400
13913W        W77670  31.911   2.740   1.443
13914W        W77671  17.142   1.481   4.115
13915W        W77672   4.243   2.338   1.356
13916W        W77673   2.237   9.659  14.863
13917W        W77674   8.254  18.254  12.965
13918W        W77675  10.838  15.221   3.370
13919W        W77676  23.569  26.687   3.244
13920W        W77677   1.915  10.239   2.263
13921W        W77678  11.733  22.034  14.946
13922W        W77679  12.162  41.832  12.951
13923W        W77680  20.203  13.275   3.722
13924W        W77681   2.840  15.187   3.327
13925W        W77682  23.540  26.979   4.749
13926W        W77683  25.142  40.382  13.942
13927W        W77684  39.541  32.038   0.949
13928W        W77685  23.139  28.641   2.315
13929W        W77686  39.032   1.811   1.919
13930W        W77687   1.943  21.227  11.491
13931W        W77688  35.539   3.426   0.304
13932W        W77689   4.218  23.573   4.816
13933W        W77690  14.679  14.174   4.720
13934W        W77691  14.209  20.034   2.754
13935W        W77692  16.768  30.008  12.386
13936W        W77693  18.549  29.004  10.530
13937W        W77694  31.972   4.270   0.765
13938W        W77695   2.726  23.115   4.760
13939W        W77696  15.620  35.001  11.999
13940W        W77697  16.160  17.766  10.903
13941W        W77698  28.029  42.964  13.424
13942W        W77699  42.386  29.478  10.481
13943W        W77700  28.996   1.389  11.401
13944W        W77701  40.345  26.516   1.420
13945W        W77702   5.425   1.810   1.324
13946W        W77703  15.757  43.984   4.140
13947W        W77704  11.360   3.834  14.872
13948W        W77705  27.661  41.459   0.868
13949W        W77706   1.850  25.077   4.307
13950W        W77707  38.479  27.525  11.500
13951W        W77708  15.197  21.628  13.407
13952W        W77709  17.734  44.421  11.881
13953W        W77710   0.969  24.639  13.400
13954W        W77711  25.699  30.489   3.292
13955W        W77712  17.137  26.645   2.863
13956W        W77713  29.603  24.541  13.889
13957W        W77714  14.203  40.997   1.874
13958W        W77715   6.258   1.309  13.465
13959W        W77716  21.516  43.280  14.384
13960W        W77717  30.527  38.885   5.175
13961W        W77718  30.156  29.089  14.412
13962W        W77719  29.467  15.239  13.346
13963W        W77720  41.315   5.434   0.431
13964W        W77721  44.848  16.800   0.758
13965W        W77722   7.386  24.626   0.948
13966W        W77723   5.771  44.952   0.248
13967W        W77724  23.106  30.625   2.899
13968W        W77725  37.480   3.918  12.457
13969W        W77726   3.339  10.346  14.492
13970W        W77727  37.861  11.141   1.802
13971W        W77728   5.256  40.498   4.151
13972W        W77729   3.790   6.905   3.283
13973W        W77730  12.621  31.593  12.345
13974W        W77731  26.018   8.824  12.974
13975W        W77732   1.244  33.595   0.851
13976W        W77733  34.992  26.506   4.682
13977W        W77734  17.271  17.603   0.423
13978W        W77735  26.094  18.258   3.246
13979W        W77736  21.161  32.455   0.347
13980W        W77737  16.179  36.846  12.533
13981W        W77738  44.467   2.855  14.784
13982W        W77739  11.284  34.980  13.023
13983W        W77740  17.212  27.016  11.895
13984W        W77741   0.350  18.182  10.503
13985W        W77742  14.735   6.198   1.927
13986W        W77743  22.687  25.665  12.860
13987W        W77744  23.160  37.060   3.158
13988W        W77745  11.670  39.524  14.017
13989W        W77746  34.398  16.803   0.800
13990W        W77747  18.223  33.094   1.923
13991W        W77748  23.076  37.456   1.904
13992W        W77749  38.065  40.523  11.444
13993W        W77750  31.963  18.736  10.907
13994W        W77751   0.309   8.654   2.779
13995W        W77752   4.837  10.658  14.877
13996W        W77753  37.931  24.194   0.299
13997W        W77754  20.032   5.867   4.628
13998W        W77755  40.489  20.095   3.315
13999W        W77756  30.645  19.552  13.347
14000W        W77757  23.194   5.390   0.918
14001W        W77758  41.429  10.359  12.839
14002W        W77759  12.635   2.423   3.371
14003W        W77760  42.384   0.945   4.217
14004W        W77761  30.947   8.833   4.743
14005W        W77762  41.457  24.712   3.246
14006W        W77763  41.508   1.369   1.856
14007W        W77764  23.505  42.816   3.234
14008W        W77765  41.467  40.464  14.380
14009W        W77766  10.864   4.309  14.029
14010W        W77767  17.093  11.227   1.901
14011W        W77768  20.714  17.796   3.866
14012W        W77769   3.310  15.800   9.991
14013W        W77770   7.829   1.788  13.940
14014W        W77771   3.253   4.768   3.779
14015W        W77772  26.036  10.294  11.925
14016W        W77773  34.045  42.372   1.821
14017W        W77774   0.798  17.076   2.806
14018W        W77775  24.626   6.845  13.993
14019W        W77776  14.729  37.502  10.139
14020W        W77777  40.529  20.085  14.784
14021W        W77778  14.716   7.393  14.428
14022W        W77779  15.646  17.562  10.524
14023W        W77780  36.353   2.868  13.850
14024W        W77781  25.214  28.627  12.025
14025W        W77782   2.894  39.956  11.041
14026W        W77783  18.294  39.851   4.227
14027W        W77784  40.491  13.149  11.110
14028W        W77785  37.919  11.316   3.676
14029W        W77786  21.707  42.396   0.271
14030W        W77787  20.238  32.511   3.358
14031W        W77788  33.512  18.649  10.508
14032W        W77789  28.550  10.643   0.389
14033W        W77790  25.570  31.976   3.252
14034W        W77791  27.095  36.856  11.901
14035W        W77792   1.337   9.334  14.347
14036W        W77793  11.146  27.486   1.224
14037W        W77794  42.516  10.690   1.837
14038W        W77795   0.431  10.727  12.842
14039W        W77796  25.679  10.849  14.470
14040W        W77797  16.702  26.181   1.295
14041W        W77798   9.388  21.146  11.080
14042W        W77799  34.562  18.213  11.506
14043W        W77800  39.038  25.516  11.592
14044W        W77801   4.301  44.407  10.588
14045W        W77802  28.957   0.392  10.470
14046W        W77803   1.783   0.300  13.378
14047W        W77804   2.721  26.159  10.570
14048W        W77805  38.436   6.423  12.918
14049W        W77806  35.470   6.701   3.328
14050W        W77807   9.244   7.900   3.732
14051W        W77808  11.309  42.994   2.749
14052W        W77809  41.537  20.222  12.558
14053W        W77810  19.259  11.313   2.206
14054W        W77811  42.913  17.305  12.043
14055W        W77812   1.740   1.876  12.464
14056W        W77813  28.140   3.240  13.324
14057W        W77814  40.352   5.251  11.589
14058W        W77815  35.000  40.885  13.434
14059W        W77816   9.711  27.682  14.800
14060W        W77817  22.736   7.669  12.509
14061W        W77818   5.800  30.535  14.379
14062W        W77819  33.100  35.952  13.508
14063W        W77820  22.222  22.683   3.752
14064W        W77821  30.095  42.970  10.523
14065W        W77822  43.861   0.386   4.756
14066W        W77823  43.849   4.298  11.863
14067W        W77824  39.975  43.483   3.643
14068W        W77825  19.595  41.991   1.212
14069W        W77826   8.829  17.297   0.793
14070W        W77827  29.979  13.812   2.334
14071W        W77828   6.290  16.769  14.025
14072W        W77829  32.074   4.416   3.277
14073W        W77830  17.699  40.877  13.493
14074W        W77831  25.684  12.161   2.244
14075W        W77832  31.586  44.390   0.871
14076W        W77833  24.100   0.912  10.014
14077W        W77834  40.359  11.799  14.356
14078W        W77835  14.728  23.542  13.830
14079W        W77836  35.511  43.906   0.940
14080W        W77837  24.676  41.955   3.246
14081W        W77838   2.744  16.780   1.751
14082W        W77839  31.466   1.850  10.136
14083W        W77840  17.138  42.835  13.924
14084W        W77841  13.832   2.337  12.948
14085W        W77842   4.727  26.203   4.307
14086W        W77843  24.616  41.497  12.847
14087W        W77844   3.372  19.557   0.411
14088W        W77845   5.355  38.569   4.645
14089W        W77846  21.544  17.796  11.969
14090W        W77847  42.371  16.579   3.353
14091W        W77848  11.803  42.857   2.311
14092W        W77849  38.375  38.061   0.939
14093W        W77850  27.141  18.689  13.888
14094W        W77851  26.070  43.992   4.247
14095W        W77852  40.032  34.422   4.709
14096W        W77853  21.647  13.803  14.803
14097W        W77854  44.974  26.014  13.542
14098W        W77855  33.405  28.129   1.869
14099W        W77856  38.896  21.234   5.314
14100W        W77857   1.341  17.694   1.701
14101W        W77858  39.382  27.576  12.559
14102W        W77859  24.501   3.260   0.318
14103W        W77860  26.179  21.201   2.180
14104W        W77861  15.285  20.128   1.905
14105W        W77862   2.356  30.623  13.870
14106W        W77863  43.457  33.623   1.904
14107W        W77864   6.204   1.421  12.882
14108W        W77865  20.731  41.379   2.679
14109W        W77866  43.807  17.102  11.450
14110W        W77867  15.599  24.007  14.876
14111W        W77868  30.651  13.280  12.876
14112W        W77869  26.006   6.793  11.881
14113W        W77870   2.248   4.762  10.980
14114W        W77871   6.309  15.264   3.720
14115W        W77872  27.575   0.408  10.889
14116W        W77873  40.928  33.512   0.473
14117W        W77874   7.272   2.374  12.078
14118W        W77875   9.298  20.048  10.070
14119W        W77876  15.640   4.319  13.997
14120W        W77877  10.296  29.433   2.846
14121W        W77878  22.529  24.512  12.035
14122W        W77879  18.735  37.944   3.155
14123W        W77880  25.190  12.811  10.576
14124W        W77881  10.713  15.104  14.954
14125W        W77882  32.997  19.066   2.268
14126W        W77883  24.545  37.845  13.851
14127W        W77884  33.025  40.021   3.866
14128W        W77885  42.006  21.242  14.003
14129W        W77886  31.035  20.181   3.284
14130W        W77887   4.940   3.359  12.546
14131W        W77888  27.110  10.758  11.595
14132W        W77889  23.603  17.685   0.849
14133W        W77890   0.864   0.309  12.460
14134W        W77891  14.258   8.403   0.297
14135W        W77892  25.133  36.055  11.864
14136W        W77893  38.837  19.675  11.482
14137W        W77894  16.248   5.874   3.814
14138W        W77895  11.685   1.867   1.730
14139W        W77896  10.144   7.892  13.047
14140W        W77897  27.942  27.508   2.406
14141W        W77898  12.649  43.309   1.311
14142W        W77899  11.337   2.444  13.489
14143W        W77900  15.319  41.889   4.837
14144W        W77901  35.565  15.719  13.391
14145W        W77902  12.837  31.617   3.360
14146W        W77903  19.698  15.762  10.991
14147W        W77904  31.507  42.914   1.284
14148W        W77905  20.741  43.941   4.139
14149W        W77906   9.191  30.147   4.741
14150W        W77907  36.025  36.962   3.384
14151W        W77908  23.693  39.022  14.428
14152W        W77909  31.048  20.201  11.511
14153W        W77910  13.797  31.557  11.920
14154W        W77911   3.926  29.023  12.832
14155W        W77912  21.588   0.985   1.751
14156W        W77913  16.136  15.643  12.824
14157W        W77914  30.941   5.873   5.097
14158W        W77915   5.722  44.866   5.693
14159W        W77916  20.574  19.617  14.965
14160W        W77917  34.536  26.603   3.274
14161W        W77918  11.640  29.060   1.288
14162W        W77919  41.447  30.127   3.734
14163W        W77920  12.737   7.798   4.721
14164W        W77921  37.387  39.837  13.525
14165W        W77922  14.312  20.105   3.657
14166W        W77923  33.955   9.864  10.508
14167W        W77924  28.589  22.047  10.940
14168W        W77925  43.786  23.514   1.733
14169W        W77926  12.700   2.961   3.251
14170W        W77927   8.854  43.386   0.369
14171W        W77928   5.925  28.595   3.824
14172W        W77929  15.639  15.822  14.985
14173W        W77930   4.220  36.556   2.765
14174W        W77931  28.148  22.146   0.460
14175W        W77932  12.315  27.476  12.062
14176W        W77933  13.679   2.343  10.950
14177W        W77934  25.593  28.993   3.284
14178W        W77935  21.591  26.962   2.777
14179W        W77936  35.052  18.734   3.191
14180W        W77937  35.468   6.399  14.444
14181W        W77938  21.576   5.842  12.490
14182W        W77939   1.736  42.936   4.780
14183W        W77940  20.248  14.094   2.715
14184W        W77941   9.371  17.716   0.425
14185W        W77942  44.483  28.650   1.714
14186W        W77943  11.198   0.381  14.014
14187W        W77944   1.951  15.585   1.393
14188W        W77945   6.230  11.777   0.826
14189W        W77946   0.746  16.626   0.774
14190W        W77947   2.467  29.489  11.537
14191W        W77948   9.219  39.498   3.676
14192W        W77949   5.304   6.404  12.851
14193W        W77950   2.283   3.892  14.393
14194W        W77951   5.727   8.405   1.293
14195W        W77952  17.674  31.445  14.792
14196W        W77953  13.793  35.945   3.310
14197W        W77954   5.839  34.021   1.284
14198W        W77955   2.435  35.852   4.714
14199W        W77956   2.453   2.429  11.476
14200W        W77957  37.414  42.867  13.922
14201W        W77958   9.750  40.815   0.387
14202W        W77959  32.452  10.258  13.340
14203W        W77960  18.592  30.130  13.964
14204W        W77961  12.171   5.688  10.642
14205W        W77962  43.866  37.915  14.005
14206W        W77963   8.723  10.823  12.993
14207W        W77964  19.573  17.273   1.297
14208W        W77965   6.676  35.378  12.932
14209W        W77966  15.793  32.996   1.292
14210W        W77967  37.088  34.876   4.301
14211W        W77968  33.020  37.031   4.234
14212W        W77969  42.512  28.490  11.581
14213W        W77970   9.862   4.755   0.870
14214W        W77971  43.408  39.315   0.936
14215W        W77972   3.785  22.733  11.401
14216W        W77973  26.608  17.203   2.876
14217W        W77974  34.610  30.046  11.513
14218W        W77975   7.372  32.584  13.860
14219W        W77976  12.298  25.610   2.324
14220W        W77977  43.940  41.815   2.844
14221W        W77978  30.613  18.291  10.889
14222W        W77979  37.870  33.492  14.970
14223W        W77980  14.792  42.427  12.950
14224W        W77981  40.017  19.196  11.397
14225W        W77982  30.627  20.693  11.870
14226W        W77983  32.637   8.396  10.629
14227W        W77984  27.117  31.052   4.732
14228W        W77985  30.502   7.407  13.852
14229W        W77986  25.558  10.847   1.230
14230W        W77987  39.908  13.161   0.371
14231W        W77988  14.150  31.085  12.901
14232W        W77989  28.155  37.085   0.309
14233W        W77990  35.556  36.464   3.775
14234W        W77991  13.815  40.811   4.665
14235W        W77992  42.903   8.183  11.905
14236W        W77993  12.742  38.430   1.370
14237W        W77994  21.646  31.635   4.155
14238W        W77995  30.594  17.620   4.228
14239W        W77996  38.552  20.608  13.369
14240W        W77997  19.250  21.153   4.312
14241W        W77998  39.901  30.982   0.406
14242W        W77999   8.195  26.195   1.228
14243W        W78000   4.823  42.496  12.566
14244W        W78001  28.537   4.422  10.939
14245W        W78002  44.893  24.589   2.891
14246W        W78003   0.982  24.179  13.386
14247W        W78004   6.321  44.498  12.972
14248W        W78005  16.645   1.342   2.884
14249W        W78006  40.037  25.059   1.422
14250W        W78007   1.390  14.219  10.994
14251W        W78008  13.622  29.478   0.888
14252W        W78009  37.044   6.824  14.451
14253W        W78010  14.802  21.579  11.004
14254W        W78011  13.337  30.473  14.793
14255W        W78012  27.018  43.458  12.926
14256W        W78013  26.030  19.740  13.939
14257W        W78014  34.461  30.607  14.421
14258W        W78015   6.872  23.583  14.958
14259W        W78016  42.325  31.528  11.478
14260W        W78017  20.045  33.098  14.016
14261W        W78018  10.227  38.363  11.605
14262W        W78019  31.412  40.473   4.776
14263W        W78020   9.332   1.754   1.237
14264W        W78021   7.359  20.124   5.249
14265W        W78022   1.298  16.740  14.791
14266W        W78023   1.853   7.745   3.299
14267W        W78024  15.229  12.122   0.244
14268W        W78025   3.218  44.905  11.098
14269W        W78026  30.969   9.686   3.719
14270W        W78027  26.541   3.784   2.222
14271W        W78028   8.261  33.525  13.432
14272W        W78029   8.249  17.667   1.909
14273W        W78030   0.426   5.894  12.566
14274W        W78031  10.197  36.592   2.213
14275W        W78032  25.028  19.546  12.983
14276W        W78033  18.187   6.905  13.973
14277W        W78034  10.273  42.913  14.970
14278W        W78035   9.826  13.733  13.814
14279W        W78036  15.089  29.535   1.882
14280W        W78037  44.310  17.122  12.960
14281W        W78038  26.551  40.344  13.924
14282W        W78039   4.356   1.309  10.469
14283W        W78040  29.533  34.544   4.796
14284W        W78041  14.664  19.082  13.867
14285W        W78042  20.736  36.354   9.504
14286W        W78043  42.017  30.472   2.824
14287W        W78044  36.515  31.052  11.429
14288W        W78045  20.766  43.393   4.719
14289W        W78046   5.247  25.621  13.861
14290W        W78047  29.498  36.905   2.727
14291W        W78048  32.537   7.199   5.250
14292W        W78049   1.797  38.062  13.898
14293W        W78050   5.344  35.378   1.402
14294W        W78051   9.688   3.726   2.247
14295W        W78052  20.271  11.333   4.652
14296W        W78053   2.381  11.776   9.924
14297W        W78054  38.485  42.356   4.141
14298W        W78055  10.312  20.760  12.565
14299W        W78056   2.335  12.350  14.898
14300W        W78057   7.689  36.018  10.075
14301W        W78058  10.805  38.431   0.440
14302W        W78059  15.250   0.440  11.530
14303W        W78060  18.641  31.542   0.250
14304W        W78061   5.324  44.893  11.087
14305W        W78062  22.501  38.369  12.518
14306W        W78063  14.714  41.796  14.954
14307W        W78064  16.261  11.305   2.856
14308W        W78065  22.530   4.233  11.101
14309W        W78066   3.907  11.187  11.916
14310W        W78067   2.848  41.468  12.490
14311W        W78068  15.739  37.998   1.357
14312W        W78069  40.949  34.379  12.526
14313W        W78070  42.412  41.963   1.803
14314W        W78071  40.914   1.794   2.782
14315W        W78072   4.877   1.268   5.173
14316W        W78073  27.133   2.792  11.513
14317W        W78074  44.755  24.052   1.752
14318W        W78075  38.471   2.450  11.610
14319W        W78076  33.911   7.841  11.491
14320W        W78077  33.396  16.279  10.573
14321W        W78078  39.007   5.399  10.019
14322W        W78079  30.046  24.075   2.893
14323W        W78080  23.145  21.524   1.246
14324W        W78081  13.209   8.188   3.163
14325W        W78082  14.615   7.874  13.867
14326W        W78083  13.228  14.785   4.282
14327W        W78084  25.657  22.207  10.516
14328W        W78085  13.821   0.775  14.469
14329W        W78086  33.467  18.575  12.466
14330W        W78087  39.983  23.605   2.245
14331W        W78088  12.853  27.124   0.392
14332W        W78089  44.789   1.309  12.031
14333W        W78090  24.489   6.834   1.856
14334W        W78091  29.034  14.665  13.045
14335W        W78092  39.430  24.574  13.308
14336W        W78093   8.744  41.015  11.427
14337W        W78094  22.080  41.002   0.836
14338W        W78095  19.763   9.160   1.885
14339W        W78096  26.087   0.327   4.241
14340W        W78097   9.698  29.497   1.929
14341W        W78098  44.263  35.461   3.153
14342W        W78099  28.944  11.641   2.756
14343W        W78100   8.882   4.231  13.476
14344W        W78101   9.373  22.206  13.910
14345W        W78102  18.639  40.383  13.004
14346W        W78103  33.620  22.046   3.691
14347W        W78104   1.953  22.186  10.963
14348W        W78105   5.209  43.782  10.534
14349W        W78106  40.375   2.265  13.919
14350W        W78107   3.397   5.203   4.747
14351W        W78108  28.663  12.198  14.016
14352W        W78109  18.737  28.645   3.842
14353W        W78110  26.561  27.052  13.875
14354W        W78111  13.208  26.693   1.821
14355W        W78112  38.455  28.544   4.608
14356W        W78113  21.758  36.843   3.252
14357W        W78114  36.443  36.919  10.533
14358W        W78115  26.955   6.414   3.752
14359W        W78116   6.246   9.716  10.052
14360W        W78117  42.455  12.634  13.422
14361W        W78118  36.385  22.709   4.300
14362W        W78119  21.707   3.772   1.907
14363W        W78120  13.185  16.616  14.461
14364W        W78121  18.691  27.522   2.278
14365W        W78122  19.253  16.771  14.455
14366W        W78123  29.014  10.237  12.498
14367W        W78124  29.590  17.218  12.034
14368W        W78125   8.317  20.583   2.702
14369W        W78126  11.178  30.052   3.248
14370W        W78127  42.499  44.852   2.849
14371W        W78128  34.467  25.579  11.047
14372W        W78129  26.142   1.333   2.753
14373W        W78130  12.633   7.827   1.421
14374W        W78131  43.922  14.765   0.340
14375W        W78132   8.837  35.387  13.970
14376W        W78133  43.945  19.548   4.308
14377W        W78134  20.152  12.130  14.275
14378W        W78135   7.391   5.712  14.844
14379W        W78136  17.259  44.005   3.729
14380W        W78137  13.131  35.989   1.729
14381W        W78138  44.916  28.556   2.771
14382W        W78139   2.347  31.102   4.152
14383W        W78140  24.200  32.009   1.285
14384W        W78141   6.681  19.231   1.806
14385W        W78142   4.766   3.812  11.424
14386W        W78143  15.274   2.417   4.706
14387W        W78144  41.007  17.608   4.116
14388W        W78145  20.677  21.185   1.913
14389W        W78146  43.345   5.779   1.888
14390W        W78147  42.793  29.531  14.321
14391W        W78148   5.694  38.328  12.428
14392W        W78149  38.927  17.147  14.484
14393W        W78150  13.247  29.099   3.769
14394W        W78151  17.601  26.153  12.862
14395W        W78152  15.711  39.947   4.261
14396W        W78153  34.073  15.312  12.372
14397W        W78154  41.842  19.533  13.984
14398W        W78155  17.303  17.238   3.693
14399W        W78156  22.170   5.398  13.899
14400W        W78157  39.940  35.881  11.971
14401W        W78158  42.960  25.639  11.010
14402W        W78159  21.216  42.810   5.185
14403W        W78160   5.235  23.154   1.254
14404W        W78161  10.167  22.665   0.837
14405W        W78162  16.761  40.015   0.359
14406W        W78163  34.892  30.602  13.890
14407W        W78164   7.769  34.020  13.993
14408W        W78165   2.391   7.702   1.313
14409W        W78166  30.480  16.261   3.645
14410W        W78167  27.149   7.294  14.358
14411W        W78168  43.362  36.893   3.824
14412W        W78169   7.256   7.181  13.956
14413W        W78170  36.409   7.177  14.342
14414W        W78171   5.282  11.689  13.418
14415W        W78172  13.657  30.491   1.263
14416W        W78173  25.523  12.634   5.111
14417W        W78174  11.785  38.335   1.704
14418W        W78175  41.796   6.334  12.877
14419W        W78176  23.515  34.552   1.388
14420W        W78177  39.422  42.403  14.471
14421W        W78178  37.903  36.411   0.330
14422W        W78179  26.196   3.444  13.970
14423W        W78180   6.871  31.085  14.887
14424W        W78181  38.459  43.955  13.447
14425W        W78182  20.559  39.351   1.695
14426W        W78183   5.911  42.910  14.964
14427W        W78184  27.569  19.064  11.992
14428W        W78185  10.343  17.595   4.820
14429W        W78186  10.276   5.387   4.787
14430W        W78187  34.942   6.703   2.305
14431W        W78188  31.117  15.242   4.217
14432W        W78189  23.557  25.093   4.656
14433W        W78190   8.403  31.461  14.886
14434W        W78191  42.323   2.240  10.529
14435W        W78192  31.076   6.183   5.102
14436W        W78193  29.006  43.773   3.362
14437W        W78194  10.275   0.869  11.969
14438W        W78195  21.241  44.457   4.195
14439W        W78196  17.251  19.050  14.918
14440W        W78197  22.027  27.655   1.432
14441W        W78198   4.834  34.463   3.714
14442W        W78199  38.858  35.933   2.710
14443W        W78200  39.921  28.056   2.233
14444W        W78201  30.028  13.839  14.910
14445W        W78202  19.559  16.134  10.927
14446W        W78203   5.732  35.475   2.870
14447W        W78204   9.249   4.305   1.924
14448W        W78205  23.621  29.489   1.889
14449W        W78206   9.280  24.186   0.741
14450W        W78207  38.993  11.717  10.454
14451W        W78208  22.160  35.425   2.664
14452W        W78209  14.697  11.171   1.307
14453W        W78210  13.310   1.418   1.281
14454W        W78211  17.583  30.991   4.778
14455W        W78212  36.066   3.736   2.662
14456W        W78213  43.926  28.045   4.118
14457W        W78214  23.635  20.743  12.948
14458W        W78215  22.075  18.190  10.537
14459W        W78216  32.429   1.954   1.853
14460W        W78217  30.116  20.590   0.297
14461W        W78218  42.418  23.679   0.348
14462W        W78219  36.531  34.975   4.790
14463W        W78220   7.729   8.281  12.411
14464W        W78221  18.582   3.297  14.398
14465W        W78222  28.034  23.070  11.557
14466W        W78223  17.137  42.816   4.188
14467W        W78224  24.097  39.902  10.919
14468W        W78225   8.868  11.763  11.486
14469W        W78226  34.999   0.296   0.289
14470W        W78227  13.817  15.663  12.441
14471W        W78228  24.073  40.354   2.321
14472W        W78229  30.044  42.376  10.909
14473W        W78230   1.334  39.528  10.595
14474W        W78231  11.303  40.338   0.934
14475W        W78232   7.208  13.284   4.168
14476W        W78233   3.860  22.043  14.510
14477W        W78234   7.252  30.015  10.460
14478W        W78235  20.249  18.724  11.020
14479W        W78236   8.227   8.668  11.447
14480W        W78237  10.227  15.805  14.841
14481W        W78238  18.295  15.806   4.270
14482W        W78239  13.314  30.575  10.024
14483W        W78240  29.084  32.131   4.646
14484W        W78241   6.401  36.444   2.756
14485W        W78242   0.791   3.776   0.849
14486W        W78243  19.118  24.531   4.185
14487W        W78244  21.154   3.835   4.754
14488W        W78245  21.048  34.558   9.935
14489W        W78246  38.930   3.826   0.833
14490W        W78247  11.740  33.591  14.825
14491W        W78248  36.545   5.368   4.142
14492W        W78249  36.565  13.316  14.337
14493W        W78250   7.733  34.456  14.873
14494W        W78251  17.187  13.170   1.421
14495W        W78252  34.905   5.226   0.476
14496W        W78253   8.249   4.244   1.411
14497W        W78254  35.041  24.154   1.294
14498W        W78255  25.656  39.492  13.022
14499W        W78256   9.761  19.762  14.490
14500W        W78257  41.859  24.215   0.927
14501W        W78258  12.780  25.534  12.558
14502W        W78259  36.925  11.328  12.448
14503W        W78260  32.513   8.654  12.521
14504W        W78261  21.064  29.099   4.284
14505W        W78262  38.563  14.199   0.245
14506W        W78263  10.793  41.852  12.355
14507W        W78264  30.909  36.890  14.943
14508W        W78265  21.553  26.114   3.709
14509W        W78266  36.069  15.090  12.891
14510W        W78267  42.834   8.821  10.640
14511W        W78268  26.087   8.814  14.961
14512W        W78269   7.665  31.913  10.546
14513W        W78270  41.012  34.978   1.379
14514W        W78271   7.266  44.330   3.197
14515W        W78272  22.220  36.562  13.041
14516W        W78273  27.966  24.203  14.301
14517W        W78274  25.687  43.514  13.970
14518W        W78275  19.100  29.589   0.300
14519W        W78276  31.511  14.274   1.425
14520W        W78277  32.974  18.639  14.974
14521W        W78278  30.478  17.567   2.783
14522W        W78279  17.205   1.818   2.398
14523W        W78280   1.456  20.093   2.179
14524W        W78281  40.932  10.769  12.387
14525W        W78282  39.397  34.902  11.925
14526W        W78283  42.889  42.474  11.038
14527W        W78284  17.209  30.534  12.886
14528W        W78285  14.141  32.905  11.515
14529W        W78286   3.238   2.831   3.221
14530W        W78287  36.380   8.755   4.316
14531W        W78288  37.388   8.881  12.078
14532W        W78289  37.352   9.366  11.453
14533W        W78290   7.264  29.031   1.350
14534W        W78291  21.254  25.613   1.341
14535W        W78292  44.758  16.146   1.397
14536W        W78293  41.888   4.382   1.443
14537W        W78294  36.014  35.514  11.394
14538W        W78295  42.906  42.899   2.236
14539W        W78296  20.613  11.361  12.978
14540W        W78297  42.515   2.410   4.211
14541W        W78298  33.421  30.962  10.129
14542W        W78299  43.454  31.955   3.717
14543W        W78300  27.961  19.218   4.259
14544W        W78301  22.542  20.097   2.415
14545W        W78302   8.776  30.134  11.969
14546W        W78303  32.885  22.105  14.505
14547W        W78304  29.159  29.525   0.433
14548W        W78305  25.623  40.974  11.078
14549W        W78306   2.421   2.886  14.018
14550W        W78307  27.456  31.478   0.800
14551W        W78308   8.675  30.160   3.232
14552W        W78309   4.293  34.388  11.486
14553W        W78310  42.370   6.409   3.352
14554W        W78311  17.201  20.181   2.313
14555W        W78312  11.741  31.984  14.029
14556W        W78313  27.191  44.288   0.952
14557W        W78314  35.456  17.105   2.707
14558W        W78315  12.199   6.910  14.437
14559W        W78316  26.061  31.108  12.057
14560W        W78317  26.508   7.300  12.946
14561W        W78318  20.602  23.502  12.027
14562W        W78319  25.136  36.545   0.774
14563W        W78320  34.579  31.426   3.837
14564W        W78321  23.630  17.585   4.159
14565W        W78322  35.923  20.599  12.345
14566W        W78323  13.116   1.961  13.032
14567W        W78324  20.537  32.398   3.719
14568W        W78325  44.886  36.405   3.824
14569W        W78326  37.335  21.512  13.059
14570W        W78327  23.126   4.891   1.215
14571W        W78328  30.082  41.936  14.512
14572W        W78329  40.919  32.054  13.876
14573W        W78330   6.327  21.546  11.889
14574W        W78331  15.682   2.348   0.831
14575W        W78332   2.924  38.459  14.421
14576W        W78333   9.853  43.459   2.251
14577W        W78334  42.491   8.297   0.791
14578W        W78335  29.488  35.890  13.059
14579W        W78336  35.100  32.414  14.017
14580W        W78337  25.711  26.989   2.703
14581W        W78338   7.276   9.333   4.709
14582W        W78339  11.737  23.727  12.567
14583W        W78340  33.438  40.008  14.356
14584W        W78341   4.773  12.837  10.470
14585W        W78342  34.461  15.163  13.317
14586W        W78343  21.693  24.520  11.918
14587W        W78344  35.581  28.535  14.021
14588W        W78345  43.836   0.985   1.744
14589W        W78346  22.512  43.385   0.305
14590W        W78347  38.531  36.841   4.701
14591W        W78348  42.453   8.377  13.981
14592W        W78349  30.953  39.981  13.056
14593W        W78350  40.517  13.298   4.782
14594W        W78351   5.344   7.355  13.454
14595W        W78352   6.183   9.856   4.657
14596W        W78353  30.042  14.684   5.758
14597W        W78354  29.440  29.646   2.385
14598W        W78355   5.920   0.307   0.342
14599W        W78356  36.063  43.941   2.797
14600W        W78357   9.853  36.962  14.017
14601W        W78358  28.931  23.103   4.267
14602W        W78359  31.907  24.619   3.769
14603W        W78360  37.926   7.766  13.403
14604W        W78361  44.287  29.614  11.461
14605W        W78362  27.463  12.338   3.797
14606W        W78363  16.138  15.128   2.365
14607W        W78364  10.265  41.349  10.546
14608W        W78365   7.699  25.681   0.438
14609W        W78366  41.488  31.601  11.051
14610W        W78367  14.631  25.170   3.218
14611W        W78368  43.958   3.849   1.216
14612W        W78369  43.976  14.161   0.480
14613W        W78370  35.593  15.203   3.870
14614W        W78371   8.231  26.521  14.448
14615W        W78372  40.889  15.287   1.396
14616W        W78373  25.130   7.803  14.500
14617W        W78374  21.577  10.198  10.072
14618W        W78375  14.310  20.534  10.930
14619W        W78376  44.360  32.512   1.868
14620W        W78377  34.945  23.645  10.889
14621W        W78378  18.203   1.762   0.345
14622W        W78379  25.208  18.556  10.522
14623W        W78380   2.253  15.785  11.993
14624W        W78381  24.659  41.343  11.592
14625W        W78382  43.921  28.105  12.924
14626W        W78383  24.204  24.509  14.320
14627W        W78384  30.481  34.393  11.983
14628W        W78385   4.377  39.982   2.307
14629W        W78386  44.483   7.738   0.255
14630W        W78387  14.808  18.782  10.507
14631W        W78388  17.571  39.969   0.874
14632W        W78389   3.805  22.687   2.373
14633W        W78390  32.556   3.747  13.540
14634W        W78391  17.587  34.992  14.495
14635W        W78392  27.643   7.818  13.453
14636W        W78393  33.591  29.997   2.902
14637W        W78394  21.263  43.935   3.827
14638W        W78395  17.598  29.103  11.960
14639W        W78396  24.534  44.827   3.301
14640W        W78397  13.829  34.544  13.895
14641W        W78398  14.709  38.469   2.829
14642W        W78399  30.976  21.734  10.602
14643W        W78400  23.579   5.246   4.122
14644W        W78401  20.624   6.836   4.182
14645W        W78402  31.121  12.173   2.403
14646W        W78403   2.946  15.694  11.511
14647W        W78404  32.976   8.181  10.636
14648W        W78405  15.329   8.881  12.477
14649W        W78406  22.523  27.623  14.911
14650W        W78407  27.177  20.768   4.229
14651W        W78408   1.403  34.019  12.892
14652W        W78409  26.517   5.266  13.041
14653W        W78410  34.582  22.095   0.920
14654W        W78411  26.511  29.501   5.094
14655W        W78412  15.084  43.332  12.836
14656W        W78413  31.480  24.551   1.713
14657W        W78414  21.130  25.582   0.407
14658W        W78415  34.879  39.456   4.121
14659W        W78416  31.148   9.323   1.826
14660W        W78417  44.414  29.434   5.262
14661W        W78418  16.717  32.495  11.023
14662W        W78419  11.347  21.036   2.682
14663W        W78420  41.316   3.779   3.163
14664W        W78421  14.258  42.462   4.825
14665W        W78422   1.739  10.816  13.894
14666W        W78423  36.541  41.986  11.562
14667W        W78424  23.648  33.616  13.314
14668W        W78425  22.682  22.686  10.500
14669W        W78426  37.580  33.054  14.403
14670W        W78427   2.245   5.211   0.862
14671W        W78428   1.861   5.874  11.051
14672W        W78429  38.848   9.740   3.235
14673W        W78430  28.526  20.077   4.161
14674W        W78431  26.129  26.115  11.029
14675W        W78432   5.692  29.013   1.918
14676W        W78433  21.699  11.217   3.202
14677W        W78434   8.185  14.670   5.101
14678W        W78435   7.400  21.670  10.900
14679W        W78436  35.090  23.712   2.823
14680W        W78437  44.269  42.418  13.320
14681W        W78438  33.463  41.029  10.915
14682W        W78439  21.057   3.302  10.507
14683W        W78440  11.169  34.489   4.296
14684W        W78441  25.058  31.136  14.908
14685W        W78442  44.475  18.159  11.116
14686W        W78443  19.256  14.126   3.253
14687W        W78444  33.981  13.190   3.261
14688W        W78445  37.016  28.088   1.255
14689W        W78446  36.580  22.048  12.916
14690W        W78447  21.070  15.088  10.959
14691W        W78448  25.547  24.493   1.427
14692W        W78449  29.612  24.512  14.818
14693W        W78450   8.784  16.301   0.259
14694W        W78451   5.905  30.950   0.804
14695W        W78452   1.289   6.734  13.381
14696W        W78453  43.840   4.881   3.311
14697W        W78454  19.592  41.371  12.424
14698W        W78455   6.825  23.647   0.449
14699W        W78456   2.241  27.003   2.664
14700W        W78457  44.392  25.659  10.135
14701W        W78458  25.491  41.819  12.574
14702W        W78459   9.884  12.342   2.257
14703W        W78460  36.976  20.160   4.724
14704W        W78461  23.150  21.039  11.092
14705W        W78462  31.095  30.056  11.561
14706W        W78463   0.452  25.139   4.631
14707W        W78464   2.942  22.244   1.223
14708W        W78465   0.421  43.984  10.935
14709W        W78466  36.977  19.674  12.340
14710W        W78467  11.195   6.759  14.878
14711W        W78468  13.225  39.448   1.358
14712W        W78469   9.342   9.354  13.966
14713W        W78470  28.978  17.556   0.929
14714W        W78471  42.411  38.902   4.749
14715W        W78472  42.792  12.805   4.803
14716W        W78473  35.935  24.528   0.418
14717W        W78474  24.591  14.127   1.832
14718W        W78475  22.585   4.216  12.396
14719W        W78476  38.940  38.913  14.346
14720W        W78477   6.213   4.431  13.350
14721W        W78478  24.499  13.837   2.763
14722W        W78479   8.174  20.074   5.083
14723W        W78480   2.450  35.401  11.100
14724W        W78481  38.962  41.020   4.245
14725W        W78482  40.379  20.528  10.618
14726W        W78483  37.015   3.854   3.335
14727W        W78484  15.815  35.428   4.700
14728W        W78485  10.262  24.099  13.385
14729W        W78486  30.086  21.093   4.165
14730W        W78487   1.334  34.545  12.460
14731W        W78488  33.993  22.156   2.714
14732W        W78489  23.490   9.205  14.824
14733W        W78490   4.875  35.062  13.888
14734W        W78491  22.732   5.811   4.180
14735W        W78492   4.270  43.013   5.248
14736W        W78493   8.797   6.400  10.444
14737W        W78494   6.266  44.469  14.343
14738W        W78495  31.112   4.772   1.340
14739W        W78496   0.390  33.971  13.403
14740W        W78497  21.248  21.719   2.759
14741W        W78498  44.475  12.813   1.875
14742W        W78499  29.136  13.174   2.242
14743W        W78500  21.689  18.100   1.294
14744W        W78501  14.211   5.766   3.720
14745W        W78502   5.358   4.918   1.320
14746W        W78503  38.833  14.610   0.243
14747W        W78504  20.691   8.219   2.738
14748W        W78505  15.624   8.283   1.317
14749W        W78506  19.270   7.357  10.941
14750W        W78507  27.943  10.659  14.419
14751W        W78508  27.652  42.963   1.417
14752W        W78509  34.095  32.397  11.091
14753W        W78510  38.886   7.709   2.185
14754W        W78511  17.772  34.986   0.338
14755W        W78512  36.015  36.558   0.755
14756W        W78513   4.703   6.815  13.351
14757W        W78514   7.807  28.547  13.007
14758W        W78515  21.183  42.783  11.080
14759W        W78516  37.870  19.745  10.588
14760W        W78517  29.089  16.667   0.279
14761W        W78518   8.285  22.607   4.315
14762W        W78519   1.973  20.063  12.425
14763W        W78520  38.926   4.775  12.877
14764W        W78521  34.084  28.018  13.060
14765W        W78522  37.889  28.107   0.843
14766W        W78523  24.561  29.632  14.850
14767W        W78524  33.508   6.294  13.888
14768W        W78525   8.192   5.779  14.864
14769W        W78526  30.618  42.377  13.005
14770W        W78527  37.933  24.497  12.382
14771W        W78528   4.235  29.541   3.798
14772W        W78529  36.360  42.023   4.719
14773W        W78530  39.547   6.263   3.764
14774W        W78531  14.099  32.618  11.980
14775W        W78532  18.767  29.493  12.066
14776W        W78533  23.707  22.705   2.822
14777W        W78534   7.299  31.593  13.011
14778W        W78535  26.605   7.373  14.501
14779W        W78536   3.306  27.036  11.473
14780W        W78537  21.646  19.108  13.412
14781W        W78538  28.019  17.069  10.051
14782W        W78539  28.678  34.902  11.948
14783W        W78540  43.355   8.185  10.531
14784W        W78541  28.038  32.425   1.741
14785W        W78542  12.744  17.646  14.315
14786W        W78543  18.110   2.744   3.327
14787W        W78544  20.224  38.830   1.318
14788W        W78545  42.429  27.531  12.910
14789W        W78546  39.403   9.278   1.210
14790W        W78547  37.904  12.709  12.920
14791W        W78548  28.559  28.551   1.351
14792W        W78549  43.449  13.226   0.290
14793W        W78550  38.350  20.640   4.770
14794W        W78551  29.654   6.894   4.168
14795W        W78552  29.644  25.081  11.589
14796W        W78553  37.915  39.064   4.243
14797W        W78554  33.479   8.668  12.993
14798W        W78555   9.659  37.854  10.613
14799W        W78556  40.802  27.640   0.730
14800W        W78557  39.021   0.873   1.286
14801W        W78558  37.952  43.899   4.192
14802W        W78559  26.507  17.600  14.280
14803W        W78560  19.252   5.841  14.484
14804W        W78561  37.933   2.283  14.828
14805W        W78562  31.477  22.638  11.050
14806W        W78563   4.228  17.289   1.418
14807W        W78564  30.995  35.923   0.798
14808W        W78565  13.837  11.709   0.813
14809W        W78566  41.354  33.496   3.766
14810W        W78567   1.342  36.906  12.891
14811W        W78568  34.384  22.691   3.636
14812W        W78569  24.105  38.532   0.846
14813W        W78570  12.264  39.501   4.769
14814W        W78571   2.349   5.365  11.595
14815W        W78572   1.467  37.417  14.501
14816W        W78573  43.950  26.562   4.720
14817W        W78574  15.313  21.021   2.754
14818W        W78575   3.901  41.010  11.948
14819W        W78576  19.687  28.127   1.816
14820W        W78577  38.841  16.266  14.406
14821W        W78578  22.210   1.765   4.141
14822W        W78579  32.617  41.486   0.406
14823W        W78580   1.879   3.879  12.883
14824W        W78581  36.410  19.721  10.492
14825W        W78582   2.335  44.266  10.494
14826W        W78583  39.906  31.070   2.206
14827W        W78584  23.189  21.750  14.502
14828W        W78585  16.263  19.062   2.672
14829W        W78586  33.584  22.207  12.402
14830W        W78587  27.447   8.168  12.962
14831W        W78588  42.821  34.603  11.966
14832W        W78589  28.136  30.989   3.338
14833W        W78590  30.547  23.189  14.467
14834W        W78591  33.603  25.032   2.351
14835W        W78592  19.656   8.714   0.392
14836W        W78593  28.497  18.673   1.275
14837W        W78594  27.552  12.837  14.362
14838W        W78595  23.074  21.642   4.678
14839W        W78596   4.229  36.511  10.902
14840W        W78597   0.395  39.368  14.921
14841W        W78598  27.169   0.777  11.591
14842W        W78599  44.867  14.747   1.300
14843W        W78600  32.961   8.189   4.128
14844W        W78601  44.272  43.282   3.659
14845W        W78602  26.091  19.103   2.761
14846W        W78603  32.491  16.080  10.422
14847W        W78604   5.923  11.151   3.317
14848W        W78605  40.420   0.319   3.173
14849W        W78606  10.690  28.059   0.291
14850W        W78607  44.911  38.359  10.619
14851W        W78608   6.341  33.015   1.896
14852W        W78609  38.930  43.440   4.666
14853W        W78610   8.729  27.028   4.168
14854W        W78611  41.307  34.037   3.367
14855W        W78612  12.763  24.993  11.395
14856W        W78613   3.817  13.672   2.732
14857W        W78614  33.391   8.182  11.552
14858W        W78615  38.358   2.399  13.889
14859W        W78616  16.127   1.819  10.957
14860W        W78617  36.417   4.915   2.756
14861W        W78618  27.593  13.111  10.922
14862W        W78619  35.086  23.115  11.877
14863W        W78620  36.980  28.977  14.892
14864W        W78621  19.615  21.049   2.869
14865W        W78622  12.344  42.414   4.739
14866W        W78623  39.523  14.177  13.310
14867W        W78624  14.761  38.076   4.689
14868W        W78625   7.256  24.073   4.245
14869W        W78626   3.921  22.549   4.814
14870W        W78627  20.575  13.235   0.380
14871W        W78628  31.104  17.644  11.860
14872W        W78629   2.943  15.214  11.929
14873W        W78630  21.064  13.261  11.434
14874W        W78631   8.291  19.699  12.413
14875W        W78632  42.931  35.954   4.776
14876W        W78633  19.597  27.066   4.794
14877W        W78634  44.769  42.423   0.310
14878W        W78635  21.642   8.406   2.769
14879W        W78636  35.932  39.318   1.309
14880W        W78637  21.741  37.874   2.848
14881W        W78638  18.146  32.113   2.775
14882W        W78639  36.452   9.696  11.539
14883W        W78640   2.763  20.169  13.425
14884W        W78641   3.898   8.869   4.682
14885W        W78642  30.924  34.459  12.414
14886W        W78643  12.217  34.068   1.234
14887W        W78644  20.548  38.394  14.286
14888W        W78645  37.535  35.490  13.052
14889W        W78646  20.196  17.743  10.531
14890W        W78647  40.031  12.752   4.243
14891W        W78648  21.116  10.330   0.354
14892W        W78649  31.475  23.185  12.949
14893W        W78650  33.031  17.658  10.642
14894W        W78651  12.786  36.039   4.606
14895W        W78652  26.084   9.315  10.446
14896W        W78653  19.183   2.729  14.514
14897W        W78654   0.791  29.668  12.999
14898W        W78655  29.628  13.696   2.343
14899W        W78656  24.058   5.822   2.777
14900W        W78657  28.649  40.967  14.457
14901W        W78658  36.004  27.686   4.598
14902W        W78659  20.221  11.807  10.405
14903W        W78660  18.676  22.513  12.576
14904W        W78661  13.243   1.415   3.299
14905W        W78662   9.317  38.456  12.976
14906W        W78663  44.432   4.903   3.786
14907W        W78664  43.315  24.699  10.934
14908W        W78665  43.888  28.121   0.733
14909W        W78666  33.881  36.016  12.551
14910W        W78667  35.503  38.474  14.901
14911W        W78668  15.752  32.415   3.255
14912W        W78669  26.030   6.265   2.310
14913W        W78670  26.612  13.711  10.521
14914W        W78671  34.959  31.911   2.319
14915W        W78672  30.441  21.243  12.989
14916W        W78673  42.864   4.827   0.266
14917W        W78674  21.259  44.264   1.247
14918W        W78675  11.141  14.194  11.589
14919W        W78676  11.178  40.309  14.832
14920W        W78677  18.233   1.322  12.953
14921W        W78678  29.478   7.840   4.238
14922W        W78679  18.701  41.407   3.656
14923W        W78680   4.713  26.460   4.832
14924W        W78681  15.582  24.019  11.030
14925W        W78682  45.000  21.066   1.774
14926W        W78683   5.207  10.193  10.559
14927W        W78684  29.155  24.508  14.318
14928W        W78685  33.017  15.764  11.894
14929W        W78686   8.294  39.440  12.514
14930W        W78687  41.430  26.474  13.344
14931W        W78688  30.975  12.708  13.354
14932W        W78689   0.406  17.227   0.895
14933W        W78690  36.459  26.120  13.814
14934W        W78691  17.085  25.006   2.287
14935W        W78692  11.214  15.700   1.755
14936W        W78693   5.223   7.365   4.145
14937W        W78694  18.651  19.708  12.509
14938W        W78695  13.224  10.282  11.070
14939W        W78696  35.527  12.288  14.375
14940W        W78697  27.153  23.180  11.888
14941W        W78698   1.432  35.494  11.950
14942W        W78699  44.006  21.124  10.413
14943W        W78700   5.690  36.456   2.732
14944W        W78701  19.091  34.045  14.827
14945W        W78702  20.598  20.555  13.475
14946W        W78703  39.911  12.292  12.579
14947W        W78704   0.800   6.308  10.029
14948W        W78705  33.995   8.401   4.355
14949W        W78706  35.519   5.761   1.836
14950W        W78707  31.406  27.103   2.668
14951W        W78708  16.804   6.885   0.354
14952W        W78709  19.745  28.180  13.969
14953W        W78710  22.588  20.647   1.366
14954W        W78711  18.668   1.244  13.414
14955W        W78712  30.467  31.410   2.738
14956W        W78713  34.503  34.376   3.275
14957W        W78714   3.282  44.789   2.826
14958W        W78715  26.491   0.413   1.834
14959W        W78716   4.846  44.335   4.742
14960W        W78717   6.298   2.882  10.432
14961W        W78718  10.225  24.981   4.767
14962W        W78719   4.715   9.225  14.400
14963W        W78720  13.304  33.898  13.396
14964W        W78721  39.917  18.646   3.832
14965W        W78722   1.952  16.272   3.824
14966W        W78723   0.252   7.293  10.415
14967W        W78724   8.853   0.360   0.757
14968W        W78725  24.993  22.074  13.013
14969W        W78726  42.381   5.356   3.318
14970W        W78727  10.801  34.052   2.402
14971W        W78728  37.997  29.655   1.802
14972W        W78729  19.188  10.141   2.317
14973W        W78730  24.491  21.539  14.859
14974W        W78731  24.215  26.581  11.433
14975W        W78732  14.168  26.585  12.982
14976W        W78733  44.338  23.999  14.954
14977W        W78734  41.474  41.458   3.849
14978W        W78735  43.842  29.562   2.752
14979W        W78736   5.770  25.045   1.840
14980W        W78737  32.975  44.393  12.915
14981W        W78738   0.346  19.652   1.783
14982W        W78739   5.892   2.766  14.301
14983W        W78740   2.956  11.718  13.818
14984W        W78741  38.828   6.738  13.957
14985W        W78742  44.911  14.307  10.544
14986W        W78743  38.826   8.846  12.034
14987W        W78744   4.268   7.261   3.810
14988W        W78745  30.522   9.175  13.391
14989W        W78746  37.443  16.119  14.779
14990W        W78747  24.041   2.811   1.405
14991W        W78748  38.824  21.046   2.871
14992W        W78749  15.793  11.795   0.349
14993W        W78750  40.336  38.493   0.921
14994W        W78751   9.352  22.727   2.819
14995W        W78752  15.096  28.117   1.356
14996W        W78753  39.553  37.857   4.673
14997W        W78754  33.929   1.975  14.370
14998W        W78755   5.236  22.056   3.866
14999W        W78756   4.227  18.545   1.764
15000W        W78757  37.413  20.146   2.253
15001W        W78758  27.661  15.592  14.305
15002W        W78759  23.156  28.135   3.856
15003W        W78760  21.261   8.717   1.901
15004W        W78761  40.955   0.769  12.836
15005W        W78762   0.462   1.893  10.914
15006W        W78763  14.599  38.888  12.445
15007W        W78764  16.293   6.184  13.452
15008W        W78765   1.804  22.138  11.424
15009W        W78766  30.993  29.165   5.273
15010W        W78767   8.402  26.590  12.359
15011W        W78768  20.631  26.515   3.172
15012W        W78769  11.649  41.951  10.509
15013W        W78770  43.391  28.529  12.909
15014W        W78771  37.499   9.824  10.979
15015W        W78772  25.565  38.886   1.382
15016W        W78773  19.221   3.346  12.467
15017W        W78774  44.445  39.444   1.213
15018W        W78775  23.605  19.682  13.489
15019W        W78776   0.758  32.070   4.300
15020W        W78777  10.207  44.932  10.951
15021W        W78778   1.860  37.531  11.868
15022W        W78779  39.376  12.124   4.787
15023W        W78780  34.602  34.070  12.544
15024W        W78781  32.998  26.192  14.510
15025W        W78782  34.951  25.012  14.406
15026W        W78783  41.521   7.893  12.478
15027W        W78784  31.995  35.971   2.179
15028W        W78785   1.472   8.787  11.948
15029W        W78786  26.171  23.680   1.871
15030W        W78787   6.808  44.855   2.343
15031W        W78788  32.455  33.446  14.440
15032W        W78789   3.738  37.944  13.509
15033W        W78790  13.698  23.691  14.822
15034W        W78791   4.865  38.536  12.503
15035W        W78792  21.716  35.513  12.860
15036W        W78793  27.011  43.899  13.547
15037W        W78794  30.546  19.550   0.789
15038W        W78795   9.777  44.381  12.987
15039W        W78796  36.010  11.163   3.858
15040W        W78797  32.994   1.270   0.402
15041W        W78798  14.173  33.040   1.247
15042W        W78799  40.454   1.850   1.720
15043W        W78800  37.836  26.476   3.850
15044W        W78801  39.559  38.491   1.887
15045W        W78802  19.663   1.831   2.860
15046W        W78803  17.306  44.895   4.832
15047W        W78804   5.757   4.754  13.417
15048W        W78805  34.380  43.400   0.940
15049W        W78806  44.441  15.266   5.165
15050W        W78807  15.772   9.393  13.438
15051W        W78808   2.920  36.440  14.002
15052W        W78809  34.948   7.301  13.397
15053W        W78810  17.766  28.583  11.060
15054W        W78811  20.216  25.051   1.283
15055W        W78812   0.752  11.319   0.896
15056W        W78813  13.200  39.536   3.720
15057W        W78814  25.604  33.913  11.506
15058W        W78815  37.344  32.576   2.829
15059W        W78816  13.784  19.678   2.706
15060W        W78817   8.814   8.324  10.614
15061W        W78818  11.629  19.165  13.965
15062W        W78819  42.885  36.078  10.097
15063W        W78820  33.102  30.949  13.466
15064W        W78821  33.547   4.909   4.213
15065W        W78822  17.084  15.609   1.239
15066W        W78823  23.059  16.593  12.942
15067W        W78824   2.922  29.433  14.798
15068W        W78825  39.551  36.550  12.496
15069W        W78826  31.411   4.426  14.374
15070W        W78827  11.764  34.569  10.138
15071W        W78828  32.524  12.159   1.788
15072W        W78829  33.608  34.028  11.450
15073W        W78830  35.032  42.414   2.179
15074W        W78831  41.390   7.707  13.398
15075W        W78832  12.162  11.144   2.848
15076W        W78833  11.730  11.653   1.925
15077W        W78834  16.261   1.279  13.002
15078W        W78835  44.356  18.552   1.856
15079W        W78836  16.805  37.386   3.349
15080W        W78837   3.743  18.135  13.913
15081W        W78838  37.858  37.397  10.078
15082W        W78839  12.329  36.933   0.798
15083W        W78840  42.522  38.958   0.381
15084W        W78841  31.105   6.792   1.795
15085W        W78842  34.442  33.480  11.484
15086W        W78843   9.686  13.767  11.049
15087W        W78844  13.297  38.424   3.246
15088W        W78845   5.873   2.896  10.620
15089W        W78846  34.994  39.359   2.782
15090W        W78847  13.712   5.729  12.978
15091W        W78848  24.487  21.254  14.330
15092W        W78849   2.412  20.717   2.318
15093W        W78850   9.842  14.700  14.965
15094W        W78851   4.380   2.948   2.404
15095W        W78852  23.237  43.908   2.714
15096W        W78853  13.214  26.142  13.312
15097W        W78854  20.643   4.704  14.295
15098W        W78855  26.981  32.088   4.812
15099W        W78856  15.259  21.738   4.756
15100W        W78857  15.721  10.315  14.810
15101W        W78858  17.683  25.612   3.631
15102W        W78859  28.476  33.982   0.477
15103W        W78860  28.617  37.339   1.416
15104W        W78861  37.422  29.603  11.574
15105W        W78862  11.801   8.219   2.706
15106W        W78863  43.955  19.649   0.406
15107W        W78864  44.844  24.027   3.190
15108W        W78865  15.616   6.802  14.329
15109W        W78866  37.472   1.261   0.948
15110W        W78867  43.996  25.082   3.785
15111W        W78868  19.185  17.288   2.416
15112W        W78869  30.064  38.932   0.819
15113W        W78870  23.203  33.072   0.783
15114W        W78871   9.688  38.062  12.048
15115W        W78872  14.254  13.723  14.435
15116W        W78873  30.919   2.364  12.849
15117W        W78874   3.937  17.663   0.741
15118W        W78875  30.992   0.473   3.665
15119W        W78876  33.967  17.563   2.864
15120W        W78877   6.708   3.258   3.807
15121W        W78878   4.360   2.282  12.935
15122W        W78879   3.764  43.907   9.673
15123W        W78880  40.928   7.754  14.312
15124W        W78881   4.416  24.536  10.571
15125W        W78882  31.464   2.936  13.817
15126W        W78883  38.881  32.589  13.361
15127W        W78884  24.212  21.023  14.315
15128W        W78885  39.909  28.466   3.177
15129W        W78886  43.806  35.102   4.250
15130W        W78887  19.119  15.640  13.475
15131W        W78888  23.665  15.656   1.323
15132W        W78889  15.289  32.929   0.961
15133W        W78890   9.711  15.255  13.804
15134W        W78891  36.931  37.054  14.318
15135W        W78892  16.132  30.564   3.152
15136W        W78893  20.615  33.427   4.234
15137W        W78894  27.590  30.135  14.030
15138W        W78895  29.443  17.581  11.531
15139W        W78896  36.040  22.134   1.370
15140W        W78897  19.124  11.675   0.789
15141W        W78898  43.290  43.332  13.952
15142W        W78899  17.691  36.941  11.077
15143W        W78900   1.296  41.351  12.457
15144W        W78901   9.268  12.678   4.774
15145W        W78902   9.696  37.946  14.840
15146W        W78903  30.424  31.923   1.926
15147W        W78904  35.579  10.162  11.069
15148W        W78905   6.811   5.835  10.974
15149W        W78906  26.055  41.932  13.380
15150W        W78907   8.872  17.667  12.509
15151W        W78908   3.418  24.524   1.314
15152W        W78909   0.854  24.566   2.315
15153W        W78910  15.224  26.548  10.436
15154W        W78911  21.038  37.450  11.085
15155W        W78912  41.535   5.712  11.018
15156W        W78913   8.171  11.278  11.535
15157W        W78914  23.157  11.184   4.116
15158W        W78915  33.458  17.150   2.694
15159W        W78916  36.852   1.881   3.197
15160W        W78917   8.825  30.143  14.471
15161W        W78918   3.750  27.010   1.853
15162W        W78919  14.682  15.131   0.297
15163W        W78920  38.325   7.872  11.881
15164W        W78921  33.413  35.410   3.805
15165W        W78922   3.878  42.932  13.865
15166W        W78923  38.535  33.608   4.225
15167W        W78924  38.382  21.544   4.673
15168W        W78925  30.149  37.361   1.891
15169W        W78926   9.700  11.354  11.433
15170W        W78927  30.953  39.496  12.025
15171W        W78928  13.313  31.975  11.936
15172W        W78929   2.758   5.221   0.468
15173W        W78930  28.448  27.571   4.766
15174W        W78931   0.297  12.691  10.520
15175W        W78932  10.805  38.872   0.781
15176W        W78933  39.467  27.031   1.919
15177W        W78934  11.766  29.470  11.969
15178W        W78935  23.636  40.814  10.587
15179W        W78936  13.711  16.092  11.055
15180W        W78937  14.233  12.145   4.821
15181W        W78938  25.006  25.122  14.500
15182W        W78939  44.391  26.961   2.397
15183W        W78940  12.725   4.359  14.506
15184W        W78941   0.360  16.136  13.526
15185W        W78942  44.874  38.889   2.183
15186W        W78943  42.386   4.896  12.510
15187W        W78944  26.670  38.835  12.871
15188W        W78945  31.090  20.171  11.989
15189W        W78946  34.388  21.091  13.867
15190W        W78947  32.128  21.128   3.703
15191W        W78948  34.492  14.650  14.785
15192W        W78949   9.299   6.275  14.865
15193W        W78950   8.817  38.535  12.080
15194W        W78951  38.935   3.802   0.390
15195W        W78952  15.732  41.913   5.291
15196W        W78953   2.290  25.148   2.268
15197W        W78954   2.755  24.996   2.884
15198W        W78955  18.104  14.109  11.550
15199W        W78956  28.553  20.527  14.945
15200W        W78957  15.312  35.085  11.881
15201W        W78958  16.650  14.651  10.159
15202W        W78959   0.438   1.253   4.609
15203W        W78960  36.888  12.321  13.047
15204W        W78961  33.979   1.463  14.002
15205W        W78962  43.956  21.229  12.518
15206W        W78963  37.943  38.412  12.863
15207W        W78964   6.845  11.658  10.531
15208W        W78965  39.962   1.365  13.961
15209W        W78966  12.613  19.185  12.873
15210W        W78967  16.202   7.711  11.373
15211W        W78968   7.908  14.115   3.685
15212W        W78969  28.525  39.985   0.785
15213W        W78970  44.848  35.459   1.266
15214W        W78971   4.360  40.012   3.150
15215W        W78972  29.503   0.456   4.311
15216W        W78973  11.301  14.155   1.406
15217W        W78974  16.161  43.847  13.022
15218W        W78975  12.637  33.888   3.630
15219W        W78976  12.134  20.118   1.881
15220W        W78977   7.233  11.129  10.997
15221W        W78978  36.416  44.370   2.678
15222W        W78979  38.025  38.048  13.967
15223W        W78980   4.939  38.487  11.971
15224W        W78981  16.689   4.895   3.688
15225W        W78982  14.600  30.566  12.835
15226W        W78983   6.314   1.777   4.147
15227W        W78984  16.101  25.560  10.639
15228W        W78985  41.817  34.925   1.325
15229W        W78986   4.848  24.568   2.702
15230W        W78987   5.385  16.792   5.788
15231W        W78988  16.578   0.766   9.983
15232W        W78989  24.067  19.674   3.361
15233W        W78990  23.623  32.892  13.435
15234W        W78991  28.517  24.702  10.976
15235W        W78992   0.360  30.118  13.023
15236W        W78993  18.126  18.717  13.907
15237W        W78994  41.928   4.248   1.927
15238W        W78995   8.284  20.168   3.302
15239W        W78996  34.423  22.107   0.368
15240W        W78997  36.045  32.035   4.320
15241W        W78998  15.227  15.752  14.944
15242W        W78999  39.937  18.128   2.810
15243W        W79000  23.189  34.501  13.915
15244W        W79001  38.536   5.385   3.275
15245W        W79002  40.402   9.315   3.696
15246W        W79003  32.956  12.748   0.823
15247W        W79004  27.515  24.693  13.001
15248W        W79005  36.538   8.277   1.785
15249W        W79006  43.343  25.541   4.692
15250W        W79007  35.073   3.904   1.725
15251W        W79008  19.211  25.100   0.386
15252W        W79009  23.023  38.073   4.229
15253W        W79010  33.121  18.067   1.230
15254W        W79011  28.035  33.003  14.476
15255W        W79012  23.735  27.657  10.889
15256W        W79013  30.481  24.492   0.356
15257W        W79014  14.793   1.371   3.794
15258W        W79015  35.393   6.233   4.720
15259W        W79016  24.668  19.143   1.719
15260W        W79017  25.484  38.871  10.510
15261W        W79018  44.349  26.139   4.199
15262W        W79019  42.932  38.882   4.163
15263W        W79020  14.266  12.761  11.936
15264W        W79021  27.657  36.437   2.899
15265W        W79022  34.384  17.584  12.532
15266W        W79023  28.120  31.422  13.955
15267W        W79024  41.929  15.113  11.011
15268W        W79025   3.720  17.301   3.734
15269W        W79026  33.029  37.540  13.928
15270W        W79027   0.977  25.607  11.551
15271W        W79028  28.975  36.942  14.975
15272W        W79029  27.552  33.583  13.926
15273W        W79030   1.901  31.569   4.274
15274W        W79031   3.861  12.715  10.564
15275W        W79032  38.452   8.839  12.083
15276W        W79033   8.689  28.609   2.702
15277W        W79034   5.815   3.274   2.322
15278W        W79035  20.061  26.966  12.828
15279W        W79036   9.787  24.530  14.324
15280W        W79037  41.873  30.130  13.388
15281W        W79038  34.936   1.433  12.907
15282W        W79039   5.915  13.340  11.396
15283W        W79040  36.513  43.858   1.291
15284W        W79041  41.508  36.463  12.950
15285W        W79042  11.867  26.513   5.186
15286W        W79043  22.102  14.592   4.627
15287W        W79044  23.727  43.786  12.951
15288W        W79045  34.412  25.158  11.122
15289W        W79046  41.818  34.532   2.704
15290W        W79047  21.727  34.877   1.315
15291W        W79048  14.669   4.890   3.835
15292W        W79049  29.653  20.695  14.866
15293W        W79050  23.155   2.809   3.246
15294W        W79051  44.476  18.276  12.498
15295W        W79052  20.239  15.716   2.774
15296W        W79053  16.290  26.991   4.784
15297W        W79054  28.601  28.542  11.015
15298W        W79055  22.630   9.192  11.987
15299W        W79056  15.759  29.605   3.246
15300W        W79057  34.582  23.605   1.825
15301W        W79058  26.954  43.884  14.832
15302W        W79059  38.452  10.802  12.514
15303W        W79060  38.906  34.016  11.424
15304W        W79061   3.234  40.835   3.699
15305W        W79062  17.600  25.965  10.512
15306W        W79063  39.932  15.689   0.738
15307W        W79064  43.471  27.987   2.378
15308W        W79065  17.585   2.337  12.976
15309W        W79066  43.356  16.652  14.400
15310W        W79067   5.781  10.368   2.797
15311W        W79068  32.465   0.410   3.696
15312W        W79069  31.985  18.272   1.772
15313W        W79070  31.015  36.067  13.957
15314W        W79071  17.305  16.606   2.892
15315W        W79072  19.044  37.336  14.336
15316W        W79073  27.111  35.400  14.308
15317W        W79074  23.097  26.053  12.941
15318W        W79075  40.394   7.413  14.333
15319W        W79076  29.433   1.328  13.424
15320W        W79077   6.255  13.271  12.912
15321W        W79078  29.519  22.527   1.425
15322W        W79079  29.624  36.019   4.351
15323W        W79080  17.185  25.102  10.541
15324W        W79081   9.344  29.141   3.172
15325W        W79082   9.790  37.842   2.753
15326W        W79083  41.451   3.300  14.918
15327W        W79084  36.077   1.358   5.105
15328W        W79085  24.221   7.395  11.118
15329W        W79086  42.299  21.678   3.635
15330W        W79087  43.938  39.425  14.441
15331W        W79088  40.477  14.596   1.810
15332W        W79089  16.149  16.771  13.427
15333W        W79090  30.495  25.182  13.847
15334W        W79091  35.020   2.741  12.424
15335W        W79092  33.568  39.362   4.317
15336W        W79093  39.987  37.416  14.388
15337W        W79094  28.989  36.944  11.464
15338W        W79095   1.351  31.046  13.431
15339W        W79096   8.362  32.911  14.911
15340W        W79097  20.601  14.099   5.149
15341W        W79098  37.999  31.897   1.837
15342W        W79099   0.837  39.551  13.919
15343W        W79100  21.051  18.072  12.939
15344W        W79101  24.213  21.053  11.467
15345W        W79102   0.928  19.641  13.869
15346W        W79103   7.884  42.370   1.851
15347W        W79104  37.939  36.911  13.536
15348W        W79105   9.847  27.563  12.502
15349W        W79106  32.126  22.647   1.210
15350W        W79107  31.426  28.042   1.301
15351W        W79108  38.946   5.233  14.935
15352W        W79109  32.632  37.935  11.951
15353W        W79110  14.273   7.242  11.415
15354W        W79111  41.931  37.346  14.918
15355W        W79112  31.488  11.773  12.901
15356W        W79113   4.393  20.761  13.043
15357W        W79114   0.319  15.785   3.647
15358W        W79115   0.756   2.935  12.056
15359W        W79116  32.904  24.668  14.878
15360W        W79117  20.656  21.033  13.426
15361W        W79118   7.407  16.084   2.317
15362W        W79119  25.995  13.255  11.937
15363W        W79120   8.678  15.700   0.420
15364W        W79121  26.494  32.992  11.524
15365W        W79122   2.358  23.513   0.272
15366W        W79123   9.811   4.430   4.606
15367W        W79124  43.936  32.567  13.934
15368W        W79125  15.815  27.125  13.315
15369W        W79126  16.137  29.478  12.454
15370W        W79127  11.148  15.124  13.858
15371W        W79128  16.810   1.826  10.012
15372W        W79129  13.195  36.061   0.816
15373W        W79130  15.631   1.261  13.953
15374W        W79131  22.138   8.819  10.622
15375W        W79132  26.653  26.494  12.019
15376W        W79133  38.434  41.949   0.763
15377W        W79134   9.352  18.057  11.397
15378W        W79135  43.428  43.970   4.226
15379W        W79136   4.243  15.727  12.999
15380W        W79137   1.269  10.748   2.735
15381W        W79138  18.708  10.212   1.915
15382W        W79139   9.650  28.621   3.747
15383W        W79140  31.145  43.327   1.286
15384W        W79141  38.400  23.034   2.754
15385W        W79142  14.672  32.620  14.818
15386W        W79143  18.639  43.008  10.035
15387W        W79144  13.686  14.184  12.018
15388W        W79145   7.794  44.860   3.268
15389W        W79146   4.846  25.180   0.953
15390W        W79147  21.580  31.899  12.069
15391W        W79148  16.789  19.132   4.663
15392W        W79149  36.929  16.270   2.872
15393W        W79150  28.569  31.514  14.966
15394W        W79151   0.258  14.654  13.365
15395W        W79152  38.976  35.508  12.834
15396W        W79153  15.668  23.505   1.808
15397W        W79154  39.545  31.469   0.439
15398W        W79155  27.969  18.606   9.957
15399W        W79156  14.805  31.124   3.792
15400W        W79157  19.167   1.918  14.353
15401W        W79158  12.688  16.112  10.639
15402W        W79159  13.123  44.857   2.384
15403W        W79160  25.602   8.235  13.905
15404W        W79161  13.321   5.439   1.236
15405W        W79162  37.861  38.025  11.581
15406W        W79163  29.460  37.870  12.067
15407W        W79164  30.551  31.085  13.418
15408W        W79165  26.001  32.053  11.541
15409W        W79166   4.826   3.373   0.743
15410W        W79167  25.975  18.585   3.693
15411W        W79168  44.901  20.591  11.497
15412W        W79169  10.201  37.568  13.532
15413W        W79170  27.097  10.377  11.034
15414W        W79171  35.105  20.264   4.614
15415W        W79172  15.213  34.488  13.880
15416W        W79173  25.568  41.930  14.470
15417W        W79174  28.553  17.653   4.123
15418W        W79175  29.448  28.114   2.388
15419W        W79176  12.248   3.287   3.220
15420W        W79177   7.786   8.171   0.906
15421W        W79178  24.071  43.808  11.906
15422W        W79179  38.548  24.714   4.630
15423W        W79180   8.199  18.590  11.498
15424W        W79181   5.394   4.750   9.958
15425W        W79182  41.947  13.626   3.795
15426W        W79183  31.598  13.667   0.726
15427W        W79184  14.178  23.498   3.362
15428W        W79185  25.676  32.087   1.917
15429W        W79186  17.640  43.829  13.868
15430W        W79187  42.872  20.131   3.286
15431W        W79188  17.683  18.714  11.922
15432W        W79189  34.903   3.344   4.645
15433W        W79190  40.524   0.896   2.900
15434W        W79191  33.076  40.838  11.566
15435W        W79192  16.775   8.161  14.032
15436W        W79193   9.243  43.427   0.816
15437W        W79194  41.929   7.336   0.877
15438W        W79195  22.672  22.695  11.568
15439W        W79196  43.000  20.579  10.473
15440W        W79197  36.931  13.311   3.767
15441W        W79198  39.050   8.728   1.784
15442W        W79199  30.428  37.473   3.853
15443W        W79200  41.425  36.916   4.158
15444W        W79201  25.531  35.023   0.304
15445W        W79202  37.520   1.331   5.178
15446W        W79203   3.365  43.929   2.385
15447W        W79204  19.157   4.923  11.454
15448W        W79205  15.623  42.354   0.481
15449W        W79206   2.966  44.777   4.653
15450W        W79207  18.726   2.957   2.196
15451W        W79208  37.414  20.233  10.582
15452W        W79209  22.586  37.965   2.754
15453W        W79210   1.942  37.082   3.331
15454W        W79211  19.187   5.933  14.876
15455W        W79212  35.041  28.625   5.127
15456W        W79213   0.957   3.399  11.004
15457W        W79214   1.781  13.653   4.245
15458W        W79215  24.002   6.892  10.623
15459W        W79216  24.567  15.310   0.247
15460W        W79217  31.467  36.896   0.450
15461W        W79218  40.324  24.209   4.284
15462W        W79219  37.442  44.471  11.092
15463W        W79220  21.599  21.742   1.422
15464W        W79221  39.064  43.281  11.877
15465W        W79222   2.869   6.788  12.835
15466W        W79223  26.651   0.324  11.537
15467W        W79224  37.076   0.357  14.027
15468W        W79225  19.067  13.781  11.533
15469W        W79226  16.134  44.269  12.508
15470W        W79227   4.802  44.768   1.229
15471W        W79228  33.944  29.657   0.966
15472W        W79229  28.614   5.284  11.506
15473W        W79230  26.036   4.411  11.467
15474W        W79231  21.618  13.823   3.797
15475W        W79232  30.586  36.512   3.154
15476W        W79233  44.893   9.157   2.339
15477W        W79234  33.059   2.900  11.472
15478W        W79235  28.482  39.002   4.609
15479W        W79236  22.537  17.717   1.391
15480W        W79237  43.286  28.588   0.952
15481W        W79238  34.444   1.866  11.943
15482W        W79239   7.830  44.423   3.842
15483W        W79240  20.214  23.660   3.735
15484W        W79241  40.996  41.989   0.313
15485W        W79242   2.348  35.370  14.882
15486W        W79243  22.743   4.817   2.252
15487W        W79244  44.979  37.853  11.987
15488W        W79245   7.722   0.802   3.832
15489W        W79246  22.010  29.519   2.221
15490W        W79247   7.669   9.207   1.886
15491W        W79248   3.862   3.853   4.670
15492W        W79249  22.601  30.010   1.736
15493W        W79250  28.073  10.360   5.116
15494W        W79251  17.670  22.032  12.899
15495W        W79252  40.996  36.401  13.875
15496W        W79253  23.161  37.014  13.034
15497W        W79254  22.201  34.956  12.893
15498W        W79255  39.547  16.205  13.814
15499W        W79256  39.432   0.858   1.417
15500W        W79257  26.001  11.151  10.965
15501W        W79258  30.531  42.981  12.389
15502W        W79259  22.533  38.951  11.891
15503W        W79260   1.260  14.314  12.938
15504W        W79261  17.297  44.412   4.739
15505W        W79262  10.837  19.183  13.852
15506W        W79263  12.648  26.469  13.363
15507W        W79264  28.152  42.975   2.701
15508W        W79265   8.361  18.576   2.722
15509W        W79266  19.149  11.666  12.941
15510W        W79267  23.069  37.919   3.697
15511W        W79268  27.988   4.379  14.018
15512W        W79269  37.994  41.948  14.016
15513W        W79270  16.144  24.720  13.803
15514W        W79271  33.531  27.026  12.889
15515W        W79272  18.615  36.526   3.655
15516W        W79273  32.613  20.597  12.367
15517W        W79274  16.296  23.608   3.248
15518W        W79275  25.174  17.755   1.323
15519W        W79276  33.013   2.469  11.408
15520W        W79277  36.846   4.871   0.765
15521W        W79278   2.749  33.944   4.197
15522W        W79279  28.142  24.099  10.608
15523W        W79280  29.570  36.529   1.722
15524W        W79281  29.062  33.530  11.092
15525W        W79282  14.335   4.912   3.168
15526W        W79283  44.877  33.548  10.414
15527W        W79284   4.752  14.241  13.368
15528W        W79285  21.601  19.088  11.984
15529W        W79286   5.914   7.704  10.412
15530W        W79287  29.053  26.952   0.877
15531W        W79288  31.019  12.345  13.017
15532W        W79289  44.473  28.547  11.492
15533W        W79290  29.523  36.056  14.342
15534W        W79291   1.240  11.829  12.567
15535W        W79292  20.112   5.810  13.036
15536W        W79293  27.593  17.578   2.331
15537W        W79294  22.542  25.629  12.522
15538W        W79295  43.430  37.031   4.747
15539W        W79296   3.710  28.986  13.469
15540W        W79297  15.211  16.648   3.808
15541W        W79298   9.850  17.206   4.197
15542W        W79299   3.444  14.612   4.672
15543W        W79300  28.178  27.065   0.850
15544W        W79301  29.547  39.818  12.983
15545W        W79302   4.344  26.682   4.272
15546W        W79303  30.592  36.361   1.832
15547W        W79304  40.927   3.913  12.487
15548W        W79305   1.835  33.442   2.296
15549W        W79306  24.569  20.643  14.893
15550W        W79307   7.874  44.474  11.470
15551W        W79308  31.600  30.531   2.762
15552W        W79309  19.076  30.910  10.617
15553W        W79310  13.285   6.916   2.298
15554W        W79311   0.931  26.986  14.835
15555W        W79312  41.957  23.681  13.892
15556W        W79313  43.844  11.661  14.873
15557W        W79314  43.858  32.568   3.371
15558W        W79315   3.322  44.362   4.264
15559W        W79316  14.608  36.945   4.811
15560W        W79317  20.663  14.098  12.470
15561W        W79318  32.940  22.683  11.538
15562W        W79319  30.549  33.927   0.735
15563W        W79320  20.749  28.062   1.810
15564W        W79321  43.935  22.055   1.753
15565W        W79322  35.100  14.231   4.781
15566W        W79323  27.147   1.243   1.343
15567W        W79324  27.016  38.480  14.931
15568W        W79325  36.537  41.396  11.871
15569W        W79326  14.816  22.531  11.521
15570W        W79327  20.609  39.034  12.547
15571W        W79328  27.037  27.058  11.540
15572W        W79329   5.701  40.519   0.279
15573W        W79330  38.539   7.339   4.740
15574W        W79331   9.348  26.549   0.275
15575W        W79332  19.274   6.777  12.339
15576W        W79333  30.946   6.746  13.939
15577W        W79334  19.610  30.618   1.450
15578W        W79335   3.798  41.354   0.877
15579W        W79336  22.238  26.009   3.349
15580W        W79337  31.442  19.555   1.329
15581W        W79338   6.228  32.510   1.848
15582W        W79339   9.723  10.285  14.931
15583W        W79340  26.606  20.210   3.317
15584W        W79341  13.797  44.344   2.194
15585W        W79342  16.744  13.179  11.544
15586W        W79343  43.815   5.228   2.228
15587W        W79344  17.774  10.376  10.917
15588W        W79345   1.380  21.035  11.106
15589W        W79346  17.283  24.703  13.385
15590W        W79347  17.118  38.885   0.408
15591W        W79348   1.924  13.290  10.442
15592W        W79349  14.830  36.423  11.869
15593W        W79350   5.254   3.366  14.771
15594W        W79351  30.465  10.703  13.361
15595W        W79352  33.949  33.923   0.887
15596W        W79353  39.466  10.139   1.935
15597W        W79354  31.951  12.831   0.463
15598W        W79355  31.564   5.396   5.620
15599W        W79356  17.621   8.776   2.221
15600W        W79357  27.040  28.676   3.741
15601W        W79358  37.443  18.263  14.441
15602W        W79359  44.498  36.040  11.065
15603W        W79360  13.323  40.524  12.386
15604W        W79361  43.403  26.113  10.487
15605W        W79362  39.916  24.534   4.208
15606W        W79363   9.228  44.416  10.592
15607W        W79364   7.784   4.774   2.333
15608W        W79365  26.478  36.568  14.369
15609W        W79366  19.164  39.950   0.413
15610W        W79367  34.988  20.575  12.470
15611W        W79368  26.208  24.134  13.876
15612W        W79369  43.004  32.919  14.813
15613W        W79370  16.747   0.804  13.804
15614W        W79371  31.990  34.595   2.310
15615W        W79372  26.002  20.182  12.059
15616W        W79373  40.467   0.848  13.504
15617W        W79374   7.804  42.486  10.034
15618W        W79375  30.095   9.851   4.838
15619W        W79376  12.722  43.766  13.325
15620W        W79377  37.945  11.237   0.328
15621W        W79378  26.017  32.476   3.744
15622W        W79379  38.882  27.633  10.009
15623W        W79380  16.262  39.352   3.260
15624W        W79381  36.007  12.664  12.040
15625W        W79382  41.476  29.994  11.097
15626W        W79383  44.980  13.117  11.124
15627W        W79384  29.459  26.131   0.893
15628W        W79385   2.349  32.537  14.830
15629W        W79386  39.838  24.045  14.339
15630W        W79387  13.206  17.701   0.409
15631W        W79388  44.354  18.781  11.038
15632W        W79389  14.790   4.917   4.715
15633W        W79390  42.427  24.516  11.522
15634W        W79391   8.878   1.933  14.369
15635W        W79392  35.953  40.475   2.773
15636W        W79393  11.355  10.850   0.805
15637W        W79394  17.175  26.572  10.040
15638W        W79395  40.799  12.838   2.727
15639W        W79396  11.294   3.747  12.537
15640W        W79397  35.387  11.292  11.043
15641W        W79398  33.441  10.262  12.050
15642W        W79399  41.936  16.188  12.888
15643W        W79400  11.699   7.738   1.407
15644W        W79401   6.764  23.121   1.232
15645W        W79402  19.258   5.429  14.910
15646W        W79403  27.077  33.087  12.959
15647W        W79404  17.774   8.310  11.967
15648W        W79405  15.167  15.594  11.457
15649W        W79406  30.140  12.766   2.668
15650W        W79407  24.532  12.766  11.583
15651W        W79408  43.896  30.609   2.696
15652W        W79409  36.493  18.562   2.197
15653W        W79410  13.169   7.380  11.537
15654W        W79411  28.517  35.419   0.804
15655W        W79412  37.450  10.876   2.879
15656W        W79413  29.926  42.844   0.270
15657W        W79414   1.782  20.072  14.887
15658W        W79415  28.038  35.563   4.824
15659W        W79416  13.160   2.737   3.747
15660W        W79417  35.384  17.221  14.768
15661W        W79418  16.085  43.962  13.804
15662W        W79419  13.614  27.980  13.364
15663W        W79420  21.655  15.130   4.347
15664W        W79421  41.006  13.841  11.560
15665W        W79422   4.338  14.217   2.720
15666W        W79423  42.958  15.132   0.252
15667W        W79424  22.034  29.560  10.643
15668W        W79425   3.943  36.555  13.896
15669W        W79426  41.503  42.370  14.903
15670W        W79427  20.670  35.384  14.428
15671W        W79428  43.378  20.727  11.050
15672W        W79429  40.847   2.956   4.691
15673W        W79430  33.539  17.113   1.869
15674W        W79431  14.631  29.049  13.541
15675W        W79432  23.196  11.332  14.894
15676W        W79433  41.925   1.920  14.363
15677W        W79434   8.304  12.684  11.123
15678W        W79435   3.779  34.489  13.991
15679W        W79436  44.773  26.471   3.706
15680W        W79437  16.666  15.615  10.642
15681W        W79438   5.745  23.730   1.878
15682W        W79439  36.563  37.948   4.281
15683W        W79440  19.718  42.367  11.922
15684W        W79441  28.568   1.266   4.670
15685W        W79442   4.768   1.270   0.924
15686W        W79443  11.222  39.885  13.542
15687W        W79444  20.524  35.992  10.643
15688W        W79445  17.137  18.665  11.928
15689W        W79446  12.145  29.481  14.485
15690W        W79447  15.255  23.661  14.846
15691W        W79448  11.311  17.671  10.961
15692W        W79449  38.387  28.959  11.455
15693W        W79450   0.779  24.126   2.216
15694W        W79451  16.617  44.891   3.172
15695W        W79452   1.305  34.865  12.431
15696W        W79453  10.153  44.835  14.488
15697W        W79454  33.533  36.884  11.395
15698W        W79455  31.434  20.083   0.963
15699W        W79456   8.290   6.380  12.017
15700W        W79457  32.628   2.881  13.386
15701W        W79458  26.120  44.462   4.814
15702W        W79459  32.533  16.756  10.496
15703W        W79460   4.318   5.837   0.951
15704W        W79461  28.957  35.412  12.022
15705W        W79462  24.577   3.778   4.827
15706W        W79463  29.551   2.960   0.929
15707W        W79464  36.864  36.090   4.272
15708W        W79465  44.006  20.101   0.310
15709W        W79466   4.901  40.040  12.990
15710W        W79467  40.961  44.983  13.548
15711W        W79468  21.704  19.102   2.367
15712W        W79469  31.644  29.650  13.312
15713W        W79470  38.994   2.348  11.978
15714W        W79471   7.797  21.723  13.987
15715W        W79472  43.887   0.360  12.902
15716W        W79473  20.239   9.175   0.273
15717W        W79474  43.464   4.437  14.796
15718W        W79475  13.814  14.779   0.760
15719W        W79476  27.992  17.144  14.428
15720W        W79477  39.010   4.355  10.154
15721W        W79478  25.523  21.627  13.356
15722W        W79479  10.283  32.597  10.510
15723W        W79480  35.939   3.851  10.068
15724W        W79481  36.452  18.250  14.422
15725W        W79482  41.487  28.455  14.964
15726W        W79483   1.895  36.530  10.962
15727W        W79484  17.716  16.621   1.405
15728W        W79485  25.090  36.393  12.016
15729W        W79486  37.499  28.151   3.229
15730W        W79487  42.495   7.778   0.967
15731W        W79488  35.513   2.287  10.500
15732W        W79489   0.968   6.383   2.245
15733W        W79490  15.101  15.799  11.077
15734W        W79491  22.190   9.662  14.358
15735W        W79492  36.948  31.519   0.447
15736W        W79493  39.368   7.383   2.736
15737W        W79494  27.033  17.768  13.372
15738W        W79495  37.573  12.688  14.332
15739W        W79496  31.896  22.529   0.255
15740W        W79497   4.737  28.467   3.280
15741W        W79498  20.111  34.609  13.458
15742W        W79499   2.828   2.363  14.826
15743W        W79500   9.187  16.610   4.287
15744W        W79501  39.823  31.046  12.530
15745W        W79502  36.518  32.408   4.795
15746W        W79503  11.169  43.494   1.736
15747W        W79504  26.659  42.317   3.360
15748W        W79505  18.115  36.448  14.772
15749W        W79506  30.588   8.707  11.399
15750W        W79507  10.271   3.839  14.769
15751W        W79508  38.395  37.508  11.423
15752W        W79509  29.165   7.395   4.823
15753W        W79510  19.108  27.129  10.559
15754W        W79511  37.419   1.286  12.869
15755W        W79512  37.436  17.135   3.643
15756W        W79513  11.627  13.234  13.013
15757W        W79514  16.589   5.261   3.690
15758W        W79515   2.792  37.386   1.774
15759W        W79516  29.047  34.895   1.812
15760W        W79517  33.876  44.759   2.749
15761W        W79518  42.871  44.772   2.779
15762W        W79519  21.549  28.969   2.790
15763W        W79520  30.973  18.691   4.197
15764W        W79521   7.382  38.367  11.585
15765W        W79522   6.304  27.152  10.955
15766W        W79523  43.465  12.771  13.436
15767W        W79524   6.204  35.105  14.865
15768W        W79525  13.325  43.403  10.086
15769W        W79526  11.807  19.138  11.574
15770W        W79527  20.159  14.250   3.779
15771W        W79528  23.228  41.329  10.597
15772W        W79529   1.349  28.065  11.063
15773W        W79530  15.741  33.541   4.321
15774W        W79531  25.493  17.687   4.271
15775W        W79532  35.569  43.878   3.679
15776W        W79533   7.347  12.185   4.115
15777W        W79534   3.392  21.671  13.496
15778W        W79535  35.922  10.175  11.997
15779W        W79536  15.592  18.079   1.888
15780W        W79537  39.841   9.868  12.487
15781W        W79538   8.658  37.968   1.746
15782W        W79539  12.761  25.988   4.165
15783W        W79540  26.524  30.536   0.434
15784W        W79541   8.707  31.432  13.947
15785W        W79542  43.832  10.662  12.403
15786W        W79543  21.098  14.214  11.473
15787W        W79544  16.094  34.917   4.792
15788W        W79545  17.788   5.431   4.684
15789W        W79546  28.046   4.783   3.155
15790W        W79547  41.005  14.220  14.429
15791W        W79548  14.645  32.914   0.297
15792W        W79549  24.537   1.468   2.712
15793W        W79550   2.362  40.437   2.886
15794W        W79551  28.636  10.876   0.894
15795W        W79552  38.545   3.849   5.102
15796W        W79553  33.535  30.004  10.474
15797W        W79554   9.231  34.574   1.229
15798W        W79555  30.957  15.663  10.157
15799W        W79556  25.191  14.652   4.213
15800W        W79557  26.182   0.301  11.378
15801W        W79558  33.067  27.591   3.155
15802W        W79559  12.629   4.232   0.906
15803W        W79560  12.812  37.973  14.448
15804W        W79561  18.200  36.860  14.846
15805W        W79562  30.952   3.240  14.316
15806W        W79563  42.384  10.661  12.935
15807W        W79564  28.071  11.213   1.418
15808W        W79565   8.726   6.258  14.462
15809W        W79566  20.028  23.576  14.766
15810W        W79567   2.834   4.831  11.407
15811W        W79568  35.865  28.181   3.188
15812W        W79569  13.839  25.110  11.383
15813W        W79570   0.861  20.749  11.431
15814W        W79571  30.445  20.763   1.890
15815W        W79572  44.831  23.207  12.398
15816W        W79573   3.451  43.472  11.476
15817W        W79574  25.472  42.863  13.521
15818W        W79575   3.371  20.729  12.873
15819W        W79576  42.463  22.233  10.588
15820W        W79577  15.191  32.462  10.950
15821W        W79578  30.131  41.834  11.924
15822W        W79579  29.015  28.486   1.360
15823W        W79580  40.943  28.024   4.249
15824W        W79581  14.224  41.524   0.787
15825W        W79582  24.978  44.792  13.486
15826W        W79583  37.875  12.823  13.877
15827W        W79584  22.616  17.237   0.453
15828W        W79585  16.733  15.182   9.967
15829W        W79586  23.682  38.830  11.923
15830W        W79587  16.090  32.570  14.813
15831W        W79588  20.745   6.736   2.816
15832W        W79589  20.740  42.506   4.181
15833W        W79590   3.309  12.324  13.946
15834W        W79591  21.080  16.576   0.306
15835W        W79592  44.391   7.388   2.876
15836W        W79593  42.875  35.023   0.799
15837W        W79594   8.383  37.917   1.410
15838W        W79595  21.054  21.169   5.320
15839W        W79596  32.035  29.471   1.823
15840W        W79597  30.610  33.416   1.928
15841W        W79598  16.167   8.674  13.375
15842W        W79599  24.720  34.402   3.278
15843W        W79600  10.722  35.362  11.949
15844W        W79601  24.574  30.435  12.380
15845W        W79602  37.376   1.471   4.269
15846W        W79603  41.393  18.706  14.000
15847W        W79604  28.943  30.936  11.888
15848W        W79605  16.100  12.277  11.428
15849W        W79606   0.280   5.386   4.824
15850W        W79607  40.835  38.521   4.126
15851W        W79608  19.092  10.704   1.277
15852W        W79609  40.488  35.859   2.880
15853W        W79610  32.393  31.088   2.410
15854W        W79611   8.355   4.353  11.112
15855W        W79612   1.865  24.606  11.091
15856W        W79613   6.311   2.847  11.926
15857W        W79614  24.620  10.668   3.201
15858W        W79615   5.242  14.311  10.645
15859W        W79616  38.873   2.410  14.995
15860W        W79617   7.345  36.051   0.320
15861W        W79618  11.319   3.277  13.538
15862W        W79619  32.947  21.026   4.740
15863W        W79620  34.566  36.437  14.483
15864W        W79621  41.809   0.265   3.804
15865W        W79622  37.922  18.140   2.255
15866W        W79623  42.833  26.511   2.284
15867W        W79624  34.505   5.308  13.924
15868W        W79625  40.991   0.877  11.461
15869W        W79626  28.144  17.140   4.662
15870W        W79627   4.253  37.485  12.024
15871W        W79628  15.288  22.176  13.960
15872W        W79629  36.382  20.221   4.824
15873W        W79630  42.342  18.092  13.388
15874W        W79631  18.627  37.997   4.141
15875W        W79632  11.622  18.647  10.565
15876W        W79633  10.836  28.557  13.861
15877W        W79634  19.254   8.221   3.315
15878W        W79635  25.118  22.652   4.179
15879W        W79636   0.285  44.458   3.646
15880W        W79637  33.605  42.423   0.936
15881W        W79638  32.976  23.197  13.392
15882W        W79639  21.132  44.441  14.922
15883W        W79640  23.682  41.415  13.399
15884W        W79641  37.367  12.715   3.690
15885W        W79642  21.191  30.074  14.897
15886W        W79643  43.300  43.003   2.265
15887W        W79644   8.249  40.357  12.363
15888W        W79645  34.998   7.784  13.883
15889W        W79646   2.741  34.903  14.419
15890W        W79647  35.425  20.529  13.855
15891W        W79648  38.549  13.170   4.740
15892W        W79649  11.679  15.206   1.318
15893W        W79650  20.202  13.800  11.054
15894W        W79651   0.479  38.973   0.297
15895W        W79652  40.910  30.475  12.380
15896W        W79653   2.331  41.829  13.340
15897W        W79654  43.796  25.525  10.527
15898W        W79655  36.055   3.371  10.958
15899W        W79656  15.154  41.537  11.898
15900W        W79657  41.306   8.277  10.495
15901W        W79658   9.357  27.119   1.445
15902W        W79659   0.334  24.527  14.311
15903W        W79660  20.597  32.129   5.184
15904W        W79661  33.086  21.699   0.373
15905W        W79662  37.938  16.201  13.851
15906W        W79663   3.417  24.648  12.346
15907W        W79664  10.167  31.125   2.388
15908W        W79665  37.888  38.861   0.866
15909W        W79666  36.911  39.445   1.264
15910W        W79667   1.853  10.253  13.985
15911W        W79668   2.952  38.057   4.780
15912W        W79669   1.452  12.750  14.890
15913W        W79670  39.827   0.269  13.960
15914W        W79671  24.500  19.113  11.871
15915W        W79672  38.876  31.484  10.483
15916W        W79673  17.766  26.166   4.619
15917W        W79674  18.119  28.476  10.543
15918W        W79675  29.654  43.438   1.779
15919W        W79676  37.919   2.228  13.826
15920W        W79677  20.085  31.070  14.396
15921W        W79678  22.653  35.550  14.798
15922W        W79679  28.483   2.801   1.344
15923W        W79680  41.477   9.184   1.904
15924W        W79681  33.108  21.066   1.761
15925W        W79682  42.806  24.566  14.764
15926W        W79683   6.697  22.584   3.737
15927W        W79684   7.194  43.993   2.372
15928W        W79685  44.407   0.324  10.566
15929W        W79686  31.082   1.447  10.420
15930W        W79687  33.451   3.855  14.868
15931W        W79688  22.503   3.868   0.888
15932W        W79689  13.259   1.777   1.718
15933W        W79690  22.625  10.348   5.145
15934W        W79691   9.801  17.721  13.398
15935W        W79692   4.815   8.355   3.288
15936W        W79693   2.753  31.447  12.056
15937W        W79694  35.568  11.245  10.637
15938W        W79695  40.395   2.389   4.199
15939W        W79696  42.875  11.215   2.327
15940W        W79697  32.595  42.814  12.959
15941W        W79698  35.386  33.550  11.383
15942W        W79699  27.060  31.017   3.299
15943W        W79700  30.150  38.838  10.467
15944W        W79701  24.977  23.106  10.938
15945W        W79702  18.190  30.133  13.010
15946W        W79703  39.034  25.676   1.850
15947W        W79704  44.290   2.406   4.249
15948W        W79705   5.353  21.207   3.217
15949W        W79706  32.889   5.425  13.901
15950W        W79707  42.480  27.979  12.030
15951W        W79708  11.738  42.791  12.417
15952W        W79709  26.119  40.412  13.535
15953W        W79710  19.746  18.077  12.496
15954W        W79711  32.528   2.323   1.218
15955W        W79712  41.810  23.172  12.418
15956W        W79713  40.986  38.992  14.438
15957W        W79714  43.355  39.335   1.703
15958W        W79715   1.844   7.317   3.260
15959W        W79716  33.016  43.443   4.293
15960W        W79717  43.004   7.189  10.901
15961W        W79718  27.980  24.683  12.914
15962W        W79719  21.168  40.317  11.992
15963W        W79720  32.413  43.410  10.925
15964W        W79721  31.011  22.601   5.105
15965W        W79722  35.550   1.408   3.332
15966W        W79723   8.836  35.461   3.238
15967W        W79724  25.008   0.782  12.941
15968W        W79725  12.614   9.664  10.998
15969W        W79726  18.607  41.464   4.336
15970W        W79727  34.613  27.128  13.866
15971W        W79728   4.746  10.374  10.514
15972W        W79729   9.333  11.678  13.539
15973W        W79730  21.648   8.323  13.041
15974W        W79731  42.982   9.320   0.245
15975W        W79732  37.998  25.115   4.254
15976W        W79733   9.876  18.612   2.404
15977W        W79734  21.534  29.588   3.153
15978W        W79735  22.581  41.491  11.885
15979W        W79736  14.665  29.145   1.431
15980W        W79737   6.292  10.201   4.132
15981W        W79738  40.389  23.074  13.980
15982W        W79739  10.345  16.720   1.253
15983W        W79740   5.406  43.307  13.355
15984W        W79741  22.602  40.981   4.288
15985W        W79742  40.486  32.130   3.317
15986W        W79743  35.432  10.841  12.059
15987W        W79744  29.540  23.060  14.833
15988W        W79745  19.054   8.696  13.977
15989W        W79746   0.476  18.287   1.348
15990W        W79747   6.377  25.575  10.525
15991W        W79748  31.424  26.663   4.187
15992W        W79749  28.437   8.284   3.690
15993W        W79750  33.957  11.758  13.506
15994W        W79751  32.905  22.535   0.473
15995W        W79752  22.622  16.173  12.544
15996W        W79753   0.887  35.002  13.480
15997W        W79754  24.702  11.269  11.116
15998W        W79755  40.536  32.910   0.456
15999W        W79756  30.431  29.083   1.213
16000W        W79757  19.745  40.371   2.688
16001W        W79758  36.541   8.790  12.842
16002W        W79759   6.406  36.047   0.932
16003W        W79760  43.273   0.324  11.942
16004W        W79761  35.101  14.270   4.320
16005W        W79762  34.610  35.542  12.461
16006W        W79763  11.802  28.131  12.401
16007W        W79764  10.258  32.510   2.835
16008W        W79765  12.194  18.140   2.723
16009W        W79766  31.958  36.577  14.975
16010W        W79767  30.439  24.090   0.284
16011W        W79768   1.256  28.112  14.788
16012W        W79769  43.314   1.271  14.009
16013W        W79770  13.318   4.344  12.358
16014W        W79771   9.883  14.241   1.884
16015W        W79772   5.864  28.453  11.006
16016W        W79773   5.846   4.790   4.799
16017W        W79774  16.612  24.540   0.300
16018W        W79775  30.142   6.248  14.320
16019W        W79776   5.224  36.437   1.438
16020W        W79777  15.292   9.811   2.803
16021W        W79778  33.424   2.472   0.899
16022W        W79779   0.438  36.903   2.365
16023W        W79780  13.196   8.240  13.942
16024W        W79781  36.415  19.078   1.444
16025W        W79782  10.707  36.077   0.433
16026W        W79783  40.328  10.340   2.393
16027W        W79784  24.035  42.948   3.747
16028W        W79785  36.365  17.307  14.982
16029W        W79786  34.452  32.094   1.343
16030W        W79787  10.734  11.236   1.215
16031W        W79788  28.564  37.014  13.398
16032W        W79789  38.876  25.133   2.289
16033W        W79790  14.302  29.596   2.381
16034W        W79791  36.998  11.266   2.674
16035W        W79792   2.237  37.462  11.032
16036W        W79793  12.816  38.412   3.820
16037W        W79794  26.961  19.237   2.879
16038W        W79795  34.914   4.419   0.470
16039W        W79796  38.396  25.998   2.815
16040W        W79797  20.658  39.385  11.378
16041W        W79798  30.070  18.735   2.689
16042W        W79799   0.874  36.945  13.337
16043W        W79800  29.077  26.086  14.003
16044W        W79801  10.779  18.778  14.449
16045W        W79802  19.179   4.332   4.614
16046W        W79803  27.464  16.235  13.011
16047W        W79804  41.411   8.830   2.773
16048W        W79805  26.953  42.972   3.642
16049W        W79806  32.542  18.105   1.905
16050W        W79807  29.553   4.731   4.779
16051W        W79808  25.069   5.428   3.770
16052W        W79809  33.565  32.461   4.598
16053W        W79810  34.056  23.616   3.267
16054W        W79811   8.738  18.581  12.029
16055W        W79812  14.607  44.446  14.827
16056W        W79813  10.230  31.910  11.422
16057W        W79814  26.656  42.869   2.331
16058W        W79815   5.746   7.871  13.845
16059W        W79816  33.399  33.018  10.610
16060W        W79817  11.673   4.913   0.438
16061W        W79818  34.027  35.967   4.748
16062W        W79819  24.164  17.280   1.797
16063W        W79820  41.478  28.037  14.456
16064W        W79821   4.248  43.516   2.243
16065W        W79822  18.590  18.274  13.021
16066W        W79823  35.421  23.652   4.190
16067W        W79824   8.330  23.668  12.535
16068W        W79825   2.415  20.631  14.985
16069W        W79826  18.147  23.240  10.574
16070W        W79827  19.609  36.506   3.700
16071W        W79828  41.385  31.545   0.898
16072W        W79829  11.133  24.214  13.911
16073W        W79830  38.365  43.862   0.305
16074W        W79831  36.557  30.625  13.837
16075W        W79832  35.914  27.511  10.465
16076W        W79833   2.414  14.152   2.765
16077W        W79834  24.226  38.881   3.756
16078W        W79835  32.086  11.783  11.087
16079W        W79836  19.088  22.516   4.837
16080W        W79837  36.944  21.196   1.238
16081W        W79838  21.517  15.777   4.115
16082W        W79839   7.755   1.775  10.621
16083W        W79840  20.682  11.165   2.774
16084W        W79841   0.898   7.277  12.455
16085W        W79842  10.865  30.986  14.762
16086W        W79843  10.734  26.179  11.480
16087W        W79844   3.746   8.660  12.031
16088W        W79845  11.806  44.471   2.314
16089W        W79846  15.755  10.833   1.869
16090W        W79847  25.619   3.403   3.846
16091W        W79848  16.744   3.233  13.029
16092W        W79849   1.943  38.356   4.273
16093W        W79850  10.185  21.252   1.832
16094W        W79851  35.482  39.936  13.028
16095W        W79852   9.150   8.846   0.904
16096W        W79853  38.036  42.890  14.984
16097W        W79854  30.434  43.766  10.602
16098W        W79855   2.406   1.412   2.887
16099W        W79856  19.239  23.149  11.427
16100W        W79857   0.461  25.131  11.033
16101W        W79858   7.337  14.718   2.889
16102W        W79859  16.663  26.540  13.957
16103W        W79860  20.672   2.967   4.228
16104W        W79861  28.550  23.081   4.284
16105W        W79862  40.534   4.784   2.669
16106W        W79863  16.719  18.239  14.929
16107W        W79864  35.975  39.056  13.541
16108W        W79865  37.553  37.360  12.460
16109W        W79866  31.600  35.556   0.835
16110W        W79867  41.378  38.437  10.615
16111W        W79868  22.671  10.157  11.448
16112W        W79869   2.757  21.570  14.948
16113W        W79870  25.630  20.637   2.768
16114W        W79871   0.470  30.656  12.905
16115W        W79872  18.623  19.216   2.789
16116W        W79873  16.130  23.641  11.111
16117W        W79874  39.822  30.078  11.470
16118W        W79875  35.093  25.059   5.320
16119W        W79876  10.218  13.657   3.219
16120W        W79877  27.476   5.827   2.691
16121W        W79878   6.778  28.512   0.298
16122W        W79879  13.196  28.518   2.290
16123W        W79880  19.636  34.402   4.117
16124W        W79881  19.286  30.430   3.835
16125W        W79882   2.935   5.320   3.668
16126W        W79883  29.484  26.667  12.366
16127W        W79884  17.219  23.579  10.579
16128W        W79885  29.598   0.305  14.302
16129W        W79886  22.241  28.657   2.777
16130W        W79887  36.498  26.050   1.882
16131W        W79888   7.358  33.539   4.787
16132W        W79889  19.284  20.092  10.645
16133W        W79890   6.197  34.575   4.331
16134W        W79891  34.502  11.281   0.460
16135W        W79892  29.557  13.229   0.448
16136W        W79893  14.782  11.831   0.863
16137W        W79894   6.774  33.038   0.801
16138W        W79895  19.262  38.341  11.412
16139W        W79896  31.069  24.015  12.836
16140W        W79897   4.885  17.146  14.823
16141W        W79898   4.851  42.432   3.344
16142W        W79899   6.347   7.182  11.044
16143W        W79900  19.221   3.930   3.203
16144W        W79901   4.916   0.773  10.561
16145W        W79902   5.273   3.775  14.021
16146W        W79903  42.327  32.512   0.406
16147W        W79904  31.467  28.004   2.189
16148W        W79905  29.433   7.698   2.859
16149W        W79906  29.168  18.556   3.381
16150W        W79907  36.450   8.199   0.441
16151W        W79908   6.272  16.613   3.687
16152W        W79909  23.600   1.478  14.345
16153W        W79910  16.105  13.310  12.886
16154W        W79911   4.351  25.704   4.237
16155W        W79912  25.493  10.201  12.937
16156W        W79913  20.136  11.632   0.803
16157W        W79914  13.185  40.035   0.298
16158W        W79915  23.617  17.157  14.439
16159W        W79916  10.758  10.680  12.909
16160W        W79917   8.675  23.092   2.752
16161W        W79918  20.756   2.895  11.113
16162W        W79919  16.185  34.109  12.393
16163W        W79920  35.553  30.495   4.303
16164W        W79921   9.298  28.975   2.808
16165W        W79922   3.460  14.831   0.781
16166W        W79923  10.306  24.156  14.965
16167W        W79924   8.884  30.021  12.497
16168W        W79925   6.267   2.294   2.774
16169W        W79926  33.886  21.573   2.405
16170W        W79927  44.766  17.065  13.958
16171W        W79928  15.597  21.724  14.502
16172W        W79929  27.135  44.503   1.294
16173W        W79930   3.810  37.518   1.332
16174W        W79931  26.071  30.119  12.368
16175W        W79932   0.936  42.886   4.115
16176W        W79933   8.268  33.131   3.726
16177W        W79934  11.200  36.350   3.806
16178W        W79935  39.903  22.225  10.451
16179W        W79936  19.666  39.893   2.357
16180W        W79937  10.764   9.290   1.375
16181W        W79938  16.161  27.476  12.081
16182W        W79939  38.835  27.536   3.662
16183W        W79940  24.502  26.078   0.339
16184W        W79941  23.033  35.484   2.369
16185W        W79942  34.041  23.170   0.911
16186W        W79943  22.699  41.937  11.060
16187W        W79944  26.582   9.296  13.461
16188W        W79945  44.405  17.558  14.374
16189W        W79946  13.143  42.006   2.392
16190W        W79947  10.826  15.742   9.926
16191W        W79948  44.803  22.062   1.448
16192W        W79949  13.772  42.978  11.962
16193W        W79950  27.496  32.557   2.847
16194W        W79951  31.921  44.351   3.266
16195W        W79952  44.446  42.816   0.780
16196W        W79953  35.577  40.384   0.446
16197W        W79954  43.395  33.403   3.180
16198W        W79955   8.163  36.390  13.017
16199W        W79956  41.794  41.977   4.217
16200W        W79957   5.853  18.759  10.474
16201W        W79958  36.067  21.170  13.341
16202W        W79959  40.420  16.761   0.937
16203W        W79960   1.792  41.868  13.340
16204W        W79961  10.654  16.313   1.735
16205W        W79962   3.457  43.284   4.778
16206W        W79963  43.506   3.257  14.782
16207W        W79964  29.561  40.542   3.169
16208W        W79965  42.883   6.267   0.741
16209W        W79966  20.627  30.008   4.304
16210W        W79967  13.219  16.101  13.321
16211W        W79968  10.342  36.906   2.326
16212W        W79969  39.966  21.226   0.242
16213W        W79970  42.882  25.657   4.647
16214W        W79971  18.689   1.940  13.422
16215W        W79972   4.238   9.788   2.816
16216W        W79973   8.854   4.219   1.341
16217W        W79974   7.172  15.194   1.740
16218W        W79975  15.820  37.375  14.839
16219W        W79976  18.063  31.941   9.996
16220W        W79977   9.761   0.914   1.893
16221W        W79978  16.285  26.201  13.314
16222W        W79979   3.938  30.150   3.718
16223W        W79980   1.892  13.708  12.432
16224W        W79981   2.406  36.583  14.841
16225W        W79982  35.587  25.526   4.833
16226W        W79983  34.402   4.883   2.322
16227W        W79984  31.528  30.580  14.833
16228W        W79985  43.852  31.124   1.857
16229W        W79986  38.899  35.562   2.340
16230W        W79987   1.318  14.282   4.805
16231W        W79988   8.192  26.046  11.589
16232W        W79989  20.087  20.152  11.058
16233W        W79990   3.374   5.905  13.989
16234W        W79991   6.223  15.823   2.708
16235W        W79992  26.056   9.368  11.453
16236W        W79993  16.640   0.893  12.920
16237W        W79994   9.752  29.937   0.829
16238W        W79995  10.382  21.692  14.392
16239W        W79996   2.428  27.584   2.357
16240W        W79997  26.653  29.539  14.827
16241W        W79998   3.747  35.441  10.979
16242W        W79999   8.331  23.025  14.884
16243W        W80000  34.997  25.549  11.036
16244W        W80001   9.767  25.700   1.254
16245W        W80002   3.815   4.783  12.927
16246W        W80003  38.431  10.383   4.163
16247W        W80004  16.696   1.890   2.716
16248W        W80005  38.899   1.249  13.383
16249W        W80006  23.672  20.028   0.967
16250W        W80007  11.662   0.871   2.282
16251W        W80008  13.788  39.466   3.359
16252W        W80009  29.159  19.212   1.296
16253W        W80010  40.946  30.452  11.047
16254W        W80011  14.613  10.168  11.104
16255W        W80012  23.621  23.111  12.909
16256W        W80013  24.598   8.271  13.418
16257W        W80014  29.007  29.074  14.841
16258W        W80015  12.337  44.404   0.876
16259W        W80016  35.027  16.668   4.202
16260W        W80017  38.902  11.696  11.392
16261W        W80018   0.900  30.589   9.944
16262W        W80019  28.178   6.238  11.401
16263W        W80020   7.771  22.518  12.405
16264W        W80021  20.659  19.721   4.116
16265W        W80022  39.400  13.769  13.988
16266W        W80023  25.047  21.243   3.285
16267W        W80024   8.810  37.579  12.062
16268W        W80025  15.782  28.546   3.253
16269W        W80026   8.231  26.481   0.442
16270W        W80027  26.041  31.491   0.789
16271W        W80028  19.138  31.618  14.282
16272W        W80029  21.629  26.042  13.909
16273W        W80030  12.679   5.816  12.404
16274W        W80031  38.954  22.154  12.448
16275W        W80032   8.759   8.390   4.236
16276W        W80033  25.020  13.225  12.843
16277W        W80034   5.325  43.910   0.792
16278W        W80035  40.933  25.651   4.298
16279W        W80036  22.184  29.970   1.403
16280W        W80037  36.041   9.257  10.473
16281W        W80038  20.217  39.935   2.698
16282W        W80039  31.502  23.175   1.845
16283W        W80040  22.240  42.983  13.019
16284W        W80041  44.762  44.391   1.888
16285W        W80042   5.894  33.513  12.825
16286W        W80043  44.366  30.936   1.730
16287W        W80044   9.263  40.365  11.519
16288W        W80045  24.097  37.059   3.699
16289W        W80046  19.143  15.242   5.278
16290W        W80047   6.702  12.311   0.766
16291W        W80048  33.081   0.972   0.790
16292W        W80049  16.206  25.029  14.880
16293W        W80050   3.806  17.178   3.289
16294W        W80051  13.727  41.820  11.576
16295W        W80052  17.682  27.163  12.462
16296W        W80053  16.086  33.970   2.213
16297W        W80054  32.075  16.080  12.843
16298W        W80055   3.245  19.566  13.397
16299W        W80056   3.780  36.585   0.909
16300W        W80057  19.151  29.094   3.335
16301W        W80058  16.245  10.238  14.445
16302W        W80059  23.525  30.163  14.029
16303W        W80060  17.238  23.594  10.040
16304W        W80061  27.563   8.682  13.342
16305W        W80062  17.616  28.488  12.404
16306W        W80063   2.898  40.045  14.513
16307W        W80064  17.675   3.366  13.416
16308W        W80065  18.555  16.779   2.744
16309W        W80066  35.941   3.738   1.748
16310W        W80067  18.781  25.019   0.350
16311W        W80068  10.280  39.906   3.718
16312W        W80069  27.126  41.977  12.857
16313W        W80070   7.367  26.682  12.412
16314W        W80071  37.507  35.930   4.612
16315W        W80072  35.423  38.504  13.796
16316W        W80073  35.588  38.007   2.683
16317W        W80074   0.272  39.006  11.945
16318W        W80075  21.738  40.334   3.225
16319W        W80076  28.183   8.189  11.861
16320W        W80077  34.921   6.425  12.923
16321W        W80078  19.072  30.469  14.948
16322W        W80079  17.652  17.295   3.637
16323W        W80080  15.704  34.872   4.350
16324W        W80081  34.117  26.001   1.391
16325W        W80082  20.530  13.681   2.691
16326W        W80083  44.832  33.600   1.700
16327W        W80084  19.772  25.509  12.485
16328W        W80085   7.748  11.798  11.951
16329W        W80086  25.591  43.492  10.449
16330W        W80087  23.685  31.970   2.377
16331W        W80088   6.796  36.360   3.335
16332W        W80089  21.656  31.150  11.588
16333W        W80090   4.872  41.422   1.440
16334W        W80091  26.481   8.317   3.146
16335W        W80092   0.977   0.753   1.386
16336W        W80093  22.074  30.991   2.252
16337W        W80094   9.833  33.023   0.953
16338W        W80095  26.195  41.968  14.761
16339W        W80096  35.434  18.052  14.022
16340W        W80097  36.968  13.712  13.382
16341W        W80098   1.819  27.629  10.588
16342W        W80099  42.501  37.001   1.291
16343W        W80100  22.693  15.177  13.952
16344W        W80101  27.014  24.555  12.514
16345W        W80102  32.526  30.062   4.192
16346W        W80103   7.361  44.931   4.640
16347W        W80104  14.737  33.522   2.710
16348W        W80105  15.647   3.848   3.166
16349W        W80106  37.995  22.615   0.249
16350W        W80107   2.957  14.234   1.402
16351W        W80108  28.466  26.974   2.711
16352W        W80109  33.061  37.573  13.513
16353W        W80110  11.160  19.688   0.934
16354W        W80111  23.119  14.166   3.860
16355W        W80112  29.105  38.352  13.806
16356W        W80113   8.660   3.796  14.809
16357W        W80114   2.274  22.084   4.346
16358W        W80115   0.904  23.628   1.912
16359W        W80116  34.517   6.381   2.714
16360W        W80117  24.115  30.473  13.961
16361W        W80118   1.414  11.301   0.848
16362W        W80119  43.935  24.987  12.388
16363W        W80120  38.512  13.718   3.319
16364W        W80121   7.906  23.156  13.425
16365W        W80122  34.976  40.505  13.394
16366W        W80123   3.724  10.184   0.791
16367W        W80124  32.615   1.462  11.883
16368W        W80125  35.008  42.330  14.014
16369W        W80126  42.500   3.861  11.856
16370W        W80127  31.124   0.272   4.606
16371W        W80128  14.640  42.814   0.864
16372W        W80129  42.403  18.750   2.396
16373W        W80130  41.527  26.677   0.330
16374W        W80131   4.864  19.068   2.241
16375W        W80132  44.755  16.147  14.336
16376W        W80133   2.393  30.653   1.892
16377W        W80134   2.899  41.881   4.296
16378W        W80135  40.809  40.412   2.397
16379W        W80136  34.469   7.732  12.897
16380W        W80137   3.400  34.460  10.514
16381W        W80138  16.615   9.164  13.899
16382W        W80139   6.907  13.836   4.126
16383W        W80140  16.110  14.826  13.049
16384W        W80141  37.010   1.243  12.445
16385W        W80142   0.458   0.379  12.537
16386W        W80143  20.662   1.464   3.251
16387W        W80144   8.662  36.846   3.630
16388W        W80145  32.026  22.232  12.842
16389W        W80146  13.114   2.335  13.833
16390W        W80147  30.919  44.265  14.327
16391W        W80148  19.253  43.817   4.632
16392W        W80149   9.382   2.336   3.371
16393W        W80150   3.904  25.999  14.483
16394W        W80151  15.682  20.717  12.524
16395W        W80152   1.278   8.305   1.212
16396W        W80153  42.356  37.394   2.668
16397W        W80154   3.379  42.871   0.261
16398W        W80155  30.496  30.565  12.494
16399W        W80156  15.238  37.420  10.159
16400W        W80157  17.683  33.397   1.292
16401W        W80158  40.417  37.372  10.437
16402W        W80159  37.982   5.714   2.381
16403W        W80160  19.666  13.244   0.910
16404W        W80161  16.778  13.137  12.008
16405W        W80162  15.219   2.774  12.038
16406W        W80163  36.044   7.289   1.901
16407W        W80164  30.424  17.246   0.877
16408W        W80165  12.633   4.323   1.785
16409W        W80166  42.480  40.361  12.917
16410W        W80167  13.675  12.336   2.762
16411W        W80168  32.049   9.679   3.342
16412W        W80169  21.178   9.730   2.767
16413W        W80170  13.796   0.929   4.821
16414W        W80171  31.097  22.709   1.862
16415W        W80172  16.153  33.889  13.401
16416W        W80173  22.186  21.037   2.801
16417W        W80174  37.471  25.662   3.870
16418W        W80175   2.787  29.434   4.835
16419W        W80176  21.540  32.930   1.813
16420W        W80177   9.241  33.411  14.507
16421W        W80178  22.561  22.109  13.876
16422W        W80179  20.645   0.484   3.863
16423W        W80180  21.224  14.242   0.887
16424W        W80181  26.625  11.847  11.861
16425W        W80182   9.799  14.253   4.821
16426W        W80183  15.290  25.111   1.300
16427W        W80184  14.106   6.737  11.096
16428W        W80185  40.818  18.099  12.093
16429W        W80186  22.687   4.371   3.146
16430W        W80187  43.507  18.195   3.767
16431W        W80188  23.692  33.392   0.472
16432W        W80189  24.210  34.574  10.074
16433W        W80190  44.908  39.495  13.058
16434W        W80191  40.998  32.615   2.291
16435W        W80192   6.294  15.243  14.485
16436W        W80193  18.087  10.827  11.876
16437W        W80194  36.010  14.821  13.879
16438W        W80195   4.230  27.069  13.922
16439W        W80196  27.622  11.228   0.807
16440W        W80197  35.882  37.475   2.802
16441W        W80198   1.894   0.874   1.708
16442W        W80199  34.523  27.046  11.015
16443W        W80200  18.641  39.538   2.185
16444W        W80201   2.329  18.085  13.949
16445W        W80202  34.419   4.741   3.642
16446W        W80203  37.454  37.535  10.039
16447W        W80204  32.962  43.909  11.030
16448W        W80205  28.578  31.985   5.294
16449W        W80206  24.036  29.097  12.977
16450W        W80207   4.337  28.085   4.339
16451W        W80208  12.692   5.898   4.134
16452W        W80209  30.148  11.726  13.441
16453W        W80210  17.604  11.374   4.210
16454W        W80211  36.393  15.628  14.947
16455W        W80212  32.045   3.825  13.890
16456W        W80213  40.480   8.739  11.091
16457W        W80214   1.409  12.712  10.403
16458W        W80215  16.251  27.106   3.232
16459W        W80216  11.217  31.478   3.817
16460W        W80217  12.136  43.410   4.731
16461W        W80218   0.389  29.467  12.457
16462W        W80219   2.853  25.568  11.536
16463W        W80220   8.256   5.845  12.528
16464W        W80221  37.916  11.190  14.371
16465W        W80222  38.356  16.170  12.357
16466W        W80223   2.341  14.750  13.917
16467W        W80224   7.416  15.255  13.919
16468W        W80225  11.138  11.658   4.656
16469W        W80226   6.318  10.824   2.325
16470W        W80227   9.254  23.156  14.948
16471W        W80228  38.879  40.443   1.281
16472W        W80229  14.292  13.773   1.740
16473W        W80230  39.557  18.658  11.930
16474W        W80231  25.066  14.818   0.933
16475W        W80232  13.235  12.183  13.062
16476W        W80233  38.889  33.420  13.836
16477W        W80234   3.864   8.836  10.588
16478W        W80235   6.773  38.387   3.231
16479W        W80236  33.494  17.230  11.981
16480W        W80237  28.043  41.855   2.317
16481W        W80238  39.058  31.448   2.756
16482W        W80239  34.604  33.996   2.261
16483W        W80240  14.596  33.002  12.495
16484W        W80241  12.684  10.363  13.027
16485W        W80242  34.603   2.233  13.453
16486W        W80243  33.560  33.071   4.775
16487W        W80244  14.725   0.474  13.949
16488W        W80245  31.564  12.228  10.601
16489W        W80246  16.305  14.134  14.483
16490W        W80247  15.110  25.530  12.960
16491W        W80248   3.326  10.856   1.753
16492W        W80249  42.010  40.323   4.801
16493W        W80250  18.567  33.947   0.309
16494W        W80251  18.281   1.260   2.212
16495W        W80252  35.072   4.698  10.496
16496W        W80253  22.214  10.351   4.625
16497W        W80254  13.757   0.365   3.348
16498W        W80255  23.532  37.026   1.293
16499W        W80256   9.770  24.990   0.379
16500W        W80257  36.970  31.012  13.532
16501W        W80258  43.442  28.970  10.412
16502W        W80259  16.074  23.531  11.465
16503W        W80260  19.141  12.619   2.362
16504W        W80261   8.867  26.625  12.026
16505W        W80262  40.518  21.258   4.283
16506W        W80263  13.230   1.365  13.057
16507W        W80264  32.941  25.646   1.264
16508W        W80265   7.332   6.742  13.033
16509W        W80266  26.034  14.674  11.054
16510W        W80267   1.250  27.640  12.432
16511W        W80268  29.550  39.446  14.501
16512W        W80269  26.175  42.963   3.194
16513W        W80270   8.827  25.690   3.697
16514W        W80271  35.033  31.418  14.945
16515W        W80272  21.618  41.431  13.836
16516W        W80273  44.862   8.664  10.505
16517W        W80274  44.787  43.502   0.835
16518W        W80275   8.875  14.240   3.768
16519W        W80276  39.459  36.091   2.411
16520W        W80277  11.739  33.005  13.000
16521W        W80278   6.881  27.126   1.229
16522W        W80279   5.701  11.293  13.805
16523W        W80280  43.914   2.757   3.259
16524W        W80281  15.271  37.015   4.194
16525W        W80282  12.275  37.352   4.147
16526W        W80283   7.315  20.749   2.718
16527W        W80284   1.459  11.140   1.424
16528W        W80285  25.013   6.844  12.834
16529W        W80286  26.956  29.537   0.747
16530W        W80287  26.023  38.822  12.451
16531W        W80288   9.368  34.912   2.365
16532W        W80289   0.466   3.413   4.634
16533W        W80290  26.460  38.930  11.026
16534W        W80291  29.928  18.140   2.347
16535W        W80292  41.804  38.514  14.885
16536W        W80293  31.934  40.892  10.491
16537W        W80294  24.483  39.062   2.409
16538W        W80295  16.235  15.824  12.459
16539W        W80296  44.941  16.628   2.864
16540W        W80297  24.592  31.124  13.889
16541W        W80298  35.523  28.573   5.117
16542W        W80299  33.597  14.603  14.313
16543W        W80300  23.092  36.936   3.678
16544W        W80301  29.000  19.627   3.734
16545W        W80302  35.531   8.289  10.949
16546W        W80303  23.614  20.639  14.481
16547W        W80304  30.447  19.195  10.508
16548W        W80305   3.764  12.306  11.569
16549W        W80306  43.812  27.617   2.841
16550W        W80307  36.844  12.274  12.028
16551W        W80308  35.898  19.604   1.244
16552W        W80309  14.819  42.944  11.120
16553W        W80310  23.084  24.170   2.804
16554W        W80311  29.064  41.893  13.898
16555W        W80312  24.661  30.045   2.334
16556W        W80313  35.044  41.871   5.108
16557W        W80314  30.617  37.459   0.934
16558W        W80315  17.632  19.183   2.683
16559W        W80316  21.736  12.655   2.882
16560W        W80317  41.949   7.392   3.790
16561W        W80318  41.501  33.600  13.482
16562W        W80319  42.351  33.995  13.344
16563W        W80320  34.058  29.947   1.330
16564W        W80321   1.358   7.719   2.400
16565W        W80322  13.726  35.405  12.831
16566W        W80323  21.262   1.771   3.177
16567W        W80324  33.996  33.907  11.918
16568W        W80325  12.173   0.871   3.199
16569W        W80326  30.602   8.662   0.782
16570W        W80327  43.338  21.150   2.844
16571W        W80328  27.153  24.125  13.825
16572W        W80329   8.710  12.304  10.617
16573W        W80330   3.266  25.992  10.562
16574W        W80331  38.900  20.236  12.089
16575W        W80332  10.832   2.363   2.180
16576W        W80333  29.146   6.254   0.272
16577W        W80334  40.934  40.838   0.366
16578W        W80335   0.320  39.826  13.848
16579W        W80336  33.967  30.151   4.134
16580W        W80337  18.552  43.413  14.468
16581W        W80338  32.009   4.380   3.870
16582W        W80339  29.061  34.011   2.679
16583W        W80340  34.912  37.036  12.455
16584W        W80341  29.583   0.767   3.147
16585W        W80342  17.249   0.333  13.467
16586W        W80343  30.963  41.865  12.414
16587W        W80344  39.032  24.980   5.101
16588W        W80345  10.642   1.343   2.861
16589W        W80346  28.088  24.529  10.005
16590W        W80347   2.317  32.563  14.381
16591W        W80348  18.664  21.083  11.581
16592W        W80349  17.712   0.937  13.498
16593W        W80350   4.232  23.133  10.957
16594W        W80351  18.194  41.376  12.426
16595W        W80352  41.489  18.609   1.915
16596W        W80353   9.701   1.461  10.920
16597W        W80354  26.005  42.486   4.758
16598W        W80355  20.654  31.453   9.436
16599W        W80356  12.279  39.832  13.389
16600W        W80357   7.871  24.130  11.438
16601W        W80358  41.812  26.572   0.948
16602W        W80359  24.977  14.301  11.546
16603W        W80360   6.680  30.062   2.383
16604W        W80361  13.329  40.425  11.493
16605W        W80362   4.315  36.468  14.901
16606W        W80363  28.100  12.698   0.474
16607W        W80364  31.079   3.328  11.993
16608W        W80365  44.451   2.908   2.207
16609W        W80366  27.013   5.233   3.779
16610W        W80367  39.416   2.374   3.348
16611W        W80368   9.741  28.592   4.786
16612W        W80369  20.673  13.251  10.135
16613W        W80370  30.618  31.457  12.557
16614W        W80371  10.759  27.505   2.723
16615W        W80372  15.302  13.735   3.632
16616W        W80373  29.530  25.171  10.578
16617W        W80374  12.305  41.841  11.925
16618W        W80375  15.761  22.641  12.929
16619W        W80376  23.047  26.120   1.711
16620W        W80377  10.208  33.514  14.929
16621W        W80378  31.473  39.404  10.555
16622W        W80379  23.126  28.549  10.524
16623W        W80380  23.011  23.605   2.716
16624W        W80381  37.376   7.413  11.883
16625W        W80382  24.224  26.184   3.850
16626W        W80383  35.543  41.894  13.954
16627W        W80384  43.286  16.634   3.632
16628W        W80385   4.255  11.787   3.346
16629W        W80386  43.013   0.788  14.966
16630W        W80387   9.381  29.067  14.480
16631W        W80388  27.085  33.006  14.769
16632W        W80389  43.438  28.450   2.750
16633W        W80390  32.111  31.007  11.055
16634W        W80391  21.050  43.404   4.722
16635W        W80392  36.902  42.011  14.959
16636W        W80393  29.490  18.634  11.516
16637W        W80394  41.818   9.206   0.903
16638W        W80395   8.658  12.207  11.611
16639W        W80396  40.054  33.402   1.384
16640W        W80397  15.230   1.834   5.669
16641W        W80398  26.544   8.318  12.963
16642W        W80399  27.026  14.798  12.004
16643W        W80400   5.746   9.884  11.097
16644W        W80401  29.444  14.123   1.778
16645W        W80402  10.192  18.225   3.804
16646W        W80403   0.405  26.697   4.836
16647W        W80404  44.444   2.439  10.497
16648W        W80405  25.976   5.784  10.464
16649W        W80406  43.277  12.692  12.897
16650W        W80407  41.950   0.931   2.804
16651W        W80408  31.901  21.611  14.500
16652W        W80409  28.153   4.437   2.270
16653W        W80410  30.116  30.021  13.826
16654W        W80411  21.163   9.356  11.392
16655W        W80412   0.851  10.709   3.210
16656W        W80413  10.215  42.308  12.478
16657W        W80414  30.463  43.921   1.274
16658W        W80415  32.016  15.717   2.333
16659W        W80416  41.518  27.964  11.467
16660W        W80417  15.255  44.855   1.269
16661W        W80418  38.390  30.909   0.424
16662W        W80419  25.520   2.318  13.878
16663W        W80420  23.221  21.204  12.416
16664W        W80421  41.844  39.913   0.870
16665W        W80422  10.344  23.574   4.149
16666W        W80423  25.133  21.058  11.894
16667W        W80424  22.024  36.349   1.851
16668W        W80425   4.233  19.595  12.492
16669W        W80426  37.837  27.482   3.830
16670W        W80427  24.114  18.783  10.527
16671W        W80428  35.993   0.291   3.706
16672W        W80429  24.668  25.650   1.309
16673W        W80430  26.626  44.769  14.421
16674W        W80431  24.559   9.338   3.859
16675W        W80432  22.173  29.578   4.206
16676W        W80433  27.963  17.559   9.976
16677W        W80434  41.807  12.129  14.933
16678W        W80435   6.335  26.694   2.765
16679W        W80436  37.422   9.824  12.060
16680W        W80437  37.990  21.051   1.927
16681W        W80438  41.877  43.322   0.327
16682W        W80439  25.702  29.971  12.893
16683W        W80440  40.960   3.897   1.401
16684W        W80441  30.945   6.797  14.462
16685W        W80442  36.037  12.750  14.462
16686W        W80443   0.467  44.876   0.817
16687W        W80444  42.021   0.405   2.823
16688W        W80445  22.575  16.109  14.802
16689W        W80446  10.349  31.034   0.903
16690W        W80447  11.254  22.686   4.193
16691W        W80448  38.506  18.563   4.186
16692W        W80449  36.991  10.698   0.815
16693W        W80450  24.215   8.852  12.834
16694W        W80451   2.294  10.176   0.269
16695W        W80452  42.030  41.973  11.957
16696W        W80453  28.621  23.585   0.443
16697W        W80454   9.859  44.955  13.810
16698W        W80455  10.653   0.299   2.250
16699W        W80456   6.290  33.889  11.881
16700W        W80457  16.195  29.945  13.977
16701W        W80458  11.640   2.822  10.976
16702W        W80459  26.024  23.713  12.498
16703W        W80460  36.030  38.516  14.979
16704W        W80461  38.989  25.180  11.535
16705W        W80462   6.717  24.615   0.833
16706W        W80463  42.002  33.599   3.217
16707W        W80464  10.844  15.623   1.765
16708W        W80465  18.185  44.278   2.665
16709W        W80466  44.920  22.648  13.508
16710W        W80467  35.016  41.853  13.312
16711W        W80468  12.155  32.396  11.934
16712W        W80469  31.067  34.533  14.511
16713W        W80470  35.367  44.856  10.499
16714W        W80471  31.900  16.310  13.323
16715W        W80472  18.656   1.787   3.649
16716W        W80473  39.881  14.687  11.583
16717W        W80474  25.198   6.220   1.749
16718W        W80475  29.534  13.157  10.573
16719W        W80476   6.782  39.320   1.232
16720W        W80477  15.589   9.754   3.764
16721W        W80478  44.910   8.835   1.827
16722W        W80479  39.848  36.034  10.436
16723W        W80480   6.906  10.241  12.516
16724W        W80481  18.070  22.542  13.419
16725W        W80482  12.740  20.142  12.007
16726W        W80483  22.131   6.834  13.345
16727W        W80484  29.627   2.792  11.374
16728W        W80485   7.668  13.294   3.239
16729W        W80486   4.792  29.932  13.808
16730W        W80487  31.962   8.195  11.046
16731W        W80488  19.595   2.921   2.382
16732W        W80489  18.226  10.792  13.443
16733W        W80490  44.774   9.781  14.984
16734W        W80491  16.796   9.168  11.097
16735W        W80492   5.234  36.543  13.507
16736W        W80493  44.834   0.440   4.697
16737W        W80494  26.682  27.486   1.778
16738W        W80495  34.925   7.699   4.269
16739W        W80496  33.125  31.153  13.985
16740W        W80497  14.677   7.254  11.603
16741W        W80498   2.441  42.473   1.271
16742W        W80499   7.306  32.077  10.914
16743W        W80500  22.078  12.344  13.313
16744W        W80501  41.471  33.542   4.681
16745W        W80502   8.239  21.590  14.310
16746W        W80503  33.421  10.159  12.388
16747W        W80504  23.504  21.529  12.507
16748W        W80505   9.693  16.192  12.341
16749W        W80506  36.041  18.051  14.462
16750W        W80507   1.932  39.476  10.933
16751W        W80508  40.348  44.811  12.995
16752W        W80509  19.270  43.840  11.998
16753W        W80510   1.374  25.496  12.939
16754W        W80511  32.544  19.691   2.347
16755W        W80512   4.832  14.117  10.017
16756W        W80513   8.779  22.666  12.571
16757W        W80514   2.266  26.646  14.903
16758W        W80515   9.374   6.310   3.323
16759W        W80516  27.100   4.801  12.525
16760W        W80517  30.134  36.531  11.061
16761W        W80518   2.400   0.849  14.838
16762W        W80519  37.456  39.898   1.799
16763W        W80520  14.708  35.864   0.335
16764W        W80521  10.293  32.012  13.937
16765W        W80522  22.169  19.571   3.714
16766W        W80523  15.167   4.287  13.854
16767W        W80524   2.887  44.799  13.064
16768W        W80525  44.453  34.870   9.932
16769W        W80526  43.880  26.067  11.885
16770W        W80527   0.769  38.050  12.034
16771W        W80528  39.470   0.748  14.813
16772W        W80529  19.088  32.483   4.822
16773W        W80530  21.697   4.797   4.666
16774W        W80531  15.235   4.290   4.241
16775W        W80532  24.712  37.836  12.043
16776W        W80533  31.462  24.587   2.859
16777W        W80534  27.660   2.876  12.949
16778W        W80535  17.269  13.785  12.950
16779W        W80536  14.624  10.181  13.993
16780W        W80537  39.404  41.972  13.446
16781W        W80538  32.541  37.475   0.294
16782W        W80539  36.546  25.072  11.877
16783W        W80540  43.994  41.511  10.485
16784W        W80541  25.071  40.884   2.870
16785W        W80542  25.059  12.340  11.587
16786W        W80543  40.968   1.909   9.586
16787W        W80544  34.886   4.338  11.010
16788W        W80545  31.429   9.288   0.479
16789W        W80546  11.300  14.168  14.792
16790W        W80547  30.520  44.421  12.014
16791W        W80548  35.446   5.279   1.838
16792W        W80549  33.082  15.194   4.668
16793W        W80550  17.801  15.744  13.338
16794W        W80551  41.319  15.688  11.390
16795W        W80552  26.166  34.411  12.364
16796W        W80553  19.770  28.178   5.151
16797W        W80554  31.610  42.001  10.950
16798W        W80555  16.299  10.327  14.022
16799W        W80556  11.168  24.670   2.289
16800W        W80557   4.365  39.546   1.254
16801W        W80558  29.610  28.074   2.830
16802W        W80559  29.643  34.446  13.002
16803W        W80560  24.510  41.516  13.936
16804W        W80561  23.707  16.664  12.485
16805W        W80562   8.879  28.168   2.192
16806W        W80563  17.602   6.916  10.409
16807W        W80564  39.864  23.092  14.928
16808W        W80565   4.764   8.233  14.782
16809W        W80566   3.378  14.776  12.479
16810W        W80567  37.946  23.165   4.331
16811W        W80568  26.473  21.229  13.526
16812W        W80569  43.298   3.805  12.978
16813W        W80570  38.336  36.530  13.441
16814W        W80571  32.060  19.571  13.435
16815W        W80572   2.397  34.870  14.993
16816W        W80573   9.874  36.057  10.491
16817W        W80574   0.910  28.095   2.290
16818W        W80575  29.617  33.915  11.413
16819W        W80576   9.332  20.703   0.857
16820W        W80577  22.520  33.058   2.197
16821W        W80578  42.842  38.524   3.850
16822W        W80579   6.425  22.548  13.032
16823W        W80580   3.832   3.453  12.576
16824W        W80581   3.395  19.102   1.713
16825W        W80582  17.213   6.418  12.072
16826W        W80583  17.779  15.802   2.703
16827W        W80584   6.372   1.946   0.955
16828W        W80585  31.112  11.233   4.199
16829W        W80586  29.951  27.490  10.991
16830W        W80587  34.466  27.480  14.765
16831W        W80588   2.232  27.102  12.383
16832W        W80589  36.366  44.462   1.400
16833W        W80590  37.372  35.035   4.741
16834W        W80591   1.261  35.548   1.930
16835W        W80592  41.451  41.935  13.920
16836W        W80593   3.337  40.310   1.699
16837W        W80594  22.079  37.479   2.308
16838W        W80595  37.409  30.575   4.604
16839W        W80596   4.924  28.057   2.866
16840W        W80597  18.159   3.453  13.867
16841W        W80598  35.367  20.143   0.313
16842W        W80599  15.634  33.995   1.743
16843W        W80600  34.390  11.800  13.916
16844W        W80601   9.378  34.038   3.702
16845W        W80602   0.827  41.398   2.226
16846W        W80603   4.374  33.889   0.329
16847W        W80604  42.831  15.698  14.411
16848W        W80605  36.477   4.350  10.511
16849W        W80606  37.400  40.308  13.957
16850W        W80607  16.602  11.310   3.272
16851W        W80608  25.703   7.181   4.202
16852W        W80609  36.994  25.002   1.922
16853W        W80610  24.021  44.760  11.394
16854W        W80611  18.083  12.259  11.475
16855W        W80612  15.808  34.410  11.915
16856W        W80613  24.161   6.689  13.062
16857W        W80614  44.833  16.274   2.190
16858W        W80615  15.671  19.723   1.701
16859W        W80616  41.380  40.018   3.768
16860W        W80617  18.671  23.698  11.071
16861W        W80618  14.159  14.643  14.846
16862W        W80619   3.875  24.692  12.012
16863W        W80620  29.023  42.378  14.031
16864W        W80621  28.631   5.240  13.879
16865W        W80622  34.006  13.790  13.498
16866W        W80623  22.208  28.136   1.244
16867W        W80624  36.095  32.487  10.583
16868W        W80625  22.598   2.410  11.503
16869W        W80626  35.576   9.320   4.117
16870W        W80627  16.304  39.993  10.955
16871W        W80628   8.219  31.600  10.959
16872W        W80629  18.609  35.390   0.476
16873W        W80630   4.244  34.503   4.342
16874W        W80631  40.000  15.292   4.791
16875W        W80632  34.928  27.009  14.407
16876W        W80633  10.242  43.012  14.503
16877W        W80634  22.069  40.936  12.364
16878W        W80635  33.495   5.294  13.815
16879W        W80636  31.952   3.335   3.769
16880W        W80637  40.982   1.862   0.946
16881W        W80638  18.646   5.920  11.498
16882W        W80639  31.540  41.821  13.945
16883W        W80640   8.878  14.102   2.303
16884W        W80641  33.014  18.691   1.923
16885W        W80642   3.318  35.108  12.478
16886W        W80643  17.782  16.611  14.508
16887W        W80644  29.962  15.103   0.356
16888W        W80645  23.561  19.752   0.804
16889W        W80646  18.619  11.132  11.574
16890W        W80647  11.278  43.516   3.244
16891W        W80648  25.040  43.969   1.822
16892W        W80649  12.643  31.639   0.940
16893W        W80650  19.772  15.718   1.289
16894W        W80651  16.609  28.468   4.197
16895W        W80652  20.035  44.951   4.114
16896W        W80653   3.227   1.462  13.008
16897W        W80654  21.076  33.993   4.696
16898W        W80655  38.445  23.191   2.248
16899W        W80656  33.976  11.808   3.729
16900W        W80657  13.215   0.298  10.637
16901W        W80658  35.377  32.601   4.758
16902W        W80659  25.606  25.620  11.923
16903W        W80660  29.572  26.200  10.910
16904W        W80661  35.025  39.918  11.987
16905W        W80662  28.643  23.018   5.213
16906W        W80663  34.865  21.122   5.172
16907W        W80664  15.306  44.365  12.920
16908W        W80665   1.348  13.818  13.898
16909W        W80666  10.343  13.321  12.952
16910W        W80667   4.840  29.985  12.894
16911W        W80668  25.039  41.484  11.512
16912W        W80669  24.980  10.364   3.635
16913W        W80670   9.240  42.404   9.461
16914W        W80671   8.346  20.233  12.485
16915W        W80672   9.223   4.380  12.986
16916W        W80673   5.201  10.749  13.822
16917W        W80674  38.013   0.972   3.151
16918W        W80675  41.030  22.512   1.829
16919W        W80676  19.647  31.499   1.740
16920W        W80677  10.726  40.806  14.282
16921W        W80678  15.187  43.924  11.031
16922W        W80679  35.393  42.370   2.212
16923W        W80680  12.269  36.363   3.214
16924W        W80681  43.886  20.728   0.747
16925W        W80682  15.271   4.763   1.309
16926W        W80683  24.208  22.619   2.678
16927W        W80684  15.597  18.059   1.210
16928W        W80685  38.426  28.078  13.951
16929W        W80686   0.827  16.603  13.811
16930W        W80687  22.068  10.295  11.387
16931W        W80688  24.503  20.623  11.538
16932W        W80689  21.637  37.419   1.295
16933W        W80690  22.142  29.009  12.569
16934W        W80691  43.020  19.770   2.281
16935W        W80692  17.796   5.820   4.309
16936W        W80693  27.540   9.288  13.461
16937W        W80694  29.641  43.019  10.945
16938W        W80695  30.553   3.804   0.318
16939W        W80696   2.451  13.218  13.992
16940W        W80697  24.050  21.698  11.059
16941W        W80698  28.482   8.761  12.358
16942W        W80699  21.231  15.748  12.996
16943W        W80700  26.168  33.927  13.961
16944W        W80701  10.863  21.092   3.664
16945W        W80702  28.091  41.354  10.978
16946W        W80703  14.202  34.960   3.314
16947W        W80704   9.149   9.720   2.282
16948W        W80705  35.887  37.019  14.360
16949W        W80706  39.044  28.053   3.689
16950W        W80707  20.729  43.430   3.333
16951W        W80708   7.736  32.129   3.821
16952W        W80709  20.615  23.116  11.987
16953W        W80710  42.446   3.326   1.838
16954W        W80711  27.954  27.463   0.318
16955W        W80712  16.233  41.874   4.787
16956W        W80713  37.064  27.594   2.722
16957W        W80714  43.288  29.121  13.482
16958W        W80715   6.377   2.399   0.907
16959W        W80716  13.346  30.468   5.111
16960W        W80717   8.655  24.712   2.185
16961W        W80718  34.467  15.105  11.447
16962W        W80719  13.208  24.608  10.919
16963W        W80720   1.435  22.248   4.816
16964W        W80721   2.833  39.442   2.850
16965W        W80722  38.075   8.179   0.955
16966W        W80723   1.734  30.087   4.667
16967W        W80724  31.468  37.993   0.269
16968W        W80725  44.468  15.784  13.384
16969W        W80726  37.879   4.924  12.976
16970W        W80727  24.089  41.954   1.729
16971W        W80728  30.507  26.568   4.249
16972W        W80729  32.530  36.494  10.493
16973W        W80730  29.445  39.010  12.086
16974W        W80731   7.815  28.452  14.403
16975W        W80732  15.170  31.982  13.824
16976W        W80733  12.188  16.645   3.785
16977W        W80734  33.478  29.648  13.999
16978W        W80735   2.731  16.731  10.591
16979W        W80736  36.855  41.960   4.333
16980W        W80737  37.463  10.322  10.539
16981W        W80738  25.125  44.495   0.452
16982W        W80739  16.247  13.189   3.338
16983W        W80740  30.979  35.917   4.283
16984W        W80741  27.134  24.011   2.837
16985W        W80742   2.376  18.748   0.410
16986W        W80743   3.269   1.484  14.292
16987W        W80744  13.175  11.279  11.121
16988W        W80745  16.789  39.855  10.419
16989W        W80746  41.855   8.860   4.311
16990W        W80747  13.813  18.634  13.003
16991W        W80748   3.281  25.000   3.364
16992W        W80749  17.721  34.496  13.851
16993W        W80750  19.548   6.332  10.413
16994W        W80751  19.634  41.908  12.047
16995W        W80752  35.404  42.298   4.806
16996W        W80753  30.041  31.597   2.668
16997W        W80754  28.622  41.535   0.869
16998W        W80755  23.145   6.839   1.260
16999W        W80756  44.970  17.285   0.756
17000W        W80757  28.624  41.380   1.355
17001W        W80758  35.947  12.637   2.202
17002W        W80759   3.723  25.647  14.828
17003W        W80760   2.807   4.345  13.952
17004W        W80761   2.287  21.574   3.381
17005W        W80762   7.782   1.865   1.879
17006W        W80763  13.329  44.445   3.791
17007W        W80764   4.908  13.612  13.508
17008W        W80765  18.708  17.725  14.395
17009W        W80766  34.427  19.210  10.552
17010W        W80767  42.958   5.881   3.303
17011W        W80768  39.525  35.579   4.113
17012W        W80769  27.527  36.026  10.550
17013W        W80770   8.893   8.390  14.782
17014W        W80771  30.532  23.040   0.461
17015W        W80772   0.485  17.630   1.214
17016W        W80773  42.781  36.588  14.869
17017W        W80774  16.750  31.411   1.707
17018W        W80775  37.873  33.500  12.086
17019W        W80776  32.407  43.281   1.899
17020W        W80777  17.664  17.581   1.928
17021W        W80778  12.287  35.477   0.886
17022W        W80779   2.783  10.808   3.630
17023W        W80780  27.026  40.404  12.391
17024W        W80781  43.831  37.041   1.768
17025W        W80782   8.825   3.456  13.380
17026W        W80783   9.729  42.401   3.858
17027W        W80784  24.639  29.599  11.519
17028W        W80785  35.970  22.622   0.813
17029W        W80786  14.191  32.064   9.976
17030W        W80787  23.049  23.049  14.341
17031W        W80788   3.891  24.075   0.848
17032W        W80789   6.867   3.370  13.007
17033W        W80790  42.345   7.808  13.939
17034W        W80791  29.074  20.586  14.013
17035W        W80792  28.540   4.852   2.769
17036W        W80793   7.897   5.690  14.031
17037W        W80794   6.188  13.650  13.447
17038W        W80795   2.240  24.020   4.619
17039W        W80796   9.245  20.168   2.247
17040W        W80797   7.262  10.730  14.938
17041W        W80798  31.943  12.623   0.774
17042W        W80799   2.238  31.589  11.866
17043W        W80800   7.890  14.691  14.339
17044W        W80801   0.452  38.044   0.275
17045W        W80802  13.167  31.051  12.900
17046W        W80803  38.908  32.575   2.318
17047W        W80804  35.921  36.046  13.939
17048W        W80805  43.962  33.592  12.381
17049W        W80806  40.849   9.290  10.451
17050W        W80807   9.181  11.765  14.413
17051W        W80808  37.897  35.579  14.810
17052W        W80809  35.456  11.161   2.279
17053W        W80810   2.269  41.980   0.408
17054W        W80811  24.992   5.336  11.019
17055W        W80812  44.789  13.706   1.345
17056W        W80813  13.227  18.064   2.186
17057W        W80814  17.063  14.252   0.825
17058W        W80815  14.677  28.483   3.827
17059W        W80816   0.379  13.131  13.432
17060W        W80817  32.002  37.430   4.252
17061W        W80818  31.621  21.084   2.193
17062W        W80819  31.003  38.991  14.411
17063W        W80820  12.333  13.238  11.896
17064W        W80821   2.462  11.797  13.057
17065W        W80822  24.157   2.932  10.519
17066W        W80823  18.716  14.117   1.396
17067W        W80824  18.548   4.887  10.013
17068W        W80825  24.480  34.041  12.918
17069W        W80826  14.607  42.490  13.790
17070W        W80827  24.230  17.691  14.889
17071W        W80828  40.355  15.595  10.963
17072W        W80829   6.752   7.696  12.994
17073W        W80830   5.395  44.846  10.427
17074W        W80831  19.176  33.948  13.025
17075W        W80832  14.115   5.687  10.599
17076W        W80833  25.503  22.091   3.150
17077W        W80834  34.959  12.777   3.282
17078W        W80835  42.920  11.362  12.861
17079W        W80836  27.155  26.994  13.972
17080W        W80837  11.815  40.382  10.079
17081W        W80838  26.122  14.127  11.420
17082W        W80839  43.768   1.438  10.494
17083W        W80840  28.052  42.301  13.534
17084W        W80841  13.779  27.662   4.676
17085W        W80842   8.209   8.747   0.409
17086W        W80843  35.001  23.172  13.850
17087W        W80844  14.268  32.627   2.687
17088W        W80845  27.115  41.293   3.257
17089W        W80846  34.001  43.472   0.872
17090W        W80847   3.222  25.105   3.684
17091W        W80848   5.899  42.926  10.981
17092W        W80849  33.515  43.386  10.894
17093W        W80850   8.728  31.922  14.890
17094W        W80851  31.526  20.752  12.938
17095W        W80852  15.626  40.468  14.372
17096W        W80853  12.132  28.141  13.461
17097W        W80854  17.759  13.705   1.864
17098W        W80855  15.278  24.532  15.000
17099W        W80856  34.431  22.650  11.451
17100W        W80857  43.269  37.942  14.795
17101W        W80858   2.460  21.169  12.361
17102W        W80859  14.277  23.519  14.000
17103W        W80860  37.070  40.496  10.464
17104W        W80861  34.098  12.612  12.452
17105W        W80862  34.571  33.918  10.586
17106W        W80863  35.012  30.970  12.868
17107W        W80864  38.978  13.762  12.967
17108W        W80865  18.736  12.725  13.834
17109W        W80866  25.638  23.592   0.319
17110W        W80867  10.164  23.660   1.332
17111W        W80868  37.470  33.380  14.924
17112W        W80869  28.034  27.945  10.086
17113W        W80870  28.451  18.134  12.482
17114W        W80871  13.747   1.448  10.501
17115W        W80872   7.842   9.305  14.407
17116W        W80873  12.807  23.633   1.768
17117W        W80874   6.391  16.285  10.088
17118W        W80875  13.155  40.905  13.063
17119W        W80876  31.918  15.292   4.173
17120W        W80877   1.960  23.703  10.489
17121W        W80878  23.496  10.737  12.065
17122W        W80879  40.870  27.150  14.343
17123W        W80880  21.096   3.236   9.949
17124W        W80881   4.360  11.320  13.811
17125W        W80882  15.689   0.426   5.748
17126W        W80883  16.230  10.332  13.431
17127W        W80884  29.102  21.590  10.935
17128W        W80885  25.634   3.882  11.470
17129W        W80886  15.283  24.049   3.268
17130W        W80887  22.241   4.837   0.842
17131W        W80888  14.684   3.357  14.907
17132W        W80889  18.637  17.765  13.514
17133W        W80890   2.426  11.163   3.843
17134W        W80891  42.521  44.000  14.435
17135W        W80892  31.004  36.440  12.568
17136W        W80893  14.218   4.928  10.633
17137W        W80894  31.404  28.110   3.242
17138W        W80895  42.366  28.545  11.060
17139W        W80896  37.461  17.114   1.280
17140W        W80897   2.458  13.129  14.880
17141W        W80898  21.159  33.001   5.658
17142W        W80899  16.110  13.694   1.709
17143W        W80900  40.840   5.302   3.192
17144W        W80901  38.922  28.673   4.758
17145W        W80902   6.358  38.868  13.008
17146W        W80903  35.577  29.522   0.399
17147W        W80904  23.531   0.961   0.433
17148W        W80905  25.575  40.810  10.443
17149W        W80906  28.543  34.060   1.217
17150W        W80907  11.846  41.944  13.840
17151W        W80908  12.625  16.146   4.616
17152W        W80909  17.230  18.122  13.412
17153W        W80910  35.458  18.776   0.816
17154W        W80911  41.022  27.134  13.336
17155W        W80912  38.928  12.829  11.856
17156W        W80913  12.348  23.182   4.338
17157W        W80914  18.065  25.971   1.756
17158W        W80915  27.668  31.916   3.854
17159W        W80916   6.227  12.135   1.701
17160W        W80917   3.731  16.637   3.172
17161W        W80918  16.735  18.752  13.346
17162W        W80919  40.851  34.877  10.897
17163W        W80920  14.170  32.049   2.780
17164W        W80921  38.391  35.902  14.990
17165W        W80922  42.341  32.630  14.015
17166W        W80923  13.650   7.777  14.423
17167W        W80924  32.134   4.811  14.444
17168W        W80925   3.271  31.900   4.132
17169W        W80926   0.949  23.031  10.495
17170W        W80927  27.167  35.927   1.742
17171W        W80928  14.262  18.656   4.613
17172W        W80929  22.594   6.370   5.262
17173W        W80930  24.566  20.566  12.941
17174W        W80931  24.582  21.263  10.591
17175W        W80932  25.561  39.892  14.326
17176W        W80933  44.789  38.554   2.200
17177W        W80934  31.618   7.896   0.905
17178W        W80935  30.127  14.615   3.752
17179W        W80936  42.946  19.092  14.348
17180W        W80937  21.103  10.674   4.833
17181W        W80938  40.427  21.713   2.796
17182W        W80939  16.623  41.906   3.730
17183W        W80940  19.103  12.159  10.437
17184W        W80941  21.029  39.491  10.494
17185W        W80942  42.486  40.840  10.410
17186W        W80943  34.979  29.518   3.197
17187W        W80944  19.213  23.707   0.817
17188W        W80945   3.243  31.109  13.021
17189W        W80946  10.148  35.579   3.802
17190W        W80947  19.552  33.433   0.767
17191W        W80948  12.280  36.046  14.996
17192W        W80949  22.530  42.384   0.956
17193W        W80950  37.465  31.094  13.984
17194W        W80951   3.736  23.220   2.732
17195W        W80952  12.220   2.283   1.310
17196W        W80953  20.213  20.048  11.501
17197W        W80954   5.427  12.190  13.405
17198W        W80955  19.721  10.840  13.967
17199W        W80956  23.563  35.897   2.205
17200W        W80957  42.418  42.370   1.824
17201W        W80958  12.618  16.105   1.429
17202W        W80959  25.083  20.267  13.905
17203W        W80960   7.731  18.078  13.921
17204W        W80961   8.222  27.104  14.856
17205W        W80962  20.249   4.773  13.063
17206W        W80963  25.670  26.618  14.928
17207W        W80964  19.605  33.582   0.424
17208W        W80965  42.971   0.880   1.707
17209W        W80966   8.786   9.230   1.835
17210W        W80967  21.110  42.343   2.301
17211W        W80968  11.848  10.205  14.457
17212W        W80969  34.596  19.237  12.529
17213W        W80970  32.041  29.994   3.322
17214W        W80971  41.842  15.226   4.799
17215W        W80972  30.103   0.351   4.132
17216W        W80973  27.178  37.985   4.814
17217W        W80974  29.651  28.449   1.411
17218W        W80975  11.151  36.465  12.574
17219W        W80976  14.134  14.764   0.924
17220W        W80977   9.879  10.651  12.914
17221W        W80978   4.423  27.608  13.986
17222W        W80979  12.309  19.746  11.971
17223W        W80980  39.518  12.818  13.060
17224W        W80981  40.451  13.290  14.878
17225W        W80982  39.824   7.187   1.375
17226W        W80983   3.889  37.885  12.464
17227W        W80984   5.930  41.462   4.137
17228W        W80985  18.551   2.909   2.673
17229W        W80986  15.283   3.786   0.962
17230W        W80987  26.679   0.307  10.420
17231W        W80988  39.815  40.415   1.747
17232W        W80989  16.655  42.518  11.080
17233W        W80990  31.940  11.226   3.180
17234W        W80991  34.915  17.163  11.936
17235W        W80992  23.046  25.545   2.823
17236W        W80993   4.840  19.181  11.452
17237W        W80994  14.684  33.024  11.120
17238W        W80995  15.631  21.258  13.387
17239W        W80996  32.083  21.213  11.493
17240W        W80997  16.676   0.425  14.871
17241W        W80998   6.296  32.041   1.901
17242W        W80999  28.108  14.165   4.174
17243W        W81000   4.337   9.162   4.292
17244W        W81001   0.914  42.818   1.419
17245W        W81002  23.053  15.634  14.296
17246W        W81003  28.989  20.621   2.722
17247W        W81004  44.282  39.851  13.325
17248W        W81005  16.746  16.188   2.672
17249W        W81006  31.434  41.970   4.200
17250W        W81007  32.898  40.329   2.207
17251W        W81008  40.318  31.608  13.309
17252W        W81009  16.587  27.663  11.480
17253W        W81010  22.578   2.393  14.408
17254W        W81011  35.055  42.321   3.781
17255W        W81012  39.508  31.028   1.808
17256W        W81013  22.250   7.203   3.162
17257W        W81014  40.305   6.291  11.515
17258W        W81015  18.609  18.104   4.192
17259W        W81016  10.735  22.247   4.833
17260W        W81017  17.246  38.439  13.497
17261W        W81018  43.366  39.821   0.779
17262W        W81019  22.159  39.947  14.823
17263W        W81020  37.398  14.774  12.380
17264W        W81021  24.565  40.491   1.885
17265W        W81022  10.164  16.303   0.757
17266W        W81023   2.888   4.861   2.378
17267W        W81024  34.106  36.504  10.582
17268W        W81025  27.494  15.716  14.758
17269W        W81026  20.269  11.682  12.855
17270W        W81027  38.064  41.915  14.968
17271W        W81028   7.902  22.055   3.816
17272W        W81029  10.292   5.794  12.940
17273W        W81030  23.067  18.260  14.457
17274W        W81031  20.744   1.429   4.339
17275W        W81032  34.420   5.244  13.527
17276W        W81033  39.995  19.770  14.966
17277W        W81034   6.416  20.599  12.347
17278W        W81035  27.144   0.747   3.318
17279W        W81036   9.645  18.283   2.372
17280W        W81037  36.439  38.500   1.794
17281W        W81038   0.446  42.305  12.470
17282W        W81039  44.904  31.917  12.382
17283W        W81040  36.347  15.712   9.987
17284W        W81041  41.506  21.639  14.461
17285W        W81042  16.205  16.124   5.168
17286W        W81043  35.972  27.559  12.340
17287W        W81044   0.392  43.769   2.819
17288W        W81045  35.566   1.378  14.876
17289W        W81046  18.260   2.296   4.318
17290W        W81047  27.597  11.171  13.952
17291W        W81048  24.587  12.685   2.824
17292W        W81049  44.754  21.751  11.127
17293W        W81050  15.246  16.073  14.879
17294W        W81051  15.130  21.154  12.969
17295W        W81052  37.000  37.068  11.891
17296W        W81053   1.341   9.269   0.327
17297W        W81054   9.263  26.099   3.761
17298W        W81055   2.240  32.044   0.374
17299W        W81056  35.049  38.507   2.328
17300W        W81057  19.075  41.962   0.243
17301W        W81058  24.043  34.522   1.226
17302W        W81059  20.615   3.835   1.274
17303W        W81060   1.972  10.705   3.213
17304W        W81061  37.857   8.329  10.917
17305W        W81062  24.574   9.646  13.431
17306W        W81063  30.488  36.029   1.267
17307W        W81064  32.471  15.702   2.699
17308W        W81065   6.754   5.256  11.524
17309W        W81066  11.247  23.613   3.275
17310W        W81067  22.678   9.323   3.777
17311W        W81068  29.572  35.985   5.318
17312W        W81069  19.039  20.212   1.212
17313W        W81070  21.740  27.137  12.539
17314W        W81071  18.603  25.024   5.212
17315W        W81072  13.303  17.157  14.786
17316W        W81073  14.111  30.486  14.978
17317W        W81074  34.120   5.819   4.302
17318W        W81075  28.531  37.375   4.652
17319W        W81076  28.629  32.603  13.901
17320W        W81077  44.905   5.898  12.092
17321W        W81078   0.956  26.601   1.335
17322W        W81079  18.642  14.610   0.328
17323W        W81080  40.874  13.726   3.336
17324W        W81081   9.709  38.977   0.919
17325W        W81082  43.810   6.681  14.449
17326W        W81083  33.578   8.284   2.767
17327W        W81084  11.364  27.468  13.983
17328W        W81085  31.100  21.178  11.061
17329W        W81086  25.068   6.741  11.527
17330W        W81087   1.336  20.699   2.280
17331W        W81088  36.552  39.449   2.417
17332W        W81089  30.984  31.498  10.976
17333W        W81090  15.733  33.484   0.865
17334W        W81091   7.249  22.998  13.061
17335W        W81092  17.294  15.599   3.369
17336W        W81093  17.793  29.639  11.458
17337W        W81094  24.991  18.108   3.811
17338W        W81095   0.774   9.753   0.450
17339W        W81096  26.487  10.632   3.298
17340W        W81097  25.586  24.143  11.532
17341W        W81098  25.508  25.565   2.319
17342W        W81099  33.451  18.763   4.203
17343W        W81100  28.651  22.655  13.402
17344W        W81101  11.227   4.839  11.471
17345W        W81102   1.472  41.536  13.987
17346W        W81103  15.756  43.399  11.420
17347W        W81104  13.122  30.010   0.375
17348W        W81105  44.815  16.743  10.442
17349W        W81106  44.934  18.581  12.508
17350W        W81107  23.497   0.869  14.848
17351W        W81108  44.778  43.376  13.330
17352W        W81109  24.116  30.534   1.837
17353W        W81110   8.730  32.577   0.454
17354W        W81111   9.289  40.038   4.131
17355W        W81112  10.176  24.081   0.426
17356W        W81113  24.066  19.544   5.259
17357W        W81114  16.167   7.341  10.981
17358W        W81115  26.092  14.757   2.891
17359W        W81116   2.308  11.202   1.239
17360W        W81117  11.862  22.698   3.215
17361W        W81118  44.327  34.432  14.330
17362W        W81119   2.231   2.914   0.961
17363W        W81120   3.892  16.229   1.781
17364W        W81121  42.890  24.712   3.822
17365W        W81122   9.203  43.005   1.430
17366W        W81123  13.136  29.613   1.932
17367W        W81124  38.039  11.643  11.418
17368W        W81125  20.131  13.726  14.357
17369W        W81126  10.227  26.111   2.767
17370W        W81127   5.746  38.464   2.760
17371W        W81128  31.058  11.683   2.275
17372W        W81129  12.300  16.203  11.882
17373W        W81130   9.258  15.592   2.724
17374W        W81131  24.582   5.696  14.502
17375W        W81132  25.000  36.544   3.835
17376W        W81133  16.182  24.086   3.203
17377W        W81134  41.477  28.449   0.898
17378W        W81135  21.264  30.933  12.911
17379W        W81136  26.515  29.461  13.337
17380W        W81137  22.628  21.190  10.582
17381W        W81138  44.474  23.723   2.354
17382W        W81139   1.761  13.830   1.436
17383W        W81140   1.385   6.690   4.213
17384W        W81141  37.011  27.471  11.018
17385W        W81142   4.815  29.142   1.312
17386W        W81143  35.366  27.176   3.869
17387W        W81144  11.159  13.126   0.246
17388W        W81145  25.469   4.883   4.620
17389W        W81146  18.611  16.807  13.920
17390W        W81147   9.679  44.813   1.839
17391W        W81148   7.816  28.054  10.070
17392W        W81149  42.974  25.603  10.470
17393W        W81150  24.042  24.605  13.403
17394W        W81151  44.438  17.089   0.952
17395W        W81152  28.158  40.376  14.291
17396W        W81153   0.981  35.929   3.810
17397W        W81154  24.984  10.185   1.735
17398W        W81155   4.705  17.581   5.287
17399W        W81156  15.753   7.829   2.221
17400W        W81157  24.527   0.792  12.088
17401W        W81158   6.231  24.081  14.291
17402W        W81159   8.700  37.494  14.337
17403W        W81160  11.235  29.572  11.497
17404W        W81161   0.763  28.673   4.124
17405W        W81162  20.533  36.025  11.971
17406W        W81163  41.894  41.374   2.877
17407W        W81164   5.737  12.138  13.354
17408W        W81165  27.990   2.413  10.155
17409W        W81166  41.021  12.256   4.246
17410W        W81167  17.781  26.587   2.258
17411W        W81168  31.153  36.413   1.849
17412W        W81169   6.761   7.385   0.247
17413W        W81170  43.775  43.339  13.930
17414W        W81171  13.289  35.942   5.256
17415W        W81172  30.572  12.285  13.412
17416W        W81173  44.966  24.501  14.431
17417W        W81174  34.435   1.962   0.740
17418W        W81175  12.252   1.796  12.887
17419W        W81176  19.646  26.199  10.931
17420W        W81177   7.218  30.124  11.009
17421W        W81178  20.766  14.659   5.097
17422W        W81179   3.838  37.012  14.761
17423W        W81180  26.548  32.962   0.353
17424W        W81181  24.142   3.757  11.399
17425W        W81182   9.371  24.526   1.892
17426W        W81183  22.023   3.313   3.839
17427W        W81184  17.577  27.474   4.285
17428W        W81185  17.732  12.306  12.857
17429W        W81186  19.098  32.890  13.344
17430W        W81187  28.460  17.587  13.010
17431W        W81188  30.005   9.337  10.434
17432W        W81189   7.392  30.484   0.866
17433W        W81190  11.785   3.900  14.367
17434W        W81191  27.669  32.948  12.904
17435W        W81192  18.197   0.493   4.279
17436W        W81193  44.363  27.956  11.388
17437W        W81194  40.411  37.521  11.996
17438W        W81195  41.909  28.126  10.112
17439W        W81196  19.679  18.699   1.298
17440W        W81197  38.940   0.956  12.509
17441W        W81198   5.352  24.492  12.469
17442W        W81199  43.817  18.132  11.043
17443W        W81200  30.126  22.248   2.331
17444W        W81201  22.528  14.214  12.484
17445W        W81202  28.568  41.427   4.763
17446W        W81203  26.558  15.698  12.946
17447W        W81204  12.224  34.954  13.407
17448W        W81205  15.672  37.001  12.564
17449W        W81206  28.971  30.044  12.463
17450W        W81207   4.862  11.792  10.923
17451W        W81208   3.855  17.722   2.252
17452W        W81209  36.862  44.406  14.301
17453W        W81210  12.138  11.855   1.237
17454W        W81211  21.658  14.226   3.630
17455W        W81212   2.399  40.354   1.408
17456W        W81213  28.123   8.204   1.213
17457W        W81214   8.377  24.123  14.359
17458W        W81215  21.534  30.480   2.844
17459W        W81216   2.735  41.314  10.951
17460W        W81217   7.730  20.702   0.815
17461W        W81218  26.548  43.942  13.940
17462W        W81219   8.372  43.352  11.882
17463W        W81220  28.112   3.247   1.274
17464W        W81221  14.828   1.966  10.158
17465W        W81222  29.150  30.473  11.407
17466W        W81223   3.296  23.527   1.934
17467W        W81224  31.623  23.126   1.348
17468W        W81225  29.006  24.063   3.260
17469W        W81226  35.517  40.323  12.007
17470W        W81227  23.688  21.713   1.251
17471W        W81228  32.985  29.495   3.870
17472W        W81229   4.702  11.210   3.818
17473W        W81230   3.232  32.020  12.479
17474W        W81231  19.701  39.359   0.819
17475W        W81232  14.610  26.625  13.942
17476W        W81233   0.299  35.571   3.761
17477W        W81234   1.377   9.196  10.451
17478W        W81235  37.011  11.638  12.860
17479W        W81236   6.285   1.769   2.698
17480W        W81237  28.166  44.405  13.449
17481W        W81238  41.302   0.819  12.459
17482W        W81239  40.319  17.658   4.241
17483W        W81240  14.610   9.826   1.856
17484W        W81241  41.913   2.919   3.655
17485W        W81242  42.974  16.654   3.184
17486W        W81243  31.470  44.322   4.211
17487W        W81244  10.211  39.485  11.379
17488W        W81245  40.525  28.143  13.376
17489W        W81246  43.014  11.708  12.881
17490W        W81247  13.243   4.243  11.553
17491W        W81248   6.221   8.303   3.385
17492W        W81249  17.081  12.791  14.368
17493W        W81250  30.423  38.444  11.574
17494W        W81251   1.843  41.791  11.989
17495W        W81252  18.629  35.381   3.822
17496W        W81253  41.380   7.842   1.884
17497W        W81254   3.291   5.219  11.945
17498W        W81255  27.653  17.717  14.973
17499W        W81256   9.887  30.532  10.432
17500W        W81257   8.874  15.579  14.968
17501W        W81258  37.554  42.363   4.824
17502W        W81259   6.702  18.700  13.812
17503W        W81260   4.834  32.115   2.262
17504W        W81261   5.349  24.517  13.861
17505W        W81262  16.805  39.414  10.592
17506W        W81263  37.463  12.237   4.342
17507W        W81264  25.197  13.171  11.506
17508W        W81265   3.430  33.942   4.149
17509W        W81266  36.928  29.929  11.008
17510W        W81267  30.931  11.830   0.827
17511W        W81268  15.814  24.130   2.669
17512W        W81269  37.848  40.333  11.990
17513W        W81270  23.005  23.679   1.924
17514W        W81271  31.499  38.533   2.338
17515W        W81272   7.849  10.816  12.881
17516W        W81273  31.448  29.517   2.816
17517W        W81274  10.260  29.594   3.692
17518W        W81275   2.295  44.764  13.964
17519W        W81276  12.162  40.935   4.332
17520W        W81277   3.391  33.485   0.816
17521W        W81278  11.203  22.530   2.747
17522W        W81279   7.405  44.876  14.305
17523W        W81280  10.797  11.690   3.384
17524W        W81281  26.662  32.926  14.892
17525W        W81282  32.534  17.588   4.747
17526W        W81283  21.719  33.440   2.190
17527W        W81284  11.350   3.945  13.049
17528W        W81285  35.494  14.588   2.759
17529W        W81286  21.201  25.194  14.451
17530W        W81287  19.575  33.467  13.442
17531W        W81288  38.551  37.540  12.451
17532W        W81289   8.299  28.498  12.393
17533W        W81290  23.120  15.272   0.888
17534W        W81291  27.997  22.066   1.224
17535W        W81292   6.299  19.731   4.193
17536W        W81293  25.648  28.094   2.358
17537W        W81294  43.870  42.519  11.481
17538W        W81295   2.941   1.419  10.584
17539W        W81296  38.903  20.571   1.926
17540W        W81297  11.318  32.468  12.922
17541W        W81298   6.354  15.813  14.774
17542W        W81299  30.488  34.097  12.404
17543W        W81300  41.828  27.517   4.177
17544W        W81301   3.942  26.671   1.321
17545W        W81302  36.542  31.507  11.024
17546W        W81303  28.967   5.797  10.128
17547W        W81304  29.949  22.116   4.186
17548W        W81305  30.584  37.503   2.775
17549W        W81306  20.077  24.986   2.836
17550W        W81307  35.392  25.657  12.999
17551W        W81308  12.625  16.719  14.277
17552W        W81309  11.303   7.722  12.353
17553W        W81310   2.332   0.375   3.366
17554W        W81311  28.171  29.969   0.387
17555W        W81312  12.633  18.791  12.854
17556W        W81313  42.934  42.906   4.645
17557W        W81314  39.827  18.724  12.512
17558W        W81315  16.179  18.114  11.882
17559W        W81316  14.188  43.421  10.084
17560W        W81317  16.101  27.970  13.904
17561W        W81318   0.308  40.415  10.972
17562W        W81319  37.479   0.321  12.441
17563W        W81320  39.949   2.325   0.406
17564W        W81321  17.212   1.247  11.934
17565W        W81322   7.737  26.594   0.443
17566W        W81323  41.512  33.614   1.755
17567W        W81324   6.187  41.302   4.699
17568W        W81325  20.144  31.906   1.388
17569W        W81326   0.339  43.357  13.943
17570W        W81327  14.282  34.581   4.172
17571W        W81328  29.125  37.370   2.299
17572W        W81329  18.183  22.089  11.431
17573W        W81330  11.356  16.598   1.237
17574W        W81331  35.389  35.429   4.302
17575W        W81332   0.264  11.697  11.103
17576W        W81333   4.343  24.154   1.700
17577W        W81334  37.467  12.781  11.436
17578W        W81335   7.673  26.020   1.418
17579W        W81336  21.079   8.304  13.838
17580W        W81337  19.567  30.513  11.883
17581W        W81338   7.736  11.713   0.806
17582W        W81339  19.040  19.201   2.293
17583W        W81340  13.780  20.691   2.235
17584W        W81341  32.409  16.711  13.064
17585W        W81342  25.607  27.555  13.960
17586W        W81343  39.455  20.187  14.945
17587W        W81344  32.430  27.487   2.182
17588W        W81345   3.828   8.233  12.548
17589W        W81346   2.859  35.068  13.819
17590W        W81347  23.657  39.969  12.414
17591W        W81348  10.213  20.225  12.851
17592W        W81349  36.985  22.185   2.344
17593W        W81350  24.166   3.219   0.315
17594W        W81351  23.038   0.780   1.763
17595W        W81352   3.932   5.336   0.481
17596W        W81353  20.664   6.676  14.374
17597W        W81354  20.725  24.167  10.456
17598W        W81355  28.974  21.163  13.426
17599W        W81356  35.008   4.701   4.703
17600W        W81357  29.625  29.073  10.964
17601W        W81358   6.385  29.662   3.807
17602W        W81359  27.622  16.226   1.902
17603W        W81360   8.281  28.004  11.111
17604W        W81361   7.796  13.257   2.404
17605W        W81362  42.030   7.202  13.960
17606W        W81363  13.276  26.104   0.333
17607W        W81364  21.138   1.794   0.324
17608W        W81365  10.862   8.382  11.907
17609W        W81366   3.251  27.123   3.708
17610W        W81367  25.987  33.388  14.819
17611W        W81368  17.752  18.091  14.788
17612W        W81369  20.639  38.467   4.809
17613W        W81370  14.635  25.535   2.709
17614W        W81371  34.576  22.679  14.760
17615W        W81372   0.839  26.547   9.929
17616W        W81373   7.369  33.999   2.711
17617W        W81374   3.942   8.343   2.305
17618W        W81375  18.560  13.210  10.900
17619W        W81376   1.441  32.636  13.361
17620W        W81377  22.613   3.709  14.882
17621W        W81378  39.438   9.739  12.954
17622W        W81379  10.688  39.330   0.258
17623W        W81380  35.018  33.972  14.951
17624W        W81381   7.278  17.229  12.893
17625W        W81382  14.750  26.640  13.420
17626W        W81383  34.513  44.286   2.673
17627W        W81384  26.596  39.028   1.358
17628W        W81385   0.968  35.471   3.670
17629W        W81386  40.982  14.189  10.962
17630W        W81387   3.863  21.523   4.333
17631W        W81388  12.239   5.726   2.804
17632W        W81389  39.445  32.934  10.916
17633W        W81390  37.444  41.398  13.843
17634W        W81391  30.592  26.547   3.643
17635W        W81392  39.379  36.521   3.230
17636W        W81393  34.911  15.617   5.265
17637W        W81394  29.918  14.287  14.456
17638W        W81395  15.149   9.666  11.923
17639W        W81396  44.318  22.579   4.646
17640W        W81397  36.406  28.173  12.015
17641W        W81398  10.244  13.782  14.301
17642W        W81399   5.349  44.287   4.186
17643W        W81400  34.610  25.087  14.323
17644W        W81401  40.987  17.131  12.058
17645W        W81402  33.110  17.591  11.017
17646W        W81403   2.763   2.794   2.383
17647W        W81404  41.335  22.058  12.417
17648W        W81405  20.603  42.306  14.010
17649W        W81406  10.738   8.387  10.470
17650W        W81407  11.853  27.643  11.521
17651W        W81408  26.504  37.379   3.311
17652W        W81409  18.228   3.836   4.187
17653W        W81410   3.794  43.830  14.853
17654W        W81411  21.723   5.206   1.863
17655W        W81412  36.365  26.056   4.175
17656W        W81413  34.911   1.883   3.632
17657W        W81414  44.774  13.136   1.236
17658W        W81415   6.286  42.981   0.289
17659W        W81416  40.844  21.074  12.557
17660W        W81417   0.252  13.135   2.283
17661W        W81418   1.388   9.329   0.799
17662W        W81419   7.681  44.758   0.772
17663W        W81420  39.497  31.115   4.169
17664W        W81421  24.215  21.750  13.006
17665W        W81422   3.816  40.515   4.161
17666W        W81423   9.281   1.793  10.890
17667W        W81424  43.937   5.879  14.433
17668W        W81425   8.292   8.765   4.754
17669W        W81426  10.335   0.947  13.921
17670W        W81427  40.923  30.551   1.744
17671W        W81428  30.625  17.584  13.032
17672W        W81429  25.548  26.678  12.899
17673W        W81430  23.156  39.011   3.209
17674W        W81431   2.305   5.709   1.310
17675W        W81432  11.639  44.398   4.161
17676W        W81433  10.636   4.327  10.541
17677W        W81434  12.830   2.380   1.824
17678W        W81435  15.121  21.666  10.888
17679W        W81436   3.231  34.982   1.398
17680W        W81437  31.614   2.230  11.874
17681W        W81438  32.431   3.269  12.016
17682W        W81439   8.327  17.108   1.847
17683W        W81440  14.751  38.491   3.828
17684W        W81441  10.299  27.630   2.339
17685W        W81442   4.896  34.001   2.874
17686W        W81443  15.111  27.539  14.336
17687W        W81444  14.191   4.215   2.829
17688W        W81445   4.808  40.400  12.409
17689W        W81446  14.141   6.200   0.928
17690W        W81447  18.089  11.835  10.046
17691W        W81448  26.532  38.429   0.901
17692W        W81449  39.878  10.277  10.602
17693W        W81450  11.807  41.855   0.894
17694W        W81451   6.707  14.145   4.741
17695W        W81452  27.619  16.783   0.470
17696W        W81453   9.188  38.496   2.323
17697W        W81454  28.680  32.606  11.044
17698W        W81455  39.029  15.704  13.023
17699W        W81456  13.836  19.571  13.812
17700W        W81457  35.413  23.571   0.250
17701W        W81458  41.916  39.872   5.289
17702W        W81459  20.130   1.870  10.964
17703W        W81460  15.606  44.965   1.372
17704W        W81461   8.352   2.858   4.773
17705W        W81462  17.135  37.471   3.680
17706W        W81463   5.314  21.193   3.664
17707W        W81464  27.078  32.455   4.261
17708W        W81465  36.039  20.575   2.302
17709W        W81466  21.736  44.331   2.812
17710W        W81467  33.043  14.825   3.301
17711W        W81468   9.866  30.091   3.740
17712W        W81469   3.453  42.945   1.315
17713W        W81470   6.903  24.017   3.803
17714W        W81471   4.929  14.735   2.380
17715W        W81472  43.467  35.406  10.477
17716W        W81473  25.202  40.541  14.349
17717W        W81474   5.350  34.598   1.391
17718W        W81475  18.181   0.269  14.425
17719W        W81476   1.359   1.902  12.824
17720W        W81477  30.608  12.734  10.452
17721W        W81478  26.563  44.438   0.760
17722W        W81479   8.341  20.668  11.861
17723W        W81480  10.173   4.244   3.726
17724W        W81481  18.703  28.498   2.313
17725W        W81482  22.545   9.646   2.400
17726W        W81483   7.394  26.025   4.203
17727W        W81484  37.920   1.898  11.476
17728W        W81485  26.668  27.546   3.364
17729W        W81486   1.951  18.787  13.376
17730W        W81487  23.134  31.920   3.238
17731W        W81488  27.990  40.010   4.324
17732W        W81489  35.858  22.721   2.197
17733W        W81490   1.886  21.113   4.218
17734W        W81491  25.092  38.354  12.519
17735W        W81492  10.664  28.531  12.040
17736W        W81493  25.690  12.174   3.186
17737W        W81494  28.125  35.451   2.873
17738W        W81495  18.177  39.408  13.835
17739W        W81496  27.611  44.288  12.519
17740W        W81497  32.600  34.499   2.299
17741W        W81498  37.921  26.150  10.485
17742W        W81499  22.508  33.519  11.898
17743W        W81500   7.890   4.298  14.943
17744W        W81501  40.470  16.605  13.025
17745W        W81502  11.715   7.318  10.497
17746W        W81503  33.538  28.492   0.404
17747W        W81504  10.315  19.748  11.571
17748W        W81505  32.550  17.110   2.189
17749W        W81506  25.094  24.669   1.852
17750W        W81507  30.563  39.402  11.056
17751W        W81508  32.898  38.821  13.977
17752W        W81509  42.454  11.788   0.266
17753W        W81510   6.706  18.091   1.796
17754W        W81511  40.406   4.944   4.806
17755W        W81512   7.750  18.579  12.352
17756W        W81513  36.518   8.791  13.977
17757W        W81514  25.019  33.432  12.484
17758W        W81515  36.455  41.292   0.963
17759W        W81516  34.959  17.277  11.543
17760W        W81517   8.728   1.759  11.954
17761W        W81518  22.202  29.663   1.441
17762W        W81519  34.588  13.333  12.403
17763W        W81520   7.298  27.146  12.932
17764W        W81521  42.371  30.595   1.410
17765W        W81522   0.313  28.520   2.876
17766W        W81523  42.383  35.469  10.955
17767W        W81524  19.163  18.191  14.383
17768W        W81525  21.186   7.293   2.358
17769W        W81526   9.837  11.759   4.754
17770W        W81527  27.565  14.208  14.013
17771W        W81528  14.592  38.526   1.734
17772W        W81529   6.761  14.757  12.411
17773W        W81530   6.356  42.524   4.725
17774W        W81531  41.898  19.239  14.837
17775W        W81532   1.266  36.854  11.972
17776W        W81533  40.332  30.619  13.835
17777W        W81534   5.844  42.898  12.346
17778W        W81535   1.242  39.058   4.286
17779W        W81536  29.523  44.429   0.455
17780W        W81537   1.817  29.543  13.413
17781W        W81538  22.695  28.997  13.856
17782W        W81539  42.348  31.466   2.387
17783W        W81540  28.447  20.082   3.341
17784W        W81541   0.350  15.324  11.511
17785W        W81542  17.737  22.562  14.288
17786W        W81543   8.880  13.277   1.933
17787W        W81544  12.765  13.192   2.347
17788W        W81545  13.129  39.008   4.835
17789W        W81546  17.634  37.339   4.687
17790W        W81547  17.067  14.619   2.179
17791W        W81548  11.637  43.974   2.275
17792W        W81549   0.941  33.983  13.496
17793W        W81550  20.194   6.251  13.880
17794W        W81551  35.967  17.686  12.448
17795W        W81552  34.438   9.703  10.454
17796W        W81553  25.000  17.120   1.286
17797W        W81554  32.987   2.373   3.216
17798W        W81555  31.903  10.641   3.186
17799W        W81556  14.705   7.203   2.414
17800W        W81557  42.012  44.415   3.173
17801W        W81558  25.043  24.078  10.103
17802W        W81559  14.778  39.057   1.742
17803W        W81560  35.894  21.552  11.435
17804W        W81561  35.967  22.677   2.776
17805W        W81562  31.076  10.846  12.429
17806W        W81563   6.840  41.860  12.922
17807W        W81564  32.114  16.184   1.379
17808W        W81565  41.352  40.833  14.881
17809W        W81566  35.950   0.297  11.971
17810W        W81567   4.336  10.363  10.513
17811W        W81568   6.691   3.460  13.825
17812W        W81569  37.391   6.878   2.343
17813W        W81570  35.586  43.875   4.144
17814W        W81571  24.143  42.853   0.337
17815W        W81572  13.838  38.470   2.333
17816W        W81573   1.314  16.767   0.290
17817W        W81574  24.496  27.038  13.511
17818W        W81575  44.391  44.439   1.830
17819W        W81576  42.437  27.996   1.263
17820W        W81577  24.698  34.600   4.822
17821W        W81578   4.379  27.178   0.781
17822W        W81579   6.301  34.924   1.792
17823W        W81580  22.664  23.235  10.144
17824W        W81581  39.870  43.428   3.287
17825W        W81582  33.428  28.096   2.411
17826W        W81583   7.221  29.660   1.381
17827W        W81584   4.923  36.903   3.824
17828W        W81585  29.433  25.081  10.118
17829W        W81586  23.498  44.832   4.603
17830W        W81587  23.072  27.193   0.417
17831W        W81588  27.636  37.004   0.902
17832W        W81589  29.613  25.483   2.820
17833W        W81590  32.001  17.187   1.907
17834W        W81591   9.351  13.670  11.087
17835W        W81592  28.159  18.738   9.488
17836W        W81593  40.941  11.139   2.872
17837W        W81594  28.503   0.787  14.961
17838W        W81595  10.358  11.259   0.326
17839W        W81596  26.687   2.965  11.510
17840W        W81597  22.252  16.225  14.299
17841W        W81598  30.992  16.244  12.097
17842W        W81599  41.421  38.465   4.675
17843W        W81600  36.949  41.907  12.564
17844W        W81601   0.833  39.997   0.876
17845W        W81602  38.847  32.024   4.646
17846W        W81603  19.764  30.965   0.738
17847W        W81604  35.860  28.442   9.957
17848W        W81605  42.433   5.255   4.755
17849W        W81606  30.111  28.014   2.880
17850W        W81607  41.348  10.757  13.800
17851W        W81608  36.363  42.299   1.229
17852W        W81609  40.993  34.392   1.222
17853W        W81610  39.918  25.975  12.052
17854W        W81611   9.696  22.244   0.246
17855W        W81612  40.488  16.606   1.253
17856W        W81613   2.319  34.403   1.735
17857W        W81614  10.372  43.343  11.003
17858W        W81615  21.520   5.931  14.307
17859W        W81616  40.443  10.756   1.322
17860W        W81617  23.543   3.848   2.279
17861W        W81618  20.219  18.691   1.705
17862W        W81619  27.014  44.326  12.432
17863W        W81620  33.010  17.099  14.283
17864W        W81621  34.105   2.236  14.317
17865W        W81622   6.226  26.495  12.070
17866W        W81623  31.021   2.723   5.258
17867W        W81624  34.879  44.353   0.406
17868W        W81625  43.919  35.036   2.764
17869W        W81626  44.766   5.300  12.432
17870W        W81627  28.616   3.857  10.445
17871W        W81628  20.631   7.256   4.249
17872W        W81629  11.823  40.871  11.046
17873W        W81630  42.365  30.148   2.269
17874W        W81631  32.464  22.587  13.428
17875W        W81632  21.063   8.301   3.719
17876W        W81633  37.519  30.924  10.458
17877W        W81634  23.086  32.472   0.432
17878W        W81635  15.232  23.571  12.351
17879W        W81636  15.135  12.749  14.286
17880W        W81637  40.422  30.494   1.789
17881W        W81638  44.876  34.376   0.848
17882W        W81639  40.039  39.347   2.341
17883W        W81640  44.970   2.802   4.728
17884W        W81641  44.779   4.450  13.863
17885W        W81642  21.659   7.373   0.849
17886W        W81643  36.889  44.437  12.001
17887W        W81644  12.317  31.462   3.685
17888W        W81645  12.840  10.229   2.192
17889W        W81646  28.627  31.533  11.467
17890W        W81647   2.725  35.411   1.407
17891W        W81648  31.030   0.908   1.917
17892W        W81649  18.558   1.297   0.775
17893W        W81650  18.100  43.466  10.497
17894W        W81651   1.376  27.110   3.224
17895W        W81652   9.787  16.693   0.889
17896W        W81653   5.393  26.158   4.169
17897W        W81654  37.521  14.220  11.033
17898W        W81655  20.269  13.333   2.695
17899W        W81656  41.801  30.012   0.959
17900W        W81657  37.514  10.729  12.987
17901W        W81658  18.716  25.630   3.808
17902W        W81659   4.769  15.136  12.074
17903W        W81660   3.275  34.421   2.337
17904W        W81661   4.887  30.448  12.891
17905W        W81662  19.608  26.615  10.147
17906W        W81663   9.247  31.083  14.366
17907W        W81664   2.226  32.919  14.966
17908W        W81665  10.296   8.658   4.262
17909W        W81666  37.006  29.426  11.374
17910W        W81667  27.157  17.116  11.072
17911W        W81668  22.649  30.064   3.361
17912W        W81669  19.657  22.607   5.129
17913W        W81670  25.509   8.169   1.817
17914W        W81671  26.634  19.184  13.393
17915W        W81672  23.557  34.927  14.785
17916W        W81673  27.586  22.548   2.349
17917W        W81674  19.627  35.601   4.182
17918W        W81675   7.869  33.606   0.846
17919W        W81676  12.130  27.542  14.937
17920W        W81677   5.331  21.200   1.266
17921W        W81678  17.148  35.036   5.160
17922W        W81679  39.399  33.019  12.909
17923W        W81680  33.449   8.879   1.843
17924W        W81681  33.015   4.245   1.438
17925W        W81682   6.361  14.119   2.208
17926W        W81683  36.885   3.767   0.961
17927W        W81684  30.532  20.638  13.826
17928W        W81685  34.050  25.631  11.432
17929W        W81686  18.690  43.895  14.937
17930W        W81687  17.212  10.251  10.934
17931W        W81688  33.103  31.954  10.959
17932W        W81689  25.573   8.201  12.868
17933W        W81690   7.791  14.159   1.267
17934W        W81691  11.324  16.077  14.910
17935W        W81692  37.001  40.463   0.787
17936W        W81693  42.948  39.926  12.421
17937W        W81694  39.040  16.784   2.728
17938W        W81695  24.658  30.042  14.778
17939W        W81696  31.631  17.224   3.366
17940W        W81697   9.386  34.019   4.810
17941W        W81698  24.189  25.538   1.224
17942W        W81699  28.548   0.459  12.881
17943W        W81700  44.889   1.310   4.248
17944W        W81701   8.816  10.233   3.649
17945W        W81702  44.985  17.281   0.276
17946W        W81703  26.495  22.626   2.397
17947W        W81704  11.709  33.905  10.517
17948W        W81705   8.695  18.179  11.422
17949W        W81706  43.014  41.786  14.477
17950W        W81707  41.499   0.784  13.970
17951W        W81708   6.242   5.891  11.446
17952W        W81709   5.203   6.351  11.407
17953W        W81710  27.507   9.647  11.892
17954W        W81711  38.364  22.507  12.422
17955W        W81712  30.010   7.872  12.346
17956W        W81713  34.416  18.737   4.763
17957W        W81714  24.660  35.870  13.430
17958W        W81715  15.088   3.242  14.849
17959W        W81716   0.962  25.199   2.724
17960W        W81717  11.360   6.750   0.852
17961W        W81718  28.072   3.325  11.092
17962W        W81719  37.582  41.395   0.727
17963W        W81720  42.953  44.754   3.736
17964W        W81721   9.167   9.379  14.299
17965W        W81722   8.857  14.320   4.276
17966W        W81723  41.856  33.069  14.935
17967W        W81724   7.684   9.262   0.825
17968W        W81725  30.145  39.901   3.823
17969W        W81726  36.005  18.730  11.944
17970W        W81727  30.534  24.124  13.949
17971W        W81728  15.785  37.435   4.148
17972W        W81729  27.030   9.349   2.225
17973W        W81730   1.369   1.818   0.760
17974W        W81731  33.453  39.551  10.424
17975W        W81732  41.440  43.408  11.921
17976W        W81733  24.585  34.998   4.126
17977W        W81734  32.490  43.407  14.914
17978W        W81735  29.031  32.006  13.432
17979W        W81736  27.964   1.808   5.316
17980W        W81737   0.921  15.281   3.346
17981W        W81738  22.526  38.839   5.151
17982W        W81739   6.787  24.129   1.794
17983W        W81740  37.346  31.903   0.860
17984W        W81741  26.670   9.800   4.742
17985W        W81742   4.404   8.199   3.830
17986W        W81743   0.479  15.322  14.767
17987W        W81744  17.218  38.528  14.485
17988W        W81745  41.972   6.186  13.498
17989W        W81746  44.346  27.097  11.521
17990W        W81747  11.265  33.947   0.732
17991W        W81748  11.277  33.048   0.274
17992W        W81749  14.170  41.319  12.946
17993W        W81750  31.910  20.183   2.812
17994W        W81751   8.741  10.138   3.245
17995W        W81752   5.291  42.884   5.300
17996W        W81753  34.595  34.599  14.403
17997W        W81754  44.451  40.929  12.947
17998W        W81755  26.583  17.591   0.852
17999W        W81756  20.192   3.297   4.172
18000W        W81757  18.761   3.449   4.812
18001W        W81758  44.317  39.873   4.784
18002W        W81759   2.307  36.995   2.688
18003W        W81760   8.221  11.286  11.934
18004W        W81761  13.339  10.147  11.951
18005W        W81762  19.712  36.953   0.899
18006W        W81763  19.243  36.574  11.106
18007W        W81764  38.002  34.417   4.125
18008W        W81765  11.267  17.182  12.948
18009W        W81766  10.371  42.360  12.907
18010W        W81767  42.299  33.405  13.949
18011W        W81768  33.967  34.464   3.741
18012W        W81769   0.447  10.728  13.313
18013W        W81770  34.068   7.386  14.287
18014W        W81771  15.280  19.606  13.874
18015W        W81772  33.567  30.045   0.907
18016W        W81773  40.445   0.298  10.075
18017W        W81774  11.834  15.767   0.482
18018W        W81775  17.196  19.620  11.963
18019W        W81776   3.952  28.045  12.361
18020W        W81777  39.381  11.759   2.195
18021W        W81778   4.875   6.332   2.762
18022W        W81779   0.877  24.590   3.150
18023W        W81780  22.594  26.680  14.466
18024W        W81781  30.993  24.596   3.251
18025W        W81782  21.757  11.183  10.454
18026W        W81783  35.408  30.627  10.894
18027W        W81784  39.337  19.604   2.883
18028W        W81785   6.384   0.750  11.573
18029W        W81786   1.387  13.287   2.829
18030W        W81787  28.142   8.823   0.294
18031W        W81788  12.267  37.356   2.716
18032W        W81789  12.155  23.221  14.292
18033W        W81790  19.716  30.149   1.387
18034W        W81791  11.646   1.315  11.987
18035W        W81792  35.876   4.701  13.883
18036W        W81793  35.489  31.994  12.468
18037W        W81794  14.271  33.466  13.907
18038W        W81795  16.268   6.750  11.574
18039W        W81796  22.633   3.239   0.404
18040W        W81797   6.197  41.389   2.252
18041W        W81798  15.094  44.457   4.348
18042W        W81799  10.144   8.755   1.920
18043W        W81800  29.478  26.159   2.333
18044W        W81801   3.284  25.570  12.376
18045W        W81802  10.826  35.576  12.433
18046W        W81803  17.091  34.420  11.594
18047W        W81804  11.370  28.932  12.960
18048W        W81805  15.750  27.130  12.536
18049W        W81806   0.384  26.026  10.891
18050W        W81807  21.179   8.704   4.245
18051W        W81808  20.757  38.976   3.172
18052W        W81809  16.641   1.942  13.385
18053W        W81810   1.336  37.403   3.338
18054W        W81811  25.169  14.639  14.502
18055W        W81812  26.162  15.283   2.713
18056W        W81813   8.227  11.197  13.864
18057W        W81814  44.348  13.148   1.853
18058W        W81815  39.375   0.285   1.729
18059W        W81816  20.246   9.153  13.481
18060W        W81817  31.554  15.184   3.154
18061W        W81818   0.465  28.455  13.050
18062W        W81819   1.876  30.573  14.936
18063W        W81820  18.707   1.356   3.291
18064W        W81821   0.952  22.695   0.310
18065W        W81822  20.156   2.242   1.239
18066W        W81823  19.076  40.464  10.584
18067W        W81824  36.445  23.194  12.452
18068W        W81825  32.523  27.053   1.749
18069W        W81826  26.013  19.737   4.819
18070W        W81827  17.667   6.879   4.804
18071W        W81828   4.707  21.682   3.705
18072W        W81829  26.120  20.150  10.483
18073W        W81830  32.457   8.365   0.958
18074W        W81831  31.113  11.173   0.447
18075W        W81832  43.881   9.264   1.392
18076W        W81833  31.096   4.836   1.729
18077W        W81834  12.142  19.262   2.691
18078W        W81835  18.721  44.280   2.860
18079W        W81836  12.735   6.279   0.901
18080W        W81837  29.476   0.282   2.344
18081W        W81838  36.348  32.421   2.844
18082W        W81839   9.763   2.411   1.351
18083W        W81840  30.954  40.308  11.876
18084W        W81841   9.177  23.228   2.227
18085W        W81842   2.722  32.568   4.340
18086W        W81843  40.486  38.038   4.308
18087W        W81844   3.293  33.401   4.242
18088W        W81845  35.056  33.562   3.735
18089W        W81846  39.377  26.596   4.691
18090W        W81847  25.153  21.756   4.743
18091W        W81848  25.027  33.425  14.376
18092W        W81849   4.238  35.502   1.776
18093W        W81850  21.184   4.309  11.479
18094W        W81851  27.453  23.562  11.497
18095W        W81852   2.348  25.603  14.401
18096W        W81853  27.545  41.820  11.061
18097W        W81854  18.721  27.472  11.496
18098W        W81855  35.983   0.286   1.395
18099W        W81856  20.053  10.185  14.406
18100W        W81857  29.522   6.232   3.157
18101W        W81858  44.917  16.667   3.245
18102W        W81859   0.349  38.863  11.085
18103W        W81860  26.169  40.809  10.987
18104W        W81861  10.236  18.128  12.055
18105W        W81862   7.172  44.465  14.976
18106W        W81863  44.762  15.163   2.679
18107W        W81864   5.824  24.107  14.911
18108W        W81865  36.883  35.931  12.577
18109W        W81866  36.015  44.883   3.386
18110W        W81867  16.567  41.518  11.402
18111W        W81868  17.780  33.400  12.367
18112W        W81869  34.924   8.837  11.416
18113W        W81870  38.000  10.331   1.341
18114W        W81871  16.784  28.658   3.312
18115W        W81872  35.946  35.086  14.370
18116W        W81873   9.732  31.556  12.093
18117W        W81874   3.322   1.325   3.650
18118W        W81875  11.339  41.987   2.257
18119W        W81876  31.110  21.030  10.114
18120W        W81877  21.567  32.936  14.303
18121W        W81878  12.151  16.784   4.219
18122W        W81879  41.875   3.753  10.467
18123W        W81880  41.337  24.606  10.984
18124W        W81881   6.830   7.318  11.111
18125W        W81882  41.879   9.343  10.536
18126W        W81883  43.390  12.220  12.081
18127W        W81884   7.715  18.083   0.483
18128W        W81885   1.902  25.119  12.936
18129W        W81886   7.388  27.169  10.606
18130W        W81887  29.109  11.260  14.903
18131W        W81888  22.231  19.158  11.104
18132W        W81889   9.173  27.498   3.190
18133W        W81890  44.391  16.791   2.826
18134W        W81891  30.073   9.345  11.511
18135W        W81892  16.185  11.864   2.686
18136W        W81893  12.245   6.409  11.922
18137W        W81894  12.784  41.326  10.585
18138W        W81895  26.082  43.510   1.298
18139W        W81896  39.394  12.201  10.996
18140W        W81897  30.009  33.947   0.477
18141W        W81898  12.852  20.084  13.401
18142W        W81899  40.928  26.463   0.419
18143W        W81900  23.525  10.682   3.232
18144W        W81901   9.335  33.932  13.871
18145W        W81902  38.404   6.864   2.739
18146W        W81903  11.829   9.732   4.119
18147W        W81904  36.922  35.937  13.842
18148W        W81905  41.937  21.701  13.345
18149W        W81906  11.694   3.363  11.088
18150W        W81907  22.035  15.755   4.289
18151W        W81908   6.805  12.122  11.961
18152W        W81909   4.402  19.143  12.451
18153W        W81910  43.373  43.345   0.322
18154W        W81911  27.685  12.267  13.841
18155W        W81912  14.634   6.677   2.233
18156W        W81913  20.604  21.239   2.695
18157W        W81914  32.105  21.233  14.488
18158W        W81915  16.150  42.370   2.271
18159W        W81916  23.154  39.553   2.252
18160W        W81917  25.488   6.415  11.490
18161W        W81918  24.186  20.187   3.173
18162W        W81919  26.009  33.063  11.110
18163W        W81920  15.270  39.997   4.265
18164W        W81921  44.460  25.645   2.238
18165W        W81922  13.325  39.467   2.718
18166W        W81923  31.128  35.975   1.343
18167W        W81924  19.255  24.683  11.425
18168W        W81925  16.653  12.743   2.671
18169W        W81926  36.547  33.881  10.581
18170W        W81927  36.880  25.997  13.889
18171W        W81928  24.721  44.363  13.031
18172W        W81929  43.413   6.300  11.065
18173W        W81930  43.498   6.849  12.912
18174W        W81931   0.303  29.149   2.750
18175W        W81932  20.228  16.269   2.852
18176W        W81933  40.357  28.464  10.952
18177W        W81934  32.995  34.107  12.401
18178W        W81935  28.658   9.863   3.857
18179W        W81936  33.567  33.033   0.327
18180W        W81937  11.763   2.877  10.575
18181W        W81938  23.102  17.698  11.378
18182W        W81939   5.428   5.810   4.751
18183W        W81940   8.844   6.741  14.005
18184W        W81941  21.229  36.853   3.328
18185W        W81942  17.666  37.967   4.198
18186W        W81943  34.013  20.166  12.849
18187W        W81944  33.076   2.277  11.092
18188W        W81945   8.742   3.380   3.788
18189W        W81946  18.237  27.685  13.945
18190W        W81947  16.183   5.358  10.481
18191W        W81948  32.435   3.217  13.833
18192W        W81949  38.021   6.809  12.493
18193W        W81950  35.867  33.924   1.913
18194W        W81951  10.156  42.016   0.739
18195W        W81952  34.931  15.628   9.952
18196W        W81953  41.971  17.800  13.442
18197W        W81954   4.892   2.281   3.212
18198W        W81955   9.819  37.948  14.359
18199W        W81956  37.379   7.870   3.324
18200W        W81957   8.688   9.703  13.314
18201W        W81958  13.165  14.614   4.675
18202W        W81959  13.783  44.358  14.329
18203W        W81960  28.148  22.523  13.993
18204W        W81961  14.758   8.660   4.692
18205W        W81962  41.447  18.286   4.671
18206W        W81963  16.601  24.662  13.867
18207W        W81964   8.312  33.412   2.901
18208W        W81965  12.761  17.766   1.748
18209W        W81966   2.764  35.572   3.811
18210W        W81967   0.298  13.159  11.086
18211W        W81968  42.880  27.534   1.309
18212W        W81969  41.975  17.696  14.434
18213W        W81970  10.225  12.685   2.399
18214W        W81971  19.268  41.984  11.927
18215W        W81972  28.083   2.365   3.317
18216W        W81973  40.523  18.757  12.955
18217W        W81974  33.407  26.007  11.450
18218W        W81975   3.797  37.073   0.256
18219W        W81976  12.291  36.055   4.151
18220W        W81977   7.194  12.329   0.379
18221W        W81978  32.451  24.063   2.758
18222W        W81979  25.962  15.240  12.025
18223W        W81980  33.042  28.444   0.446
18224W        W81981  23.124  21.519  11.427
18225W        W81982  43.019  27.504  10.906
18226W        W81983  16.631  43.002   2.831
18227W        W81984   9.831  41.421  11.066
18228W        W81985   8.848  16.683   2.276
18229W        W81986   1.356  28.072  14.491
18230W        W81987  38.473  39.541  11.461
18231W        W81988  12.240  43.342  11.028
18232W        W81989  10.636  31.052  13.420
18233W        W81990  30.150  38.390   4.144
18234W        W81991   3.814   8.204   0.934
18235W        W81992  24.006   0.394  13.796
18236W        W81993  25.969  11.127  14.883
18237W        W81994   2.318  16.579  12.355
18238W        W81995  30.546  26.466   9.972
18239W        W81996  22.067  42.835  11.491
18240W        W81997  25.120  14.114  12.499
18241W        W81998  44.859   8.886   1.418
18242W        W81999  12.226  32.619   1.382
18243W        W82000  20.152  31.972  10.075
18244W        W82001  14.252  21.746   5.272
18245W        W82002   7.866  28.957   0.758
18246W        W82003  28.960  22.113  10.458
18247W        W82004   3.339  22.109   0.877
18248W        W82005  34.004  31.627   0.284
18249W        W82006  44.417  37.422  14.465
18250W        W82007  29.146   8.801   0.247
18251W        W82008  25.214  12.804   0.330
18252W        W82009  28.988  32.947  14.515
18253W        W82010  38.846  27.945  11.400
18254W        W82011  23.656   4.901  13.544
18255W        W82012  30.485   7.824   1.910
18256W        W82013   8.847  33.965  10.469
18257W        W82014  21.221  11.662   3.834
18258W        W82015  19.094  36.478   3.276
18259W        W82016   4.250  29.977  14.856
18260W        W82017  17.623  33.058   1.723
18261W        W82018  14.204  19.707  10.571
18262W        W82019  30.641  15.101   3.804
18263W        W82020   5.734   6.233   0.253
18264W        W82021  26.497  36.505   1.733
18265W        W82022  31.110   0.298   2.822
18266W        W82023  24.164  26.039  13.528
18267W        W82024   2.431  43.414   2.261
18268W        W82025  32.046  21.196   3.307
18269W        W82026  22.531  29.516   2.353
18270W        W82027  42.012   7.789   0.461
18271W        W82028  14.681  18.710   2.307
18272W        W82029  19.576  11.781  12.390
18273W        W82030  15.237  29.972  13.415
18274W        W82031   6.891  15.177   2.186
18275W        W82032  21.054  28.011   4.194
18276W        W82033  25.965  11.633  13.902
18277W        W82034  40.400  16.178   0.949
18278W        W82035  18.185  42.332   3.233
18279W        W82036  33.895  32.447  10.619
18280W        W82037  28.593  43.917  12.532
18281W        W82038  35.983  13.203  14.516
18282W        W82039  19.094  12.689  12.914
18283W        W82040  25.010  13.264  13.318
18284W        W82041  43.408  18.182   3.181
18285W        W82042  38.447  44.829  13.854
18286W        W82043  31.552   8.882   2.245
18287W        W82044  17.192  23.611   0.376
18288W        W82045  18.767  43.320   4.319
18289W        W82046   4.825  40.353  14.866
18290W        W82047  11.302  35.912   2.855
18291W        W82048  17.219  41.884  12.044
18292W        W82049  25.636  41.447  10.416
18293W        W82050   2.339  11.709  11.444
18294W        W82051  32.912  33.880  11.002
18295W        W82052  42.006  44.376  14.279
18296W        W82053  20.148   4.795  14.834
18297W        W82054   0.759   5.702   2.412
18298W        W82055  33.114  35.360   4.643
18299W        W82056  25.550  19.656   1.268
18300W        W82057  30.970  21.058  10.547
18301W        W82058  12.119  22.184  13.934
18302W        W82059  39.340  11.659  11.535
18303W        W82060   4.369   8.878   0.909
18304W        W82061  31.076  19.651  14.845
18305W        W82062  28.513  43.474  10.988
18306W        W82063  20.748  14.195   2.740
18307W        W82064  12.827   5.261   3.346
18308W        W82065  12.359  35.083  13.905
18309W        W82066  30.589  32.123  12.362
18310W        W82067  36.963  10.857   0.277
18311W        W82068   1.958  32.476   3.226
18312W        W82069  43.883   6.807   1.238
18313W        W82070  34.006  18.703  14.991
18314W        W82071  30.644  10.209  14.387
18315W        W82072  36.894  18.747   0.278
18316W        W82073  44.314  15.215  12.975
18317W        W82074   5.823  20.208   3.789
18318W        W82075  38.827  29.436  11.069
18319W        W82076  24.506   5.737  12.488
18320W        W82077  11.717  12.630  13.927
18321W        W82078   5.386  42.821   0.729
18322W        W82079  13.126   3.377   5.195
18323W        W82080  38.073  29.559   0.745
18324W        W82081   4.778  32.039   2.857
18325W        W82082   1.850  18.173  10.432
18326W        W82083  31.142   5.409   4.713
18327W        W82084  23.636  22.047   1.383
18328W        W82085  38.028  17.180   3.655
18329W        W82086  16.804   7.782   0.480
18330W        W82087  12.758  18.720  14.853
18331W        W82088  41.526   7.242  12.513
18332W        W82089  33.013  20.601  14.773
18333W        W82090   8.900   6.771   1.393
18334W        W82091  26.146  20.110   0.345
18335W        W82092   8.298  31.429   1.759
18336W        W82093   6.237   3.242   0.454
18337W        W82094  25.069  28.521   1.436
18338W        W82095  42.934   0.904  12.414
18339W        W82096  38.910   1.945   3.814
18340W        W82097   9.843  20.137   0.888
18341W        W82098  39.854  15.120  13.858
18342W        W82099  18.238   2.402   1.450
18343W        W82100  44.942   1.966   3.869
18344W        W82101  16.749  27.532  14.915
18345W        W82102   3.233   1.770  12.949
18346W        W82103   0.290  33.900  12.562
18347W        W82104  12.256  42.900  11.471
18348W        W82105  24.229  23.530  10.992
18349W        W82106  23.671   1.471   3.820
18350W        W82107  31.576   0.392  14.996
18351W        W82108  36.346  44.851   2.312
18352W        W82109  33.050  25.157  13.437
18353W        W82110  31.138  20.567   2.328
18354W        W82111  15.782  28.611   0.738
18355W        W82112  14.284   2.389  11.469
18356W        W82113  10.360  27.667  12.528
18357W        W82114  34.053  39.358  14.920
18358W        W82115   6.880  43.892  10.557
18359W        W82116  16.664  31.577   3.176
18360W        W82117   0.463   4.337  14.394
18361W        W82118  40.349  33.090  12.875
18362W        W82119  40.857   8.882   4.746
18363W        W82120  23.224  28.077   2.819
18364W        W82121  15.329  11.199   3.329
18365W        W82122   6.361  38.493  13.818
18366W        W82123   8.691  44.949  12.977
18367W        W82124   4.326   1.262   0.474
18368W        W82125  42.489   7.352   3.764
18369W        W82126  34.083   5.711  13.507
18370W        W82127  22.011  37.860  11.380
18371W        W82128   1.471  28.036  13.423
18372W        W82129  36.451  21.203   0.788
18373W        W82130  31.001  41.985  14.372
18374W        W82131  37.048  33.902  14.346
18375W        W82132  21.170   6.258  12.056
18376W        W82133  21.120  32.133   4.765
18377W        W82134  21.188  14.105   2.742
18378W        W82135  35.490   9.668   3.351
18379W        W82136  30.484   9.761  14.900
18380W        W82137   8.403  15.110   9.940
18381W        W82138   4.244   4.734   3.330
18382W        W82139  34.555  35.583   3.667
18383W        W82140   9.769  13.254  13.053
18384W        W82141  29.075  42.381  13.010
18385W        W82142  43.513  36.410   3.158
18386W        W82143  34.951   0.341   0.896
18387W        W82144  33.098  13.601   4.180
18388W        W82145  44.480   7.764  14.962
18389W        W82146   1.897   2.966  10.906
18390W        W82147   4.789  15.264  10.073
18391W        W82148  20.076   1.778  10.586
18392W        W82149  34.925  37.543  14.893
18393W        W82150  34.005  42.848   3.809
18394W        W82151  27.563   7.824   4.218
18395W        W82152   2.397  25.617  14.932
18396W        W82153  37.838  42.291   2.267
18397W        W82154  42.409  20.712  13.893
18398W        W82155  18.790  39.836   3.716
18399W        W82156  30.414  29.427  12.371
18400W        W82157  18.184  21.591  13.830
18401W        W82158  44.484  38.565  14.981
18402W        W82159  31.088  37.980  10.463
18403W        W82160  37.027   2.831   2.784
18404W        W82161   5.348  27.066   1.373
18405W        W82162  19.121  27.611   4.646
18406W        W82163  19.135  12.750   1.345
18407W        W82164  33.107  34.570  10.410
18408W        W82165  20.536  19.095   3.322
18409W        W82166   7.330  26.499   3.689
18410W        W82167  36.020  43.470  13.990
18411W        W82168   6.844  12.672   1.892
18412W        W82169   9.241  32.978   1.900
18413W        W82170  32.529   1.438  13.480
18414W        W82171   9.829  23.528   3.744
18415W        W82172  23.101  20.663   0.735
18416W        W82173  17.230   5.856  12.454
18417W        W82174   2.419  12.338  10.428
18418W        W82175  12.633  32.392  10.985
18419W        W82176  13.322   6.680  12.056
18420W        W82177  26.165  39.346  14.842
18421W        W82178  28.931   4.323  11.541
18422W        W82179   9.808  38.487   0.303
18423W        W82180   7.183  13.234  12.410
18424W        W82181  27.994  11.632  10.890
18425W        W82182  16.812  23.603   0.404
18426W        W82183  43.928  19.755   3.270
18427W        W82184  33.012  33.603   0.795
18428W        W82185  41.028  30.559  11.915
18429W        W82186  12.765  41.951  12.441
18430W        W82187  29.441  18.094   1.899
18431W        W82188  36.518  27.030  14.936
18432W        W82189   1.868  22.727  14.450
18433W        W82190   4.850  32.075   1.846
18434W        W82191   5.737   1.411  14.878
18435W        W82192   4.882  26.625   0.463
18436W        W82193  30.015  31.046   3.721
18437W        W82194   6.194  37.486   3.771
18438W        W82195  38.546  29.574  13.894
18439W        W82196  40.803  19.659  14.923
18440W        W82197  24.541  19.643  14.945
18441W        W82198   5.812   6.691   1.388
18442W        W82199  37.572  20.149   4.119
18443W        W82200  12.801   7.382   1.329
18444W        W82201  13.280  19.132   1.898
18445W        W82202  31.548  24.123  13.494
18446W        W82203  17.716  11.280   0.351
18447W        W82204  43.514  16.120   1.377
18448W        W82205  41.381  14.658   2.891
18449W        W82206   6.253   9.868  12.933
18450W        W82207  28.540  37.553   0.752
18451W        W82208   9.363  21.715  14.512
18452W        W82209  25.514   6.810  14.880
18453W        W82210  16.782   2.336   5.247
18454W        W82211   6.756   1.469   2.787
18455W        W82212  15.792  10.198  10.918
18456W        W82213  22.234  22.737   1.245
18457W        W82214  18.622  18.067  10.467
18458W        W82215  32.080  42.342  11.086
18459W        W82216  10.723   2.345  13.333
18460W        W82217   8.331  14.295   4.632
18461W        W82218  16.098  33.580   2.755
18462W        W82219  12.325   2.746  13.464
18463W        W82220  40.467  37.940   0.774
18464W        W82221  36.032  23.704  12.844
18465W        W82222  16.280  41.813  13.382
18466W        W82223  10.294  21.720  13.817
18467W        W82224  31.040  15.207  14.381
18468W        W82225  37.019   1.324  13.882
18469W        W82226   8.822  15.753  13.452
18470W        W82227  33.509  43.860  14.859
18471W        W82228  13.800  33.520   3.638
18472W        W82229  19.666  29.454  11.855
18473W        W82230   6.711  15.691   3.258
18474W        W82231   6.218   0.439  11.882
18475W        W82232  34.974  35.968  11.985
18476W        W82233  41.961  24.704  12.357
18477W        W82234  12.147  12.716   3.209
18478W        W82235  41.959  25.100  10.975
18479W        W82236  26.180  10.229  12.843
18480W        W82237  23.163   0.258   3.240
18481W        W82238  24.640  43.963   3.327
18482W        W82239   7.278  43.451   2.857
18483W        W82240  23.652  24.495   2.900
18484W        W82241   9.886   8.795  10.632
18485W        W82242  35.095  19.205  14.914
18486W        W82243  31.628  44.958   1.927
18487W        W82244  24.118  32.967  10.958
18488W        W82245   6.369  24.228   0.297
18489W        W82246  26.953  42.883   2.679
18490W        W82247   0.279  25.155   0.961
18491W        W82248  15.700  21.516  10.579
18492W        W82249  15.323  44.961   2.244
18493W        W82250  34.997  16.812   0.339
18494W        W82251  22.180  13.270  10.560
18495W        W82252   4.853  40.900  14.025
18496W        W82253  40.840   9.877   3.217
18497W        W82254  24.531  15.640  10.576
18498W        W82255   2.871  11.725   0.464
18499W        W82256  10.645   6.334   3.299
18500W        W82257  11.748   2.465   1.354
18501W        W82258  20.172  40.973   0.251
18502W        W82259   2.321  18.199  10.939
18503W        W82260   0.478  29.521  11.004
18504W        W82261   8.389   6.233   4.170
18505W        W82262  31.009  41.997  11.887
18506W        W82263  22.715  39.353   1.831
18507W        W82264  11.313  19.281  14.439
18508W        W82265  36.945  40.354   3.825
18509W        W82266  20.263  17.564  12.053
18510W        W82267  14.834   1.451   2.718
18511W        W82268  36.094  39.340  13.506
18512W        W82269  19.535  12.173   3.172
18513W        W82270  42.428  39.481  12.850
18514W        W82271  35.977  11.264  14.277
18515W        W82272  17.738  23.563  13.047
18516W        W82273  26.112  25.483  10.473
18517W        W82274  21.543  23.080  12.007
18518W        W82275  12.116  29.558   1.413
18519W        W82276  38.838  27.550  14.495
18520W        W82277  21.086  12.156   2.709
18521W        W82278  31.108  12.703  10.959
18522W        W82279   6.711  24.645  12.522
18523W        W82280  21.618   1.908   1.384
18524W        W82281   7.379  28.944   0.379
18525W        W82282  41.499   5.774   1.415
18526W        W82283  16.238  34.092  14.784
18527W        W82284  26.587  26.573   3.244
18528W        W82285  28.001  19.606   4.241
18529W        W82286  21.733  30.066  12.053
18530W        W82287  35.425  38.333   3.767
18531W        W82288  28.953  10.668   4.226
18532W        W82289  22.636  39.812   5.083
18533W        W82290  37.550  38.499   2.310
18534W        W82291  39.424  27.483  11.385
18535W        W82292  10.872  43.786   4.297
18536W        W82293   0.446   8.185   3.833
18537W        W82294  23.152  36.423   2.197
18538W        W82295  30.419   6.748  13.532
18539W        W82296   4.290  28.040  10.560
18540W        W82297  28.979   8.179   4.290
18541W        W82298  41.451  33.908  12.417
18542W        W82299  29.040   2.923  14.377
18543W        W82300  26.606   8.219   2.236
18544W        W82301  12.347  21.230   2.419
18545W        W82302  16.806  42.458   0.301
18546W        W82303  16.100  22.196   2.206
18547W        W82304   4.244  19.062  10.891
18548W        W82305  40.343  17.216   3.635
18549W        W82306  23.628  43.370   4.239
18550W        W82307   5.828  30.984   2.191
18551W        W82308  18.787  12.823  14.812
18552W        W82309  43.449  43.857  10.929
18553W        W82310  41.916   5.804   3.272
18554W        W82311  33.449  44.785  12.047
18555W        W82312  21.223   1.865   9.965
18556W        W82313  24.508  30.454  13.821
18557W        W82314   5.314  16.728   3.313
18558W        W82315  15.119  40.826   2.395
18559W        W82316  28.596  41.958  10.907
18560W        W82317  26.515   2.437   2.300
18561W        W82318  24.208  36.530  12.372
18562W        W82319  21.185   5.347  14.368
18563W        W82320   6.751   6.390   3.239
18564W        W82321  41.326  31.133   0.449
18565W        W82322  10.303  31.126   1.842
18566W        W82323   2.271  10.770   1.278
18567W        W82324   0.291  15.287  10.988
18568W        W82325  20.274  31.480   2.671
18569W        W82326   6.303  12.332   1.344
18570W        W82327  37.867  37.914   1.355
18571W        W82328  24.586  38.340  11.508
18572W        W82329  12.197  31.403  11.409
18573W        W82330   1.284  36.858  11.101
18574W        W82331  19.735  21.064   3.264
18575W        W82332   8.751  43.905  10.138
18576W        W82333  34.583  20.208   3.158
18577W        W82334  42.326  40.013   2.359
18578W        W82335  18.276  10.751   4.173
18579W        W82336  34.060  40.996   0.457
18580W        W82337  16.130  29.112   3.353
18581W        W82338  33.905  19.669   3.723
18582W        W82339  28.602  18.169  11.421
18583W        W82340   7.377   5.287   3.227
18584W        W82341  44.412  43.298   4.685
18585W        W82342  31.027  13.791  10.973
18586W        W82343  23.724  37.007  13.018
18587W        W82344  15.770  24.548   2.790
18588W        W82345  44.367  39.460  14.835
18589W        W82346  20.035   5.408  14.284
18590W        W82347  12.209  27.640  10.618
18591W        W82348  31.952  22.011  14.763
18592W        W82349  42.022  23.679   1.860
18593W        W82350  19.079  18.696  11.890
18594W        W82351  11.714  42.503  12.038
18595W        W82352  36.952  27.658   1.427
18596W        W82353   0.385  32.885   2.666
18597W        W82354   0.269   7.283   3.317
18598W        W82355  22.117  43.424  14.010
18599W        W82356   4.728  23.595  11.466
18600W        W82357   1.465  19.717  11.556
18601W        W82358   9.715   5.235   4.601
18602W        W82359   0.477  35.066   2.692
18603W        W82360  43.768   6.777  13.492
18604W        W82361  32.000  14.735   1.294
18605W        W82362   2.795  41.404  13.476
18606W        W82363  34.390  14.118  12.978
18607W        W82364  11.216  19.160  11.099
18608W        W82365  26.522  27.156  11.094
18609W        W82366  17.604  24.570  10.892
18610W        W82367  13.307  43.426  11.564
18611W        W82368  28.931  40.374  11.966
18612W        W82369  27.490  33.973  14.513
18613W        W82370  27.196   0.337  12.900
18614W        W82371  44.936  29.111   3.297
18615W        W82372  13.182  26.542   3.198
18616W        W82373  41.401   6.745  13.791
18617W        W82374   0.964  43.496  13.924
18618W        W82375  12.192  29.961  12.510
18619W        W82376  18.179  17.606   2.350
18620W        W82377  14.770  42.893   3.804
18621W        W82378  37.071   8.267   0.907
18622W        W82379  28.641  15.259   2.782
18623W        W82380  37.971  30.560  11.483
18624W        W82381  23.117  32.528   4.792
18625W        W82382  18.753  41.366  10.619
18626W        W82383  21.676  41.420   3.761
18627W        W82384  12.139  42.510  10.578
18628W        W82385  26.081  14.158   3.381
18629W        W82386  10.189  36.935   2.779
18630W        W82387  37.912  43.802  13.375
18631W        W82388   5.916  14.127   3.306
18632W        W82389  18.705   6.910   2.839
18633W        W82390  26.991   0.861  13.418
18634W        W82391  24.222  32.992   1.447
18635W        W82392  31.122  40.023   4.732
18636W        W82393   8.166  13.797   3.786
18637W        W82394   8.837   6.240   4.797
18638W        W82395  26.511   7.284   4.774
18639W        W82396  28.677  15.748   3.688
18640W        W82397  14.822  16.189  11.451
18641W        W82398  39.338   5.371   1.383
18642W        W82399   3.294  41.400   2.670
18643W        W82400  10.349  18.235  14.021
18644W        W82401   0.456  24.687  13.544
18645W        W82402  39.035  29.486   4.284
18646W        W82403  13.808  38.977   1.304
18647W        W82404  24.983  35.096   0.418
18648W        W82405  29.010   0.935  10.468
18649W        W82406   4.370  32.494   3.244
18650W        W82407  24.711  32.972  12.508
18651W        W82408  42.333  28.655  13.036
18652W        W82409  22.239   4.358  10.624
18653W        W82410  40.392  31.065   2.852
18654W        W82411  11.222  15.277   2.710
18655W        W82412  22.727  42.804   1.814
18656W        W82413   8.330  34.883   0.954
18657W        W82414  29.061  39.031   4.193
18658W        W82415  29.017  23.608   3.260
18659W        W82416   4.327   0.742   1.345
18660W        W82417  36.058  17.281   1.343
18661W        W82418  38.495   6.205   2.331
18662W        W82419  13.196   0.372  14.312
18663W        W82420   3.901  33.057   1.774
18664W        W82421  16.781  15.242  12.093
18665W        W82422  37.040  25.503   4.207
18666W        W82423  26.603  40.856  12.025
18667W        W82424  24.059  14.639  13.512
18668W        W82425  24.030  37.859  13.340
18669W        W82426  29.442  23.186   2.241
18670W        W82427  32.914  41.397   0.254
18671W        W82428  12.841  39.837  11.443
18672W        W82429  38.568  21.114  12.485
18673W        W82430  21.734   9.855   3.330
18674W        W82431  19.199  33.456  10.969
18675W        W82432   9.211   9.235   2.869
18676W        W82433  41.360  34.039  14.866
18677W        W82434   6.879  34.868  11.542
18678W        W82435   7.906   7.265   5.255
18679W        W82436  14.131  41.439   3.760
18680W        W82437   7.900  39.429  13.941
18681W        W82438  35.882  31.001   3.692
18682W        W82439  16.767  28.661   4.789
18683W        W82440  26.205  10.688   3.742
18684W        W82441  36.856   0.949  12.078
18685W        W82442  16.218  43.313   0.409
18686W        W82443   7.875  43.765  10.579
18687W        W82444  29.007  32.418  13.412
18688W        W82445  44.994  10.700  10.416
18689W        W82446   1.421  33.980  11.047
18690W        W82447  39.921  14.680   3.354
18691W        W82448  40.939  14.338  12.419
18692W        W82449  27.152  18.108  11.948
18693W        W82450   8.808  11.227  12.840
18694W        W82451  24.706   7.827  13.032
18695W        W82452  38.377  17.582  10.446
18696W        W82453  44.963  33.384   2.179
18697W        W82454   1.757  43.958   3.223
18698W        W82455  15.700  13.782  10.946
18699W        W82456  15.302  29.650  11.873
18700W        W82457  10.809  34.398  11.890
18701W        W82458  28.557  37.565  12.352
18702W        W82459  37.830   8.377  12.083
18703W        W82460  17.079  43.946  10.118
18704W        W82461  16.188  16.244   2.225
18705W        W82462  14.223  21.030  11.530
18706W        W82463  12.138  34.408   1.313
18707W        W82464  44.777  28.436   3.280
18708W        W82465  44.469   8.303  13.366
18709W        W82466   3.885  18.771   3.698
18710W        W82467   0.907  23.084   2.341
18711W        W82468  37.042  43.438   4.240
18712W        W82469  43.505  11.666   2.274
18713W        W82470  42.361  32.051   2.206
18714W        W82471   7.340  29.656  13.881
18715W        W82472   5.378  10.698  11.869
18716W        W82473  12.763  31.460  14.891
18717W        W82474  28.677  17.184  12.831
18718W        W82475  34.959   9.714  13.459
18719W        W82476  33.052  34.071   3.187
18720W        W82477  20.246   2.389  13.813
18721W        W82478   4.864   9.814   0.936
18722W        W82479   1.944  35.928   0.858
18723W        W82480  17.214  20.573   3.868
18724W        W82481  32.070  42.504   3.813
18725W        W82482  44.388  37.444  11.396
18726W        W82483  15.739   3.736  11.452
18727W        W82484  40.320  25.050   4.800
18728W        W82485  34.482  19.684   2.350
18729W        W82486  22.688  36.063   3.174
18730W        W82487  42.019   1.324  11.458
18731W        W82488  35.993  23.050  12.984
18732W        W82489  34.909  24.601  11.609
18733W        W82490  32.592  33.400  11.393
18734W        W82491  22.042   0.348  11.950
18735W        W82492  19.136   1.248  11.892
18736W        W82493  34.104  16.594  11.560
18737W        W82494  30.062  41.890   1.393
18738W        W82495  43.313   4.939   3.803
18739W        W82496   8.398  20.662  10.915
18740W        W82497   1.740  37.999  14.496
18741W        W82498   7.871  20.644  14.021
18742W        W82499  39.909   1.457  11.090
18743W        W82500  30.620  34.538  11.027
18744W        W82501  30.916  13.825   0.764
18745W        W82502  19.153   6.692   3.858
18746W        W82503  18.119  30.115   0.830
18747W        W82504   3.345  38.074  13.904
18748W        W82505  27.964   7.338   3.227
18749W        W82506  21.190   3.743  13.011
18750W        W82507   3.892  44.265   1.773
18751W        W82508  24.096  21.171   1.374
18752W        W82509  25.584   1.465  10.454
18753W        W82510  11.233   9.827  12.082
18754W        W82511  12.798   9.182  10.471
18755W        W82512  10.349  38.024   3.709
18756W        W82513  41.935  27.038  12.013
18757W        W82514  12.175  11.246  11.377
18758W        W82515  15.779   4.793  12.563
18759W        W82516  33.975  13.309  12.378
18760W        W82517   5.428  29.645   2.241
18761W        W82518  20.048  44.810  12.035
18762W        W82519   6.679   7.692   1.764
18763W        W82520   6.398   9.238  13.056
18764W        W82521   9.884  25.636   2.685
18765W        W82522  40.539  19.669   1.315
18766W        W82523  18.141  13.687  14.779
18767W        W82524   2.822  24.662  13.493
18768W        W82525   4.840  20.203  10.462
18769W        W82526  23.663  31.914  14.923
18770W        W82527  32.457  27.944   1.235
18771W        W82528  38.375  11.255   0.361
18772W        W82529  44.500  20.250  13.049
18773W        W82530  15.136  41.487   1.217
18774W        W82531   4.884   4.223  12.340
18775W        W82532   5.338  29.669  14.956
18776W        W82533  21.192   0.914   1.426
18777W        W82534   1.291  11.357   4.211
18778W        W82535  29.535   9.811   4.783
18779W        W82536  18.156  16.722  10.637
18780W        W82537  38.885  14.315   5.250
18781W        W82538  29.117   1.757  13.984
18782W        W82539  18.216  16.211   5.185
18783W        W82540   2.415  19.731  11.898
18784W        W82541   0.867   5.264  12.418
18785W        W82542   2.312  32.552  13.997
18786W        W82543  20.620  36.939  14.999
18787W        W82544   5.343   0.426  12.451
18788W        W82545  34.389   2.283   3.850
18789W        W82546  30.556  39.957   4.125
18790W        W82547  35.483  19.728   3.341
18791W        W82548  20.535  35.419   3.797
18792W        W82549   7.746  23.009   3.668
18793W        W82550  44.890   0.851  12.906
18794W        W82551  27.951  17.063   4.173
18795W        W82552  12.234  18.160  12.453
18796W        W82553  42.350  24.661   4.721
18797W        W82554  32.483  10.698   2.397
18798W        W82555  33.513   0.364  11.437
18799W        W82556  25.472   0.894   0.360
18800W        W82557  26.612   0.928  13.898
18801W        W82558  33.989  36.896  11.578
18802W        W82559  33.968  42.414   4.205
18803W        W82560  34.391  25.678  12.931
18804W        W82561   7.375  23.208   2.399
18805W        W82562   4.803  34.104  14.984
18806W        W82563  40.999   6.290   3.334
18807W        W82564   6.707  41.939  13.536
18808W        W82565  16.648  29.536  13.063
18809W        W82566  42.845   8.190  14.391
18810W        W82567  41.830   4.267   2.782
18811W        W82568  21.110  41.951   5.207
18812W        W82569  18.669  10.767   4.277
18813W        W82570  37.044  26.038  12.043
18814W        W82571   4.369  36.351   3.282
18815W        W82572  14.107  26.466   4.643
18816W        W82573  23.074  31.126   1.726
18817W        W82574  31.082  30.609   2.746
18818W        W82575  36.909  13.248   4.213
18819W        W82576  10.274  10.260  11.913
18820W        W82577  15.747  18.136   4.348
18821W        W82578  21.042  37.005   1.410
18822W        W82579  19.175  41.956  14.796
18823W        W82580   7.695  27.556  10.947
18824W        W82581  36.442  34.512   0.310
18825W        W82582   4.407  36.437   1.297
18826W        W82583  43.901  35.571   4.180
18827W        W82584  36.586   8.255  12.959
18828W        W82585   0.356  21.099   4.347
18829W        W82586  13.835  30.470   1.869
18830W        W82587  33.979   1.371  11.613
18831W        W82588  34.592  23.683  14.513
18832W        W82589   0.815  14.274  14.345
18833W        W82590  21.695  16.802  14.028
18834W        W82591  29.622  38.929   0.888
18835W        W82592   0.753  38.394  13.510
18836W        W82593  32.578  14.336   3.781
18837W        W82594  24.036  24.224  11.946
18838W        W82595  21.031  40.316   4.712
18839W        W82596   2.349   5.220   2.281
18840W        W82597   4.285   4.432   3.776
18841W        W82598   0.461  40.524  10.571
18842W        W82599  35.982  30.101   1.775
18843W        W82600  16.115  41.335   1.823
18844W        W82601  13.198  36.511   3.854
18845W        W82602   1.944  37.388   4.288
18846W        W82603  20.579  40.883   4.139
18847W        W82604  14.280  13.665   2.742
18848W        W82605   6.267  22.705  11.378
18849W        W82606  39.975  19.707  10.564
18850W        W82607  38.954  35.892  12.444
18851W        W82608  24.660  36.924  10.425
18852W        W82609   6.688  23.989  10.472
18853W        W82610  26.168  20.532  12.488
18854W        W82611  30.091  20.526  11.088
18855W        W82612  26.112  23.581  13.815
18856W        W82613  26.526   0.383   3.783
18857W        W82614  27.635   1.448   2.704
18858W        W82615  10.202  26.640   3.309
18859W        W82616  11.668  30.915  13.363
18860W        W82617  17.284  21.228   4.617
18861W        W82618   6.185  40.427  13.959
18862W        W82619  28.447  35.475  11.489
18863W        W82620  39.832  43.282   4.666
18864W        W82621  28.961  37.449   0.768
18865W        W82622  31.104  15.721  14.938
18866W        W82623   8.693   5.395  14.869
18867W        W82624  22.635   8.303  11.985
18868W        W82625  42.359  34.450  10.535
18869W        W82626  21.190  34.509  12.005
18870W        W82627  28.525  22.556   3.291
18871W        W82628  24.138  16.733   3.692
18872W        W82629  24.067  36.927   1.727
18873W        W82630  35.995  22.191  13.838
18874W        W82631  30.097   9.199  14.352
18875W        W82632  38.355  21.148  10.558
18876W        W82633   9.795  44.366   2.271
18877W        W82634   8.236  11.250   2.258
18878W        W82635  23.514  13.731   4.322
18879W        W82636   4.766  20.102   3.150
18880W        W82637  10.215  27.626  14.506
18881W        W82638  30.451  34.506  13.536
18882W        W82639  18.582  26.178  12.391
18883W        W82640  35.070   2.754   3.741
18884W        W82641   8.268   4.945   0.266
18885W        W82642   5.825  25.014   2.215
18886W        W82643   7.797  39.404   0.252
18887W        W82644   1.760   4.826   4.314
18888W        W82645  11.689  41.301  13.902
18889W        W82646  22.249  20.035  11.947
18890W        W82647  18.634  12.141  10.519
18891W        W82648  27.163  39.815  13.864
18892W        W82649  19.550  38.969  14.812
18893W        W82650   1.416  27.971  12.553
18894W        W82651  42.840  10.278  12.965
18895W        W82652  27.690  11.852  13.000
18896W        W82653  31.435  10.303  14.381
18897W        W82654  27.991   8.843   4.288
18898W        W82655  29.546  30.121   4.710
18899W        W82656  16.212   3.950  10.575
18900W        W82657  21.090   8.804  10.575
18901W        W82658  27.983  28.075   2.770
18902W        W82659  11.276  34.521  12.879
18903W        W82660  23.219  19.719  14.375
18904W        W82661   3.826  15.297   3.714
18905W        W82662  31.026  43.960   3.691
18906W        W82663  42.350  14.834  14.337
18907W        W82664  20.593   0.489   2.868
18908W        W82665  14.175  33.511   4.255
18909W        W82666  32.071  19.588   1.802
18910W        W82667  25.162   8.162  10.986
18911W        W82668  28.111   3.897   1.371
18912W        W82669  37.489   4.871  12.922
18913W        W82670  43.920  33.487  10.578
18914W        W82671   3.726  41.990   3.299
18915W        W82672  11.787  34.442   1.762
18916W        W82673  35.531   0.858   4.292
18917W        W82674  21.172   4.254   4.348
18918W        W82675  15.675  26.972   3.853
18919W        W82676  39.379   2.871  13.438
18920W        W82677  15.142   4.721  13.373
18921W        W82678  42.489  12.814   0.478
18922W        W82679  42.866  18.664   3.354
18923W        W82680  43.832  43.301  11.459
18924W        W82681  23.190  43.874  14.876
18925W        W82682   6.859  38.983  11.916
18926W        W82683  44.333   3.849  14.507
18927W        W82684  34.120  32.492   3.382
18928W        W82685  25.527  21.661  14.974
18929W        W82686  41.978  15.128   3.805
18930W        W82687  21.583  30.582   2.246
18931W        W82688  30.095  31.496  14.906
18932W        W82689   9.840   6.304   2.892
18933W        W82690  21.583   6.188  13.458
18934W        W82691  24.112  25.101  13.949
18935W        W82692   1.758  16.694   4.831
18936W        W82693   2.345  18.192   1.379
18937W        W82694  43.359  16.280  12.023
18938W        W82695  15.706  20.673   4.837
18939W        W82696  26.553  12.704  13.406
18940W        W82697  38.528  40.477  11.873
18941W        W82698  13.248   3.216  13.910
18942W        W82699  38.841  38.532  14.022
18943W        W82700  27.194  25.588   2.259
18944W        W82701  31.549  12.728   0.483
18945W        W82702  32.936  12.345  11.949
18946W        W82703  41.530  12.738  11.997
18947W        W82704   4.388  14.213   0.964
18948W        W82705  25.199  38.984  12.052
18949W        W82706  14.196  38.009   2.220
18950W        W82707   7.699  42.384  13.385
18951W        W82708  39.939  26.150  11.428
18952W        W82709   0.783  19.721   4.207
18953W        W82710   5.214   6.795   2.368
18954W        W82711  22.193   2.238  11.962
18955W        W82712  43.272  27.613   3.726
18956W        W82713  21.017   5.736   2.805
18957W        W82714  23.142  32.577  10.449
18958W        W82715  28.465   1.837   1.732
18959W        W82716  24.546  30.580   3.269
18960W        W82717   5.270  10.730   4.755
18961W        W82718  43.369  13.600  11.391
18962W        W82719  19.185   0.375   2.206
18963W        W82720  27.115  40.923   3.679
18964W        W82721   3.841   0.492   2.669
18965W        W82722  41.354  15.170   4.349
18966W        W82723  38.402  25.180  14.484
18967W        W82724  25.025   7.327  12.971
18968W        W82725  13.703  18.273  13.420
18969W        W82726   0.927   5.749  12.055
18970W        W82727  11.328  42.297  12.570
18971W        W82728   5.763  24.668   1.747
18972W        W82729  39.057  27.943  14.324
18973W        W82730   0.445  14.100  10.479
18974W        W82731   6.425  32.030   4.317
18975W        W82732  33.622  34.493   2.735
18976W        W82733  11.778  30.483   1.331
18977W        W82734  30.944  32.540   0.273
18978W        W82735  16.752  41.878  12.453
18979W        W82736  44.434   0.345   0.796
18980W        W82737   7.807   3.356   2.293
18981W        W82738  41.502  29.107  11.391
18982W        W82739  12.709   8.799  12.835
18983W        W82740   6.333  31.047  13.385
18984W        W82741  30.656  40.888   0.394
18985W        W82742  17.560   0.743   1.302
18986W        W82743  36.093  39.516  11.385
18987W        W82744  19.269  22.695  10.618
18988W        W82745  12.280  41.925  11.411
18989W        W82746  31.633  12.847  11.387
18990W        W82747  37.894  30.113   0.414
18991W        W82748  40.439  40.549  14.310
18992W        W82749   3.224  32.116   1.421
18993W        W82750  24.082   6.398   0.315
18994W        W82751   7.265  29.106  12.991
18995W        W82752  19.756   9.308   0.742
18996W        W82753  44.431  42.302   0.793
18997W        W82754  18.110  37.914  12.029
18998W        W82755  14.265  24.642   3.199
18999W        W82756  12.773  42.003   3.694
19000W        W82757  44.453  12.836  13.969
19001W        W82758  40.548  17.124   5.282
19002W        W82759   7.361  35.421  14.962
19003W        W82760  44.297   3.347   5.164
19004W        W82761  31.411  40.048  10.576
19005W        W82762   9.164  18.147  14.947
19006W        W82763  11.173  36.841  14.864
19007W        W82764  42.398  30.477   3.160
19008W        W82765  32.604   4.724   3.297
19009W        W82766  19.270  44.409   1.412
19010W        W82767  28.546  34.875  14.431
19011W        W82768   3.860  27.531   0.282
19012W        W82769  33.095  13.287   0.898
19013W        W82770  43.857  28.094  14.822
19014W        W82771  14.747   9.234   0.445
19015W        W82772  42.338   9.861  14.502
19016W        W82773  33.888  32.474   3.799
19017W        W82774  30.036  18.723   3.846
19018W        W82775  19.253  28.025  11.569
19019W        W82776  21.164  24.051  12.900
19020W        W82777  18.052  27.599  11.468
19021W        W82778  38.948  19.553   4.800
19022W        W82779   7.332   7.874   1.932
19023W        W82780  40.935  18.554  13.038
19024W        W82781  26.004  38.946   2.674
19025W        W82782  22.697  40.983  12.878
19026W        W82783  23.643  42.517   1.810
19027W        W82784   0.911  22.202  13.514
19028W        W82785   3.257   4.311   2.727
19029W        W82786  28.561  31.626  13.055
19030W        W82787   0.975  15.248  11.943
19031W        W82788  30.460  44.453  14.781
19032W        W82789  33.043  35.598   0.867
19033W        W82790  24.578  25.537   9.438
19034W        W82791   0.485  21.057   3.813
19035W        W82792  43.294  14.268  14.423
19036W        W82793  37.062   1.345   1.875
19037W        W82794   5.238  16.601   4.310
19038W        W82795  34.065  31.005   9.586
19039W        W82796  12.326   1.442   4.608
19040W        W82797  12.266  34.437   3.667
19041W        W82798  17.066   5.821  14.438
19042W        W82799  31.505  26.050  10.896
19043W        W82800  28.538  11.821  11.470
19044W        W82801   7.678  10.827   1.747
19045W        W82802  27.152  19.563  10.506
19046W        W82803   5.367  11.224   2.389
19047W        W82804   1.403  36.433   0.932
19048W        W82805  23.598  29.498  11.040
19049W        W82806  10.755  36.544  14.890
19050W        W82807  12.799  13.763   0.406
19051W        W82808  44.818  24.113  11.549
19052W        W82809  32.604  20.211  13.334
19053W        W82810  29.508  18.775   3.683
19054W        W82811  20.740  42.881   1.444
19055W        W82812  31.060   0.811   2.247
19056W        W82813  29.637  14.698  11.073
19057W        W82814   7.740   2.456   2.693
19058W        W82815  15.239  12.804   0.914
19059W        W82816  13.734  43.458   5.255
19060W        W82817   8.385   0.777  13.817
19061W        W82818   7.352   8.691   3.153
19062W        W82819   8.398  33.979   0.282
19063W        W82820   6.237   4.793  14.446
19064W        W82821  36.958  30.657   0.340
19065W        W82822   1.440  30.624  14.016
19066W        W82823  27.028  27.535  10.507
19067W        W82824  31.901  34.529  12.443
19068W        W82825  29.147  43.865   4.807
19069W        W82826   4.229   1.889  13.996
19070W        W82827  36.503  40.428   4.658
19071W        W82828  35.882  24.514  10.625
19072W        W82829  26.456   0.439  12.368
19073W        W82830   7.755  17.718   0.895
19074W        W82831  32.132  39.968   9.967
19075W        W82832  25.117  26.519  14.872
19076W        W82833   5.924  38.037   2.878
19077W        W82834  25.699  31.132   0.899
19078W        W82835  33.470  19.110   0.928
19079W        W82836   6.804   2.762  11.592
19080W        W82837   2.818  31.906  10.546
19081W        W82838  36.526  24.551  11.570
19082W        W82839  35.382  29.514  12.032
19083W        W82840  43.855  11.365  10.431
19084W        W82841   0.949  21.198   0.399
19085W        W82842  10.195  17.710   1.413
19086W        W82843   0.742  16.754  14.435
19087W        W82844   2.932  36.846   1.214
19088W        W82845  27.112  29.007   0.387
19089W        W82846  39.939  17.606   0.787
19090W        W82847  21.199   6.200  13.971
19091W        W82848  33.452  30.157   2.262
19092W        W82849  10.645  17.085   0.847
19093W        W82850   0.408  40.507  14.972
19094W        W82851  11.196  40.976  10.567
19095W        W82852  34.483  44.277   0.401
19096W        W82853   1.312   7.295   2.320
19097W        W82854   2.964  29.105  10.905
19098W        W82855  27.112  23.585  11.571
19099W        W82856  14.184  30.123   1.400
19100W        W82857   2.395  38.061  14.916
19101W        W82858  20.268  20.214   0.957
19102W        W82859  27.064  10.647  12.567
19103W        W82860  39.320  41.295  14.996
19104W        W82861   0.792  21.603   2.202
19105W        W82862  44.933   3.862  10.544
19106W        W82863  41.313   9.710   0.957
19107W        W82864  23.183   3.802   2.741
19108W        W82865  12.199  40.426   3.669
19109W        W82866  27.522  23.531   0.901
19110W        W82867  35.862  41.957   1.257
19111W        W82868  43.289   1.310   1.241
19112W        W82869  30.573  12.271   2.194
19113W        W82870   8.774  31.080   3.845
19114W        W82871  12.124  21.700   3.177
19115W        W82872  35.099  23.996   2.398
19116W        W82873  27.960  29.015  13.948
19117W        W82874  37.854  22.714  13.327
19118W        W82875  40.885  15.582   1.753
19119W        W82876  33.518   4.226   9.632
19120W        W82877  41.347  29.022  13.972
19121W        W82878   4.222  20.739  11.867
19122W        W82879  24.562  10.842  12.436
19123W        W82880   1.423  18.782  10.518
19124W        W82881  27.531  24.516   3.688
19125W        W82882   6.225  28.550  14.350
19126W        W82883  31.607  26.119   9.955
19127W        W82884   5.430  11.710   1.837
19128W        W82885  17.756   0.852  12.526
19129W        W82886  33.916   7.409  11.990
19130W        W82887   8.295  37.581   9.994
19131W        W82888   5.846  11.241   4.773
19132W        W82889  20.674  42.360   3.846
19133W        W82890  32.958   1.902   4.180
19134W        W82891  31.109  16.667   2.341
19135W        W82892  16.664   8.756  13.939
19136W        W82893   6.334  41.492  14.472
19137W        W82894   2.401  26.007   0.435
19138W        W82895  23.168  10.850  13.344
19139W        W82896  19.125  36.402  11.930
19140W        W82897  32.087  44.308   2.384
19141W        W82898  35.363  34.974  13.414
19142W        W82899  22.657   4.237  13.824
19143W        W82900   3.262  24.226   3.191
19144W        W82901  27.551  17.624   2.874
19145W        W82902  20.212  11.859  14.314
19146W        W82903  15.280  35.506  12.423
19147W        W82904   8.714   8.350  13.895
19148W        W82905   8.217  18.214   3.713
19149W        W82906  41.872   4.759   3.742
19150W        W82907  39.937  19.085  13.311
19151W        W82908  44.266  21.602  11.027
19152W        W82909  34.947  42.993   1.771
19153W        W82910  43.778   5.703   1.891
19154W        W82911  34.390   9.858  12.485
19155W        W82912  28.557  30.029   3.204
19156W        W82913  22.038  10.149  10.888
19157W        W82914  39.321  29.036   2.403
19158W        W82915  35.582  29.655  10.542
19159W        W82916  18.251  21.579  11.086
19160W        W82917  25.079  34.056   0.392
19161W        W82918  34.512   7.673  14.907
19162W        W82919  34.965   6.196  10.930
19163W        W82920  31.476   1.263  14.325
19164W        W82921  14.748  28.442  11.486
19165W        W82922  30.434   9.672  12.442
19166W        W82923  28.506  20.648  12.889
19167W        W82924   0.925  15.710  12.076
19168W        W82925  35.887  13.223   5.244
19169W        W82926  20.190  10.358  11.086
19170W        W82927   0.304  28.954   4.821
19171W        W82928  36.848  27.019   2.699
19172W        W82929  33.070  39.008   4.643
19173W        W82930  29.025  39.020   3.228
19174W        W82931  31.918  12.268  11.477
19175W        W82932   8.390  42.986   9.995
19176W        W82933  29.142  14.630   1.362
19177W        W82934   4.299   6.192  10.970
19178W        W82935   0.761  40.418  10.949
19179W        W82936  31.105  19.682   5.244
19180W        W82937   6.194   7.778   3.181
19181W        W82938  34.588  40.437  12.083
19182W        W82939  43.994  27.486   0.401
19183W        W82940  32.462  44.330  14.309
19184W        W82941  36.566  12.640   4.637
19185W        W82942  23.229  39.418  10.553
19186W        W82943  39.503  38.407   2.854
19187W        W82944  13.284  13.179   3.636
19188W        W82945  24.567  18.651   2.712
19189W        W82946  20.549  30.651  10.480
19190W        W82947  26.587  38.445   2.245
19191W        W82948  24.066  24.673  11.943
19192W        W82949   8.683   6.739   2.179
19193W        W82950  19.643  13.132  14.311
19194W        W82951  11.698  28.050   0.259
19195W        W82952  28.095  18.097   4.785
19196W        W82953  13.614  42.438   4.804
19197W        W82954  40.045  41.369  12.039
19198W        W82955  19.718  26.951  12.065
19199W        W82956   6.282   5.222   2.728
19200W        W82957   2.967   2.776  14.432
19201W        W82958   6.333  44.005   1.711
19202W        W82959   1.273  40.489   4.333
19203W        W82960   6.423  22.619   1.843
19204W        W82961   4.942  40.987  14.893
19205W        W82962  12.797  16.695   4.791
19206W        W82963   9.804  24.667  10.423
19207W        W82964  11.238  43.832   9.536
19208W        W82965  39.035  32.101  11.499
19209W        W82966  12.754   7.879   0.476
19210W        W82967   4.867  15.309   3.255
19211W        W82968  42.281  11.691   1.778
19212W        W82969  11.365  33.888   1.378
19213W        W82970   8.201  16.171  11.032
19214W        W82971  36.058  31.494   1.372
19215W        W82972  42.303   5.781   4.131
19216W        W82973  33.124   9.289  14.922
19217W        W82974  41.918   3.405  11.521
19218W        W82975  40.408   8.368  13.974
19219W        W82976   4.788  10.181  13.512
19220W        W82977  22.560  26.171   0.303
19221W        W82978  40.946  16.157  13.366
19222W        W82979  18.129  24.229   2.359
19223W        W82980  13.282  37.360   3.853
19224W        W82981  28.941  41.418  14.954
19225W        W82982  32.931  16.599  13.322
19226W        W82983  22.554  33.985   1.301
19227W        W82984  13.268  39.995  12.000
19228W        W82985  35.431   4.362   4.776
19229W        W82986   5.776  16.801   1.761
19230W        W82987   2.923  14.708  13.051
19231W        W82988  41.486   0.319  12.945
19232W        W82989  32.068  16.639  14.310
19233W        W82990  30.440  15.589   1.390
19234W        W82991  16.735   2.869   1.875
19235W        W82992  21.187   4.421   3.684
19236W        W82993  16.664  31.059  10.957
19237W        W82994  44.833  44.293   3.325
19238W        W82995  39.034  11.288  11.378
19239W        W82996  28.931  14.167  10.024
19240W        W82997  18.284  11.286   1.280
19241W        W82998   9.168   3.269   9.924
19242W        W82999  30.008  20.264   4.220
19243W        W83000  40.369   1.904   2.232
19244W        W83001  17.781  41.367  14.336
19245W        W83002   6.258  17.774   0.846
19246W        W83003   6.241  24.070  13.896
19247W        W83004  21.172  13.336  13.812
19248W        W83005  32.612  30.430   0.425
19249W        W83006  13.129   0.743  11.379
19250W        W83007  11.198   2.763   0.287
19251W        W83008  42.498  17.299  13.810
19252W        W83009   6.878   6.861  13.029
19253W        W83010  39.400   8.389   3.216
19254W        W83011  25.068  39.997  13.518
19255W        W83012  23.583  15.590  12.488
19256W        W83013  21.029  42.319  14.983
19257W        W83014  42.929  32.924   4.175
19258W        W83015  10.299  17.125   2.350
19259W        W83016  22.049  12.790   4.130
19260W        W83017  12.122  44.481  12.385
19261W        W83018  43.372  30.040   4.353
19262W        W83019   8.213  14.791   0.406
19263W        W83020  29.107  13.305  14.481
19264W        W83021  20.573  36.867  12.479
19265W        W83022   6.368   1.346  11.924
19266W        W83023   7.261   3.370  11.545
19267W        W83024  36.350  28.959  12.441
19268W        W83025   9.712   8.287  14.513
19269W        W83026  10.235  11.335   1.276
19270W        W83027  31.914  28.159   4.157
19271W        W83028  11.135  13.846   2.200
19272W        W83029  42.446  14.643  11.109
19273W        W83030  15.751   6.732  11.939
19274W        W83031   2.383   5.861   1.883
19275W        W83032  17.721  13.338  12.435
19276W        W83033   2.300  35.973   0.444
19277W        W83034  40.845  12.304   3.739
19278W        W83035  44.332  11.825   9.969
19279W        W83036  11.284  22.193   2.902
19280W        W83037  43.491   7.877   1.403
19281W        W83038   2.366  31.897  14.806
19282W        W83039   4.776   9.356  10.897
19283W        W83040  30.945  19.599   2.755
19284W        W83041   6.886  13.131   3.162
19285W        W83042  33.559  29.548  14.967
19286W        W83043  29.445  33.998  13.046
19287W        W83044  14.761   5.789   4.619
19288W        W83045  17.073  43.401  14.933
19289W        W83046  41.421  44.793  11.528
19290W        W83047  31.632  21.252   4.702
19291W        W83048  39.947   2.886  14.351
19292W        W83049  31.634  18.632  10.640
19293W        W83050  33.036  11.721   4.116
19294W        W83051   3.264   1.844  14.425
19295W        W83052  17.197  16.188   2.736
19296W        W83053  22.596  16.122  12.004
19297W        W83054  41.422  26.179  10.488
19298W        W83055  21.576  42.860  12.988
19299W        W83056   3.916  38.824  11.036
19300W        W83057  17.114  39.488  12.879
19301W        W83058  35.075   5.891  13.341
19302W        W83059  40.798  13.165  13.328
19303W        W83060  42.518  37.428   4.138
19304W        W83061  19.719  20.165  12.410
19305W        W83062   0.419  22.557  11.399
19306W        W83063   7.875  14.687   3.386
19307W        W83064  27.970  21.623  10.123
19308W        W83065   9.749  26.465   2.796
19309W        W83066  19.218  19.689  14.295
19310W        W83067  33.120  43.993   4.298
19311W        W83068  10.228  34.386  10.159
19312W        W83069  16.209  41.382   0.843
19313W        W83070  10.668  11.819  12.485
19314W        W83071   9.244  15.314   2.193
19315W        W83072  29.167   3.907  12.405
19316W        W83073  40.358  30.151   4.684
19317W        W83074  32.473  32.070  11.116
19318W        W83075  31.926  16.616  12.080
19319W        W83076  16.083  31.535  12.905
19320W        W83077  40.529  41.962  11.041
19321W        W83078  44.963   5.750   1.252
19322W        W83079   6.283   8.882  12.569
19323W        W83080  24.618   3.846   3.344
19324W        W83081  43.908   3.404  13.893
19325W        W83082  35.912  26.987   5.766
19326W        W83083  21.739   2.433  14.407
19327W        W83084  39.869  20.668  13.471
19328W        W83085   9.389  42.354   4.138
19329W        W83086   1.916   2.334  12.046
19330W        W83087  26.570  32.614  12.342
19331W        W83088  24.542  14.101  11.530
19332W        W83089  18.082  24.988   3.640
19333W        W83090   1.869  13.636  13.347
19334W        W83091   0.327  15.598  10.547
19335W        W83092  24.676  25.129  11.973
19336W        W83093  42.906   0.804  11.450
19337W        W83094  34.472  36.440  13.407
19338W        W83095  30.433  36.907   2.299
19339W        W83096  37.879  39.480  10.551
19340W        W83097  35.499   6.756   3.704
19341W        W83098   7.325  13.176   1.742
19342W        W83099  39.037  20.153  12.431
19343W        W83100  29.618  35.001  10.948
19344W        W83101  29.162  16.601   1.344
19345W        W83102  40.417  40.457  13.404
19346W        W83103  30.061  36.020   1.274
19347W        W83104   6.729  31.487  13.928
19348W        W83105  18.701  18.588  13.401
19349W        W83106  18.559   4.891  12.499
19350W        W83107  10.199  27.011   1.252
19351W        W83108  34.540  19.236   0.465
19352W        W83109  17.716  14.312  14.886
19353W        W83110  34.532   7.906   1.779
19354W        W83111   1.746  17.250   4.684
19355W        W83112  44.948  36.556   1.738
19356W        W83113   0.345  28.935  10.947
19357W        W83114  39.342  19.695   0.391
19358W        W83115  43.445  34.866  10.588
19359W        W83116  31.990  22.667  11.898
19360W        W83117  15.092  22.699   4.160
19361W        W83118  34.921  41.836   1.221
19362W        W83119  36.421   4.358   3.868
19363W        W83120  31.082  13.621  10.583
19364W        W83121  25.537  11.731   0.790
19365W        W83122   0.366  33.026  11.026
19366W        W83123  33.465  15.663  12.914
19367W        W83124  30.496  30.984   2.326
19368W        W83125   5.310   1.859   3.840
19369W        W83126  32.397   5.909   1.844
19370W        W83127  31.039  22.030  12.502
19371W        W83128  10.786  13.689   0.754
19372W        W83129  27.636  18.146   3.329
19373W        W83130  32.928  23.016   0.375
19374W        W83131  22.628   5.690   1.321
19375W        W83132  29.919  14.158   4.789
19376W        W83133  32.007  17.132   0.805
19377W        W83134  39.964  32.911   3.287
19378W        W83135  26.027  40.432   3.655
19379W        W83136  32.929  31.438  10.630
19380W        W83137   9.358  25.175   2.321
19381W        W83138  20.760  38.067  13.029
19382W        W83139  24.002  26.998  11.988
19383W        W83140  13.166  41.862  10.910
19384W        W83141   5.824  39.845   5.625
19385W        W83142  34.960  41.868  11.110
19386W        W83143  26.503  30.107   0.913
19387W        W83144  21.598  13.126   0.917
19388W        W83145  40.524  12.735  11.919
19389W        W83146   1.764   8.740  14.009
19390W        W83147  39.547  25.666  13.391
19391W        W83148  33.451  22.576   2.847
19392W        W83149   2.409  25.541  11.542
19393W        W83150  30.106  22.187   3.188
19394W        W83151  32.545  33.042  13.824
19395W        W83152  42.004  22.087   0.333
19396W        W83153  22.593  13.291   1.888
19397W        W83154  38.388  33.582   3.765
19398W        W83155  19.147  15.184   4.704
19399W        W83156  35.494  13.179  14.279
19400W        W83157  39.813  38.991  14.915
19401W        W83158  25.634   2.787   4.822
19402W        W83159  16.579  21.548  13.981
19403W        W83160  15.142  41.917  13.382
19404W        W83161  11.243  25.006  13.485
19405W        W83162  20.643   5.345   1.314
19406W        W83163  19.648  28.965   3.828
19407W        W83164   9.867  21.079  10.590
19408W        W83165  19.188  39.057   2.814
19409W        W83166  34.562  35.091  11.502
19410W        W83167  31.419  43.319  11.089
19411W        W83168  41.956  37.997  13.886
19412W        W83169  14.650  11.306  10.570
19413W        W83170  23.205  37.015   0.338
19414W        W83171   7.911  17.594  14.849
19415W        W83172  36.096  41.856   3.242
19416W        W83173   4.327  42.332   4.269
19417W        W83174  35.595  12.733  11.041
19418W        W83175   4.881  25.670  12.977
19419W        W83176  26.634  42.390   2.244
19420W        W83177  15.649  37.905  13.873
19421W        W83178  28.032   8.336   4.347
19422W        W83179   8.857   9.236  12.380
19423W        W83180   3.440  42.978   1.711
19424W        W83181   8.364  18.203   2.744
19425W        W83182  42.369  44.796  13.995
19426W        W83183   1.467  27.028  14.966
19427W        W83184  41.902  29.129  12.836
19428W        W83185   3.784  41.305   4.807
19429W        W83186  11.304  42.812  12.839
19430W        W83187  44.919  38.566  11.018
19431W        W83188  39.536   1.240   4.627
19432W        W83189  41.032  23.702  11.443
19433W        W83190  15.792  34.610   4.265
19434W        W83191  10.190  28.521  13.433
19435W        W83192  11.266   5.394   3.833
19436W        W83193  23.717  14.146   2.397
19437W        W83194  28.028   6.811   0.425
19438W        W83195  30.614  31.059   2.850
19439W        W83196   4.918   5.780  11.067
19440W        W83197   3.251   4.260  13.385
19441W        W83198  12.281  24.546  14.292
19442W        W83199  22.183  44.846  14.997
19443W        W83200  43.407  29.552  12.025
19444W        W83201  23.059  27.129  11.868
19445W        W83202  36.447  24.115   4.353
19446W        W83203  38.918   7.196  10.083
19447W        W83204   6.344   6.334  10.640
19448W        W83205  18.203  38.890   1.372
19449W        W83206  33.416  22.020   1.286
19450W        W83207  41.320  34.927  11.373
19451W        W83208  27.574   3.795  12.472
19452W        W83209  27.134   0.763  12.858
19453W        W83210  23.199   7.815  11.038
19454W        W83211   1.420  32.098   2.886
19455W        W83212  27.452  37.985  13.335
19456W        W83213  28.080   7.867  13.937
19457W        W83214  32.941  25.151   5.084
19458W        W83215   8.803  42.314   9.612
19459W        W83216  42.484  36.970  11.896
19460W        W83217   3.288  10.730  14.985
19461W        W83218  40.815   5.929  14.759
19462W        W83219  33.614  37.943  11.935
19463W        W83220  10.218  29.169   1.798
19464W        W83221  17.264  26.128  10.973
19465W        W83222  20.227  41.383   4.774
19466W        W83223   5.721   7.212  12.455
19467W        W83224  42.369   5.824   0.253
19468W        W83225  44.757  13.146   1.711
19469W        W83226  22.090  20.274   1.306
19470W        W83227  12.354  31.957  11.411
19471W        W83228   6.873  42.023  13.888
19472W        W83229  23.127  27.518  14.865
19473W        W83230   7.312  38.331   0.289
19474W        W83231  33.995  10.258  12.910
19475W        W83232   7.777  18.287  11.899
19476W        W83233   3.255  29.959   4.773
19477W        W83234  36.426  25.534  13.344
19478W        W83235  13.812  22.655   3.307
19479W        W83236  36.047  24.481   4.797
19480W        W83237  26.645  18.738   3.382
19481W        W83238  27.575   9.816  10.644
19482W        W83239   8.802  38.421   2.859
19483W        W83240   9.253  13.216   4.602
19484W        W83241  41.449  20.169  13.396
19485W        W83242  32.057  31.518  11.095
19486W        W83243   7.822  31.628   1.815
19487W        W83244  26.040  31.070  13.999
19488W        W83245  30.027  40.469   1.833
19489W        W83246  23.694  31.033  10.427
19490W        W83247  24.179  20.204  13.817
19491W        W83248  10.748   7.800  12.059
19492W        W83249  16.651   9.776   3.844
19493W        W83250   1.454  21.596  11.584
19494W        W83251  23.031   6.358  10.935
19495W        W83252   0.370  30.026  11.495
19496W        W83253  14.109  40.499  10.903
19497W        W83254  44.326  33.107   3.867
19498W        W83255  27.127  29.046   2.859
19499W        W83256  44.815  16.609   2.327
19500W        W83257  14.131  16.706   4.613
19501W        W83258  29.112  21.651  11.467
19502W        W83259   8.396  43.500  14.511
19503W        W83260   0.376  27.053  10.624
19504W        W83261  19.279  41.386  14.913
19505W        W83262  38.959  34.454  13.889
19506W        W83263  11.235   6.848   3.799
19507W        W83264  39.418  25.046   5.205
19508W        W83265  13.602  21.216   2.320
19509W        W83266  20.745  36.035  14.391
19510W        W83267  21.671  22.553   4.164
19511W        W83268  10.846  44.779   3.188
19512W        W83269  24.634  21.746  12.447
19513W        W83270   6.383  30.158  14.398
19514W        W83271  31.525  20.626   3.662
19515W        W83272  27.536   4.895  14.915
19516W        W83273   8.706  33.012   2.810
19517W        W83274  11.170  38.409  10.638
19518W        W83275  22.554  34.019   2.253
19519W        W83276  24.500  30.593   1.695
19520W        W83277  38.970  33.101   0.939
19521W        W83278  44.836  30.033  12.933
19522W        W83279  10.657   4.862  12.858
19523W        W83280  26.583  31.514   1.314
19524W        W83281  21.650  35.065   0.788
19525W        W83282  20.571  44.766  13.916
19526W        W83283   0.438  36.512  11.462
19527W        W83284  39.937  23.151   2.255
19528W        W83285  26.590   3.442  13.064
19529W        W83286  28.093  38.042   3.172
19530W        W83287  20.118   5.264  12.869
19531W        W83288  32.019  31.961   2.735
19532W        W83289   3.776  24.527   1.400
19533W        W83290  19.204   3.869   4.232
19534W        W83291  17.702  34.465  14.767
19535W        W83292  18.635  44.861   3.293
19536W        W83293  27.048  30.586  12.468
19537W        W83294  18.658  10.653  14.831
19538W        W83295   4.282  25.089   3.245
19539W        W83296  27.677  33.105  14.405
19540W        W83297  13.187  12.762  12.496
19541W        W83298  11.284  25.581   0.798
19542W        W83299  16.792  41.439  12.949
19543W        W83300   5.265  44.775  12.367
19544W        W83301  28.652  43.515   3.838
19545W        W83302  41.319  14.331  12.461
19546W        W83303  10.364  43.464  14.323
19547W        W83304  27.163   4.785  10.037
19548W        W83305  31.420   1.776  11.580
19549W        W83306  39.476  26.560  11.101
19550W        W83307  35.900  13.833   2.843
19551W        W83308  35.370  14.594   4.206
19552W        W83309  42.410   6.395  14.841
19553W        W83310  12.765   0.389  10.091
19554W        W83311  36.381  39.486   3.672
19555W        W83312  19.591  21.176  12.828
19556W        W83313  35.036  24.647   4.134
19557W        W83314   3.379   1.906   3.212
19558W        W83315  17.733  44.855   3.820
19559W        W83316  26.603   7.385  10.539
19560W        W83317   8.388  32.467   0.967
19561W        W83318   3.789  36.917  13.017
19562W        W83319  18.157  44.867   0.422
19563W        W83320  20.612  20.170   4.248
19564W        W83321  35.559   3.324  11.956
19565W        W83322  19.582  41.041   4.687
19566W        W83323   2.377  23.055  13.956
19567W        W83324   9.242  18.590   4.253
19568W        W83325   8.701  33.501   2.193
19569W        W83326   3.414  35.045   0.808
19570W        W83327   9.386  38.901   4.723
19571W        W83328  15.629  43.464   4.689
19572W        W83329   1.909  40.383   4.838
19573W        W83330  10.354   0.790   1.236
19574W        W83331  17.587  16.121   2.730
19575W        W83332  25.057  26.692   5.164
19576W        W83333  42.858   4.923   3.697
19577W        W83334  22.197   6.203  11.855
19578W        W83335   9.265  37.919  13.909
19579W        W83336   4.730   1.244   4.199
19580W        W83337  34.017  44.342  10.416
19581W        W83338  30.946  10.678  10.948
19582W        W83339  28.007  33.958  11.858
19583W        W83340   6.907   5.212  12.072
19584W        W83341  11.204   3.863   4.649
19585W        W83342  18.052  11.675   2.363
19586W        W83343  19.182  22.060  11.885
19587W        W83344  15.120  31.943   2.823
19588W        W83345  20.249  29.649  10.892
19589W        W83346  16.622   0.353   4.717
19590W        W83347  16.787  23.206  14.765
19591W        W83348  11.337  34.082   3.697
19592W        W83349  43.859  26.594  11.974
19593W        W83350  38.415  14.226  14.966
19594W        W83351  36.084  31.586  13.985
19595W        W83352  19.083  34.492  12.991
19596W        W83353  35.858  23.009   0.246
19597W        W83354  37.026   0.840  11.553
19598W        W83355  27.035  26.131   5.254
19599W        W83356  13.779  32.989  13.797
19600W        W83357  13.758  11.287   2.390
19601W        W83358  36.487  30.532   2.846
19602W        W83359  26.479  41.353  11.400
19603W        W83360  17.091  21.660   1.799
19604W        W83361  26.551  20.630  14.898
19605W        W83362  32.496   5.427   3.220
19606W        W83363  13.316   9.150   3.717
19607W        W83364  12.136  35.536  10.442
19608W        W83365   4.895   3.724   2.404
19609W        W83366  43.011  15.272  12.917
19610W        W83367  36.571  26.549  12.461
19611W        W83368  31.012  12.126   0.253
19612W        W83369  28.010  26.192   4.130
19613W        W83370  14.729   8.794  13.349
19614W        W83371  43.507  13.163  14.876
19615W        W83372  25.669  24.132   3.723
19616W        W83373  15.786  39.984   2.860
19617W        W83374  22.576  21.673  12.012
19618W        W83375  27.526  38.881  10.973
19619W        W83376   2.723  12.317  10.485
19620W        W83377  27.458   4.262   2.845
19621W        W83378  26.548  14.331   3.758
19622W        W83379   1.439   2.900   3.743
19623W        W83380  23.539  44.893  10.501
19624W        W83381  21.129   4.722  12.461
19625W        W83382  32.471  36.870  14.802
19626W        W83383  13.205  39.990  14.284
19627W        W83384  40.351  36.460  13.517
19628W        W83385  19.608  13.282   5.236
19629W        W83386  26.463  23.589  11.394
19630W        W83387  15.154  33.532   0.749
19631W        W83388   3.298  27.501  13.379
19632W        W83389   8.765  17.231   9.660
19633W        W83390  33.016  25.672   4.338
19634W        W83391  40.910   9.356  14.311
19635W        W83392  27.640  26.571  12.394
19636W        W83393  20.715   9.242  14.401
19637W        W83394  22.080   4.383  13.337
19638W        W83395  23.621  36.071   4.772
19639W        W83396  36.075   5.335   3.171
19640W        W83397  12.634   6.285  12.389
19641W        W83398  23.558  25.701   4.806
19642W        W83399  12.271  26.022   3.180
19643W        W83400  25.517   9.191  12.073
19644W        W83401   8.866   7.881  13.519
19645W        W83402  32.032  30.415   2.323
19646W        W83403   1.366  42.454  11.926
19647W        W83404  30.553  13.299   0.930
19648W        W83405  40.864  13.177   4.621
19649W        W83406  13.187  29.918   1.866
19650W        W83407   4.398  43.311  12.857
19651W        W83408  30.628  24.496  12.427
19652W        W83409  19.780   9.207  12.994
19653W        W83410  35.559  30.980  14.818
19654W        W83411   0.425  11.176  12.915
19655W        W83412  41.964  14.103   0.471
19656W        W83413  28.440  22.724  12.408
19657W        W83414   5.858   9.839   2.370
19658W        W83415  21.561  37.019  12.404
19659W        W83416  17.585   8.300  14.978
19660W        W83417  14.626  12.116  10.892
19661W        W83418  14.155  10.208  14.438
19662W        W83419  14.180  33.484  12.014
19663W        W83420  25.591  33.897   1.378
19664W        W83421  16.609  27.171   2.794
19665W        W83422   2.294  27.648  10.508
19666W        W83423  18.158  33.515  14.881
19667W        W83424  32.906   4.224   4.186
19668W        W83425  37.878  43.773  12.339
19669W        W83426  43.358  30.150   1.407
19670W        W83427  14.667  15.119  12.909
19671W        W83428  17.771   3.414   3.254
19672W        W83429  21.216  30.518  14.764
19673W        W83430  38.418   4.823   4.811
19674W        W83431   0.942  18.784  14.311
19675W        W83432  40.901  32.563   1.824
19676W        W83433  15.329  13.716  12.396
19677W        W83434  17.635   1.897  13.058
19678W        W83435  22.110  27.489   2.223
19679W        W83436  16.094  31.085  12.493
19680W        W83437  24.590  26.641  11.862
19681W        W83438   6.755  25.621  11.896
19682W        W83439   4.223   2.831  12.553
19683W        W83440  41.879  35.442   1.893
19684W        W83441  38.868  16.081   4.349
19685W        W83442  24.191  37.513  10.443
19686W        W83443  11.311  31.958   4.168
19687W        W83444   7.880  15.239   2.783
19688W        W83445  17.253  13.304   4.309
19689W        W83446  41.499  38.007  14.899
19690W        W83447  29.109  25.021   2.669
19691W        W83448  34.883   0.470   2.689
19692W        W83449  29.469  22.677  13.479
19693W        W83450   8.726  25.108   3.294
19694W        W83451   8.804   8.882  11.934
19695W        W83452  38.448  38.961   3.385
19696W        W83453  38.066   1.290  11.877
19697W        W83454   1.799   5.406  12.484
19698W        W83455   9.784   0.255   3.683
19699W        W83456  29.440  36.347   0.826
19700W        W83457   1.757   9.344   5.133
19701W        W83458   1.959   7.732   3.866
19702W        W83459  11.304   4.784  14.458
19703W        W83460  26.519  29.451   3.181
19704W        W83461   6.867   2.262   3.748
19705W        W83462  14.132  20.250   0.256
19706W        W83463  40.806   0.902   4.353
19707W        W83464  43.418  35.902   1.761
19708W        W83465  13.257   0.856  10.899
19709W        W83466  19.162  37.352   3.667
19710W        W83467  14.630   4.258  13.404
19711W        W83468  17.166  22.627  12.887
19712W        W83469  32.104  20.150   0.463
19713W        W83470  28.177  26.202  12.398
19714W        W83471  14.272  33.603   4.769
19715W        W83472  42.857  20.731   1.406
19716W        W83473   2.797  28.969  13.825
19717W        W83474  42.904  15.746  11.412
19718W        W83475  22.041   0.818   1.431
19719W        W83476   3.251   5.913   2.687
19720W        W83477   8.262  37.977  11.881
19721W        W83478   0.247   6.298  13.847
19722W        W83479  28.031   5.841  13.530
19723W        W83480  12.748  28.119   0.958
19724W        W83481  22.116  39.373  14.963
19725W        W83482   7.728   1.822  11.108
19726W        W83483  21.703  28.082   0.778
19727W        W83484  39.322  38.329   2.419
19728W        W83485  12.847  22.650   0.367
19729W        W83486  37.068  23.551  12.071
19730W        W83487   5.913  35.866   2.205
19731W        W83488   8.281  43.302   1.259
19732W        W83489  33.520  10.309  14.953
19733W        W83490  16.274  17.599   4.176
19734W        W83491  20.652  31.997  13.844
19735W        W83492  16.749  33.621   1.328
19736W        W83493  24.981  21.560  12.013
19737W        W83494  39.332   7.834   0.454
19738W        W83495   6.795  20.662   0.946
19739W        W83496   9.852  19.280   4.728
19740W        W83497  42.898  15.226  13.467
19741W        W83498  23.629  22.209   0.812
19742W        W83499  41.872  29.945   1.261
19743W        W83500  26.198  33.466  14.410
19744W        W83501  17.562  28.947  13.449
19745W        W83502   1.451  35.539   2.292
19746W        W83503  11.326  42.512  12.862
19747W        W83504  40.927  28.524  11.072
19748W        W83505   5.914  12.643  13.362
19749W        W83506  20.665  17.697   0.774
19750W        W83507  18.640  32.455   2.323
19751W        W83508  38.987  23.687   2.694
19752W        W83509  33.954  13.734   4.741
19753W        W83510   6.720   2.797  14.850
19754W        W83511  37.430  38.969   0.901
19755W        W83512  35.902  15.789  13.936
19756W        W83513  30.544   9.682   0.896
19757W        W83514  27.506   0.325   0.744
19758W        W83515   9.858  15.194   4.179
19759W        W83516  17.766  14.809   0.936
19760W        W83517  36.032  22.652   0.299
19761W        W83518  17.116  28.059  12.513
19762W        W83519  32.004   1.420  13.346
19763W        W83520  28.515   2.408   1.708
19764W        W83521   0.377  37.025  13.531
19765W        W83522   8.699  30.032  11.058
19766W        W83523   6.241  39.509   0.297
19767W        W83524  44.926  42.498  12.380
19768W        W83525  10.148  42.381   3.367
19769W        W83526  42.483  28.441   3.213
19770W        W83527  32.033  42.804  11.003
19771W        W83528  16.671  44.783  12.996
19772W        W83529  18.562  42.334  13.401
19773W        W83530   1.746  18.259   1.444
19774W        W83531  40.827  40.519  11.385
19775W        W83532  20.068   0.839   0.851
19776W        W83533  26.094  20.124   2.389
19777W        W83534  21.657  31.080   0.330
19778W        W83535   9.725  19.685   1.799
19779W        W83536  43.295  24.100   1.704
19780W        W83537  33.552  39.391  13.838
19781W        W83538   7.906  25.673  13.963
19782W        W83539  37.561  43.771  14.287
19783W        W83540  40.390   0.259   0.803
19784W        W83541   5.829  41.873   2.388
19785W        W83542  11.808  41.043  11.573
19786W        W83543   3.359   9.781  12.870
19787W        W83544  35.576  29.449  10.987
19788W        W83545  19.585  28.453  13.907
19789W        W83546  11.251   2.778   0.940
19790W        W83547  25.175  31.989   1.287
19791W        W83548  39.030  10.287   2.775
19792W        W83549  35.936  35.024   4.627
19793W        W83550   5.854  34.919   1.917
19794W        W83551  41.038  23.136   0.366
19795W        W83552  34.897   2.448   4.232
19796W        W83553  44.908  38.903   4.242
19797W        W83554  41.442   2.856  14.383
19798W        W83555  40.862  26.697   2.343
19799W        W83556  36.510  19.769   2.855
19800W        W83557  37.926  12.215  13.976
19801W        W83558  38.056   6.309  12.342
19802W        W83559  14.094  22.074   1.759
19803W        W83560  16.591   7.331   1.272
19804W        W83561   2.864  31.068  11.422
19805W        W83562  39.972  28.011   2.867
19806W        W83563  18.258  22.637  12.855
19807W        W83564  43.284  34.507  11.546
19808W        W83565   8.403  32.958  12.425
19809W        W83566   8.821  23.108   4.252
19810W        W83567  20.759  23.067   2.716
19811W        W83568  17.771   7.248   1.894
19812W        W83569  43.495  32.612   2.251
19813W        W83570   8.395  16.140  14.830
19814W        W83571  12.230  42.314   2.197
19815W        W83572  44.355  18.252  11.503
19816W        W83573  30.058  16.673  13.319
19817W        W83574  26.540  12.308  12.468
19818W        W83575  10.836  37.403   1.407
19819W        W83576   9.229  33.112   3.200
19820W        W83577   1.273   0.463   3.646
19821W        W83578  22.172   2.239   3.685
19822W        W83579   4.792   5.331   1.903
19823W        W83580   7.274  41.455  14.025
19824W        W83581  37.493  42.422   0.361
19825W        W83582  32.567   6.838   0.467
19826W        W83583  39.980  19.144  12.004
19827W        W83584  21.521  44.295  14.373
19828W        W83585  19.714   7.885   3.203
19829W        W83586  41.501  18.568  14.976
19830W        W83587  37.559  13.628   1.708
19831W        W83588   8.674   3.433   5.146
19832W        W83589   3.935  41.022  13.934
19833W        W83590  18.765  13.288   3.304
19834W        W83591   4.703  34.425   4.760
19835W        W83592   7.411  24.205  11.009
19836W        W83593  35.372  13.674  11.494
19837W        W83594  30.115   0.855  11.997
19838W        W83595  35.490  18.153  10.942
19839W        W83596  29.661   8.811   2.770
19840W        W83597  43.792   6.900  10.523
19841W        W83598  41.292   2.380   1.790
19842W        W83599   1.338  26.571  11.524
19843W        W83600  25.026  26.686  12.409
19844W        W83601  24.695  10.805  12.880
19845W        W83602  39.368  24.511   2.773
19846W        W83603   2.833  18.233  13.998
19847W        W83604  24.556   7.323   3.170
19848W        W83605  19.040  39.409   3.751
19849W        W83606  31.073  38.528  13.511
19850W        W83607  19.099  22.182  14.434
19851W        W83608  31.974  44.488   4.221
19852W        W83609  40.003   0.277   0.354
19853W        W83610  12.695   4.700   4.122
19854W        W83611  31.523   0.770   2.269
19855W        W83612  10.271  31.616  14.403
19856W        W83613  23.999  29.921   0.362
19857W        W83614  21.201  41.456  11.872
19858W        W83615  43.769  44.495   0.877
19859W        W83616  17.723  33.583  10.452
19860W        W83617   0.371  10.173  13.545
19861W        W83618  41.856   4.279   2.198
19862W        W83619  14.757  13.304  13.014
19863W        W83620  16.693   4.803   4.687
19864W        W83621   6.353  15.622  10.954
19865W        W83622   2.851  38.855   1.838
19866W        W83623  12.628  38.913   3.369
19867W        W83624  13.290   9.213  11.610
19868W        W83625  38.901  15.261   3.358
19869W        W83626  19.081  36.537  14.000
19870W        W83627  29.075  29.456  10.890
19871W        W83628  13.733  17.740   1.362
19872W        W83629  17.178   4.874   0.291
19873W        W83630  13.685  25.138  12.044
19874W        W83631  36.010  32.005  14.996
19875W        W83632  29.651   9.854  12.488
19876W        W83633  39.869  15.772   4.285
19877W        W83634  34.999  37.056   1.709
19878W        W83635   7.375  25.518   3.755
19879W        W83636  20.642  16.171  10.613
19880W        W83637  40.451  34.403  14.830
19881W        W83638  31.568   8.289  12.543
19882W        W83639  41.522  22.714  14.286
19883W        W83640   3.820  13.334   4.291
19884W        W83641   9.779   1.775  10.621
19885W        W83642  44.006  24.135   1.388
19886W        W83643  28.044  14.723   3.690
19887W        W83644  20.061   8.819  10.462
19888W        W83645  35.409  31.033  12.552
19889W        W83646  27.539  35.046  12.515
19890W        W83647  18.191  41.032  14.505
19891W        W83648  38.533   1.780  13.475
19892W        W83649  16.626  42.316   2.397
19893W        W83650  40.305   0.802   2.225
19894W        W83651  10.341   3.325   1.839
19895W        W83652  26.632   0.401  10.015
19896W        W83653  44.833  25.083   3.761
19897W        W83654   2.468   0.422  12.935
19898W        W83655  18.635  21.126  13.792
19899W        W83656   6.837   5.298  14.420
19900W        W83657  15.219   9.218  14.946
19901W        W83658  42.381  14.242   2.330
19902W        W83659   0.452  28.082  11.936
19903W        W83660  39.877   6.280   4.798
19904W        W83661  23.043  29.948  14.355
19905W        W83662  24.669   5.214   0.754
19906W        W83663   3.823  27.144  10.412
19907W        W83664   9.245  44.310  14.980
19908W        W83665   8.172  16.636   0.925
19909W        W83666  20.706  43.881   1.212
19910W        W83667   9.168  26.473   4.606
19911W        W83668  14.793  11.663   0.466
19912W        W83669  34.562  19.621  12.373
19913W        W83670  30.038   8.737  10.980
19914W        W83671  26.962   3.348   2.342
19915W        W83672  20.100  15.263  12.438
19916W        W83673  30.936  32.453   1.216
19917W        W83674  36.348  22.664   2.340
19918W        W83675  43.890   3.318  10.641
19919W        W83676  30.474  25.645  11.433
19920W        W83677  26.465  12.245   0.942
19921W        W83678  34.582  28.168   2.339
19922W        W83679  12.672  21.044   0.901
19923W        W83680   2.931  30.531   3.291
19924W        W83681  13.623  26.658  14.398
19925W        W83682  14.214  43.005   5.215
19926W        W83683  29.436  44.011  14.782
19927W        W83684  41.522   3.280  13.875
19928W        W83685  44.346   0.335  12.929
19929W        W83686  43.446   3.436  11.496
19930W        W83687   7.231  24.220   4.733
19931W        W83688  43.452  29.486   1.401
19932W        W83689  35.452  26.029   4.727
19933W        W83690  28.630   3.277  14.888
19934W        W83691  16.713   8.285   3.655
19935W        W83692  22.671   1.802  14.980
19936W        W83693  12.751  28.023   2.839
19937W        W83694   7.881  30.508  12.501
19938W        W83695  34.929  33.481  13.063
19939W        W83696  18.137  11.316  10.631
19940W        W83697  14.729  30.130  12.400
19941W        W83698  20.659   7.320   0.957
19942W        W83699  30.961  43.472  11.416
19943W        W83700  23.505  42.490  11.495
19944W        W83701   1.821  40.943  12.044
19945W        W83702  33.382  19.143   2.872
19946W        W83703  15.088   2.790   1.739
19947W        W83704  12.233   4.440  14.324
19948W        W83705  41.410  44.352  12.888
19949W        W83706  10.176   6.701  13.428
19950W        W83707  18.786  28.098   1.727
19951W        W83708  24.032  34.602   2.361
19952W        W83709   2.960  32.990   1.823
19953W        W83710  19.625  25.009  14.030
19954W        W83711   4.225   0.384   3.184
19955W        W83712  11.736  38.878   1.903
19956W        W83713  23.200  43.498  14.443
19957W        W83714  26.185  33.006  13.486
19958W        W83715  42.972  10.158   0.429
19959W        W83716   9.671  11.786   4.184
19960W        W83717  21.658  15.127  12.498
19961W        W83718  24.525   2.328  14.025
19962W        W83719  13.698  21.720  14.277
19963W        W83720  17.259  13.234  11.376
19964W        W83721  35.985   8.901   5.264
19965W        W83722  17.799  20.152  13.882
19966W        W83723  29.975  41.397   1.808
19967W        W83724  32.138  25.536   3.369
19968W        W83725  20.658  14.304   0.900
19969W        W83726  44.907  22.716   1.225
19970W        W83727  23.104  10.805  12.836
19971W        W83728  26.460  14.764   4.605
19972W        W83729   3.714  27.578  10.974
19973W        W83730   2.330  41.311  12.942
19974W        W83731   7.816  26.527  12.027
19975W        W83732  39.990  34.031  13.797
19976W        W83733  43.284  39.319  11.867
19977W        W83734   5.388  31.577   4.838
19978W        W83735  27.016  17.615   2.246
19979W        W83736   8.166  18.294   5.120
19980W        W83737  25.653   2.380  11.390
19981W        W83738  25.974   5.768  13.367
19982W        W83739   9.177   3.355  13.889
19983W        W83740  43.313  19.672   5.150
19984W        W83741  28.508  23.691  13.909
19985W        W83742   4.722  37.485  14.914
19986W        W83743  41.430  36.487   3.257
19987W        W83744  20.061  37.489   2.822
19988W        W83745   0.414  36.352   3.233
19989W        W83746  36.425  26.185  12.574
19990W        W83747  13.610  13.655   3.674
19991W        W83748  26.667   7.345  10.996
19992W        W83749   1.763  20.139   2.789
19993W        W83750  19.636   8.755   0.922
19994W        W83751  18.250   6.352  11.396
19995W        W83752  43.886  35.565   1.917
19996W        W83753  30.067   2.756  13.970
19997W        W83754  34.116  35.094   2.809
19998W        W83755  33.078  41.375  12.888
19999W        W83756  21.066   4.294  11.964
20000W        W83757  26.114   9.661  10.509
20001W        W83758  33.536  39.954   4.769
20002W        W83759  29.425  20.715   0.966
20003W        W83760  35.007  10.854   1.368
20004W        W83761  39.409  23.543   3.695
20005W        W83762  23.649  43.950  11.112
20006W        W83763  44.950  13.728   4.796
20007W        W83764   1.952   2.305  11.109
20008W        W83765   2.816  24.522  10.492
20009W        W83766  37.892  40.009   0.386
20010W        W83767  15.249  23.701  10.931
20011W        W83768  12.127  19.678   2.825
20012W        W83769   7.329  30.034   1.867
20013W        W83770  44.825  16.595  13.473
20014W        W83771  16.178  44.002   1.802
20015W        W83772  16.083  20.695  13.854
20016W        W83773   9.751  11.201  13.395
20017W        W83774   4.321  31.979   0.951
20018W        W83775  27.531  21.557   2.766
20019W        W83776  16.099  39.006  12.460
20020W        W83777   1.803  26.573   0.878
20021W        W83778   7.342  41.497   3.386
20022W        W83779  39.910  42.393   3.775
20023W        W83780   8.287   8.846  10.566
20024W        W83781   8.759  14.666  11.026
20025W        W83782  21.139  19.559   0.432
20026W        W83783  36.936  34.467  11.955
20027W        W83784   2.810   7.869   3.356
20028W        W83785  31.449  27.984  11.377
20029W        W83786  43.815  43.500  11.978
20030W        W83787  13.106  26.070   3.189
20031W        W83788   2.790  25.064   1.256
20032W        W83789   3.437  33.941  11.104
20033W        W83790   2.310  27.497   0.469
20034W        W83791  15.213  28.661  14.019
20035W        W83792  19.616  42.440  11.574
20036W        W83793  37.025  41.305  10.975
20037W        W83794  14.634  27.094   2.236
20038W        W83795  21.678  16.253   2.389
20039W        W83796  44.392  26.545   9.990
20040W        W83797  37.923  34.394   0.443
20041W        W83798  22.165   8.786   0.769
20042W        W83799  40.379  11.699   0.819
20043W        W83800  23.060  41.431   0.917
20044W        W83801  19.534  12.821   1.288
20045W        W83802  10.311  36.953   1.712
20046W        W83803  19.601  21.019   5.275
20047W        W83804  35.982   5.377  12.969
20048W        W83805  10.179  12.176  10.530
20049W        W83806  20.522  10.355   3.345
20050W        W83807  33.094  28.568   0.776
20051W        W83808  29.010   9.766   3.795
20052W        W83809  18.113  17.068  13.935
20053W        W83810  44.319  41.837  12.943
20054W        W83811   6.188  19.073   1.808
20055W        W83812   0.838  15.122  14.417
20056W        W83813  25.652  41.040   3.637
20057W        W83814  13.599  39.882  11.946
20058W        W83815   1.397   9.314   3.199
20059W        W83816   3.885  34.549   1.334
20060W        W83817  24.203  30.994  11.943
20061W        W83818  34.543   7.798   2.761
20062W        W83819  28.600  38.558  14.990
20063W        W83820  27.588  18.738  12.545
20064W        W83821  18.216  26.161   2.721
20065W        W83822  25.033  22.084   0.346
20066W        W83823  25.001  36.883   0.834
20067W        W83824  25.505  14.830   3.807
20068W        W83825  20.191  36.080   0.298
20069W        W83826  35.415  28.131  11.867
20070W        W83827  34.488  41.858  14.892
20071W        W83828   6.397  13.343  10.524
20072W        W83829  11.153  33.497  11.068
20073W        W83830   0.948  43.021  10.908
20074W        W83831  24.194  13.228   0.262
20075W        W83832  24.488  38.020  14.334
20076W        W83833   0.367  39.933   3.675
20077W        W83834  19.744  14.728   4.702
20078W        W83835  23.534  33.566   4.353
20079W        W83836  19.729  25.474   2.282
20080W        W83837   5.755  40.353   0.840
20081W        W83838  35.380  27.514  12.083
20082W        W83839   2.366   4.901   1.785
20083W        W83840  16.251  27.610  11.054
20084W        W83841  35.389  16.107  10.497
20085W        W83842  26.109  33.551   3.176
20086W        W83843  39.541  21.228  14.457
20087W        W83844  42.293  25.114   1.293
20088W        W83845  25.688  26.127  12.034
20089W        W83846   1.469   1.333   2.328
20090W        W83847  27.500  30.038  12.891
20091W        W83848  10.652  11.242   3.221
20092W        W83849   6.722  38.457  13.850
20093W        W83850  11.859  14.263  13.544
20094W        W83851   7.378  14.210   2.404
20095W        W83852   3.896  34.513  11.090
20096W        W83853   4.278  25.010  11.940
20097W        W83854   9.176  14.172  13.521
20098W        W83855  12.712  33.041  10.533
20099W        W83856   7.749  34.404  11.097
20100W        W83857  26.642  12.715   3.329
20101W        W83858  12.850  11.799  12.532
20102W        W83859   4.727   4.920  12.005
20103W        W83860  12.176  44.265  14.376
20104W        W83861  13.138   5.354  14.302
20105W        W83862  39.930  38.987   0.447
20106W        W83863  12.612   3.820   3.261
20107W        W83864   7.414  25.534  10.629
20108W        W83865  42.852  14.193  11.477
20109W        W83866  41.456  34.047   3.687
20110W        W83867  19.218  18.083   4.789
20111W        W83868  20.561   7.853  10.937
20112W        W83869  33.006  44.971   3.190
20113W        W83870  37.858  25.009  11.092
20114W        W83871  22.022  27.677  14.280
20115W        W83872  36.478  43.019  13.428
20116W        W83873  24.512  23.730   2.178
20117W        W83874  35.100  39.512   3.824
20118W        W83875  10.732   1.734   4.776
20119W        W83876   7.863   3.381   0.764
20120W        W83877  35.954  32.004   2.402
20121W        W83878  26.592  43.882   9.945
20122W        W83879   5.405   1.872   2.250
20123W        W83880   3.375  18.053   2.245
20124W        W83881  44.393  44.896  14.322
20125W        W83882  10.158  34.580  13.035
20126W        W83883  30.442  10.734  12.945
20127W        W83884   8.697  44.992   2.228
20128W        W83885  29.172   0.936   1.723
20129W        W83886   9.867   6.407  12.502
20130W        W83887  41.486   0.356   4.325
20131W        W83888  30.112  34.548  11.461
20132W        W83889  11.254  16.116   3.252
20133W        W83890  23.130   2.273   0.305
20134W        W83891  19.534  27.669  13.525
20135W        W83892  35.879  33.432   3.352
20136W        W83893   8.900   8.665   1.840
20137W        W83894  35.519  28.658   1.402
20138W        W83895  37.367  17.582  13.356
20139W        W83896  36.525  41.884   4.172
20140W        W83897  44.259   0.486   4.798
20141W        W83898  42.005  22.595   3.777
20142W        W83899  43.854   1.906  14.972
20143W        W83900  27.629  13.726  12.040
20144W        W83901  17.761  25.700   4.792
20145W        W83902  14.663  12.674  10.989
20146W        W83903   3.311  17.298  14.921
20147W        W83904  35.886  36.422   0.393
20148W        W83905  30.493  42.347  10.470
20149W        W83906   4.754  16.231  14.512
20150W        W83907  27.590   9.745   4.700
20151W        W83908  15.107   5.797  10.478
20152W        W83909  38.528  40.017   0.456
20153W        W83910  10.338  39.842  14.945
20154W        W83911   6.277  31.533  11.605
20155W        W83912  23.574   2.801   0.895
20156W        W83913   4.340  43.986   9.675
20157W        W83914  16.317  38.346   4.196
20158W        W83915  17.072  26.690   2.417
20159W        W83916  16.166  44.936   1.729
20160W        W83917  16.147  33.054   3.248
20161W        W83918  38.449   3.728   3.191
20162W        W83919  11.162  22.574   3.189
20163W        W83920  12.324  36.391  14.285
20164W        W83921  18.150   2.723  12.094
20165W        W83922  32.139  31.145   0.769
20166W        W83923  32.072  13.109   0.255
20167W        W83924  28.058   2.758  10.616
20168W        W83925  12.765  22.028  13.049
20169W        W83926  32.991  10.225   1.743
20170W        W83927  27.012  14.267  11.949
20171W        W83928  22.053  24.218   1.869
20172W        W83929  26.482  14.141   5.160
20173W        W83930   6.389   1.840  13.060
20174W        W83931  25.097   8.716  10.941
20175W        W83932  33.560   7.708   1.434
20176W        W83933  42.799  15.652  12.012
20177W        W83934  38.992  35.880  13.513
20178W        W83935  19.043  40.855  12.065
20179W        W83936   0.759   8.393  14.777
20180W        W83937   2.288  15.722  10.410
20181W        W83938  22.160  22.212   1.744
20182W        W83939  37.497   5.303  11.069
20183W        W83940  43.346  43.961   2.308
20184W        W83941  37.555  37.549  14.828
20185W        W83942  22.527  16.647   1.251
20186W        W83943  39.413   0.402  14.948
20187W        W83944  22.233  10.822   0.287
20188W        W83945  42.525  38.853   2.252
20189W        W83946   1.329  12.829   0.813
20190W        W83947  34.046  39.947  13.444
20191W        W83948   0.929  28.513   2.678
20192W        W83949   1.320  39.485   0.250
20193W        W83950   5.396  22.202   4.114
20194W        W83951   1.749  21.553  13.033
20195W        W83952  13.723  18.221   1.827
20196W        W83953  13.682  30.102   2.823
20197W        W83954  20.599  27.974   2.781
20198W        W83955  32.488  29.941   0.757
20199W        W83956  13.725   1.316  12.567
20200W        W83957  40.998  28.080   1.348
20201W        W83958  31.582  17.751  10.549
20202W        W83959  24.574   7.271  12.395
20203W        W83960   8.255  34.520  14.912
20204W        W83961  23.187  16.695  11.915
20205W        W83962  35.072  40.332  11.543
20206W        W83963  32.004   1.782   2.334
20207W        W83964  26.154   1.881  10.439
20208W        W83965  14.674   5.375   4.615
20209W        W83966  41.999   4.377   0.772
20210W        W83967  19.672  36.462  11.086
20211W        W83968  25.002  44.930  14.777
20212W        W83969  26.627  31.152  13.865
20213W        W83970   0.834   4.885   5.099
20214W        W83971  43.791  33.028  12.490
20215W        W83972  26.051  19.591   3.337
20216W        W83973  14.199  11.670  13.501
20217W        W83974  44.983   9.688  11.419
20218W        W83975   6.286  34.964  14.283
20219W        W83976  13.257  35.961  11.024
20220W        W83977   4.339  20.710  10.912
20221W        W83978  11.640  16.782   1.344
20222W        W83979   5.733  13.183   2.358
20223W        W83980  19.234  16.270   3.640
20224W        W83981  22.210  44.457   2.214
20225W        W83982  21.208   3.244  11.043
20226W        W83983  14.749  35.899  13.022
20227W        W83984   3.867  40.868   9.622
20228W        W83985  33.554  40.942   1.744
20229W        W83986  31.512  13.131   0.309
20230W        W83987  23.603  28.565  12.887
20231W        W83988  30.601  33.053   4.624
20232W        W83989  27.513  39.991   2.862
20233W        W83990  42.477  37.470  13.021
20234W        W83991  28.010  40.325   2.776
20235W        W83992  34.529  36.408  10.975
20236W        W83993   7.198  20.046   0.741
20237W        W83994   8.338  21.254  13.038
20238W        W83995  17.798  31.975  11.555
20239W        W83996  37.873  15.794  13.966
20240W        W83997   5.365  16.809  14.877
20241W        W83998  28.003  28.542   2.840
20242W        W83999  33.593  11.164  10.566
20243W        W84000   8.173  33.474   1.905
20244W        W84001   4.742  32.413  11.575
20245W        W84002   9.713   5.715   0.273
20246W        W84003  20.171  35.054   3.281
20247W        W84004  39.982  17.559  10.546
20248W        W84005   0.879  22.643  10.472
20249W        W84006   0.920  13.238   0.355
20250W        W84007  18.555  28.567   1.708
20251W        W84008   7.862  39.339  10.554
20252W        W84009   2.308   6.308   2.332
20253W        W84010  28.482   9.275  12.034
20254W        W84011  22.557  40.447  11.420
20255W        W84012  16.264   0.433   1.763
20256W        W84013  44.802   8.664  13.879
20257W        W84014  40.476  38.422   3.743
20258W        W84015   0.261  33.977  13.949
20259W        W84016  26.078  29.564  11.522
20260W        W84017  33.998  28.185  12.442
20261W        W84018  34.884  40.421   3.665
20262W        W84019   3.826  32.485   2.255
20263W        W84020   9.722  23.222  12.859
20264W        W84021   3.936  30.505   3.758
20265W        W84022  41.812  38.412  11.967
20266W        W84023  44.968  27.967   0.396
20267W        W84024  44.413  15.630  12.032
20268W        W84025  31.485  31.917  13.447
20269W        W84026  31.900   1.940  14.947
20270W        W84027   2.942   2.851  14.907
20271W        W84028   8.287   6.427   0.945
20272W        W84029  27.194   0.448   0.424
20273W        W84030  41.903  28.123  14.941
20274W        W84031  35.055  31.037  12.436
20275W        W84032  27.037  17.304   0.480
20276W        W84033  44.308  44.974  11.538
20277W        W84034  18.790  44.418  11.464
20278W        W84035  16.075   2.284  10.583
20279W        W84036  17.306  10.222  10.145
20280W        W84037  39.382   3.274   0.731
20281W        W84038  32.417   4.345  11.907
20282W        W84039  26.565  13.729  12.410
20283W        W84040  44.465  12.721  10.150
20284W        W84041  13.181   6.426   1.246
20285W        W84042   6.774  10.737  12.465
20286W        W84043  44.264  15.762   0.348
20287W        W84044  33.414  41.445   2.673
20288W        W84045  24.530  10.834   2.400
20289W        W84046   6.406  29.161  12.950
20290W        W84047  30.558   5.736  12.987
20291W        W84048  38.933   1.398   1.732
20292W        W84049  40.979  16.731  13.906
20293W        W84050  16.680   7.759  14.972
20294W        W84051   2.425  13.737   3.379
20295W        W84052  25.043  18.093   4.599
20296W        W84053  42.473   6.839   2.389
20297W        W84054  18.734  10.854  11.488
20298W        W84055  10.290  33.013  13.807
20299W        W84056   6.867  27.686   2.369
20300W        W84057   6.273   7.184   3.370
20301W        W84058   6.882  43.479   3.709
20302W        W84059  23.723  21.231  10.582
20303W        W84060  42.327   1.281  10.889
20304W        W84061  37.410  15.686  12.059
20305W        W84062  26.127   3.447   4.617
20306W        W84063   6.718  25.006   4.787
20307W        W84064  10.322  33.877  11.092
20308W        W84065  43.422   6.693   3.374
20309W        W84066  37.046  31.604  11.074
20310W        W84067  40.374  12.767   0.824
20311W        W84068   2.276  29.172   5.123
20312W        W84069  10.839  44.385   0.286
20313W        W84070  34.386  11.206  12.486
20314W        W84071   3.828  25.503  12.531
20315W        W84072  43.426  37.385   2.855
20316W        W84073  22.014  31.042  13.825
20317W        W84074  38.501  35.490   4.254
20318W        W84075  21.068  13.687   3.234
20319W        W84076  27.599  21.106  13.040
20320W        W84077  43.874   0.944  13.506
20321W        W84078  31.906  16.204  11.994
20322W        W84079  11.316   7.877  13.473
20323W        W84080   5.705  12.802   0.881
20324W        W84081  34.441  43.455  10.921
20325W        W84082   1.790  42.398   3.246
20326W        W84083   1.915  40.350  13.546
20327W        W84084  43.456   9.644  12.459
20328W        W84085   9.771  36.849  13.382
20329W        W84086   6.372  27.071   2.728
20330W        W84087  35.948   7.203  12.957
20331W        W84088  20.765  43.984   4.661
20332W        W84089  21.577  27.529   2.741
20333W        W84090  27.589  38.967   0.750
20334W        W84091  12.767  18.664  13.378
20335W        W84092  30.522  20.141   4.813
20336W        W84093  27.047  25.023  14.921
20337W        W84094  44.376  41.988  13.943
20338W        W84095  35.102  43.432  11.059
20339W        W84096  16.642   0.899  11.593
20340W        W84097  14.714  17.770  13.938
20341W        W84098  33.040   2.279   2.816
20342W        W84099  32.989   5.330  13.059
20343W        W84100  40.411  16.252   0.427
20344W        W84101  12.128  26.701  12.090
20345W        W84102   6.414  40.025   2.194
20346W        W84103  15.119   4.430   0.253
20347W        W84104  38.063  38.962  10.935
20348W        W84105   4.912  30.131   0.354
20349W        W84106  39.531  28.546  12.869
20350W        W84107   4.253  44.918   0.302
20351W        W84108  15.583  30.098   0.333
20352W        W84109  15.583   1.932  12.567
20353W        W84110  42.514  38.953   3.705
20354W        W84111  29.491  36.940   0.959
20355W        W84112  14.790  12.317  13.337
20356W        W84113  44.305  36.881  12.550
20357W        W84114  10.874  16.696   1.873
20358W        W84115  12.658  23.158   4.605
20359W        W84116   4.894  33.433   2.232
20360W        W84117  21.543  21.754  13.358
20361W        W84118  32.104   2.826   3.183
20362W        W84119   8.829  41.292  12.399
20363W        W84120  43.799  31.551   2.863
20364W        W84121  30.652  15.673  11.111
20365W        W84122   7.344   3.240  14.834
20366W        W84123  38.395   3.747  13.477
20367W        W84124  13.268  27.190   4.319
20368W        W84125  28.488  37.360  12.993
20369W        W84126   8.707  38.511  10.983
20370W        W84127  12.615  39.336  10.430
20371W        W84128  38.386  38.438  13.418
20372W        W84129  13.141  21.239   2.841
20373W        W84130  24.026  33.948  13.008
20374W        W84131  44.490  25.607  14.305
20375W        W84132   0.946   3.886  12.955
20376W        W84133  42.888   3.853   4.613
20377W        W84134  44.477  16.726   2.254
20378W        W84135  23.139  25.522  14.303
20379W        W84136  19.620   0.982  14.802
20380W        W84137   2.279  39.467   1.883
20381W        W84138  21.085  42.425  11.566
20382W        W84139  33.014  17.092  13.867
20383W        W84140  20.146  21.667  14.990
20384W        W84141  34.940  39.055  14.836
20385W        W84142   3.916   1.939  13.425
20386W        W84143  27.488   1.240  12.558
20387W        W84144  18.283  12.782   9.974
20388W        W84145  32.464  15.193   3.799
20389W        W84146  27.447  21.238   4.716
20390W        W84147   1.312  42.838   2.179
20391W        W84148  16.117  24.547   2.390
20392W        W84149  29.947  25.149  13.536
20393W        W84150  36.097  42.281   2.732
20394W        W84151  35.404   9.701   3.814
20395W        W84152   6.860  43.419   5.687
20396W        W84153  32.609  21.053   3.162
20397W        W84154  33.535  14.201   1.282
20398W        W84155  36.091  33.918  11.520
20399W        W84156  35.394  13.649   2.780
20400W        W84157  27.598  18.058  14.944
20401W        W84158  25.098  26.587  10.995
20402W        W84159  18.250   4.782   4.695
20403W        W84160  36.921   0.412   4.123
20404W        W84161  33.030   1.826  11.906
20405W        W84162  38.927   7.230   1.747
20406W        W84163  17.700  41.362   3.307
20407W        W84164  26.975   2.868   4.776
20408W        W84165  29.060  18.576   0.334
20409W        W84166   6.267  12.127  11.127
20410W        W84167  27.503  24.162   1.334
20411W        W84168  28.989   6.907   4.286
20412W        W84169  34.420  44.925  14.923
20413W        W84170   2.846   2.371  12.541
20414W        W84171  40.975  34.099   4.735
20415W        W84172  26.543  15.642  11.090
20416W        W84173  26.617   3.239   2.759
20417W        W84174  37.044  31.467  14.434
20418W        W84175  20.146  14.302  10.109
20419W        W84176  34.918   6.718  14.433
20420W        W84177  29.591   2.887  10.035
20421W        W84178  15.230  27.182  13.948
20422W        W84179  15.098   1.434   2.851
20423W        W84180  32.077  29.057  12.469
20424W        W84181  27.509  20.028  13.890
20425W        W84182  44.799  27.484  10.577
20426W        W84183  32.455  25.983   2.854
20427W        W84184   8.274  14.245   1.923
20428W        W84185  19.763  27.980  11.375
20429W        W84186  13.612  24.627   3.734
20430W        W84187   3.888   6.911  13.474
20431W        W84188  36.492  42.340  13.843
20432W        W84189  16.767  37.058   3.192
20433W        W84190  43.437  18.131   2.832
20434W        W84191  13.144  13.748  10.598
20435W        W84192   4.257  30.010   4.257
20436W        W84193  28.018  31.917  12.549
20437W        W84194  30.605  44.408   3.292
20438W        W84195  43.433  29.609   2.220
20439W        W84196   8.825  31.513  10.533
20440W        W84197  24.133  11.833   3.295
20441W        W84198   4.431  31.978   0.350
20442W        W84199  43.499   8.660   1.903
20443W        W84200  30.595   3.378   2.792
20444W        W84201  13.704  10.846  12.076
20445W        W84202  37.084  21.756   1.781
20446W        W84203  40.036  23.140  13.327
20447W        W84204  41.449  22.031   3.372
20448W        W84205  23.674  13.110  14.789
20449W        W84206  23.546  18.715  14.444
20450W        W84207  15.824   4.863  11.057
20451W        W84208   0.748  25.048   4.769
20452W        W84209  27.127  32.006  14.472
20453W        W84210  14.824  13.195   4.122
20454W        W84211   0.357  43.502   0.452
20455W        W84212  30.606   0.483   3.712
20456W        W84213  28.137   6.327   2.818
20457W        W84214  17.173  26.508  12.954
20458W        W84215  38.435  43.881   2.225
20459W        W84216  30.030  44.825  11.494
20460W        W84217  27.478  13.747  12.943
20461W        W84218  19.666  10.786   4.190
20462W        W84219  37.380  13.215   4.134
20463W        W84220  17.752  13.326  12.022
20464W        W84221  19.712  23.632   1.869
20465W        W84222  28.552  19.609  10.625
20466W        W84223  42.311   8.279  12.007
20467W        W84224  13.605   8.765  11.386
20468W        W84225   8.834  12.773  10.622
20469W        W84226  25.550  43.409   0.323
20470W        W84227  35.371  44.463   1.447
20471W        W84228  40.946   4.259  11.064
20472W        W84229  38.979   8.725  11.604
20473W        W84230  22.187   5.218   2.842
20474W        W84231  11.768  28.597  10.447
20475W        W84232  30.144  28.941  13.386
20476W        W84233  14.717  12.275  13.060
20477W        W84234  37.907  28.093   1.418
20478W        W84235  27.491  11.166  11.537
20479W        W84236  42.922  34.610   1.384
20480W        W84237  17.624   7.283  12.947
20481W        W84238  21.094  22.728  10.417
20482W        W84239  31.967  15.297  11.109
20483W        W84240  11.742   6.326  13.906
20484W        W84241  18.215  15.175  10.998
20485W        W84242  36.017  41.454  11.592
20486W        W84243  15.224  44.817  11.915
20487W        W84244  33.095  30.551  10.552
20488W        W84245  19.573  38.997  10.616
20489W        W84246   2.931  10.316  14.772
20490W        W84247  44.922  14.127  11.943
20491W        W84248  30.529   7.216  12.566
20492W        W84249   9.356  11.131   0.766
20493W        W84250  21.553  43.376  10.914
20494W        W84251  30.615  35.581  12.068
20495W        W84252  20.682  19.192   1.759
20496W        W84253  27.552   7.791   3.633
20497W        W84254   0.433   2.402  14.873
20498W        W84255  33.927   7.748  12.929
20499W        W84256   3.411   1.319   0.330
20500W        W84257   3.886   8.281  12.868
20501W        W84258   5.331  35.575  11.441
20502W        W84259  39.374  38.939   3.685
20503W        W84260  29.634  12.815  14.908
20504W        W84261  29.639  40.805  13.435
20505W        W84262  14.169  40.426   1.771
20506W        W84263  35.912   8.742  11.119
20507W        W84264  38.412  30.064   3.654
20508W        W84265  35.911  44.797  11.378
20509W        W84266  25.570  39.549   3.217
20510W        W84267  11.675   6.360  10.508
20511W        W84268   9.355  44.337  10.969
20512W        W84269  23.596  37.030  12.361
20513W        W84270  39.499   3.901  12.096
20514W        W84271  33.923  42.842   1.321
20515W        W84272   3.431  27.008  12.998
20516W        W84273  17.687  19.632  11.422
20517W        W84274   3.233   0.305   1.809
20518W        W84275  31.111  31.577   0.770
20519W        W84276   0.473   9.313  13.849
20520W        W84277  12.797  18.733  13.800
20521W        W84278  35.503  36.921  11.872
20522W        W84279  20.690  29.548   0.470
20523W        W84280  35.396   4.817   2.410
20524W        W84281   1.743  40.991   2.873
20525W        W84282   6.413  19.220  14.866
20526W        W84283  44.462  25.116  10.013
20527W        W84284  11.847  18.761  10.984
20528W        W84285  33.511  20.590   3.823
20529W        W84286  28.435   6.289   1.292
20530W        W84287  32.078   3.944   4.223
20531W        W84288  24.592  23.680  14.913
20532W        W84289  42.389  35.910  11.429
20533W        W84290  40.455  24.038   2.856
20534W        W84291  10.349  43.894  11.570
20535W        W84292  28.530  39.544  13.433
20536W        W84293  31.522  36.058  11.059
20537W        W84294  20.029  28.450  12.391
20538W        W84295  25.068  37.037   4.172
20539W        W84296  17.206  38.870  13.318
20540W        W84297   6.211  19.779   3.307
20541W        W84298   2.230   1.382   3.230
20542W        W84299  15.211  30.461   3.860
20543W        W84300  11.774  40.921   1.743
20544W        W84301   0.898   7.389   5.103
20545W        W84302   6.305  17.752  11.012
20546W        W84303  41.381  22.552  11.031
20547W        W84304  21.666  25.673   1.708
20548W        W84305   1.263  40.002  13.800
20549W        W84306   0.975  22.657   3.846
20550W        W84307   4.770  35.089  14.330
20551W        W84308   8.389  15.596  11.387
20552W        W84309  24.625  22.182   1.928
20553W        W84310  11.332  33.505   1.280
20554W        W84311  37.443   8.857   3.731
20555W        W84312  10.314  15.172   0.826
20556W        W84313  10.829  16.771  10.956
20557W        W84314   6.326  29.049  12.411
20558W        W84315  26.485  18.754   3.730
20559W        W84316  15.182  25.698   2.393
20560W        W84317  25.554  18.665  12.533
20561W        W84318  10.224  23.240  14.292
20562W        W84319  39.500  11.159  12.504
20563W        W84320   4.260  17.660   1.796
20564W        W84321  34.051  35.949   1.812
20565W        W84322   5.226  13.268   4.293
20566W        W84323   4.792  42.425   0.785
20567W        W84324   9.852  27.575   4.782
20568W        W84325  33.622  10.652   4.337
20569W        W84326   5.336  32.607   1.287
20570W        W84327  35.535  44.903  14.420
20571W        W84328   7.236  11.638   3.330
20572W        W84329  38.528  11.694  11.512
20573W        W84330  25.976  12.843  14.398
20574W        W84331  37.423   6.774   2.878
20575W        W84332  21.197  15.802   4.753
20576W        W84333  19.180  41.373  12.340
20577W        W84334   1.770  35.573  12.529
20578W        W84335   1.740  32.585  11.951
20579W        W84336  42.387   3.837   2.321
20580W        W84337  38.060  11.156   1.449
20581W        W84338  30.134  44.981   2.835
20582W        W84339  11.136  25.034  14.032
20583W        W84340  18.546  30.916  11.431
20584W        W84341  33.490  37.359  13.988
20585W        W84342  16.756  30.019   4.645
20586W        W84343   2.790  39.981   1.724
20587W        W84344  37.854  17.634   3.827
20588W        W84345  32.980  39.953   3.376
20589W        W84346  34.112   7.754   3.297
20590W        W84347  30.095  39.460  10.895
20591W        W84348  27.458  42.929   2.726
20592W        W84349  20.142  35.482  14.784
20593W        W84350  37.978  30.465   2.753
20594W        W84351  10.874  24.195   2.769
20595W        W84352  33.476  39.479   3.334
20596W        W84353  43.377  38.888   4.184
20597W        W84354  32.890   5.198  11.859
20598W        W84355   1.313  32.024  12.381
20599W        W84356  17.746  24.182  14.379
20600W        W84357  43.914  30.423   0.427
20601W        W84358  20.132  11.224   2.321
20602W        W84359  41.428  42.307   2.749
20603W        W84360   7.881  41.881   2.885
20604W        W84361  32.456  44.474   4.830
20605W        W84362  25.560  30.560   4.836
20606W        W84363  10.150  35.996  14.952
20607W        W84364   7.824   4.844  13.522
20608W        W84365  38.929  14.629   4.269
20609W        W84366  26.961  30.560  14.936
20610W        W84367  19.546  43.319  12.920
20611W        W84368  20.136  42.875   3.328
20612W        W84369  26.176  17.062   3.772
20613W        W84370  22.649  19.631  14.766
20614W        W84371   0.977   1.816   4.808
20615W        W84372  44.980  33.614  13.857
20616W        W84373  12.796  37.435  13.965
20617W        W84374   9.760  24.045  10.482
20618W        W84375  30.005   2.814  10.535
20619W        W84376  14.312  17.794  11.560
20620W        W84377  33.483  24.223   2.775
20621W        W84378  23.538  39.518  13.819
20622W        W84379  17.176  31.919  12.965
20623W        W84380  30.641   9.254  11.540
20624W        W84381   9.157   4.373  10.985
20625W        W84382  18.183  19.615   4.307
20626W        W84383  20.581  39.548  13.012
20627W        W84384  27.448  21.586   4.805
20628W        W84385  24.687   8.285  13.925
20629W        W84386  10.139  22.109   2.398
20630W        W84387  31.540  20.042  12.460
20631W        W84388  29.105  35.996  14.854
20632W        W84389   5.797  15.233   4.745
20633W        W84390  43.300  26.153   4.723
20634W        W84391  25.517   8.703   0.307
20635W        W84392  19.041  29.578   1.238
20636W        W84393  20.235  21.203  12.512
20637W        W84394   6.879  35.068  13.022
20638W        W84395  35.433  18.126   2.334
20639W        W84396  10.169   0.984  12.558
20640W        W84397   4.297  14.807  11.555
20641W        W84398   8.390   0.984  10.947
20642W        W84399  37.377   9.166   3.314
20643W        W84400   4.710  26.019   3.777
20644W        W84401   9.348  30.097  10.908
20645W        W84402  29.114  36.919  12.957
20646W        W84403   0.757  27.140  10.987
20647W        W84404  35.880  19.045   0.944
20648W        W84405   6.790   8.314  12.461
20649W        W84406  34.988  27.530   0.336
20650W        W84407   7.770  43.807  12.408
20651W        W84408  38.419  39.542  14.508
20652W        W84409  27.465   6.242   1.363
20653W        W84410  43.378  25.655  12.918
20654W        W84411   5.907  22.062   1.768
20655W        W84412  39.337  20.567  10.939
20656W        W84413   3.429  27.606   1.251
20657W        W84414  44.956  15.589  11.989
20658W        W84415   6.790  44.452  11.910
20659W        W84416  10.208  26.598  12.492
20660W        W84417  39.809  28.185  10.551
20661W        W84418  20.050  33.579  14.437
20662W        W84419  18.695  28.616  12.899
20663W        W84420  20.108   1.940   2.383
20664W        W84421   2.835  10.154   1.763
20665W        W84422  40.513  20.097  11.950
20666W        W84423   9.258  17.766   1.292
20667W        W84424   8.240  13.284   1.700
20668W        W84425  23.067  24.150   0.299
20669W        W84426  33.109  30.418   9.943
20670W        W84427  14.813   5.371   1.250
20671W        W84428  40.327  22.075   1.721
20672W        W84429  22.735   1.240   3.829
20673W        W84430   4.205  33.119   1.396
20674W        W84431  32.008   4.238   2.388
20675W        W84432  44.429  44.442   4.317
20676W        W84433  28.988  21.248   2.383
20677W        W84434   0.757  22.640  14.823
20678W        W84435  19.278  26.094   4.345
20679W        W84436  17.664  28.182   1.310
20680W        W84437  22.514   1.240   4.304
20681W        W84438  14.723   4.712  11.970
20682W        W84439  40.459  27.091   1.329
20683W        W84440  35.082  23.038   2.775
20684W        W84441  31.018  32.438  10.427
20685W        W84442  32.055  29.924   2.332
20686W        W84443  25.173  43.493   4.292
20687W        W84444  43.997   5.733   3.146
20688W        W84445   9.810  13.842   4.324
20689W        W84446  28.652  22.226   3.147
20690W        W84447  33.604  16.619   2.213
20691W        W84448  13.269   0.890  12.877
20692W        W84449  33.441  29.031   3.204
20693W        W84450  14.201  23.207  12.862
20694W        W84451   6.245  11.769  10.538
20695W        W84452  10.747  31.535  14.021
20696W        W84453  16.587  15.310   2.339
20697W        W84454  21.038  22.655   5.187
20698W        W84455  21.156  27.116  10.992
20699W        W84456  40.047  19.223   2.231
20700W        W84457   1.404  17.737  10.901
20701W        W84458  34.534  43.910   1.827
20702W        W84459  27.667  33.492   1.709
20703W        W84460  33.112  29.493  14.415
20704W        W84461  34.085   0.369  12.917
20705W        W84462  16.244  41.358  13.052
20706W        W84463  28.550  40.308   0.836
20707W        W84464  43.900  37.521  11.500
20708W        W84465  30.120  36.361  13.036
20709W        W84466  18.683  33.918   9.481
20710W        W84467  38.555   5.220   1.213
20711W        W84468   9.701  21.559   0.762
20712W        W84469  16.316  32.069   3.178
20713W        W84470  29.500  20.103   4.167
20714W        W84471   2.258  12.710  14.287
20715W        W84472  20.737  21.709   2.886
20716W        W84473  10.789  39.486   4.835
20717W        W84474  40.047   4.717   0.941
20718W        W84475  12.154  39.490  13.403
20719W        W84476   2.362  25.596   1.835
20720W        W84477   3.378  40.880   0.919
20721W        W84478  16.732   6.700  10.605
20722W        W84479  40.508  15.657   2.349
20723W        W84480  43.943   0.946  10.932
20724W        W84481  30.919  24.220   1.910
20725W        W84482  33.571  20.601  11.065
20726W        W84483   9.751  15.804   4.239
20727W        W84484  31.956  35.921   4.190
20728W        W84485  18.050  35.498   0.248
20729W        W84486  25.008  40.514   1.909
20730W        W84487   6.875  44.987   3.239
20731W        W84488  12.162   6.405   2.288
20732W        W84489  34.008   7.711  14.354
20733W        W84490  13.290   0.456  11.463
20734W        W84491  41.507   0.835   2.669
20735W        W84492   3.733   7.696  13.905
20736W        W84493  18.193  40.863   3.761
20737W        W84494  31.934  13.757   1.387
20738W        W84495  31.633  16.573  10.929
20739W        W84496  39.399   1.899  12.442
20740W        W84497  21.028  23.716   2.392
20741W        W84498  20.055   4.429  11.560
20742W        W84499   9.360   2.867   3.283
20743W        W84500  18.099  37.580   1.775
20744W        W84501  40.313  15.722  12.516
20745W        W84502  15.278  40.327  14.516
20746W        W84503  11.731  33.024   1.330
20747W        W84504  15.790  13.349   5.197
20748W        W84505  40.817  42.902   3.277
20749W        W84506   3.361  33.417  11.424
20750W        W84507  13.823   2.964  11.902
20751W        W84508   2.831  13.143   4.213
20752W        W84509   5.720  43.928   4.122
20753W        W84510  21.607   4.225   3.367
20754W        W84511  39.023  39.971  12.477
20755W        W84512  19.608  14.644  11.547
20756W        W84513   8.758   3.418  12.360
20757W        W84514  20.749  36.585  10.641
20758W        W84515  15.117   3.876   4.824
20759W        W84516   4.701  23.183   4.644
20760W        W84517  12.773   2.244   0.751
20761W        W84518  28.551  42.011   4.791
20762W        W84519  14.737  35.387  12.008
20763W        W84520   2.250  29.041   3.795
20764W        W84521  31.630  28.981   3.303
20765W        W84522  27.592  16.130   1.224
20766W        W84523  44.476  38.937  11.071
20767W        W84524   8.891  11.358  13.925
20768W        W84525   0.460   1.847  11.974
20769W        W84526   9.696  42.381  11.096
20770W        W84527   3.861   3.413   5.148
20771W        W84528  43.487  25.495  12.040
20772W        W84529  40.895  32.509   4.713
20773W        W84530  38.352  33.129  13.483
20774W        W84531  39.903  44.987  10.579
20775W        W84532  28.034  30.999  11.863
20776W        W84533  18.655  26.536   3.753
20777W        W84534   7.826  18.217   0.739
20778W        W84535  27.483  17.084   1.360
20779W        W84536  14.812  22.642  14.449
20780W        W84537   0.413  29.598   2.762
20781W        W84538  16.291   6.284   2.410
20782W        W84539  42.328  26.108  12.510
20783W        W84540  31.925  24.556  10.952
20784W        W84541  42.896  30.532  12.947
20785W        W84542  38.553  41.036  12.469
20786W        W84543  35.486  37.931  10.967
20787W        W84544  15.287  43.271   4.224
20788W        W84545  36.548  18.146  12.966
20789W        W84546   5.739  43.809  11.870
20790W        W84547  32.031  33.896  11.419
20791W        W84548   1.939  42.937   1.739
20792W        W84549   6.827  23.160  12.046
20793W        W84550  40.358  13.161  12.360
20794W        W84551  43.843  28.673  14.845
20795W        W84552   8.365  11.816   4.604
20796W        W84553  24.493  18.236  10.995
20797W        W84554  29.162  42.025  13.351
20798W        W84555   1.273  18.091   0.334
20799W        W84556  26.048  35.409  14.927
20800W        W84557  36.545   5.926  12.443
20801W        W84558  18.262  13.659   3.813
20802W        W84559  34.041   3.263   3.280
20803W        W84560  19.116  15.218   1.332
20804W        W84561  22.687  20.584  11.052
20805W        W84562   4.808  18.268  11.965
20806W        W84563  10.152   1.854  11.497
20807W        W84564  30.414  29.565  11.967
20808W        W84565  17.792   1.747  14.297
20809W        W84566  27.972  26.518  11.991
20810W        W84567  23.557  44.947   1.879
20811W        W84568  18.590  23.014  14.448
20812W        W84569  30.993  36.365  13.833
20813W        W84570  27.144  14.228  13.055
20814W        W84571  28.630  10.210  14.306
20815W        W84572  44.455  32.143   1.332
20816W        W84573  39.932   4.380  14.792
20817W        W84574  10.779  21.256  10.917
20818W        W84575   3.862  28.474   4.803
20819W        W84576   3.846   2.966  11.995
20820W        W84577  36.581   3.805  11.546
20821W        W84578  36.935  36.981  13.984
20822W        W84579  23.010  39.553  13.963
20823W        W84580  16.570  39.545  11.924
20824W        W84581  34.403  19.272   4.741
20825W        W84582  44.267  35.509   2.746
20826W        W84583  30.141  27.981  13.492
20827W        W84584  16.767  28.010  14.812
20828W        W84585   1.819  27.019  13.342
20829W        W84586  39.405  44.436   0.870
20830W        W84587   9.226  12.615  10.615
20831W        W84588  24.612  24.521   4.610
20832W        W84589  42.928  27.081  13.026
20833W        W84590  15.582  29.048  11.554
20834W        W84591   8.806  25.571   1.884
20835W        W84592   6.850  23.081   2.366
20836W        W84593  28.577   9.346  14.460
20837W        W84594  39.990  18.778  11.965
20838W        W84595  36.472  18.553  14.810
20839W        W84596  40.522   7.398  13.386
20840W        W84597   4.447  25.196  11.013
20841W        W84598   2.319  35.041   1.821
20842W        W84599   3.717  29.957  14.363
20843W        W84600  30.062   0.856   4.282
20844W        W84601  34.971   9.652  14.837
20845W        W84602  43.350  30.614  13.398
20846W        W84603  21.637  10.755   0.733
20847W        W84604  11.701  39.831  14.431
20848W        W84605  34.484  19.625  11.013
20849W        W84606  21.590  25.144   2.843
20850W        W84607  22.080   6.283  14.431
20851W        W84608  37.458  35.873  12.844
20852W        W84609   9.749  34.054   0.960
20853W        W84610   4.854  10.657  13.491
20854W        W84611  36.459  32.427  10.537
20855W        W84612  25.512  21.130   4.331
20856W        W84613  12.787   8.881  12.042
20857W        W84614  11.813   8.659  12.005
20858W        W84615  29.096   2.366   4.215
20859W        W84616  16.720  26.627   2.845
20860W        W84617  25.603  36.356  13.505
20861W        W84618  13.611  16.758  14.481
20862W        W84619   4.795  38.351   4.775
20863W        W84620  30.504   2.470  13.040
20864W        W84621  37.958  20.539   2.865
20865W        W84622  32.421   4.743  13.877
20866W        W84623  29.665  27.007   2.718
20867W        W84624  37.556  18.171  13.843
20868W        W84625  39.957   9.366  14.452
20869W        W84626  24.068   6.916  12.422
20870W        W84627  15.152  35.406   2.811
20871W        W84628  27.607  10.227   4.209
20872W        W84629  17.253  38.874   9.929
20873W        W84630  20.659  29.663   4.733
20874W        W84631  35.929  26.521  10.085
20875W        W84632  18.705   8.767  14.966
20876W        W84633  18.214  10.863  11.558
20877W        W84634  21.131  15.130  10.530
20878W        W84635  27.660  14.598   1.882
20879W        W84636  30.585   4.779  12.407
20880W        W84637  16.754   1.329  10.570
20881W        W84638  20.144  34.944   2.402
20882W        W84639  12.221   3.267  14.959
20883W        W84640  30.038   1.936   3.751
20884W        W84641  38.962  39.370  13.054
20885W        W84642  35.103   6.262   0.855
20886W        W84643  22.650  10.726   1.711
20887W        W84644  19.718  42.468  12.561
20888W        W84645   9.759  14.200   5.271
20889W        W84646   3.804   3.923  10.915
20890W        W84647  15.101  43.346  12.096
20891W        W84648   3.765   2.919   2.775
20892W        W84649   5.860  13.721   2.317
20893W        W84650  41.042  21.603   2.818
20894W        W84651  14.135  15.210   2.227
20895W        W84652  10.266  34.374   4.149
20896W        W84653  43.506   0.443   0.789
20897W        W84654   4.852  28.100  14.802
20898W        W84655  41.297  30.615  12.089
20899W        W84656  20.210  25.066   4.797
20900W        W84657  30.980  27.612   4.296
20901W        W84658  38.446  26.044  12.404
20902W        W84659  11.653   8.823  14.997
20903W        W84660  35.419  35.074  11.566
20904W        W84661   1.476  31.609   3.686
20905W        W84662   8.774  37.832  11.406
20906W        W84663   9.252  35.544   3.676
20907W        W84664   4.301   6.275   4.650
20908W        W84665  14.765  27.593   0.280
20909W        W84666  10.837  12.848  14.513
20910W        W84667  26.006  42.876  11.957
20911W        W84668  34.952  32.125   0.297
20912W        W84669  42.947  16.281  14.485
20913W        W84670  38.492   9.295  14.816
20914W        W84671  22.654  10.321  12.010
20915W        W84672  26.207  43.392   3.724
20916W        W84673   0.441  10.720  12.442
20917W        W84674  14.111  24.487  11.007
20918W        W84675   1.876  19.177   2.258
20919W        W84676  41.496  40.341  11.934
20920W        W84677  25.628  19.061   2.263
20921W        W84678  23.497   2.842   4.316
20922W        W84679  44.832  14.812   0.321
20923W        W84680   5.405  22.009  11.112
20924W        W84681  17.748   9.247   0.353
20925W        W84682  22.682  37.511  13.829
20926W        W84683  39.912  33.491   0.347
20927W        W84684   5.720   3.764  13.034
20928W        W84685  16.107  21.033   0.855
20929W        W84686  21.150  16.095  14.503
20930W        W84687  17.248   2.305  14.903
20931W        W84688  27.182  20.742  12.497
20932W        W84689  38.535   3.252  14.430
20933W        W84690   5.728  17.727   9.565
20934W        W84691   6.751  39.898   2.264
20935W        W84692  24.142  20.563  12.464
20936W        W84693  41.894  11.308   3.738
20937W        W84694  30.655   6.873   2.271
20938W        W84695  23.087  18.175  11.569
20939W        W84696  18.550  40.446   3.319
20940W        W84697  28.958   4.424  13.348
20941W        W84698  19.736  23.992  13.473
20942W        W84699  23.199   3.384  11.072
20943W        W84700  41.852  31.514   1.236
20944W        W84701  28.638   6.852  10.425
20945W        W84702  26.621   3.897  11.600
20946W        W84703  20.126  38.851   0.266
20947W        W84704   1.928  37.045   2.239
20948W        W84705  30.616  17.242   4.773
20949W        W84706  36.949  40.338   0.449
20950W        W84707  23.033  30.160   0.327
20951W        W84708  25.476  28.636  11.449
20952W        W84709  24.636  31.086  12.403
20953W        W84710  16.108  29.529  14.356
20954W        W84711  40.394  42.292  12.038
20955W        W84712  21.230  20.729  14.950
20956W        W84713  17.671  37.424   1.770
20957W        W84714  13.243  22.614  13.882
20958W        W84715  20.603  34.599   1.703
20959W        W84716  10.810  13.332   4.183
20960W        W84717  41.330  19.243   4.636
20961W        W84718  38.863  17.215  13.435
20962W        W84719  31.970  14.771  14.789
20963W        W84720  34.972  40.451  14.901
20964W        W84721  15.734  30.444   4.722
20965W        W84722  27.031  35.552   4.618
20966W        W84723  18.218  32.030   3.228
20967W        W84724  34.063   3.850   2.700
20968W        W84725   3.937  25.112   3.684
20969W        W84726  31.460  42.975   4.815
20970W        W84727  27.477  10.765  14.500
20971W        W84728  19.752   6.336   3.305
20972W        W84729  35.951  26.107  12.458
20973W        W84730  41.371  10.354   3.316
20974W        W84731  13.620  20.660   4.153
20975W        W84732   0.871  28.484  14.404
20976W        W84733  30.103  25.685  12.453
20977W        W84734  38.504  34.083  12.981
20978W        W84735   0.444   1.931   2.187
20979W        W84736  25.119  32.574   0.921
20980W        W84737  42.970  40.996   3.360
20981W        W84738  19.762  26.537   4.319
20982W        W84739  30.659  14.672   0.735
20983W        W84740  16.301  17.073   4.696
20984W        W84741  13.255  15.305   0.360
20985W        W84742  38.894   3.880   4.313
20986W        W84743  12.652   5.762  10.422
20987W        W84744  41.818  43.412   0.773
20988W        W84745  14.130  15.776   1.933
20989W        W84746  17.168  42.305  13.495
20990W        W84747  21.259  39.436   0.445
20991W        W84748  34.457  28.681   1.295
20992W        W84749  10.835  40.401  12.398
20993W        W84750   0.354  15.637  11.112
20994W        W84751   1.479  25.613  13.497
20995W        W84752  13.187  21.619   0.415
20996W        W84753   4.319  41.449  11.877
20997W        W84754  37.054  22.667  11.521
20998W        W84755   1.741  23.564   0.908
20999W        W84756   2.281   4.870  12.462
21000W        W84757  41.023  27.540  12.972
21001W        W84758  11.354  43.507  14.434
21002W        W84759  16.248  38.841   1.745
21003W        W84760  17.707  18.088   1.347
21004W        W84761  17.064  39.884   1.272
21005W        W84762   2.755  42.862  11.054
21006W        W84763  22.237   2.788  13.995
21007W        W84764  32.035  33.955  14.451
21008W        W84765   8.203  10.666   2.685
21009W        W84766  36.091   5.818  14.498
21010W        W84767   1.864  29.566  12.016
21011W        W84768  40.312  17.108  13.513
21012W        W84769  38.473   8.887  13.359
21013W        W84770  41.908   5.758  10.500
21014W        W84771   8.747  15.659  11.942
21015W        W84772  22.576  34.490  14.803
21016W        W84773  24.194  39.317  13.034
21017W        W84774  29.571  14.599  11.470
21018W        W84775   1.246   1.367  12.477
21019W        W84776   5.313  12.765  12.578
21020W        W84777  43.932  36.057   1.262
21021W        W84778  12.227  21.529  11.951
21022W        W84779  19.614  33.529   3.673
21023W        W84780  34.966  11.626  14.987
21024W        W84781  20.603  14.778  12.569
21025W        W84782  22.067  44.885  10.959
21026W        W84783  40.904  33.418   2.351
21027W        W84784   1.362  22.245   1.281
21028W        W84785   7.359  29.490  13.412
21029W        W84786  33.943   3.802   5.593
21030W        W84787   2.775   4.792   4.345
21031W        W84788  42.511  27.179   0.748
21032W        W84789   7.711  12.628  10.540
21033W        W84790  44.393  40.992  10.410
21034W        W84791   7.676   4.422   0.894
21035W        W84792  35.019  30.607   0.756
21036W        W84793  24.506   4.396  13.386
21037W        W84794  24.038  32.583   2.218
21038W        W84795  31.052  23.083   0.832
21039W        W84796  38.473  44.959  11.443
21040W        W84797   1.401   6.291  11.033
21041W        W84798   8.198  15.286  10.520
21042W        W84799  22.676  41.870  14.499
21043W        W84800   0.803  40.854   3.151
21044W        W84801   0.424  14.740   3.350
21045W        W84802  39.520  23.013   1.404
21046W        W84803  12.834  39.458  13.986
21047W        W84804   8.210  16.233   1.213
21048W        W84805  22.047  12.804  10.425
21049W        W84806   8.702   8.727  10.535
21050W        W84807  28.680   9.256  13.872
21051W        W84808  42.513  12.797   4.633
21052W        W84809  43.420  25.995  13.415
21053W        W84810  36.946   4.409   1.903
21054W        W84811  34.535   3.919  13.975
21055W        W84812  15.086   1.873   1.348
21056W        W84813  31.131  37.024   0.268
21057W        W84814  37.922  40.798  14.840
21058W        W84815  33.450  11.306  11.055
21059W        W84816  12.658  34.939  12.515
21060W        W84817   9.262  18.574  12.531
21061W        W84818   3.775  38.505   1.894
21062W        W84819  18.130   4.276   1.404
21063W        W84820  24.564   5.340  14.313
21064W        W84821  40.906  13.701   0.879
21065W        W84822  44.279  26.132  10.566
21066W        W84823  32.421  21.569  11.986
21067W        W84824   4.296  15.223  11.003
21068W        W84825  26.963  38.949   2.794
21069W        W84826  39.428  41.912   0.254
21070W        W84827   0.750   8.349   4.176
21071W        W84828  14.592  36.438  11.039
21072W        W84829  43.271  23.697  10.540
21073W        W84830  36.521  14.770  12.990
21074W        W84831   7.231  27.106  11.106
21075W        W84832  18.216  41.844   2.744
21076W        W84833  38.028  31.402   1.870
21077W        W84834   9.757  10.336  12.529
21078W        W84835  34.613   9.185  13.855
21079W        W84836  10.272   9.155   1.354
21080W        W84837  39.977  20.145  12.470
21081W        W84838  38.956   4.359   0.817
21082W        W84839  44.880  23.202   0.373
21083W        W84840  30.082  36.510  12.035
21084W        W84841  18.696   7.734  14.393
21085W        W84842  33.458  31.586  12.986
21086W        W84843  37.351  19.102   0.764
21087W        W84844  23.234   0.986  13.307
21088W        W84845  16.222  13.814   0.348
21089W        W84846  34.016  25.704   0.858
21090W        W84847  21.636   3.264   3.284
21091W        W84848  37.459  26.546   0.467
21092W        W84849   4.922  24.981   3.655
21093W        W84850  31.443  21.613   2.720
21094W        W84851  17.677  24.606  11.488
21095W        W84852  39.446   5.380  12.470
21096W        W84853  42.487  43.767   3.380
21097W        W84854  36.982   1.955   5.660
21098W        W84855   6.404  27.540  12.074
21099W        W84856  18.701   7.860  13.510
21100W        W84857  33.119   0.358   4.605
21101W        W84858  22.218   9.181  12.916
21102W        W84859  33.483   3.952   5.655
21103W        W84860   3.731  43.361   2.820
21104W        W84861   5.368  31.615   2.237
21105W        W84862  14.122   6.406  14.404
21106W        W84863  40.317  29.017  12.447
21107W        W84864  32.529  17.118  14.802
21108W        W84865  37.348   9.871   2.389
21109W        W84866  18.109  27.055   3.802
21110W        W84867  25.110  41.962  14.877
21111W        W84868  24.529  40.491  13.851
21112W        W84869  44.918  26.496   4.212
21113W        W84870  10.863  42.491  13.484
21114W        W84871  25.019   7.696   0.962
21115W        W84872  28.931  17.687  14.466
21116W        W84873  29.475  24.115  12.849
21117W        W84874  13.251  34.569  11.908
21118W        W84875   2.454  30.040   2.869
21119W        W84876  42.862  19.545   4.805
21120W        W84877  28.583  42.429   1.419
21121W        W84878   9.689  25.666  14.926
21122W        W84879  21.195  41.389   3.227
21123W        W84880   1.382  28.970   3.672
21124W        W84881  34.081  27.152  12.375
21125W        W84882  34.409  29.458  14.472
21126W        W84883  22.556  24.509   2.775
21127W        W84884  40.885  37.008  12.899
21128W        W84885  30.632  13.275  13.402
21129W        W84886   7.275   8.736  10.528
21130W        W84887  23.155  38.946  11.505
21131W        W84888   5.934   1.963  11.397
21132W        W84889  26.600  20.170   3.688
21133W        W84890  19.583  35.014  11.996
21134W        W84891  24.070   7.323   4.769
21135W        W84892  43.493   7.217  11.916
21136W        W84893   0.887  21.212   4.617
21137W        W84894  33.545  26.205   5.140
21138W        W84895  34.586  23.704  12.497
21139W        W84896  28.600  43.477   0.450
21140W        W84897   6.888  29.075  11.018
21141W        W84898  11.179  35.525   1.845
21142W        W84899  13.774  32.400   1.819
21143W        W84900  11.844  22.513  13.829
21144W        W84901  24.565  17.639   3.685
21145W        W84902   9.792  26.035  11.578
21146W        W84903  29.043  15.126  12.459
21147W        W84904   5.433  23.159  14.373
21148W        W84905  39.313  10.865  14.356
21149W        W84906  44.932   8.316   2.779
21150W        W84907  24.656  32.578   1.337
21151W        W84908  21.626   4.450  11.927
21152W        W84909  39.953  41.956  11.878
21153W        W84910   3.805   2.319  14.384
21154W        W84911  15.630  21.064   1.858
21155W        W84912  26.634  10.355  11.102
21156W        W84913  14.247  14.258   3.833
21157W        W84914  25.161  37.876  14.875
21158W        W84915  23.152  20.146   2.761
21159W        W84916   9.233  14.117   4.777
21160W        W84917  40.390   6.735  12.961
21161W        W84918  20.618  11.646   4.244
21162W        W84919   9.208  24.034  12.576
21163W        W84920  23.156   1.241  14.392
21164W        W84921  16.267   3.884  11.061
21165W        W84922  15.817  36.447   4.599
21166W        W84923  31.915   3.816   1.221
21167W        W84924  12.763   4.923  12.092
21168W        W84925   7.836  26.062   2.812
21169W        W84926  40.399   0.973   3.849
21170W        W84927   1.383  25.585   4.655
21171W        W84928  16.663  12.219  12.492
21172W        W84929  27.055  20.163   0.954
21173W        W84930  34.048   7.666  10.905
21174W        W84931   5.350   1.412  11.126
21175W        W84932  30.012  11.225   1.269
21176W        W84933  10.202  11.225   2.824
21177W        W84934  22.557  34.905   1.931
21178W        W84935  30.498  44.831  12.370
21179W        W84936  19.554  32.035   2.679
21180W        W84937  33.097  38.361   3.716
21181W        W84938  27.975  20.246  10.945
21182W        W84939  38.058  25.196   1.240
21183W        W84940  23.139  33.878   3.351
21184W        W84941  21.703  32.455   5.170
21185W        W84942  36.418   5.426   1.726
21186W        W84943  11.276  24.053   0.920
21187W        W84944  16.622  37.579   1.448
21188W        W84945  38.846  15.583  11.418
21189W        W84946  42.357   5.372   0.243
21190W        W84947  26.654  26.617   1.809
21191W        W84948  36.917  31.555   1.802
21192W        W84949  40.388  38.868   9.957
21193W        W84950  23.990   4.835  11.105
21194W        W84951   5.313  15.098  13.801
21195W        W84952  33.478  38.918  14.352
21196W        W84953  36.427  40.430  13.968
21197W        W84954  35.417  38.539   2.301
21198W        W84955  27.526  15.695   3.217
21199W        W84956  42.356  29.971  14.930
21200W        W84957  23.675  41.424   2.796
21201W        W84958  37.461   3.318   3.662
21202W        W84959  36.092   8.304  11.461
21203W        W84960  38.860  14.653   3.318
21204W        W84961  33.433  23.526   4.606
21205W        W84962  29.042  38.940  13.998
21206W        W84963  17.683  37.971  11.444
21207W        W84964  11.314  43.330   0.923
21208W        W84965  17.655   6.287  14.394
21209W        W84966   1.831  38.049   3.691
21210W        W84967  38.443  44.302   4.609
21211W        W84968   5.208  37.560  11.045
21212W        W84969  17.558  33.572   3.202
21213W        W84970  41.452   6.882   0.410
21214W        W84971  16.140  36.985   1.855
21215W        W84972  17.076   9.833  14.011
21216W        W84973  23.592  28.065  14.339
21217W        W84974  12.127  22.121  11.882
21218W        W84975  35.590   1.736  11.992
21219W        W84976  44.369  39.016  14.360
21220W        W84977  36.053  24.181   1.857
21221W        W84978  18.609  40.452  13.367
21222W        W84979  19.258  29.586  14.938
21223W        W84980  41.459  15.755  12.996
21224W        W84981   0.348  27.950  13.801
21225W        W84982  40.497  24.629  11.075
21226W        W84983  40.467  21.215   2.881
21227W        W84984  35.970  44.316  12.940
21228W        W84985  36.408   8.818   0.905
21229W        W84986  15.326   7.687  10.410
21230W        W84987   4.278  18.573  14.014
21231W        W84988   5.396   2.264   4.270
21232W        W84989  34.411  11.671   0.763
21233W        W84990  42.497  13.200  13.812
21234W        W84991   6.408  30.139  13.387
21235W        W84992  35.893  38.457   3.296
21236W        W84993  42.324  20.675   4.652
21237W        W84994  26.621  40.533   3.710
21238W        W84995  22.520  44.762   2.186
21239W        W84996  39.521   1.911  14.759
21240W        W84997  37.047  21.727  13.532
21241W        W84998   7.221  26.609  14.981
21242W        W84999  44.468  31.494  11.971
21243W        W85000  22.668  23.140   3.384
21244W        W85001  20.718  42.857  10.497
21245W        W85002  40.395  19.735   1.820
21246W        W85003  16.072  16.227  11.062
21247W        W85004  18.573   8.666   3.661
21248W        W85005  35.010   4.250   1.214
21249W        W85006  33.443   3.439   9.966
21250W        W85007  20.636   1.341  12.513
21251W        W85008   9.656  43.498  10.896
21252W        W85009  17.289  25.480   2.727
21253W        W85010  43.300  34.086  12.972
21254W        W85011   6.297  22.533   4.320
21255W        W85012  14.629  22.534   1.721
21256W        W85013  10.342  25.208   3.203
21257W        W85014   0.865  18.710  10.455
21258W        W85015   2.782  28.046  13.907
21259W        W85016  34.883   4.341  11.869
21260W        W85017   8.688  10.233   4.221
21261W        W85018   3.374  18.198  11.540
21262W        W85019  36.916  38.043  10.908
21263W        W85020  40.450   4.409  11.076
21264W        W85021   8.799   7.344  11.898
21265W        W85022   1.465  21.733  13.874
21266W        W85023  31.446  28.641   4.643
21267W        W85024   7.678  30.026   2.768
21268W        W85025   5.762   6.836   3.370
21269W        W85026  16.237  34.448  12.450
21270W        W85027  11.635  28.613  12.022
21271W        W85028   6.719  21.717   4.223
21272W        W85029   3.381  21.068  13.985
21273W        W85030   3.257  38.926  14.413
21274W        W85031  30.069  11.659   2.843
21275W        W85032  36.953  12.187  14.902
21276W        W85033  15.179  18.766  11.576
21277W        W85034  33.447  36.517  13.969
21278W        W85035   1.308  10.189   4.155
21279W        W85036  15.203  14.157   3.645
21280W        W85037   7.708  15.694  13.437
21281W        W85038  21.147   1.429  10.609
21282W        W85039  27.519  42.898   1.799
21283W        W85040  32.507   6.196   0.904
21284W        W85041  11.292   8.761   2.849
21285W        W85042  37.084  21.552   2.764
21286W        W85043   6.807   1.820  11.942
21287W        W85044  42.778  17.699  14.981
21288W        W85045  26.515  30.648  12.044
21289W        W85046  31.906  21.096  13.441
21290W        W85047   2.879   3.835   3.761
21291W        W85048   1.791  10.708  10.629
21292W        W85049  25.604  15.624  12.085
21293W        W85050  13.700  18.707   4.691
21294W        W85051  34.370  38.913  13.383
21295W        W85052   1.736  22.102  12.518
21296W        W85053  33.097   4.854   5.223
21297W        W85054  36.418  29.014   0.831
21298W        W85055  10.714  16.623   1.276
21299W        W85056  13.214   2.299   5.111
21300W        W85057  29.948  27.964   0.321
21301W        W85058   7.693   6.868  11.460
21302W        W85059   2.747   5.305  12.934
21303W        W85060   2.409  38.439   1.394
21304W        W85061  32.593  12.815  11.556
21305W        W85062  27.682  20.191  11.012
21306W        W85063  36.899   7.227  14.304
21307W        W85064  22.600  35.094   2.222
21308W        W85065  14.143   2.417  10.157
21309W        W85066  30.016   1.248   3.366
21310W        W85067  28.979  19.706   3.218
21311W        W85068  14.294  43.436   4.316
21312W        W85069  17.700  12.350   2.191
21313W        W85070   2.342  44.892  11.019
21314W        W85071  32.473  35.943   3.728
21315W        W85072   5.213  31.612  14.771
21316W        W85073   2.463  40.549  10.088
21317W        W85074   0.428  44.909   3.331
21318W        W85075   3.455  28.535   4.185
21319W        W85076  44.754  39.850  13.345
21320W        W85077  24.052  32.892  14.942
21321W        W85078  10.334  23.101   2.727
21322W        W85079  26.077  25.148   4.803
21323W        W85080  15.237  39.955   1.784
21324W        W85081  34.992  11.259  10.404
21325W        W85082  15.234  14.687   2.677
21326W        W85083  31.037  43.921   1.300
21327W        W85084  13.166  24.529  11.857
21328W        W85085  43.515  34.480  14.277
21329W        W85086   7.873  13.713  12.053
21330W        W85087   8.207  29.547  14.978
21331W        W85088  31.537  33.985  10.577
21332W        W85089   8.783   8.795  11.078
21333W        W85090  18.255  30.011  14.516
21334W        W85091   9.661   2.918  10.596
21335W        W85092  18.122  16.201  10.046
21336W        W85093  34.008  31.932  13.529
21337W        W85094  25.483  32.084  10.405
21338W        W85095  43.444  27.176  10.613
21339W        W85096  22.593  30.132   4.208
21340W        W85097  35.535  30.020  11.522
21341W        W85098  14.665  35.375   4.747
21342W        W85099  22.719  40.856  10.482
21343W        W85100  38.910   2.317   2.329
21344W        W85101   3.904   5.766   4.125
21345W        W85102  16.682  24.180  13.010
21346W        W85103  32.416   9.348  11.056
21347W        W85104  21.629  35.974   1.732
21348W        W85105   0.476   0.889  10.943
21349W        W85106  21.661  20.712  13.884
21350W        W85107  44.381  11.789   0.391
21351W        W85108  33.071   9.839   2.783
21352W        W85109  11.311   3.407   3.666
21353W        W85110  17.092  34.093  10.085
21354W        W85111  23.100   9.776  14.355
21355W        W85112  25.706  27.977  11.916
21356W        W85113  35.095  10.877  11.598
21357W        W85114  37.459   2.381  11.595
21358W        W85115  43.297  31.116  13.859
21359W        W85116  11.269  41.469  13.946
21360W        W85117   6.774  35.406  11.414
21361W        W85118   1.264  17.706   2.395
21362W        W85119  37.080   7.211  12.013
21363W        W85120  20.674   8.831  13.310
21364W        W85121  38.887   0.811   3.775
21365W        W85122  33.943   4.424  14.792
21366W        W85123  37.416  17.079   4.313
21367W        W85124  13.816  27.552  11.415
21368W        W85125  32.604  37.872   3.743
21369W        W85126  13.203  18.554   0.306
21370W        W85127  23.510  30.620   3.817
21371W        W85128   7.205   3.764  12.573
21372W        W85129  44.819  31.950   4.818
21373W        W85130  23.597  44.454   3.746
21374W        W85131  27.525  13.681   4.195
21375W        W85132  39.423   4.907   3.272
21376W        W85133  30.643  36.077  13.838
21377W        W85134  28.003  22.551   0.277
21378W        W85135  26.046  36.416   3.653
21379W        W85136  18.142  14.726  14.470
21380W        W85137  17.794  41.029  14.887
21381W        W85138  28.066  39.992  14.885
21382W        W85139  33.381  28.929   0.339
21383W        W85140   8.298  25.645   1.864
21384W        W85141  44.802  21.111   2.668
21385W        W85142  27.072  32.394   3.703
21386W        W85143  33.036  38.466  14.862
21387W        W85144  18.627  17.682   4.615
21388W        W85145  27.150  29.580  12.093
21389W        W85146  23.111  41.933   4.219
21390W        W85147  20.674  13.651  12.000
21391W        W85148  43.433  18.586  12.061
21392W        W85149   5.411  28.524  14.854
21393W        W85150  13.250  17.135  11.558
21394W        W85151  42.937   6.766  13.843
21395W        W85152  36.078   0.867   1.917
21396W        W85153  37.008  21.590   1.237
21397W        W85154   5.902   7.284   1.748
21398W        W85155  15.741   8.321  12.500
21399W        W85156  37.923   5.241   2.733
21400W        W85157  16.160  37.478   0.803
21401W        W85158  11.701  17.065  13.315
21402W        W85159  15.803   6.183   2.679
21403W        W85160   6.709  26.073  10.504
21404W        W85161   0.258  15.121   4.272
21405W        W85162  15.297  16.316   2.809
21406W        W85163  10.772  14.682  14.975
21407W        W85164  13.782  11.812   1.852
21408W        W85165  41.806   7.205  11.566
21409W        W85166   3.334  26.497  11.517
21410W        W85167  16.310  43.871   2.731
21411W        W85168  26.005  44.351   3.687
21412W        W85169  44.266  16.246  12.887
21413W        W85170  38.465  32.091  10.638
21414W        W85171  20.638  32.459  14.318
21415W        W85172  10.656  42.355  14.853
21416W        W85173  31.945  44.841  13.461
21417W        W85174  25.642  35.359  12.060
21418W        W85175   9.287  38.353   1.421
21419W        W85176  40.920  29.155  14.472
21420W        W85177  28.969  12.780  10.462
21421W        W85178  31.103  42.816  11.871
21422W        W85179   5.196   1.339  14.982
21423W        W85180  30.921  39.857   1.843
21424W        W85181  27.652  35.439   0.414
21425W        W85182  28.143  30.032  14.308
21426W        W85183  22.643  24.050   2.812
21427W        W85184  10.314   7.684  11.496
21428W        W85185  37.957  14.337  14.796
21429W        W85186  31.045   1.784  12.000
21430W        W85187  20.078  43.394  10.636
21431W        W85188  10.863  12.678  10.911
21432W        W85189  17.587  28.115  10.471
21433W        W85190   4.904  21.115  10.473
21434W        W85191  21.134  39.004  10.488
21435W        W85192  32.495  13.147   1.702
21436W        W85193   3.356  17.255  12.944
21437W        W85194  41.503  29.535   3.774
21438W        W85195  11.207  11.744  13.057
21439W        W85196  11.146  28.458   3.361
21440W        W85197  11.277   4.926  11.914
21441W        W85198  11.153   3.362   4.602
21442W        W85199   4.370   5.353   1.215
21443W        W85200  44.429  15.270  14.811
21444W        W85201  21.049  13.844   0.461
21445W        W85202   4.783  42.973  11.421
21446W        W85203   7.362  23.624   3.813
21447W        W85204  13.260  31.567  12.382
21448W        W85205   5.692   9.669   0.285
21449W        W85206   2.306  25.045  13.376
21450W        W85207  17.115  33.458   0.890
21451W        W85208   2.915  14.812  10.458
21452W        W85209  13.804   5.920   1.289
21453W        W85210  16.620  20.649  14.940
21454W        W85211  11.713  15.596  14.492
21455W        W85212   5.716  37.877   4.208
21456W        W85213  18.699  36.568  11.468
21457W        W85214  28.991  10.384  11.591
21458W        W85215   3.348  40.050   0.797
21459W        W85216  31.076   6.782   3.679
21460W        W85217  23.220   7.822   3.161
21461W        W85218  30.926  38.864  11.540
21462W        W85219  22.183   1.394   3.759
21463W        W85220  28.955  34.869  10.444
21464W        W85221  28.168  11.846   3.708
21465W        W85222   1.476  44.834  12.018
21466W        W85223  42.947  42.397  12.485
21467W        W85224   6.712   1.914  12.365
21468W        W85225  14.235  13.312  13.356
21469W        W85226  14.194   3.304  12.446
21470W        W85227  13.234  31.525   4.273
21471W        W85228  40.405  31.137  12.855
21472W        W85229  25.188  22.726  13.845
21473W        W85230  13.756  14.127  11.606
21474W        W85231  10.261   7.187   4.203
21475W        W85232  44.395  41.826  10.559
21476W        W85233  38.038  17.594  13.312
21477W        W85234  10.384  23.536  11.569
21478W        W85235  44.922  38.937   1.880
21479W        W85236  31.452  14.756   2.801
21480W        W85237   6.428  10.850   1.364
21481W        W85238  17.787   8.338  10.950
21482W        W85239  30.131   8.331  12.422
21483W        W85240  34.399   5.255  11.031
21484W        W85241   0.355   9.202  12.471
21485W        W85242   1.358  21.616  10.405
21486W        W85243  25.194  33.497  10.535
21487W        W85244  39.558  29.539  10.510
21488W        W85245  32.576  32.397  12.978
21489W        W85246   5.745  14.100   2.733
21490W        W85247   6.376  42.996   9.467
21491W        W85248  28.552  15.724  13.508
21492W        W85249   8.372  21.062   3.828
21493W        W85250  37.352   3.804   0.761
21494W        W85251  35.985  24.995  14.296
21495W        W85252  38.952  24.155  11.869
21496W        W85253  26.988   9.815  12.845
21497W        W85254  36.896  43.850   4.218
21498W        W85255  43.488   4.878  12.041
21499W        W85256  18.071  18.722   4.675
21500W        W85257  41.969  28.167  14.375
21501W        W85258  11.807   8.869   2.395
21502W        W85259  26.488  16.072  10.080
21503W        W85260  16.290  35.935  10.434
21504W        W85261   3.341  12.777   0.455
21505W        W85262  43.376  27.681   2.269
21506W        W85263  44.325  44.491   3.630
21507W        W85264   4.451  33.896   4.281
21508W        W85265   4.802  11.371   1.905
21509W        W85266  35.051   0.894  11.053
21510W        W85267  34.520  22.522   1.312
21511W        W85268  23.065  42.482  13.479
21512W        W85269  12.662  35.005   1.355
21513W        W85270   6.283   0.373   1.821
21514W        W85271  21.243  25.007   4.331
21515W        W85272  33.909  37.877  14.493
21516W        W85273  18.081  44.489  14.979
21517W        W85274  31.127  18.638  10.629
21518W        W85275  42.507   9.661   2.774
21519W        W85276   1.450  29.467  12.515
21520W        W85277  41.470  10.163   2.670
21521W        W85278  32.426  28.648   9.547
21522W        W85279  34.495  43.472   1.740
21523W        W85280  40.307  37.022  11.970
21524W        W85281  34.949  29.560   0.432
21525W        W85282  38.937   9.240  11.917
21526W        W85283  33.998  37.893  14.923
21527W        W85284  14.645  13.162  11.923
21528W        W85285   7.773   7.265  13.501
21529W        W85286  15.795  40.364   1.845
21530W        W85287  26.625  24.686   5.603
21531W        W85288   1.393  23.668   3.320
21532W        W85289  43.273  12.132  12.869
21533W        W85290   7.786  17.123   0.432
21534W        W85291  40.524   4.802   3.707
21535W        W85292  16.792  14.158   2.664
21536W        W85293  41.927  39.894  11.036
21537W        W85294   2.440  34.403  11.480
21538W        W85295   9.871  10.169   1.405
21539W        W85296  42.471  17.068   4.799
21540W        W85297  27.980   3.924   4.264
21541W        W85298  15.794  16.303   9.585
21542W        W85299  12.123  40.950  12.982
21543W        W85300  30.619  29.956  10.508
21544W        W85301  21.029  31.492  13.469
21545W        W85302  16.808  17.127  12.502
21546W        W85303  22.081  11.765   1.841
21547W        W85304  11.677  26.136   3.722
21548W        W85305  23.200  30.956  12.382
21549W        W85306  29.985   0.762   4.740
21550W        W85307  33.061  44.469   2.680
21551W        W85308   5.898  30.032  13.010
21552W        W85309  27.070  16.694   0.739
21553W        W85310  37.368  26.079   2.663
21554W        W85311  39.985   2.254  14.382
21555W        W85312  38.839  26.983   0.908
21556W        W85313  43.338  17.703   2.217
21557W        W85314   4.883  16.796  11.382
21558W        W85315  37.066  31.132  13.842
21559W        W85316  32.530  12.810   0.917
21560W        W85317  43.883  43.824  14.405
21561W        W85318  42.818  41.803   2.378
21562W        W85319  22.564   2.419   0.281
21563W        W85320  42.950   1.950  11.879
21564W        W85321  12.278  30.093   4.206
21565W        W85322  14.269  34.543   3.302
21566W        W85323  35.041   6.912  10.549
21567W        W85324  36.373  35.429   1.816
21568W        W85325  23.192  21.173   4.141
21569W        W85326  43.287   9.345  10.467
21570W        W85327  26.458  25.004   3.278
21571W        W85328   2.313  11.804  11.104
21572W        W85329  14.826  30.452  10.052
21573W        W85330  44.370  33.458  14.482
21574W        W85331  44.309  29.501  13.054
21575W        W85332  16.201  21.054   3.663
21576W        W85333  43.787   4.796   4.121
21577W        W85334  28.986  23.999   1.320
21578W        W85335  41.454  28.157   4.153
21579W        W85336  29.174   2.452   2.357
21580W        W85337  12.700  37.997   4.711
21581W        W85338  32.507   2.254  11.860
21582W        W85339  24.548  39.542  11.514
21583W        W85340  39.877   9.647  14.808
21584W        W85341  42.031  41.821  14.993
21585W        W85342   1.893   1.475   3.255
21586W        W85343  16.716  32.947   3.689
21587W        W85344  12.131  34.415   0.920
21588W        W85345  42.855   8.202  13.368
21589W        W85346  35.495  22.100  14.893
21590W        W85347  34.120   0.422   1.884
21591W        W85348  44.407  14.297   0.320
21592W        W85349  40.351  34.511   0.426
21593W        W85350  22.031  37.446   2.830
21594W        W85351   3.914  22.179  12.485
21595W        W85352   1.941   2.322   3.210
21596W        W85353  10.251  21.541  13.059
21597W        W85354   9.875  44.993   0.420
21598W        W85355  11.809   4.220   1.694
21599W        W85356   0.262  15.810  14.885
21600W        W85357  12.246   8.165   0.281
21601W        W85358   6.788  35.092  14.025
21602W        W85359   7.679   9.196  12.341
21603W        W85360  29.130  22.108  14.870
21604W        W85361  24.482  27.676  13.500
21605W        W85362  35.545  25.037  14.848
21606W        W85363  14.591  23.564   4.337
21607W        W85364   5.692  44.857  11.495
21608W        W85365   8.865  11.335  10.440
21609W        W85366  35.445   0.458  10.954
21610W        W85367  21.530  39.333   2.325
21611W        W85368  19.696  10.280  13.429
21612W        W85369  36.428  32.099  14.448
21613W        W85370  19.058  15.304  12.022
21614W        W85371  14.096  31.951  11.925
21615W        W85372  44.891  30.480   0.841
21616W        W85373   7.205  23.660  10.567
21617W        W85374   0.459   8.852  11.579
21618W        W85375  17.669  17.731  14.785
21619W        W85376  36.037  39.358  12.495
21620W        W85377   9.300  21.749  11.557
21621W        W85378  20.157  20.523  11.935
21622W        W85379  11.218  39.010  12.405
21623W        W85380  29.127  15.768  12.518
21624W        W85381  14.095  28.024  11.906
21625W        W85382  26.613  40.401   2.809
21626W        W85383  28.974  34.550   4.765
21627W        W85384  16.300   6.205   0.950
21628W        W85385  18.098  15.320   5.290
21629W        W85386   2.764   6.773   4.317
21630W        W85387  38.509   4.327   5.597
21631W        W85388  34.537  20.756   3.264
21632W        W85389  30.941  28.642  13.059
21633W        W85390  35.909   4.447  14.963
21634W        W85391  27.001  43.400   2.901
21635W        W85392  25.559  25.473  13.849
21636W        W85393  24.170  33.410  13.371
21637W        W85394  30.096  11.201   3.710
21638W        W85395  20.067  21.093   2.736
21639W        W85396  14.221  33.600   3.180
21640W        W85397  22.023  20.097   3.807
21641W        W85398   4.741   2.887  13.897
21642W        W85399  35.079  29.159   0.835
21643W        W85400  17.697  21.643  13.488
21644W        W85401  32.988  36.567   3.346
21645W        W85402   5.903   9.872   2.694
21646W        W85403  20.142   7.356   5.291
21647W        W85404  11.821  26.590  14.871
21648W        W85405  28.111  23.051   1.373
21649W        W85406   5.817  35.445  13.478
21650W        W85407  33.996  33.605   2.702
21651W        W85408  31.418  20.633   4.628
21652W        W85409  43.354  12.774  12.408
21653W        W85410   0.261  36.522  10.578
21654W        W85411  39.982  38.470  13.428
21655W        W85412   7.374  25.076  12.917
21656W        W85413  30.442  16.585   5.200
21657W        W85414  11.170  27.959  14.841
21658W        W85415  27.998  44.497   1.760
21659W        W85416  28.616  41.021  13.388
21660W        W85417  14.308  17.198  11.469
21661W        W85418  17.801  14.800  11.042
21662W        W85419  43.485  25.037   1.281
21663W        W85420   5.325   6.208  14.870
21664W        W85421  38.451  28.989  14.884
21665W        W85422  31.450  23.635  14.985
21666W        W85423   0.867  38.513  10.924
21667W        W85424  22.042  38.022  10.458
21668W        W85425  32.535  24.990  12.375
21669W        W85426  34.532  36.933  11.435
21670W        W85427  27.551   1.369  10.443
21671W        W85428  44.370  43.006   4.705
21672W        W85429  44.346  11.169   0.810
21673W        W85430   4.289  13.819   3.718
21674W        W85431  16.652  22.249  14.410
21675W        W85432  34.485  14.664   2.295
21676W        W85433   7.904  35.415  12.843
21677W        W85434  43.377  19.676  12.924
21678W        W85435  13.736   4.934   3.696
21679W        W85436   0.321  37.484   3.384
21680W        W85437  43.965  12.358   1.264
21681W        W85438  34.915  37.365  12.837
21682W        W85439  15.223  19.230   1.784
21683W        W85440  29.554   4.908  14.802
21684W        W85441  18.092  42.518  10.511
21685W        W85442  42.504  13.742  14.874
21686W        W85443   5.717  39.327   3.747
21687W        W85444  43.498  14.812  11.541
21688W        W85445  29.079  42.861   1.759
21689W        W85446  42.777   4.302   4.790
21690W        W85447  32.471  42.294   4.232
21691W        W85448  23.680  40.497  12.856
21692W        W85449  29.158   9.740   1.819
21693W        W85450  22.511  40.320   1.344
21694W        W85451   6.295  37.378   1.810
21695W        W85452  12.189  44.907   2.237
21696W        W85453   4.344  18.674  13.024
21697W        W85454  39.492   1.900   2.210
21698W        W85455  36.853   7.911  14.909
21699W        W85456  43.352   2.747   4.155
21700W        W85457   7.730  21.668   3.360
21701W        W85458  12.194  20.641   3.671
21702W        W85459  13.670  35.495  14.366
21703W        W85460  32.441  14.233  11.007
21704W        W85461   7.271  27.639   0.787
21705W        W85462  43.516  18.727   4.677
21706W        W85463  31.574   3.262   3.833
21707W        W85464  37.510  21.143   2.814
21708W        W85465  21.633  14.770  14.394
21709W        W85466  16.583  26.483  14.898
21710W        W85467   3.293   1.329  11.944
21711W        W85468  14.759  38.891   0.371
21712W        W85469  43.500   7.837  11.389
21713W        W85470  27.058  33.936   3.361
21714W        W85471  20.206   0.456  11.950
21715W        W85472  12.734  30.484  12.448
21716W        W85473  42.888   2.422   0.754
21717W        W85474  28.054  11.653   2.864
21718W        W85475  13.352   2.399  10.536
21719W        W85476  13.837  16.193   3.173
21720W        W85477   3.912  18.235  10.460
21721W        W85478  16.569  17.244  10.999
21722W        W85479  26.145  30.150   4.318
21723W        W85480  22.541  18.159  14.477
21724W        W85481  26.662   8.303  13.496
21725W        W85482  27.079  43.348   4.241
21726W        W85483  41.382  10.709  12.894
21727W        W85484  18.702   1.755  10.009
21728W        W85485  27.473  12.802   4.715
21729W        W85486   1.305  25.653  14.761
21730W        W85487   9.836  32.989  13.365
21731W        W85488  23.614  44.791   3.222
21732W        W85489  25.199   1.933  14.274
21733W        W85490  39.559  27.487   0.338
21734W        W85491   9.773   4.785  11.021
21735W        W85492   7.687  16.248   1.300
21736W        W85493  14.325  22.697   4.227
21737W        W85494  42.812  33.605  14.395
21738W        W85495  18.213   6.286  14.481
21739W        W85496   2.786  19.582  12.073
21740W        W85497   1.739  32.913   3.846
21741W        W85498  40.474   3.247   2.809
21742W        W85499  24.203   5.768  13.442
21743W        W85500  25.161   7.912   2.891
21744W        W85501  39.014  33.589  14.970
21745W        W85502   2.420  12.318  10.945
21746W        W85503  31.127  30.160   3.827
21747W        W85504  31.646   7.245  10.539
21748W        W85505   6.239  40.535   2.667
21749W        W85506  22.666   0.909  11.606
21750W        W85507  33.444   2.835  11.886
21751W        W85508  27.514   5.206   0.855
21752W        W85509  26.189  38.843  13.384
21753W        W85510  16.695  38.537   0.774
21754W        W85511  14.606  27.681   3.192
21755W        W85512   1.820  21.106   3.765
21756W        W85513  15.671  10.363  10.406
21757W        W85514  35.600  10.207   2.208
21758W        W85515   4.410   5.879  10.642
21759W        W85516  37.560  14.646   2.190
21760W        W85517   9.330  23.615  14.968
21761W        W85518   9.312  28.937  14.022
21762W        W85519  32.602  21.076   0.313
21763W        W85520  14.829  43.331   1.878
21764W        W85521   2.935  26.173   4.288
21765W        W85522   7.858  16.781   1.922
21766W        W85523  13.305  41.010  13.383
21767W        W85524  18.681  34.884  12.427
21768W        W85525  43.355  24.101   0.403
21769W        W85526  15.127   8.392   3.215
21770W        W85527  28.667   2.854   9.933
21771W        W85528  15.602  21.042  14.445
21772W        W85529  23.987  30.067   0.736
21773W        W85530  15.694  36.471  11.909
21774W        W85531  40.319  20.547   1.895
21775W        W85532  43.996  16.644  10.419
21776W        W85533  40.457  28.522   2.715
21777W        W85534   7.780   1.309  11.908
21778W        W85535  41.438  16.267  10.572
21779W        W85536  29.969  19.732   2.752
21780W        W85537  25.191  11.759   0.262
21781W        W85538  10.305  17.576   2.245
21782W        W85539   1.759  41.898  11.400
21783W        W85540   6.738   7.416  11.996
21784W        W85541  32.623  40.514  13.812
21785W        W85542  20.727  29.461  11.871
21786W        W85543  30.588  43.990  13.441
21787W        W85544  37.009   0.408   0.457
21788W        W85545   5.233  11.854   4.345
21789W        W85546  17.131  17.195   9.974
21790W        W85547  32.100  30.498   2.760
21791W        W85548  14.723  26.547   1.370
21792W        W85549  43.881  15.183  12.574
21793W        W85550  16.766   1.340   0.464
21794W        W85551  34.948  19.576  14.833
21795W        W85552   0.351  43.966  12.480
21796W        W85553  18.600   5.283  12.050
21797W        W85554  41.333  33.989  11.553
21798W        W85555  39.515  24.003  12.948
21799W        W85556  21.581  43.775   4.794
21800W        W85557  19.618  43.022  13.847
21801W        W85558   9.219  21.591  13.919
21802W        W85559  44.877  35.930  14.445
21803W        W85560  17.621  40.532  12.971
21804W        W85561  12.841   4.367  13.974
21805W        W85562  28.075  32.400   4.258
21806W        W85563  36.955  29.022   2.261
21807W        W85564  41.795  13.647   2.761
21808W        W85565   8.730  34.440   1.279
21809W        W85566  30.437   2.393   1.768
21810W        W85567   2.822  17.687  14.955
21811W        W85568   6.844  30.583   3.220
21812W        W85569  26.189  32.886   1.856
21813W        W85570  31.912  24.188   4.687
21814W        W85571   1.275  24.055  11.921
21815W        W85572  12.672   0.310   2.842
21816W        W85573  13.702   6.902   1.818
21817W        W85574  13.670   4.317   1.350
21818W        W85575  44.418   7.339   4.721
21819W        W85576   6.223  17.269  12.495
21820W        W85577  24.008  35.450   0.318
21821W        W85578  43.007  22.250   3.704
21822W        W85579  14.230  12.330  13.419
21823W        W85580  29.121  40.910   4.352
21824W        W85581  43.909   0.405  13.849
21825W        W85582  18.681  38.326   0.948
21826W        W85583  38.511  42.933   4.354
21827W        W85584   5.689  24.133   4.209
21828W        W85585  28.935  41.791  10.485
21829W        W85586  35.868  41.893  12.902
21830W        W85587  28.106   9.247   0.960
21831W        W85588  19.176  16.282   0.333
21832W        W85589  38.869   8.856  13.821
21833W        W85590  36.998  16.801  11.886
21834W        W85591  30.111  26.954   2.769
21835W        W85592  39.823   1.841   9.651
21836W        W85593  36.098  25.057  11.019
21837W        W85594  11.682  12.751   4.783
21838W        W85595  32.536  43.376   4.201
21839W        W85596  19.743  40.342  14.344
21840W        W85597  10.847   4.349   2.379
21841W        W85598   8.331  28.015   1.897
21842W        W85599  19.710  13.129   4.139
21843W        W85600  39.516  22.052   0.372
21844W        W85601   5.753  40.365  12.841
21845W        W85602   2.721  32.073   0.748
21846W        W85603  37.867  20.261   4.770
21847W        W85604  29.554  22.135  13.010
21848W        W85605  11.827  36.558   1.240
21849W        W85606  11.623  36.511   0.444
21850W        W85607  18.791   0.757  12.522
21851W        W85608  18.699  42.436   1.355
21852W        W85609  35.495  29.113  12.905
21853W        W85610  13.631  30.034  10.998
21854W        W85611  14.660  14.616  13.346
21855W        W85612  37.992  23.037  10.466
21856W        W85613  40.870  33.574  14.410
21857W        W85614  26.986  15.691  12.957
21858W        W85615  11.135  33.885  11.479
21859W        W85616  20.646  15.755   0.905
21860W        W85617   1.331   0.455   4.780
21861W        W85618  38.958  36.416   2.209
21862W        W85619  44.482  19.275   1.798
21863W        W85620  34.420  12.229   1.772
21864W        W85621  24.980   2.856  14.999
21865W        W85622   3.319  42.510   0.895
21866W        W85623  10.358  30.460   0.349
21867W        W85624  20.168   6.355  14.328
21868W        W85625  37.017  28.580  12.359
21869W        W85626  38.908  37.889  11.960
21870W        W85627   7.237  15.086   0.869
21871W        W85628   9.203  30.629   1.284
21872W        W85629  27.463   3.273  11.588
21873W        W85630  24.677   7.265   4.323
21874W        W85631  39.066  37.547  12.540
21875W        W85632  10.317  44.259   0.385
21876W        W85633  24.695  38.507   3.179
21877W        W85634  33.900  14.107   3.242
21878W        W85635  32.896  22.527  12.065
21879W        W85636  33.391  36.412  14.920
21880W        W85637  31.511  27.620   2.698
21881W        W85638   1.932  31.999   4.779
21882W        W85639   9.868  16.206   9.471
21883W        W85640  19.731  30.432   3.254
21884W        W85641  43.489  25.525  13.436
21885W        W85642   9.889  32.410  11.448
21886W        W85643  36.059  34.611  12.460
21887W        W85644   7.760  35.592   3.695
21888W        W85645   9.649  15.307   2.342
21889W        W85646  15.114   7.219  11.529
21890W        W85647  40.978  38.378   3.356
21891W        W85648  33.402  22.049   1.700
21892W        W85649  28.991  33.524   2.265
21893W        W85650  29.660  17.127   4.306
21894W        W85651  31.633  33.494   0.874
21895W        W85652  24.585  36.060  11.504
21896W        W85653  42.501   9.659  11.967
21897W        W85654  17.078   5.836   1.845
21898W        W85655   7.288  11.267  14.791
21899W        W85656   9.338   7.411  10.430
21900W        W85657   7.749   0.870  14.963
21901W        W85658  16.765  34.477  10.940
21902W        W85659  32.572  31.950   5.245
21903W        W85660  39.974  30.647   2.886
21904W        W85661   3.947  30.415  10.908
21905W        W85662  27.015  37.860  11.456
21906W        W85663  32.012   9.159   1.803
21907W        W85664  14.707  28.933   0.379
21908W        W85665  13.844  31.936   4.785
21909W        W85666   3.952  29.629  11.555
21910W        W85667  20.224  40.400  14.913
21911W        W85668  37.939  39.057   1.747
21912W        W85669  34.564  35.558  11.472
21913W        W85670  44.939   3.955  12.358
21914W        W85671  39.389  25.973   1.306
21915W        W85672  37.076  20.646  11.975
21916W        W85673   7.297   4.809  10.995
21917W        W85674  36.359  31.420   0.274
21918W        W85675  11.718  35.455   3.266
21919W        W85676  12.251   5.727  13.815
21920W        W85677   6.742  35.368  10.597
21921W        W85678   1.334  34.097   1.218
21922W        W85679  23.723  12.800  13.322
21923W        W85680   6.899   6.211  11.378
21924W        W85681  10.321  13.179  10.540
21925W        W85682  27.483  29.532   2.774
21926W        W85683  12.131  36.962  13.341
21927W        W85684  31.594  17.304   0.383
21928W        W85685  41.986  24.666   1.729
21929W        W85686  17.791  43.990   5.651
21930W        W85687   6.365   4.922   5.175
21931W        W85688   2.422  10.762  13.941
21932W        W85689   3.875  32.628  14.899
21933W        W85690  29.010  35.979  10.552
21934W        W85691   9.367  21.561   4.801
21935W        W85692  35.549  21.603   0.471
21936W        W85693  30.525   4.930   2.712
21937W        W85694  38.986  14.247  14.966
21938W        W85695  18.560   4.894  14.841
21939W        W85696  12.809  43.976  10.116
21940W        W85697  27.977  28.954  10.997
21941W        W85698  15.128   7.690  12.871
21942W        W85699   5.836  32.433  14.287
21943W        W85700   4.720   2.351  12.936
21944W        W85701  22.629  15.297   1.422
21945W        W85702  40.429  33.967  10.438
21946W        W85703  18.193  23.711  13.013
21947W        W85704  12.244   4.771  14.919
21948W        W85705  32.607  12.165   2.869
21949W        W85706  21.627  12.723   0.815
21950W        W85707  18.777  19.660  14.993
21951W        W85708   3.319  42.524   3.676
21952W        W85709  36.450  33.390   5.308
21953W        W85710   0.309  24.070   2.721
21954W        W85711  26.196  40.343  11.485
21955W        W85712  27.586   6.757   3.840
21956W        W85713  37.489   5.789  12.989
21957W        W85714  10.715  32.142   2.762
21958W        W85715  24.062  29.621  12.530
21959W        W85716  35.105  44.896   1.864
21960W        W85717  32.118   9.381  13.794
21961W        W85718   0.796  16.112  12.938
21962W        W85719  24.482  21.039   3.659
21963W        W85720  35.981  18.183  13.925
21964W        W85721   7.899  37.023  14.814
21965W        W85722   8.354   6.914  14.946
21966W        W85723  10.844  15.178   1.730
21967W        W85724  12.174  43.908   0.841
21968W        W85725  13.321  13.760  10.957
21969W        W85726  31.423  17.091  12.467
21970W        W85727  40.961  30.614  13.372
21971W        W85728  24.097  24.489   4.608
21972W        W85729  13.336  17.759   1.319
21973W        W85730  26.527  20.698   0.464
21974W        W85731  15.200   5.434  10.987
21975W        W85732   1.329   8.192   0.864
21976W        W85733  34.929  32.005   0.752
21977W        W85734  19.266  12.170  10.915
21978W        W85735  33.428  10.221  10.943
21979W        W85736  31.015  13.248   3.801
21980W        W85737  15.651  16.191   1.895
21981W        W85738  23.633   7.226   3.666
21982W        W85739  25.213  32.576   3.794
21983W        W85740  13.746   9.750   3.729
21984W        W85741  31.081   4.910   0.828
21985W        W85742  25.561  30.526  12.482
21986W        W85743  36.842  34.438   2.388
21987W        W85744   1.809  34.572   3.805
21988W        W85745  35.103  40.934  13.874
21989W        W85746  29.989   8.733  12.085
21990W        W85747  19.218  14.657   1.269
21991W        W85748  31.133  38.463   4.664
21992W        W85749  42.864  17.192   1.366
21993W        W85750  20.058   8.883   9.983
21994W        W85751  13.238   2.446  10.119
21995W        W85752  41.445   9.692  12.434
21996W        W85753  27.037  17.203  11.484
21997W        W85754   5.256  40.467  13.821
21998W        W85755   7.681  28.142  12.829
21999W        W85756  14.311  32.896   4.302
22000W        W85757  44.438   4.726   2.178
22001W        W85758   6.860   4.716   4.607
22002W        W85759  23.720  11.669  11.460
22003W        W85760  26.505  17.072   5.136
22004W        W85761  22.647  36.410  11.856
22005W        W85762  27.539  10.857  11.974
22006W        W85763  27.082   0.365   3.864
22007W        W85764  34.483  33.958  12.037
22008W        W85765  15.749  25.181   9.995
22009W        W85766   3.824   3.410  10.108
22010W        W85767  10.340  25.556  13.839
22011W        W85768  15.647   7.730   3.723
22012W        W85769  44.772  21.251   5.090
22013W        W85770  26.545  44.951  12.014
22014W        W85771   8.822  43.943   3.211
22015W        W85772   5.273   4.842  12.002
22016W        W85773  31.468  29.484   9.979
22017W        W85774  21.576  17.634   2.409
22018W        W85775  24.203  15.126  12.996
22019W        W85776  18.161  16.250  11.373
22020W        W85777  28.606   4.302   1.770
22021W        W85778  25.127  40.874  13.353
22022W        W85779  28.158  13.166   2.748
22023W        W85780  22.210   2.305   3.157
22024W        W85781  23.709  14.651  11.117
22025W        W85782  20.126  30.053  11.942
22026W        W85783   8.831   3.425  14.029
22027W        W85784  34.072  29.629   4.749
22028W        W85785  24.128  28.944  11.017
22029W        W85786  17.740  16.716  11.541
22030W        W85787  15.755  26.627  13.915
22031W        W85788  38.447   7.859  10.484
22032W        W85789  33.073   6.732  11.116
22033W        W85790  33.556  25.192   4.821
22034W        W85791  10.155  35.437   0.318
22035W        W85792  11.163  10.337   3.718
22036W        W85793  24.721   1.253   1.255
22037W        W85794  27.065  22.170  10.493
22038W        W85795  15.631   7.413   4.678
22039W        W85796  25.703  17.247   1.439
22040W        W85797  43.935  30.600  14.468
22041W        W85798  12.279   8.773  13.415
22042W        W85799  32.567  32.956  13.495
22043W        W85800  23.708  33.464  12.406
22044W        W85801  17.777  15.239   4.621
22045W        W85802  12.333  20.149  10.929
22046W        W85803  18.291  43.440  12.442
22047W        W85804  36.348  31.513   2.226
22048W        W85805   7.279  20.663   0.298
22049W        W85806  26.595  19.630   1.364
22050W        W85807  16.242   2.837  11.942
22051W        W85808  19.153  18.692   4.257
22052W        W85809   6.812   1.255  10.524
22053W        W85810   2.398  23.054  12.066
22054W        W85811   4.438  12.720  13.458
22055W        W85812  10.242  19.143   1.784
22056W        W85813   7.875  32.402   2.673
22057W        W85814  14.797  32.052   2.350
22058W        W85815  23.707  34.379   2.266
22059W        W85816  32.637  26.480  11.018
22060W        W85817   7.201  41.521   2.670
22061W        W85818  14.830  25.206  13.535
22062W        W85819   6.380  23.566  10.981
22063W        W85820  24.574   6.260   0.754
22064W        W85821   6.785  20.145   0.754
22065W        W85822   2.921   3.379  13.040
22066W        W85823   0.289  31.550   0.879
22067W        W85824   7.280  20.564   1.434
22068W        W85825  31.585  11.706  14.862
22069W        W85826  24.498   6.861  12.454
22070W        W85827  40.329   8.235  13.519
22071W        W85828   2.302   0.779   3.296
22072W        W85829  20.142  26.553   0.299
22073W        W85830  40.958  11.797   1.891
22074W        W85831  22.169  14.733  14.374
22075W        W85832  34.510   0.871  12.017
22076W        W85833  24.050  13.245  13.904
22077W        W85834  42.517  12.262   0.305
22078W        W85835  27.998  14.744   0.822
22079W        W85836   7.742  13.675   3.199
22080W        W85837  40.038  16.075  11.100
22081W        W85838  41.477  44.911  10.606
22082W        W85839  37.029  21.575  14.511
22083W        W85840   6.784  12.229  13.529
22084W        W85841  35.375   8.817   1.898
22085W        W85842  42.390  28.642  11.936
22086W        W85843  34.056  28.097  10.132
22087W        W85844  34.019  15.323  14.412
22088W        W85845  12.274  18.733   4.192
22089W        W85846  44.789  24.111  13.819
22090W        W85847  18.063  27.111  14.972
22091W        W85848   4.336  29.437   4.320
22092W        W85849  12.121  25.973   0.323
22093W        W85850  12.311  44.328  12.874
22094W        W85851  22.565  36.507  10.453
22095W        W85852   7.764  32.062   5.081
22096W        W85853  25.964   4.435  11.018
22097W        W85854  26.094   5.811  13.023
22098W        W85855  38.541   8.340   1.269
22099W        W85856  21.747  26.626  14.875
22100W        W85857  19.645  20.765   1.414
22101W        W85858  33.055  41.359  14.282
22102W        W85859  34.067  40.003   0.342
22103W        W85860  15.639  27.974   0.322
22104W        W85861  10.144   3.330   3.236
22105W        W85862   3.346  10.279   3.686
22106W        W85863  12.735  43.831   4.123
22107W        W85864  14.248  16.691   1.797
22108W        W85865  43.969  13.795  13.376
22109W        W85866  16.639  30.431  10.408
22110W        W85867  14.732  35.426  14.374
22111W        W85868   1.473  23.109  13.820
22112W        W85869  22.689   3.914  13.374
22113W        W85870  32.396  37.514  11.430
22114W        W85871  44.310  21.712  13.046
22115W        W85872   1.802  23.159  12.830
22116W        W85873  44.841  25.488   1.335
22117W        W85874  37.395  20.080  12.395
22118W        W85875  13.160  44.468   4.217
22119W        W85876  19.756  35.052  13.483
22120W        W85877  43.971  43.416   0.787
22121W        W85878  17.653   8.816  10.966
22122W        W85879  39.349  16.096   4.136
22123W        W85880  36.983  12.228  11.495
22124W        W85881   3.790   4.779   9.942
22125W        W85882  31.975  36.348  11.883
22126W        W85883  35.380  16.194  13.340
22127W        W85884  31.623   8.726  12.393
22128W        W85885   4.734  15.783  13.525
22129W        W85886  33.052  21.622  10.582
22130W        W85887  17.159  23.720   4.197
22131W        W85888  44.838  33.119   0.881
22132W        W85889  35.585  27.092   5.155
22133W        W85890  21.692  30.557  12.490
22134W        W85891   7.250  43.806   2.820
22135W        W85892  30.538  14.808   1.714
22136W        W85893  17.119  28.629  13.928
22137W        W85894  29.138  39.839   2.397
22138W        W85895  30.418   6.196  14.913
22139W        W85896  37.521  17.279  11.576
22140W        W85897  33.586  41.461   3.339
22141W        W85898  18.247  10.221  11.446
22142W        W85899  29.491  29.095  11.894
22143W        W85900   2.394  35.559  11.588
22144W        W85901  20.216  18.087   0.758
22145W        W85902  26.496  10.683   0.363
22146W        W85903   0.963  10.244  12.418
22147W        W85904  26.128  23.215   4.169
22148W        W85905  37.497  35.406  10.528
22149W        W85906   6.191  11.134   0.302
22150W        W85907  33.101  41.032   3.148
22151W        W85908  34.444  43.011  11.597
22152W        W85909  22.539  12.192   1.921
22153W        W85910   3.374  34.478   0.798
22154W        W85911  43.272  14.262  13.926
22155W        W85912  29.590  28.031   1.221
22156W        W85913   5.276  29.976  13.847
22157W        W85914  17.739  36.075  14.921
22158W        W85915  19.556  12.663   3.863
22159W        W85916  25.541  24.075   1.743
22160W        W85917  43.366  13.295  12.895
22161W        W85918  22.697  12.202   2.825
22162W        W85919  31.466  11.810   0.851
22163W        W85920   3.803  42.844  11.978
22164W        W85921  44.854   1.276  14.980
22165W        W85922  32.540  15.732  13.896
22166W        W85923   7.337  28.959  14.906
22167W        W85924  23.138  19.120   1.793
22168W        W85925  25.182   0.759   2.792
22169W        W85926  43.274  20.210  11.380
22170W        W85927  23.206  14.325  11.125
22171W        W85928  18.771   2.728   1.333
22172W        W85929  39.395  21.201   3.301
22173W        W85930  23.538  40.405   1.351
22174W        W85931  17.181  41.843  14.795
22175W        W85932   6.201   7.278   4.727
22176W        W85933   8.224   8.752  11.048
22177W        W85934  42.435  10.167  12.453
22178W        W85935   7.690  23.579  11.442
22179W        W85936  36.059  14.249  14.858
22180W        W85937  27.653  30.945  11.600
22181W        W85938   1.919  16.152  14.387
22182W        W85939   8.855   2.777  14.345
22183W        W85940  34.065   3.427  14.502
22184W        W85941  41.924  37.831  13.004
22185W        W85942  23.172  14.811  14.404
22186W        W85943  44.290   7.352  10.159
22187W        W85944  11.693  37.972   1.210
22188W        W85945  16.661  10.214  12.500
22189W        W85946  13.837  40.524  14.912
22190W        W85947  37.855  22.565   9.980
22191W        W85948  21.660  21.262   4.180
22192W        W85949  36.984  23.509   0.876
22193W        W85950  14.763   4.726   4.181
22194W        W85951   3.231  20.239   0.461
22195W        W85952  29.919   0.862  10.581
22196W        W85953  33.052   3.221   4.734
22197W        W85954  36.507  43.327   4.631
22198W        W85955  11.251  35.536   1.286
22199W        W85956  11.641  10.681   3.637
22200W        W85957  19.216  10.695  12.093
22201W        W85958  26.189  16.566  10.494
22202W        W85959  36.896  44.997  13.426
22203W        W85960  29.623  43.342   2.773
22204W        W85961  18.099   3.904  13.791
22205W        W85962  40.446   7.355   3.781
22206W        W85963  25.550  21.177  11.038
22207W        W85964  20.133  42.028   2.809
22208W        W85965   0.764  16.253   2.664
22209W        W85966  11.642  28.514   0.349
22210W        W85967  18.107  42.910   3.286
22211W        W85968   4.865  23.080   1.362
22212W        W85969  10.201  40.050  13.395
22213W        W85970   2.953  25.118  11.059
22214W        W85971   8.164   9.389   4.126
22215W        W85972  24.515  15.806   4.164
22216W        W85973  44.980   3.312  14.814
22217W        W85974   7.216  29.060   0.962
22218W        W85975  10.177   9.825  13.962
22219W        W85976  28.565   0.804  12.063
22220W        W85977  41.363  42.896   1.725
22221W        W85978  16.744  41.012  10.589
22222W        W85979   2.352  20.569   0.745
22223W        W85980   6.362  16.077  12.026
22224W        W85981   1.836   3.889   2.750
22225W        W85982  31.122  37.408  10.605
22226W        W85983  12.244   2.913   3.721
22227W        W85984  37.394  21.549   1.343
22228W        W85985  24.057   4.769   2.715
22229W        W85986  18.059  37.077  11.950
22230W        W85987  42.822  31.064   3.714
22231W        W85988  29.054   3.427   5.106
22232W        W85989  33.589  29.455   3.359
22233W        W85990   3.712  42.778  14.967
22234W        W85991  29.584   6.719  13.533
22235W        W85992  34.613  42.861  10.513
22236W        W85993  30.920  33.485   4.182
22237W        W85994   4.751  26.197  11.380
22238W        W85995   7.682  14.754   3.737
22239W        W85996  20.722  18.093   2.691
22240W        W85997  29.169  40.327  12.857
22241W        W85998   1.280  10.306  14.395
22242W        W85999  14.119  40.920   3.769
22243W        W86000  33.395  12.722  11.970
22244W        W86001   5.790  36.917   1.395
22245W        W86002  30.051   4.289   3.225
22246W        W86003  37.369  14.749  12.921
22247W        W86004  19.274  21.621  13.407
22248W        W86005  23.557  37.479  10.955
22249W        W86006   1.901  38.375  14.825
22250W        W86007   2.342  28.673   1.217
22251W        W86008   6.913  12.823   4.728
22252W        W86009  40.382  38.994   5.246
22253W        W86010  20.673  29.071   3.255
22254W        W86011  14.241  23.665  10.982
22255W        W86012  28.657   4.271  13.430
22256W        W86013  31.983   0.417  11.109
22257W        W86014  22.564  37.530   3.190
22258W        W86015  18.604  36.548  13.522
22259W        W86016  13.341  28.009  10.521
22260W        W86017  39.998   9.253  13.861
22261W        W86018   6.306  15.302  12.378
22262W        W86019  14.103  38.470   3.723
22263W        W86020  25.061  35.525   0.878
22264W        W86021  44.316  33.426   3.667
22265W        W86022  40.455  41.328   0.263
22266W        W86023  30.953   2.828  11.525
22267W        W86024   2.864  40.441   1.253
22268W        W86025  19.555   1.869   4.769
22269W        W86026  33.938  25.486   4.305
22270W        W86027   4.204  11.765   4.809
22271W        W86028  13.334  43.313  12.472
22272W        W86029  18.123  41.910   4.731
22273W        W86030  34.031  40.994   3.845
22274W        W86031   0.438  12.279  14.366
22275W        W86032  42.025   6.800   2.845
22276W        W86033   3.248  28.058  13.477
22277W        W86034  21.068   4.849   1.231
22278W        W86035  39.810   6.830  13.362
22279W        W86036  30.144   9.221  11.040
22280W        W86037   6.408   2.793  13.410
22281W        W86038   8.281  36.023   0.323
22282W        W86039  32.120  15.319   3.205
22283W        W86040  44.918   9.393   4.250
22284W        W86041   8.277  24.157   1.368
22285W        W86042   2.386  11.799  10.510
22286W        W86043   6.424  24.979   2.847
22287W        W86044   0.428  43.971   0.946
22288W        W86045  32.622  26.124  11.477
22289W        W86046  32.447  16.293   4.830
22290W        W86047  15.662  43.860  13.451
22291W        W86048  41.432  12.256  13.933
22292W        W86049  35.365  16.616   3.653
22293W        W86050  40.038  10.281  12.398
22294W        W86051   6.315  42.950  11.389
22295W        W86052  38.520   6.706  14.021
22296W        W86053  28.025  17.780  12.551
22297W        W86054  32.989   3.438   3.731
22298W        W86055  10.170  11.782   3.239
22299W        W86056  11.692  41.963   3.265
22300W        W86057  40.526  34.394  11.890
22301W        W86058  27.072  32.127   2.360
22302W        W86059   9.805  23.642   1.367
22303W        W86060  36.906   9.308  13.485
22304W        W86061   5.291   1.924  11.517
22305W        W86062  31.477  10.640  13.008
22306W        W86063   8.352  16.153   1.777
22307W        W86064  13.163  36.516  11.415
22308W        W86065  42.942  32.479  13.826
22309W        W86066  34.429  28.484   2.789
22310W        W86067   0.254  22.167  13.054
22311W        W86068  35.578  22.191  10.901
22312W        W86069  40.537  11.303  14.417
22313W        W86070   3.893  43.799   4.700
22314W        W86071  42.909  24.496   3.253
22315W        W86072  29.078  17.069  13.446
22316W        W86073  13.788  26.203   1.260
22317W        W86074  11.189  29.443   1.228
22318W        W86075  37.897  31.511   0.404
22319W        W86076  11.638  20.545   4.636
22320W        W86077  31.124  25.007   0.441
22321W        W86078  40.860  22.204  14.972
22322W        W86079  21.033  44.007  13.940
22323W        W86080  23.696  32.962   9.615
22324W        W86081  24.496   5.251   2.721
22325W        W86082  43.832   2.391   1.252
22326W        W86083   3.432  39.390   3.175
22327W        W86084  32.903  40.493  11.551
22328W        W86085  29.105   4.807  11.029
22329W        W86086  40.932  31.563  11.049
22330W        W86087   1.753  19.159  12.836
22331W        W86088  41.854  39.327  13.792
22332W        W86089  23.187  21.079  11.407
22333W        W86090  34.612   3.242   4.633
22334W        W86091  34.537   5.901   4.635
22335W        W86092  23.092  21.563   3.373
22336W        W86093   1.768   9.287  10.887
22337W        W86094  11.307  39.873  10.545
22338W        W86095  43.274   9.174  14.283
22339W        W86096  16.628  35.100   2.253
22340W        W86097  17.704  40.900   2.840
22341W        W86098   0.843  15.127  11.070
22342W        W86099  15.193  39.924  13.406
22343W        W86100  12.213  42.288   2.885
22344W        W86101  32.912  15.620   2.842
22345W        W86102  22.223  35.994  13.833
22346W        W86103  40.364  41.350   0.916
22347W        W86104  20.601  24.997   2.763
22348W        W86105  24.555  29.082   1.918
22349W        W86106  20.574  14.791  11.042
22350W        W86107  20.219  43.382   0.742
22351W        W86108  11.792  30.989   1.267
22352W        W86109   4.247   4.724   1.248
22353W        W86110  44.878  38.072   1.247
22354W        W86111  27.159   6.917   2.888
22355W        W86112  37.891  44.327   3.292
22356W        W86113  15.792  22.729   2.324
22357W        W86114  33.057   2.379   3.738
22358W        W86115  44.873  10.762  12.358
22359W        W86116  34.515  28.538   0.303
22360W        W86117  16.308  33.596  14.374
22361W        W86118  30.072  39.468  14.302
22362W        W86119   6.294  29.930   3.684
22363W        W86120   0.285  25.990  12.034
22364W        W86121  39.897  24.705   1.390
22365W        W86122  44.808  42.516   4.631
22366W        W86123  25.100  23.531   2.351
22367W        W86124  27.951  20.744  12.507
22368W        W86125  18.554  22.565  14.480
22369W        W86126  20.758   8.244   0.460
22370W        W86127  30.497  21.725  11.408
22371W        W86128   9.666   8.376   1.217
22372W        W86129  25.689  13.718  14.968
22373W        W86130   8.346  24.548  13.430
22374W        W86131  17.771  39.322   1.398
22375W        W86132  25.191  30.562  12.463
22376W        W86133  31.557  27.023  10.517
22377W        W86134  19.203  13.261  14.395
22378W        W86135   7.772   4.703   4.805
22379W        W86136  41.883   7.307   0.423
22380W        W86137  25.018  14.133  11.034
22381W        W86138  10.852  12.124   4.286
22382W        W86139  42.968  18.594  11.048
22383W        W86140  40.931   4.885  13.510
22384W        W86141   0.987  38.503  11.908
22385W        W86142  42.907  28.092   0.335
22386W        W86143  40.798  36.024   1.880
22387W        W86144  28.437  40.870   2.271
22388W        W86145  12.217  32.487  12.350
22389W        W86146  35.981  12.205  11.391
22390W        W86147   6.420  41.485  12.868
22391W        W86148  39.973  11.355   2.836
22392W        W86149   5.291   5.288  12.567
22393W        W86150  27.570   9.257  11.402
22394W        W86151   7.188  33.115  10.465
22395W        W86152   6.777  26.082   0.430
22396W        W86153  20.679  32.031  12.999
22397W        W86154  11.304   7.227  10.496
22398W        W86155  15.705  37.477  10.089
22399W        W86156  36.967   3.412  11.010
22400W        W86157  44.827   1.936   2.682
22401W        W86158  35.930  13.212   4.836
22402W        W86159  39.862   2.823   2.777
22403W        W86160  16.254   3.393  13.525
22404W        W86161  19.209  22.040   0.412
22405W        W86162  20.118  10.865   1.778
22406W        W86163  44.427   4.801   4.605
22407W        W86164  17.098  39.017   3.696
22408W        W86165   5.205   9.330  10.987
22409W        W86166  33.126  14.216  10.473
22410W        W86167  11.798   8.344  14.451
22411W        W86168  30.125  22.539   1.844
22412W        W86169  24.591  21.743   4.206
22413W        W86170  21.113  34.550  14.834
22414W        W86171  30.103   0.882   3.686
22415W        W86172  34.893  30.164   3.721
22416W        W86173  33.930   5.295  11.596
22417W        W86174   9.210  36.930  14.018
22418W        W86175  18.169  29.020  13.793
22419W        W86176  37.922  37.031   1.734
22420W        W86177   9.335   1.892   4.330
22421W        W86178   1.303  24.070  10.486
22422W        W86179  22.692   4.219  11.426
22423W        W86180  34.952  35.068  13.033
22424W        W86181  11.681  16.801   4.241
22425W        W86182  19.109  12.853  13.794
22426W        W86183   9.315  20.215   4.193
22427W        W86184  44.960  34.864  10.947
22428W        W86185  15.682  10.796  11.072
22429W        W86186  27.451   6.219   2.221
22430W        W86187  15.691  22.029   1.383
22431W        W86188  35.546   5.330  14.964
22432W        W86189  10.235   3.445  10.979
22433W        W86190  35.505  12.180  11.383
22434W        W86191  41.481  30.156   4.650
22435W        W86192   7.846  11.303  12.376
22436W        W86193  35.951  15.609  13.537
22437W        W86194   1.864  24.056   2.180
22438W        W86195  40.869  24.499  13.384
22439W        W86196   5.311  15.785   2.200
22440W        W86197  17.118   9.827  10.639
22441W        W86198  18.728  34.381  14.894
22442W        W86199  44.437  21.039   2.220
22443W        W86200  28.488   8.822   4.629
22444W        W86201  29.094  22.071  11.956
22445W        W86202   4.356   1.791   3.709
22446W        W86203  20.182  24.216   2.731
22447W        W86204   1.298  38.539   2.308
22448W        W86205  20.538  33.550  11.521
22449W        W86206  12.293  42.457   1.306
22450W        W86207  10.359  19.135  10.524
22451W        W86208  43.500  26.077  11.397
22452W        W86209  12.222  24.647   1.447
22453W        W86210  23.619   3.277  12.357
22454W        W86211  33.908  39.336   4.763
22455W        W86212   4.411  21.641  14.770
22456W        W86213  10.351  18.774  13.480
22457W        W86214  18.265   7.242  14.288
22458W        W86215   6.329  13.768  14.876
22459W        W86216  25.493   1.403   4.659
22460W        W86217  44.965  13.219   4.765
22461W        W86218  35.893  12.324  12.972
22462W        W86219  43.511   4.248  12.366
22463W        W86220  41.924  18.051  14.775
22464W        W86221   6.716   3.845   1.778
22465W        W86222  26.171   7.669  11.398
22466W        W86223  17.663  17.164  13.856
22467W        W86224  41.524   1.843  11.959
22468W        W86225  14.632  36.558   2.375
22469W        W86226   4.265  34.876   0.283
22470W        W86227   5.326  18.723  10.114
22471W        W86228  20.211  36.930  11.906
22472W        W86229  28.998  23.094  14.388
22473W        W86230  14.095   0.442   0.746
22474W        W86231   9.336  23.526   1.270
22475W        W86232  41.028  12.243  12.877
22476W        W86233  41.998  27.640   4.669
22477W        W86234  26.207  27.173   3.251
22478W        W86235   3.887  44.895   0.877
22479W        W86236  28.567  29.504  14.896
22480W        W86237   3.788  41.412   2.282
22481W        W86238  26.964  38.366   0.875
22482W        W86239  26.055   5.843   4.782
22483W        W86240  18.728   6.880  11.953
22484W        W86241  28.545   9.824   4.829
22485W        W86242  38.027  41.905   0.451
22486W        W86243  19.689  32.391   3.362
22487W        W86244  17.651  44.413   0.403
22488W        W86245  18.633  12.182   0.263
22489W        W86246   0.986  30.033   3.185
22490W        W86247   8.784  11.307  13.488
22491W        W86248   2.841  17.618   4.787
22492W        W86249  23.169  36.854  10.612
22493W        W86250  39.383  22.614  11.091
22494W        W86251   7.233  14.222  12.539
22495W        W86252   9.811  29.603  14.794
22496W        W86253  23.672  24.591   4.201
22497W        W86254  11.622   0.419  14.922
22498W        W86255   4.357  36.084   4.735
22499W        W86256  44.766  22.671  12.353
22500W        W86257  20.203  40.487   3.677
22501W        W86258  17.196  34.034   3.306
22502W        W86259   6.356  41.936  13.310
22503W        W86260   2.227   5.863   0.778
22504W        W86261   0.760  36.880  11.512
22505W        W86262  15.612  32.044  13.027
22506W        W86263  35.930   4.235  14.028
22507W        W86264   7.232  41.425   1.401
22508W        W86265  27.618  21.516   3.633
22509W        W86266  33.404  37.436   4.601
22510W        W86267  25.979  19.731  11.942
22511W        W86268  39.314  22.122   0.750
22512W        W86269  12.833  40.353   2.243
22513W        W86270  36.589  28.458  11.881
22514W        W86271  28.460  42.375   3.680
22515W        W86272  14.242  23.053   3.255
22516W        W86273  16.192   0.371   3.865
22517W        W86274  27.948   3.814  13.969
22518W        W86275  29.506   3.459   9.557
22519W        W86276  22.601  31.511  13.471
22520W        W86277  27.451   5.200   4.626
22521W        W86278  30.637  18.292  13.953
22522W        W86279   7.271  35.431  14.014
22523W        W86280   6.697  16.626  14.369
22524W        W86281  22.706  15.697  13.311
22525W        W86282  28.651  21.081  14.957
22526W        W86283  38.935   7.237   4.612
22527W        W86284   5.852  26.666   2.740
22528W        W86285  13.623  20.231  13.459
22529W        W86286  25.564  34.051   4.750
22530W        W86287  26.074  39.431   4.606
22531W        W86288  10.330  24.629   1.234
22532W        W86289   5.383  14.288  13.037
22533W        W86290   5.801  26.170   4.306
22534W        W86291  17.609   2.416  11.887
22535W        W86292  42.508  18.673  11.040
22536W        W86293  18.165   8.712  10.624
22537W        W86294  29.546  29.094   2.359
22538W        W86295   3.331  28.546  10.617
22539W        W86296  40.532   6.758  14.472
22540W        W86297  37.388  24.597   4.204
22541W        W86298   8.737  24.034  12.979
22542W        W86299  13.729   0.963  10.643
22543W        W86300  10.862  15.760   5.202
22544W        W86301  39.855  16.785   3.149
22545W        W86302  18.188  40.435  13.432
22546W        W86303  22.094  39.062  11.532
22547W        W86304   8.711  15.330   1.324
22548W        W86305   0.343  14.708   3.860
22549W        W86306  13.835   8.694   0.753
22550W        W86307   9.685  25.150  14.390
22551W        W86308  19.573  15.121   2.294
22552W        W86309   1.816  13.642   3.815
22553W        W86310  37.064  42.391  11.451
22554W        W86311  37.892  39.895   2.219
22555W        W86312  24.056  42.820  12.570
22556W        W86313  25.154  10.637   3.852
22557W        W86314   6.415  34.880  13.445
22558W        W86315  29.983   4.823  14.835
22559W        W86316  37.335  31.058  13.545
22560W        W86317   8.308  43.827  14.993
22561W        W86318  27.182   9.371   0.442
22562W        W86319   3.329  22.218   1.442
22563W        W86320  22.738   7.397  13.487
22564W        W86321  12.336  17.241  12.913
22565W        W86322  27.650   1.932  11.072
22566W        W86323  33.538  40.830   2.676
22567W        W86324   1.359  19.584   0.899
22568W        W86325  44.806  20.573  10.474
22569W        W86326   3.777  26.481   3.824
22570W        W86327  37.338  37.338   5.299
22571W        W86328  42.930  19.558  10.453
22572W        W86329  16.596  32.138  14.424
22573W        W86330  35.470  22.730  14.820
22574W        W86331  31.440  24.563  12.918
22575W        W86332  27.648  21.695   1.821
22576W        W86333  18.176  30.518   3.706
22577W        W86334  31.902  26.165  10.998
22578W        W86335  19.120  17.674  14.932
22579W        W86336  32.585  18.230  11.970
22580W        W86337  10.201  11.637  14.275
22581W        W86338  16.808  23.597   4.625
22582W        W86339  22.688  34.938   0.447
22583W        W86340  40.967  10.838  10.995
22584W        W86341  36.990  23.105   1.232
22585W        W86342  35.506   9.712  13.380
22586W        W86343  13.251  10.149  10.477
22587W        W86344   3.810  29.452   1.702
22588W        W86345  36.472   0.320   0.786
22589W        W86346  34.410  34.059  11.051
22590W        W86347  11.301   4.244   1.257
22591W        W86348   9.711  21.696  14.399
22592W        W86349   6.393   4.912  14.783
22593W        W86350  10.315  38.952   4.837
22594W        W86351  35.857  34.374   3.672
22595W        W86352  41.459  35.926   3.863
22596W        W86353   3.260  36.410   3.352
22597W        W86354  14.299  23.183  11.440
22598W        W86355  10.219  14.608   2.364
22599W        W86356  35.590  40.861  13.967
22600W        W86357  33.504   4.845   0.434
22601W        W86358  25.542  32.124  12.348
22602W        W86359  26.514  41.308   0.925
22603W        W86360  28.495  27.612   0.825
22604W        W86361  21.176  31.453  10.061
22605W        W86362  41.312  10.834   0.932
22606W        W86363  36.377   6.758  11.539
22607W        W86364  38.517  32.394  14.468
22608W        W86365  13.167  26.165  10.580
22609W        W86366  11.341  15.152  14.460
22610W        W86367  28.036  23.188   2.781
22611W        W86368  17.232  32.115  14.866
22612W        W86369   9.270  28.658   4.122
22613W        W86370  15.282  11.293  10.609
22614W        W86371   4.841  27.008   2.293
22615W        W86372  35.539  31.479  12.380
22616W        W86373  41.435  18.297  10.942
22617W        W86374  39.986  42.460  11.997
22618W        W86375  15.643  13.115   0.909
22619W        W86376   1.965  12.325  10.934
22620W        W86377   9.849   4.804  13.929
22621W        W86378  34.519  24.111  11.538
22622W        W86379   6.395  19.107  13.791
22623W        W86380   9.222  15.162   1.925
22624W        W86381   0.387  23.558   4.825
22625W        W86382   9.312  24.044   3.808
22626W        W86383  12.341   7.407  14.010
22627W        W86384  27.991  12.157   0.773
22628W        W86385  25.030  31.604   1.825
22629W        W86386   9.174  26.132  13.960
22630W        W86387   5.216  13.108   0.244
22631W        W86388  19.106  40.522   3.367
22632W        W86389  22.615  19.155   3.670
22633W        W86390  40.539  34.573   1.832
22634W        W86391  15.149  22.702  11.373
22635W        W86392   9.838  27.614  11.994
22636W        W86393  36.521  22.096  10.925
22637W        W86394  32.083  36.063   3.774
22638W        W86395   2.805   1.943   4.152
22639W        W86396  39.402  23.042   2.855
22640W        W86397   9.321  28.574  13.921
22641W        W86398  11.321  30.448   3.250
22642W        W86399  31.491  28.151  10.979
22643W        W86400  13.115  16.714   0.727
22644W        W86401  27.535   1.769   4.149
22645W        W86402  42.504  10.844   4.284
22646W        W86403  22.678   7.411  12.001
22647W        W86404  15.168  35.371   1.812
22648W        W86405  43.777   2.304   0.254
22649W        W86406  29.642  31.558  12.843
22650W        W86407  30.579  19.066  11.968
22651W        W86408  37.478  42.516   4.174
22652W        W86409  23.213  42.990  14.942
22653W        W86410  19.223  17.304  12.576
22654W        W86411   7.210  41.516   0.748
22655W        W86412   1.786  16.811  11.445
22656W        W86413  44.862  24.633   4.117
22657W        W86414  10.684  20.636  12.480
22658W        W86415  42.397  34.551  14.460
22659W        W86416  44.323  34.897  13.488
22660W        W86417  21.691  42.461   0.824
22661W        W86418  39.431  29.998   3.779
22662W        W86419  13.798   5.721  14.021
22663W        W86420   3.847  37.063   4.196
22664W        W86421   9.707  29.041   4.723
22665W        W86422  12.761  41.810  10.893
22666W        W86423  39.045  43.917   0.786
22667W        W86424  31.147   9.301   0.365
22668W        W86425  34.971  41.922   3.690
22669W        W86426  24.198  42.449  12.985
22670W        W86427  24.480  15.098  14.413
22671W        W86428  22.058  40.982   1.821
22672W        W86429  43.429  27.012   3.849
22673W        W86430  44.782  28.607   2.349
22674W        W86431  17.679  24.658  10.624
22675W        W86432  29.462   8.754   3.784
22676W        W86433   8.687  42.371  13.853
22677W        W86434  25.649  29.096   2.275
22678W        W86435   6.356   9.829   2.253
22679W        W86436  44.789  28.134   1.821
22680W        W86437  11.825  32.416  12.491
22681W        W86438   3.871   5.892  12.060
22682W        W86439  16.613  35.059   1.907
22683W        W86440  10.771   3.846  13.406
22684W        W86441   6.754  25.087  12.925
22685W        W86442  22.053  32.072  13.901
22686W        W86443   2.949   0.829  10.418
22687W        W86444  28.487  32.087  12.492
22688W        W86445  42.993  37.940   1.761
22689W        W86446  20.150  39.489  11.910
22690W        W86447  31.408   2.856  10.906
22691W        W86448  15.675   9.766   2.845
22692W        W86449  29.616  13.278  13.526
22693W        W86450   0.966  21.654  10.488
22694W        W86451   9.739  31.616  11.045
22695W        W86452  37.983   5.259  13.971
22696W        W86453  11.733  26.984   3.322
22697W        W86454  14.655  44.322  10.899
22698W        W86455  36.430  43.480  10.592
22699W        W86456  30.611  35.881   4.189
22700W        W86457  13.203  42.365   2.352
22701W        W86458  12.286  42.899   5.231
22702W        W86459  40.842  12.240  12.423
22703W        W86460  31.055  39.900  11.934
22704W        W86461  36.411  37.397   1.803
22705W        W86462  40.548  26.485  11.521
22706W        W86463   0.983   9.653  10.483
22707W        W86464  27.034  33.890  11.375
22708W        W86465   8.699  41.356  10.939
22709W        W86466  21.137  41.362   0.950
22710W        W86467   5.420  37.533  13.039
22711W        W86468  28.978  20.635  13.352
22712W        W86469  25.982   6.381   2.890
22713W        W86470  38.005   3.391   3.366
22714W        W86471  19.661  21.176  13.345
22715W        W86472  28.169  42.003  13.956
22716W        W86473  19.602  15.603   4.735
22717W        W86474  24.226  13.790   2.331
22718W        W86475  25.201  10.237   2.694
22719W        W86476  24.012  20.575  12.951
22720W        W86477   7.301  22.063   1.385
22721W        W86478  13.109  20.525  12.903
22722W        W86479   1.762  44.479  13.545
22723W        W86480  17.075  28.612  13.376
22724W        W86481  37.079   1.416   0.902
22725W        W86482  31.403  19.678  10.961
22726W        W86483   8.692  44.330  11.931
22727W        W86484  43.482  17.161  14.331
22728W        W86485   0.789  11.831   3.334
22729W        W86486  21.161  18.660  13.366
22730W        W86487  15.604   7.771  13.992
22731W        W86488  24.699  10.782   2.769
22732W        W86489  25.650  30.625   3.781
22733W        W86490  22.713  16.265  14.466
22734W        W86491  12.817   9.149   4.128
22735W        W86492   8.245  41.918   3.170
22736W        W86493  14.735  41.511   1.917
22737W        W86494   9.697  28.053   0.432
22738W        W86495  37.856   7.717  13.032
22739W        W86496  10.168   7.279   2.836
22740W        W86497  21.164  41.467  14.430
22741W        W86498  18.255  12.332   0.412
22742W        W86499  43.864   4.314  11.604
22743W        W86500  36.093  22.018  10.578
22744W        W86501  27.659  34.558   0.308
22745W        W86502  16.572  40.310  10.427
22746W        W86503  21.745  31.585   2.180
22747W        W86504  18.547   7.213  11.919
22748W        W86505   5.930  34.022  12.060
22749W        W86506  13.830  37.054   3.345
22750W        W86507  41.896  34.407   0.255
22751W        W86508  17.195  31.406   0.930
22752W        W86509  41.984   9.166  12.384
22753W        W86510   2.836   1.883   2.717
22754W        W86511   5.258  39.322  14.475
22755W        W86512  15.623  13.127   1.371
22756W        W86513  34.488  25.059  11.954
22757W        W86514   5.306   9.304  14.917
22758W        W86515  41.826   4.775   4.205
22759W        W86516  21.158  30.969  13.870
22760W        W86517   7.284  14.673   4.311
22761W        W86518  27.151  33.384  11.540
22762W        W86519  32.989  40.947  14.025
22763W        W86520  29.561  20.238   2.811
22764W        W86521  32.486  30.952  12.554
22765W        W86522  15.285  30.539  14.853
22766W        W86523  35.064   3.356   0.342
22767W        W86524   7.191  19.126   1.424
22768W        W86525  36.574  37.042  13.921
22769W        W86526  33.960  35.952   3.381
22770W        W86527   7.882  36.436   3.639
22771W        W86528   4.449  35.931  10.969
22772W        W86529  39.519  33.417   4.260
22773W        W86530  42.913  39.853   2.178
22774W        W86531  43.866  33.031   2.212
22775W        W86532  10.191  25.060  11.863
22776W        W86533   4.393  20.708  13.335
22777W        W86534  39.983  39.536  13.875
22778W        W86535  19.245   3.216   0.934
22779W        W86536  24.675  34.879  14.453
22780W        W86537  40.492  44.823  14.833
22781W        W86538   5.845   1.893  14.815
22782W        W86539  38.498   8.825   2.766
22783W        W86540  17.067   3.836   1.836
22784W        W86541  43.435   3.846   4.833
22785W        W86542  27.116  19.603  14.337
22786W        W86543  27.544   8.703  10.623
22787W        W86544  12.348   1.848  10.580
22788W        W86545  14.319  10.751  13.539
22789W        W86546   0.903   2.342   0.868
22790W        W86547  15.740  42.829   1.761
22791W        W86548  24.036   9.228   3.681
22792W        W86549   7.197  12.167  14.963
22793W        W86550  42.019  28.041  12.406
22794W        W86551   1.853  31.908   1.820
22795W        W86552  25.972  37.923   2.695
22796W        W86553  43.973  22.209  12.019
22797W        W86554  19.067  16.130  10.624
22798W        W86555  20.597   2.799  14.395
22799W        W86556  40.022   6.293  14.977
22800W        W86557  18.731  12.797   0.263
22801W        W86558  39.943   8.823  13.917
22802W        W86559  32.002   4.837   3.221
22803W        W86560   6.865  10.196   4.129
22804W        W86561  33.981  25.632  12.394
22805W        W86562  38.388  14.096  13.053
22806W        W86563   2.847   8.255  12.900
22807W        W86564  15.128   8.777   4.214
22808W        W86565  31.957  15.133   3.764
22809W        W86566  39.937  18.623   0.842
22810W        W86567  24.108  11.741  14.438
22811W        W86568  37.523  21.091  10.569
22812W        W86569  31.003   8.869  14.951
22813W        W86570  14.710  29.590  10.538
22814W        W86571   8.698   0.786  13.490
22815W        W86572   5.873  25.640   0.422
22816W        W86573  26.960  22.742   0.926
22817W        W86574  21.638  20.611   3.202
22818W        W86575  14.338  37.402  12.948
22819W        W86576   7.829  11.179   1.934
22820W        W86577  32.508   4.376   0.317
22821W        W86578   7.674  16.586   2.288
22822W        W86579   2.880  21.706   1.912
22823W        W86580   3.909   1.461   3.649
22824W        W86581  41.450  11.152  10.945
22825W        W86582  22.692   3.430   0.802
22826W        W86583  12.164  17.691  11.118
22827W        W86584  34.918   2.728  11.414
22828W        W86585  41.845   2.456   5.192
22829W        W86586  13.153  11.866   3.734
22830W        W86587   0.294   8.233  10.927
22831W        W86588  27.609   0.361  12.439
22832W        W86589  39.926  38.441   2.737
22833W        W86590   4.337  17.236   1.789
22834W        W86591  26.460   6.909  13.978
22835W        W86592  41.476   7.359   2.275
22836W        W86593  30.614  17.673  11.469
22837W        W86594  18.196  28.664  11.874
22838W        W86595  11.259  19.169  13.924
22839W        W86596  14.597  24.553   4.604
22840W        W86597  11.699  12.216  11.977
22841W        W86598   4.220  15.794   1.887
22842W        W86599  11.858   0.481  13.999
22843W        W86600  38.472   4.273  10.090
22844W        W86601  15.192  18.789   2.359
22845W        W86602  25.502  19.610   4.324
22846W        W86603   2.847  39.968   2.350
22847W        W86604  10.155  30.913   0.454
22848W        W86605  21.234  32.419   4.346
22849W        W86606  44.473  19.104   4.726
22850W        W86607  32.446  31.023   0.833
22851W        W86608  25.497  25.114  10.641
22852W        W86609  23.068  36.420  12.358
22853W        W86610  44.753  25.523   1.704
22854W        W86611  44.367  36.038   5.200
22855W        W86612  15.795  14.147  10.452
22856W        W86613  43.950  10.832  14.854
22857W        W86614  44.302   4.703   0.348
22858W        W86615  12.633  20.702   1.350
22859W        W86616  12.326  41.856  12.467
22860W        W86617   1.882   6.826   4.150
22861W        W86618  26.601  36.463   0.768
22862W        W86619   5.394  30.636   0.958
22863W        W86620   9.881  11.199  12.351
22864W        W86621  18.253  29.444  12.952
22865W        W86622  35.937   2.863   3.828
22866W        W86623  35.045  19.674  12.933
22867W        W86624  42.454  35.863   1.426
22868W        W86625  40.453  34.511  10.150
22869W        W86626  10.306  28.655  13.993
22870W        W86627  25.004  43.387   0.814
22871W        W86628  42.289   9.660   3.197
22872W        W86629  37.856   5.362  12.904
22873W        W86630  31.532   9.234   4.267
22874W        W86631  19.756  27.106  13.059
22875W        W86632  16.639  33.463   3.785
22876W        W86633   9.180  32.067   1.782
22877W        W86634  23.582  42.018   0.966
22878W        W86635  25.622   6.346  14.483
22879W        W86636   8.178  23.144   3.368
22880W        W86637  15.758  27.945  13.994
22881W        W86638  29.963   5.329   4.146
22882W        W86639  15.089  22.216  12.464
22883W        W86640  10.366  37.450   4.261
22884W        W86641  34.891  44.303  10.564
22885W        W86642   4.424   3.329   3.680
22886W        W86643   0.382  43.828  10.472
22887W        W86644   9.214  13.811   4.215
22888W        W86645  39.027  40.383   3.859
22889W        W86646  44.412  21.742  13.945
22890W        W86647  17.199  39.496   1.282
22891W        W86648  42.356  44.260   4.216
22892W        W86649  32.528   9.186   1.737
22893W        W86650  11.827   1.371  11.470
22894W        W86651  20.769   0.963  13.474
22895W        W86652   4.705  16.090   0.380
22896W        W86653   5.275  23.205  11.493
22897W        W86654  12.223  31.608  14.820
22898W        W86655  23.161  27.113   4.670
22899W        W86656  42.307   8.359   1.896
22900W        W86657  27.961  11.830   5.175
22901W        W86658  24.562   1.306  12.890
22902W        W86659  17.097   0.361   5.306
22903W        W86660  23.150  12.624   2.678
22904W        W86661  38.038  31.589  14.357
22905W        W86662  25.680   0.752   1.277
22906W        W86663   4.285  35.906  14.766
22907W        W86664  12.248  20.137  12.934
22908W        W86665  19.747  34.994  14.419
22909W        W86666  32.025  28.481   1.263
22910W        W86667   0.270  38.876   0.901
22911W        W86668   1.313   9.663   1.220
22912W        W86669  39.837  40.492   3.216
22913W        W86670   6.397  37.353  10.118
22914W        W86671  35.871  44.475   0.811
22915W        W86672  19.600  26.994  13.981
22916W        W86673  17.071  30.046   3.863
22917W        W86674  28.469   0.389  13.331
22918W        W86675  37.939  12.613  10.569
22919W        W86676  13.720  40.466   0.925
22920W        W86677  19.203  29.054  13.337
22921W        W86678  33.119  11.832  12.878
22922W        W86679   0.984  12.352  11.436
22923W        W86680   5.776  36.427   1.889
22924W        W86681  24.030  32.114  10.969
22925W        W86682  20.101   0.786  13.032
22926W        W86683  21.205  38.899   1.743
22927W        W86684  13.223  25.537   3.227
22928W        W86685   3.396  10.216   2.193
22929W        W86686   7.908  12.198  13.038
22930W        W86687  30.434  35.936   2.730
22931W        W86688  36.435   7.182   4.784
22932W        W86689  13.660  12.341   1.348
22933W        W86690  30.463  30.039  11.919
22934W        W86691  24.584  25.661   3.634
22935W        W86692  27.071  21.172   4.792
22936W        W86693  14.747  23.048  12.041
22937W        W86694   5.908  10.705   4.349
22938W        W86695  41.324  25.103  13.316
22939W        W86696  27.682   4.352  12.864
22940W        W86697   1.435  24.528   3.633
22941W        W86698  38.889   0.422  10.101
22942W        W86699  23.494  44.270  13.347
22943W        W86700   0.782  38.858  11.869
22944W        W86701  17.781   0.782   4.231
22945W        W86702   5.865  23.170  12.021
22946W        W86703  24.605   5.363  12.387
22947W        W86704   7.186  13.842   4.682
22948W        W86705   2.257  27.180   0.276
22949W        W86706  11.815  39.492  11.566
22950W        W86707  39.884  11.369  11.093
22951W        W86708   9.712  22.095   4.166
22952W        W86709   9.876  32.483   3.833
22953W        W86710  14.648  42.890  12.090
22954W        W86711  35.054   2.278  14.981
22955W        W86712  28.111   5.887  11.890
22956W        W86713  37.025  34.963   1.755
22957W        W86714  42.322  38.519   2.760
22958W        W86715   0.471  20.032  12.071
22959W        W86716  15.686  33.034  12.064
22960W        W86717  10.654  18.263   1.877
22961W        W86718  13.764  20.081   3.331
22962W        W86719  39.054  19.750  14.937
22963W        W86720   8.337  12.250   1.251
22964W        W86721  37.386  39.412  13.003
22965W        W86722  34.035  39.560   0.807
22966W        W86723  30.985  38.368  10.443
22967W        W86724  26.056  38.556  14.761
22968W        W86725  37.859  25.469   3.830
22969W        W86726  22.614  30.928   2.218
22970W        W86727   5.863   0.408  10.605
22971W        W86728  39.906  24.634  12.829
22972W        W86729  17.088   3.734   4.214
22973W        W86730  23.490   2.862   3.632
22974W        W86731   9.868  14.818  13.820
22975W        W86732  21.066  37.914   0.869
22976W        W86733  41.958  44.356   4.743
22977W        W86734  24.685  32.637  11.866
22978W        W86735   8.225  10.865  12.379
22979W        W86736  13.304  41.515   1.900
22980W        W86737  14.097   4.214   3.385
22981W        W86738  18.588  17.065   1.405
22982W        W86739  40.317   0.849  14.975
22983W        W86740  20.638  20.158  12.353
22984W        W86741  21.516  40.438   1.795
22985W        W86742  12.337  29.931   1.827
22986W        W86743  36.008  31.506  12.978
22987W        W86744  11.759  34.373   3.740
22988W        W86745  15.604  41.460  12.868
22989W        W86746  25.019   3.328  14.917
22990W        W86747  40.484  40.435  13.913
22991W        W86748  16.266  16.314  13.831
22992W        W86749  21.556  17.653  12.476
22993W        W86750   7.248  44.443  10.467
22994W        W86751   0.771  31.489   3.778
22995W        W86752  11.318   4.854  14.808
22996W        W86753  44.353   3.264   0.891
22997W        W86754   9.344   2.739  13.441
22998W        W86755  28.642  27.138   1.792
22999W        W86756  16.638  29.076   3.812
23000W        W86757  44.818  37.373  12.535
23001W        W86758  17.674  37.080  12.005
23002W        W86759  34.896  24.138   2.800
23003W        W86760  44.259  12.331   2.235
23004W        W86761  24.135   3.881  10.924
23005W        W86762   4.315  31.127  14.903
23006W        W86763  41.886  41.967   0.461
23007W        W86764  25.539  18.097   2.894
23008W        W86765  36.068   7.911   2.861
23009W        W86766  23.574  22.682   3.678
23010W        W86767  36.974   0.367  11.863
23011W        W86768   4.874  18.745  11.522
23012W        W86769  11.178  27.473  14.861
23013W        W86770  14.166   8.711   2.229
23014W        W86771  31.414   7.198   2.851
23015W        W86772   8.719   9.252  11.422
23016W        W86773  17.558  25.668   2.398
23017W        W86774  40.487   4.746  12.062
23018W        W86775  12.839  25.212  13.327
23019W        W86776   6.862  44.274   4.305
23020W        W86777  41.804  20.175   0.923
23021W        W86778  43.311  39.033   2.736
23022W        W86779  22.247  38.849  12.872
23023W        W86780  22.578  29.434  13.375
23024W        W86781   4.357  33.070   4.671
23025W        W86782  17.294  11.190  10.058
23026W        W86783   1.386  35.034  14.768
23027W        W86784  43.321  16.099  12.942
23028W        W86785   7.835  14.621  13.800
23029W        W86786  39.437  22.644  12.485
23030W        W86787  27.958  12.670   3.671
23031W        W86788  32.564  39.831  12.352
23032W        W86789  44.334  38.524  11.907
23033W        W86790  20.581  28.004   3.184
23034W        W86791  22.622  32.481   1.275
23035W        W86792  14.112  30.605   1.436
23036W        W86793  39.992   7.870  11.023
23037W        W86794   1.371  34.033  12.094
23038W        W86795  41.028  26.959  10.957
23039W        W86796  44.336  34.506   1.772
23040W        W86797  42.339   3.714   1.895
23041W        W86798  25.964  42.924   0.360
23042W        W86799   6.195  13.157  12.521
23043W        W86800   8.217  40.404   2.187
23044W        W86801  41.942   9.663   2.205
23045W        W86802  42.795  42.994  12.351
23046W        W86803  29.065  20.228  12.922
23047W        W86804  28.638  16.198   2.239
23048W        W86805  17.672  31.096  12.426
23049W        W86806  19.626  35.972   1.280
23050W        W86807   7.907  43.280  14.420
23051W        W86808  44.949  11.250   2.802
23052W        W86809  43.883  22.572   3.234
23053W        W86810  41.342  12.810  12.379
23054W        W86811  12.228  42.814  12.824
23055W        W86812  22.641   3.425   3.167
23056W        W86813   3.760  42.513   3.195
23057W        W86814   4.923  38.884  11.493
23058W        W86815  39.063  39.845  11.938
23059W        W86816  17.266  11.838   1.828
23060W        W86817  30.541  35.390  14.409
23061W        W86818  32.976  21.156  11.049
23062W        W86819  18.727  10.676  12.384
23063W        W86820  28.653   9.858  12.084
23064W        W86821   1.338  40.522  13.407
23065W        W86822   4.754  41.840   3.380
23066W        W86823  36.880   3.885   4.681
23067W        W86824  35.410  40.537  10.614
23068W        W86825  23.560   2.462   3.841
23069W        W86826   4.271  10.166   2.324
23070W        W86827  21.190  32.537  10.128
23071W        W86828  11.728   2.895   1.784
23072W        W86829  15.659  24.680  13.910
23073W        W86830  44.365  18.559   4.724
23074W        W86831  34.931  33.089   4.656
23075W        W86832  24.623  14.618  12.953
23076W        W86833  17.249   3.406   1.822
23077W        W86834  25.131  14.266  13.416
23078W        W86835  39.820   8.734   4.624
23079W        W86836  32.931  34.879  11.927
23080W        W86837  10.337   2.819  12.894
23081W        W86838  43.399   0.779  11.523
23082W        W86839  36.069   8.760   4.288
23083W        W86840   4.252  35.026   2.201
23084W        W86841  11.319  36.973   3.292
23085W        W86842   7.820  12.352  15.000
23086W        W86843   6.261  44.758  12.576
23087W        W86844   9.720  29.442  11.581
23088W        W86845  34.463  20.701   4.830
23089W        W86846  36.997   2.421  11.428
23090W        W86847  17.288  21.642  12.444
23091W        W86848   4.789  33.941   4.129
23092W        W86849  28.108   3.402   0.334
23093W        W86850  20.554  41.351  11.582
23094W        W86851  20.068  25.155  14.004
23095W        W86852  35.489  32.937   0.824
23096W        W86853   0.778  23.527   2.196
23097W        W86854  19.260  33.436   4.682
23098W        W86855  38.984  26.588  14.029
23099W        W86856  10.194  41.420   2.286
23100W        W86857  43.946  36.399  11.594
23101W        W86858  18.683  17.566   0.401
23102W        W86859   0.874   6.199   5.309
23103W        W86860  16.765  29.508  14.277
23104W        W86861  44.435  36.843   3.735
23105W        W86862  33.935   8.863   1.868
23106W        W86863  21.612  15.265  10.418
23107W        W86864   3.730  26.693   4.346
23108W        W86865  21.235  18.194   2.671
23109W        W86866  40.376  31.962   4.344
23110W        W86867   7.338  25.049   1.721
23111W        W86868  35.388  29.084   3.744
23112W        W86869  40.331  40.367  12.939
23113W        W86870  29.956   0.463  11.921
23114W        W86871  19.260  28.953  12.432
23115W        W86872  17.094  25.161   4.313
23116W        W86873  24.084   8.661  10.542
23117W        W86874  32.556  23.241  14.312
23118W        W86875  26.160   1.841   1.442
23119W        W86876  39.919  15.282  10.974
23120W        W86877  39.852  11.689  12.550
23121W        W86878  22.636  39.412   0.376
23122W        W86879  25.658  29.000   4.130
23123W        W86880  28.436  22.746   2.398
23124W        W86881  22.111  38.963   2.832
23125W        W86882  17.151  36.567   1.762
23126W        W86883  26.132   6.427  10.991
23127W        W86884  12.116  22.593  10.973
23128W        W86885  39.514  12.741  10.940
23129W        W86886  36.002  39.978  11.948
23130W        W86887   5.255  43.303   2.876
23131W        W86888   2.286  21.070  13.514
23132W        W86889   7.690  42.944   3.768
23133W        W86890  10.296  33.009   4.336
23134W        W86891  39.504   5.245  10.979
23135W        W86892  21.061  32.492   3.646
23136W        W86893  15.715  35.426   1.404
23137W        W86894   7.206  22.708   4.661
23138W        W86895   8.293  20.728   4.767
23139W        W86896   9.385  28.047  10.135
23140W        W86897  14.190  44.813  12.936
23141W        W86898  35.496  41.835   2.768
23142W        W86899  10.644   7.808   2.713
23143W        W86900  41.947  44.783   0.733
23144W        W86901  30.912  14.304  13.505
23145W        W86902  29.493   2.450   1.895
23146W        W86903  18.092  22.026   2.738
23147W        W86904   2.864   4.797   3.356
23148W        W86905  28.573  22.080  14.386
23149W        W86906  39.358  39.826   2.253
23150W        W86907  14.758  16.607   2.779
23151W        W86908  28.095  28.983   1.695
23152W        W86909   8.244  29.622   3.770
23153W        W86910  35.109   8.884  14.980
23154W        W86911   6.872  26.639  11.418
23155W        W86912   4.823  32.565  14.815
23156W        W86913  14.646   5.855  11.599
23157W        W86914   6.308  26.174   2.309
23158W        W86915  25.498  14.207   0.278
23159W        W86916  33.029  27.102   3.746
23160W        W86917  29.595  15.090  10.914
23161W        W86918   9.680  32.069  11.003
23162W        W86919  40.806  22.503   2.189
23163W        W86920  32.923  16.218  13.477
23164W        W86921  40.468  19.095   1.324
23165W        W86922   4.419  14.178  11.106
23166W        W86923  23.091  22.158   3.826
23167W        W86924   0.824  26.611  12.867
23168W        W86925   0.465  26.484   1.854
23169W        W86926   2.393   6.696   2.282
23170W        W86927  15.250  28.094   2.210
23171W        W86928  44.770  39.021   3.355
23172W        W86929  23.233  24.148  10.901
23173W        W86930  15.145  11.853  10.620
23174W        W86931   5.265  24.720  12.841
23175W        W86932   2.847  40.527  10.605
23176W        W86933   5.738  40.853   3.693
23177W        W86934   3.934  40.404  12.476
23178W        W86935  12.817   5.722   1.368
23179W        W86936  32.505  38.847  12.362
23180W        W86937  13.224  27.079   0.918
23181W        W86938  35.852  17.774  13.019
23182W        W86939  26.616  27.633  13.035
23183W        W86940  42.798  26.534  11.066
23184W        W86941   7.238  41.393   1.722
23185W        W86942  30.517   3.251   3.351
23186W        W86943  30.429  16.154  14.829
23187W        W86944  30.551  39.318   0.965
23188W        W86945   2.869  37.362  13.529
23189W        W86946   4.267   4.892  12.057
23190W        W86947  20.582  13.338   3.276
23191W        W86948   7.244  13.164   3.666
23192W        W86949  41.316   8.271   2.382
23193W        W86950  43.425  21.046  13.431
23194W        W86951  33.928  35.925   2.773
23195W        W86952  41.337  20.183  11.476
23196W        W86953  40.052  33.029  12.415
23197W        W86954  34.600  31.489   4.245
23198W        W86955  16.770  20.104   0.281
23199W        W86956  29.165  28.521   4.189
23200W        W86957   9.849  11.860  14.376
23201W        W86958  26.087  23.647   0.820
23202W        W86959  34.987  14.324  13.932
23203W        W86960  32.142   6.227  12.092
23204W        W86961  29.156   5.878  13.437
23205W        W86962  12.168  42.407   0.944
23206W        W86963  30.091  28.089  10.490
23207W        W86964  40.537  22.231   3.316
23208W        W86965  23.180   7.399   3.145
23209W        W86966  13.691  39.958  13.887
23210W        W86967  41.983  12.848  10.994
23211W        W86968  28.959  33.458  13.882
23212W        W86969  29.112  10.791  13.955
23213W        W86970  36.865   5.385   1.901
23214W        W86971  13.839  37.361   2.859
23215W        W86972  10.689  24.584   3.294
23216W        W86973  41.794  31.423  13.393
23217W        W86974  39.345  35.079   1.906
23218W        W86975  44.980   6.683   2.710
23219W        W86976  30.511   8.861   2.293
23220W        W86977  41.404  36.853  11.942
23221W        W86978  27.998  30.636  14.813
23222W        W86979  40.007  39.888  14.949
23223W        W86980   2.280  13.640   3.765
23224W        W86981  29.989   7.893   1.238
23225W        W86982  12.725  15.774  10.908
23226W        W86983  20.622  25.706   0.297
23227W        W86984  11.183  19.234   4.347
23228W        W86985   9.241   3.239  11.512
23229W        W86986  44.998   0.376   3.161
23230W        W86987  23.000  31.515  11.443
23231W        W86988  39.519  16.692   3.213
23232W        W86989  27.463  24.589   0.269
23233W        W86990  41.031   0.868   0.290
23234W        W86991  31.920  33.899   3.810
23235W        W86992  20.034  12.321  11.944
23236W        W86993   6.237  30.968  10.633
23237W        W86994  19.616  35.402   3.702
23238W        W86995   9.658  44.844   4.269
23239W        W86996  10.185  30.632  12.569
23240W        W86997  11.829  24.169   4.294
23241W        W86998  34.561  14.608   1.870
23242W        W86999  40.403   5.260  12.504
23243W        W87000  21.596  30.163   4.786
23244W        W87001   6.388  11.663  11.086
23245W        W87002   8.322  36.553   0.287
23246W        W87003   3.355  29.031  13.512
23247W        W87004  21.665  42.862   5.293
23248W        W87005  43.309  37.853   2.797
23249W        W87006   6.248  15.126   4.222
23250W        W87007  36.998   5.722  14.508
23251W        W87008  23.601  10.669   2.728
23252W        W87009   7.189  37.051   0.290
23253W        W87010  41.485  28.180   2.250
23254W        W87011   7.173   5.422  11.372
23255W        W87012  10.725  32.932   1.864
23256W        W87013  25.589  12.195   1.326
23257W        W87014  40.538  40.854  14.932
23258W        W87015   0.963  10.229   1.827
23259W        W87016  39.908  30.580  11.129
23260W        W87017   4.717  17.677   1.269
23261W        W87018  26.136  26.610   4.809
23262W        W87019  38.562  10.317   1.309
23263W        W87020   5.744  40.845  11.415
23264W        W87021  20.702   5.320  13.505
23265W        W87022  37.524  37.890  10.584
23266W        W87023   7.319  14.640   0.452
23267W        W87024  18.293   9.375  12.836
23268W        W87025  37.360  28.658   3.648
23269W        W87026  37.006  20.274   2.717
23270W        W87027  44.486  42.911  10.948
23271W        W87028  37.409  32.597  12.985
23272W        W87029  19.696  36.876   3.210
23273W        W87030   5.354  16.298  13.816
23274W        W87031  31.481  42.979  10.609
23275W        W87032   9.364  22.555   3.330
23276W        W87033  13.220  10.320  13.025
23277W        W87034  32.555  32.114   1.282
23278W        W87035  23.181  40.489   1.400
23279W        W87036  38.509  15.580   5.261
23280W        W87037  11.692   0.266   5.761
23281W        W87038   7.694  20.108  10.608
23282W        W87039   4.320  31.504  11.052
23283W        W87040  14.751  40.879  12.011
23284W        W87041  26.196  38.829  11.414
23285W        W87042  30.439  27.166   4.324
23286W        W87043  10.717  23.154   4.338
23287W        W87044  34.985  37.065  14.876
23288W        W87045  33.585  13.317   3.784
23289W        W87046   2.436  13.786  12.450
23290W        W87047   7.205  27.476   4.162
23291W        W87048  39.328  38.459   4.348
23292W        W87049  27.149  16.804  11.379
23293W        W87050  29.169   6.356  13.497
23294W        W87051  33.433  18.747   1.402
23295W        W87052  41.360  32.598  12.068
23296W        W87053  44.408  16.739  11.105
23297W        W87054   1.895   8.241  14.781
23298W        W87055  42.816  27.999  13.881
23299W        W87056  23.521  11.281  11.501
23300W        W87057  34.885   0.860   4.245
23301W        W87058  41.519  37.915  13.454
23302W        W87059   5.358  44.879   4.643
23303W        W87060   5.297  19.173  12.357
23304W        W87061  12.814  12.238   2.180
23305W        W87062  11.703  17.280  14.362
23306W        W87063  44.975  44.819   0.754
23307W        W87064  15.327  12.831   4.631
23308W        W87065   8.375  20.598   3.777
23309W        W87066  22.023  12.645   0.782
23310W        W87067  34.109  40.963   3.266
23311W        W87068  32.990  24.101  11.064
23312W        W87069  15.209   2.342  13.908
23313W        W87070  32.900  22.081  10.941
23314W        W87071  27.475  37.383   4.188
23315W        W87072  28.972   0.938   4.191
23316W        W87073   0.290  36.404   1.435
23317W        W87074  42.924  19.112  12.861
23318W        W87075  19.206  39.869  14.812
23319W        W87076   1.818  12.780  12.444
23320W        W87077  18.185  15.288   2.823
23321W        W87078  44.951  18.053  10.989
23322W        W87079  43.381  22.088   1.806
23323W        W87080  15.600  13.802   2.897
23324W        W87081   6.861   4.699   2.314
23325W        W87082  40.846  28.103   1.768
23326W        W87083  13.634  26.574  11.483
23327W        W87084   8.855  20.208   4.675
23328W        W87085  17.255   4.362  14.407
23329W        W87086  44.465  22.507   1.450
23330W        W87087  19.643  10.272  11.887
23331W        W87088  13.163  33.598   4.690
23332W        W87089   1.803   2.230   0.473
23333W        W87090  39.912   8.749   1.218
23334W        W87091  17.261  20.719  12.556
23335W        W87092   3.770  21.616  12.520
23336W        W87093  25.040  28.180  13.466
23337W        W87094  39.962  20.630  13.933
23338W        W87095  13.129  13.182  14.438
23339W        W87096  34.492  43.477   0.443
23340W        W87097  31.952   5.810   0.746
23341W        W87098  33.398  37.342  12.425
23342W        W87099  29.670  34.394  11.002
23343W        W87100   9.716   3.416  12.924
23344W        W87101  11.745  41.295   2.292
23345W        W87102  28.969  36.932  11.925
23346W        W87103   7.839  34.058  13.027
23347W        W87104  28.597  14.251   9.601
23348W        W87105  16.629  14.281  12.547
23349W        W87106  14.156  44.762  12.410
23350W        W87107  32.515   0.355  12.367
23351W        W87108  36.958  36.869   1.798
23352W        W87109  37.969  19.222   2.295
23353W        W87110  31.960  20.594  13.514
23354W        W87111   3.406   5.403  13.048
23355W        W87112  35.424  34.592  14.784
23356W        W87113  34.602  39.551  13.854
23357W        W87114  40.419  10.341  11.974
23358W        W87115  38.337  15.096  14.821
23359W        W87116   4.790  15.140   4.781
23360W        W87117  16.566  13.325   5.188
23361W        W87118  41.904  30.070  11.496
23362W        W87119  31.528  17.567   1.891
23363W        W87120  28.146  30.606  10.900
23364W        W87121  23.627   9.332   1.265
23365W        W87122  41.481  30.488   3.303
23366W        W87123  44.294  17.267   2.377
23367W        W87124  29.001  39.902   1.799
23368W        W87125   5.390  35.531  12.942
23369W        W87126   9.265  43.821   2.396
23370W        W87127   5.912  15.281   4.207
23371W        W87128  33.035  25.199  13.899
23372W        W87129   4.345  14.652   2.855
23373W        W87130   6.819  35.002  12.483
23374W        W87131   1.274  30.553  11.612
23375W        W87132  23.714  42.880  11.106
23376W        W87133  30.655  25.629   2.752
23377W        W87134   1.263  25.651  12.422
23378W        W87135  35.854  30.032   3.702
23379W        W87136  25.657  28.582  13.806
23380W        W87137   5.714  26.634   0.430
23381W        W87138  31.947   8.230  13.809
23382W        W87139  27.179   1.403   1.752
23383W        W87140  20.549  38.503  13.831
23384W        W87141   3.253   3.228   0.370
23385W        W87142  33.898  40.940   4.608
23386W        W87143  42.449   3.272  11.972
23387W        W87144  35.519  13.114  11.480
23388W        W87145  26.070  12.228   2.873
23389W        W87146  13.186  33.514  11.585
23390W        W87147  21.667  37.985   5.232
23391W        W87148  25.472  12.856  14.468
23392W        W87149  43.305  35.936  10.509
23393W        W87150  29.447  30.021  13.332
23394W        W87151   0.847   8.748  11.380
23395W        W87152  23.000   2.892  13.821
23396W        W87153  20.764  32.028   1.251
23397W        W87154  18.188  12.670   1.871
23398W        W87155   2.343   7.757   4.711
23399W        W87156   9.159  35.369  12.041
23400W        W87157   8.714  22.109   0.395
23401W        W87158   3.218  44.308   0.456
23402W        W87159  22.622  35.596   5.140
23403W        W87160  37.919  42.944  12.503
23404W        W87161   8.783  33.099  10.979
23405W        W87162  40.039  44.361   3.195
23406W        W87163  40.893  22.063   2.418
23407W        W87164  23.040  44.410  11.388
23408W        W87165   2.242  16.746  12.892
23409W        W87166   7.344  18.182  13.061
23410W        W87167  21.157  19.065   2.205
23411W        W87168  18.597  38.976   0.912
23412W        W87169   7.182  43.345  13.459
23413W        W87170  28.513  26.532  14.964
23414W        W87171  29.929  29.027  12.077
23415W        W87172  35.883   0.464   1.849
23416W        W87173  22.636  41.044   1.758
23417W        W87174  35.931  43.840   0.461
23418W        W87175   5.703  17.224  10.084
23419W        W87176  44.800  19.138   0.920
23420W        W87177  27.588  39.553  12.091
23421W        W87178  34.980  36.048   4.123
23422W        W87179   6.414  34.105   4.672
23423W        W87180  14.244  27.114   1.278
23424W        W87181  18.129  43.849  10.572
23425W        W87182  41.983  13.237  12.380
23426W        W87183  23.595  22.520  11.957
23427W        W87184  15.208  13.620  11.086
23428W        W87185  44.455  33.593   5.273
23429W        W87186  28.946   5.269  12.001
23430W        W87187   0.861  32.949   3.670
23431W        W87188  43.441  31.152   2.208
23432W        W87189  27.477  42.988   0.804
23433W        W87190  19.601  36.446   3.176
23434W        W87191  31.513  21.536   0.433
23435W        W87192  16.573   6.378   3.646
23436W        W87193  40.997  41.020  11.532
23437W        W87194   9.359  20.156  14.406
23438W        W87195  19.255  44.760   2.273
23439W        W87196  21.660  30.115  13.548
23440W        W87197  15.306   2.358   1.222
23441W        W87198  43.783  37.434   3.709
23442W        W87199   7.845  37.973   3.856
23443W        W87200   9.336  38.512  14.956
23444W        W87201  30.657  11.319   2.681
23445W        W87202   8.681  22.588   1.413
23446W        W87203  36.096  40.372  14.321
23447W        W87204  31.990  14.303  11.989
23448W        W87205  29.026  13.730   4.739
23449W        W87206  38.001  11.344   2.244
23450W        W87207  24.704  20.122  10.447
23451W        W87208  34.928  20.058  10.934
23452W        W87209  42.300  17.091  11.011
23453W        W87210  14.268  13.781  11.929
23454W        W87211  36.551  23.231  13.873
23455W        W87212  26.643  16.271  10.443
23456W        W87213  11.747  37.544  11.488
23457W        W87214  24.622   4.875   1.830
23458W        W87215  14.723  19.089   2.680
23459W        W87216  39.326   3.789  12.547
23460W        W87217  15.190  31.048  13.429
23461W        W87218  33.017  44.385  10.444
23462W        W87219  11.130   5.235  14.451
23463W        W87220  42.836  27.536  14.955
23464W        W87221   1.397  27.447  14.359
23465W        W87222  18.717   8.680  13.009
23466W        W87223  38.496  38.389  11.374
23467W        W87224   7.288  12.363   2.785
23468W        W87225  28.054  16.776  12.039
23469W        W87226  38.846  34.476  12.862
23470W        W87227  27.624   3.414   0.397
23471W        W87228  35.444   3.752  12.014
23472W        W87229  39.374  34.988   2.258
23473W        W87230  34.502  33.415  13.317
23474W        W87231  19.648  36.437   2.366
23475W        W87232   1.360   1.918  12.522
23476W        W87233   0.837   3.733  11.497
23477W        W87234  41.464  12.728   2.814
23478W        W87235   6.342   8.862  13.843
23479W        W87236  14.328  23.207  13.390
23480W        W87237  21.217  29.116   1.424
23481W        W87238  42.905  21.663   3.711
23482W        W87239  15.579   2.858  13.964
23483W        W87240  12.704  31.125  11.995
23484W        W87241  10.784  38.856  14.432
23485W        W87242  38.076   7.682   1.773
23486W        W87243   1.245  41.433   1.336
23487W        W87244   3.865  19.127  10.498
23488W        W87245  15.197   7.202   0.783
23489W        W87246  14.639  35.937  13.854
23490W        W87247  35.898  12.219   0.403
23491W        W87248  25.693  36.099  13.986
23492W        W87249  21.045  22.240  10.099
23493W        W87250  40.461  34.498   2.401
23494W        W87251   9.858  11.288  13.921
23495W        W87252  23.658  42.017   2.329
23496W        W87253  43.011  42.402  14.446
23497W        W87254  25.185  39.476  13.537
23498W        W87255  14.300   0.291  14.917
23499W        W87256  37.469  36.007  13.385
23500W        W87257  29.666  31.012  12.574
23501W        W87258  43.781  26.092  14.955
23502W        W87259  37.019  13.660   2.339
23503W        W87260  34.442   8.188   1.699
23504W        W87261   3.875  33.479   4.169
23505W        W87262   9.306   6.865   3.687
23506W        W87263  15.164   6.230  11.040
23507W        W87264  21.184  18.178   3.212
23508W        W87265  41.848  20.270  13.458
23509W        W87266  20.119   0.253  13.436
23510W        W87267  24.537  14.327  10.514
23511W        W87268  36.863   5.832   0.732
23512W        W87269   7.897  37.987  13.516
23513W        W87270   3.294  26.624   4.782
23514W        W87271  35.929  12.617   3.716
23515W        W87272  21.519  42.377  10.555
23516W        W87273  14.669  25.624   4.641
23517W        W87274  35.988  30.463  12.944
23518W        W87275   5.737  11.341  11.384
23519W        W87276   2.293  31.000   4.599
23520W        W87277  41.429   0.284   2.881
23521W        W87278  24.073  35.995  10.967
23522W        W87279  33.004  14.290  13.031
23523W        W87280   0.263  34.589  14.389
23524W        W87281   6.677  44.332  12.353
23525W        W87282   4.773   5.426   4.644
23526W        W87283  22.154  21.527   0.898
23527W        W87284   6.898  12.120  13.969
23528W        W87285  14.309  16.781  13.535
23529W        W87286  35.357  43.869  12.493
23530W        W87287  43.005  22.686   5.274
23531W        W87288   2.953  41.876  12.940
23532W        W87289  28.639  43.274  12.350
23533W        W87290   7.875  15.727   9.662
23534W        W87291   1.870  43.275  14.797
23535W        W87292  43.019  43.441  12.868
23536W        W87293  43.444  22.999   1.216
23537W        W87294  11.753  38.441   2.390
23538W        W87295  25.677  16.774   3.848
23539W        W87296  23.695  14.646  14.476
23540W        W87297  11.751  25.676   3.310
23541W        W87298  11.322  17.777   9.448
23542W        W87299   6.293   7.677  13.469
23543W        W87300  39.876  17.746   3.235
23544W        W87301   7.204  25.638   1.417
23545W        W87302  17.724   3.775  11.859
23546W        W87303  28.573  22.210  14.899
23547W        W87304  27.449  24.026  12.854
23548W        W87305  33.503  30.544  12.520
23549W        W87306  37.538   8.804  14.973
23550W        W87307  22.657  27.988  10.062
23551W        W87308  30.486  29.946   2.260
23552W        W87309  43.337  23.005   3.763
23553W        W87310  23.193  13.115  14.321
23554W        W87311   9.186   7.314   2.867
23555W        W87312  31.153  44.426   5.261
23556W        W87313  19.044  41.470  13.328
23557W        W87314  35.012  43.343  14.403
23558W        W87315  21.054  11.293  14.786
23559W        W87316  24.991   7.329  10.520
23560W        W87317  35.078  14.321   1.221
23561W        W87318  44.932  31.976   0.913
23562W        W87319  36.427  41.452   2.411
23563W        W87320  43.805  19.737  11.078
23564W        W87321   2.258   5.400  10.439
23565W        W87322   5.276  36.409   4.273
23566W        W87323  44.328  39.457   2.298
23567W        W87324  38.405  13.615  13.954
23568W        W87325  17.714   3.345   2.729
23569W        W87326  41.987  28.016  12.095
23570W        W87327  23.142  39.944   2.761
23571W        W87328   9.187  20.667   2.806
23572W        W87329  31.045  19.053   1.934
23573W        W87330   8.252  33.474  12.393
23574W        W87331  24.103  21.736   4.741
23575W        W87332  10.713  17.291   3.179
23576W        W87333  42.394  31.640  14.420
23577W        W87334  13.177   6.406   0.474
23578W        W87335   9.395  23.059   3.333
23579W        W87336  41.448   4.851  10.488
23580W        W87337  18.784   9.247  12.548
23581W        W87338  36.432  40.838   4.618
23582W        W87339  20.535   8.892   3.209
23583W        W87340   2.780  30.097   4.774
23584W        W87341  28.171  11.325   4.820
23585W        W87342  23.174   4.387  11.446
23586W        W87343  36.581  26.105   0.831
23587W        W87344  36.910  39.414  11.126
23588W        W87345  39.409  17.173  11.537
23589W        W87346  36.957  42.329  12.826
23590W        W87347  28.980  38.968  12.854
23591W        W87348  21.750   5.261   0.332
23592W        W87349  21.569  16.645   2.228
23593W        W87350  38.957  22.140   0.875
23594W        W87351  22.573   5.275  12.516
23595W        W87352  42.416   4.287   4.729
23596W        W87353  43.772   3.345   4.277
23597W        W87354  42.471  39.009  12.909
23598W        W87355  13.747  26.544   1.695
23599W        W87356  28.656  30.079  14.996
23600W        W87357  20.048  29.123  11.388
23601W        W87358  30.439  15.710   5.291
23602W        W87359   4.304  43.413   1.416
23603W        W87360  38.525  11.861   1.323
23604W        W87361   7.763  41.891   1.335
23605W        W87362  23.012  30.563   1.236
23606W        W87363   1.842  13.822  14.962
23607W        W87364   6.701  19.216   3.719
23608W        W87365  37.365  24.680   4.723
23609W        W87366  15.684  27.463  12.062
23610W        W87367   4.328  17.257   4.147
23611W        W87368  24.623  24.586   3.641
23612W        W87369  19.158  28.662  14.809
23613W        W87370  33.895   5.310  14.373
23614W        W87371  23.611  29.143   1.296
23615W        W87372  30.088  38.441  14.929
23616W        W87373  13.271  34.075   0.301
23617W        W87374  15.188  28.518   4.641
23618W        W87375   8.286  22.121  11.577
23619W        W87376  26.070   0.280   4.769
23620W        W87377  40.042   2.830   0.850
23621W        W87378  36.395  11.820  11.034
23622W        W87379  44.878  18.258   2.740
23623W        W87380  23.645  10.300  12.059
23624W        W87381  13.828   4.943  11.938
23625W        W87382  14.717  24.213  14.762
23626W        W87383  22.705  23.511  13.969
23627W        W87384  31.968   3.845  14.931
23628W        W87385  40.508  15.297  11.993
23629W        W87386  32.483  25.099   1.873
23630W        W87387  40.346  21.581   4.118
23631W        W87388  34.546  15.310   4.308
23632W        W87389  19.082  23.161  11.103
23633W        W87390   3.835  18.573  14.876
23634W        W87391  17.569   2.442  12.473
23635W        W87392   7.223  43.490  11.542
23636W        W87393  41.935   0.816  13.441
23637W        W87394  21.516  30.116   2.402
23638W        W87395   8.300  44.360   5.296
23639W        W87396  33.573  13.722  14.886
23640W        W87397  39.542  40.920  13.356
23641W        W87398  32.499  37.399  12.394
23642W        W87399  19.215   4.415  10.958
23643W        W87400  23.145   9.665   0.312
23644W        W87401  22.044  24.517   0.840
23645W        W87402  25.535  34.441   1.850
23646W        W87403   5.724  35.053  11.468
23647W        W87404  14.119   1.309  12.836
23648W        W87405  10.172  23.573  10.928
23649W        W87406  28.676   9.747  13.807
23650W        W87407  40.400  22.734   3.376
23651W        W87408  14.312  18.293   0.291
23652W        W87409  26.614   7.697  12.850
23653W        W87410   9.874  22.665  14.922
23654W        W87411   0.775  19.110   3.353
23655W        W87412  32.125  37.873   3.310
23656W        W87413  25.123   3.867  14.903
23657W        W87414  10.189  19.067  11.476
23658W        W87415  12.342  36.551   1.240
23659W        W87416  16.168  28.997  11.523
23660W        W87417  36.966  39.319   0.786
23661W        W87418  28.099  29.575   2.733
23662W        W87419   4.252  30.092  13.525
23663W        W87420  22.196  35.061  13.861
23664W        W87421   6.768  43.410  12.414
23665W        W87422  20.742  44.911   2.871
23666W        W87423  14.319  27.172  12.578
23667W        W87424  22.238  27.156   1.730
23668W        W87425  16.289   4.762   4.784
23669W        W87426  34.412  43.483  14.006
23670W        W87427  11.646   8.892   2.709
23671W        W87428  27.533  35.460   1.774
23672W        W87429  39.939  28.538   0.887
23673W        W87430  41.945  37.364   1.694
23674W        W87431  35.575  36.988  13.480
23675W        W87432   1.317  13.747  10.435
23676W        W87433  38.967  15.777  10.908
23677W        W87434   8.218   4.414  14.326
23678W        W87435   7.732  19.088  11.912
23679W        W87436   1.341   9.221   4.747
23680W        W87437  11.633  22.077   1.439
23681W        W87438   7.754  21.050   1.229
23682W        W87439  16.243  32.051  11.996
23683W        W87440  41.505  24.611  13.950
23684W        W87441  13.726  44.376   1.225
23685W        W87442   6.772  21.680   3.797
23686W        W87443   8.747  23.001   3.368
23687W        W87444  18.546  18.275   2.830
23688W        W87445  30.500  41.993   0.932
23689W        W87446  11.655  35.552   1.696
23690W        W87447  26.013   1.910  13.438
23691W        W87448  18.206  25.569  13.354
23692W        W87449  42.385   6.802   3.367
23693W        W87450  21.748  44.755   4.273
23694W        W87451   1.743  40.369  14.833
23695W        W87452   8.723  26.493  14.024
23696W        W87453  32.518  14.164  12.900
23697W        W87454   3.396   5.866   4.324
23698W        W87455  11.807  21.104  11.523
23699W        W87456   5.249  20.614  11.415
23700W        W87457   3.738  38.378  12.859
23701W        W87458  40.331  25.550   1.435
23702W        W87459  19.575  10.149   0.330
23703W        W87460   7.788  31.420  10.436
23704W        W87461   3.239  18.676   0.443
23705W        W87462  36.066  15.683  11.379
23706W        W87463  35.601  31.521   4.131
23707W        W87464  19.053  10.656   3.273
23708W        W87465  20.210   0.961  11.515
23709W        W87466  25.058   9.191   1.847
23710W        W87467  19.760  27.104   1.715
23711W        W87468  25.660  11.753   2.842
23712W        W87469  35.023  23.018   4.143
23713W        W87470  23.217  36.361  10.443
23714W        W87471   3.854  14.627  13.867
23715W        W87472  26.662  16.761  14.303
23716W        W87473  29.578  23.064   3.716
23717W        W87474   5.348  39.397   0.867
23718W        W87475  35.603  27.949  12.507
23719W        W87476  36.025  31.105   1.347
23720W        W87477  40.408  14.220   0.336
23721W        W87478  34.119  43.404   2.678
23722W        W87479   0.845  26.161  14.791
23723W        W87480  19.076  42.992   2.378
23724W        W87481  19.652   1.264  14.407
23725W        W87482  24.622  35.524   4.685
23726W        W87483  21.170  17.254   3.699
23727W        W87484  22.072  15.740  13.396
23728W        W87485  28.492  35.531   1.832
23729W        W87486  31.082   2.958   1.908
23730W        W87487  26.621  21.659   4.350
23731W        W87488  23.028  13.799  12.436
23732W        W87489  26.606  41.303   3.304
23733W        W87490   0.414  39.019  14.508
23734W        W87491  22.153  37.434   3.687
23735W        W87492  36.990   9.846   4.249
23736W        W87493  17.264   4.420   0.790
23737W        W87494  13.676   8.189   0.375
23738W        W87495  13.653  35.440   1.407
23739W        W87496  27.198  36.568  10.452
23740W        W87497  37.879  12.301   1.788
23741W        W87498  41.374   0.932   4.707
23742W        W87499  37.887   6.349   1.377
23743W        W87500  21.121  31.531   0.253
23744W        W87501  39.508  14.597   0.346
23745W        W87502  22.513  44.389  10.152
23746W        W87503  25.654  26.638   2.736
23747W        W87504   8.388  36.458  11.425
23748W        W87505  41.328  29.077  14.321
23749W        W87506  28.494  11.634  13.406
23750W        W87507  39.421   8.218  12.951
23751W        W87508   6.184  32.045  10.911
23752W        W87509  20.523  11.785   3.294
23753W        W87510  43.447  44.368  13.846
23754W        W87511   8.704  15.163  13.024
23755W        W87512  31.628  14.722   4.807
23756W        W87513  26.153   3.904  14.847
23757W        W87514  35.975  20.082   1.223
23758W        W87515  19.218  42.971  11.438
23759W        W87516  24.507  26.600  13.853
23760W        W87517  30.116  12.794  13.866
23761W        W87518  10.826  22.080   1.784
23762W        W87519  15.267  19.280   0.910
23763W        W87520   2.418   8.900  14.438
23764W        W87521   3.302   5.865   1.761
23765W        W87522  15.091   9.320   4.328
23766W        W87523  19.766  15.149  12.576
23767W        W87524  25.207   0.868   0.816
23768W        W87525  32.996  30.971   1.363
23769W        W87526  16.226  22.576   2.341
23770W        W87527  24.988  37.955  11.071
23771W        W87528  17.693  15.765   0.790
23772W        W87529   1.750   9.735  12.925
23773W        W87530   4.864  37.920  14.340
23774W        W87531  15.181  17.695   4.272
23775W        W87532  23.503  13.815  13.461
23776W        W87533  35.496  34.879  10.563
23777W        W87534  26.640  27.048   0.866
23778W        W87535  23.078   5.899   0.438
23779W        W87536  31.579  29.501  12.450
23780W        W87537  32.462   6.782  13.024
23781W        W87538  22.017  21.620  12.521
23782W        W87539  27.184  17.124   4.251
23783W        W87540   5.281  39.958  13.350
23784W        W87541  41.447   1.737   9.966
23785W        W87542  11.287  22.142   3.309
23786W        W87543  42.437  19.780  14.316
23787W        W87544  15.287  34.096   4.225
23788W        W87545  41.804  26.495   2.366
23789W        W87546  23.535  27.606   1.409
23790W        W87547  33.117  38.463   0.790
23791W        W87548  30.082  12.258  12.907
23792W        W87549  16.809  33.889   3.727
23793W        W87550  40.931  10.678   3.661
23794W        W87551  18.222   3.918  14.452
23795W        W87552  30.461   5.369   0.401
23796W        W87553   3.727   9.355   4.304
23797W        W87554  10.222  43.793  12.502
23798W        W87555  35.542  42.477  11.425
23799W        W87556   6.916  27.679   4.804
23800W        W87557  26.173  32.536  12.559
23801W        W87558  29.495  23.676   4.253
23802W        W87559  13.219  26.052  11.115
23803W        W87560  23.560  42.820  11.603
23804W        W87561   2.420  10.219   4.817
23805W        W87562  17.556  35.473  13.355
23806W        W87563  38.008  33.453   1.325
23807W        W87564  33.486   4.328   0.850
23808W        W87565  29.584   7.387   2.872
23809W        W87566  16.717  42.933  11.977
23810W        W87567   3.915   4.427   3.349
23811W        W87568  12.787  42.285   2.382
23812W        W87569   0.416  29.593   1.738
23813W        W87570  28.957  42.032  11.916
23814W        W87571   1.773  43.329   4.747
23815W        W87572   6.903  31.055  10.967
23816W        W87573  28.628  30.573  13.038
23817W        W87574   5.231  41.000  11.586
23818W        W87575  40.402  23.627  11.121
23819W        W87576  25.572  22.569  14.376
23820W        W87577  41.827   0.371   3.157
23821W        W87578  40.922  13.693   3.726
23822W        W87579  17.612  32.972   0.949
23823W        W87580  33.484   3.315   5.081
23824W        W87581  27.103  43.495  13.823
23825W        W87582  11.740   9.294   2.768
23826W        W87583   9.673  32.493   4.235
23827W        W87584  42.366   8.733   1.239
23828W        W87585  43.009  35.432   3.256
23829W        W87586   1.959  21.128  12.415
23830W        W87587  27.622  14.711  12.970
23831W        W87588  17.778  34.580  13.535
23832W        W87589   4.210  39.462  12.006
23833W        W87590   4.293  44.769  14.021
23834W        W87591  26.082  25.567  14.849
23835W        W87592  16.767  34.462   3.187
23836W        W87593  24.484  19.777  13.838
23837W        W87594  26.493   7.192   0.335
23838W        W87595  11.848  31.536  11.062
23839W        W87596  31.616  30.152  11.528
23840W        W87597  30.125  29.586  13.800
23841W        W87598  23.143  29.554  11.426
23842W        W87599  44.874   8.308   0.468
23843W        W87600  22.080   1.327   2.413
23844W        W87601  39.919  14.790  13.436
23845W        W87602  44.367  44.908  13.541
23846W        W87603   1.849   0.959   3.260
23847W        W87604  18.067   6.693  14.809
23848W        W87605   6.706  40.528  10.644
23849W        W87606  32.493  38.410   2.341
23850W        W87607   2.747  13.694   3.181
23851W        W87608  15.090  28.934   1.839
23852W        W87609  34.902  43.343   3.644
23853W        W87610  26.621   1.811  14.390
23854W        W87611   6.230  43.385  14.439
23855W        W87612  41.868  39.037   5.169
23856W        W87613   3.856  28.102  11.524
23857W        W87614  25.686   0.788   0.863
23858W        W87615  20.714  23.677   1.237
23859W        W87616  35.463  41.434  13.997
23860W        W87617   2.734  23.105   2.277
23861W        W87618  25.547  21.753  14.507
23862W        W87619  15.299  32.063  10.596
23863W        W87620  38.956  44.903  10.639
23864W        W87621   6.772  40.393   3.245
23865W        W87622  14.272  30.483  12.412
23866W        W87623   7.382  12.213   4.689
23867W        W87624  10.268  23.563   1.866
23868W        W87625  34.588   5.815  12.443
23869W        W87626  14.645   9.843  10.975
23870W        W87627   2.358   1.364   2.245
23871W        W87628   6.200  24.480  11.397
23872W        W87629  41.841  41.325   3.182
23873W        W87630  11.183  37.441   0.347
23874W        W87631   7.686  40.310  14.978
23875W        W87632  12.287  15.326   1.449
23876W        W87633   9.817  27.157  13.533
23877W        W87634  39.062   5.405  10.441
23878W        W87635   1.786   8.244   0.316
23879W        W87636  27.530  25.210  14.404
23880W        W87637  22.719  15.160   3.365
23881W        W87638   5.867  40.898  14.940
23882W        W87639  21.621  10.690  14.774
23883W        W87640  31.931  11.824  10.470
23884W        W87641  38.008   1.744  14.962
23885W        W87642  42.942  10.672  10.896
23886W        W87643   3.823  35.095  12.436
23887W        W87644  17.167  44.965   0.442
23888W        W87645  29.491  36.911  14.832
23889W        W87646  10.660  24.577   0.897
23890W        W87647   4.862  44.498  12.017
23891W        W87648   4.820  12.674   0.324
23892W        W87649   2.367  14.212   3.781
23893W        W87650  39.497   7.811  10.543
23894W        W87651  14.721  36.554  12.933
23895W        W87652  33.913  20.620   2.397
23896W        W87653  41.302  30.930  14.455
23897W        W87654  36.927  23.582  13.919
23898W        W87655  36.572  43.977   0.814
23899W        W87656   2.456  20.692  11.971
23900W        W87657  44.911  20.119   0.462
23901W        W87658   9.775   3.286  11.608
23902W        W87659   4.286  24.145   3.371
23903W        W87660  20.120  33.122   1.390
23904W        W87661  30.972  11.819  12.375
23905W        W87662  18.136  16.585   0.952
23906W        W87663  22.008   7.911  11.900
23907W        W87664  19.627  40.542   0.288
23908W        W87665  43.019   9.234  10.456
23909W        W87666  13.115  29.920   2.663
23910W        W87667  20.524  27.646   3.768
23911W        W87668  32.509  11.349   1.758
23912W        W87669  36.389  10.724  11.582
23913W        W87670  11.811  25.516  12.534
23914W        W87671  33.018  21.132   1.214
23915W        W87672   9.179  20.107   0.324
23916W        W87673   0.883  25.191   1.877
23917W        W87674  13.840  22.672   2.818
23918W        W87675  15.274  44.455   0.435
23919W        W87676  15.106  38.983  12.491
23920W        W87677  40.492  20.612  14.816
23921W        W87678  22.605  25.092  11.128
23922W        W87679  28.665  35.859   3.191
23923W        W87680  40.444   9.237   0.472
23924W        W87681  17.256  23.668  11.930
23925W        W87682  11.152  31.071  14.803
23926W        W87683  33.037  26.184   3.706
23927W        W87684  25.559  37.401   3.727
23928W        W87685   6.251  25.124   5.205
23929W        W87686  32.058  28.177   0.316
23930W        W87687  23.060  42.913  14.292
23931W        W87688  12.222  29.084   0.924
23932W        W87689   4.305  37.915  12.891
23933W        W87690   9.333  43.923   4.675
23934W        W87691  30.156  12.299   1.710
23935W        W87692  12.641   8.403   2.695
23936W        W87693  24.155  42.494  13.319
23937W        W87694   7.677  13.775   1.402
23938W        W87695   7.721  43.382  10.422
23939W        W87696  18.678  25.619  11.912
23940W        W87697  29.553  40.915   0.936
23941W        W87698   9.688  17.789  11.991
23942W        W87699  13.824   5.327   0.255
23943W        W87700  14.671  17.792  12.358
23944W        W87701  38.033  15.745   4.173
23945W        W87702  19.184   1.871  11.504
23946W        W87703   6.365  43.365   1.927
23947W        W87704  43.929   4.419   2.702
23948W        W87705  33.972  33.999   4.241
23949W        W87706   6.696   3.318   1.854
23950W        W87707  23.712  44.443   4.782
23951W        W87708  34.897   9.882  13.845
23952W        W87709  23.165   2.310   3.736
23953W        W87710  42.848  29.425   2.327
23954W        W87711  26.607  18.050  10.566
23955W        W87712  22.133  43.457   1.928
23956W        W87713  22.176  23.178   1.889
23957W        W87714   1.836  41.931   0.325
23958W        W87715  36.515  14.708  12.415
23959W        W87716  18.670   4.280   3.296
23960W        W87717  36.480  29.519  13.914
23961W        W87718  41.914  35.441  13.530
23962W        W87719  12.227   3.810   2.686
23963W        W87720  22.504  39.527   0.911
23964W        W87721  37.491  24.505   1.259
23965W        W87722  36.535  28.599  13.515
23966W        W87723   7.328  16.734   1.812
23967W        W87724  21.018  32.454  11.108
23968W        W87725   5.866   7.686  14.479
23969W        W87726  28.176   0.880  10.590
23970W        W87727  41.508  18.146   2.804
23971W        W87728  44.979  44.968  10.958
23972W        W87729  23.121   3.783   2.289
23973W        W87730  28.613  44.372  13.462
23974W        W87731  34.105  37.851  11.930
23975W        W87732  41.028  29.025  13.336
23976W        W87733  10.280  36.957  14.357
23977W        W87734  17.714  37.988   1.439
23978W        W87735  41.873  16.609   0.484
23979W        W87736  26.185   2.792  12.474
23980W        W87737  40.906  10.170   4.224
23981W        W87738  24.221  40.444   0.942
23982W        W87739  14.147  41.452  11.877
23983W        W87740  29.097   3.743  10.046
23984W        W87741  11.323  32.635   1.234
23985W        W87742  15.168  11.827  12.888
23986W        W87743  27.987  22.588   4.692
23987W        W87744   1.822  26.135   3.799
23988W        W87745  13.320   6.879  10.951
23989W        W87746  12.153  41.799  14.281
23990W        W87747  41.976  18.572  11.532
23991W        W87748  23.007   0.268   0.320
23992W        W87749   1.400  17.169   2.340
23993W        W87750  41.850  22.014  13.006
23994W        W87751  13.838  18.073   3.162
23995W        W87752  20.648  33.444   4.833
23996W        W87753   8.806   9.871  10.042
23997W        W87754  29.645  11.624   4.734
23998W        W87755   9.694  41.947  11.004
23999W        W87756  16.231  13.291   4.205
24000W        W87757  16.137  18.058  10.991
24001W        W87758   1.808  39.438  14.020
24002W        W87759   7.382  12.682   2.407
24003W        W87760  10.187   9.785  11.453
24004W        W87761  20.248  25.566   4.321
24005W        W87762  27.048   4.928   0.781
24006W        W87763  11.666  42.968   4.619
24007W        W87764  31.518  16.627  11.441
24008W        W87765  33.082  40.839  13.502
24009W        W87766  35.450  23.703  13.921
24010W        W87767  38.403  29.993   0.406
24011W        W87768  14.096  22.022  11.471
24012W        W87769  16.199  26.106  11.530
24013W        W87770  10.827  27.165  12.435
24014W        W87771  42.866   8.265   4.306
24015W        W87772  36.944  17.583   1.865
24016W        W87773  12.251  29.965  13.036
24017W        W87774  43.934  28.449   4.286
24018W        W87775  39.501  25.698  12.881
24019W        W87776  18.757  40.911  12.480
24020W        W87777   8.369  14.665   4.316
24021W        W87778  44.499  41.843   0.417
24022W        W87779  29.114  21.132   1.332
24023W        W87780   9.821  36.434   0.752
24024W        W87781  23.021  40.325  10.631
24025W        W87782  10.642  23.497   2.676
24026W        W87783  11.148   3.833   0.408
24027W        W87784   4.791  32.104  10.153
24028W        W87785  21.623  19.614  12.535
24029W        W87786  29.618  22.731  11.894
24030W        W87787  17.301   0.342  14.349
24031W        W87788  44.982  38.921  10.087
24032W        W87789  43.003  16.808   1.239
24033W        W87790  41.007   9.184  13.855
24034W        W87791  21.633  30.583   1.823
24035W        W87792   0.285  38.023  11.444
24036W        W87793  40.451   2.845   9.580
24037W        W87794  38.999  11.331  10.133
24038W        W87795  31.898  14.226   5.298
24039W        W87796  19.249  38.984  12.057
24040W        W87797  30.951   1.357   1.808
24041W        W87798  22.517  39.898  13.852
24042W        W87799  26.615   5.400   0.877
24043W        W87800  40.816  32.396  12.863
24044W        W87801  23.117  38.954  11.120
24045W        W87802  11.744  24.057   4.820
24046W        W87803  15.665  27.488   5.239
24047W        W87804  15.764  15.146  11.604
24048W        W87805   4.353  24.518   0.763
24049W        W87806  27.524   7.682  14.391
24050W        W87807  28.585  20.698   3.640
24051W        W87808  12.804  40.976  11.985
24052W        W87809  40.918   9.306   0.741
24053W        W87810  42.888  21.082  14.302
24054W        W87811  26.994   1.384   2.236
24055W        W87812  31.920  16.311  13.988
24056W        W87813  29.941  44.332  12.506
24057W        W87814  13.781  33.920   3.749
24058W        W87815  32.544  18.132  12.351
24059W        W87816  33.614  33.442  14.880
24060W        W87817  16.250  44.384  13.518
24061W        W87818  30.643   1.248   0.370
24062W        W87819  16.082  16.296   3.837
24063W        W87820  22.196   7.188   4.326
24064W        W87821  22.048  11.666  13.855
24065W        W87822  21.223  11.164  11.902
24066W        W87823   4.401  43.864   4.332
24067W        W87824  39.458  22.508   4.236
24068W        W87825   9.666   6.784  13.836
24069W        W87826  31.116  16.660   5.242
24070W        W87827  43.988  24.184  13.384
24071W        W87828  11.373  37.482   0.815
24072W        W87829  13.161  43.957   1.398
24073W        W87830  34.905  17.710   2.705
24074W        W87831  38.826  19.175   1.835
24075W        W87832   2.858  11.810  11.995
24076W        W87833  33.023  42.962  14.433
24077W        W87834  44.503   0.928   3.841
24078W        W87835  31.920  37.447   0.913
24079W        W87836  37.071  15.611  12.058
24080W        W87837  43.416  36.440  12.539
24081W        W87838  17.171  28.073  11.996
24082W        W87839   5.227  38.902   2.777
24083W        W87840   8.700  40.502  14.357
24084W        W87841   3.278  26.081  12.558
24085W        W87842  12.828  27.196  10.600
24086W        W87843  28.485  12.803  11.399
24087W        W87844   0.972   8.788  10.924
24088W        W87845  43.988  22.573  13.898
24089W        W87846   2.304  39.874   2.791
24090W        W87847   4.778   3.764   4.653
24091W        W87848  18.608  22.567   4.263
24092W        W87849   0.264  40.359  13.516
24093W        W87850  29.137  12.156   0.474
24094W        W87851  35.570  32.511  12.008
24095W        W87852  43.884  17.084   0.305
24096W        W87853   7.903   2.911   4.242
24097W        W87854  31.137   1.389   2.785
24098W        W87855  11.865  35.531  11.105
24099W        W87856  40.994  16.260   4.249
24100W        W87857  19.051  22.626   1.336
24101W        W87858  14.248  36.377  14.849
24102W        W87859  20.236   2.939  12.397
24103W        W87860  37.914  29.970   0.760
24104W        W87861  21.577  17.097   1.336
24105W        W87862  21.574  30.504   0.948
24106W        W87863  21.512  12.791  11.031
24107W        W87864  15.291  16.259  12.849
24108W        W87865  32.926  27.473  13.377
24109W        W87866  26.633  17.619   2.807
24110W        W87867  22.648  11.751   0.795
24111W        W87868   8.702   7.831   1.761
24112W        W87869   0.436  11.368  13.801
24113W        W87870   8.733  18.722   3.282
24114W        W87871   3.301  26.505   0.426
24115W        W87872  27.595  39.349   2.293
24116W        W87873  22.606  39.370   4.822
24117W        W87874   9.267  22.061   2.180
24118W        W87875  27.114  11.180   3.210
24119W        W87876  10.856  42.788   4.271
24120W        W87877  33.939   1.480   3.829
24121W        W87878  43.854  13.837  14.952
24122W        W87879   3.390  34.542  12.518
24123W        W87880   1.293  35.003  11.464
24124W        W87881  35.968  29.641  14.028
24125W        W87882  14.301  30.087   3.701
24126W        W87883  23.627  27.621   0.876
24127W        W87884  41.502  13.610   2.890
24128W        W87885  42.520  33.115   0.396
24129W        W87886  16.714   3.279   3.671
24130W        W87887  12.800  11.199  13.910
24131W        W87888  35.538  28.942  14.788
24132W        W87889  20.223   6.388  12.962
24133W        W87890   1.948  11.172   0.765
24134W        W87891  29.169  28.140   2.750
24135W        W87892  26.114  17.659   4.814
24136W        W87893  33.550  33.414  13.449
24137W        W87894  24.623  43.919  10.518
24138W        W87895   8.357  39.882   2.181
24139W        W87896  40.482  33.915  12.485
24140W        W87897   1.266   1.327   1.297
24141W        W87898   4.844  36.441  13.945
24142W        W87899  27.127  40.518   3.212
24143W        W87900  14.143  22.587   4.684
24144W        W87901  15.753  11.209   4.706
24145W        W87902   3.293  44.440  11.981
24146W        W87903   9.172   0.828  13.322
24147W        W87904  20.699  36.415  12.555
24148W        W87905  14.294  25.476   0.858
24149W        W87906  34.932  27.142   4.303
24150W        W87907  34.940  21.192  11.611
24151W        W87908  42.963   9.749   2.191
24152W        W87909   5.907   4.444  12.044
24153W        W87910  21.223  28.070   1.428
24154W        W87911  21.549  15.637   3.279
24155W        W87912  33.955   5.357   1.448
24156W        W87913  32.462  35.900  10.481
24157W        W87914  31.597  12.799  10.505
24158W        W87915  40.817  12.643  13.512
24159W        W87916  10.264  29.502  10.524
24160W        W87917  17.573  30.006  10.966
24161W        W87918  20.646  37.896   4.827
24162W        W87919  25.540  10.818   2.384
24163W        W87920   1.237  19.770  14.293
24164W        W87921  29.944   6.910  12.445
24165W        W87922  13.737  26.139   4.263
24166W        W87923  43.980  39.835   1.377
24167W        W87924  34.577  16.698   0.331
24168W        W87925  19.230  12.154   3.778
24169W        W87926  25.482  41.859   3.732
24170W        W87927  38.394  16.682   2.724
24171W        W87928   2.948  16.789   0.412
24172W        W87929   7.801  13.232  12.896
24173W        W87930  13.673   3.869   0.293
24174W        W87931   3.304   4.312  14.379
24175W        W87932  25.122  29.053  12.025
24176W        W87933  30.654  24.516   1.817
24177W        W87934  16.130  41.884   4.350
24178W        W87935  43.937  33.584  13.875
24179W        W87936  41.791  14.216  13.894
24180W        W87937  29.957  43.956   3.794
24181W        W87938  25.599  44.419   4.687
24182W        W87939  28.506   7.687  13.887
24183W        W87940  18.721   7.267  12.904
24184W        W87941  32.989  16.104  14.516
24185W        W87942  20.533  33.040   3.219
24186W        W87943   5.730  40.535  14.928
24187W        W87944  26.528  22.614  11.566
24188W        W87945  42.891  21.116   1.370
24189W        W87946  26.548   5.236  14.831
24190W        W87947   6.778  32.947  11.909
24191W        W87948  24.690   7.227  14.851
24192W        W87949  23.575  44.942  14.770
24193W        W87950  12.221  17.192   3.690
24194W        W87951  38.534  19.094   0.852
24195W        W87952  17.136  21.184   4.190
24196W        W87953   6.902  38.523  14.761
24197W        W87954  25.026  11.356   2.386
24198W        W87955  35.913   9.763  11.449
24199W        W87956  29.626  11.371  12.869
24200W        W87957  29.098  16.187   0.875
24201W        W87958   1.943  40.325   4.253
24202W        W87959   3.730  22.647   2.798
24203W        W87960  23.234  26.556   0.794
24204W        W87961  43.337  31.537  11.397
24205W        W87962  28.976   9.265   3.747
24206W        W87963  24.128  33.877  11.097
24207W        W87964  32.076  28.971   5.316
24208W        W87965  19.581  14.165   1.788
24209W        W87966   7.904  20.728   2.784
24210W        W87967  40.488  38.550   1.697
24211W        W87968  23.730  36.911  14.876
24212W        W87969  41.476  28.471  14.364
24213W        W87970  42.851  39.458   4.710
24214W        W87971  12.245  36.936   0.334
24215W        W87972  12.232  16.305   4.727
24216W        W87973  22.626   1.366  10.576
24217W        W87974  33.884  37.382  13.478
24218W        W87975  27.092   8.275  12.094
24219W        W87976  35.017  42.968  12.083
24220W        W87977   3.417   5.311  13.959
24221W        W87978  40.905  11.671  12.458
24222W        W87979  38.870  18.640   0.904
24223W        W87980  42.918   6.915   2.787
24224W        W87981  44.990  28.674   4.176
24225W        W87982  24.052  23.054   5.299
24226W        W87983  20.600  33.069  13.910
24227W        W87984  11.223  41.805  14.278
24228W        W87985  38.861  44.494  10.060
24229W        W87986  36.883  29.506   2.343
24230W        W87987  26.039  15.321   5.191
24231W        W87988  39.442  33.900   4.192
24232W        W87989  43.862  13.640  12.919
24233W        W87990  40.473  17.660  14.851
24234W        W87991  27.944  29.957   1.928
24235W        W87992  42.963   1.265  11.513
24236W        W87993  24.996  34.091   2.340
24237W        W87994  26.670  24.690  12.899
24238W        W87995   7.228  41.454  12.039
24239W        W87996   1.967  18.187   4.793
24240W        W87997  17.189   4.268   3.837
24241W        W87998  39.454  27.133  13.334
24242W        W87999   4.399  34.613  10.574
24243W        W88000  16.746  44.465   4.628
24244W        W88001  19.602  11.362   0.371
24245W        W88002  29.959  19.104   1.251
24246W        W88003  31.938   2.325   0.939
24247W        W88004  30.090  44.974   1.246
24248W        W88005  29.639  32.926   2.783
24249W        W88006  19.629   0.297  12.423
24250W        W88007  42.865   5.697  14.372
24251W        W88008  23.493  16.140  11.079
24252W        W88009  19.712   3.379  14.360
24253W        W88010  19.232  31.118  11.976
24254W        W88011   4.899  23.210  12.343
24255W        W88012  27.005  14.638   2.366
24256W        W88013  43.386  17.647   2.782
24257W        W88014  40.416  25.530  13.480
24258W        W88015  23.601  19.177   4.691
24259W        W88016  41.019  33.506   2.792
24260W        W88017  32.940  38.346   1.306
24261W        W88018  43.991  34.595   2.840
24262W        W88019   4.264  12.787   2.347
24263W        W88020  30.548  15.286   2.798
24264W        W88021   9.150  33.946   0.760
24265W        W88022   8.812   1.409   1.239
24266W        W88023  15.198  36.417  10.999
24267W        W88024  14.674  34.486   0.882
24268W        W88025  11.350  44.465   4.655
24269W        W88026   3.353   6.221   0.863
24270W        W88027   3.820  40.505  12.867
24271W        W88028   3.382  29.078   3.147
24272W        W88029   5.428  20.053   2.760
24273W        W88030   2.376  16.213   0.951
24274W        W88031  35.475  24.081  12.419
24275W        W88032  33.579  14.768   1.417
24276W        W88033   0.452  11.331   2.200
24277W        W88034  13.213  40.888   3.655
24278W        W88035  29.998   0.481   2.743
24279W        W88036  26.954   3.391  11.058
24280W        W88037  11.787  33.520  13.523
24281W        W88038  21.651  41.475   0.881
24282W        W88039  18.657  40.845  13.869
24283W        W88040   6.692  38.521  10.407
24284W        W88041  19.164  15.626   2.855
24285W        W88042  31.636  10.219  12.830
24286W        W88043  15.144  40.798   3.716
24287W        W88044  19.553   0.283   0.357
24288W        W88045  37.865  24.606   1.839
24289W        W88046  32.408   0.371  14.865
24290W        W88047  43.861  33.539   4.667
24291W        W88048  15.244  33.621  11.126
24292W        W88049  10.366  11.700  11.934
24293W        W88050   1.880  42.942  12.827
24294W        W88051   8.889   7.198   1.798
24295W        W88052   0.459  22.083  12.527
24296W        W88053  44.989   3.380   0.471
24297W        W88054  25.587  19.144   0.422
24298W        W88055  37.515  14.820   0.331
24299W        W88056  10.768  38.031   1.771
24300W        W88057  29.952  44.339  13.512
24301W        W88058  29.049  14.157   4.650
24302W        W88059  44.904  41.332   0.824
24303W        W88060   5.395  19.576  10.595
24304W        W88061  25.482  17.664  13.965
24305W        W88062  36.856   1.896   4.802
24306W        W88063  14.331  39.062  13.328
24307W        W88064  10.163  19.197   2.666
24308W        W88065  37.947  44.803  13.427
24309W        W88066  13.838  42.878  12.956
24310W        W88067  33.399  38.062   3.843
24311W        W88068  33.942  44.339   9.936
24312W        W88069   2.332  23.699   5.259
24313W        W88070  25.205  43.938   1.270
24314W        W88071  44.941   1.862   1.929
24315W        W88072  14.271  44.851   0.482
24316W        W88073  26.689  27.445  13.500
24317W        W88074   4.383  14.153   4.720
24318W        W88075   0.249   4.405  12.058
24319W        W88076  31.609  35.984   0.867
24320W        W88077   5.355  31.098  14.852
24321W        W88078  41.322  35.478   4.709
24322W        W88079  23.166  10.195   3.322
24323W        W88080  40.440  14.185  13.994
24324W        W88081  31.470  34.894  12.963
24325W        W88082   9.815   2.307   2.266
24326W        W88083  43.474   3.717   2.806
24327W        W88084   7.801  14.196   2.685
24328W        W88085  20.582  40.338  12.498
24329W        W88086   9.177  10.753  13.347
24330W        W88087   1.460   6.255   2.289
24331W        W88088  40.896  38.493  13.470
24332W        W88089  33.939  15.212  10.576
24333W        W88090   5.872  44.005   1.317
24334W        W88091  40.322  44.367  14.784
24335W        W88092  21.201  43.774  10.541
24336W        W88093  20.686  43.016  12.917
24337W        W88094  27.606   4.716   0.822
24338W        W88095   3.249  25.113   4.231
24339W        W88096   0.831  17.154  14.808
24340W        W88097  12.820  40.446   3.842
24341W        W88098  15.129  24.560   0.431
24342W        W88099  10.359  11.304   5.292
24343W        W88100  39.510  34.074  13.442
24344W        W88101  30.983  13.281  12.562
24345W        W88102  28.627  11.819  13.927
24346W        W88103  22.548  32.050  12.828
24347W        W88104  38.369  22.225  13.481
24348W        W88105  29.099  38.510   4.168
24349W        W88106  44.286  33.560   4.675
24350W        W88107  20.696  10.780  12.377
24351W        W88108  42.800  20.712   0.359
24352W        W88109  24.721   1.777  11.480
24353W        W88110  17.212  23.063  11.986
24354W        W88111   5.752   6.240   2.216
24355W        W88112  35.910  39.537   3.327
24356W        W88113  40.817  22.109  11.022
24357W        W88114  10.748   5.224   1.297
24358W        W88115  20.210  24.150   4.230
24359W        W88116  22.093  18.281  13.813
24360W        W88117  32.073   8.682  14.906
24361W        W88118  43.850  31.077  12.096
24362W        W88119  22.561  37.497   1.348
24363W        W88120   7.239   9.258   3.771
24364W        W88121   7.795   2.897   2.249
24365W        W88122  10.276   8.787   0.891
24366W        W88123  24.592  21.619   0.858
24367W        W88124  17.287  26.610  11.031
24368W        W88125   9.770  40.031  12.348
24369W        W88126  12.237  31.078   4.262
24370W        W88127   4.234  40.417   0.281
24371W        W88128  19.633  34.077  12.452
24372W        W88129  32.962  19.237  13.794
24373W        W88130  40.922   6.332  11.932
24374W        W88131   0.316  26.203   3.349
24375W        W88132  38.418  33.042   4.119
24376W        W88133  16.624  30.992   0.904
24377W        W88134  20.646   1.379  14.873
24378W        W88135   6.790  20.210  13.798
24379W        W88136   3.845  16.115   4.326
24380W        W88137   2.897   1.923  12.406
24381W        W88138  13.780  34.110   4.669
24382W        W88139  32.450   8.274  12.469
24383W        W88140   4.937  31.537   1.699
24384W        W88141  32.470  33.110   4.712
24385W        W88142  31.014  27.091  14.007
24386W        W88143  19.219   9.839  11.572
24387W        W88144  34.091  25.661  12.900
24388W        W88145  27.993  23.221  11.017
24389W        W88146  28.634  29.942  14.296
24390W        W88147  21.231  16.797  10.437
24391W        W88148   9.721  31.914  13.425
24392W        W88149  20.525  24.072   1.899
24393W        W88150  35.386   8.700  14.890
24394W        W88151   7.248  23.542   0.904
24395W        W88152  18.119   6.878  14.411
24396W        W88153  30.944   5.790  13.496
24397W        W88154   9.162  13.640   3.787
24398W        W88155  19.112  28.465   2.263
24399W        W88156  34.993  18.276  14.404
24400W        W88157  12.317  15.213  12.478
24401W        W88158  44.480  32.968   0.932
24402W        W88159   8.169  24.529   3.385
24403W        W88160  26.556  11.838   2.378
24404W        W88161  19.252  44.970  14.378
24405W        W88162  24.709   8.763   2.852
24406W        W88163  26.072   6.416   0.376
24407W        W88164  31.115  12.783   1.924
24408W        W88165  28.062   1.935   4.736
24409W        W88166  41.798  13.791   4.637
24410W        W88167  39.359  24.676  14.299
24411W        W88168   4.338  43.299   1.918
24412W        W88169  28.075  40.897   0.428
24413W        W88170  14.223  14.267   5.282
24414W        W88171   2.886   4.881   2.813
24415W        W88172   2.241  25.084  14.819
24416W        W88173  28.463  19.762  12.387
24417W        W88174  13.723  34.100   0.315
24418W        W88175  32.522  12.203  10.888
24419W        W88176  27.594   7.339   0.281
24420W        W88177  28.459  33.467   3.163
24421W        W88178  15.724   0.805   4.723
24422W        W88179   2.878  35.951  10.946
24423W        W88180  18.617   3.296   2.727
24424W        W88181   0.850  14.798  14.384
24425W        W88182  13.629  20.659  10.518
24426W        W88183  11.837   1.882   5.271
24427W        W88184   6.854  36.351  13.966
24428W        W88185   8.278  38.856  11.415
24429W        W88186   9.747   8.836   0.789
24430W        W88187   4.699   8.795  11.455
24431W        W88188  24.704  29.567   4.250
24432W        W88189  20.622  37.432   2.902
24433W        W88190  21.517  37.581  11.894
24434W        W88191  22.102  24.049  13.040
24435W        W88192  27.073  21.595   1.719
24436W        W88193  39.849   3.424   3.789
24437W        W88194  21.167   3.909   0.802
24438W        W88195  15.293  34.509  14.367
24439W        W88196  14.302  30.988   0.441
24440W        W88197  44.968  42.452   2.901
24441W        W88198   8.732  32.042   2.876
24442W        W88199  42.323  16.090  14.990
24443W        W88200  18.596  34.559   3.727
24444W        W88201  38.994  14.235   3.275
24445W        W88202  28.591  40.961  12.044
24446W        W88203  32.077  44.763   2.728
24447W        W88204  11.670  43.798   2.739
24448W        W88205  17.630   7.302  10.624
24449W        W88206  40.823  16.285   1.260
24450W        W88207  44.293  29.098   2.419
24451W        W88208  25.010  28.609   4.628
24452W        W88209   3.226  19.743   3.725
24453W        W88210   1.321  38.829   3.812
24454W        W88211   7.357  41.497  11.516
24455W        W88212  27.120  25.640   4.126
24456W        W88213   0.489   5.873   2.205
24457W        W88214  34.512  24.193  13.374
24458W        W88215  33.384  30.967  11.400
24459W        W88216  17.633  11.367  11.086
24460W        W88217  10.658  33.077  14.497
24461W        W88218  41.334   6.259  14.444
24462W        W88219  11.316  12.680   3.218
24463W        W88220  31.897   5.835   4.345
24464W        W88221   2.294  15.145  13.936
24465W        W88222  19.666  30.479   4.346
24466W        W88223  42.465   9.839  11.039
24467W        W88224   4.901  18.736  13.941
24468W        W88225  28.935   8.845  11.978
24469W        W88226   4.303   4.306  11.021
24470W        W88227  11.360  36.550   0.400
24471W        W88228  31.958  32.425  11.045
24472W        W88229   1.262  34.471   0.766
24473W        W88230  16.317  32.432   4.328
24474W        W88231   9.656  27.068  12.426
24475W        W88232  37.476   4.728  11.019
24476W        W88233  21.517  31.424  11.001
24477W        W88234   8.215  11.272  13.395
24478W        W88235  38.847  32.893  11.508
24479W        W88236  20.651  12.625   2.295
24480W        W88237  19.739  14.258  11.027
24481W        W88238  30.526  18.668  14.381
24482W        W88239  36.405  12.198   0.399
24483W        W88240  13.230  24.221  12.467
24484W        W88241  32.037  44.300  12.359
24485W        W88242  21.230  19.684  14.315
24486W        W88243  20.113  13.325  12.986
24487W        W88244  28.143  13.206   4.696
24488W        W88245   2.300  27.660   4.784
24489W        W88246   4.348  21.176  10.542
24490W        W88247  18.262  24.634   2.689
24491W        W88248  11.839   0.451   3.669
24492W        W88249   1.831  32.973  12.523
24493W        W88250  17.588  41.986  12.044
24494W        W88251  44.332  26.504   0.882
24495W        W88252   8.676   7.206   4.168
24496W        W88253   2.389  26.142  10.505
24497W        W88254  28.174  23.583  10.972
24498W        W88255  14.249  21.588  14.872
24499W        W88256  22.089  35.064   3.636
24500W        W88257  14.339  40.993   2.850
24501W        W88258   5.740  22.520  12.565
24502W        W88259   5.911  34.430   0.841
24503W        W88260  24.131  33.579  14.880
24504W        W88261  31.542  19.160   1.787
24505W        W88262  19.120  15.677   0.805
24506W        W88263   4.406  23.038  10.619
24507W        W88264  10.229  26.122  14.982
24508W        W88265  24.026   0.374  14.923
24509W        W88266   6.281  16.126   4.610
24510W        W88267  12.730  36.466  14.281
24511W        W88268  19.172  20.274   0.416
24512W        W88269  28.143  39.971   1.282
24513W        W88270  21.216  41.441   4.143
24514W        W88271   9.361  24.647   3.649
24515W        W88272  19.109  38.564  10.548
24516W        W88273  21.747  40.039  12.488
24517W        W88274  17.237  28.035   5.264
24518W        W88275  40.435  17.197   9.970
24519W        W88276  37.074   0.399  10.597
24520W        W88277  21.131   2.238   0.788
24521W        W88278   3.821  32.596   4.833
24522W        W88279   8.231  21.620  12.889
24523W        W88280  38.520   6.401  13.339
24524W        W88281  40.830  12.277  11.871
24525W        W88282  26.625  20.121   1.824
24526W        W88283  28.934   3.347  13.375
24527W        W88284  19.193  15.765  12.541
24528W        W88285  24.522  20.088   1.312
24529W        W88286  30.136  14.315  13.825
24530W        W88287  41.928   1.795   4.630
24531W        W88288  21.168  20.102  11.051
24532W        W88289   2.777  16.272   0.421
24533W        W88290  34.991   5.404  12.455
24534W        W88291  32.398  13.243  13.936
24535W        W88292   1.329  35.384  14.433
24536W        W88293  10.863   8.820   1.416
24537W        W88294  27.081  19.658   0.794
24538W        W88295   3.734  17.263  10.415
24539W        W88296  18.740   2.424   1.412
24540W        W88297  41.787   0.383  13.854
24541W        W88298  22.587  35.973   2.323
24542W        W88299  14.167  13.199   1.931
24543W        W88300   5.828   0.424   3.783
24544W        W88301  40.985  37.870   2.333
24545W        W88302  24.670   5.403   0.265
24546W        W88303  42.881  18.760  13.371
24547W        W88304  12.767  33.470   2.264
24548W        W88305  29.009  30.576  14.885
24549W        W88306  26.992   0.408  14.853
24550W        W88307  16.229  40.350  13.394
24551W        W88308   8.349  40.460  14.809
24552W        W88309  32.624  42.488   2.330
24553W        W88310  36.075   6.681  10.981
24554W        W88311  29.006  17.719   3.304
24555W        W88312   1.939  17.721  13.944
24556W        W88313  38.529   5.912   2.198
24557W        W88314   5.306  43.896  14.804
24558W        W88315  37.008  29.539   0.305
24559W        W88316  16.645  19.105  14.027
24560W        W88317   5.715  14.736  14.496
24561W        W88318  14.758  42.511   0.294
24562W        W88319  11.724  27.496   4.709
24563W        W88320   2.353  11.322   4.200
24564W        W88321  26.174  24.073   3.275
24565W        W88322  44.841  37.939   3.301
24566W        W88323  28.615  26.971  12.520
24567W        W88324  43.805  36.026  10.641
24568W        W88325  14.725  30.956   0.412
24569W        W88326  12.271  12.166  11.524
24570W        W88327  25.025  28.626  14.459
24571W        W88328   0.369  26.014   2.269
24572W        W88329  14.157   6.836  14.988
24573W        W88330  37.069   6.371   0.875
24574W        W88331  38.910  33.512   9.934
24575W        W88332   8.176  11.708  11.590
24576W        W88333  26.691  17.678  12.956
24577W        W88334  30.635  42.897  11.912
24578W        W88335  40.021   4.815   0.252
24579W        W88336  37.005   7.730   2.718
24580W        W88337  12.238   1.866   0.320
24581W        W88338  29.537  28.059  13.875
24582W        W88339   6.731   0.960  13.824
24583W        W88340  17.198  37.534  11.021
24584W        W88341  43.415  23.502   2.217
24585W        W88342  28.955  38.353   2.795
24586W        W88343  14.159  11.863   1.417
24587W        W88344   8.302  25.176   3.276
24588W        W88345   4.279  41.462  11.519
24589W        W88346  13.643   5.197   4.255
24590W        W88347  11.368  34.049   3.321
24591W        W88348  26.993  15.656  10.912
24592W        W88349  28.062  14.112   1.877
24593W        W88350  39.385  24.489   1.415
24594W        W88351  32.011  32.114   4.779
24595W        W88352  10.278   4.368   1.365
24596W        W88353  25.701   7.895   4.682
24597W        W88354   0.400   1.296  14.930
24598W        W88355  37.434   0.882   2.269
24599W        W88356  23.632  36.993  11.878
24600W        W88357  25.577  42.855   1.429
24601W        W88358  17.278   8.714  10.567
24602W        W88359   8.857   9.276  14.347
24603W        W88360  21.517  21.049  13.386
24604W        W88361  42.335  40.890   2.322
24605W        W88362  26.644   1.300   0.934
24606W        W88363  16.632  33.948   4.652
24607W        W88364  42.880  35.972   1.345
24608W        W88365  44.827   3.722  11.552
24609W        W88366  11.661  21.579   2.261
24610W        W88367   7.673   0.901   1.886
24611W        W88368  33.594  23.090  13.864
24612W        W88369   3.791   2.424  11.512
24613W        W88370   8.804   2.364  11.584
24614W        W88371  29.985  30.097   2.818
24615W        W88372  43.947  32.512  11.550
24616W        W88373  13.230  10.666   4.716
24617W        W88374  10.658  24.481   2.672
24618W        W88375  18.116  34.418  14.839
24619W        W88376  25.677  25.088  11.393
24620W        W88377   8.342  22.601   3.226
24621W        W88378  10.361  35.366  12.494
24622W        W88379   7.668   5.274   2.276
24623W        W88380   7.860   3.311  11.010
24624W        W88381  39.033  36.501  13.880
24625W        W88382  16.240   2.368   1.245
24626W        W88383  18.140  27.089  11.058
24627W        W88384  10.808  23.203   2.350
24628W        W88385  24.105  23.518  11.880
24629W        W88386  25.984  24.692   2.814
24630W        W88387  12.670  10.173  11.556
24631W        W88388  41.382  36.415  10.445
24632W        W88389  39.015  19.150  12.896
24633W        W88390  43.847  25.638   0.786
24634W        W88391  32.141  32.995  11.425
24635W        W88392  36.555  20.729   1.903
24636W        W88393  34.968  32.400   1.449
24637W        W88394  35.974  14.734  13.472
24638W        W88395  38.507  22.222  12.378
24639W        W88396  42.298   3.939   0.318
24640W        W88397  22.130   4.280   0.387
24641W        W88398  25.597   1.855  13.876
24642W        W88399  28.681  18.561  12.395
24643W        W88400  23.143   3.828  13.876
24644W        W88401  33.131  28.072  13.986
24645W        W88402  18.586  10.258   3.838
24646W        W88403  37.407  30.644  12.515
24647W        W88404  14.784  19.067  11.435
24648W        W88405  13.823   6.274  14.417
24649W        W88406  10.242   0.831  13.514
24650W        W88407   4.804  29.587  11.032
24651W        W88408  35.017  12.295   3.260
24652W        W88409  43.325  27.015   1.426
24653W        W88410  22.011  35.079   0.347
24654W        W88411   3.460  21.027   3.781
24655W        W88412  20.055  36.880   2.740
24656W        W88413  12.212  42.336  14.964
24657W        W88414  29.504  38.907   1.304
24658W        W88415  28.963   2.733  10.481
24659W        W88416  38.035  36.864   2.263
24660W        W88417  28.104  13.614  14.835
24661W        W88418  38.076   3.348   1.245
24662W        W88419  11.680  30.621  11.490
24663W        W88420  43.389  16.812   3.240
24664W        W88421  34.971  26.563  13.875
24665W        W88422  16.609  10.749   1.212
24666W        W88423  20.558  32.935   0.272
24667W        W88424   3.776  16.273  10.631
24668W        W88425  30.115  35.379  14.912
24669W        W88426  20.589  30.496  13.393
24670W        W88427  19.755  11.129   2.379
24671W        W88428  20.685   3.786  11.012
24672W        W88429  15.216  26.533   2.767
24673W        W88430  24.143  11.813  13.395
24674W        W88431  44.853   4.294  11.404
24675W        W88432  17.066  12.780   1.399
24676W        W88433  42.894   5.881   2.317
24677W        W88434  23.515  41.963  12.523
24678W        W88435  26.186  41.502   2.181
24679W        W88436  41.015  40.537   1.808
24680W        W88437  34.477  12.851  12.086
24681W        W88438  37.920  26.666  12.997
24682W        W88439  29.017  27.550   4.164
24683W        W88440  12.336  31.142  11.988
24684W        W88441  26.678  31.613   0.279
24685W        W88442  38.392  31.913   4.785
24686W        W88443   2.403  39.386  14.406
24687W        W88444  39.319  10.836   2.330
24688W        W88445  39.056  33.609  11.468
24689W        W88446  26.612  22.670   1.284
24690W        W88447  43.456  44.459   3.641
24691W        W88448  20.754  26.150  10.541
24692W        W88449  23.035   3.761  10.910
24693W        W88450  22.713  25.011   4.322
24694W        W88451   8.808   4.869   0.791
24695W        W88452  22.043  28.134   0.324
24696W        W88453  42.525  22.159   3.741
24697W        W88454  32.419  26.957  12.903
24698W        W88455  19.628  14.172  11.930
24699W        W88456  20.687   6.259  14.304
24700W        W88457   1.889  43.428  10.431
24701W        W88458   6.864  32.441  13.856
24702W        W88459  20.120  20.658   4.199
24703W        W88460  37.346  37.966   4.235
24704W        W88461  37.054  38.830   2.690
24705W        W88462  26.195  15.693  12.932
24706W        W88463  13.197  15.090  13.051
24707W        W88464  39.041   6.706   4.623
24708W        W88465  42.493   4.726  12.935
24709W        W88466  44.851  13.749   2.304
24710W        W88467  16.145  12.801   1.451
24711W        W88468  15.747  34.495  11.476
24712W        W88469  35.945  12.242   2.706
24713W        W88470   3.827  18.143   3.742
24714W        W88471   1.449  11.202   1.935
24715W        W88472  38.413  39.407   3.196
24716W        W88473  27.596  10.849   3.718
24717W        W88474  26.506  35.467   1.239
24718W        W88475  16.180  10.263  14.847
24719W        W88476   6.352  23.655   0.844
24720W        W88477   9.324  41.798  10.976
24721W        W88478   6.780  32.415  11.405
24722W        W88479   2.332  36.002   0.805
24723W        W88480  21.245  44.296   4.731
24724W        W88481  34.555  31.495   1.378
24725W        W88482  22.154  42.429   2.285
24726W        W88483  15.794  42.420   1.213
24727W        W88484  12.247  31.473  11.001
24728W        W88485  35.579  42.963  13.334
24729W        W88486  35.546  32.416  14.379
24730W        W88487  17.616  17.677  11.508
24731W        W88488  38.888  33.934   4.340
24732W        W88489  11.767  33.559   4.265
24733W        W88490  25.161   1.370   3.224
24734W        W88491   2.838  10.382  12.925
24735W        W88492   1.745  30.013  14.347
24736W        W88493  40.820  31.958   2.238
24737W        W88494  16.782  44.987  11.403
24738W        W88495  26.462  28.064  12.448
24739W        W88496  43.285   9.181   2.877
24740W        W88497  40.441  21.570   0.431
24741W        W88498  10.682  37.984   4.685
24742W        W88499   8.172  43.867   3.852
24743W        W88500   1.453  13.714  14.818
24744W        W88501  15.271  24.655  14.373
24745W        W88502   9.384   0.337  12.540
24746W        W88503  16.231  43.285  10.156
24747W        W88504   2.746  16.303   2.869
24748W        W88505  38.427  27.485   2.334
24749W        W88506  40.333  33.383  12.415
24750W        W88507   1.458  33.408  14.310
24751W        W88508  34.075   4.368   2.806
24752W        W88509  18.788  28.166   5.201
24753W        W88510  36.416  10.714  11.977
24754W        W88511  33.544   8.691  11.437
24755W        W88512   7.178   7.229  14.881
24756W        W88513  43.020  39.002   3.161
24757W        W88514   7.754   6.860  14.797
24758W        W88515  11.811  39.418  11.899
24759W        W88516  17.209  16.672  12.514
24760W        W88517  32.010  28.012   1.357
24761W        W88518  15.758  38.346  13.040
24762W        W88519  14.757   3.246   1.375
24763W        W88520  32.901   4.895  11.564
24764W        W88521  23.685  19.616  11.443
24765W        W88522   6.406  24.034  13.322
24766W        W88523  37.474  24.500  13.014
24767W        W88524  38.828   7.312  12.434
24768W        W88525  27.948   5.283  13.461
24769W        W88526  35.370  11.707  11.128
24770W        W88527  37.405   4.315   1.750
24771W        W88528  37.900  14.190   5.220
24772W        W88529  31.928  30.656  12.061
24773W        W88530  41.522  36.079   3.209
24774W        W88531  33.545  19.665  13.985
24775W        W88532  17.228  40.376  14.373
24776W        W88533  38.551  16.221   0.352
24777W        W88534  16.145  37.515   1.904
24778W        W88535  19.709  41.862  10.518
24779W        W88536   7.885  41.421   1.293
24780W        W88537   9.789  12.836   3.640
24781W        W88538  22.605  15.274   4.641
24782W        W88539  44.799  16.593  12.533
24783W        W88540  16.231  36.039   5.139
24784W        W88541  40.396  12.324   3.160
24785W        W88542  33.987  13.201  14.462
24786W        W88543   4.837   7.684   4.228
24787W        W88544  20.743   6.247  13.329
24788W        W88545  36.423  25.549   2.270
24789W        W88546  38.933  37.087   4.346
24790W        W88547  10.708   5.372   0.275
24791W        W88548  15.787  41.435  14.029
24792W        W88549  32.615  10.310  11.447
24793W        W88550  27.124   8.742   1.782
24794W        W88551  30.417   1.801  13.027
24795W        W88552  20.178  12.275  12.568
24796W        W88553  31.133  10.334   1.402
24797W        W88554  36.432   4.300  10.090
24798W        W88555   1.787  25.683  12.388
24799W        W88556  27.666  23.236   1.759
24800W        W88557  33.028  28.642  11.955
24801W        W88558   8.880  30.980  14.021
24802W        W88559  17.200  43.873  12.079
24803W        W88560  38.486  12.288   2.684
24804W        W88561  22.591  34.483  12.015
24805W        W88562   5.229  36.555   2.268
24806W        W88563  20.689  37.556   0.909
24807W        W88564  24.107  35.064  12.401
24808W        W88565   1.443  38.855   0.319
24809W        W88566  23.530   0.263   4.779
24810W        W88567  36.904  18.058  13.804
24811W        W88568  41.835   9.252  12.995
24812W        W88569  24.507  27.966   1.227
24813W        W88570   8.788  29.084  13.313
24814W        W88571  42.781  17.732  11.892
24815W        W88572  30.599  23.042  12.864
24816W        W88573  40.422  11.757   2.873
24817W        W88574   4.878   2.231   0.299
24818W        W88575  35.575   5.212  12.910
24819W        W88576   4.756  37.032   1.701
24820W        W88577  16.073  43.891  12.478
24821W        W88578  10.719  24.978  14.303
24822W        W88579   6.814  44.982  14.484
24823W        W88580  15.819   9.728   1.371
24824W        W88581  32.102  26.524   1.292
24825W        W88582  30.925   2.964   2.325
24826W        W88583   7.176  28.024  10.949
24827W        W88584  39.383  19.170  11.121
24828W        W88585  44.495  44.819   1.381
24829W        W88586  17.203  41.332   9.988
24830W        W88587  35.866  44.967   0.385
24831W        W88588   9.178  21.707  11.949
24832W        W88589  11.176  39.560  10.540
24833W        W88590  25.705  41.901  13.507
24834W        W88591   1.745   7.195  11.430
24835W        W88592  22.648  40.549   1.779
24836W        W88593  13.820  26.701  10.635
24837W        W88594  30.152  25.487   3.212
24838W        W88595  28.573  16.198   4.617
24839W        W88596   0.781  18.723   0.831
24840W        W88597   4.716  22.212   4.324
24841W        W88598  24.712  27.026   3.788
24842W        W88599  26.038  38.448   2.836
24843W        W88600  30.021  19.175  13.996
24844W        W88601  20.196   9.365   1.854
24845W        W88602   8.900  14.703   1.430
24846W        W88603   7.851  40.984  13.501
24847W        W88604  13.692   1.961  13.388
24848W        W88605  41.379  10.383   1.257
24849W        W88606  27.652  30.921  14.506
24850W        W88607  24.589  27.973  12.400
24851W        W88608  31.643   5.891  10.495
24852W        W88609   0.974  33.940  12.062
24853W        W88610   0.261  14.627   1.403
24854W        W88611  25.971   7.344   2.877
24855W        W88612  44.963  23.733   4.352
24856W        W88613  36.050  18.050  14.987
24857W        W88614  30.046  13.701  13.851
24858W        W88615  21.043  35.100  12.544
24859W        W88616  33.960  21.047   2.703
24860W        W88617  37.343  43.928   0.267
24861W        W88618  13.149  19.561  13.042
24862W        W88619  29.056  41.421   2.703
24863W        W88620   9.302  38.915   3.642
24864W        W88621  23.185  41.467  11.533
24865W        W88622  18.181  20.751  11.396
24866W        W88623  21.120   2.267  10.553
24867W        W88624  31.920  27.500   4.252
24868W        W88625   0.925  43.281   0.456
24869W        W88626  34.896  15.289   0.480
24870W        W88627  27.107  11.278   0.779
24871W        W88628  37.548  12.737   1.223
24872W        W88629  15.779  27.942   2.263
24873W        W88630  18.123  19.671   2.246
24874W        W88631   2.395  23.492   1.860
24875W        W88632   2.781  28.144   2.706
24876W        W88633  19.653  30.459  14.866
24877W        W88634  32.975  16.717   1.829
24878W        W88635   1.387  21.684  14.871
24879W        W88636  19.537  34.534  11.409
24880W        W88637  32.888  11.131  12.975
24881W        W88638  22.624  17.163  11.382
24882W        W88639   1.264   2.368  13.813
24883W        W88640  15.237  15.123  11.379
24884W        W88641  42.399   3.816  13.912
24885W        W88642  42.924  36.430  11.520
24886W        W88643  33.085  25.597  11.447
24887W        W88644  16.127  31.539   4.738
24888W        W88645  21.584  11.335   4.786
24889W        W88646   4.849  15.312   2.362
24890W        W88647  36.040  30.443   3.757
24891W        W88648   5.854  29.019  13.344
24892W        W88649  21.568   1.406  11.947
24893W        W88650  18.115   8.681  12.023
24894W        W88651  42.484  41.927   0.323
24895W        W88652  13.275  34.076  10.954
24896W        W88653  21.043  38.001   4.153
24897W        W88654  36.845  38.951   4.645
24898W        W88655  44.965  11.728   0.901
24899W        W88656  19.589  16.776  13.359
24900W        W88657  14.142  39.031   3.338
24901W        W88658  35.914   9.868   0.872
24902W        W88659  36.554  27.150  11.586
24903W        W88660   6.791  27.590  11.933
24904W        W88661   8.839  14.168   1.854
24905W        W88662  39.448  34.564   2.331
24906W        W88663  25.658   9.779  13.349
24907W        W88664  26.657  41.029   1.236
24908W        W88665  10.143  18.748   4.691
24909W        W88666  40.340  37.957  11.602
24910W        W88667  38.011   4.437  10.071
24911W        W88668  29.524  39.851  14.948
24912W        W88669  43.008  30.495   1.294
24913W        W88670  38.026  42.427  14.829
24914W        W88671  19.237  44.912  10.568
24915W        W88672  39.045   4.269   2.219
24916W        W88673  13.316  10.783  14.396
24917W        W88674   8.752  36.069  11.995
24918W        W88675   8.656  20.100   4.140
24919W        W88676   0.466   3.859  10.996
24920W        W88677  32.889  44.911  10.560
24921W        W88678   6.363  31.961   3.317
24922W        W88679  37.559   1.409  13.438
24923W        W88680  24.192  22.692  14.977
24924W        W88681  20.642  26.703   0.797
24925W        W88682  39.047  40.506  10.423
24926W        W88683  22.744  22.166   2.708
24927W        W88684  24.126  16.266  13.389
24928W        W88685   3.363   5.934  12.445
24929W        W88686  20.139  12.642  12.370
24930W        W88687   6.838  15.706   4.622
24931W        W88688   2.368   5.417   2.840
24932W        W88689   6.770  17.226  14.419
24933W        W88690   5.893  30.565  10.427
24934W        W88691  18.784   1.262  14.969
24935W        W88692   1.902   3.854  13.424
24936W        W88693  42.837  37.455   0.810
24937W        W88694   3.744  28.496  13.861
24938W        W88695  32.449  38.489   4.725
24939W        W88696   6.845  23.037  13.502
24940W        W88697   3.912  37.848   1.399
24941W        W88698   3.791  40.310  13.921
24942W        W88699  28.586  13.232  11.107
24943W        W88700  36.938  11.698  12.033
24944W        W88701  43.898  11.625   2.795
24945W        W88702  25.978  16.145   5.158
24946W        W88703  19.723  11.361  14.478
24947W        W88704  36.907  28.518   3.734
24948W        W88705  42.471   2.409  14.855
24949W        W88706   3.331  28.049  12.568
24950W        W88707  15.328  37.078  14.424
24951W        W88708  42.867   3.877   0.734
24952W        W88709  34.522  42.975  14.355
24953W        W88710  11.794  39.523  14.856
24954W        W88711  14.175   0.472  12.029
24955W        W88712  16.238  24.670  11.096
24956W        W88713   1.794   7.780   4.781
24957W        W88714  19.579  19.156   0.872
24958W        W88715  18.547  19.255  11.970
24959W        W88716  16.114   0.790   1.750
24960W        W88717  41.437   1.317  12.078
24961W        W88718  41.025  28.999   4.128
24962W        W88719  41.856  18.740   4.133
24963W        W88720   9.274  37.355  11.895
24964W        W88721  39.875  44.270  12.059
24965W        W88722  25.038   2.430   1.413
24966W        W88723  11.628  36.879   1.280
24967W        W88724  37.849  27.628   4.652
24968W        W88725  19.097  31.963   0.322
24969W        W88726  14.615  18.717  14.886
24970W        W88727  17.228  38.448  12.036
24971W        W88728  16.274  41.383  14.811
24972W        W88729   1.366  10.839  13.318
24973W        W88730  41.817   3.276  10.980
24974W        W88731  19.568   6.801   2.286
24975W        W88732   2.924  16.804  11.958
24976W        W88733  15.307  24.651   3.237
24977W        W88734  16.272  12.213   4.182
24978W        W88735  23.690   5.220   1.357
24979W        W88736  34.537  21.243  12.403
24980W        W88737  30.060  18.548   4.163
24981W        W88738   8.683  13.744   3.802
24982W        W88739  22.677   4.782  10.149
24983W        W88740  38.457  13.720   4.120
24984W        W88741  27.551  27.556  12.542
24985W        W88742   6.811  33.063   2.725
24986W        W88743   2.800  42.341  12.069
24987W        W88744  29.636  35.564  12.950
24988W        W88745   7.171  17.798  14.480
24989W        W88746  41.025   8.366  13.059
24990W        W88747  31.957  38.941  11.447
24991W        W88748  34.112  19.554   4.160
24992W        W88749  28.941  44.460   2.716
24993W        W88750  40.843  21.595  12.509
24994W        W88751  30.635  33.129  14.307
24995W        W88752  31.923  36.506   5.182
24996W        W88753   2.279  29.604   3.344
24997W        W88754  11.205  41.500   2.892
24998W        W88755   1.237  31.114   4.830
24999W        W88756  27.040  16.167  14.952
25000W        W88757  23.672  14.712  10.491
25001W        W88758  24.570  21.581   3.840
25002W        W88759  41.429  16.667  14.868
25003W        W88760  25.578  13.756  12.396
25004W        W88761  42.830  31.901   3.679
25005W        W88762   5.195  32.998   3.656
25006W        W88763  27.453  35.067   4.726
25007W        W88764   9.168  38.512  11.459
25008W        W88765   0.360   6.360  11.036
25009W        W88766  36.467   1.450  14.496
25010W        W88767  43.977  14.235   0.790
25011W        W88768  14.308  40.388   4.120
25012W        W88769   6.185   6.333   2.798
25013W        W88770   3.435  33.616   3.823
25014W        W88771  41.400  13.237  13.989
25015W        W88772   6.746  22.023   3.782
25016W        W88773  20.606  27.494  12.386
25017W        W88774  23.218  29.553   4.624
25018W        W88775  40.874   9.799  10.969
25019W        W88776  40.911  13.829   4.652
25020W        W88777  32.486  20.248  11.472
25021W        W88778  40.344   8.881  11.971
25022W        W88779   0.785  15.771  12.339
25023W        W88780  19.589   3.805   2.331
25024W        W88781  42.370  33.552  14.500
25025W        W88782  13.231  39.984   2.723
25026W        W88783  32.131  20.730   0.268
25027W        W88784  19.694  27.540   3.769
25028W        W88785  30.930   8.658   1.371
25029W        W88786  13.251  24.016   4.222
25030W        W88787  34.101  31.048  11.056
25031W        W88788  23.987  32.995  12.467
25032W        W88789  22.525   7.669   2.780
25033W        W88790  43.969   1.434   2.393
25034W        W88791  29.458  37.458   3.750
25035W        W88792  29.541   8.811   0.770
25036W        W88793   2.942  43.913   4.737
25037W        W88794  38.364   3.331   2.797
25038W        W88795  43.779  42.369   4.610
25039W        W88796   1.358  13.237   4.618
25040W        W88797  16.174  42.438  14.829
25041W        W88798   7.874   6.188   2.782
25042W        W88799   0.755   2.759  14.364
25043W        W88800  39.035   8.665   3.313
25044W        W88801  32.566   4.933  11.116
25045W        W88802   4.709   7.266  12.869
25046W        W88803   0.910  14.630  13.022
25047W        W88804  31.438  14.749  12.839
25048W        W88805   6.774  39.357  12.070
25049W        W88806   2.740  22.574  14.398
25050W        W88807   3.437   1.932   3.639
25051W        W88808  23.131  28.122   1.240
25052W        W88809   0.883  11.307  14.977
25053W        W88810  15.657   3.248  10.403
25054W        W88811  20.612   6.848   3.265
25055W        W88812  28.615   0.748   2.849
25056W        W88813  41.336  17.685  13.934
25057W        W88814  38.843  38.838   1.314
25058W        W88815   7.200  25.638   2.282
25059W        W88816  41.845  31.450   3.676
25060W        W88817  19.203   7.855   3.324
25061W        W88818  26.564   3.871   3.736
25062W        W88819  29.521  19.080  14.976
25063W        W88820  29.985  33.932  13.941
25064W        W88821  33.878  22.607  13.394
25065W        W88822  35.975  13.316   2.358
25066W        W88823  36.542  41.979   0.287
25067W        W88824  38.366  17.716  13.520
25068W        W88825  28.180  25.159   2.214
25069W        W88826  33.006   8.361  11.038
25070W        W88827  43.389  40.984  14.939
25071W        W88828  25.980  44.783  12.541
25072W        W88829  22.019  25.060   2.755
25073W        W88830   0.256  26.099  13.929
25074W        W88831  18.786  34.094   5.278
25075W        W88832  27.957  33.431   3.773
25076W        W88833   1.276  44.375   2.833
25077W        W88834  29.168   0.953  11.526
25078W        W88835  41.511  11.867  10.991
25079W        W88836   4.800  25.015   1.247
25080W        W88837  28.611   1.799   2.182
25081W        W88838  19.779  44.847   0.469
25082W        W88839  32.511  39.532  10.439
25083W        W88840  16.315  26.030  10.952
25084W        W88841   9.769   9.682   0.833
25085W        W88842  32.592  13.772  13.422
25086W        W88843  11.265  33.504  11.871
25087W        W88844  43.849   7.370  14.465
25088W        W88845  35.863  18.153   0.776
25089W        W88846  12.135  38.065  13.342
25090W        W88847   8.717  12.328   4.687
25091W        W88848  30.557   5.371   5.162
25092W        W88849  12.622   0.819  12.967
25093W        W88850  20.698  31.587   3.759
25094W        W88851  17.147  12.186  11.922
25095W        W88852  44.945   2.365  14.357
25096W        W88853  18.760   6.825   0.439
25097W        W88854  13.721  13.305   1.929
25098W        W88855  15.121  10.635  10.930
25099W        W88856  18.640  23.022   4.659
25100W        W88857  37.544  34.453  13.811
25101W        W88858  18.771  37.457  12.829
25102W        W88859   6.284   7.682  14.941
25103W        W88860  24.096  13.716  12.536
25104W        W88861  33.419  30.929   2.359
25105W        W88862  24.171  19.597   2.417
25106W        W88863  17.082  21.244  14.344
25107W        W88864  31.457  23.056  10.903
25108W        W88865  19.665  14.142   2.299
25109W        W88866  39.490   7.220  10.944
25110W        W88867  33.971  21.548   0.793
25111W        W88868  44.873  14.336  14.405
25112W        W88869   7.882  28.035  14.960
25113W        W88870  13.652  21.595   1.348
25114W        W88871   1.783   1.881   4.672
25115W        W88872  32.489  37.414   3.199
25116W        W88873  29.554  27.113   3.273
25117W        W88874  24.664  24.542   0.455
25118W        W88875   6.783  29.940  10.445
25119W        W88876  22.237  37.385  14.452
25120W        W88877  23.060  11.795  11.403
25121W        W88878  31.964  25.163   3.768
25122W        W88879  35.977  37.410   0.344
25123W        W88880  39.810  29.031   0.764
25124W        W88881  37.491  18.645   4.192
25125W        W88882  30.596  40.913   1.275
25126W        W88883   0.786  27.154  12.941
25127W        W88884  42.868  19.642   4.131
25128W        W88885   9.885   0.941   0.860
25129W        W88886  19.150   0.378  12.976
25130W        W88887  44.776  13.668   0.915
25131W        W88888   2.759  42.404   2.322
25132W        W88889  25.047  31.039   1.927
25133W        W88890  44.347  20.549   1.761
25134W        W88891  33.542  25.474  11.459
25135W        W88892  34.064  35.109  12.425
25136W        W88893  37.581  11.719   4.177
25137W        W88894   0.875  30.105   4.246
25138W        W88895  26.956  42.509   2.730
25139W        W88896  12.132  43.007  10.464
25140W        W88897   3.861  43.396  13.876
25141W        W88898  25.597  12.169  14.347
25142W        W88899  34.396   4.282  10.559
25143W        W88900  10.841  17.725   2.254
25144W        W88901  38.067  35.067   4.310
25145W        W88902  28.661  30.424  10.916
25146W        W88903  34.503  14.817  13.003
25147W        W88904  29.020  18.089   5.629
25148W        W88905   2.771  15.200  14.870
25149W        W88906  22.022  28.527   4.253
25150W        W88907  18.662  19.178   0.366
25151W        W88908  29.670  20.183   1.266
25152W        W88909  13.169  41.291   9.925
25153W        W88910  33.039  31.630   0.873
25154W        W88911  17.609  27.102   1.264
25155W        W88912  42.415   3.831  13.373
25156W        W88913  36.503  43.276  11.926
25157W        W88914   4.826  28.669   2.350
25158W        W88915  44.803  10.357   3.829
25159W        W88916   2.781  34.867   2.740
25160W        W88917   2.307  43.399   2.694
25161W        W88918  31.039  13.209  11.864
25162W        W88919   6.314  22.656   2.704
25163W        W88920   3.866  29.620   2.240
25164W        W88921   4.848  42.963  12.034
25165W        W88922   6.191  42.935  13.012
25166W        W88923   1.379  43.307  13.947
25167W        W88924  44.787  11.751  13.836
25168W        W88925  23.163  43.766  14.414
25169W        W88926  22.247  31.138   3.727
25170W        W88927  29.058   7.237   1.243
25171W        W88928   9.174   5.875   0.822
25172W        W88929   6.301  19.250   4.133
25173W        W88930  44.426   7.698  12.981
25174W        W88931  34.045  28.156  11.567
25175W        W88932  40.859   4.794   2.807
25176W        W88933  31.003   7.396   4.216
25177W        W88934  14.310   2.450  10.577
25178W        W88935   6.374  22.580   5.245
25179W        W88936  35.934  15.664   1.435
25180W        W88937  43.997  12.745  14.777
25181W        W88938  17.276   6.805  11.857
25182W        W88939  33.926   4.768  11.077
25183W        W88940  30.926   2.879   5.645
25184W        W88941  42.005  26.581  13.464
25185W        W88942  12.716  20.577  12.072
25186W        W88943  25.583  35.923   2.695
25187W        W88944  18.200  10.366   1.757
25188W        W88945  31.507  11.799   4.753
25189W        W88946  26.463   6.748   1.828
25190W        W88947   3.413  37.367   0.950
25191W        W88948  40.999   6.822   1.391
25192W        W88949   0.863  40.303  10.593
25193W        W88950   2.916  11.320   0.453
25194W        W88951   1.399  41.526  13.539
25195W        W88952  16.208  29.575   2.761
25196W        W88953  43.864  22.551  10.498
25197W        W88954   0.967   3.362   0.315
25198W        W88955   3.450   4.733   0.807
25199W        W88956   2.287  40.387  12.394
25200W        W88957  18.147  37.540  14.931
25201W        W88958  14.329  15.088   4.237
25202W        W88959  42.517  41.521   4.139
25203W        W88960  25.547   7.845  13.949
25204W        W88961  28.018   7.753  14.951
25205W        W88962  40.374  26.063  14.798
25206W        W88963   0.289  31.124   4.354
25207W        W88964  28.005  26.986   1.291
25208W        W88965  37.969  15.666  14.413
25209W        W88966  18.682  39.326  13.341
25210W        W88967   2.781   9.801  14.990
25211W        W88968  41.846   5.271  11.503
25212W        W88969  32.135  28.637   4.284
25213W        W88970   7.378  27.652  13.872
25214W        W88971   7.219  38.354  13.923
25215W        W88972  29.937  43.324   4.643
25216W        W88973  43.996  18.231   4.158
25217W        W88974   3.935  10.343  12.846
25218W        W88975  33.406  21.031   1.805
25219W        W88976  42.416  42.961  12.885
25220W        W88977  32.476  25.109  11.917
25221W        W88978   5.736  27.979   2.262
25222W        W88979   6.740  44.281  10.455
25223W        W88980  32.552  12.676   0.427
25224W        W88981  22.204  35.372  10.942
25225W        W88982   6.678  40.852  13.502
25226W        W88983  10.701  15.619   3.774
25227W        W88984  38.533  25.605   1.719
25228W        W88985  11.741  21.535  13.453
25229W        W88986  25.664  23.236   1.815
25230W        W88987  38.992  16.078  14.926
25231W        W88988  21.210  27.492  14.926
25232W        W88989  41.851  44.893  13.480
25233W        W88990  25.087  41.799   0.323
25234W        W88991  29.634  18.687  10.545
25235W        W88992   9.223  17.755   3.779
25236W        W88993  37.507  33.099  14.863
25237W        W88994  13.203  39.554  12.062
25238W        W88995  41.536  24.196  14.975
25239W        W88996   3.423  37.526   3.309
25240W        W88997  41.833  13.832   1.222
25241W        W88998  12.632  41.885   1.287
25242W        W88999  41.325   7.881  13.949
25243W        W89000   1.302  29.052   1.219
25244W        W89001  24.110   8.805   1.810
25245W        W89002   1.286  39.546   1.858
25246W        W89003  37.423  43.428   0.867
25247W        W89004   5.233  33.432   0.278
25248W        W89005   3.277   3.870  10.583
25249W        W89006  19.203  38.881   4.150
25250W        W89007  23.204   1.393   2.841
25251W        W89008  35.390  31.476  13.922
25252W        W89009  28.096   9.297  11.592
25253W        W89010  17.604  24.583  13.416
25254W        W89011  11.295  19.088   3.333
25255W        W89012  15.144  20.747  10.527
25256W        W89013  12.645   3.402  10.442
25257W        W89014  41.527  44.432  14.933
25258W        W89015  14.788  30.966   4.799
25259W        W89016  40.426  22.623   1.848
25260W        W89017  37.380  39.816  11.553
25261W        W89018   4.783  17.233   1.700
25262W        W89019   3.456  20.105  10.419
25263W        W89020   3.403  16.151   0.767
25264W        W89021  24.483  30.504  14.304
25265W        W89022   7.219   3.364  12.976
25266W        W89023  27.508  17.084  14.354
25267W        W89024  44.941  17.595  14.851
25268W        W89025  32.504  37.847  13.427
25269W        W89026  25.700  35.997  12.934
25270W        W89027  37.083  17.565  11.090
25271W        W89028  14.797  17.263   9.929
25272W        W89029   1.787  15.758  11.957
25273W        W89030  29.545  13.287   3.315
25274W        W89031  39.005   3.790  11.407
25275W        W89032  13.139  18.552  11.587
25276W        W89033  44.493  35.019  14.959
25277W        W89034  43.285  36.349  11.526
25278W        W89035   9.785  10.770  14.762
25279W        W89036   1.331  14.169  13.329
25280W        W89037  23.037  20.238   1.328
25281W        W89038   4.776   3.749   0.962
25282W        W89039  36.517  20.532  12.046
25283W        W89040  16.217   6.277  13.924
25284W        W89041  43.912  16.575   3.291
25285W        W89042   1.356   9.796   4.186
25286W        W89043   1.428  23.590  14.875
25287W        W89044  36.982  29.002  12.506
25288W        W89045  18.666  12.185   3.194
25289W        W89046   6.684  15.233   3.198
25290W        W89047  31.952  15.820  13.390
25291W        W89048  29.922  38.380   1.801
25292W        W89049  27.111  36.987   1.811
25293W        W89050  12.637   1.970   1.289
25294W        W89051  35.417  10.850  12.408
25295W        W89052  34.950  40.462   1.906
25296W        W89053  40.797  16.643   2.189
25297W        W89054   4.264  37.421  14.298
25298W        W89055  11.311  19.214  13.526
25299W        W89056  18.752  11.271  13.909
25300W        W89057  41.829  20.258   3.370
25301W        W89058  27.076  25.073  13.482
25302W        W89059  16.265  12.760  10.566
25303W        W89060  27.497  38.382   3.236
25304W        W89061  24.493  16.800  14.348
25305W        W89062  10.650  14.817   1.391
25306W        W89063  11.724   6.728  14.504
25307W        W89064  43.949  13.739  11.883
25308W        W89065  30.136  30.449   2.213
25309W        W89066  22.093   2.266  10.558
25310W        W89067   0.427   3.451  13.328
25311W        W89068  16.733  33.891   3.282
25312W        W89069  41.880  43.508   4.125
25313W        W89070  25.193  41.469   4.281
25314W        W89071  27.092   0.876   0.363
25315W        W89072  39.325  40.993   0.752
25316W        W89073  26.175  23.501   0.471
25317W        W89074   4.889   3.751   5.186
25318W        W89075  28.951   4.443  10.437
25319W        W89076  31.934  42.525   4.280
25320W        W89077   5.424  28.105   2.768
25321W        W89078  10.329   7.384   3.662
25322W        W89079  27.448  35.914   3.290
25323W        W89080  41.320  24.658   3.741
25324W        W89081   8.310   6.863  12.091
25325W        W89082  32.535  19.609  10.971
25326W        W89083   9.320   7.223   0.469
25327W        W89084  12.213  13.741   1.303
25328W        W89085   5.439   2.956  13.486
25329W        W89086  25.014  29.065   3.656
25330W        W89087   7.826  40.841  13.049
25331W        W89088  13.813  37.966   0.926
25332W        W89089  16.205  36.399   1.826
25333W        W89090  32.033  38.061   1.311
25334W        W89091  28.951  19.083   4.681
25335W        W89092  41.035  44.884   3.673
25336W        W89093  36.440  13.264  12.480
25337W        W89094  35.008  22.048   0.353
25338W        W89095  18.597  26.549   1.385
25339W        W89096  40.499  44.945  10.924
25340W        W89097  22.706  10.237  10.075
25341W        W89098  25.584   1.959   4.838
25342W        W89099  23.994  21.550   4.276
25343W        W89100  23.102  36.489  14.818
25344W        W89101  44.932  17.742  14.345
25345W        W89102  40.804  40.033   4.674
25346W        W89103  16.109  18.232  10.561
25347W        W89104  24.500  24.192   1.372
25348W        W89105  39.055  17.122   0.808
25349W        W89106   6.308   4.346  13.022
25350W        W89107  18.120  17.064   4.633
25351W        W89108  13.321   9.222   1.916
25352W        W89109  39.817  34.036  11.405
25353W        W89110  33.574   6.797  14.488
25354W        W89111  36.478  13.306   2.236
25355W        W89112  25.197  29.962   3.667
25356W        W89113  21.122  17.207   3.224
25357W        W89114  32.623  39.887  11.024
25358W        W89115  38.339  20.092  10.632
25359W        W89116  15.094  11.850  10.898
25360W        W89117   8.399  40.452   9.979
25361W        W89118  18.251  16.605   5.232
25362W        W89119  29.160  38.565  10.619
25363W        W89120  34.579  15.700  11.907
25364W        W89121  23.677  44.373   2.234
25365W        W89122  28.498   3.804  11.095
25366W        W89123  27.470   1.407  11.424
25367W        W89124  31.940  24.183  14.922
25368W        W89125  44.891  21.605   1.423
25369W        W89126  44.834  27.944   3.219
25370W        W89127   8.235  36.542  12.573
25371W        W89128  30.113  42.368  14.862
25372W        W89129  36.448   4.316   2.868
25373W        W89130  28.956  18.790   0.945
25374W        W89131  25.160  12.139   1.273
25375W        W89132   0.902  35.867   5.225
25376W        W89133  29.483  42.446   0.812
25377W        W89134   3.832  32.505   2.722
25378W        W89135   2.750  37.394   3.769
25379W        W89136  15.684  15.640  14.397
25380W        W89137  31.548   3.863   1.385
25381W        W89138  31.501  42.434   1.854
25382W        W89139  30.467  28.131  13.332
25383W        W89140  44.394  39.862   2.396
25384W        W89141   0.784  24.991   2.254
25385W        W89142  40.938   3.807   4.710
25386W        W89143  19.093   8.685   3.836
25387W        W89144  21.245   6.357  10.422
25388W        W89145   1.922  28.446   1.299
25389W        W89146  10.368   6.902  13.975
25390W        W89147  43.808  42.426   3.149
25391W        W89148   3.839   6.741  14.831
25392W        W89149   8.771   1.461  11.486
25393W        W89150  21.711  42.808  12.525
25394W        W89151  17.683  27.653   0.419
25395W        W89152  16.100  14.656  11.541
25396W        W89153   0.266  41.011   1.752
25397W        W89154  33.391  20.562  14.776
25398W        W89155  35.422  20.622  11.480
25399W        W89156  36.527  20.242   2.413
25400W        W89157  37.492  22.174  11.935
25401W        W89158  34.605  40.855   1.451
25402W        W89159  37.490  20.071   3.165
25403W        W89160  14.659  16.088   2.771
25404W        W89161  26.207   2.939   0.760
25405W        W89162  41.338  16.137   2.825
25406W        W89163  20.106   5.905  13.466
25407W        W89164   7.675  33.123   2.676
25408W        W89165  43.963  14.674  12.506
25409W        W89166  13.696  10.789   2.198
25410W        W89167   5.912  38.480   3.794
25411W        W89168  13.671  13.333   0.332
25412W        W89169  10.686  32.049  14.792
25413W        W89170   3.840  13.845  14.843
25414W        W89171   4.206  44.947  11.867
25415W        W89172  19.041  24.171  12.923
25416W        W89173  19.152  40.462  13.530
25417W        W89174   2.884  35.388  10.595
25418W        W89175  18.254   9.343  11.870
25419W        W89176  23.645  21.746   4.778
25420W        W89177  34.978  15.630   4.781
25421W        W89178  25.135  42.802   0.795
25422W        W89179  40.469  28.960  14.877
25423W        W89180  19.575  22.520   4.600
25424W        W89181  25.665   1.736   3.813
25425W        W89182   0.788  43.435  11.397
25426W        W89183  30.104  16.717  10.954
25427W        W89184   0.881   7.317   2.404
25428W        W89185   5.713  26.038  13.518
25429W        W89186  37.899  39.812  12.888
25430W        W89187   9.259  19.132  14.018
25431W        W89188  21.729  35.985  11.456
25432W        W89189  22.060  30.649   1.895
25433W        W89190   7.286   4.817  12.823
25434W        W89191   1.471  23.145  11.435
25435W        W89192  44.753  10.652   2.287
25436W        W89193  13.800  33.607  12.044
25437W        W89194  23.556   0.834  10.596
25438W        W89195  11.339   2.749  14.868
25439W        W89196  42.831  25.576   3.803
25440W        W89197  37.414   4.376   1.330
25441W        W89198  20.222  39.026  13.855
25442W        W89199  11.665  44.491   1.211
25443W        W89200  14.653   0.898   3.211
25444W        W89201  30.058   6.777  13.336
25445W        W89202  42.518  18.278   4.269
25446W        W89203  41.882  11.363  13.916
25447W        W89204  42.922   3.399   5.256
25448W        W89205   3.317   1.438  14.002
25449W        W89206  17.650  27.479  11.488
25450W        W89207  35.363  27.028   3.333
25451W        W89208  31.452  42.995   0.295
25452W        W89209  24.478  38.536   2.229
25453W        W89210   7.334   2.727   3.763
25454W        W89211  17.097  21.611   3.229
25455W        W89212  36.013  26.065   4.705
25456W        W89213   3.265  28.166  10.616
25457W        W89214  24.005   1.434  11.597
25458W        W89215  20.264  43.490   4.665
25459W        W89216  28.105  29.456   0.789
25460W        W89217   1.463  16.248   3.240
25461W        W89218  29.490  41.461   3.674
25462W        W89219  41.419  20.272   3.753
25463W        W89220   4.841   1.319   0.381
25464W        W89221  12.316  42.337  12.520
25465W        W89222  33.477  44.321   1.838
25466W        W89223   0.368  39.823  14.404
25467W        W89224  23.645  27.167   0.904
25468W        W89225   6.259   4.391  10.491
25469W        W89226   9.157  38.858  13.009
25470W        W89227  12.294   6.749  13.022
25471W        W89228  25.028  27.011   1.441
25472W        W89229  31.422  25.149  14.764
25473W        W89230   8.870   2.417   2.398
25474W        W89231   7.716  26.549  14.295
25475W        W89232   2.284  36.510  14.419
25476W        W89233  11.759  15.789   2.894
25477W        W89234  30.919  36.370  13.403
25478W        W89235  19.657   4.271   0.465
25479W        W89236  23.048  22.052  14.869
25480W        W89237  26.126  39.484   0.919
25481W        W89238  29.106  34.449  11.526
25482W        W89239  27.670  28.593  12.339
25483W        W89240   2.332  12.191  11.465
25484W        W89241  18.189  28.627  13.334
25485W        W89242  24.006  10.368   0.382
25486W        W89243   7.742  44.782   3.833
25487W        W89244  36.032  23.056   0.759
25488W        W89245  21.531   9.350  13.060
25489W        W89246  15.131   1.331  11.377
25490W        W89247  33.092  13.128  10.438
25491W        W89248  20.684  26.009  14.329
25492W        W89249  16.280   5.896  12.350
25493W        W89250   8.319  33.386  11.007
25494W        W89251  37.437  22.509   5.233
25495W        W89252  25.124   7.874   5.321
25496W        W89253  35.988  26.530  14.341
25497W        W89254   0.882  38.042  13.518
25498W        W89255  33.480   7.760  12.503
25499W        W89256  31.605  11.263   4.129
25500W        W89257  35.967   8.895   3.677
25501W        W89258  23.558  34.867  12.032
25502W        W89259  18.711   8.198   2.233
25503W        W89260  20.681   5.345   3.244
25504W        W89261   2.914  10.143   0.387
25505W        W89262   4.777  18.173   1.437
25506W        W89263   9.699  18.122  10.154
25507W        W89264  30.962  36.945   1.802
25508W        W89265   1.295   4.436   0.862
25509W        W89266  24.219   6.330  11.988
25510W        W89267   5.432  40.801  14.464
25511W        W89268  43.487   4.292  11.462
25512W        W89269  12.304  19.063  14.329
25513W        W89270  20.173  41.973  14.895
25514W        W89271   5.719  10.306   0.333
25515W        W89272  11.262  17.307  12.546
25516W        W89273   7.765   4.259  12.427
25517W        W89274   5.433   7.815  13.395
25518W        W89275  23.542  17.177  12.578
25519W        W89276  16.285  15.654  10.432
25520W        W89277  28.673  33.033  14.460
25521W        W89278   4.370  12.253   4.783
25522W        W89279  35.415  29.667  12.446
25523W        W89280  22.196  21.022  10.640
25524W        W89281  27.169  27.988   3.170
25525W        W89282  34.964  43.932  14.299
25526W        W89283  42.399  29.077   4.727
25527W        W89284  42.373  11.846   1.231
25528W        W89285  42.341  42.424  11.499
25529W        W89286   3.413  35.444  14.318
25530W        W89287  11.629  23.677  12.090
25531W        W89288  30.488  23.585   3.789
25532W        W89289  41.885  43.828   3.234
25533W        W89290  41.293   0.473  10.546
25534W        W89291  29.666  32.108  13.503
25535W        W89292   2.826  16.681  12.579
25536W        W89293   0.401   5.763  11.596
25537W        W89294  42.422  25.507  12.919
25538W        W89295  44.764  20.236   3.672
25539W        W89296  41.029   1.369  10.931
25540W        W89297  30.597  20.266   3.672
25541W        W89298  32.002  44.769  14.783
25542W        W89299  44.309  21.593   1.229
25543W        W89300  44.281  16.279  14.512
25544W        W89301   5.927  25.110   0.278
25545W        W89302   6.722  42.437   3.188
25546W        W89303  22.673   7.319   3.371
25547W        W89304  15.622  37.957  13.047
25548W        W89305   9.165  25.593   2.786
25549W        W89306  44.965  22.166  11.039
25550W        W89307  29.020  14.224  13.310
25551W        W89308  16.168  22.095  11.546
25552W        W89309   2.306   5.905  14.939
25553W        W89310  38.829   2.808   3.782
25554W        W89311  29.931  17.156  11.409
25555W        W89312   9.270   5.433   3.151
25556W        W89313  23.648  31.572  14.467
25557W        W89314  15.151  24.078   4.732
25558W        W89315  23.680  22.098  11.424
25559W        W89316  40.493  35.518   3.784
25560W        W89317  11.214  12.208   2.234
25561W        W89318  42.375  33.421  11.912
25562W        W89319  37.460  11.194  12.543
25563W        W89320  34.030  40.475   2.801
25564W        W89321  32.118  17.762   3.242
25565W        W89322  14.737  29.011  12.994
25566W        W89323  35.495   1.805  12.982
25567W        W89324   0.897  21.074   1.859
25568W        W89325  25.659  22.184  11.052
25569W        W89326  13.134  38.036   0.902
25570W        W89327  35.496   1.942  13.520
25571W        W89328  23.169  35.371   1.298
25572W        W89329   4.210   9.736   4.325
25573W        W89330  17.301  36.442   3.837
25574W        W89331  26.992  26.630   3.283
25575W        W89332  29.040   7.349  10.559
25576W        W89333  14.779   6.912   0.426
25577W        W89334  32.111  10.224  10.611
25578W        W89335  43.913   9.680  13.061
25579W        W89336   6.849  29.994   1.752
25580W        W89337  17.734  36.012  10.619
25581W        W89338  44.401  33.479   2.733
25582W        W89339  13.811  41.864   3.654
25583W        W89340  38.502  20.174  10.932
25584W        W89341  21.218  25.973  14.863
25585W        W89342  17.622  42.936  10.585
25586W        W89343  28.074  43.331  12.859
25587W        W89344  20.557  18.234  10.987
25588W        W89345  13.704  11.762  13.959
25589W        W89346  25.175  42.008   2.870
25590W        W89347   1.286  22.246   4.272
25591W        W89348  42.349  12.213  13.338
25592W        W89349  10.798   5.194  14.436
25593W        W89350   9.175  44.452   2.193
25594W        W89351  38.972   8.838   2.418
25595W        W89352   5.395  44.955   1.858
25596W        W89353  21.709  44.861   1.417
25597W        W89354  24.227  24.230  14.318
25598W        W89355  31.462  17.190   1.258
25599W        W89356  30.933  35.006   3.300
25600W        W89357  25.986   0.917  10.472
25601W        W89358  16.684  41.438   2.770
25602W        W89359   8.403  40.881  12.384
25603W        W89360   0.478   7.225  13.830
25604W        W89361  21.713  10.274   1.851
25605W        W89362   6.698  28.458   4.786
25606W        W89363  39.815   7.853   2.272
25607W        W89364  33.027  12.749  14.484
25608W        W89365  37.864  41.478  12.984
25609W        W89366   0.317  13.762  11.025
25610W        W89367  12.739  33.624   1.916
25611W        W89368  19.069  13.223  10.133
25612W        W89369  44.841  15.160  13.399
25613W        W89370  15.174  35.855   4.663
25614W        W89371  19.214  38.469   1.223
25615W        W89372  22.249  34.120   0.353
25616W        W89373  28.553  26.575   2.755
25617W        W89374  24.108   7.410   2.784
25618W        W89375  24.101  34.396  10.997
25619W        W89376  40.835  39.816  14.934
25620W        W89377  19.687  20.061  14.323
25621W        W89378  24.172   4.419   1.790
25622W        W89379  33.491  22.624  13.918
25623W        W89380  33.051   4.822   3.312
25624W        W89381  15.184  26.990  13.354
25625W        W89382  30.434  40.855   1.831
25626W        W89383   5.384  39.058   0.326
25627W        W89384  35.033   1.323   1.897
25628W        W89385  16.271   7.848  13.981
25629W        W89386  39.888   9.226  12.837
25630W        W89387  36.847   1.778   0.380
25631W        W89388  38.435  13.325  11.592
25632W        W89389  12.836  21.072   2.221
25633W        W89390  36.019   1.433  13.941
25634W        W89391  20.209  36.094  11.555
25635W        W89392  41.853  17.263   4.260
25636W        W89393  15.242   7.206   4.754
25637W        W89394  19.671  43.859   2.718
25638W        W89395  42.339  34.920  13.872
25639W        W89396  23.498   8.276  11.402
25640W        W89397  25.209  17.694  12.429
25641W        W89398  42.798  23.714  12.344
25642W        W89399  26.477  34.609   1.409
25643W        W89400  22.140  29.519   3.654
25644W        W89401  18.272  44.338   0.944
25645W        W89402   4.298  28.492   3.278
25646W        W89403   0.395  39.454   3.684
25647W        W89404  23.694  22.038   4.718
25648W        W89405  31.954  16.309   4.762
25649W        W89406  26.164  37.059  14.895
25650W        W89407  39.537  44.970   0.386
25651W        W89408   1.896   9.377   2.738
25652W        W89409  39.485  38.918   0.326
25653W        W89410  44.265  40.881   9.999
25654W        W89411  22.073   5.424  14.321
25655W        W89412  25.535   0.325   0.915
25656W        W89413  11.780   0.940  10.585
25657W        W89414   2.281   4.310   1.839
25658W        W89415   2.397   0.958   2.182
25659W        W89416  42.784  38.334  14.977
25660W        W89417   0.250  16.280   4.163
25661W        W89418   7.312  23.685  13.019
25662W        W89419   6.408  22.565   1.284
25663W        W89420  39.826  18.631   1.719
25664W        W89421  20.592  28.615  13.906
25665W        W89422  22.697   1.887   3.709
25666W        W89423  34.408   3.816  11.528
25667W        W89424  11.737  36.864  11.984
25668W        W89425  28.971  23.070   4.623
25669W        W89426  18.613  24.568  10.634
25670W        W89427  23.621   9.193   0.923
25671W        W89428   6.835  24.539   0.402
25672W        W89429  38.509   4.916  12.087
25673W        W89430   1.773  10.364  11.371
25674W        W89431  21.752  40.309   4.125
25675W        W89432  14.241  35.604  13.987
25676W        W89433  14.222  38.479   2.686
25677W        W89434   0.423  30.584   3.185
25678W        W89435  19.543  31.975  10.444
25679W        W89436  31.115  24.184  14.442
25680W        W89437  30.982  23.062   2.668
25681W        W89438   5.929  15.247  10.426
25682W        W89439  14.608  24.047   1.440
25683W        W89440  13.129  18.599   3.749
25684W        W89441  11.324  18.758   2.208
25685W        W89442  13.730  36.884   3.795
25686W        W89443  11.721  42.314  10.944
25687W        W89444  44.341  38.052   0.320
25688W        W89445  11.279  40.000  14.356
25689W        W89446  15.787  24.175   3.152
25690W        W89447  19.106  18.615  12.852
25691W        W89448  30.068  21.163  12.425
25692W        W89449  31.130  10.148   3.245
25693W        W89450  44.872  29.505  14.374
25694W        W89451  25.545  30.052  11.955
25695W        W89452  36.399  28.496  12.396
25696W        W89453   2.229  24.144   3.179
25697W        W89454   2.290  11.758   2.364
25698W        W89455   3.952  34.037   4.160
25699W        W89456  38.882  18.604   1.371
25700W        W89457  23.566  38.048   3.214
25701W        W89458  13.781  11.244  11.455
25702W        W89459  25.013  11.131  11.397
25703W        W89460  26.487  26.201  11.988
25704W        W89461  38.016  26.056   1.888
25705W        W89462  36.858  44.997   1.354
25706W        W89463  30.494  14.591   3.706
25707W        W89464  41.304  14.261   1.243
25708W        W89465  33.982  40.375   1.862
25709W        W89466   3.744  30.479   0.800
25710W        W89467  15.330  39.985  12.850
25711W        W89468  10.232   2.422   1.378
25712W        W89469  20.607   9.795  14.331
25713W        W89470  20.100  32.119   1.862
25714W        W89471  44.418  36.891   0.429
25715W        W89472  29.459  29.441  10.622
25716W        W89473  26.691  19.664   5.241
25717W        W89474  13.333  42.477   3.779
25718W        W89475   3.887   0.885   3.301
25719W        W89476  27.974   2.808  14.851
25720W        W89477  10.665  39.852  11.861
25721W        W89478  25.126   9.158  11.534
25722W        W89479   0.954   0.315   2.885
25723W        W89480   1.771   3.227  13.942
25724W        W89481   7.742  21.229  14.355
25725W        W89482  32.626  22.595   1.803
25726W        W89483   5.286  20.755   0.921
25727W        W89484  20.627  14.306   3.350
25728W        W89485  16.713   8.842   4.626
25729W        W89486  11.156  20.082  13.377
25730W        W89487   9.833  39.891   0.899
25731W        W89488   1.765   6.220  11.878
25732W        W89489  40.039  29.059   4.309
25733W        W89490  37.877   5.856  11.492
25734W        W89491  43.900  42.973  12.932
25735W        W89492   6.899   3.832   1.405
25736W        W89493  12.341  25.526  10.587
25737W        W89494  15.741  39.443  12.011
25738W        W89495   1.830  32.113  11.572
25739W        W89496  40.367  15.192   0.324
25740W        W89497  29.943  37.448  11.551
25741W        W89498  10.670  34.589   0.422
25742W        W89499  44.923  27.949  10.438
25743W        W89500  12.799  10.830  11.396
25744W        W89501   0.453  20.577   4.808
25745W        W89502   0.965  43.964  10.974
25746W        W89503   3.291  35.517  13.393
25747W        W89504  10.379  44.825   0.772
25748W        W89505  34.614  13.174   4.808
25749W        W89506   8.338  19.702   5.235
25750W        W89507  33.423  29.471   4.616
25751W        W89508  18.757   6.276  13.344
25752W        W89509   7.365  36.984  11.855
25753W        W89510  24.090   8.295  11.601
25754W        W89511  43.387   7.903   0.895
25755W        W89512  36.066  20.730  10.574
25756W        W89513  22.564  27.105   0.344
25757W        W89514   7.741  19.628  12.839
25758W        W89515   3.953  29.075   4.332
25759W        W89516  31.551  16.173  14.450
25760W        W89517   9.811   7.808   0.323
25761W        W89518  32.021   6.270  14.965
25762W        W89519  14.740  24.550   0.471
25763W        W89520  15.681  43.409  14.908
25764W        W89521  38.040  19.745  14.894
25765W        W89522   4.221  37.983   4.762
25766W        W89523   0.912  44.368  13.793
25767W        W89524   6.793  25.171  10.495
25768W        W89525  35.062  13.263   0.818
25769W        W89526  38.960  11.827   4.118
25770W        W89527  37.542  19.601  10.095
25771W        W89528  16.744   5.890  11.002
25772W        W89529   9.361  14.196  14.932
25773W        W89530  36.578   5.790   0.934
25774W        W89531  38.328   3.379  11.428
25775W        W89532  18.108   2.440  14.022
25776W        W89533   7.866  24.169   3.376
25777W        W89534  18.066  27.155   4.805
25778W        W89535  41.475  18.552  13.312
25779W        W89536  41.941  26.033   1.330
25780W        W89537  13.293  16.093  10.584
25781W        W89538   5.205  34.944   3.335
25782W        W89539  22.996  43.857   2.268
25783W        W89540  42.396   7.313   0.279
25784W        W89541   9.174  21.054  12.055
25785W        W89542  25.551  22.684   3.146
25786W        W89543   1.749  36.924   0.345
25787W        W89544  20.582  34.443  10.430
25788W        W89545  30.123  16.797   1.323
25789W        W89546  27.176  14.192   1.230
25790W        W89547   5.911  42.505  14.956
25791W        W89548   1.401  33.881   3.253
25792W        W89549  30.926   2.874   2.826
25793W        W89550  23.092  34.888   1.849
25794W        W89551   1.929  26.086   1.381
25795W        W89552  16.131  24.485  12.905
25796W        W89553  42.879  20.147   1.812
25797W        W89554  37.993  26.052  11.395
25798W        W89555  25.148  11.177   2.821
25799W        W89556  11.804  36.553   2.267
25800W        W89557  16.154  17.239   1.784
25801W        W89558  31.900  27.550  11.959
25802W        W89559  20.272   7.732   4.282
25803W        W89560   1.308  18.259   3.363
25804W        W89561  43.801  31.647   3.200
25805W        W89562  33.578   1.405  13.864
25806W        W89563  18.262   4.732   3.263
25807W        W89564  25.596  22.667   0.412
25808W        W89565  28.482  28.659   0.276
25809W        W89566  17.578   6.700  12.025
25810W        W89567  29.485  42.882  13.457
25811W        W89568  31.931  22.645  10.426
25812W        W89569  36.571  38.569   2.720
25813W        W89570  38.452  34.044   1.283
25814W        W89571  40.493  27.058  12.378
25815W        W89572  42.907  37.959   5.305
25816W        W89573   6.383  40.443  11.905
25817W        W89574  37.454  41.011  13.050
25818W        W89575  32.429  35.946  11.114
25819W        W89576  36.591  14.333  14.976
25820W        W89577  41.301  17.791   1.226
25821W        W89578  19.056  36.958  13.875
25822W        W89579  26.493  31.921   0.367
25823W        W89580  39.985  30.512  14.503
25824W        W89581  25.504  14.805   9.974
25825W        W89582  29.949  13.105  13.053
25826W        W89583  29.143  44.275   1.255
25827W        W89584  40.823   9.775  14.916
25828W        W89585  42.428  30.600  12.478
25829W        W89586  31.469  43.874   1.309
25830W        W89587  35.928  20.697   3.675
25831W        W89588   1.943  17.130   0.841
25832W        W89589  34.072  30.468  11.375
25833W        W89590  37.551  10.693   2.225
25834W        W89591   2.462  19.590   5.170
25835W        W89592  29.497  32.628  13.814
25836W        W89593  36.853  24.155  14.782
25837W        W89594  15.676  35.413  13.004
25838W        W89595  29.564  25.197   2.793
25839W        W89596  11.821   3.429  12.851
25840W        W89597  43.438  22.725   0.781
25841W        W89598  12.251  43.498  13.044
25842W        W89599  44.794  22.222   3.203
25843W        W89600  36.897  16.608   2.302
25844W        W89601  21.644  40.886  12.519
25845W        W89602  15.743   7.326  14.367
25846W        W89603   3.939  10.341  14.344
25847W        W89604  32.618  37.946  13.968
25848W        W89605  37.566   9.343  14.869
25849W        W89606   2.312  15.763  14.363
25850W        W89607  12.855   0.955  13.447
25851W        W89608   2.341  28.440  14.487
25852W        W89609  37.394  29.470   1.846
25853W        W89610  29.560  30.042   4.304
25854W        W89611   7.338   0.940   3.712
25855W        W89612  31.569  42.005   3.744
25856W        W89613  12.712  43.973   1.915
25857W        W89614  44.449   2.266   1.389
25858W        W89615  22.747  20.195   4.736
25859W        W89616  27.476  14.595   0.244
25860W        W89617   0.978  29.156  14.935
25861W        W89618  40.352  34.557  13.797
25862W        W89619  37.082  12.220   4.693
25863W        W89620  17.758   6.196   2.300
25864W        W89621  40.047  33.126   2.878
25865W        W89622   8.175  12.171  11.874
25866W        W89623   1.366  30.657  11.887
25867W        W89624  30.545  17.140   2.817
25868W        W89625  38.350   4.788  12.383
25869W        W89626  36.920   7.190  10.536
25870W        W89627  25.564  30.415  12.872
25871W        W89628  15.580  11.748   1.295
25872W        W89629  36.935   0.973  10.476
25873W        W89630  13.725   2.807  14.394
25874W        W89631   9.150  44.829  11.437
25875W        W89632   9.284  28.006  10.624
25876W        W89633  31.944   7.338  10.959
25877W        W89634  16.664  35.098  14.474
25878W        W89635  35.102  44.427   3.752
25879W        W89636   7.751  10.778  13.820
25880W        W89637   9.726  38.531  13.813
25881W        W89638  31.917  40.468   3.865
25882W        W89639  42.400  28.642   4.608
25883W        W89640  15.767   8.255   3.197
25884W        W89641  34.029  12.762   3.256
25885W        W89642  10.343  42.799   3.807
25886W        W89643  44.879   4.911   4.224
25887W        W89644  33.055  44.825   0.902
25888W        W89645  26.153  34.004   2.855
25889W        W89646  36.551  43.886   1.932
25890W        W89647   4.316  13.133   3.779
25891W        W89648   2.824   4.330  10.535
25892W        W89649  40.531  33.518   3.293
25893W        W89650  36.530  27.509  11.075
25894W        W89651   3.414  40.050   3.161
25895W        W89652  17.118  41.000   4.244
25896W        W89653  16.615   9.750  11.607
25897W        W89654  33.392  11.780   1.391
25898W        W89655  36.921  12.248   0.321
25899W        W89656  24.091  24.170   3.802
25900W        W89657  29.108  33.617  10.512
25901W        W89658  21.070  23.673  14.393
25902W        W89659  29.486  44.490  10.465
25903W        W89660   5.837   9.805   4.207
25904W        W89661  16.645  25.479  11.446
25905W        W89662  16.189  12.243  10.127
25906W        W89663   7.273   8.185  10.982
25907W        W89664  22.597  32.944   1.829
25908W        W89665  32.595  12.359  11.902
25909W        W89666   0.946  41.875   4.719
25910W        W89667  21.624   2.353   2.258
25911W        W89668  24.674  41.315   2.761
25912W        W89669  43.899  10.243  12.388
25913W        W89670   9.324  31.125   4.253
25914W        W89671  41.441   3.911   0.906
25915W        W89672  14.314  17.112   4.299
25916W        W89673  40.339  30.606   4.716
25917W        W89674  27.586   9.729   0.821
25918W        W89675  32.596  38.941   0.417
25919W        W89676  41.973  17.288  12.936
25920W        W89677  19.665  36.070  14.291
25921W        W89678  39.991  37.395   2.293
25922W        W89679   2.829  15.776   0.944
25923W        W89680  27.067   2.364   1.227
25924W        W89681  12.293  16.798  12.013
25925W        W89682  43.512  11.366   4.603
25926W        W89683  26.620  34.495   4.686
25927W        W89684   3.460   8.753  12.559
25928W        W89685   3.848  24.647   2.876
25929W        W89686  27.553  16.111  14.424
25930W        W89687  41.419  10.305  10.026
25931W        W89688  18.097  37.009  14.312
25932W        W89689  26.682   5.287   4.217
25933W        W89690  44.807  10.382  13.986
25934W        W89691  27.504  20.540   0.479
25935W        W89692  21.702  18.741  14.895
25936W        W89693  40.808  30.430   3.218
25937W        W89694  41.006  13.177   1.757
25938W        W89695  34.567  26.102   2.406
25939W        W89696  25.586  31.507  13.446
25940W        W89697  17.274  26.003  14.303
25941W        W89698  23.489  40.379  12.073
25942W        W89699  18.744  23.703   4.128
25943W        W89700  40.312  10.681   3.216
25944W        W89701  37.526  15.324   4.270
25945W        W89702  41.998  22.618  10.509
25946W        W89703  35.507  43.019   2.858
25947W        W89704   9.391  33.957  13.323
25948W        W89705  10.236  14.630   2.769
25949W        W89706  31.409  14.592   3.773
25950W        W89707  44.956  17.129  12.485
25951W        W89708  38.048   1.916   3.161
25952W        W89709  10.304   3.280  12.914
25953W        W89710  29.643  27.681   4.115
25954W        W89711  21.640  29.572   4.301
25955W        W89712  27.035   7.796  11.971
25956W        W89713  24.704   7.745   1.828
25957W        W89714  25.704  37.551  10.634
25958W        W89715  32.569  19.710  12.990
25959W        W89716   4.433  26.115   1.716
25960W        W89717   7.232  16.740   2.679
25961W        W89718  18.281  34.938   4.791
25962W        W89719   3.217   8.186  10.499
25963W        W89720  18.065  39.887  12.074
25964W        W89721  31.064  42.427  12.459
25965W        W89722  12.211  10.305   1.360
25966W        W89723  44.998  40.442   3.235
25967W        W89724   9.243  42.917  13.502
25968W        W89725  10.174  14.113  13.060
25969W        W89726  34.939   6.371  14.326
25970W        W89727  27.019   3.254  12.944
25971W        W89728  31.019  32.420   2.251
25972W        W89729   8.217   2.745  11.857
25973W        W89730   2.735   4.367   3.764
25974W        W89731  23.724  17.306  13.923
25975W        W89732   7.683   2.950   3.343
25976W        W89733  31.944  23.059  14.795
25977W        W89734  14.663  17.641  12.067
25978W        W89735  30.907  36.464   0.347
25979W        W89736  44.987   6.402  14.007
25980W        W89737  10.185  26.662   2.884
25981W        W89738  42.310  10.368   1.309
25982W        W89739  21.254  44.003  11.892
25983W        W89740  27.013  24.700   1.707
25984W        W89741  35.407   2.243   1.901
25985W        W89742  20.768   6.418  12.423
25986W        W89743  43.498  21.184   4.325
25987W        W89744  18.722  39.326  12.455
25988W        W89745   2.811  38.866  14.795
25989W        W89746  28.578  31.543  13.426
25990W        W89747  29.117  43.491   1.278
25991W        W89748  33.463   8.230  13.045
25992W        W89749   6.773  31.035   2.365
25993W        W89750  32.545  28.999  11.994
25994W        W89751   6.411  39.327  12.484
25995W        W89752  20.079   2.242  12.918
25996W        W89753  27.046  10.242   0.792
25997W        W89754  39.495   9.799  13.919
25998W        W89755  27.692  13.642   9.997
25999W        W89756   6.197   5.737  14.933
26000W        W89757  35.926  41.878   4.809
26001W        W89758  39.900  16.649  14.929
26002W        W89759  36.979   7.172   4.798
26003W        W89760  26.594  38.367   3.819
26004W        W89761  41.428  44.480   4.314
26005W        W89762  39.532  33.532  12.071
26006W        W89763  20.170  19.268   1.335
26007W        W89764   4.334  21.142   2.284
26008W        W89765  19.201   5.353  10.989
26009W        W89766  22.071  41.924   0.751
26010W        W89767  37.955  13.163  10.901
26011W        W89768  33.987  26.622   0.771
26012W        W89769  34.064   4.228   5.790
26013W        W89770   5.343  27.496   4.147
26014W        W89771   9.821  18.096   1.313
26015W        W89772   5.404  30.431  14.314
26016W        W89773  10.310  39.932  10.993
26017W        W89774  27.058   6.372   0.312
26018W        W89775  20.659  36.530   4.783
26019W        W89776  19.767  20.663   3.653
26020W        W89777  12.130   9.769   2.753
26021W        W89778  36.882  37.004   2.787
26022W        W89779  38.393   8.340   4.772
26023W        W89780  11.150   0.381   1.875
26024W        W89781  41.515  13.148   1.291
26025W        W89782  16.756  19.089   0.276
26026W        W89783  42.363   3.431   4.703
26027W        W89784  32.565   8.186  13.415
26028W        W89785  25.162  39.525   2.795
26029W        W89786   2.755  30.543   0.324
26030W        W89787   6.874   1.416   1.879
26031W        W89788  42.017  28.070   0.325
26032W        W89789  41.813  35.002  14.351
26033W        W89790  44.908  15.142   4.143
26034W        W89791  35.564  36.550  12.868
26035W        W89792   8.262  13.770   2.776
26036W        W89793  13.741  37.389   0.877
26037W        W89794  41.302  18.578   3.828
26038W        W89795  34.061  10.674  11.873
26039W        W89796  18.786  27.687   1.410
26040W        W89797  44.894  22.046  12.029
26041W        W89798  16.296  12.760  14.498
26042W        W89799  35.935  26.099   3.379
26043W        W89800  30.156   2.437  10.513
26044W        W89801   2.268   2.341  12.884
26045W        W89802  44.894  10.245   0.312
26046W        W89803  26.522  43.439  14.295
26047W        W89804  29.096  11.750  10.464
26048W        W89805  14.184  37.942  12.436
26049W        W89806  43.444  31.574   4.282
26050W        W89807  38.986  31.070   2.767
26051W        W89808  17.300  31.998  13.474
26052W        W89809  25.115  21.564   2.194
26053W        W89810  31.404  10.652   2.830
26054W        W89811  16.235  27.583   0.449
26055W        W89812  36.489  17.090  11.574
26056W        W89813   1.927   8.683   2.389
26057W        W89814  27.104  25.703   5.274
26058W        W89815  20.726  43.894  10.933
26059W        W89816   7.318  18.685  14.317
26060W        W89817  17.256  30.974  10.574
26061W        W89818   2.304  13.812  10.574
26062W        W89819  30.980   8.847   3.716
26063W        W89820  11.710  34.443  10.444
26064W        W89821  33.548  41.402   4.153
26065W        W89822   1.371  10.777  11.382
26066W        W89823  41.385  40.953   1.758
26067W        W89824   1.373  40.385   0.758
26068W        W89825  38.423  16.225   3.866
26069W        W89826  17.174  44.306  13.321
26070W        W89827  32.551  33.979  12.979
26071W        W89828  39.455   5.272   1.749
26072W        W89829  28.002  18.729   5.251
26073W        W89830  15.181  23.034   4.721
26074W        W89831  43.793  30.927   0.772
26075W        W89832  27.045  26.638   4.204
26076W        W89833  11.357  37.948   2.187
26077W        W89834  40.843  24.128   3.705
26078W        W89835   5.754  33.413  11.435
26079W        W89836  22.602  14.113  13.968
26080W        W89837  25.084  43.285   2.764
26081W        W89838  11.249  40.319  12.874
26082W        W89839  16.288   9.345  12.541
26083W        W89840  11.131  44.978   0.258
26084W        W89841  23.688  14.175  13.523
26085W        W89842  14.155   5.406  12.958
26086W        W89843  26.045  39.000   3.633
26087W        W89844   0.762  44.917  10.490
26088W        W89845   7.876  22.593   0.466
26089W        W89846  38.478  26.702  12.568
26090W        W89847   6.804  37.486  11.605
26091W        W89848  38.542  23.525  13.463
26092W        W89849  36.461  23.557   1.865
26093W        W89850  14.186  13.620  14.031
26094W        W89851  34.005  39.986   5.234
26095W        W89852  44.329  16.604   4.326
26096W        W89853   2.751   2.828   3.375
26097W        W89854  32.609   3.299   9.570
26098W        W89855  30.609  13.142   5.177
26099W        W89856   9.155  32.111  11.109
26100W        W89857  40.437  24.124  10.110
26101W        W89858  43.827  29.647  14.832
26102W        W89859  32.125  10.204  11.551
26103W        W89860   0.848  32.895  13.884
26104W        W89861  29.599  23.217  13.343
26105W        W89862  32.624   5.789   4.114
26106W        W89863  29.588  39.843  14.333
26107W        W89864  14.620  28.639  14.835
26108W        W89865  33.587  18.281   3.175
26109W        W89866   8.848  29.649   4.651
26110W        W89867  26.528   5.799   1.394
26111W        W89868  11.163  14.256   0.434
26112W        W89869  19.185  37.966  14.919
26113W        W89870  15.780   9.349  11.579
26114W        W89871  38.927  37.999   0.369
26115W        W89872  32.620  10.326  12.573
26116W        W89873  28.130   3.736   2.216
26117W        W89874  11.222  37.448   2.254
26118W        W89875   6.861  34.026   1.364
26119W        W89876  32.431  21.054   1.342
26120W        W89877  23.613  43.375  14.377
26121W        W89878  37.852   9.805  12.878
26122W        W89879  36.072  20.611  12.989
26123W        W89880  30.067  39.944  10.962
26124W        W89881  29.431   6.775   3.353
26125W        W89882   9.311  23.135  14.501
26126W        W89883  16.089   4.748   1.362
26127W        W89884  33.449   8.825  12.580
26128W        W89885  27.509  14.165  13.458
26129W        W89886  17.753  36.062   1.239
26130W        W89887  31.005  32.574  13.958
26131W        W89888  11.647  26.664   2.309
26132W        W89889  18.210  40.336  12.543
26133W        W89890  40.979  20.190  12.400
26134W        W89891  44.786   3.813   2.743
26135W        W89892  14.209  44.005  14.988
26136W        W89893   2.227  23.088   2.806
26137W        W89894  19.191  38.968   3.712
26138W        W89895  40.483  42.304   3.249
26139W        W89896   9.282  39.035   0.246
26140W        W89897  22.719  32.005  10.911
26141W        W89898  44.778  33.390  13.040
26142W        W89899   4.835  15.639   3.254
26143W        W89900  21.175  44.452  11.565
26144W        W89901  19.051  13.271   3.291
26145W        W89902  41.873  32.926   3.235
26146W        W89903  25.197  37.526  13.359
26147W        W89904  15.141  27.012   2.329
26148W        W89905   0.842   9.232  12.910
26149W        W89906   1.328  21.160  13.348
26150W        W89907  16.667   8.390   0.290
26151W        W89908   0.423  17.062   4.142
26152W        W89909   6.242  41.806  11.440
26153W        W89910  32.976   0.454  12.046
26154W        W89911   6.807  43.781   3.170
26155W        W89912   4.715  13.297  11.023
26156W        W89913   2.383  25.704   2.179
26157W        W89914   4.824   6.768   2.245
26158W        W89915  22.597  17.210  10.978
26159W        W89916  22.032  24.605  11.446
26160W        W89917  40.970   0.472   1.705
26161W        W89918  37.944  44.919  10.999
26162W        W89919  29.539  27.499   3.742
26163W        W89920  39.042   7.826  10.450
26164W        W89921  38.444  19.552  14.339
26165W        W89922   7.732  21.109   3.653
26166W        W89923  24.713  31.463   2.765
26167W        W89924  17.086  31.518  14.437
26168W        W89925   5.264  41.537  13.434
26169W        W89926   0.916   2.450   1.409
26170W        W89927   1.244  13.225  14.901
26171W        W89928  10.846  32.437   0.390
26172W        W89929  15.099  39.029   0.832
26173W        W89930  33.924  35.897  10.992
26174W        W89931   1.927  41.369  10.411
26175W        W89932   2.855  23.236  11.007
26176W        W89933  33.928  32.076   1.306
26177W        W89934  22.150  24.659   4.818
26178W        W89935  30.552  35.998  11.924
26179W        W89936  23.058  34.936   9.967
26180W        W89937  37.974  21.750  11.391
26181W        W89938  42.005   7.791  14.440
26182W        W89939   4.323  42.018  14.400
26183W        W89940  42.395  32.479   4.735
26184W        W89941   3.890  33.942   2.722
26185W        W89942  12.252  11.790  10.573
26186W        W89943  41.379  29.655   4.311
26187W        W89944  43.839  41.868  10.590
26188W        W89945  31.612  39.989   1.287
26189W        W89946  41.039  17.253   3.732
26190W        W89947  30.561  17.792  14.467
26191W        W89948  10.768  17.734   1.853
26192W        W89949   1.826  18.252  11.955
26193W        W89950  34.412  36.864  13.384
26194W        W89951  18.729   7.382   1.304
26195W        W89952  23.693  22.239   1.816
26196W        W89953  24.011   3.439  11.080
26197W        W89954  10.736  29.142   3.359
26198W        W89955  33.585  30.492   4.833
26199W        W89956  34.033  44.263   3.353
26200W        W89957  12.656  13.835  11.097
26201W        W89958  10.750  25.103   3.739
26202W        W89959  20.703  31.020   1.289
26203W        W89960  19.570   5.720   2.827
26204W        W89961   6.916   5.768  13.793
26205W        W89962  30.436   6.802  12.502
26206W        W89963  36.097  28.125  12.393
26207W        W89964  26.462  31.571  10.526
26208W        W89965   0.833   6.323   0.367
26209W        W89966   0.299  31.450  13.869
26210W        W89967  32.101  42.488   3.191
26211W        W89968  10.802  44.388  10.509
26212W        W89969  40.384   3.412   1.316
26213W        W89970  41.350   6.220  11.514
26214W        W89971  18.732  36.026  14.357
26215W        W89972   0.445   1.454  10.453
26216W        W89973  38.370  30.907   2.754
26217W        W89974  20.212  10.815   4.167
26218W        W89975   7.719  38.543   4.798
26219W        W89976  23.516   4.839   2.290
26220W        W89977  34.376   7.669   1.408
26221W        W89978   3.305  18.105  10.505
26222W        W89979  30.107  19.146  13.497
26223W        W89980  31.591  40.371   2.820
26224W        W89981   0.843  26.662   3.375
26225W        W89982  22.698  40.881  12.051
26226W        W89983  30.113  23.016   0.829
26227W        W89984  29.973   7.377  12.395
26228W        W89985  31.007   6.709  10.145
26229W        W89986  14.115   4.401  12.938
26230W        W89987  24.177  26.667   0.957
26231W        W89988  19.058   3.943   3.744
26232W        W89989  16.236  20.184   0.757
26233W        W89990   9.726  40.467  13.490
26234W        W89991  32.951  31.065   4.800
26235W        W89992  12.321  21.648   0.278
26236W        W89993  42.522   2.745   2.801
26237W        W89994  32.895  21.050   3.189
26238W        W89995   8.198  21.256  14.793
26239W        W89996  24.203  28.020  11.966
26240W        W89997  26.605  43.310   0.349
26241W        W89998  44.755  15.806   2.741
26242W        W89999   6.738  37.550  13.978
26243W        W90000  30.938  33.035   4.731
26244W        W90001  40.973   3.955  10.899
26245W        W90002  21.567  26.476   2.814
26246W        W90003   1.447  29.106   4.215
26247W        W90004  16.733  30.446   2.307
26248W        W90005  32.628  25.609   2.333
26249W        W90006   1.320  10.875   1.299
26250W        W90007  25.609  10.267   0.756
26251W        W90008  20.713   8.331   1.345
26252W        W90009  41.371   6.861  14.847
26253W        W90010   1.744   3.910  14.784
26254W        W90011  20.254  23.027   3.315
26255W        W90012  22.578  29.131   1.433
26256W        W90013   6.248  35.393  13.847
26257W        W90014  17.739  29.442   3.198
26258W        W90015  15.284  24.666  13.953
26259W        W90016   1.756   4.364   2.380
26260W        W90017   8.732  27.175  14.377
26261W        W90018  30.073  26.045   1.249
26262W        W90019  16.222  39.829   4.253
26263W        W90020  34.472  20.681  14.874
26264W        W90021  29.944  29.647   1.792
26265W        W90022  39.378  21.715  12.920
26266W        W90023  12.741  39.435   2.258
26267W        W90024   8.769  34.893  11.914
26268W        W90025  37.364  18.729   3.710
26269W        W90026  22.129  12.771   2.390
26270W        W90027  10.374  23.494  11.985
26271W        W90028  15.715  15.651   4.806
26272W        W90029  30.569  32.474  12.467
26273W        W90030   1.746  24.573   0.846
26274W        W90031  10.375  24.584  14.810
26275W        W90032   6.831  31.119  13.946
26276W        W90033  32.105  12.852  10.908
26277W        W90034  36.543  30.932  13.393
26278W        W90035  20.615  42.976   4.278
26279W        W90036  32.907  27.640   4.331
26280W        W90037  27.164   2.347  14.282
26281W        W90038   4.408  12.136  10.937
26282W        W90039   8.355   7.285   3.809
26283W        W90040  26.585  16.654  14.910
26284W        W90041  29.455  20.240  14.324
26285W        W90042  15.819   8.238  14.979
26286W        W90043   3.879  30.966  11.440
26287W        W90044  11.237  28.576   2.781
26288W        W90045  21.059  24.080   2.213
26289W        W90046   2.923   4.233   2.190
26290W        W90047   4.448  12.316   3.160
26291W        W90048  32.984  11.771  11.067
26292W        W90049  17.243  39.472   0.931
26293W        W90050   1.877   0.411   1.696
26294W        W90051  20.623  26.030   2.681
26295W        W90052  40.409   6.397   1.436
26296W        W90053  18.689  10.220  10.066
26297W        W90054  11.635  44.979   2.395
26298W        W90055  17.559  10.324   1.220
26299W        W90056  43.351  27.538   1.234
26300W        W90057  42.488  18.066   1.858
26301W        W90058   0.485  14.747  14.962
26302W        W90059  23.990  19.283   3.659
26303W        W90060   3.899  29.632   3.692
26304W        W90061  20.608  11.634  12.003
26305W        W90062  41.433  38.838  11.998
26306W        W90063  18.677  27.625   2.801
26307W        W90064  44.845  34.483  13.325
26308W        W90065  30.625  25.203   3.224
26309W        W90066  38.485  10.180   3.244
26310W        W90067  28.992  17.793   9.469
26311W        W90068  43.765   2.451   2.238
26312W        W90069  34.950  31.071   2.248
26313W        W90070  13.659  29.492  14.349
26314W        W90071  25.603   9.846  11.059
26315W        W90072  24.225  24.014  11.111
26316W        W90073  17.142  30.639   1.377
26317W        W90074  40.899  42.301   0.843
26318W        W90075  20.039  22.008  11.490
26319W        W90076   5.297  35.973  13.916
26320W        W90077  30.419  39.433  12.540
26321W        W90078  10.253  42.483   2.253
26322W        W90079  44.356  13.634  11.110
26323W        W90080  24.165  29.634   4.243
26324W        W90081  13.609  35.896  14.990
26325W        W90082   4.399  38.481  14.345
26326W        W90083  31.453   2.384  11.525
26327W        W90084  33.591  32.504   0.371
26328W        W90085  44.988  40.313   0.919
26329W        W90086  32.973   7.819  11.921
26330W        W90087  22.174  22.185  12.031
26331W        W90088  39.060  10.799  11.582
26332W        W90089   8.860  12.790   2.338
26333W        W90090  11.825   5.879  13.515
26334W        W90091  14.592  22.089  14.436
26335W        W90092  13.346  19.185  13.455
26336W        W90093   0.843  15.803   2.276
26337W        W90094  31.036  33.491   9.967
26338W        W90095   0.820  25.108   3.652
26339W        W90096  38.520  22.575   0.467
26340W        W90097  31.458  42.461  13.415
26341W        W90098  41.915   8.347  11.040
26342W        W90099   2.743   2.283   4.195
26343W        W90100  24.722  44.957  11.482
26344W        W90101  40.502   7.906  12.448
26345W        W90102  25.509   2.964   2.287
26346W        W90103  17.573   1.364  12.881
26347W        W90104  10.780   6.300   3.687
26348W        W90105  20.217  44.427   2.181
26349W        W90106  16.812  23.211   0.891
26350W        W90107  42.382  43.296  12.059
26351W        W90108  38.820  23.189  11.890
26352W        W90109  37.067  23.023  12.878
26353W        W90110  21.199   5.905   2.291
26354W        W90111  35.998  18.692   4.661
26355W        W90112  20.524  43.365   0.886
26356W        W90113  20.768   1.742  12.505
26357W        W90114  37.367  20.660  14.894
26358W        W90115  34.468  22.222  14.392
26359W        W90116  36.439  17.189  12.373
26360W        W90117  27.978  38.920  12.842
26361W        W90118  34.574  24.071   2.686
26362W        W90119   8.670  39.856   1.935
26363W        W90120  11.816  27.994  12.983
26364W        W90121  30.912  33.587   0.398
26365W        W90122   6.863  10.633  13.322
26366W        W90123  37.996   5.299  11.040
26367W        W90124  24.513  36.922  12.850
26368W        W90125  13.831  38.989  11.858
26369W        W90126  26.994   8.841  11.509
26370W        W90127  25.211   7.794  11.109
26371W        W90128  29.143  37.374  10.998
26372W        W90129  10.348  28.659   1.759
26373W        W90130   3.267  21.240  14.282
26374W        W90131  39.932  40.371  12.990
26375W        W90132  29.497  27.581   1.344
26376W        W90133   5.914  37.507  13.811
26377W        W90134  12.621  14.829  11.004
26378W        W90135  18.546  13.698  11.500
26379W        W90136   7.755  22.572   3.260
26380W        W90137  23.545  38.470   3.243
26381W        W90138  21.256   6.869  13.510
26382W        W90139  38.553  14.129  10.488
26383W        W90140   7.842  41.841  14.008
26384W        W90141  22.049  16.174   1.354
26385W        W90142  25.025  38.359   4.742
26386W        W90143  14.170  34.599  11.477
26387W        W90144  29.152  17.698  11.002
26388W        W90145  38.412  20.575  11.491
26389W        W90146  39.916  38.351   4.350
26390W        W90147  39.458  14.166   0.963
26391W        W90148   6.297  13.334   0.853
26392W        W90149  28.948  23.213   2.683
26393W        W90150   1.760  21.039   1.759
26394W        W90151  27.549   6.282  12.096
26395W        W90152  31.948   4.850  11.873
26396W        W90153  25.666  43.339  12.526
26397W        W90154  33.910   2.269  11.094
26398W        W90155   0.919  23.000  12.951
26399W        W90156  11.806   5.902  10.451
26400W        W90157  18.573  11.833  12.089
26401W        W90158  38.492  44.797   3.193
26402W        W90159   3.458   0.780  10.577
26403W        W90160  41.478  36.920  13.459
26404W        W90161  26.970  16.657   2.751
26405W        W90162  24.149  11.368  11.114
26406W        W90163  17.725  11.331   1.271
26407W        W90164  14.601  24.513  12.058
26408W        W90165  25.098  26.107   2.851
26409W        W90166   8.801  13.778   4.236
26410W        W90167   7.683   3.817  13.314
26411W        W90168  12.231  16.260  13.876
26412W        W90169  21.706  33.453   3.195
26413W        W90170  42.447  34.013  10.515
26414W        W90171  29.951  41.307  12.424
26415W        W90172  24.663  17.676  14.499
26416W        W90173   7.896  31.632  14.800
26417W        W90174  36.919  30.940  11.576
26418W        W90175   6.322  31.011   3.836
26419W        W90176  43.941  39.060   4.665
26420W        W90177   9.359  31.488   2.186
26421W        W90178  11.669  14.155   9.982
26422W        W90179   2.935   2.456  11.968
26423W        W90180  11.289  31.027   1.250
26424W        W90181  23.196  23.206  13.021
26425W        W90182  12.759  36.579   3.716
26426W        W90183   3.883  20.161   0.735
26427W        W90184   2.433   0.326   0.450
26428W        W90185  34.046  36.891   4.172
26429W        W90186   3.906  11.262  13.531
26430W        W90187  37.921  41.386  13.926
26431W        W90188  15.607   2.832   0.278
26432W        W90189  23.205   0.839  13.920
26433W        W90190   8.303  27.447  12.886
26434W        W90191  34.906  37.861  13.017
26435W        W90192  10.257  12.288  14.006
26436W        W90193   2.824  18.602   3.696
26437W        W90194  18.611  23.618   5.091
26438W        W90195  37.476  12.820   2.764
26439W        W90196  38.837   9.367  14.513
26440W        W90197  37.982   9.723  11.562
26441W        W90198  23.606  33.516  14.471
26442W        W90199  22.057  32.600   4.734
26443W        W90200  24.702  11.247   2.769
26444W        W90201  32.040  43.424   3.312
26445W        W90202  22.210  16.318   3.280
26446W        W90203  18.619  21.211   4.815
26447W        W90204  40.835   5.352   2.397
26448W        W90205   5.699  44.840   1.271
26449W        W90206  17.558  44.923  14.857
26450W        W90207  17.566  43.981  14.809
26451W        W90208  20.242  10.697   3.311
26452W        W90209  12.157   8.293  11.900
26453W        W90210  25.586  21.553   4.659
26454W        W90211  33.540  36.011   1.211
26455W        W90212  10.292  22.569  14.009
26456W        W90213   6.897  27.159  11.523
26457W        W90214  11.212  25.523   3.868
26458W        W90215  18.231  38.367   0.432
26459W        W90216  10.827  30.564  13.978
26460W        W90217  19.596   6.395   2.220
26461W        W90218  44.406  12.788  11.602
26462W        W90219  11.171  13.157   4.771
26463W        W90220   9.186  16.671  14.410
26464W        W90221   2.258  37.006  11.471
26465W        W90222  17.599  20.185   2.860
26466W        W90223  17.122  17.718   4.819
26467W        W90224  20.562   5.772  11.019
26468W        W90225  17.764  44.902   2.681
26469W        W90226   0.744  41.448  10.433
26470W        W90227  22.250   0.493   3.311
26471W        W90228  31.093  23.155  12.573
26472W        W90229  38.938  12.260   3.344
26473W        W90230   8.851  28.610   3.827
26474W        W90231   3.416  35.519  10.573
26475W        W90232  33.962  12.826  10.420
26476W        W90233   3.322   2.284  13.340
26477W        W90234  21.658  25.062  12.443
26478W        W90235  13.343  10.224   4.741
26479W        W90236  26.169  41.522  12.517
26480W        W90237  27.065  16.241  10.938
26481W        W90238  31.081  41.516   1.743
26482W        W90239  34.452  38.865   3.760
26483W        W90240   3.251   2.936  13.408
26484W        W90241   9.359   5.738   2.801
26485W        W90242  33.979  27.468  14.326
26486W        W90243  33.889  18.771  11.890
26487W        W90244  38.919  43.352   3.336
26488W        W90245  13.304  41.517  13.544
26489W        W90246   0.273  11.281  11.105
26490W        W90247  29.038  14.284   0.478
26491W        W90248  32.593  20.212  10.939
26492W        W90249  16.794   2.861   3.248
26493W        W90250  26.196   0.386  12.052
26494W        W90251  31.604   5.776   5.272
26495W        W90252  16.632  25.065   2.804
26496W        W90253  20.744  10.841   2.340
26497W        W90254   1.483  26.151  11.485
26498W        W90255  38.072   0.413  13.540
26499W        W90256  39.994  32.395  13.496
26500W        W90257  31.150  35.027   1.450
26501W        W90258   5.712  38.956   4.705
26502W        W90259  19.191  21.704  12.005
26503W        W90260  10.350  20.755   3.310
26504W        W90261  23.206  41.530   3.234
26505W        W90262   0.797  13.124   3.152
26506W        W90263  30.585  12.305   1.368
26507W        W90264  18.587  35.525   4.283
26508W        W90265   1.389  19.767   2.664
26509W        W90266  32.974  28.939   9.959
26510W        W90267  13.166  38.478  11.449
26511W        W90268  37.405  31.448   0.255
26512W        W90269   2.307   5.281   1.826
26513W        W90270  39.945  44.845   1.221
26514W        W90271  28.442  30.485  12.434
26515W        W90272  33.563  36.459  13.538
26516W        W90273  25.066  13.154  14.305
26517W        W90274  27.481   0.257  13.028
26518W        W90275  23.063  43.946  13.485
26519W        W90276  39.012  35.571   4.663
26520W        W90277   8.836  31.012   3.362
26521W        W90278   6.400  23.568   2.311
26522W        W90279   2.770  38.002  14.333
26523W        W90280  11.784   5.875  11.501
26524W        W90281  19.151  19.699  13.374
26525W        W90282  14.830  29.538   1.232
26526W        W90283  10.787  20.589  11.388
26527W        W90284  38.395  40.812   3.224
26528W        W90285  40.802  32.061   5.203
26529W        W90286  44.276  41.797  14.293
26530W        W90287   1.401  14.109   3.735
26531W        W90288   9.379  25.979   1.767
26532W        W90289  24.119  44.421   2.713
26533W        W90290   3.834  35.429   4.296
26534W        W90291  40.343  39.064  11.466
26535W        W90292  39.812  11.623  14.304
26536W        W90293   3.833   2.964   3.698
26537W        W90294  40.487  27.535   0.432
26538W        W90295  21.573  42.869  12.075
26539W        W90296  15.194  17.114  11.443
26540W        W90297  11.168  42.401  12.017
26541W        W90298  32.102  24.225  13.368
26542W        W90299  44.420  44.834   2.775
26543W        W90300  43.970  19.115   2.220
26544W        W90301   5.298  26.635  12.479
26545W        W90302  39.037  27.193  12.519
26546W        W90303  44.504  15.103   4.772
26547W        W90304  19.745  44.778   1.828
26548W        W90305  16.207  44.928   0.835
26549W        W90306  25.123   4.311   2.833
26550W        W90307  43.433   6.772   0.475
26551W        W90308   7.289  43.445   3.806
26552W        W90309   7.280  34.080   2.350
26553W        W90310  37.067   0.311   1.216
26554W        W90311  29.032  33.104   3.860
26555W        W90312   4.916  12.302  14.466
26556W        W90313  37.413  17.609   2.348
26557W        W90314  21.144  21.153   2.384
26558W        W90315  13.731  40.922   2.761
26559W        W90316  26.518  29.548   3.750
26560W        W90317  13.788   4.898  13.899
26561W        W90318  38.545   9.861  13.465
26562W        W90319  12.258  23.209   1.881
26563W        W90320   4.907  40.839   9.515
26564W        W90321  18.061  36.003   1.268
26565W        W90322  41.913  41.839  10.523
26566W        W90323  32.003  35.035  10.622
26567W        W90324  42.884   0.335   0.762
26568W        W90325  30.982  10.836  14.459
26569W        W90326   2.267   5.695  13.940
26570W        W90327  31.081  33.497   1.419
26571W        W90328   6.699  13.775  12.900
26572W        W90329  33.616  25.084  12.391
26573W        W90330  24.516  32.958   4.342
26574W        W90331  22.642  37.438   0.741
26575W        W90332  21.643  21.101   5.249
26576W        W90333  16.690  10.772  11.484
26577W        W90334  15.765  30.537   3.695
26578W        W90335  30.160  26.627   2.214
26579W        W90336  16.254   5.220  11.083
26580W        W90337   0.893  17.071  11.945
26581W        W90338  15.631   9.182   1.761
26582W        W90339  18.682  30.638  10.051
26583W        W90340  35.042  38.960   2.903
26584W        W90341  20.236  39.450   2.363
26585W        W90342  30.981  15.271   0.357
26586W        W90343  43.349  39.499  10.443
26587W        W90344  29.583  42.421  14.945
26588W        W90345  20.589  12.807   1.755
26589W        W90346   6.678  15.268  14.469
26590W        W90347  19.066   1.446   2.396
26591W        W90348  39.444  13.661  13.410
26592W        W90349  44.436  22.132   4.678
26593W        W90350  22.561  21.647   2.323
26594W        W90351   3.788   8.697   5.191
26595W        W90352  40.000  14.258   0.827
26596W        W90353  28.980   3.417   2.365
26597W        W90354  22.041   0.449   4.129
26598W        W90355  16.800  32.439  14.510
26599W        W90356  11.851   0.874  14.314
26600W        W90357  10.358   7.280  12.356
26601W        W90358  12.300  38.557   4.330
26602W        W90359  31.019  41.864  13.044
26603W        W90360  25.710  34.891   2.672
26604W        W90361  31.466  20.116  11.037
26605W        W90362  16.109  43.945  10.543
26606W        W90363  44.842  26.103   2.317
26607W        W90364  17.575  17.682  12.054
26608W        W90365   7.184  41.809  12.551
26609W        W90366  21.076  43.841   0.905
26610W        W90367  31.405  43.771  14.015
26611W        W90368  23.662  15.206   1.443
26612W        W90369  33.996  31.483   1.737
26613W        W90370  31.088  20.607  13.374
26614W        W90371  37.065   0.970   1.727
26615W        W90372   2.264  34.065  11.031
26616W        W90373  23.108  42.003   4.667
26617W        W90374  28.569   0.816  10.571
26618W        W90375   4.943   4.417   3.730
26619W        W90376  21.151   3.319  12.367
26620W        W90377  21.620  42.834   4.635
26621W        W90378  17.141   3.220  14.507
26622W        W90379  14.754   1.847   3.862
26623W        W90380  38.542  30.915  14.960
26624W        W90381   6.252  11.242  12.887
26625W        W90382  39.818  36.501  11.601
26626W        W90383   8.287  10.186   4.223
26627W        W90384  21.639  43.955   4.242
26628W        W90385  34.603  38.338   3.648
26629W        W90386   5.299  18.285   0.393
26630W        W90387  27.507  17.189  10.598
26631W        W90388  35.036  32.120   4.145
26632W        W90389  27.690  33.604   4.128
26633W        W90390  17.753  35.412   4.637
26634W        W90391  33.090  14.237   1.902
26635W        W90392  20.200  22.620  14.017
26636W        W90393  37.923  20.070  12.429
26637W        W90394  38.972  27.627  11.566
26638W        W90395  24.049  16.650   4.614
26639W        W90396   0.807  36.506   4.722
26640W        W90397  30.062  39.489  13.017
26641W        W90398  43.307  34.551   4.830
26642W        W90399  28.176  22.103  14.499
26643W        W90400   6.255   0.492  10.635
26644W        W90401  14.183  36.958  13.532
26645W        W90402  31.146  13.298   0.887
26646W        W90403  21.561   9.659  10.459
26647W        W90404  22.173  43.805   0.912
26648W        W90405  12.805   8.866   1.744
26649W        W90406  40.505   6.794  11.897
26650W        W90407  11.737  42.285   0.731
26651W        W90408  14.314   8.893   3.308
26652W        W90409  35.043   8.865   3.231
26653W        W90410  43.904  41.804   4.838
26654W        W90411  39.963  33.488  12.027
26655W        W90412   5.793  18.198   0.804
26656W        W90413   9.157   2.250  12.949
26657W        W90414  27.617  13.146   2.772
26658W        W90415  36.977  26.054  14.512
26659W        W90416  12.721  27.037   2.779
26660W        W90417  21.680  27.957  11.082
26661W        W90418  35.027  36.890  10.993
26662W        W90419  17.582  12.776   5.113
26663W        W90420  10.165   2.397   4.602
26664W        W90421  38.434   2.399   2.211
26665W        W90422   8.690  37.476  13.850
26666W        W90423   4.830  14.629   4.601
26667W        W90424  27.128   8.799  11.005
26668W        W90425   3.344  15.767   3.767
26669W        W90426  29.006   8.170   3.373
26670W        W90427  23.528   4.293   4.674
26671W        W90428  37.509  25.986   2.277
26672W        W90429  25.173  17.569   3.285
26673W        W90430  13.226  22.507   5.101
26674W        W90431  32.443  14.142  10.450
26675W        W90432   4.754   2.377  14.374
26676W        W90433  14.785  16.635   0.961
26677W        W90434   8.830   8.759  14.949
26678W        W90435  44.392  33.101  11.026
26679W        W90436  27.644  22.123   0.842
26680W        W90437  36.457  15.608  11.491
26681W        W90438   1.463   8.701   2.675
26682W        W90439  26.080  16.790  11.525
26683W        W90440  19.722  37.581  13.936
26684W        W90441  13.133  32.958   2.325
26685W        W90442  11.259   6.712  12.552
26686W        W90443  36.917   4.258   2.728
26687W        W90444  30.452  19.721   4.174
26688W        W90445  24.988  34.946  11.967
26689W        W90446  21.230  23.039  13.353
26690W        W90447  42.875  27.598   2.800
26691W        W90448  42.883  31.004   5.318
26692W        W90449   0.881  12.683  10.596
26693W        W90450  40.826  39.864  12.440
26694W        W90451  25.973  41.979  14.003
26695W        W90452  38.979  42.382   2.816
26696W        W90453  34.393   4.890   0.863
26697W        W90454  25.642  18.616  11.929
26698W        W90455  37.567   9.297  10.961
26699W        W90456  26.589   7.202   0.738
26700W        W90457  23.636  24.173   1.844
26701W        W90458  28.176   9.349   4.286
26702W        W90459   8.701  24.188   4.202
26703W        W90460  40.901  15.809   2.314
26704W        W90461  24.548  24.045  14.769
26705W        W90462  27.619  16.180   3.315
26706W        W90463  44.466  12.825   1.328
26707W        W90464  11.715  20.231   1.885
26708W        W90465  36.417   6.747  10.472
26709W        W90466  11.153  27.653   3.241
26710W        W90467   9.673  34.423   3.185
26711W        W90468   9.276  17.787   5.621
26712W        W90469  11.269   0.288  13.027
26713W        W90470  40.945  35.582   4.155
26714W        W90471  26.995   2.376   4.245
26715W        W90472  14.784  21.670  11.482
26716W        W90473  19.688  10.264  11.107
26717W        W90474  34.100  17.689  10.438
26718W        W90475  15.790  31.909   2.794
26719W        W90476  33.128  43.964   1.797
26720W        W90477  16.315  32.887  14.462
26721W        W90478  19.058  21.617  10.605
26722W        W90479   4.440  12.316   0.421
26723W        W90480   9.655   8.388   4.659
26724W        W90481  13.822  34.391  14.959
26725W        W90482  40.522   6.396   0.467
26726W        W90483  11.693  29.477   3.233
26727W        W90484  14.143  19.770   2.830
26728W        W90485  43.846  37.469   4.139
26729W        W90486  14.187  16.148  12.426
26730W        W90487  28.492  35.956   2.680
26731W        W90488  22.695  28.514  13.881
26732W        W90489   4.828  12.287   1.397
26733W        W90490  19.569  12.696  12.506
26734W        W90491  11.701  41.312   0.773
26735W        W90492  23.161  32.062  13.388
26736W        W90493  24.133   7.751  13.949
26737W        W90494  42.858  35.875   0.261
26738W        W90495  24.198   2.731   4.782
26739W        W90496  14.247  15.588   0.351
26740W        W90497   0.792  16.693  13.522
26741W        W90498  10.174  21.720  14.834
26742W        W90499  17.299  39.038  14.795
26743W        W90500  16.652   4.750   0.940
26744W        W90501   3.327  31.541  11.943
26745W        W90502   3.956  10.138  11.561
26746W        W90503  16.776  39.871   4.680
26747W        W90504  28.142  26.510   5.304
26748W        W90505  30.437   7.782   3.775
26749W        W90506  20.746   8.228   0.944
26750W        W90507   2.797  33.900   4.751
26751W        W90508  38.009   3.895   1.829
26752W        W90509   2.861  31.617   2.353
26753W        W90510  14.244  17.699   4.758
26754W        W90511  20.612   9.863   1.432
26755W        W90512  15.316  11.143  12.430
26756W        W90513  16.657  42.331  11.477
26757W        W90514  11.840  40.979   9.987
26758W        W90515  26.529  26.458   0.457
26759W        W90516   1.441  29.116  11.109
26760W        W90517  12.277  14.716   4.152
26761W        W90518   3.225  25.586   2.728
26762W        W90519  15.083  22.570   3.286
26763W        W90520  39.367  13.640  10.542
26764W        W90521  35.886  37.831   2.706
26765W        W90522  17.779   2.892   0.828
26766W        W90523  21.185   0.837  13.890
26767W        W90524   6.725  43.811  11.862
26768W        W90525  41.946  24.513   4.139
26769W        W90526   8.669  12.749  12.565
26770W        W90527   2.435   5.243  11.121
26771W        W90528   5.723   2.332  10.452
26772W        W90529  42.924  27.488   4.296
26773W        W90530  10.753  18.135  11.938
26774W        W90531  23.170  33.973  10.560
26775W        W90532  31.937  41.810  14.793
26776W        W90533  10.666  38.386  13.422
26777W        W90534  27.158  20.032  14.317
26778W        W90535  35.387  18.791  14.841
26779W        W90536  24.199  39.555  10.484
26780W        W90537   2.284  21.659  10.968
26781W        W90538  16.168  43.345  13.846
26782W        W90539   0.948  39.539   3.261
26783W        W90540  31.451   7.187  11.885
26784W        W90541  13.687  30.030  11.914
26785W        W90542  30.077   8.782  13.475
26786W        W90543  25.102  11.816  11.580
26787W        W90544  20.692   4.376  13.389
26788W        W90545   9.362   9.236  14.869
26789W        W90546  13.304  23.491  10.075
26790W        W90547  42.979  24.007  14.425
26791W        W90548   7.884  25.541  11.968
26792W        W90549  38.035  11.789  14.340
26793W        W90550  15.614  37.874   2.335
26794W        W90551  40.887   9.733   2.835
26795W        W90552  23.124   7.808  12.420
26796W        W90553  28.666   0.398  10.625
26797W        W90554  13.617  11.806  14.443
26798W        W90555  42.017  31.127  11.983
26799W        W90556  20.204  32.972   4.813
26800W        W90557  19.767  24.548  13.312
26801W        W90558  25.122   1.875   3.230
26802W        W90559  24.587   9.244  10.585
26803W        W90560  27.038  25.673   1.905
26804W        W90561   6.342  14.820  12.054
26805W        W90562   6.897  32.576   3.385
26806W        W90563  19.278  21.061   4.776
26807W        W90564  10.812  35.551  13.536
26808W        W90565  40.402   3.777   2.892
26809W        W90566  33.548   4.447  11.981
26810W        W90567  22.574   9.376  10.584
26811W        W90568   2.296  20.696  14.360
26812W        W90569  41.921  21.217  14.406
26813W        W90570  34.446  38.490   1.698
26814W        W90571  13.225  10.255   1.804
26815W        W90572   3.422  22.207  11.590
26816W        W90573  25.156  43.859  13.052
26817W        W90574  12.713  42.913  13.887
26818W        W90575  12.722  14.227  12.914
26819W        W90576  37.403   4.860   4.164
26820W        W90577  10.747  44.807  11.855
26821W        W90578   8.795   4.939   5.300
26822W        W90579  32.605  13.773   4.790
26823W        W90580  12.356  22.635   1.375
26824W        W90581  36.846  42.874   2.309
26825W        W90582  41.994  29.640  11.105
26826W        W90583   6.278  38.979   1.273
26827W        W90584  25.162  25.999   3.699
26828W        W90585  18.577  30.658  13.401
26829W        W90586   3.789  31.636  13.888
26830W        W90587  38.908  38.360   4.155
26831W        W90588  29.935  36.969  14.344
26832W        W90589  15.230  11.352   1.753
26833W        W90590  38.856  26.545  11.605
26834W        W90591  11.276   3.321   0.953
26835W        W90592  13.249   2.785  11.127
26836W        W90593  41.304  14.798  13.919
26837W        W90594  29.054  31.039   3.387
26838W        W90595   7.812  35.498  14.480
26839W        W90596  40.046  42.819   0.376
26840W        W90597   0.380  34.589   0.327
26841W        W90598  39.433   6.234  14.891
26842W        W90599  31.023  31.539  14.305
26843W        W90600  35.856   6.287   2.202
26844W        W90601  19.128  31.612  10.486
26845W        W90602   2.455  36.882   3.807
26846W        W90603   1.778  25.138  11.012
26847W        W90604  10.849  18.587   4.127
26848W        W90605  15.697  13.623   3.654
26849W        W90606  39.473  14.790   3.322
26850W        W90607  40.498  41.490  11.960
26851W        W90608   8.790  18.149  14.882
26852W        W90609  38.463  33.089   1.865
26853W        W90610  13.778   1.254  14.008
26854W        W90611  20.228   6.785  12.543
26855W        W90612  25.606  21.053   9.951
26856W        W90613  29.113  36.395  13.915
26857W        W90614  40.528  28.087  13.939
26858W        W90615  38.410   6.291   0.261
26859W        W90616  37.504  42.991   3.330
26860W        W90617  43.445  21.186   3.217
26861W        W90618  22.123  23.226  14.359
26862W        W90619  22.047   9.215  13.987
26863W        W90620  43.767  24.003   4.734
26864W        W90621   7.195  20.728   3.834
26865W        W90622  33.616  22.519  10.122
26866W        W90623   7.763  15.633  12.343
26867W        W90624  24.984  43.991   4.837
26868W        W90625   7.236  14.145   1.774
26869W        W90626  24.108  18.588  13.523
26870W        W90627  24.650  42.960   4.267
26871W        W90628   8.272  28.977  11.097
26872W        W90629  44.867  27.455  11.524
26873W        W90630  15.156  40.510   2.208
26874W        W90631  44.446  35.856   0.435
26875W        W90632  13.689  22.142   2.342
26876W        W90633  33.996  35.862  13.915
26877W        W90634  27.659  36.902   1.729
26878W        W90635  41.861   7.359   4.604
26879W        W90636   4.329   5.832  11.517
26880W        W90637   7.784  12.313  13.936
26881W        W90638  15.314  25.091  11.030
26882W        W90639  31.618  18.247  14.508
26883W        W90640   6.795  26.518  14.322
26884W        W90641  11.243   0.842  13.017
26885W        W90642   1.271  26.201  10.517
26886W        W90643  35.546  10.821   3.634
26887W        W90644  13.174   4.879   1.300
26888W        W90645   6.722  40.798   4.339
26889W        W90646  24.046   5.418   1.253
26890W        W90647  27.941  37.947  12.443
26891W        W90648  41.474  33.603   0.322
26892W        W90649  43.907   6.687  11.477
26893W        W90650  32.135  18.594   3.805
26894W        W90651  19.775   3.842  14.440
26895W        W90652  13.324   9.763  14.451
26896W        W90653  35.522  24.715   4.323
26897W        W90654  44.355  34.566   1.344
26898W        W90655  41.808  40.471   0.814
26899W        W90656  15.786  13.804   5.196
26900W        W90657  22.052  43.936   1.893
26901W        W90658  25.600  11.183  10.444
26902W        W90659  26.656  30.068  11.515
26903W        W90660  16.733  37.883  12.835
26904W        W90661  26.010  28.005   4.652
26905W        W90662  32.441  10.217  14.467
26906W        W90663  14.336  12.751  10.419
26907W        W90664   5.293  37.498   5.105
26908W        W90665  28.448  42.390  11.542
26909W        W90666  12.734  14.296   3.671
26910W        W90667  35.511  26.078   9.978
26911W        W90668   6.371   7.246   1.250
26912W        W90669   5.354  35.069  12.037
26913W        W90670   5.708  40.360   3.301
26914W        W90671  26.964  33.604  12.447
26915W        W90672  10.213   2.951   4.219
26916W        W90673  17.775  35.871  12.959
26917W        W90674  11.710  11.730  14.946
26918W        W90675  28.609   7.717  13.444
26919W        W90676  23.619   4.872   1.241
26920W        W90677   2.399  37.844   2.741
26921W        W90678  29.566  16.256  13.972
26922W        W90679  42.962  22.647   3.753
26923W        W90680  25.088   1.912   1.358
26924W        W90681  19.591  24.149  11.116
26925W        W90682   4.396  28.573  13.873
26926W        W90683   4.235  15.211  12.978
26927W        W90684  14.695  34.878  14.279
26928W        W90685  17.588   2.836  14.887
26929W        W90686  42.443  39.950  12.056
26930W        W90687  25.658  22.113   2.741
26931W        W90688  37.937   8.346  14.327
26932W        W90689   6.688  28.993  13.352
26933W        W90690  16.749  25.510   0.402
26934W        W90691  39.344   5.327   3.803
26935W        W90692  29.573   4.421   0.902
26936W        W90693  35.480  32.950   1.776
26937W        W90694   0.374  22.659  10.943
26938W        W90695  18.091  35.924   4.705
26939W        W90696  37.475  20.727   2.698
26940W        W90697   4.407  24.565   1.819
26941W        W90698  14.231  10.189  10.566
26942W        W90699  23.993  18.594   4.243
26943W        W90700   8.849  21.163  13.033
26944W        W90701  26.552  19.716  14.440
26945W        W90702  42.829   4.256   1.703
26946W        W90703  10.641  18.243   4.293
26947W        W90704  16.263  44.982   1.293
26948W        W90705  43.413   1.793  14.879
26949W        W90706   3.262  16.736  12.988
26950W        W90707  21.144  15.100   1.305
26951W        W90708  16.641   8.215  14.492
26952W        W90709  10.215  44.883   1.907
26953W        W90710  34.586  17.558  10.513
26954W        W90711  26.048  27.613  12.926
26955W        W90712  13.213  20.526   2.290
26956W        W90713  31.057   8.368  14.758
26957W        W90714  34.100  31.952   0.307
26958W        W90715   8.898  42.981   4.639
26959W        W90716  40.319  26.990   2.256
26960W        W90717  10.221   4.889   5.112
26961W        W90718  42.980  10.674   1.815
26962W        W90719   7.858  37.447  11.116
26963W        W90720  26.095  30.516   1.850
26964W        W90721   3.235  25.499  11.045
26965W        W90722  31.532  33.075  10.513
26966W        W90723   7.337  32.533  10.534
26967W        W90724  28.078   4.901   1.428
26968W        W90725   6.224  12.660   4.730
26969W        W90726  14.309  44.941   0.910
26970W        W90727  36.846   5.330  13.922
26971W        W90728  20.058  12.694  12.030
26972W        W90729   7.756  24.059   1.892
26973W        W90730  34.496  38.912   1.894
26974W        W90731  42.857  11.673  13.453
26975W        W90732  13.330  37.462   2.732
26976W        W90733  11.849  30.520   0.270
26977W        W90734  43.006  15.178  14.990
26978W        W90735  42.946  24.109   3.792
26979W        W90736  22.656  15.085   1.769
26980W        W90737  11.271   8.280  14.861
26981W        W90738  40.490   1.265  14.805
26982W        W90739   5.291  13.340  11.108
26983W        W90740   2.881   8.172  12.472
26984W        W90741  27.170  30.606   0.912
26985W        W90742  11.275  23.174   4.261
26986W        W90743  36.528  27.049   1.326
26987W        W90744   8.189  41.000  12.073
26988W        W90745   4.373   5.756  11.891
26989W        W90746   7.339  28.515  13.824
26990W        W90747   9.646  15.628   2.301
26991W        W90748   4.927  13.198   1.924
26992W        W90749  19.124  11.234  10.447
26993W        W90750  33.084  13.220   2.346
26994W        W90751  40.987  26.617  14.367
26995W        W90752  17.606  38.062  12.046
26996W        W90753  39.049  43.985  10.543
26997W        W90754  18.605  33.512  11.419
26998W        W90755  30.934   6.232   5.716
26999W        W90756  14.253  26.538  14.407
27000W        W90757  10.640  37.955  12.060
27001W        W90758  15.134  19.587   3.663
27002W        W90759  10.657  23.529   0.921
27003W        W90760  22.155  44.865   4.183
27004W        W90761  38.827   8.783   4.236
27005W        W90762  43.980  14.130  11.547
27006W        W90763  11.696   0.882   0.781
27007W        W90764  37.840   3.356  13.430
27008W        W90765  42.908  31.150  11.409
27009W        W90766  35.969  24.684  12.090
27010W        W90767  19.719  36.429  13.898
27011W        W90768  12.729  22.015  11.409
27012W        W90769  34.047  28.148  11.906
27013W        W90770  28.004  39.968   2.850
27014W        W90771  13.272  41.384   4.621
27015W        W90772  25.049  35.862  13.037
27016W        W90773   7.870  25.199   1.356
27017W        W90774  44.392  23.185  13.463
27018W        W90775  24.032   9.316  10.567
27019W        W90776  35.424  39.428  11.003
27020W        W90777  16.189  14.794   2.232
27021W        W90778   1.957  20.266   0.274
27022W        W90779  40.437   2.750  14.339
27023W        W90780   1.462  15.766   1.418
27024W        W90781  31.037  15.250   3.306
27025W        W90782  10.279  36.358   3.756
27026W        W90783   3.844  14.682  10.566
27027W        W90784   3.383  30.501  13.966
27028W        W90785  32.889  35.398  12.941
27029W        W90786  40.810  11.830  10.521
27030W        W90787  26.670  39.849  12.392
27031W        W90788   0.335   5.874   2.677
27032W        W90789   7.694  37.581  10.587
27033W        W90790  30.045  21.245   2.805
27034W        W90791  25.623   9.299  12.346
27035W        W90792  35.534  30.010   4.210
27036W        W90793  18.728   9.177   3.350
27037W        W90794  43.972  28.651   2.352
27038W        W90795  10.819  37.335   4.732
27039W        W90796  13.737   6.289  13.940
27040W        W90797   2.462  16.111  10.600
27041W        W90798   5.367  30.057   1.743
27042W        W90799   3.749  40.370  10.066
27043W        W90800  44.261  14.244  10.644
27044W        W90801  39.528  26.466  11.909
27045W        W90802  38.066  12.825   3.379
27046W        W90803  21.690   6.325  10.519
27047W        W90804  13.132  24.186   0.402
27048W        W90805   3.860  18.555  13.431
27049W        W90806  33.474   4.893   2.876
27050W        W90807  35.857   7.815  10.502
27051W        W90808  40.415  28.671   3.198
27052W        W90809  27.154  14.772   4.269
27053W        W90810  40.028  29.106  11.530
27054W        W90811  38.505  30.606   4.229
27055W        W90812  31.551  34.533   0.843
27056W        W90813   0.752  33.412   3.362
27057W        W90814  34.614  24.075   0.827
27058W        W90815  20.189   4.337   2.255
27059W        W90816   1.859  41.012   2.274
27060W        W90817  34.114  20.691   4.263
27061W        W90818  22.189  24.088   2.676
27062W        W90819   0.416  13.318  12.494
27063W        W90820  23.038  43.406  10.516
27064W        W90821  18.173  11.651  12.451
27065W        W90822  15.731   8.213   0.381
27066W        W90823  25.498  41.400   0.859
27067W        W90824  40.964  12.754   4.224
27068W        W90825  22.207  35.966  11.054
27069W        W90826  42.929  26.120  13.042
27070W        W90827  35.939   8.170  12.911
27071W        W90828   4.366  36.351  12.532
27072W        W90829  27.990  33.595  14.360
27073W        W90830  35.543   5.793   0.378
27074W        W90831  26.599  15.206  13.036
27075W        W90832  12.658  34.408  14.330
27076W        W90833  28.572   7.246  12.486
27077W        W90834  32.460  14.766   3.758
27078W        W90835   9.870  14.233  14.885
27079W        W90836  22.055  25.587  11.386
27080W        W90837  22.052   9.675   2.680
27081W        W90838  20.626  20.740  12.014
27082W        W90839  44.920  22.197  11.520
27083W        W90840   5.405  43.460   0.736
27084W        W90841  23.091  43.978   4.669
27085W        W90842  28.184   7.759   4.206
27086W        W90843  18.659  26.619   0.909
27087W        W90844  31.607  16.318  11.473
27088W        W90845  24.182  21.144  12.850
27089W        W90846   0.392   7.190  12.842
27090W        W90847   6.204  38.831  14.777
27091W        W90848   8.899  40.854  13.829
27092W        W90849   3.306  34.003   1.327
27093W        W90850  23.238   7.338  14.895
27094W        W90851  17.100  12.318   0.766
27095W        W90852   6.319  34.379  13.793
27096W        W90853   1.424   5.816   0.287
27097W        W90854  11.130  21.620  11.376
27098W        W90855  16.780  33.573  12.944
27099W        W90856   5.881   6.738   4.663
27100W        W90857   5.735   1.268   4.320
27101W        W90858  16.180  11.851  12.478
27102W        W90859  31.988  30.578  12.950
27103W        W90860  25.492   4.411   2.721
27104W        W90861  42.789  28.093   4.727
27105W        W90862  31.945  30.158   1.430
27106W        W90863  30.008  40.906   3.326
27107W        W90864  11.771  22.643  13.323
27108W        W90865  10.685   1.861  12.841
27109W        W90866  17.614  40.898   4.294
27110W        W90867   7.217  10.205   3.258
27111W        W90868  38.891  32.599   0.924
27112W        W90869  43.416  37.526   5.242
27113W        W90870  39.984  12.357   2.889
27114W        W90871  17.240  29.446   9.930
27115W        W90872   7.836   2.329  10.527
27116W        W90873  19.748   8.332   1.235
27117W        W90874   9.388  27.036  10.926
27118W        W90875  27.481   0.986   2.755
27119W        W90876  38.405  43.893  11.474
27120W        W90877   5.711  38.555   2.371
27121W        W90878  44.451  29.961   4.299
27122W        W90879  10.857  36.391   2.874
27123W        W90880   6.907  29.112   0.921
27124W        W90881   4.754  33.480   4.152
27125W        W90882  21.547   4.413  13.465
27126W        W90883  32.082   5.713  14.905
27127W        W90884  36.404  40.548   1.428
27128W        W90885  13.335  20.214   3.805
27129W        W90886  33.427  40.934   4.245
27130W        W90887  42.032  23.102   4.753
27131W        W90888  21.549  27.987  12.906
27132W        W90889  34.074  38.506  13.993
27133W        W90890  29.037   7.669   4.296
27134W        W90891  20.241  40.005  10.909
27135W        W90892  41.343   8.376  13.419
27136W        W90893  39.493  14.140  12.563
27137W        W90894  23.182  22.747  10.551
27138W        W90895  33.491  14.157  10.952
27139W        W90896  25.987   0.417   2.720
27140W        W90897  41.405  21.685  10.504
27141W        W90898  19.266  31.477  13.472
27142W        W90899  17.283  40.373  13.811
27143W        W90900  13.759  22.691   0.770
27144W        W90901   0.874  14.269  11.608
27145W        W90902  10.854  16.808   3.798
27146W        W90903   9.710  20.197  11.393
27147W        W90904  32.062  43.887   1.279
27148W        W90905  31.556   3.360  11.929
27149W        W90906  39.501  25.500  12.533
27150W        W90907  37.456  39.978  10.136
27151W        W90908  41.953  23.619  12.034
27152W        W90909   9.382  19.586   5.257
27153W        W90910   4.918  10.667  10.508
27154W        W90911   8.763   3.364  10.609
27155W        W90912  27.111  18.068  11.052
27156W        W90913  40.373  19.219   4.632
27157W        W90914  36.534   9.675   4.754
27158W        W90915   5.213  40.374  13.344
27159W        W90916  29.935  11.630  13.860
27160W        W90917  28.663  44.289  11.932
27161W        W90918   4.341  35.016  13.061
27162W        W90919  19.729  21.657   3.294
27163W        W90920  19.713  11.698  10.500
27164W        W90921   7.367  10.643   3.631
27165W        W90922  35.482   5.316   1.302
27166W        W90923  18.069  37.867   2.200
27167W        W90924   9.355  38.391   3.225
27168W        W90925  14.764  17.770   3.673
27169W        W90926  32.425  32.115  14.446
27170W        W90927  43.010  15.810   4.308
27171W        W90928   4.339  30.514   3.669
27172W        W90929  13.604  42.948   4.680
27173W        W90930  44.418   6.883  13.827
27174W        W90931   0.951  26.035   4.260
27175W        W90932  35.914  16.306  13.429
27176W        W90933  42.440   8.295   4.306
27177W        W90934  22.745  24.129  12.570
27178W        W90935  10.850  17.096  13.883
27179W        W90936  11.660   4.234  10.902
27180W        W90937   5.303   1.821   1.856
27181W        W90938  28.005  34.044   1.782
27182W        W90939  26.662  28.069  14.343
27183W        W90940  19.579  28.648  10.559
27184W        W90941  30.522   6.853   4.749
27185W        W90942  17.105  14.289   0.288
27186W        W90943   2.849   8.363   1.779
27187W        W90944   7.251  40.001   4.732
27188W        W90945   5.911  22.059   0.468
27189W        W90946  14.269  19.094   4.747
27190W        W90947   8.805  11.290  14.808
27191W        W90948  19.158  17.262  10.467
27192W        W90949  23.689  13.291  10.435
27193W        W90950  36.017  39.852  10.922
27194W        W90951  18.583  36.564   0.857
27195W        W90952  20.070   4.894  10.987
27196W        W90953  43.428   0.881   2.692
27197W        W90954  15.087  31.440   3.735
27198W        W90955   5.356   5.215   4.313
27199W        W90956  13.617  10.290  13.485
27200W        W90957  34.897  37.416   5.253
27201W        W90958   0.353   4.758  12.420
27202W        W90959  11.152   2.923  11.505
27203W        W90960  28.588   9.370  13.003
27204W        W90961  37.849  32.943  10.949
27205W        W90962  19.632  34.537  14.845
27206W        W90963  14.745  19.203  11.990
27207W        W90964   4.431   1.471  11.084
27208W        W90965  14.224   8.382  13.912
27209W        W90966  33.893  15.661  11.390
27210W        W90967  24.494   6.831   3.317
27211W        W90968  19.272  17.689  13.017
27212W        W90969  38.562  10.281  11.525
27213W        W90970  23.169  34.939  13.992
27214W        W90971   2.750  25.546  10.505
27215W        W90972  44.952  10.155   2.269
27216W        W90973  22.626  33.082   4.122
27217W        W90974  36.858  16.119  11.997
27218W        W90975  13.119   9.360   4.285
27219W        W90976  30.949  11.147  14.403
27220W        W90977   0.284  31.075  14.306
27221W        W90978  44.904  10.829  11.411
27222W        W90979  26.181  43.466  11.530
27223W        W90980  22.684   2.739  12.987
27224W        W90981  14.662  26.167   4.800
27225W        W90982  32.031   7.382   3.780
27226W        W90983   3.374  11.827  12.542
27227W        W90984  23.095   4.434   4.140
27228W        W90985  37.512  22.052  12.576
27229W        W90986  44.312  32.558  10.615
27230W        W90987  15.188  38.962  11.505
27231W        W90988  34.533  20.198   4.162
27232W        W90989  41.455  10.748   3.694
27233W        W90990  32.447  16.111  14.846
27234W        W90991  28.458   1.910  14.812
27235W        W90992  28.623  13.299  12.373
27236W        W90993  12.747  21.068  14.871
27237W        W90994  11.206   7.792  13.894
27238W        W90995  43.904  13.184  10.922
27239W        W90996  29.921  37.407   3.161
27240W        W90997   3.781   5.922  13.798
27241W        W90998  34.418   8.233   2.238
27242W        W90999  34.076  18.235  10.547
27243W        W91000  20.689   1.887  12.833
27244W        W91001  12.162   8.404  14.486
27245W        W91002   4.843  35.379   3.653
27246W        W91003  24.657  28.931  13.877
27247W        W91004  14.217  18.069   3.866
27248W        W91005  14.678  36.996  12.451
27249W        W91006  14.290   6.219   2.400
27250W        W91007   4.328  27.966  12.440
27251W        W91008   5.787  36.435  14.759
27252W        W91009  33.915  16.103   4.649
27253W        W91010   1.882  12.180   0.771
27254W        W91011  12.235  44.408   3.801
27255W        W91012  34.947  30.996  11.388
27256W        W91013  38.540  12.141  12.837
27257W        W91014  32.473  29.169  14.460
27258W        W91015  30.950  42.374   3.635
27259W        W91016  35.900  30.443   4.353
27260W        W91017  33.083  26.556   0.429
27261W        W91018  15.161  32.575   1.337
27262W        W91019   2.428  37.409  10.067
27263W        W91020   4.323  11.843  12.487
27264W        W91021  31.522  40.911   0.396
27265W        W91022  36.000  16.626  12.921
27266W        W91023  11.714  20.058  13.878
27267W        W91024  14.728   4.858   2.831
27268W        W91025  28.033  37.037   2.745
27269W        W91026  11.160  36.533  12.090
27270W        W91027  15.748   9.222   3.281
27271W        W91028  32.909  22.162  13.415
27272W        W91029  16.580  23.554  14.021
27273W        W91030   5.336   9.789   2.248
27274W        W91031  24.133   1.822   1.419
27275W        W91032  13.727  31.944   2.819
27276W        W91033  35.882  22.097   4.717
27277W        W91034  11.763   6.884   0.908
27278W        W91035  39.846  23.598   1.807
27279W        W91036  31.591   3.754   3.306
27280W        W91037  39.940  25.095   4.288
27281W        W91038  35.985  30.647  11.066
27282W        W91039  21.593  27.525  10.557
27283W        W91040  20.139  29.443   1.695
27284W        W91041  10.751  38.391  10.410
27285W        W91042   6.725  39.922  12.983
27286W        W91043   0.972  33.582  13.372
27287W        W91044  40.311  14.160   4.835
27288W        W91045  21.174  23.642   0.481
27289W        W91046   9.188  36.372  12.499
27290W        W91047   4.424   2.328   0.358
27291W        W91048   1.937  29.588  11.040
27292W        W91049  16.687  29.091  12.538
27293W        W91050  18.652  19.173  11.537
27294W        W91051  28.067  19.718   2.286
27295W        W91052  39.840  14.674  12.482
27296W        W91053  20.572  11.832   0.819
27297W        W91054  31.444  38.939   1.798
27298W        W91055  11.664  30.049  12.086
27299W        W91056  35.532  13.669  12.383
27300W        W91057  40.374  16.315  11.584
27301W        W91058  43.351  19.146   4.768
27302W        W91059   4.784  20.172   1.417
27303W        W91060  30.162  12.685  12.017
27304W        W91061  44.298  29.431   3.167
27305W        W91062  29.149  18.637  13.932
27306W        W91063  35.892   4.923  14.937
27307W        W91064  15.594  41.341  14.340
27308W        W91065   1.864  20.573  13.925
27309W        W91066  28.574  32.026   0.793
27310W        W91067  14.680  16.710  11.875
27311W        W91068  34.946  39.429   0.352
27312W        W91069  20.212  15.096  13.926
27313W        W91070   9.645   6.707  14.381
27314W        W91071   7.773   7.867  11.932
27315W        W91072   1.781  23.216  13.812
27316W        W91073  13.765  33.038  10.929
27317W        W91074  44.758  27.117   2.261
27318W        W91075  23.707  12.228   0.788
27319W        W91076  43.820  20.246   1.440
27320W        W91077  38.057  27.538  13.815
27321W        W91078  24.113  36.447   0.298
27322W        W91079  21.520  22.741  10.609
27323W        W91080   2.750  18.180   0.799
27324W        W91081   8.330   8.879   1.811
27325W        W91082   7.414  41.826   2.863
27326W        W91083  12.710  41.034   0.283
27327W        W91084  37.398  33.960   2.864
27328W        W91085  29.090  26.177   4.641
27329W        W91086  13.170  37.984   3.827
27330W        W91087  28.652  35.011  12.513
27331W        W91088  11.632  39.828   0.890
27332W        W91089  32.055  35.422  12.868
27333W        W91090   6.304   9.354  12.077
27334W        W91091  40.807  42.469   1.239
27335W        W91092  24.075  41.915  12.087
27336W        W91093   9.793  40.539  11.998
27337W        W91094  33.965  19.105  14.485
27338W        W91095  30.091  27.154   3.379
27339W        W91096   6.276  16.585  13.311
27340W        W91097  21.740  26.606   1.429
27341W        W91098  23.728  35.521   2.663
27342W        W91099  20.530  28.071  13.979
27343W        W91100   3.277   5.795   4.770
27344W        W91101   4.914  11.214  14.898
27345W        W91102  18.764   5.733  14.425
27346W        W91103   6.370   2.472   4.702
27347W        W91104   8.762  16.209   3.727
27348W        W91105   7.684   3.433  12.498
27349W        W91106  11.640  41.868  14.335
27350W        W91107   1.245  17.751  10.582
27351W        W91108  18.778  35.108   0.835
27352W        W91109  25.576  21.089   0.411
27353W        W91110  12.144  43.858  11.574
27354W        W91111  30.069   2.312   0.781
27355W        W91112  32.122  22.706  13.000
27356W        W91113   8.750  28.517  11.981
27357W        W91114  25.494   0.464   2.236
27358W        W91115  25.578  39.818  12.081
27359W        W91116  42.421  24.225   2.326
27360W        W91117   1.276  14.178   4.240
27361W        W91118  28.675  14.819  14.759
27362W        W91119  17.254  44.883   3.721
27363W        W91120   4.358  16.673   3.779
27364W        W91121  30.608  24.979  11.092
27365W        W91122  22.600  25.110   3.290
27366W        W91123  38.357  29.099   3.685
27367W        W91124  24.030  29.974   3.703
27368W        W91125   5.809  23.704   2.350
27369W        W91126   1.363  17.584  12.547
27370W        W91127  26.554  14.198  14.293
27371W        W91128  26.571  20.230  12.426
27372W        W91129  25.033  10.349  14.387
27373W        W91130   7.410  26.654  13.972
27374W        W91131   7.313  34.587   1.291
27375W        W91132  27.465  24.224   0.479
27376W        W91133  24.021  31.596  13.464
27377W        W91134  22.174  16.299  13.354
27378W        W91135  23.003  38.463  11.049
27379W        W91136  38.835  31.440   3.637
27380W        W91137  15.102  21.574  14.443
27381W        W91138  26.458  25.967   1.725
27382W        W91139  35.528  39.482  12.419
27383W        W91140  40.333  12.846   2.674
27384W        W91141  38.966  30.443   5.149
27385W        W91142  22.218  16.213   4.701
27386W        W91143  32.951  36.025  14.912
27387W        W91144  21.639  10.348  10.509
27388W        W91145   0.270  29.162  11.374
27389W        W91146  11.239  20.665  14.002
27390W        W91147  42.988  21.562  11.511
27391W        W91148   7.240   0.418  12.546
27392W        W91149   4.432   3.389  13.029
27393W        W91150  14.655  35.552   3.159
27394W        W91151  28.510  27.156  10.407
27395W        W91152  37.869   4.779  10.001
27396W        W91153  19.775  28.533   3.244
27397W        W91154  41.965   4.921  14.396
27398W        W91155  39.432  12.654   3.832
27399W        W91156   5.293  34.034  13.036
27400W        W91157   6.302  37.446  12.393
27401W        W91158  16.135  16.612  14.764
27402W        W91159  13.153  17.782   2.336
27403W        W91160  36.522  10.211  10.115
27404W        W91161  24.131   2.324   4.617
27405W        W91162  17.165  13.327  13.053
27406W        W91163  19.208  11.147   0.354
27407W        W91164  22.159  41.996   4.172
27408W        W91165  41.480  26.652  10.432
27409W        W91166  22.635  28.480   2.338
27410W        W91167  16.248  16.789   0.368
27411W        W91168  22.607  42.787   0.851
27412W        W91169   0.432  22.228  13.994
27413W        W91170  26.031  11.319   3.227
27414W        W91171  12.172  30.479  13.963
27415W        W91172  36.463   0.478   2.210
27416W        W91173  13.280  22.060  10.471
27417W        W91174  18.663   7.708  10.519
27418W        W91175   2.336   5.338  14.775
27419W        W91176  22.724  15.164  10.995
27420W        W91177  31.560  40.337  12.472
27421W        W91178  34.065  37.085   0.320
27422W        W91179  40.979  37.980   0.809
27423W        W91180  12.248  16.300  14.308
27424W        W91181  42.935  30.098  11.041
27425W        W91182   9.870  40.982  14.320
27426W        W91183  36.880  44.322   1.870
27427W        W91184   2.424  26.980   3.266
27428W        W91185  28.106  20.689  13.053
27429W        W91186  36.099  13.609  11.601
27430W        W91187   2.321  42.870  13.011
27431W        W91188  43.781  32.615  14.480
27432W        W91189  16.607  22.170  10.956
27433W        W91190  15.819  14.123  10.032
27434W        W91191  10.821   5.733   2.683
27435W        W91192  42.889  34.930   4.256
27436W        W91193  36.996  26.171   4.782
27437W        W91194  30.519  32.516  11.544
27438W        W91195  41.471  30.512   3.661
27439W        W91196  33.481  31.003  10.964
27440W        W91197  35.054  40.802  12.517
27441W        W91198  34.008  15.646   0.435
27442W        W91199  18.072  22.699   0.862
27443W        W91200   8.264  11.133   2.747
27444W        W91201   3.223  14.743  14.495
27445W        W91202   6.693  10.867  13.898
27446W        W91203  33.394  23.669   3.274
27447W        W91204   8.693  43.925  14.962
27448W        W91205   6.916  38.989   2.350
27449W        W91206  11.738  30.035   1.233
27450W        W91207  34.567  40.984  13.359
27451W        W91208   2.752   8.794  13.523
27452W        W91209  38.873   1.392   1.228
27453W        W91210  21.742  44.969  11.985
27454W        W91211  32.948  16.605  11.593
27455W        W91212  34.381   1.477   0.848
27456W        W91213  17.744   2.914   3.656
27457W        W91214  28.520  13.745  13.053
27458W        W91215   4.430  21.244  14.311
27459W        W91216  33.877  31.045  12.890
27460W        W91217  42.433   3.332   3.238
27461W        W91218  39.406  39.971  12.943
27462W        W91219  43.448   6.203  10.059
27463W        W91220  38.934   7.835   1.783
27464W        W91221   7.295  30.916   3.303
27465W        W91222  42.298  38.536   0.768
27466W        W91223  15.276  29.990  10.524
27467W        W91224  38.381  29.644   2.219
27468W        W91225  15.684  39.898  12.501
27469W        W91226   5.712  39.026   2.737
27470W        W91227   8.685  11.790   4.297
27471W        W91228  24.226   9.293   1.710
27472W        W91229   3.763   0.863   4.324
27473W        W91230  26.500   7.876  11.120
27474W        W91231  17.715  43.861   4.197
27475W        W91232  32.105   7.198   3.266
27476W        W91233  25.134  44.354   2.855
27477W        W91234  44.373   6.832  13.016
27478W        W91235  27.086   5.931   4.235
27479W        W91236  38.073   3.889   9.986
27480W        W91237  16.240   7.309  13.422
27481W        W91238  12.224  20.716   0.361
27482W        W91239   6.401  17.105   1.256
27483W        W91240  41.859  14.762  13.404
27484W        W91241  44.353   3.947  12.842
27485W        W91242  26.005  25.695  13.528
27486W        W91243   5.209  13.701   4.149
27487W        W91244  29.061  32.998   4.270
27488W        W91245  21.660   1.966   3.153
27489W        W91246   1.303   7.406  11.939
27490W        W91247  36.090  10.336   2.354
27491W        W91248  30.644  39.022   4.346
27492W        W91249  27.133  32.449  10.485
27493W        W91250  20.263  24.978   1.777
27494W        W91251  17.262  31.078  13.513
27495W        W91252  32.086   4.365  11.489
27496W        W91253  37.492  20.715  12.424
27497W        W91254  28.657  39.349   2.879
27498W        W91255  24.082  24.584   5.208
27499W        W91256  21.569  16.693  14.332
27500W        W91257  25.994   2.895   0.342
27501W        W91258  35.953  24.228   1.420
27502W        W91259  37.055  34.569  13.360
27503W        W91260  25.705  32.523  11.078
27504W        W91261  33.951   1.337   0.371
27505W        W91262  34.570  23.543   2.227
27506W        W91263   5.348   6.677  14.963
27507W        W91264  12.285  14.739  14.997
27508W        W91265   0.434  32.126  13.337
27509W        W91266  43.986  37.990  14.844
27510W        W91267  15.125  18.178   0.961
27511W        W91268  22.997  27.583  14.336
27512W        W91269  44.274  28.138  14.401
27513W        W91270  25.171   7.907  12.970
27514W        W91271  16.156  27.978   0.932
27515W        W91272   6.273  30.465  11.542
27516W        W91273  12.275  39.420  12.966
27517W        W91274  16.264  33.066   1.879
27518W        W91275  22.615  18.760   0.386
27519W        W91276  25.066  14.814  13.336
27520W        W91277   9.257  14.776  10.947
27521W        W91278  12.217   9.865   2.289
27522W        W91279  35.868  37.986  11.579
27523W        W91280  10.200  42.804   3.172
27524W        W91281  27.143  31.409  14.320
27525W        W91282   1.951  26.524  12.402
27526W        W91283   1.898   2.296   2.378
27527W        W91284  12.241  29.068   0.481
27528W        W91285  18.216  40.819   3.385
27529W        W91286  40.975  29.490   4.836
27530W        W91287  39.973  34.982  12.390
27531W        W91288  22.084  15.709  12.450
27532W        W91289  26.101  34.893  14.484
27533W        W91290   2.360  35.517   2.883
27534W        W91291  27.135  31.103   1.838
27535W        W91292  28.044  23.164  13.333
27536W        W91293  35.108  20.245   1.324
27537W        W91294  31.955  24.054   0.368
27538W        W91295  36.965   8.676   4.732
27539W        W91296  20.071  37.086   3.643
27540W        W91297  13.768  21.152   4.753
27541W        W91298  22.556  19.095  11.550
27542W        W91299  41.913  11.852   0.739
27543W        W91300  10.637  19.210   0.818
27544W        W91301  44.364  34.903   1.854
27545W        W91302   0.421  27.062   1.807
27546W        W91303   2.884  19.582   0.269
27547W        W91304  39.464  15.161  10.558
27548W        W91305  39.397  17.255   3.710
27549W        W91306  20.673   4.753   1.702
27550W        W91307   6.884   3.255   2.810
27551W        W91308  44.318  25.044   4.732
27552W        W91309  30.096   0.407   0.313
27553W        W91310  18.291  38.543   0.748
27554W        W91311  37.991  23.204   0.922
27555W        W91312  14.687   8.764  12.509
27556W        W91313   3.404   8.383  10.940
27557W        W91314   0.472  22.545  14.336
27558W        W91315   7.232  10.798   2.751
27559W        W91316  27.631  40.837   4.792
27560W        W91317   2.430   1.865   1.402
27561W        W91318  39.957   6.788  14.015
27562W        W91319   2.934  22.223  11.943
27563W        W91320  35.369  13.605  10.410
27564W        W91321  21.032  40.871  13.974
27565W        W91322  24.512  11.297   4.148
27566W        W91323   9.294  36.867   2.825
27567W        W91324   1.276  30.619   4.793
27568W        W91325   7.845  30.629  11.092
27569W        W91326  12.242  14.296  13.849
27570W        W91327   8.719  28.105  14.922
27571W        W91328  39.501  30.429   0.963
27572W        W91329  23.591  31.448  13.512
27573W        W91330  29.070  34.481   1.432
27574W        W91331  43.947  10.257  14.366
27575W        W91332   0.402  42.515   2.321
27576W        W91333  20.028  16.277  12.418
27577W        W91334  35.872   0.788  10.563
27578W        W91335  26.076   3.422  10.911
27579W        W91336  18.553   5.219   0.865
27580W        W91337  41.945   5.313  11.101
27581W        W91338   3.871  30.595   5.151
27582W        W91339   4.732  41.487   3.209
27583W        W91340   5.826   0.884  11.607
27584W        W91341   2.825  25.694  13.913
27585W        W91342  25.538  16.577   4.691
27586W        W91343  43.499   5.701  11.965
27587W        W91344  19.534   8.670   3.744
27588W        W91345  23.611  18.621   2.789
27589W        W91346  42.014  30.100  12.436
27590W        W91347   3.455  15.619   1.265
27591W        W91348  32.492  32.393  10.641
27592W        W91349   8.401  42.976   2.243
27593W        W91350  27.087   5.225  14.793
27594W        W91351  11.824  20.667   2.332
27595W        W91352  26.005  16.768   0.381
27596W        W91353  20.720  27.564   4.677
27597W        W91354  40.362  31.994  10.608
27598W        W91355  44.474  10.323  13.481
27599W        W91356  24.132   7.184  11.422
27600W        W91357  44.354  18.155   2.270
27601W        W91358   8.661  20.129  11.072
27602W        W91359  41.461   3.856   1.434
27603W        W91360  23.119   5.897   0.741
27604W        W91361  21.536  13.845   4.637
27605W        W91362   5.836  11.705   0.425
27606W        W91363   2.241  31.505  11.509
27607W        W91364  36.512  19.755   0.243
27608W        W91365   0.461  27.483   1.448
27609W        W91366  30.017   0.307  10.464
27610W        W91367   8.849  24.662  11.607
27611W        W91368  20.247  21.614   4.292
27612W        W91369  31.597  35.106  10.439
27613W        W91370   2.262  40.949   1.404
27614W        W91371  19.054  10.291  12.578
27615W        W91372  39.416   1.956   3.745
27616W        W91373  23.551  18.115   3.242
27617W        W91374  12.830   8.374   3.160
27618W        W91375   4.288  21.637  10.453
27619W        W91376  13.347  15.605  10.624
27620W        W91377  36.069  15.724   3.773
27621W        W91378  42.485  35.880  11.973
27622W        W91379  18.708   9.263   1.324
27623W        W91380  41.521  34.883  14.825
27624W        W91381  21.034  44.754   2.696
27625W        W91382  31.994  32.523   1.781
27626W        W91383  16.313  15.228   0.305
27627W        W91384  31.067  40.462  12.565
27628W        W91385   1.853   7.397  13.419
27629W        W91386  33.474  20.587   3.308
27630W        W91387  13.205  44.358   1.905
27631W        W91388  11.232  34.975   2.211
27632W        W91389   7.732  23.056  11.977
27633W        W91390  31.973  35.079   2.390
27634W        W91391  32.479  32.417   4.792
27635W        W91392  12.828  22.607   2.751
27636W        W91393   4.903  38.429   5.296
27637W        W91394  40.362  13.659   1.308
27638W        W91395  15.819  16.122   0.828
27639W        W91396  13.676  16.083   3.789
27640W        W91397  27.533   3.314  14.514
27641W        W91398  16.719  19.119   4.148
27642W        W91399  40.435  43.384  13.366
27643W        W91400   2.801  21.045   5.208
27644W        W91401  42.284  32.031   1.772
27645W        W91402   8.679  20.125  11.964
27646W        W91403   8.760  38.997   1.221
27647W        W91404  27.584  17.741  11.423
27648W        W91405  29.659  41.928  12.527
27649W        W91406  35.573  18.646  11.426
27650W        W91407  12.331  14.764  11.467
27651W        W91408  35.573  13.279  12.413
27652W        W91409   4.411   1.381  12.472
27653W        W91410  26.090  43.876  12.416
27654W        W91411  44.375  33.582  12.575
27655W        W91412  38.400  27.019  11.094
27656W        W91413  30.474  29.090  11.919
27657W        W91414  43.015   7.391   2.232
27658W        W91415  29.571   6.247   2.278
27659W        W91416   4.910  40.379   0.850
27660W        W91417  29.043   8.353  10.900
27661W        W91418   4.786  13.303   3.731
27662W        W91419  22.709  30.507  12.909
27663W        W91420  43.496  43.515   0.809
27664W        W91421  41.334  23.191  13.308
27665W        W91422   3.943  31.578  11.417
27666W        W91423  19.102  10.765   4.236
27667W        W91424  22.613  42.297   1.863
27668W        W91425  33.962  34.409   3.340
27669W        W91426  15.676  39.411  13.492
27670W        W91427   8.792  14.219  12.511
27671W        W91428  16.149  30.562   1.926
27672W        W91429  15.197  10.255   1.860
27673W        W91430   1.462  15.775  11.509
27674W        W91431  27.094  38.922  14.321
27675W        W91432  18.208  21.199  11.941
27676W        W91433  43.977  39.921  14.384
27677W        W91434  42.971  17.160   4.322
27678W        W91435  42.497   6.830  12.863
27679W        W91436  27.150  42.408  13.448
27680W        W91437  38.433   1.398   1.399
27681W        W91438  34.598  38.525  13.995
27682W        W91439  31.641  31.030   0.868
27683W        W91440  30.443  41.942   3.773
27684W        W91441   4.780  42.876  13.339
27685W        W91442  15.626  24.616   3.831
27686W        W91443  22.513  41.872   3.169
27687W        W91444   5.689  37.911   2.372
27688W        W91445  32.504  10.332   1.826
27689W        W91446  25.107   1.740   2.284
27690W        W91447  30.148  43.321  10.605
27691W        W91448  20.606  33.960   0.781
27692W        W91449  33.991   7.344  13.883
27693W        W91450  35.098  43.354  10.491
27694W        W91451  30.422  31.035  14.300
27695W        W91452  24.646  20.219  14.341
27696W        W91453  31.906  11.300   1.366
27697W        W91454  11.737  37.878  14.758
27698W        W91455  32.008  38.447  11.555
27699W        W91456  19.102  18.153   1.340
27700W        W91457  16.311  40.440  13.829
27701W        W91458  29.569  28.644   4.142
27702W        W91459  40.870   7.822   3.364
27703W        W91460  20.230   9.663  14.804
27704W        W91461  11.709  40.897  10.508
27705W        W91462  14.665  42.014   2.892
27706W        W91463  17.743  13.660   3.289
27707W        W91464  30.979  11.201  12.002
27708W        W91465  31.611  28.491   3.214
27709W        W91466  26.981  38.846   2.200
27710W        W91467   7.362  13.652  11.545
27711W        W91468  16.739  37.353  12.854
27712W        W91469  16.790  33.922  10.969
27713W        W91470  33.128  17.560  11.573
27714W        W91471  34.519  25.571   1.247
27715W        W91472  25.991  11.860   2.380
27716W        W91473  44.956  10.148   1.713
27717W        W91474  26.666  25.002  14.345
27718W        W91475  31.578  10.288   0.475
27719W        W91476  15.792   6.750   3.359
27720W        W91477  34.413   9.359  11.459
27721W        W91478  27.604   1.441   1.270
27722W        W91479  15.661  38.990   2.257
27723W        W91480  34.113  24.540  14.337
27724W        W91481   2.725  16.315  13.791
27725W        W91482  30.997  20.685  10.910
27726W        W91483  35.046  12.724   3.798
27727W        W91484   2.737  10.359   4.258
27728W        W91485  32.409   2.265  13.965
27729W        W91486  38.873  33.560   5.115
27730W        W91487  36.567  33.620  10.957
27731W        W91488  35.600  42.383   0.935
27732W        W91489  34.471  38.559  12.856
27733W        W91490  40.332  27.108   0.387
27734W        W91491  12.187  12.147  14.006
27735W        W91492  29.123  15.621  11.072
27736W        W91493  30.618  17.238   4.297
27737W        W91494  42.373  27.652   3.363
27738W        W91495  23.009  10.208  14.025
27739W        W91496  31.982  17.137  11.034
27740W        W91497  20.593   4.285   2.352
27741W        W91498  16.195  15.315   5.202
27742W        W91499  14.834  39.006  14.793
27743W        W91500   9.718  17.734   5.164
27744W        W91501  12.668  11.209   0.836
27745W        W91502  13.676   4.924  12.503
27746W        W91503  23.101   5.362  11.044
27747W        W91504   6.783   7.716  13.378
27748W        W91505  37.506  18.695   3.196
27749W        W91506  17.211   9.672   3.806
27750W        W91507  38.455  41.973   1.267
27751W        W91508   1.871  39.401   1.829
27752W        W91509  22.102   0.471   1.397
27753W        W91510  28.480  16.112   5.233
27754W        W91511  22.129  25.631  14.902
27755W        W91512  40.319  25.992   1.782
27756W        W91513  16.137  22.518  13.799
27757W        W91514  34.050  21.140   1.242
27758W        W91515   5.245  33.988   1.444
27759W        W91516  30.075  30.454   3.790
27760W        W91517   4.327  17.637  10.426
27761W        W91518  42.485  41.043  13.521
27762W        W91519   6.307  30.610  12.950
27763W        W91520  43.834  12.220   3.202
27764W        W91521  41.538  44.867  13.334
27765W        W91522  24.492  10.339  11.480
27766W        W91523   5.761  25.082  11.522
27767W        W91524  12.319  26.478   4.271
27768W        W91525  22.669  41.024  12.537
27769W        W91526  43.397  25.965   3.316
27770W        W91527  12.151  26.561  10.449
27771W        W91528  41.810  22.504  12.059
27772W        W91529   6.275  43.916  14.013
27773W        W91530   5.275  33.115   0.819
27774W        W91531   7.348  17.272  13.395
27775W        W91532   7.905   8.861  12.097
27776W        W91533  35.492  12.345   4.255
27777W        W91534  13.272  30.596   0.349
27778W        W91535  24.129   7.383   5.207
27779W        W91536  16.579  20.564  12.990
27780W        W91537  34.891  28.666   1.906
27781W        W91538   0.281  38.563   4.747
27782W        W91539  11.154  16.147   0.380
27783W        W91540  23.563  44.888   2.855
27784W        W91541   9.345  41.449  11.946
27785W        W91542  44.340  17.639  13.843
27786W        W91543  18.622  21.553   2.191
27787W        W91544  37.886  31.066   0.950
27788W        W91545  42.960  19.777   1.301
27789W        W91546   3.762  31.579   4.217
27790W        W91547  23.526  39.440  11.936
27791W        W91548  12.855  22.517   1.281
27792W        W91549   0.931   4.817  14.929
27793W        W91550  28.029   1.786   2.247
27794W        W91551   0.965  38.340   0.755
27795W        W91552   4.409  28.013   0.923
27796W        W91553  34.422  13.654  14.448
27797W        W91554  10.656  19.276   2.362
27798W        W91555   0.793  30.506   3.160
27799W        W91556  19.774   3.326   1.799
27800W        W91557  33.407  15.580   5.195
27801W        W91558  23.045   6.753  12.830
27802W        W91559  23.117  10.144  11.600
27803W        W91560  38.953   6.777  10.056
27804W        W91561  31.546  15.093  12.440
27805W        W91562  43.342  25.022  13.393
27806W        W91563   5.347  14.722  13.996
27807W        W91564  20.169  41.494   0.824
27808W        W91565  42.447   1.460   4.611
27809W        W91566  36.961  26.699   0.965
27810W        W91567  33.968  29.928   3.846
27811W        W91568  38.824   8.273  11.459
27812W        W91569  34.598   0.839   0.827
27813W        W91570  14.687  19.214   0.737
27814W        W91571  20.048  23.037   4.140
27815W        W91572   7.208   5.288  13.040
27816W        W91573  27.603  10.776   2.281
27817W        W91574  35.579  26.667  11.908
27818W        W91575  14.816   3.332  12.969
27819W        W91576  29.654  44.317  13.314
27820W        W91577  34.374  43.946   3.735
27821W        W91578  16.797  16.189   0.371
27822W        W91579  17.670  18.092   4.197
27823W        W91580  31.931   2.400   1.236
27824W        W91581  37.892  43.803  14.498
27825W        W91582  42.010   7.320  12.481
27826W        W91583  17.254  43.275  10.470
27827W        W91584  17.148  19.124  14.326
27828W        W91585   6.794  32.391   1.308
27829W        W91586  19.639  39.316   3.750
27830W        W91587  10.346   6.902   4.784
27831W        W91588   2.913  31.152  14.994
27832W        W91589  39.886  12.644  12.521
27833W        W91590  37.973  10.637   1.922
27834W        W91591  30.506  15.247  14.418
27835W        W91592   6.292  26.082  14.442
27836W        W91593  44.391   7.758   2.376
27837W        W91594  38.441  22.538   4.324
27838W        W91595  10.658  39.829   1.344
27839W        W91596   9.724  15.113   4.768
27840W        W91597  34.941  36.539  12.568
27841W        W91598  42.473   8.763   2.325
27842W        W91599   5.755  24.223   4.755
27843W        W91600  20.732  38.349  12.051
27844W        W91601   4.734  17.241   0.752
27845W        W91602  22.568  25.540   0.278
27846W        W91603  13.105  22.181  13.016
27847W        W91604  32.000  40.527   5.155
27848W        W91605  41.422   7.682  14.430
27849W        W91606  38.851   5.217   0.250
27850W        W91607  31.598   4.205   3.794
27851W        W91608  19.755  30.508  11.467
27852W        W91609  30.048  34.599  12.477
27853W        W91610   3.753  16.089   1.219
27854W        W91611  16.733  17.776  11.035
27855W        W91612  30.541  16.112   5.233
27856W        W91613   9.177  21.070   1.753
27857W        W91614   0.881  27.980   2.695
27858W        W91615  19.645  32.551  14.869
27859W        W91616   9.888  44.833   3.776
27860W        W91617  11.849  24.996   1.888
27861W        W91618  15.770  11.158  12.465
27862W        W91619  38.526  26.991  12.402
27863W        W91620  33.001  32.043  12.049
27864W        W91621  33.474   0.746   1.926
27865W        W91622  18.571  24.192   0.744
27866W        W91623   7.364  24.191  12.038
27867W        W91624  32.923   9.375   1.764
27868W        W91625  39.924   3.433  13.436
27869W        W91626   0.314  42.477   4.686
27870W        W91627  36.936  43.821  12.986
27871W        W91628  35.414  35.499   3.228
27872W        W91629  27.188  16.303   1.847
27873W        W91630  13.202  42.352  11.070
27874W        W91631  14.146  37.400   4.763
27875W        W91632  32.978  40.864  13.034
27876W        W91633  38.525  13.799  12.052
27877W        W91634  13.175   5.691   2.245
27878W        W91635   5.794  11.820  11.544
27879W        W91636  41.872  22.539   1.869
27880W        W91637  36.997   4.713  14.380
27881W        W91638  30.632   9.227  13.825
27882W        W91639  12.286  41.450   1.297
27883W        W91640  27.607  30.552  10.999
27884W        W91641  27.954  44.413  14.004
27885W        W91642   6.816  24.649  14.010
27886W        W91643  36.582  35.942   0.944
27887W        W91644  14.148  11.805  12.866
27888W        W91645   6.420  31.108  11.988
27889W        W91646  44.979  39.832  10.603
27890W        W91647  30.029   9.824   3.291
27891W        W91648  24.579   5.898  12.017
27892W        W91649   6.282  18.253  11.122
27893W        W91650   9.184  12.823  14.488
27894W        W91651  15.287  22.634   0.812
27895W        W91652  20.755  44.424   2.306
27896W        W91653  26.104  30.977  14.380
27897W        W91654   4.242  26.200   4.766
27898W        W91655  32.026  39.482   3.838
27899W        W91656  28.984  14.668   3.662
27900W        W91657  11.681   7.808   3.170
27901W        W91658  36.043  14.216   1.239
27902W        W91659  33.975  29.613  13.878
27903W        W91660  40.865  39.879  12.893
27904W        W91661  33.514  41.908   4.297
27905W        W91662  29.035  13.193  13.355
27906W        W91663  38.482  19.136   4.597
27907W        W91664  44.901  43.429   1.867
27908W        W91665  42.997   6.690   2.321
27909W        W91666  32.484   8.804   3.858
27910W        W91667  10.168  11.335  14.274
27911W        W91668  41.499  44.009   0.731
27912W        W91669  19.606  19.754   2.231
27913W        W91670  39.921   4.385  11.868
27914W        W91671   9.786  24.557   1.896
27915W        W91672  10.251   0.396  11.885
27916W        W91673  24.684  10.308   1.908
27917W        W91674  15.283  33.474   2.770
27918W        W91675  26.017  25.129  12.572
27919W        W91676  10.169  14.742   3.268
27920W        W91677  17.278  12.149  10.598
27921W        W91678   1.296  22.582   2.339
27922W        W91679  17.226   6.307  10.629
27923W        W91680  15.810  42.485   4.349
27924W        W91681  36.589  34.418   4.343
27925W        W91682  32.534  20.616   2.218
27926W        W91683   8.706  19.619   1.416
27927W        W91684   9.847  36.057  11.919
27928W        W91685  17.779   2.876   2.892
27929W        W91686  17.715   8.405  11.551
27930W        W91687  36.070  14.712   0.339
27931W        W91688   1.842  39.959  10.458
27932W        W91689   8.826  35.433   0.473
27933W        W91690  21.245  11.317  10.510
27934W        W91691  12.642  42.033  11.468
27935W        W91692  34.106  38.376  12.408
27936W        W91693  11.743  30.438  13.377
27937W        W91694  24.699  27.964  13.416
27938W        W91695  33.898   6.209  10.116
27939W        W91696  13.182  43.367   2.302
27940W        W91697  31.606  15.202  13.811
27941W        W91698  26.509  37.419   4.153
27942W        W91699  13.297  42.839   0.419
27943W        W91700  12.638  34.569  13.845
27944W        W91701  30.033   7.322   0.464
27945W        W91702  19.151   6.241   0.257
27946W        W91703  43.276  43.873  10.638
27947W        W91704   9.796  32.941  14.303
27948W        W91705  29.045  24.008  13.024
27949W        W91706  28.508  30.580   2.237
27950W        W91707  35.449  26.199   3.812
27951W        W91708  44.320  16.578  13.438
27952W        W91709  32.107  16.694   4.643
27953W        W91710  36.893  16.077  11.506
27954W        W91711  28.664   3.234  14.410
27955W        W91712  16.187  20.747  14.329
27956W        W91713  20.528   2.347   4.291
27957W        W91714   7.702   7.275  11.881
27958W        W91715   5.906  14.599  11.114
27959W        W91716  30.053  21.677  11.871
27960W        W91717  41.951   0.884   0.762
27961W        W91718  19.652  19.239  10.501
27962W        W91719  20.764   1.424   1.339
27963W        W91720  14.242  42.937   4.170
27964W        W91721  25.095  43.358   1.339
27965W        W91722  32.892  10.716  10.599
27966W        W91723  43.874   4.407  13.919
27967W        W91724  25.499  15.287   3.161
27968W        W91725  16.078  39.403  12.441
27969W        W91726  35.498  37.436  12.478
27970W        W91727  27.134  33.077   3.649
27971W        W91728  26.643   8.822  11.875
27972W        W91729  43.494  34.931   1.416
27973W        W91730   9.874  27.135  12.874
27974W        W91731  44.403  12.125   2.891
27975W        W91732  21.047   7.835  14.921
27976W        W91733  16.084  40.801  14.957
27977W        W91734  39.040  27.497   0.444
27978W        W91735   8.813   0.326  12.082
27979W        W91736  11.722  29.920   0.290
27980W        W91737  39.353   8.348   3.670
27981W        W91738  23.034   5.778   1.256
27982W        W91739  16.785  10.292  11.093
27983W        W91740   0.945  16.191   4.182
27984W        W91741  36.399   0.302   0.400
27985W        W91742  43.910  37.950  10.925
27986W        W91743  31.617   4.821  11.045
27987W        W91744   3.367   5.849  10.982
27988W        W91745  19.200  23.575   2.763
27989W        W91746  17.071  21.022   3.256
27990W        W91747   0.411  31.991   0.867
27991W        W91748  11.787  30.489  14.899
27992W        W91749  28.066  33.006  13.850
27993W        W91750  29.931  44.380  14.842
27994W        W91751  34.052  13.118   1.782
27995W        W91752  11.337  26.601  10.922
27996W        W91753   3.844  20.259   4.742
27997W        W91754  40.497  23.099  13.403
27998W        W91755  41.993  42.890   0.788
27999W        W91756  11.847  25.601   1.319
28000W        W91757  10.156   3.342   9.969
28001W        W91758   1.313   1.802   2.895
28002W        W91759  40.861  40.418  13.446
28003W        W91760  15.727  19.053   3.695
28004W        W91761   8.259   3.339   3.775
28005W        W91762  12.255  24.033   4.354
28006W        W91763  26.189   5.779   2.375
28007W        W91764  22.022  40.519  11.461
28008W        W91765  32.438  40.331  12.936
28009W        W91766  44.296  18.589   4.258
28010W        W91767  19.074  32.535   2.698
28011W        W91768  10.650   6.319  11.411
28012W        W91769  40.348   1.749   0.324
28013W        W91770  33.574  19.758   1.266
28014W        W91771  41.968  35.918   3.296
28015W        W91772  32.976  39.919  12.840
28016W        W91773  17.076   2.756  14.822
28017W        W91774  26.630  28.548   2.728
28018W        W91775   1.890  29.079   1.924
28019W        W91776   2.926  33.488  12.978
28020W        W91777  22.998  22.019   4.712
28021W        W91778   8.699  33.439   2.684
28022W        W91779  18.268  20.031   4.690
28023W        W91780   0.910  37.952   3.773
28024W        W91781  38.855  28.557   1.798
28025W        W91782   1.827  36.991   4.221
28026W        W91783  41.920  31.492  11.508
28027W        W91784  36.993  23.577   1.436
28028W        W91785  22.039   4.831  10.934
28029W        W91786  17.062  35.408   0.277
28030W        W91787  37.566  36.843  13.995
28031W        W91788  11.770  20.747  12.437
28032W        W91789  33.998  11.174   0.944
28033W        W91790   1.784  33.932  13.904
28034W        W91791  19.633  20.592  13.946
28035W        W91792  22.158  41.821  14.416
28036W        W91793  42.314  44.918   2.228
28037W        W91794   9.160  38.856  14.463
28038W        W91795  23.187  36.467   0.833
28039W        W91796   1.762  26.028   4.631
28040W        W91797  42.866  11.368  11.405
28041W        W91798  33.434  29.550   5.637
28042W        W91799   0.807  13.280  10.956
28043W        W91800  37.050  24.662   2.740
28044W        W91801  43.354   5.875   3.356
28045W        W91802  27.647  41.302   1.921
28046W        W91803   2.308  38.387   4.309
28047W        W91804  16.764  11.290   0.747
28048W        W91805  38.530  15.746   1.423
28049W        W91806   7.708  40.329   0.842
28050W        W91807  21.195  33.984   0.467
28051W        W91808  38.369  39.468  10.571
28052W        W91809  27.039   3.895   3.765
28053W        W91810   7.777   8.884   5.253
28054W        W91811  36.985  13.141   3.251
28055W        W91812   3.774   8.302  10.569
28056W        W91813  25.201   2.788  11.506
28057W        W91814  10.236   7.283  14.944
28058W        W91815  14.333  26.183  10.503
28059W        W91816  32.505  37.483   1.901
28060W        W91817  12.341  44.449   1.707
28061W        W91818  39.001  10.675  10.934
28062W        W91819  26.986  38.874   4.320
28063W        W91820  38.521  26.497   4.236
28064W        W91821  36.519  38.428   0.946
28065W        W91822  44.993  44.772  12.904
28066W        W91823  41.532  32.917  11.933
28067W        W91824  33.079  31.129  11.966
28068W        W91825  11.236   0.892  13.313
28069W        W91826  44.317   8.208   4.805
28070W        W91827  11.308  42.855  10.987
28071W        W91828  41.012  38.038  11.885
28072W        W91829  33.457  35.398   1.795
28073W        W91830   3.829  44.985   4.635
28074W        W91831   3.834  37.985   3.291
28075W        W91832  29.654   6.794  11.081
28076W        W91833  39.504  25.686  10.644
28077W        W91834  20.676  36.385   2.674
28078W        W91835  28.007  42.516   1.249
28079W        W91836   2.724  36.520  12.345
28080W        W91837   4.205  31.553  14.841
28081W        W91838  20.063  11.712  13.916
28082W        W91839   4.260  23.709  11.580
28083W        W91840  10.342   0.819  14.888
28084W        W91841   6.198  17.698   3.820
28085W        W91842  22.682   1.765  14.369
28086W        W91843  17.571   5.866  14.851
28087W        W91844  25.598  27.003   3.825
28088W        W91845  40.983  26.619  12.969
28089W        W91846   3.274  19.745   2.313
28090W        W91847  42.803  12.201  11.044
28091W        W91848  17.798  33.110   3.856
28092W        W91849  27.492  20.651  14.390
28093W        W91850   4.746   0.358  11.973
28094W        W91851  39.914  29.465  10.463
28095W        W91852   8.834  15.150  13.438
28096W        W91853  34.436  35.513   2.393
28097W        W91854   2.926  28.548   2.267
28098W        W91855   0.487  17.073  11.443
28099W        W91856   1.471  43.352   4.281
28100W        W91857   2.965  17.249  11.582
28101W        W91858  29.532  30.126   1.429
28102W        W91859   1.835  10.260   0.794
28103W        W91860  39.999  34.486  11.994
28104W        W91861  30.096   9.290   0.870
28105W        W91862  22.020  17.142  14.965
28106W        W91863  25.665  32.634  14.469
28107W        W91864   3.287  18.759   2.901
28108W        W91865   3.721  41.479  12.397
28109W        W91866  42.511  11.331  10.632
28110W        W91867  26.663  39.336  10.446
28111W        W91868  35.854  29.538  12.926
28112W        W91869  43.339  21.063   1.925
28113W        W91870  28.512  30.035  13.393
28114W        W91871   1.331  36.357  11.105
28115W        W91872  26.642  20.754   3.289
28116W        W91873   8.769  43.019  10.890
28117W        W91874  36.980  15.266   3.172
28118W        W91875   4.226  43.380   0.320
28119W        W91876  38.007  41.338  11.586
28120W        W91877  16.160  24.986   4.705
28121W        W91878  41.798  10.138   2.350
28122W        W91879  27.080  39.059   3.699
28123W        W91880  15.700  25.117  13.509
28124W        W91881  20.594  36.916  11.569
28125W        W91882  35.381  22.691  10.521
28126W        W91883  34.615   1.298  11.948
28127W        W91884  16.685  12.126  13.461
28128W        W91885   4.912   2.760   2.701
28129W        W91886  38.903  21.721  10.607
28130W        W91887  23.553  20.711   4.256
28131W        W91888   2.311  26.679  14.449
28132W        W91889  44.973   0.908   1.766
28133W        W91890  44.010   3.818   0.296
28134W        W91891  17.223  32.975   1.361
28135W        W91892  11.219  23.000   2.398
28136W        W91893  32.027   9.726  11.941
28137W        W91894  43.791   6.307  12.873
28138W        W91895  39.549  15.188  13.533
28139W        W91896   1.477  25.690   4.206
28140W        W91897   9.747   6.763   4.116
28141W        W91898  39.474  27.118  14.291
28142W        W91899  25.706  11.305  14.827
28143W        W91900  10.314  10.275  10.144
28144W        W91901  27.565  28.049   4.697
28145W        W91902   6.356  31.605   2.812
28146W        W91903  36.958  33.011   1.302
28147W        W91904   1.956  39.375   0.416
28148W        W91905  26.618  33.467   3.833
28149W        W91906  31.631   5.741  14.495
28150W        W91907  28.032   4.292  11.105
28151W        W91908   4.915   4.744  12.506
28152W        W91909  14.191   3.868   3.363
28153W        W91910  12.695  23.105  10.896
28154W        W91911  21.102  40.051  12.892
28155W        W91912   7.332   5.735  11.958
28156W        W91913  31.554  43.948  14.284
28157W        W91914  24.138  31.516  10.988
28158W        W91915   3.953  38.378  10.421
28159W        W91916   4.384  41.317   4.118
28160W        W91917  43.012  41.962  10.440
28161W        W91918  16.312   7.823   2.828
28162W        W91919  10.225  20.157  14.826
28163W        W91920   9.695  25.484  11.456
28164W        W91921  39.491  11.726   3.147
28165W        W91922   8.871  15.176  14.449
28166W        W91923   5.292  17.288   1.252
28167W        W91924  38.036  21.609  14.848
28168W        W91925   4.307  29.955  12.965
28169W        W91926  15.109  36.979   2.692
28170W        W91927  40.324  42.453  11.456
28171W        W91928  28.441  26.028   4.182
28172W        W91929  18.683   9.696   0.791
28173W        W91930  31.053  29.017   0.314
28174W        W91931  29.635  24.209   9.617
28175W        W91932  13.833   9.861  12.894
28176W        W91933  13.246  40.840  10.586
28177W        W91934  16.311   5.370  13.874
28178W        W91935  35.450  23.107   1.442
28179W        W91936   7.328   6.231   4.212
28180W        W91937  24.641  23.505   1.229
28181W        W91938   4.358  41.818  13.820
28182W        W91939  26.073  41.831  11.893
28183W        W91940  13.234   2.775  12.432
28184W        W91941  40.855   2.309   0.482
28185W        W91942   6.743  35.036   1.411
28186W        W91943   4.937  19.240  12.064
28187W        W91944  22.035   6.689   3.782
28188W        W91945  20.667  20.248  12.059
28189W        W91946  32.026  28.161   3.167
28190W        W91947  25.091  22.628  14.807
28191W        W91948   6.372  20.641   3.663
28192W        W91949  40.866  13.614  11.901
28193W        W91950  29.115   0.402  14.408
28194W        W91951   2.901  19.605  10.489
28195W        W91952  32.558  13.209  14.375
28196W        W91953   5.738   3.436   1.723
28197W        W91954  14.820  33.082   4.829
28198W        W91955   2.929   3.456   3.729
28199W        W91956  35.033   5.720  11.904
28200W        W91957  28.052   4.343   0.343
28201W        W91958   4.870  39.534  10.959
28202W        W91959   0.787  10.667   4.706
28203W        W91960  43.454  14.295  11.106
28204W        W91961  25.044  26.181  13.824
28205W        W91962  28.086   4.213  12.036
28206W        W91963  19.186   8.367  12.391
28207W        W91964  18.162  28.929  13.039
28208W        W91965   1.769   4.383   4.813
28209W        W91966   0.437   6.804  14.954
28210W        W91967  38.378  27.101   2.709
28211W        W91968  23.142   4.873   2.210
28212W        W91969  41.448  24.561  11.429
28213W        W91970   6.311   5.786   4.169
28214W        W91971  36.473  41.948   2.181
28215W        W91972  13.608  42.414   1.419
28216W        W91973  42.286   5.856   3.376
28217W        W91974  30.647   0.759  11.940
28218W        W91975  20.237  23.542   3.340
28219W        W91976  14.212  37.552   4.219
28220W        W91977   5.233  39.529  10.912
28221W        W91978  39.835   9.666  13.840
28222W        W91979  40.312  20.697  12.402
28223W        W91980  34.499  26.690  10.527
28224W        W91981   7.876  43.994   1.750
28225W        W91982  42.879  41.446   0.750
28226W        W91983   1.749  12.664   1.239
28227W        W91984  12.759  33.415  14.478
28228W        W91985   5.689  33.458  11.023
28229W        W91986  10.850   2.839  13.993
28230W        W91987  22.725  36.424   0.768
28231W        W91988  22.030   3.297   2.710
28232W        W91989  15.305   7.225   3.187
28233W        W91990  39.942  12.704  12.947
28234W        W91991  22.051  36.858  14.484
28235W        W91992  41.951  44.292  10.097
28236W        W91993  16.089  31.115   4.336
28237W        W91994  40.969   5.316  13.976
28238W        W91995  35.525  15.656  11.061
28239W        W91996  37.002  20.535  11.052
28240W        W91997   5.303  30.429   3.813
28241W        W91998   8.885  37.005  10.968
28242W        W91999  20.596  25.703   2.785
28243W        W92000   0.333  23.676   0.834
28244W        W92001  14.162  41.996  12.568
28245W        W92002  27.601  10.704   0.918
28246W        W92003  35.374  21.625   2.211
28247W        W92004  40.964  29.609  11.866
28248W        W92005   5.757  19.111  10.121
28249W        W92006  26.072   4.422   4.223
28250W        W92007  12.781  12.679   4.745
28251W        W92008  27.133  34.926  13.826
28252W        W92009  44.421  43.314  13.056
28253W        W92010  12.706  19.177   2.356
28254W        W92011   5.435  39.402   0.278
28255W        W92012   8.220  26.045   4.280
28256W        W92013  27.509  31.950  10.409
28257W        W92014  14.738  35.079  11.488
28258W        W92015  14.272  12.262  14.506
28259W        W92016  37.911  25.159  12.907
28260W        W92017  28.612  16.142  12.989
28261W        W92018  37.455  29.070   2.318
28262W        W92019   8.350  14.229   3.310
28263W        W92020  36.476  40.938   2.265
28264W        W92021  19.062  26.070   1.934
28265W        W92022  35.584  43.454  11.946
28266W        W92023   6.205  34.908   4.826
28267W        W92024   2.257  14.278  14.775
28268W        W92025   2.372  29.465   4.679
28269W        W92026  18.147  35.907   2.391
28270W        W92027  40.421  19.080  12.868
28271W        W92028  27.039  16.774  14.764
28272W        W92029  40.837   6.351  13.975
28273W        W92030  14.299  25.619   4.149
28274W        W92031  36.458   9.848   0.282
28275W        W92032  11.355  41.440  12.351
28276W        W92033  42.885  39.869   4.245
28277W        W92034   1.902   0.438   4.300
28278W        W92035  33.069  38.510  10.980
28279W        W92036  25.672  31.436  11.423
28280W        W92037  15.643   9.880  13.445
28281W        W92038  12.753  41.955  11.912
28282W        W92039  40.479   7.863   3.729
28283W        W92040  23.164  31.068   0.880
28284W        W92041   8.657  44.008  14.334
28285W        W92042  38.530  13.211  12.491
28286W        W92043  32.534  16.738   1.369
28287W        W92044  26.954  25.010  11.890
28288W        W92045  20.606  37.837   9.971
28289W        W92046  14.152   7.682   4.666
28290W        W92047  15.145  32.125  10.964
28291W        W92048  32.964  18.103  14.788
28292W        W92049  32.442   7.672  13.964
28293W        W92050  34.938  17.604  12.555
28294W        W92051  16.664  26.187  13.812
28295W        W92052  44.485  16.080  13.834
28296W        W92053   3.354  25.015   1.696
28297W        W92054  32.547  37.000   3.220
28298W        W92055  24.175  27.180   1.850
28299W        W92056  32.421  24.571   0.394
28300W        W92057  21.652  23.503   9.939
28301W        W92058   4.259  25.706  10.632
28302W        W92059  41.305   4.256   2.255
28303W        W92060   7.795  43.301  14.990
28304W        W92061   8.825   3.848  14.005
28305W        W92062  37.386   7.401  12.989
28306W        W92063  44.503  19.164   3.383
28307W        W92064  11.169   9.282   4.667
28308W        W92065  22.746  16.107   2.282
28309W        W92066  29.528  37.527   2.740
28310W        W92067  20.139   0.368  14.812
28311W        W92068  11.204  28.996   3.655
28312W        W92069   2.726  33.028  10.488
28313W        W92070  31.009  23.001  14.369
28314W        W92071  41.383  14.188  14.994
28315W        W92072  17.142  14.117  14.354
28316W        W92073  12.732   7.205   0.442
28317W        W92074  17.244   7.731  10.584
28318W        W92075   5.223  10.739   3.341
28319W        W92076   8.725   6.370   3.649
28320W        W92077  26.107  18.198   3.701
28321W        W92078   7.818  37.460   2.738
28322W        W92079  19.148  35.553  14.978
28323W        W92080   9.359   3.868  11.540
28324W        W92081   5.808   4.824  10.482
28325W        W92082  40.955  10.753  13.821
28326W        W92083  36.975  40.521   4.319
28327W        W92084  26.702   9.257  14.456
28328W        W92085   6.381   5.390   4.136
28329W        W92086  26.668  29.587  12.031
28330W        W92087  39.410  39.408   1.841
28331W        W92088  32.453  43.386  10.479
28332W        W92089  30.656  14.758  12.573
28333W        W92090  16.777  15.740   4.271
28334W        W92091  15.727  22.599   4.693
28335W        W92092  36.968  22.067   2.742
28336W        W92093   0.814   4.247   3.288
28337W        W92094   1.472  15.823  10.594
28338W        W92095  40.470  29.048  14.417
28339W        W92096  41.521  25.112   1.214
28340W        W92097   8.398  42.908   4.297
28341W        W92098   7.875   8.829   0.795
28342W        W92099  37.943  27.634  14.419
28343W        W92100  24.701  21.737   0.310
28344W        W92101  25.711  41.379  13.402
28345W        W92102  29.101  17.261  14.420
28346W        W92103   5.383  29.163  13.039
28347W        W92104  22.553  37.978  11.997
28348W        W92105   7.731   4.354  12.055
28349W        W92106  21.175  17.273   0.386
28350W        W92107   2.366   9.876   1.925
28351W        W92108  21.065  22.616  13.472
28352W        W92109  27.099  16.267   0.291
28353W        W92110  29.653  25.643   0.834
28354W        W92111  19.707  40.971  12.534
28355W        W92112  33.957  36.548  11.596
28356W        W92113  37.001  29.503   4.775
28357W        W92114  24.654  37.339  12.462
28358W        W92115   4.922  28.130   1.905
28359W        W92116  16.729  32.486  13.487
28360W        W92117  16.598  41.956  13.003
28361W        W92118  33.064  29.006   3.375
28362W        W92119  19.640  12.813  12.021
28363W        W92120  11.252  36.920  12.837
28364W        W92121  20.688   5.904   2.741
28365W        W92122  11.326  12.154  12.920
28366W        W92123  21.132  29.464   2.750
28367W        W92124  44.455   0.886  11.575
28368W        W92125  10.162   3.799  10.160
28369W        W92126  10.276  17.207   3.737
28370W        W92127  38.512  12.711   3.217
28371W        W92128  25.638   8.696   0.876
28372W        W92129  19.134   3.334   3.199
28373W        W92130  38.457  11.307  11.486
28374W        W92131  36.006   3.709  11.391
28375W        W92132  11.820   9.695  13.921
28376W        W92133  24.674  44.326  13.859
28377W        W92134  27.559  22.145  14.414
28378W        W92135   4.396  37.382  13.982
28379W        W92136  24.493  21.729   1.258
28380W        W92137  14.594  24.140  10.894
28381W        W92138   8.274   5.195  11.000
28382W        W92139  34.927   7.236  12.386
28383W        W92140   3.349  36.413  14.853
28384W        W92141   9.653  24.018  12.371
28385W        W92142  25.506   8.231   4.124
28386W        W92143  24.134  42.466   2.710
28387W        W92144  39.528  23.128  13.905
28388W        W92145   5.785  43.772   2.712
28389W        W92146  28.061  30.076  14.799
28390W        W92147  22.685   0.786   0.915
28391W        W92148  24.081  38.864   9.942
28392W        W92149  19.589   9.778   4.748
28393W        W92150  36.914  44.315  14.821
28394W        W92151  16.607  18.560   3.709
28395W        W92152  21.233  11.306   1.383
28396W        W92153  22.626  31.137   4.163
28397W        W92154  15.703  17.112   2.235
28398W        W92155  23.650   8.351   4.188
28399W        W92156  31.545  38.493  13.360
28400W        W92157  33.595  43.292  14.484
28401W        W92158   7.396  11.172   3.228
28402W        W92159  32.131  16.095   3.173
28403W        W92160  21.753   9.165  14.318
28404W        W92161   7.235  34.983   3.224
28405W        W92162  28.472  16.199  13.934
28406W        W92163  22.617  26.690   5.123
28407W        W92164  29.109  31.562  11.372
28408W        W92165   6.406  41.028   4.829
28409W        W92166  26.964  32.547   2.297
28410W        W92167  11.331  29.131   1.371
28411W        W92168  44.810  11.188   2.306
28412W        W92169  44.854  24.093  11.879
28413W        W92170  37.888  42.368  11.507
28414W        W92171  17.085  19.282  11.487
28415W        W92172  15.205  15.787  10.573
28416W        W92173  10.192  28.931   4.731
28417W        W92174   2.354  27.476   1.775
28418W        W92175  27.624  13.702   4.826
28419W        W92176   4.732   5.365   4.187
28420W        W92177  19.068  18.144   0.371
28421W        W92178  21.128  28.617  13.804
28422W        W92179   9.877  10.669   3.281
28423W        W92180  10.318   2.777   1.815
28424W        W92181   1.809  42.518  14.846
28425W        W92182  37.348  15.172   2.381
28426W        W92183  41.538  26.072   4.667
28427W        W92184  24.648  10.724  11.427
28428W        W92185  35.536  10.179   0.814
28429W        W92186  14.273  11.318  10.639
28430W        W92187  38.838  13.722   4.242
28431W        W92188  22.538   8.887   4.262
28432W        W92189  11.255  39.373   3.737
28433W        W92190  10.732  42.863  11.050
28434W        W92191  39.538   6.780  13.000
28435W        W92192  31.972  17.584  14.909
28436W        W92193  10.301  25.627   4.214
28437W        W92194   8.295  36.389   4.740
28438W        W92195   1.305   2.834   1.368
28439W        W92196  28.002  14.753   2.785
28440W        W92197  12.127  15.779   1.426
28441W        W92198  42.369  18.194  11.459
28442W        W92199   8.778  34.011  13.486
28443W        W92200  26.189  33.602  13.459
28444W        W92201  28.634  37.477  14.392
28445W        W92202  13.678  34.597   4.783
28446W        W92203   3.252  18.779   3.366
28447W        W92204  37.082  31.036  10.490
28448W        W92205  26.165  24.003  11.900
28449W        W92206  29.955  38.060   2.324
28450W        W92207  37.512   9.647  14.484
28451W        W92208  28.488   3.949   0.752
28452W        W92209  22.590  18.254   2.773
28453W        W92210  44.823  31.041   1.333
28454W        W92211  23.000  21.255   0.863
28455W        W92212  37.426  35.928   4.218
28456W        W92213  39.043  20.579  12.847
28457W        W92214  38.334  33.389  11.480
28458W        W92215   6.258  17.722   2.822
28459W        W92216  40.824  18.291  14.451
28460W        W92217  44.445  22.506   0.266
28461W        W92218   9.794  10.646   3.756
28462W        W92219  24.526  11.693  12.479
28463W        W92220  15.302  39.343  11.023
28464W        W92221  26.104  32.605  14.906
28465W        W92222  26.055  24.633   4.685
28466W        W92223  28.072  38.420  10.932
28467W        W92224   6.302  27.116   2.184
28468W        W92225  14.158   3.375   3.723
28469W        W92226  17.612  17.698  12.517
28470W        W92227  27.038  31.975   1.309
28471W        W92228  43.885  25.544  13.478
28472W        W92229  26.973  19.700   0.335
28473W        W92230   5.818  28.474   1.736
28474W        W92231  20.196   2.811  13.879
28475W        W92232  32.394  21.147  10.144
28476W        W92233  17.634   5.384   1.296
28477W        W92234   5.356  13.798   2.371
28478W        W92235  24.610  16.681   0.787
28479W        W92236   2.954   1.460   3.783
28480W        W92237  26.044  30.450  14.023
28481W        W92238   3.454  19.693  11.892
28482W        W92239  29.034  15.767   0.884
28483W        W92240  44.786  19.544   2.271
28484W        W92241  28.996  40.019   0.918
28485W        W92242   9.813  28.002  12.863
28486W        W92243  23.224  36.849  12.030
28487W        W92244  23.058  18.641  11.437
28488W        W92245  39.365  19.568   0.900
28489W        W92246   7.759  32.105   1.905
28490W        W92247   3.435   2.422   2.358
28491W        W92248  27.623  27.448  12.014
28492W        W92249  23.084  20.261  12.525
28493W        W92250   8.160  17.608  14.871
28494W        W92251   2.333  21.728   1.245
28495W        W92252  31.497  26.698  14.305
28496W        W92253  31.987  33.946  11.921
28497W        W92254  29.946   3.371  11.489
28498W        W92255  17.231  35.579  14.339
28499W        W92256  42.435   6.862   4.160
28500W        W92257  12.706  13.134   1.438
28501W        W92258   6.832  10.169  11.989
28502W        W92259  10.205  13.691  11.374
28503W        W92260   8.746  16.159  12.422
28504W        W92261   6.369  35.894  13.319
28505W        W92262   5.212   8.783  12.569
28506W        W92263  31.641  43.885   3.152
28507W        W92264  21.070  41.015   4.759
28508W        W92265  35.965  17.268   4.172
28509W        W92266  16.153  32.604   4.709
28510W        W92267  37.008  10.300   0.954
28511W        W92268  18.564  25.570   1.374
28512W        W92269   0.457  31.919  12.089
28513W        W92270  38.975  27.666   0.733
28514W        W92271  25.584  29.992   2.682
28515W        W92272  35.475  33.504  13.890
28516W        W92273  32.971  18.748   3.297
28517W        W92274  12.207  30.144   3.744
28518W        W92275  34.921  43.356  12.561
28519W        W92276   0.280  19.688  14.415
28520W        W92277  31.572  11.142   1.876
28521W        W92278   7.866   9.818  14.777
28522W        W92279   3.826  37.912   0.263
28523W        W92280   2.943   6.846  12.497
28524W        W92281   8.262  33.411   4.165
28525W        W92282  39.457  11.777   1.229
28526W        W92283   3.817  40.893   0.919
28527W        W92284  17.687  21.610   1.723
28528W        W92285  17.137   5.874  11.432
28529W        W92286  15.804  28.612   1.866
28530W        W92287  12.296  38.569   3.369
28531W        W92288  11.628  20.579   0.293
28532W        W92289  16.309  18.770   2.183
28533W        W92290  15.213  28.613   4.234
28534W        W92291  12.352  16.184   3.664
28535W        W92292  16.569   7.407   0.877
28536W        W92293   5.845  29.586   0.413
28537W        W92294  22.743  15.823  14.288
28538W        W92295  34.022  12.617   1.779
28539W        W92296   3.390   2.812  10.984
28540W        W92297  41.433  20.565  10.557
28541W        W92298  19.730  34.511   3.656
28542W        W92299   8.327  20.256   1.307
28543W        W92300  11.258  35.586  14.422
28544W        W92301  39.025  33.398   4.229
28545W        W92302   7.306  37.446  12.499
28546W        W92303  26.051  40.369   0.835
28547W        W92304  29.471   8.821   1.719
28548W        W92305  36.014  32.931   2.824
28549W        W92306  33.419  18.211  10.159
28550W        W92307   0.307  13.151   4.265
28551W        W92308  24.538  43.921   0.455
28552W        W92309  27.149  25.050  13.000
28553W        W92310   5.789  30.109   1.825
28554W        W92311  36.363   3.884  11.027
28555W        W92312  13.281   4.224  11.007
28556W        W92313  21.566  40.875  11.963
28557W        W92314  17.787  39.435  11.877
28558W        W92315  35.438  32.523   1.324
28559W        W92316   5.341  30.523  11.496
28560W        W92317  22.694  29.958  12.363
28561W        W92318  38.832  23.716   4.629
28562W        W92319   7.367  28.146  11.900
28563W        W92320   7.313  31.496   3.807
28564W        W92321  32.019  39.498  13.013
28565W        W92322   3.219  20.214   1.416
28566W        W92323  19.181  26.501   2.249
28567W        W92324   4.398  12.198  14.986
28568W        W92325  41.885  30.999   0.824
28569W        W92326   4.785   9.312  13.357
28570W        W92327   7.328   9.733  13.846
28571W        W92328   0.942  14.661   0.263
28572W        W92329  37.344   3.415   2.861
28573W        W92330  29.505  22.197  12.487
28574W        W92331  19.628  39.488   4.285
28575W        W92332  12.236   0.859  10.486
28576W        W92333   7.856  21.638   1.925
28577W        W92334   4.216  20.686   4.733
28578W        W92335  28.067  24.224   2.888
28579W        W92336   8.373  42.869  13.418
28580W        W92337  34.080   4.924   5.214
28581W        W92338  13.182  20.201   1.722
28582W        W92339  38.438  43.381   2.387
28583W        W92340   7.772  44.797  12.401
28584W        W92341  42.001  15.723   3.727
28585W        W92342  17.731  18.162   3.643
28586W        W92343  33.438  33.582  10.128
28587W        W92344  19.247   3.366   4.618
28588W        W92345  33.085  31.641  12.447
28589W        W92346  42.000   6.762   0.360
28590W        W92347  30.547   8.711  10.511
28591W        W92348   6.790  19.696   2.719
28592W        W92349   1.446  32.473  14.296
28593W        W92350  40.031  10.717   1.762
28594W        W92351  15.103  44.796   1.830
28595W        W92352   0.781  10.793  10.987
28596W        W92353   1.747  35.876  13.023
28597W        W92354  22.019  22.745  12.501
28598W        W92355  28.560  39.325  12.346
28599W        W92356  42.489  19.537   4.802
28600W        W92357  41.520  13.713  11.022
28601W        W92358  30.506  21.095   0.312
28602W        W92359  43.952  38.870  12.376
28603W        W92360  21.031  40.306  12.535
28604W        W92361  18.554  22.007  12.972
28605W        W92362  21.626  11.806  12.363
28606W        W92363  44.371  28.494  10.902
28607W        W92364  34.892  22.188  13.819
28608W        W92365   0.873  22.027  12.382
28609W        W92366  18.646  20.056  14.446
28610W        W92367  38.958  23.186   4.785
28611W        W92368  26.146  25.635  11.912
28612W        W92369  36.360  43.004  12.869
28613W        W92370  30.639  43.929  14.855
28614W        W92371  39.476  34.511   4.663
28615W        W92372   2.252  37.981  13.795
28616W        W92373  40.483   0.306  11.471
28617W        W92374  40.929  21.114  10.484
28618W        W92375  28.097  19.118  10.062
28619W        W92376  27.008   1.804  14.377
28620W        W92377  15.104  30.948  11.463
28621W        W92378  36.465   4.709  12.349
28622W        W92379   4.883  38.834   3.267
28623W        W92380  37.390   7.343  14.945
28624W        W92381   1.891   1.934   1.252
28625W        W92382  39.407  20.130   3.678
28626W        W92383   9.312  36.075  14.303
28627W        W92384   3.946  20.586  13.346
28628W        W92385   4.364  31.536   0.464
28629W        W92386  32.975   5.691   1.436
28630W        W92387  21.169   3.335   0.362
28631W        W92388  34.589  14.279  14.880
28632W        W92389  19.559   1.823   0.384
28633W        W92390   7.714  25.579  10.529
28634W        W92391   8.161  33.091  11.945
28635W        W92392  17.736  44.260   2.690
28636W        W92393  28.089  19.258  13.313
28637W        W92394   9.167   9.325  11.028
28638W        W92395  19.119   0.927  14.299
28639W        W92396  22.047  23.530  12.493
28640W        W92397   5.248   2.292   0.863
28641W        W92398  22.072  12.283  12.469
28642W        W92399  42.886  21.172   3.215
28643W        W92400  33.478  20.705  14.311
28644W        W92401  33.587   7.816  14.957
28645W        W92402  15.640  10.707   3.822
28646W        W92403   8.210  17.205   1.411
28647W        W92404  13.330  17.268  10.112
28648W        W92405  28.625  18.685  13.413
28649W        W92406  16.083  24.658   1.301
28650W        W92407  33.922   0.259  13.335
28651W        W92408  30.659   8.798   2.855
28652W        W92409  31.931  32.436  12.950
28653W        W92410  37.905   3.952  11.003
28654W        W92411   9.654  36.429  10.440
28655W        W92412  10.860  32.934  11.003
28656W        W92413  14.697  39.907  14.465
28657W        W92414   7.176   9.161  13.440
28658W        W92415  40.799  25.053  11.940
28659W        W92416  37.080  31.045   2.277
28660W        W92417  14.220   9.840  14.786
28661W        W92418  12.262  28.620  14.943
28662W        W92419   3.875   7.710   0.387
28663W        W92420  11.676  19.086   2.726
28664W        W92421   4.232  41.437  12.992
28665W        W92422  24.068  35.372  10.543
28666W        W92423  39.386  23.694   1.857
28667W        W92424  44.932   8.288   0.967
28668W        W92425  21.521  32.435   2.377
28669W        W92426  27.591   7.267  14.318
28670W        W92427   0.374  26.990  11.055
28671W        W92428  14.646  18.640   3.828
28672W        W92429  36.355  17.714   1.827
28673W        W92430  43.861  29.975  13.036
28674W        W92431  25.006  27.603   3.166
28675W        W92432  29.932  33.532   2.816
28676W        W92433  21.097  28.931  10.019
28677W        W92434  19.213  31.925  14.881
28678W        W92435  21.192   3.232   4.335
28679W        W92436  38.418  22.531   3.673
28680W        W92437  22.224   7.695   1.375
28681W        W92438  24.702  36.013   4.707
28682W        W92439  20.247  26.998  13.397
28683W        W92440   7.220   7.172  10.894
28684W        W92441   8.660  22.643   2.357
28685W        W92442   3.898   6.892  10.442
28686W        W92443  35.889  36.917  10.481
28687W        W92444  15.274  11.742   2.843
28688W        W92445  28.604  42.287   4.715
28689W        W92446  41.987  24.610   2.751
28690W        W92447   6.821   7.345   4.256
28691W        W92448  41.408  32.051   1.380
28692W        W92449  22.097  19.231  13.488
28693W        W92450  11.139  36.474  13.852
28694W        W92451  20.680  29.015  12.527
28695W        W92452  11.243  41.500  11.538
28696W        W92453  31.001   3.826   3.651
28697W        W92454  33.023   4.891   2.840
28698W        W92455  42.306   3.954  13.022
28699W        W92456  30.556  10.816  11.925
28700W        W92457  28.489  22.057  12.900
28701W        W92458   4.213   8.239   0.864
28702W        W92459  34.539  10.199   2.898
28703W        W92460  13.175  11.664   2.341
28704W        W92461  36.069   8.753   0.791
28705W        W92462   8.165  33.959   1.702
28706W        W92463  18.640  21.071  13.533
28707W        W92464  33.524   5.856   1.407
28708W        W92465  37.022  42.330  14.870
28709W        W92466  26.117   6.682   4.320
28710W        W92467   5.361  19.056  14.443
28711W        W92468  21.670  27.461  12.355
28712W        W92469  32.989  36.875  13.527
28713W        W92470   6.323  26.674  11.404
28714W        W92471  34.488  24.579   1.847
28715W        W92472   1.463  30.923   2.888
28716W        W92473  28.932  39.027   2.695
28717W        W92474   4.880  33.017  13.952
28718W        W92475   7.213  42.421   0.457
28719W        W92476   7.846  36.523  10.528
28720W        W92477  44.813  20.702  11.892
28721W        W92478  17.201  25.468  10.586
28722W        W92479  27.509  24.617   1.316
28723W        W92480  21.155  26.607  10.562
28724W        W92481  18.727   3.314   1.435
28725W        W92482  14.162  15.671  11.532
28726W        W92483  12.318  42.887   1.745
28727W        W92484  37.389  21.100   0.365
28728W        W92485  13.800  15.766  10.894
28729W        W92486  20.555  18.150  13.001
28730W        W92487  10.710  15.591  10.946
28731W        W92488   4.837  12.712  11.580
28732W        W92489  24.707  22.504  11.021
28733W        W92490  33.912  43.315   3.761
28734W        W92491  10.869  20.263  12.465
28735W        W92492  16.126  15.193  14.022
28736W        W92493   3.255  38.062  11.880
28737W        W92494  17.643  18.653  14.822
28738W        W92495   8.666  13.617  10.409
28739W        W92496  29.115  39.022   0.273
28740W        W92497   4.874  26.117  10.941
28741W        W92498   6.691   8.237  11.916
28742W        W92499  30.055   9.816  12.897
28743W        W92500  13.686  13.166   2.869
28744W        W92501  10.364  33.005   3.168
28745W        W92502   6.374  42.484   3.868
28746W        W92503  12.637   4.447  12.068
28747W        W92504  37.879  42.951   9.993
28748W        W92505  26.038  13.320  14.028
28749W        W92506  44.323  27.110   4.764
28750W        W92507  22.137  41.909  14.009
28751W        W92508  21.513  11.784   1.287
28752W        W92509  30.583  17.176   1.402
28753W        W92510  44.960  17.222  14.329
28754W        W92511   4.220  37.839   3.247
28755W        W92512  19.160  26.154  14.975
28756W        W92513  15.690  32.034   1.389
28757W        W92514  17.191  20.272   2.727
28758W        W92515  44.779  35.474   4.674
28759W        W92516  39.927  12.193   2.194
28760W        W92517  37.481  12.838  14.934
28761W        W92518  38.899  41.447   2.699
28762W        W92519  38.896   3.956  13.987
28763W        W92520  25.677  31.543  12.555
28764W        W92521  23.014  40.369  14.394
28765W        W92522  38.924  34.433  14.347
28766W        W92523  11.684  44.856   2.870
28767W        W92524  31.554  43.816   0.734
28768W        W92525  27.668  25.007  11.024
28769W        W92526  14.213  44.407  12.060
28770W        W92527  19.226  26.116  14.362
28771W        W92528   9.820  18.751  10.924
28772W        W92529  23.191  30.017   4.312
28773W        W92530  40.485  30.639   4.162
28774W        W92531  24.521  10.260  12.397
28775W        W92532  10.224   9.316   5.252
28776W        W92533  43.311  37.838  14.488
28777W        W92534  29.172   8.307  13.976
28778W        W92535   0.971  33.468   3.723
28779W        W92536  37.380   7.319   3.707
28780W        W92537   3.345  14.182  12.055
28781W        W92538  44.268  22.040   1.924
28782W        W92539  23.033  35.930   3.643
28783W        W92540   7.183  35.357  10.958
28784W        W92541  23.204  29.499  14.978
28785W        W92542  38.003  39.945  10.903
28786W        W92543  22.074  34.555  10.896
28787W        W92544  13.331  31.432  14.806
28788W        W92545   5.292  34.553  14.832
28789W        W92546   3.428  20.216  14.512
28790W        W92547  20.046  41.499   1.243
28791W        W92548  19.697  25.109   2.893
28792W        W92549  14.189   5.284   3.735
28793W        W92550  44.420  14.663   3.243
28794W        W92551   8.401   1.773  12.075
28795W        W92552  21.109  38.568  14.948
28796W        W92553  22.158  12.289   2.373
28797W        W92554  36.456   9.260  11.398
28798W        W92555   3.714  44.800  13.792
28799W        W92556   7.729   8.823   4.661
28800W        W92557  20.120   0.773  14.760
28801W        W92558   8.183   7.397   4.653
28802W        W92559  30.061  25.996  11.612
28803W        W92560  30.115   7.742   1.760
28804W        W92561  15.687  28.988   1.704
28805W        W92562  29.932  36.970  11.604
28806W        W92563  33.403  15.126  14.964
28807W        W92564  17.108   3.899  11.882
28808W        W92565  33.419  40.844  10.057
28809W        W92566  34.423   7.891  13.409
28810W        W92567  24.588  17.645  11.947
28811W        W92568  13.197   1.928  12.048
28812W        W92569  24.502  15.119   2.263
28813W        W92570  20.638  27.649   0.800
28814W        W92571  14.608  22.533  12.415
28815W        W92572  24.187   5.868  11.454
28816W        W92573  13.727  11.219   0.368
28817W        W92574  38.469  19.136   4.192
28818W        W92575  20.564  15.641   3.208
28819W        W92576  15.644  16.249  13.484
28820W        W92577  31.596   9.204   1.352
28821W        W92578  28.590  17.209   4.825
28822W        W92579  22.118  28.458   2.252
28823W        W92580  15.601   9.243   3.646
28824W        W92581   6.276  40.501  10.533
28825W        W92582   4.732  44.313  13.537
28826W        W92583  28.588  24.167  11.386
28827W        W92584  20.225  26.517  12.516
28828W        W92585  20.104   9.810   3.151
28829W        W92586  39.323  37.030   4.128
28830W        W92587  16.221  17.115   3.662
28831W        W92588  12.222  17.095   1.383
28832W        W92589  38.040   5.813   4.212
28833W        W92590  10.380  13.241  11.480
28834W        W92591   5.922  27.943  13.507
28835W        W92592  38.048  33.599   2.869
28836W        W92593  32.487  19.057   0.308
28837W        W92594  38.961  26.031  13.486
28838W        W92595  38.007   3.881  10.563
28839W        W92596  10.202  36.895  14.964
28840W        W92597   5.372  42.878   4.300
28841W        W92598  36.894  32.428   0.783
28842W        W92599  23.689  10.682   0.813
28843W        W92600  19.695  13.138   4.783
28844W        W92601  14.664  18.280  12.898
28845W        W92602   9.753  30.142  10.608
28846W        W92603   1.311  42.951   2.870
28847W        W92604  17.747  35.472   4.277
28848W        W92605  16.105  25.162  12.444
28849W        W92606  35.526  10.196   2.671
28850W        W92607   5.268  42.357  12.496
28851W        W92608  42.886  42.437   0.900
28852W        W92609  27.103   6.232  11.514
28853W        W92610  19.119  41.005   1.746
28854W        W92611   3.829  35.581   0.924
28855W        W92612  38.474   1.734   3.169
28856W        W92613  27.173  22.700  11.888
28857W        W92614  41.848  29.930  13.060
28858W        W92615   4.278   7.279   3.230
28859W        W92616   3.301  34.382  14.515
28860W        W92617  28.486  29.604   1.771
28861W        W92618  17.156  26.487  11.965
28862W        W92619  37.859  39.054  10.129
28863W        W92620  34.872  29.670  14.892
28864W        W92621  37.079  32.911  12.924
28865W        W92622  26.969   8.290   4.829
28866W        W92623  34.071  23.521  10.559
28867W        W92624   7.878  42.425  13.039
28868W        W92625  21.149  31.003   2.367
28869W        W92626  42.886  42.908  10.629
28870W        W92627  43.279  28.096   3.357
28871W        W92628   2.420   9.334  14.302
28872W        W92629  16.790  22.116   0.481
28873W        W92630   4.778  19.246   4.633
28874W        W92631  42.898   6.907   4.710
28875W        W92632  24.624   0.860  14.857
28876W        W92633  13.744  25.070  14.342
28877W        W92634  13.124   6.799   3.278
28878W        W92635  21.533   8.755  10.998
28879W        W92636  30.605  21.255  11.510
28880W        W92637  13.758  38.020   3.379
28881W        W92638   4.790  38.479   1.311
28882W        W92639  39.968  42.462   2.370
28883W        W92640  42.454  35.381  12.917
28884W        W92641  17.737   4.857   4.229
28885W        W92642  24.623  31.427   0.876
28886W        W92643  32.129   6.752  12.072
28887W        W92644   0.791   8.857  13.434
28888W        W92645  33.957   8.681   3.743
28889W        W92646  39.031   8.733  13.524
28890W        W92647  31.896  43.437   4.745
28891W        W92648  38.879  37.954  12.983
28892W        W92649   7.698   4.302   1.378
28893W        W92650  15.727  23.179  14.313
28894W        W92651  25.015  10.383  11.581
28895W        W92652  26.040  39.860  11.098
28896W        W92653   6.842  15.580  10.990
28897W        W92654   9.207  35.400  13.410
28898W        W92655  36.887  14.729  12.935
28899W        W92656  15.688  36.066   4.687
28900W        W92657  16.247  33.047  12.457
28901W        W92658   0.861  23.725  14.297
28902W        W92659   7.239  41.380  13.316
28903W        W92660   2.428  34.940   3.301
28904W        W92661  15.810  16.140  12.500
28905W        W92662   0.298   9.151   2.382
28906W        W92663   8.780  38.436  14.957
28907W        W92664  31.525  13.296  10.602
28908W        W92665  41.313  43.303   3.845
28909W        W92666  29.571  11.220  12.062
28910W        W92667  34.461  10.180  12.004
28911W        W92668  34.590   2.860   1.364
28912W        W92669  24.135   3.411  12.412
28913W        W92670  19.701   1.260  11.432
28914W        W92671  37.542   5.786  11.375
28915W        W92672  13.340  25.539  14.992
28916W        W92673  31.000   2.340  13.405
28917W        W92674  25.553   3.887  10.968
28918W        W92675  16.243  14.298  14.932
28919W        W92676   0.468  28.487   1.232
28920W        W92677  16.193  22.517   1.286
28921W        W92678  11.811  19.599  11.919
28922W        W92679   3.423  39.023   4.175
28923W        W92680  27.065  34.004  12.419
28924W        W92681  18.138  42.284  13.308
28925W        W92682  38.043  35.553   4.800
28926W        W92683   3.751  17.200  12.085
28927W        W92684   4.443  42.329  10.012
28928W        W92685   9.307  10.671   4.710
28929W        W92686  43.017  18.736   1.250
28930W        W92687  27.553  19.081  13.034
28931W        W92688   0.767  24.013   3.236
28932W        W92689  44.411  33.114  12.944
28933W        W92690  38.348   5.921  11.003
28934W        W92691  32.529  13.213  11.420
28935W        W92692  31.476   8.876   2.838
28936W        W92693  22.663  27.160   0.852
28937W        W92694  21.639   1.834   5.242
28938W        W92695   7.200  26.040   0.293
28939W        W92696  20.549  37.985   9.587
28940W        W92697   9.284  41.915  14.837
28941W        W92698   4.424  41.537   3.684
28942W        W92699  20.102  30.011  11.034
28943W        W92700  11.738  28.974   5.282
28944W        W92701  38.357  26.089   2.415
28945W        W92702  40.894  42.955   1.811
28946W        W92703  34.105   3.457  13.928
28947W        W92704  43.790  43.343   3.361
28948W        W92705  10.364   0.300   3.691
28949W        W92706  11.289   4.395  13.376
28950W        W92707  35.955  35.970  12.947
28951W        W92708  39.425   2.747   0.757
28952W        W92709  11.625   1.328  12.426
28953W        W92710   9.368   3.896  14.431
28954W        W92711   5.734   0.897  14.511
28955W        W92712  24.171  32.396  12.360
28956W        W92713  27.574  36.347  11.128
28957W        W92714   4.746  26.067   1.381
28958W        W92715  37.057   8.688  12.845
28959W        W92716  16.785  36.534   4.354
28960W        W92717  31.536   6.187  14.335
28961W        W92718  24.705  24.121  13.883
28962W        W92719  37.527  28.544  12.419
28963W        W92720  34.035  24.100   2.331
28964W        W92721  34.960  39.000   0.834
28965W        W92722   0.315  15.669  12.863
28966W        W92723  39.521   1.737  14.279
28967W        W92724  34.383  36.475   0.382
28968W        W92725   7.177   6.835  11.550
28969W        W92726  38.902  24.981   3.740
28970W        W92727   4.894   9.779  14.293
28971W        W92728  39.003  39.474   4.617
28972W        W92729  11.719  34.568   0.805
28973W        W92730  28.563  38.438   0.867
28974W        W92731  20.228   5.910  14.814
28975W        W92732  26.981  37.973   0.341
28976W        W92733  18.161  27.066  13.809
28977W        W92734  38.946   4.925   5.097
28978W        W92735  27.017   7.863   3.638
28979W        W92736   0.882  32.045  11.992
28980W        W92737  12.660   4.852  14.799
28981W        W92738  25.658  42.912   0.956
28982W        W92739   9.340  37.493  14.863
28983W        W92740  20.264  22.711   1.216
28984W        W92741  27.992   4.436   4.321
28985W        W92742  36.368  10.142   1.333
28986W        W92743  24.574  41.891  13.023
28987W        W92744  12.798  19.544  13.061
28988W        W92745   6.696  26.176  11.065
28989W        W92746   4.926  38.955  13.812
28990W        W92747  16.259  32.537  10.645
28991W        W92748  10.317  27.488   3.229
28992W        W92749  19.142  33.022   0.335
28993W        W92750  19.677  21.546   0.847
28994W        W92751  16.162   4.354   0.765
28995W        W92752   8.402  32.928  13.000
28996W        W92753  36.065   3.782  12.063
28997W        W92754   0.469  25.493  14.890
28998W        W92755  24.996  22.136   1.232
28999W        W92756  24.058  12.132  13.499
29000W        W92757  37.429  32.947  11.578
29001W        W92758  19.157  29.919   0.787
29002W        W92759  11.860   1.738  11.397
29003W        W92760  17.738  34.373  12.861
29004W        W92761  13.830  10.254   3.673
29005W        W92762   1.876   6.327   1.309
29006W        W92763   2.409  23.200   3.382
29007W        W92764  15.615  17.658   0.931
29008W        W92765   1.874  26.125   2.230
29009W        W92766   5.794  12.191  12.087
29010W        W92767  29.105   9.803   2.257
29011W        W92768  16.602   1.420  13.538
29012W        W92769   0.907  39.858  12.012
29013W        W92770  35.012  19.047   4.230
29014W        W92771  42.946  30.005   4.266
29015W        W92772   8.322  15.311   1.214
29016W        W92773   9.782  39.928   4.622
29017W        W92774   1.240  39.054  12.837
29018W        W92775  38.953  25.175  13.419
29019W        W92776   8.826  10.753   4.838
29020W        W92777  12.351  32.498  13.488
29021W        W92778  23.512   4.808  14.381
29022W        W92779  16.140  22.031   4.699
29023W        W92780  29.082  38.548   1.760
29024W        W92781  15.625  27.149  13.933
29025W        W92782   3.948   4.272   3.813
29026W        W92783  32.496   3.304   3.373
29027W        W92784   4.372  22.596  13.480
29028W        W92785  35.891  34.548  13.940
29029W        W92786  23.617  15.614  10.539
29030W        W92787  11.229  13.632   4.758
29031W        W92788  38.560  23.013   1.380
29032W        W92789  36.078   7.198  14.917
29033W        W92790  28.542  17.124  10.898
29034W        W92791  13.796  27.988  14.933
29035W        W92792  12.288  44.893  13.536
29036W        W92793  22.020  19.548   1.303
29037W        W92794  17.262  42.017   4.742
29038W        W92795  34.034  12.280  13.362
29039W        W92796  21.126  11.300   4.633
29040W        W92797  20.144   4.441  13.964
29041W        W92798  31.423  31.096  13.363
29042W        W92799   6.415  43.393  13.034
29043W        W92800  10.379  18.665   1.337
29044W        W92801   4.374  35.885  13.393
29045W        W92802  38.514  34.103  10.637
29046W        W92803  28.541  38.448   2.774
29047W        W92804  24.191   9.385  14.910
29048W        W92805   4.904  36.468   2.798
29049W        W92806  44.793  41.036  11.944
29050W        W92807  23.670  13.646   2.785
29051W        W92808  25.095  40.477  11.029
29052W        W92809  32.055   7.253   0.967
29053W        W92810   8.655   3.308   1.929
29054W        W92811   8.170  29.565  13.950
29055W        W92812  36.456  30.954   2.190
29056W        W92813   5.763  28.649   0.357
29057W        W92814  15.230  18.268   1.931
29058W        W92815  21.727  38.504  12.970
29059W        W92816  25.654  37.867  14.926
29060W        W92817  23.174  36.091   1.894
29061W        W92818  29.046  42.360   2.400
29062W        W92819  32.537  34.026  13.832
29063W        W92820  31.109  14.796  11.863
29064W        W92821  17.232  41.795   3.251
29065W        W92822  38.851  19.192  13.519
29066W        W92823   4.236  42.427  11.126
29067W        W92824  33.544  43.812  10.903
29068W        W92825   3.795  29.565   2.667
29069W        W92826  20.242  30.025  10.468
29070W        W92827  21.537   8.280   1.247
29071W        W92828   7.771  37.976   4.324
29072W        W92829  24.604   0.477   0.840
29073W        W92830  21.715  27.949   2.859
29074W        W92831   3.879  24.973  12.978
29075W        W92832  44.960  43.437   4.828
29076W        W92833  42.372  44.833  13.463
29077W        W92834  30.450  36.019  14.818
29078W        W92835   5.425  41.827  14.464
29079W        W92836  34.438  24.552  12.970
29080W        W92837  30.922  40.346   3.146
29081W        W92838  21.138  26.960  14.489
29082W        W92839   5.316  12.755   4.623
29083W        W92840  21.534  14.151  11.899
29084W        W92841  19.649  40.849  13.461
29085W        W92842  42.498  22.159  12.999
29086W        W92843  26.973  44.943   2.767
29087W        W92844  16.676   0.486  11.426
29088W        W92845  44.946  24.191   0.798
29089W        W92846  24.077   6.776   3.166
29090W        W92847  13.272  25.501   1.738
29091W        W92848  16.155  18.703  14.981
29092W        W92849   5.822  40.048   2.862
29093W        W92850   5.312  25.611   3.854
29094W        W92851   9.151  39.559   0.442
29095W        W92852  12.120  25.168   1.839
29096W        W92853  36.553   3.294  13.544
29097W        W92854   0.419  28.929  13.797
29098W        W92855  11.184  14.663   1.286
29099W        W92856  17.586  14.610   3.652
29100W        W92857  19.611  25.123   2.408
29101W        W92858   2.236  34.015  13.053
29102W        W92859  25.083  12.615  12.873
29103W        W92860  37.364   4.834   4.775
29104W        W92861   4.301  41.433   9.648
29105W        W92862  19.703  24.556   1.382
29106W        W92863  42.817   1.426  12.455
29107W        W92864  13.844  43.811  12.028
29108W        W92865  10.672  30.023   1.437
29109W        W92866  32.466  36.560  13.501
29110W        W92867  40.048  20.130   3.738
29111W        W92868  33.491  41.815  13.325
29112W        W92869  37.472  33.089   2.286
29113W        W92870  19.596  19.201   2.300
29114W        W92871  16.254  14.119  12.022
29115W        W92872  18.091  38.541  11.449
29116W        W92873  20.147  14.247   2.347
29117W        W92874  35.884  28.591   4.123
29118W        W92875   5.815  23.671   1.386
29119W        W92876   6.833  42.021   3.188
29120W        W92877   0.755  40.500   4.145
29121W        W92878  30.458  14.703   5.247
29122W        W92879  42.843  44.478  10.406
29123W        W92880  29.159  35.502  11.082
29124W        W92881  16.237   0.373   4.253
29125W        W92882   3.392  10.152   0.958
29126W        W92883  14.623  13.679  10.591
29127W        W92884   2.390   2.381   0.403
29128W        W92885  24.994  39.984  11.125
29129W        W92886  18.292  32.413   1.390
29130W        W92887   5.817  39.899   2.377
29131W        W92888  17.199  44.488   5.119
29132W        W92889  14.268  32.899   2.300
29133W        W92890   5.193  29.110   0.401
29134W        W92891  16.780  29.029   4.212
29135W        W92892  12.839  12.359  12.076
29136W        W92893  30.037  14.833   0.340
29137W        W92894  31.962   9.286  14.912
29138W        W92895   6.362  43.325   4.783
29139W        W92896  16.786   9.388  11.584
29140W        W92897   9.369  10.376   4.653
29141W        W92898   0.799  20.536   3.367
29142W        W92899  12.213  19.725  12.949
29143W        W92900  24.540  13.824   1.237
29144W        W92901   3.455  19.150   2.836
29145W        W92902   6.240  30.041   1.292
29146W        W92903  22.700   1.839   5.207
29147W        W92904  34.950  29.664   3.696
29148W        W92905  23.229  12.735   1.337
29149W        W92906  20.224  18.581  14.773
29150W        W92907  36.349  29.953   0.368
29151W        W92908  12.801   2.366   0.366
29152W        W92909  30.926  38.046  12.477
29153W        W92910  29.992  17.784   2.244
29154W        W92911  37.077  20.650  14.000
29155W        W92912   9.246  36.403  14.840
29156W        W92913  28.643  15.670  14.939
29157W        W92914   5.718  13.628  10.598
29158W        W92915  29.033  35.417   1.254
29159W        W92916  28.006   7.785   3.812
29160W        W92917  16.080  37.923  12.059
29161W        W92918  10.221  26.013   0.286
29162W        W92919  39.490  24.090   3.651
29163W        W92920  27.598  12.779   3.162
29164W        W92921   0.304   1.899   4.156
29165W        W92922  24.503   7.191  14.012
29166W        W92923  26.620  18.552  11.585
29167W        W92924  28.956   6.410  10.046
29168W        W92925  29.941  37.059  11.983
29169W        W92926  30.038  30.945   1.919
29170W        W92927   4.900  43.376  11.116
29171W        W92928  35.971  28.527   9.629
29172W        W92929  36.082   6.213   3.269
29173W        W92930  36.999  34.985  10.637
29174W        W92931  15.758  39.374  14.763
29175W        W92932  34.005  11.621  11.583
29176W        W92933  17.167  40.006  10.452
29177W        W92934   4.230  12.642  13.880
29178W        W92935  12.724  22.596  13.021
29179W        W92936  41.523  14.271   0.919
29180W        W92937  11.205  11.705   1.713
29181W        W92938  33.539   2.433  13.446
29182W        W92939  37.438   0.279  11.097
29183W        W92940  36.553  44.949  14.013
29184W        W92941  23.088  16.259  14.337
29185W        W92942  39.891  23.204  13.930
29186W        W92943  21.126  27.128   2.841
29187W        W92944   1.452  29.448  13.374
29188W        W92945  29.603   4.801   1.311
29189W        W92946  34.583  40.522   1.847
29190W        W92947  13.137  23.579  14.456
29191W        W92948  28.605  31.434   0.326
29192W        W92949   4.317  16.120  14.999
29193W        W92950   1.922  18.285  11.087
29194W        W92951  32.096  24.047  12.940
29195W        W92952   4.886  30.457  10.583
29196W        W92953  44.373   3.445  12.831
29197W        W92954  37.396  37.861   0.815
29198W        W92955  29.122  24.023  13.866
29199W        W92956  27.195   9.212  14.993
29200W        W92957   1.447  18.759   4.699
29201W        W92958  19.661  31.537   4.343
29202W        W92959  33.620   3.311  12.865
29203W        W92960  10.225  33.576   5.184
29204W        W92961  39.882   1.740  10.427
29205W        W92962  33.539   1.878  11.493
29206W        W92963  17.559  12.728  14.813
29207W        W92964   2.233  39.838   1.794
29208W        W92965  23.240  39.487  14.289
29209W        W92966   8.165  44.468   2.877
29210W        W92967  43.407  36.387   4.668
29211W        W92968  23.491  32.100   1.779
29212W        W92969   9.843  21.594  13.541
29213W        W92970  34.873  26.681   2.291
29214W        W92971  18.720  39.556   4.730
29215W        W92972  14.801  34.864   2.209
29216W        W92973   2.334  34.415   4.291
29217W        W92974  32.424  38.044  12.445
29218W        W92975  11.156   8.851   4.708
29219W        W92976  26.176  44.856  14.839
29220W        W92977   3.821   8.712   3.802
29221W        W92978  43.417  30.019  12.442
29222W        W92979  10.875  33.478  10.960
29223W        W92980  22.738  21.633  10.907
29224W        W92981   9.868  12.248  10.641
29225W        W92982  25.633  38.411  13.319
29226W        W92983  39.040  14.800   2.756
29227W        W92984  37.842  36.025   3.278
29228W        W92985  11.771  23.547   1.401
29229W        W92986  42.846  35.922  14.383
29230W        W92987  40.918  27.595   2.900
29231W        W92988   4.393  25.502  14.404
29232W        W92989  26.514   7.236  11.543
29233W        W92990   6.354  33.408  13.900
29234W        W92991   4.256   9.714  11.498
29235W        W92992  16.104  18.609  13.431
29236W        W92993  10.155  20.602   1.912
29237W        W92994  27.579  17.250   4.619
29238W        W92995  32.915   0.900   1.883
29239W        W92996   4.830  25.617  10.642
29240W        W92997  20.111  26.156  10.420
29241W        W92998   9.812  30.135   3.171
29242W        W92999  44.436  35.545   5.221
29243W        W93000  31.951  44.981   1.220
29244W        W93001  28.576  38.957   1.778
29245W        W93002  43.403  24.588  13.867
29246W        W93003  30.440  17.782   1.217
29247W        W93004  40.872   3.378  13.348
29248W        W93005  39.356   4.277  12.421
29249W        W93006   5.284  35.853   0.429
29250W        W93007  28.981   0.302  13.034
29251W        W93008  24.082  30.116  14.995
29252W        W93009   1.852  22.160  10.495
29253W        W93010  23.571  39.813   4.785
29254W        W93011  26.616   0.321   2.790
29255W        W93012  29.637  21.511  12.977
29256W        W93013   8.762  27.520   0.961
29257W        W93014  33.082   8.242  13.806
29258W        W93015  29.608  14.596  14.026
29259W        W93016   9.780  10.140   2.713
29260W        W93017  22.687  20.258  10.473
29261W        W93018  17.151  11.686  14.507
29262W        W93019  15.721  39.516   0.328
29263W        W93020  37.942   9.768  11.877
29264W        W93021  15.604  31.932  10.916
29265W        W93022  39.471  42.341  10.454
29266W        W93023  27.963   7.223   0.772
29267W        W93024  38.444  33.007  12.430
29268W        W93025  26.052  17.655  13.507
29269W        W93026  13.759  25.137  10.999
29270W        W93027  39.838  42.344  13.400
29271W        W93028   9.365  11.314   4.757
29272W        W93029  32.478   0.297   4.812
29273W        W93030  38.953   2.746  13.936
29274W        W93031   2.754   0.449  10.963
29275W        W93032  10.140   9.821   3.670
29276W        W93033  15.255  28.104   3.740
29277W        W93034  33.103  19.192  14.826
29278W        W93035  34.015   1.878  14.786
29279W        W93036  33.880  39.404  14.359
29280W        W93037  29.460  28.505   0.425
29281W        W93038  38.002  29.064  12.923
29282W        W93039  28.167  38.072  13.320
29283W        W93040  32.545  28.092  11.938
29284W        W93041  25.005   7.313  12.356
29285W        W93042  12.777  17.693   2.288
29286W        W93043  37.360  15.131   3.378
29287W        W93044  28.655  30.591   5.288
29288W        W93045  33.471  31.628   4.627
29289W        W93046  11.833  25.193  12.453
29290W        W93047  18.173   3.770   2.878
29291W        W93048  21.062   3.745  11.428
29292W        W93049  25.658  40.839  12.936
29293W        W93050  11.306  11.846   3.244
29294W        W93051  42.928   0.965  12.959
29295W        W93052   1.868   8.264  11.063
29296W        W93053   5.886  19.107   0.874
29297W        W93054  36.547   2.264   3.332
29298W        W93055  36.866  43.950   1.815
29299W        W93056  37.432   2.344  13.927
29300W        W93057  20.242  43.006   5.147
29301W        W93058  11.864   5.307  10.640
29302W        W93059   1.940  33.092  14.853
29303W        W93060  27.520  15.663  12.451
29304W        W93061  17.191   8.169   0.855
29305W        W93062  42.846  11.781   4.181
29306W        W93063  39.538  23.642  12.422
29307W        W93064   5.310  24.116  14.986
29308W        W93065  33.884  36.443   4.728
29309W        W93066  23.513  31.553  11.948
29310W        W93067  27.979  41.019  13.040
29311W        W93068  28.049  20.632  10.114
29312W        W93069   1.828  14.219   1.817
29313W        W93070  16.583  15.794   0.759
29314W        W93071   6.252  26.667  10.490
29315W        W93072   3.275  33.128   3.232
29316W        W93073  32.553  27.579  11.494
29317W        W93074   1.479  39.857   4.152
29318W        W93075  40.375  23.607   0.265
29319W        W93076  12.270   2.426   0.816
29320W        W93077  22.034  23.543   3.645
29321W        W93078  44.428  40.447   2.298
29322W        W93079  11.815   8.679   0.823
29323W        W93080  11.158   4.842   0.369
29324W        W93081  32.001  31.906  11.385
29325W        W93082  30.486  31.426   4.304
29326W        W93083  24.108   0.489   1.709
29327W        W93084  24.023   4.340  14.786
29328W        W93085  17.241   3.954  11.465
29329W        W93086  10.767  12.848   3.726
29330W        W93087  25.505  37.937  12.453
29331W        W93088  21.566   0.458   4.300
29332W        W93089  31.417   6.825  10.485
29333W        W93090  36.072  16.099   4.117
29334W        W93091  40.994  40.814  11.868
29335W        W93092   6.355  31.930   0.360
29336W        W93093  33.014   1.375  14.795
29337W        W93094  42.977  43.934   2.389
29338W        W93095  10.358  25.980   2.254
29339W        W93096   8.836  36.861  14.499
29340W        W93097  28.474  18.611  12.068
29341W        W93098   0.273  17.756   0.255
29342W        W93099  26.119  40.029  11.609
29343W        W93100  42.487  10.161   1.918
29344W        W93101  16.155   9.742  12.345
29345W        W93102  33.945  40.977  11.986
29346W        W93103  10.779   1.295  12.378
29347W        W93104  41.452   0.337   0.482
29348W        W93105  18.163   5.795  11.978
29349W        W93106   8.247  15.637   3.294
29350W        W93107  35.015  34.584   3.722
29351W        W93108  21.729  24.722   1.245
29352W        W93109  34.483  41.452  14.403
29353W        W93110   8.190  39.829  14.866
29354W        W93111  26.702  13.326  10.422
29355W        W93112  23.608  31.906   0.932
29356W        W93113   9.209  28.068  14.985
29357W        W93114  16.127  18.701  11.427
29358W        W93115  23.516  10.661   3.797
29359W        W93116   8.673  37.544   3.310
29360W        W93117  11.243  41.002  14.417
29361W        W93118  35.874  34.020  11.074
29362W        W93119  26.479   0.972  14.997
29363W        W93120  25.630  10.359  13.903
29364W        W93121   9.690  26.595  10.571
29365W        W93122  30.978  25.000   0.876
29366W        W93123  37.507  42.980  10.898
29367W        W93124  19.174  22.216   3.227
29368W        W93125   2.935   0.366   4.710
29369W        W93126   8.784   6.762  12.889
29370W        W93127  20.261  22.576   4.340
29371W        W93128  28.149   4.428  14.808
29372W        W93129  25.676  11.165   1.796
29373W        W93130  44.895   3.776   1.916
29374W        W93131  40.998  41.317  13.548
29375W        W93132  11.752  30.028   1.877
29376W        W93133   0.953  44.401   1.728
29377W        W93134  22.568  42.810  11.477
29378W        W93135  32.973  23.735  14.954
29379W        W93136   6.343   4.861  12.912
29380W        W93137  26.967  33.103   1.712
29381W        W93138  35.910  30.005  13.531
29382W        W93139  11.639  27.534  14.373
29383W        W93140  30.037  16.704   1.779
29384W        W93141  23.644  36.517  12.925
29385W        W93142  18.175  10.185  13.818
29386W        W93143  41.315  38.518  11.444
29387W        W93144  28.139  37.427  11.122
29388W        W93145   5.325  37.060  11.585
29389W        W93146  23.024  42.026  12.391
29390W        W93147   6.874  27.518  13.445
29391W        W93148  41.334  27.042  12.064
29392W        W93149  38.433  35.479  12.031
29393W        W93150  14.238   9.809  14.439
29394W        W93151  34.944  35.924   0.929
29395W        W93152   8.718  22.530  11.078
29396W        W93153   7.300  14.176  10.067
29397W        W93154  16.186   1.275   2.326
29398W        W93155   6.895  37.524  10.641
29399W        W93156   5.890  24.613  10.989
29400W        W93157  13.835  23.599   3.795
29401W        W93158  28.621   3.931   5.691
29402W        W93159  41.042   9.736   3.677
29403W        W93160  28.181  12.241   0.386
29404W        W93161  33.930  33.608   1.342
29405W        W93162  27.526  12.302  10.936
29406W        W93163  42.023  18.261  11.958
29407W        W93164  44.379  37.045   0.854
29408W        W93165  16.268  18.762  11.984
29409W        W93166  39.855   7.260   0.322
29410W        W93167  12.339  41.372   2.883
29411W        W93168  38.385  19.053  14.835
29412W        W93169   2.795  14.216   0.881
29413W        W93170   1.766  17.257  10.446
29414W        W93171  35.912  39.382   1.728
29415W        W93172  24.071  12.661   4.726
29416W        W93173  43.891   0.465  12.014
29417W        W93174  37.362  38.338   3.312
29418W        W93175  13.274  19.210   3.680
29419W        W93176   4.844  32.633   1.356
29420W        W93177  31.920  28.057  14.925
29421W        W93178  27.036   4.309   1.340
29422W        W93179  30.653  16.174   1.351
29423W        W93180   1.888  14.811  13.478
29424W        W93181  27.592  18.646  10.085
29425W        W93182  40.367  11.652  13.370
29426W        W93183  13.147  31.637   1.292
29427W        W93184  21.687   8.177  11.030
29428W        W93185  27.985  16.100   1.829
29429W        W93186  16.121  28.462   0.888
29430W        W93187  34.487  11.682   1.833
29431W        W93188   2.956  19.647   4.667
29432W        W93189  16.300  14.590  12.344
29433W        W93190  20.625  34.396   0.905
29434W        W93191  18.763  44.303  13.950
29435W        W93192  36.429  24.613   4.335
29436W        W93193  21.183  28.632   3.790
29437W        W93194  37.018  33.131   1.791
29438W        W93195   2.948  27.113  10.470
29439W        W93196   7.237  15.128   2.307
29440W        W93197  22.194  28.493   1.388
29441W        W93198  41.503  15.596   4.701
29442W        W93199  37.387   8.228  14.358
29443W        W93200   4.944  10.367   2.197
29444W        W93201  27.063  30.634   4.647
29445W        W93202  14.670  40.530  11.566
29446W        W93203  13.663  43.348  14.339
29447W        W93204  13.697  31.071  10.960
29448W        W93205   2.767  28.942   4.735
29449W        W93206  15.659  38.021   2.822
29450W        W93207  22.029  36.485   2.888
29451W        W93208   8.294   6.880  12.532
29452W        W93209  10.206   6.350   2.843
29453W        W93210  39.912  27.094  10.586
29454W        W93211  43.384  19.244   1.325
29455W        W93212  36.498  12.345  14.005
29456W        W93213  23.550  15.272  11.884
29457W        W93214  23.154  28.611  13.832
29458W        W93215  41.935  28.665  11.437
29459W        W93216   8.770  32.578  13.881
29460W        W93217  37.961   5.358   4.729
29461W        W93218  42.862  13.123  12.492
29462W        W93219  29.046   1.237  14.412
29463W        W93220   0.291  32.584   1.340
29464W        W93221  20.088  43.412   2.884
29465W        W93222  10.698  13.671   0.250
29466W        W93223  23.695  31.432  14.774
29467W        W93224  13.301  35.893   2.373
29468W        W93225  29.471  16.115  10.893
29469W        W93226  26.956  10.383   3.730
29470W        W93227  28.023  17.571  11.386
29471W        W93228  27.172  19.237  10.993
29472W        W93229  10.205  40.465   2.865
29473W        W93230  37.489   4.221  14.990
29474W        W93231  16.585  20.523   2.331
29475W        W93232   4.438  41.807   1.917
29476W        W93233  16.271   3.354  12.053
29477W        W93234  25.467  29.071  13.059
29478W        W93235  43.900  16.088  11.044
29479W        W93236  38.066  14.268   2.251
29480W        W93237  28.079  38.856   2.300
29481W        W93238   3.852  40.797   9.927
29482W        W93239  31.020  38.506  14.965
29483W        W93240   8.698   9.740   3.282
29484W        W93241   5.898  14.154   3.818
29485W        W93242  13.234   6.252  14.969
29486W        W93243  12.668  17.270   4.149
29487W        W93244   6.718  39.848   1.910
29488W        W93245  15.745   7.829   0.260
29489W        W93246  14.280  27.046  14.958
29490W        W93247   9.316  38.822  10.555
29491W        W93248  40.359  21.657   4.655
29492W        W93249   6.710  30.507   2.755
29493W        W93250  35.864  13.813  12.533
29494W        W93251  33.024  28.139   3.159
29495W        W93252  10.352  40.329   0.288
29496W        W93253  33.540  25.618  11.926
29497W        W93254  35.891  33.569  11.052
29498W        W93255  25.515   2.452   2.309
29499W        W93256   7.356  33.452   1.839
29500W        W93257   4.335   5.216  10.466
29501W        W93258  11.178  40.014  13.039
29502W        W93259  30.059  35.910   4.166
29503W        W93260  42.991  27.125   3.703
29504W        W93261  28.482  25.101   9.930
29505W        W93262  22.544  23.197   1.923
29506W        W93263  16.812  32.931  10.932
29507W        W93264  40.414  27.966   5.136
29508W        W93265  14.743  37.918   2.854
29509W        W93266  32.956  32.518  14.405
29510W        W93267  23.109  43.892  12.459
29511W        W93268  29.565  20.172  13.016
29512W        W93269  18.088   0.913   3.333
29513W        W93270  17.305  15.670  11.994
29514W        W93271  43.495  12.663   0.250
29515W        W93272  18.197  27.471   2.742
29516W        W93273  36.895  19.643  11.896
29517W        W93274  18.707   9.194  13.954
29518W        W93275   4.216  39.836  13.517
29519W        W93276  31.999  14.192   1.355
29520W        W93277  33.965  23.719   1.339
29521W        W93278  31.153  22.026  13.906
29522W        W93279  16.680   0.307  11.942
29523W        W93280  24.175   4.743  11.904
29524W        W93281  40.429  36.921   2.218
29525W        W93282  12.140   6.292   4.202
29526W        W93283  31.052  20.761   4.737
29527W        W93284   0.954  35.879  11.055
29528W        W93285  19.776  26.994   0.748
29529W        W93286  30.043  36.983   4.703
29530W        W93287  42.787  36.955  11.860
29531W        W93288  10.236  18.764   1.714
29532W        W93289   0.293   9.805  11.078
29533W        W93290  44.970   7.395  13.950
29534W        W93291  16.251  20.086   2.734
29535W        W93292  28.534   4.704   2.247
29536W        W93293  27.066  11.713   2.779
29537W        W93294  27.688  26.695   4.217
29538W        W93295  31.098  41.012  11.999
29539W        W93296  31.405  27.178   1.933
29540W        W93297  44.363  35.912  12.077
29541W        W93298  39.055   2.941  11.450
29542W        W93299  34.472  33.926  14.903
29543W        W93300  32.072  38.923   0.304
29544W        W93301  28.626   3.254  12.406
29545W        W93302   7.713  28.603  12.049
29546W        W93303   9.362  38.456  12.442
29547W        W93304   7.857   9.765   0.937
29548W        W93305  34.896  43.369   4.815
29549W        W93306  38.366  31.545  11.046
29550W        W93307  20.757   5.738  12.049
29551W        W93308   7.253  18.292   4.744
29552W        W93309   6.853  23.693  11.608
29553W        W93310   0.959  26.585  11.528
29554W        W93311  27.972   1.430  12.965
29555W        W93312  38.829  29.063   3.229
29556W        W93313   9.688  13.214  14.309
29557W        W93314   2.926  43.997  13.522
29558W        W93315  25.195   4.404   4.676
29559W        W93316   3.879   0.296  14.031
29560W        W93317   0.356  22.660   2.744
29561W        W93318  42.990  15.614  11.024
29562W        W93319  35.876   2.226   0.275
29563W        W93320  28.086   9.868  11.859
29564W        W93321  30.604  21.128   0.740
29565W        W93322  20.586  24.180  11.970
29566W        W93323  26.005  21.097   0.896
29567W        W93324  29.515  16.181   2.352
29568W        W93325  23.028  18.601   2.839
29569W        W93326  38.944  33.079  11.865
29570W        W93327  18.278   5.348   2.764
29571W        W93328  17.146  41.940  12.450
29572W        W93329  37.491  16.585  10.448
29573W        W93330  32.546  27.684   4.184
29574W        W93331  33.384   1.831   1.831
29575W        W93332  10.174  25.106   1.919
29576W        W93333   2.277  36.871  11.963
29577W        W93334  14.809  34.955   0.409
29578W        W93335   2.737  26.622   4.761
29579W        W93336   3.788  41.490  10.914
29580W        W93337  27.632  33.939  12.047
29581W        W93338  24.173   0.981   2.370
29582W        W93339  13.250   8.276   0.764
29583W        W93340  11.780   3.370   5.125
29584W        W93341  34.386   6.849   4.153
29585W        W93342  22.069  20.652  13.900
29586W        W93343   3.785  12.302   3.767
29587W        W93344  12.322   8.861   0.454
29588W        W93345  20.027   2.816  10.553
29589W        W93346  40.331  42.799  10.000
29590W        W93347   5.283   4.714  13.426
29591W        W93348  17.228   5.433  13.534
29592W        W93349  27.122  18.593  14.386
29593W        W93350  18.241  15.645   1.832
29594W        W93351  31.950  14.781   3.342
29595W        W93352  28.626  32.447   2.275
29596W        W93353  40.505  19.278  10.991
29597W        W93354   8.692  17.724   2.733
29598W        W93355   3.854   9.720   2.865
29599W        W93356  32.594  13.730  12.891
29600W        W93357  34.079   4.886   1.339
29601W        W93358  40.494  12.827  10.640
29602W        W93359  25.572  30.563  14.936
29603W        W93360   8.714  43.807   3.848
29604W        W93361  11.347   7.799  14.516
29605W        W93362  34.027  36.097  11.887
29606W        W93363  39.481   7.178   4.762
29607W        W93364   3.317  24.548  13.911
29608W        W93365  35.562  36.026  12.536
29609W        W93366   7.255  18.098   1.706
29610W        W93367   3.825  17.733  10.477
29611W        W93368  10.366  32.432   0.475
29612W        W93369  23.580  35.440   0.461
29613W        W93370  44.957  10.871   0.334
29614W        W93371  14.590  42.944   4.142
29615W        W93372  16.753  41.891   4.717
29616W        W93373  31.911  25.653  14.997
29617W        W93374   1.305  23.213  14.884
29618W        W93375  29.092   9.186   2.861
29619W        W93376  31.995  30.422   3.697
29620W        W93377  35.966   5.853  13.864
29621W        W93378   6.325   0.474   1.302
29622W        W93379  32.461  43.316   0.828
29623W        W93380   0.469  11.161   3.353
29624W        W93381  15.308  34.968   0.252
29625W        W93382  30.482  13.671  14.515
29626W        W93383   4.227  37.842   1.266
29627W        W93384  20.263  29.466   3.706
29628W        W93385  11.737  21.246  10.092
29629W        W93386  28.655  34.973  10.042
29630W        W93387   5.225   0.492   3.825
29631W        W93388  34.401  44.476  10.583
29632W        W93389  15.097  10.197  11.946
29633W        W93390  42.890   6.351   4.322
29634W        W93391  15.782  39.448   4.179
29635W        W93392  36.067   2.285  12.965
29636W        W93393  25.688  37.932  10.971
29637W        W93394  43.354  31.097   1.925
29638W        W93395  32.062  31.936   1.412
29639W        W93396  33.451  33.569  10.445
29640W        W93397  28.488  36.918  11.568
29641W        W93398  16.613   7.406  11.927
29642W        W93399  20.636  33.553   1.417
29643W        W93400  40.904   1.390  14.485
29644W        W93401  27.550  29.936   2.180
29645W        W93402   8.775   8.179   1.749
29646W        W93403  35.468  25.037   3.841
29647W        W93404   2.831   1.825  14.772
29648W        W93405  26.488  38.972   3.266
29649W        W93406   9.672   5.275  14.320
29650W        W93407  36.007  13.182   1.839
29651W        W93408   0.409  10.714  12.096
29652W        W93409   3.869  11.199   1.360
29653W        W93410   6.749  13.672   2.721
29654W        W93411   2.358  33.398  13.417
29655W        W93412  35.003  38.063   4.282
29656W        W93413  33.576  20.641   4.613
29657W        W93414  35.466  29.975  11.034
29658W        W93415   3.917   1.739  12.481
29659W        W93416  21.075  15.744  13.865
29660W        W93417  30.097   8.693   3.802
29661W        W93418  30.007  17.795   5.566
29662W        W93419   5.244  10.786  14.436
29663W        W93420  43.506  31.908   1.798
29664W        W93421  40.026  44.813   0.399
29665W        W93422  18.253  38.393  13.424
29666W        W93423  23.671  31.596  12.856
29667W        W93424  44.441  30.611   3.728
29668W        W93425   5.904   5.763   3.858
29669W        W93426  12.211  13.138  13.457
29670W        W93427  21.664  24.500  13.327
29671W        W93428  35.057  41.303   3.703
29672W        W93429  13.725  29.505  11.007
29673W        W93430   3.345   7.259  13.059
29674W        W93431  11.309  15.674   4.352
29675W        W93432   5.281  35.869   3.749
29676W        W93433  39.907   0.924  13.816
29677W        W93434  26.000  39.494  12.017
29678W        W93435  25.697   1.244   2.789
29679W        W93436  17.143  41.851   1.381
29680W        W93437  37.036   2.882   3.299
29681W        W93438  19.622  38.035   0.853
29682W        W93439  23.502  32.003   3.777
29683W        W93440  28.071  39.524   1.282
29684W        W93441  21.683  27.157   0.427
29685W        W93442  11.130  20.632   4.608
29686W        W93443  42.919  25.679   1.718
29687W        W93444  20.192  16.741   3.331
29688W        W93445   7.821   1.815   1.271
29689W        W93446  14.162   0.481  12.904
29690W        W93447  21.578  38.493  10.639
29691W        W93448   0.805  23.500  13.907
29692W        W93449   5.902   5.337  14.854
29693W        W93450  14.744  26.680  14.487
29694W        W93451  34.939  23.615  14.935
29695W        W93452  38.882   3.349   1.297
29696W        W93453  39.321  36.438  14.516
29697W        W93454   8.723  14.204   4.799
29698W        W93455  37.976   2.932  14.906
29699W        W93456  15.653  41.900   1.274
29700W        W93457  39.392  11.277  13.398
29701W        W93458   1.961   2.927   3.212
29702W        W93459  32.505  26.048  10.532
29703W        W93460  24.105  38.458  14.011
29704W        W93461  13.710   9.850   4.242
29705W        W93462  14.297   6.185  12.559
29706W        W93463  11.763  13.640   0.440
29707W        W93464   7.400  19.053  13.310
29708W        W93465  18.786  32.406  11.409
29709W        W93466  14.604  11.699  12.530
29710W        W93467   0.830  35.560   2.364
29711W        W93468  28.964  20.149   3.261
29712W        W93469  17.740   3.399   0.308
29713W        W93470  25.976  42.916   3.855
29714W        W93471  32.088  17.073   4.609
29715W        W93472  36.975  30.075   3.146
29716W        W93473  14.288  17.199   0.872
29717W        W93474   1.355  14.756   4.304
29718W        W93475  13.742   3.397   0.303
29719W        W93476  24.201  31.483   0.325
29720W        W93477   7.171  34.931   2.822
29721W        W93478  24.217  40.537  12.013
29722W        W93479  16.189  15.604   0.402
29723W        W93480  24.712  17.734  13.926
29724W        W93481  11.644  26.571   1.823
29725W        W93482   4.707  32.447   0.394
29726W        W93483  20.592   1.799   4.162
29727W        W93484  36.041  32.588   0.891
29728W        W93485  21.033  41.936  12.539
29729W        W93486   2.815  35.380   0.899
29730W        W93487  27.983   3.828  11.563
29731W        W93488  20.122  42.437   2.840
29732W        W93489  44.835  31.092  12.408
29733W        W93490   9.875  37.417  12.092
29734W        W93491  27.655   4.944   4.784
29735W        W93492  15.577  25.535  13.882
29736W        W93493  35.469  11.155  12.926
29737W        W93494  14.716  19.734   3.780
29738W        W93495  18.655  12.842  10.973
29739W        W93496  32.618   6.333  12.435
29740W        W93497  39.501  17.572   3.842
29741W        W93498   5.841  12.762   2.852
29742W        W93499  31.533   2.326   3.725
29743W        W93500  16.600  31.528  14.492
29744W        W93501  34.457  32.984  13.978
29745W        W93502  25.978  29.114   4.248
29746W        W93503   0.263  23.640   1.414
29747W        W93504  41.331   7.893   3.336
29748W        W93505  22.160   8.860  11.535
29749W        W93506  20.062  28.160  11.950
29750W        W93507  32.117   8.195  10.590
29751W        W93508  42.813   6.266   2.276
29752W        W93509  31.545  33.541   4.753
29753W        W93510  32.990  30.072  14.872
29754W        W93511  19.726   3.437   0.871
29755W        W93512   1.298  29.455   2.251
29756W        W93513  35.966   4.931  10.514
29757W        W93514  29.488  26.621  14.871
29758W        W93515  31.595  35.067   1.305
29759W        W93516  43.449  18.691  14.959
29760W        W93517  13.753  12.196  12.486
29761W        W93518  31.080  18.247  12.528
29762W        W93519  38.831  20.114  14.926
29763W        W93520  44.369  44.340  13.401
29764W        W93521  28.962  27.006   1.447
29765W        W93522  17.165  40.471   0.811
29766W        W93523  23.230  15.745  12.488
29767W        W93524  18.664  14.209  10.016
29768W        W93525  39.335  41.357   2.218
29769W        W93526  32.935   2.756   1.328
29770W        W93527  23.185   2.278   3.159
29771W        W93528  34.575  28.130   1.325
29772W        W93529  11.857  15.188  10.628
29773W        W93530  20.161  18.202  13.493
29774W        W93531  10.230  11.841   1.900
29775W        W93532  16.674  27.475   4.231
29776W        W93533  42.300  32.940   1.861
29777W        W93534  12.814  10.654  13.534
29778W        W93535  12.684  20.117   1.826
29779W        W93536  31.492  16.099   9.967
29780W        W93537  37.831  18.596  11.122
29781W        W93538  26.059  24.585   4.200
29782W        W93539  13.323  28.480  10.637
29783W        W93540  18.735  34.893   4.687
29784W        W93541  32.527  44.002   1.423
29785W        W93542  43.408   6.809  12.487
29786W        W93543  16.129  17.706  10.478
29787W        W93544  13.801  32.573  12.443
29788W        W93545   8.187   7.297   0.932
29789W        W93546  25.692   1.972  14.790
29790W        W93547  17.226  26.582  14.959
29791W        W93548  32.413   6.850   3.226
29792W        W93549  39.375  30.004  13.941
29793W        W93550  33.466  24.076  12.428
29794W        W93551  34.494   0.253   1.906
29795W        W93552  32.944  32.044  14.825
29796W        W93553  42.284  38.054   0.775
29797W        W93554  26.508  26.667   4.686
29798W        W93555   1.298  36.395   1.234
29799W        W93556  11.679  23.713   1.764
29800W        W93557  33.560   4.834  10.084
29801W        W93558  15.650  29.511  12.431
29802W        W93559  39.012  37.886  14.961
29803W        W93560  26.535  29.547  10.547
29804W        W93561  24.715   0.338   4.303
29805W        W93562  19.652  37.504  14.455
29806W        W93563  32.021  12.324   2.727
29807W        W93564  19.043  42.342  11.898
29808W        W93565  25.644  13.263   2.218
29809W        W93566  11.697  31.116  12.514
29810W        W93567  18.632  31.989  14.807
29811W        W93568  37.500  32.092  12.529
29812W        W93569  43.505   0.368  10.947
29813W        W93570   9.329  31.629   1.420
29814W        W93571   9.357  12.674   5.302
29815W        W93572  33.988  30.504   3.710
29816W        W93573  32.589   7.665   0.270
29817W        W93574  21.555  35.381  14.408
29818W        W93575  34.536  24.007   1.303
29819W        W93576  37.454   4.726   0.334
29820W        W93577  12.189  28.556  13.403
29821W        W93578  38.433  42.883  13.930
29822W        W93579  25.006  44.983   2.894
29823W        W93580  38.415  30.130  11.984
29824W        W93581   4.879  42.971   3.175
29825W        W93582  39.420  41.325  11.506
29826W        W93583  41.295  17.062  13.539
29827W        W93584  23.170  25.549   0.268
29828W        W93585  26.696  28.673   2.233
29829W        W93586  17.242  25.653   3.740
29830W        W93587  39.524   1.959  12.088
29831W        W93588   6.263   5.250   2.306
29832W        W93589   8.864  12.748   0.318
29833W        W93590  44.318  31.947   5.254
29834W        W93591  38.526  26.200  11.004
29835W        W93592  10.807  44.840  11.613
29836W        W93593  42.866  17.147   2.331
29837W        W93594  12.694   9.344   4.752
29838W        W93595  27.622  26.959   1.812
29839W        W93596  11.647  44.373   3.779
29840W        W93597   7.358  15.166  14.972
29841W        W93598  16.237  19.201  10.912
29842W        W93599  20.576  24.535   3.182
29843W        W93600  38.913  44.934   3.761
29844W        W93601  25.024  24.525  13.051
29845W        W93602  26.137   6.758  10.518
29846W        W93603  33.964  23.720  12.965
29847W        W93604   0.778   4.423  10.457
29848W        W93605  44.368  35.876   3.852
29849W        W93606  30.627   7.299   4.713
29850W        W93607  44.487  40.807   4.240
29851W        W93608   4.733  12.789   4.818
29852W        W93609   1.475  14.683   2.718
29853W        W93610  30.120  10.379  11.103
29854W        W93611  26.605  29.939  13.501
29855W        W93612  20.070  10.832  13.859
29856W        W93613   2.770  15.699  13.009
29857W        W93614  43.362  43.836   0.779
29858W        W93615  31.434  11.151   3.841
29859W        W93616  19.077  16.156   4.648
29860W        W93617  26.539  29.099  10.611
29861W        W93618  14.318  23.580   1.442
29862W        W93619   7.308  26.032   3.663
29863W        W93620  20.569   0.386  12.349
29864W        W93621  36.925  33.425   1.269
29865W        W93622   0.960   2.304  11.966
29866W        W93623  29.656  19.691   3.795
29867W        W93624  31.574  16.599   2.824
29868W        W93625  44.843  29.086  10.618
29869W        W93626   2.234   5.416  13.462
29870W        W93627   9.257   6.850  14.330
29871W        W93628  17.730   5.850  10.507
29872W        W93629  26.464  41.982  11.403
29873W        W93630  34.388  18.751  13.016
29874W        W93631  33.620   2.933   2.831
29875W        W93632  10.779  40.901   2.278
29876W        W93633   9.175  26.521  12.957
29877W        W93634  24.591  41.809   1.281
29878W        W93635  34.974  34.403   1.312
29879W        W93636  18.694  22.078   3.837
29880W        W93637  31.953  31.056  10.467
29881W        W93638   7.411   3.228   1.414
29882W        W93639  44.801  28.647  12.534
29883W        W93640  33.112  22.101   4.664
29884W        W93641  13.274   1.287   0.412
29885W        W93642  31.053  10.780   4.739
29886W        W93643  17.729  11.329   4.697
29887W        W93644  18.108  22.017  13.362
29888W        W93645  23.598  27.944   1.735
29889W        W93646  31.943  28.030   2.291
29890W        W93647  30.437  26.086   3.773
29891W        W93648  29.170  33.587  13.458
29892W        W93649   0.391  40.843  13.043
29893W        W93650  36.575  37.572   0.923
29894W        W93651   1.274  37.491  11.398
29895W        W93652  15.602   3.821   0.819
29896W        W93653  20.217  16.605  12.844
29897W        W93654  13.256  15.675   3.365
29898W        W93655  42.305  27.120   1.846
29899W        W93656  38.422   6.740   4.760
29900W        W93657  36.943  36.050  13.454
29901W        W93658   9.366  36.474  10.583
29902W        W93659  30.645   1.448   0.957
29903W        W93660  36.371  18.602  11.054
29904W        W93661  12.845  19.715  10.937
29905W        W93662  42.933  21.135   0.787
29906W        W93663   9.155   1.387  11.899
29907W        W93664   5.332   4.324  14.943
29908W        W93665  27.079  19.670   2.260
29909W        W93666  37.908  16.581  12.546
29910W        W93667  34.612  17.144   2.330
29911W        W93668   0.856  21.665   3.272
29912W        W93669  38.565   5.836   0.270
29913W        W93670  44.828  37.407   4.615
29914W        W93671   3.909  30.496   4.819
29915W        W93672   5.764   4.832   0.819
29916W        W93673   8.692  16.245  11.029
29917W        W93674  21.102  36.514   4.772
29918W        W93675  37.500  29.592  14.922
29919W        W93676  42.784  25.518  14.318
29920W        W93677  11.319  31.034   2.380
29921W        W93678  29.563  40.508   1.372
29922W        W93679   3.940  37.392   3.326
29923W        W93680  24.557   1.311  14.900
29924W        W93681  23.538  29.132  11.857
29925W        W93682  17.702  10.655   1.836
29926W        W93683   2.432  18.132   3.234
29927W        W93684  14.167  21.632  14.436
29928W        W93685  38.568  26.627  12.924
29929W        W93686  30.564  14.612  12.932
29930W        W93687   8.889  18.599  10.934
29931W        W93688  21.255  36.368   5.160
29932W        W93689   7.832  31.017   4.312
29933W        W93690  24.483  32.012   1.717
29934W        W93691  42.979  26.523   3.325
29935W        W93692  25.090  13.842  13.898
29936W        W93693  37.357  23.049  13.316
29937W        W93694  15.616  29.161   3.153
29938W        W93695  14.809  24.655   4.170
29939W        W93696  10.334  14.827   0.833
29940W        W93697  17.726  26.664  13.406
29941W        W93698  38.933   3.736  14.915
29942W        W93699  33.453  31.953   9.933
29943W        W93700  32.474  37.967  11.554
29944W        W93701  25.510  42.878   3.150
29945W        W93702  25.004  29.087  10.563
29946W        W93703  27.958   3.271   2.210
29947W        W93704  27.115  27.454   2.377
29948W        W93705  40.539  34.018   0.392
29949W        W93706  18.708  30.067  10.603
29950W        W93707  25.572   9.283   0.449
29951W        W93708  39.478  44.903  11.105
29952W        W93709   2.352  40.388   2.235
29953W        W93710  25.014  22.126   2.685
29954W        W93711  19.729  10.866  12.887
29955W        W93712   8.718  37.019   1.717
29956W        W93713  37.992  30.141  13.797
29957W        W93714  35.882  17.785  10.622
29958W        W93715   2.287  16.696   1.261
29959W        W93716  35.081   3.915  14.469
29960W        W93717  33.897  42.369  12.081
29961W        W93718  39.501   6.748  11.876
29962W        W93719   7.772  19.654   5.272
29963W        W93720   9.860  44.465   3.310
29964W        W93721  21.044  14.759   2.755
29965W        W93722   7.881  14.300  10.642
29966W        W93723  39.863  13.305   0.884
29967W        W93724  15.700  14.104  12.453
29968W        W93725  26.969  17.081   0.833
29969W        W93726  15.303  43.374  13.977
29970W        W93727  12.837   4.921   2.396
29971W        W93728  39.906  44.944   3.297
29972W        W93729   6.677  11.622   4.807
29973W        W93730  41.902  14.161   2.707
29974W        W93731  29.156  25.607  11.107
29975W        W93732  41.027  40.345   0.294
29976W        W93733  21.653  25.208   2.331
29977W        W93734  23.545  13.128   3.245
29978W        W93735  35.389  19.218   4.310
29979W        W93736  10.205  25.479  14.845
29980W        W93737  30.057   4.923   4.624
29981W        W93738  42.299  29.458   4.335
29982W        W93739  34.579  43.863  12.996
29983W        W93740   7.303  21.726   3.725
29984W        W93741  10.286  25.213  14.338
29985W        W93742  44.898   1.828  13.459
29986W        W93743  41.401  33.396  11.371
29987W        W93744   4.285  23.604   1.338
29988W        W93745  27.090  10.738   1.908
29989W        W93746  12.169  25.141   2.772
29990W        W93747  39.328   7.409  12.516
29991W        W93748  22.691  26.134   1.926
29992W        W93749  28.461  35.853   0.267
29993W        W93750  42.928  20.193   2.326
29994W        W93751  22.101  29.092   0.298
29995W        W93752  22.613  30.474   2.713
29996W        W93753  15.718  16.614   0.761
29997W        W93754  40.964  41.003  13.828
29998W        W93755   1.846  30.608   3.277
29999W        W93756   1.279  42.012   2.180
30000W        W93757  42.285  35.991   4.207
30001W        W93758  24.533   0.292  11.891
30002W        W93759   1.352  28.446  13.793
30003W        W93760  29.573  37.079   0.460
30004W        W93761  44.407  22.214  12.883
30005W        W93762   7.799   3.415  10.592
30006W        W93763  37.369  12.141  11.956
30007W        W93764  16.610  32.535   1.845
30008W        W93765  33.480  34.879   0.944
30009W        W93766  34.553  17.585   2.393
30010W        W93767  29.452  37.927   3.359
30011W        W93768  41.974  17.090  14.994
30012W        W93769  32.993  20.126  13.954
30013W        W93770  42.873  33.908   2.899
30014W        W93771   4.413  18.076  10.992
30015W        W93772  28.013  16.742  11.089
30016W        W93773   9.237  29.129  14.841
30017W        W93774  19.536  42.424   2.288
30018W        W93775  20.147  25.062   4.304
30019W        W93776  30.101   5.265  11.033
30020W        W93777  38.048  30.094  14.770
30021W        W93778  22.225  35.048   0.951
30022W        W93779   9.388  14.286  12.087
30023W        W93780   0.398  27.126  14.357
30024W        W93781  20.218  15.125  11.411
30025W        W93782  20.223  41.895  13.898
30026W        W93783  10.258  23.524  10.644
30027W        W93784  33.545  16.701  11.116
30028W        W93785   6.684  34.077  14.399
30029W        W93786  35.906  35.087  12.546
30030W        W93787  22.680  32.450   0.961
30031W        W93788  22.567  31.145   4.727
30032W        W93789  42.826  24.208  11.114
30033W        W93790  27.541  44.328   1.768
30034W        W93791  26.109  35.857   3.785
30035W        W93792  31.618  43.272   3.283
30036W        W93793  11.777  22.576  10.951
30037W        W93794  11.681   1.746  13.038
30038W        W93795  17.570   5.730   0.890
30039W        W93796  26.178  26.178  14.292
30040W        W93797   6.251  25.084  14.449
30041W        W93798   8.287  24.051   4.702
30042W        W93799  13.155  39.029   0.917
30043W        W93800  27.482  32.057  12.519
30044W        W93801  43.485  17.654  10.984
30045W        W93802  21.602  29.486   1.829
30046W        W93803   5.788  16.212   2.787
30047W        W93804  26.529  38.044   0.743
30048W        W93805  37.445  17.645  11.112
30049W        W93806  42.469  13.301   1.265
30050W        W93807  38.455  31.019  10.534
30051W        W93808   9.643  39.018  14.421
30052W        W93809  16.747  30.107  13.027
30053W        W93810  37.912   8.787   1.362
30054W        W93811  27.579   2.756   3.768
30055W        W93812  40.460  41.951  11.386
30056W        W93813  40.356  14.095   3.223
30057W        W93814  24.500  13.171  14.311
30058W        W93815  44.794  14.778  14.824
30059W        W93816   4.314  41.001   4.242
30060W        W93817  15.287  43.421   2.689
30061W        W93818  29.504  44.799   4.216
30062W        W93819  24.121  33.501   2.868
30063W        W93820   4.404   3.750   3.648
30064W        W93821   6.352  44.838  10.070
30065W        W93822   1.282  43.381   3.693
30066W        W93823  18.178   4.212  10.937
30067W        W93824  42.857  17.137   0.391
30068W        W93825  25.629   9.186   4.682
30069W        W93826  25.096  12.263  13.354
30070W        W93827  37.952  15.221   2.775
30071W        W93828  25.001  21.031  10.159
30072W        W93829   5.869  12.254   3.673
30073W        W93830  14.262  38.997   1.749
30074W        W93831  28.536  13.705   3.202
30075W        W93832  12.202  23.055   2.839
30076W        W93833  28.495  18.203  13.910
30077W        W93834  12.255  23.175   2.230
30078W        W93835  19.757  25.003  13.002
30079W        W93836  31.418  19.732  11.563
30080W        W93837   9.267   0.257   3.357
30081W        W93838   8.882   3.286   2.888
30082W        W93839   5.790  15.244  10.894
30083W        W93840  44.301  42.426  12.838
30084W        W93841   5.331  27.180   4.723
30085W        W93842   7.816  34.060  12.522
30086W        W93843  22.593  17.109  12.038
30087W        W93844  12.178  11.150  12.915
30088W        W93845   5.266  12.225  10.626
30089W        W93846  16.109   8.296   2.840
30090W        W93847  41.505  43.978   3.171
30091W        W93848  11.239   6.260  10.897
30092W        W93849  33.999  37.498  10.636
30093W        W93850  15.157  25.553   4.730
30094W        W93851   4.796  21.133   1.368
30095W        W93852  20.673  41.793   2.841
30096W        W93853  28.073  34.615  13.861
30097W        W93854  40.870   3.338   4.210
30098W        W93855  41.482  37.977  12.091
30099W        W93856  28.951  18.615   3.797
30100W        W93857  26.561   4.416   4.649
30101W        W93858   2.405   1.856   3.650
30102W        W93859  35.046  15.743  11.884
30103W        W93860   0.389  27.474  13.329
30104W        W93861  28.136  38.018  12.886
30105W        W93862   3.948  19.146   1.278
30106W        W93863  18.770  40.450   4.298
30107W        W93864  31.928   7.685   5.146
30108W        W93865  17.733   8.721  12.970
30109W        W93866   1.343  40.377   2.350
30110W        W93867  35.915  31.426  10.991
30111W        W93868  41.319   6.704   2.774
30112W        W93869  43.884  34.065   1.325
30113W        W93870  42.297  28.971   1.427
30114W        W93871  32.403   7.222  11.442
30115W        W93872  14.189  36.349  14.350
30116W        W93873  35.574  30.934   3.775
30117W        W93874  39.830  40.022   1.808
30118W        W93875  14.171  15.214  11.994
30119W        W93876  17.062   8.817  12.921
30120W        W93877  38.991  11.179   0.413
30121W        W93878  39.990  25.534  12.510
30122W        W93879  40.511  36.876   2.751
30123W        W93880  31.092   5.880   9.514
30124W        W93881  35.938  34.942   0.929
30125W        W93882   4.807   7.307   2.379
30126W        W93883  40.913  33.010   3.764
30127W        W93884  29.015   5.288  13.417
30128W        W93885  10.256  37.476   1.288
30129W        W93886  29.611  42.341   3.703
30130W        W93887  34.605  10.705   3.692
30131W        W93888  10.867  11.719  11.904
30132W        W93889  30.551  41.015   2.858
30133W        W93890  37.457   1.404   4.795
30134W        W93891  30.522  28.657   2.299
30135W        W93892  29.472  39.512   4.197
30136W        W93893  27.549  31.402  13.953
30137W        W93894  18.702  14.612  12.033
30138W        W93895   5.330   3.438   4.203
30139W        W93896  15.093  11.146   4.226
30140W        W93897  43.918  25.538   2.206
30141W        W93898   8.865   9.695   4.233
30142W        W93899  44.971  35.535   0.383
30143W        W93900  35.585   1.973   2.254
30144W        W93901  26.058  16.668  12.359
30145W        W93902   9.259  27.485  12.451
30146W        W93903  15.286   0.441   3.856
30147W        W93904  41.930  33.536   2.250
30148W        W93905  41.953  19.141  10.569
30149W        W93906   0.310  19.758  11.868
30150W        W93907   2.281  10.212  10.049
30151W        W93908  40.897  43.908  13.977
30152W        W93909   8.852   5.352  11.894
30153W        W93910  30.484   4.730   9.588
30154W        W93911  30.471  17.703   3.636
30155W        W93912  24.569  19.568   4.263
30156W        W93913  17.570   1.899   4.680
30157W        W93914  30.634   1.245  11.002
30158W        W93915  40.956  23.694  12.567
30159W        W93916  13.760  28.541  11.879
30160W        W93917  14.200  31.945  14.407
30161W        W93918   6.733  30.522  14.975
30162W        W93919   4.868   2.792   3.287
30163W        W93920  12.148  38.379   0.855
30164W        W93921  42.020  29.573   3.309
30165W        W93922  17.620   1.357  13.910
30166W        W93923  26.040  27.160  12.944
30167W        W93924  39.541  15.751  13.505
30168W        W93925  12.843  22.106   1.902
30169W        W93926  34.437  19.264  14.901
30170W        W93927  33.398  15.101  12.394
30171W        W93928  27.062  36.398   4.822
30172W        W93929  19.699  18.550   1.860
30173W        W93930  42.287  14.600   1.269
30174W        W93931  24.004  11.791  14.890
30175W        W93932  39.343  18.778   3.368
30176W        W93933  34.511  22.616  10.929
30177W        W93934  31.432  37.844   3.673
30178W        W93935   2.368   6.284  13.833
30179W        W93936  31.912   9.254   4.165
30180W        W93937  21.087  37.914  13.413
30181W        W93938  13.623  10.644  11.047
30182W        W93939  32.476  16.318   3.359
30183W        W93940  15.611  12.775   5.195
30184W        W93941  39.995  21.651   4.272
30185W        W93942   9.255   2.238   2.756
30186W        W93943  17.689   8.754   0.264
30187W        W93944  17.588  23.184   4.353
30188W        W93945   7.911  21.131   4.180
30189W        W93946  13.679  34.588  10.540
30190W        W93947  35.580   2.764  13.989
30191W        W93948  35.531  44.872   1.876
30192W        W93949   0.390  13.177   2.688
30193W        W93950   1.380  31.101  11.053
30194W        W93951   8.386  26.548   3.265
30195W        W93952  18.620  42.426  10.600
30196W        W93953  43.366  35.934   0.772
30197W        W93954   0.254   9.301   0.958
30198W        W93955  26.984   4.911  14.825
30199W        W93956   0.327  18.635   2.898
30200W        W93957   3.816  33.500  11.431
30201W        W93958  39.857   8.256  10.413
30202W        W93959  42.490  24.990   1.812
30203W        W93960  11.336   1.380  10.613
30204W        W93961  21.702  43.863  12.387
30205W        W93962  25.590  31.625  14.453
30206W        W93963  19.200   1.344  13.525
30207W        W93964  33.888   1.255  14.398
30208W        W93965  33.935   0.361   0.816
30209W        W93966   0.362  22.650  13.318
30210W        W93967  16.315  27.662  11.403
30211W        W93968  15.239  26.647   4.703
30212W        W93969   9.216   8.259  10.446
30213W        W93970  25.983  40.028   1.791
30214W        W93971  11.190  23.016   1.890
30215W        W93972  24.715  20.573   1.890
30216W        W93973  27.072  35.085   2.854
30217W        W93974  17.094  13.685  13.498
30218W        W93975   4.917  28.072   3.823
30219W        W93976  28.623  41.436   4.289
30220W        W93977  43.861   9.878   0.384
30221W        W93978   8.707  33.436   1.787
30222W        W93979  37.445   7.678   1.915
30223W        W93980   2.789  42.472   0.857
30224W        W93981  42.324  12.278   4.679
30225W        W93982  10.661  20.678   3.383
30226W        W93983  38.053  32.424   1.892
30227W        W93984   2.272   1.456  10.938
30228W        W93985  11.212  35.469   3.197
30229W        W93986   8.717   9.394   3.868
30230W        W93987  33.621  18.093  12.472
30231W        W93988  39.047  38.022  11.073
30232W        W93989  18.594  43.878   2.895
30233W        W93990  35.521   9.886  14.790
30234W        W93991  34.017   6.426   2.243
30235W        W93992  33.423  35.943  11.494
30236W        W93993   6.874  31.927   1.710
30237W        W93994  15.307  16.617  11.476
30238W        W93995  35.068  34.406  10.574
30239W        W93996  37.057  18.719  11.951
30240W        W93997   5.193  28.038   0.840
30241W        W93998  24.191  28.151   5.104
30242W        W93999  31.947  37.835   0.912
30243W        W94000  22.055  32.621  11.382
30244W        W94001  39.505  33.561   1.231
30245W        W94002   5.317  18.103   4.680
30246W        W94003  22.650  23.996   4.615
30247W        W94004   6.185  44.502  11.603
30248W        W94005  20.630  32.526   1.386
30249W        W94006  36.086   7.328   2.416
30250W        W94007  13.162  14.281   0.946
30251W        W94008  25.536  43.317  13.012
30252W        W94009  30.540  10.160   2.861
30253W        W94010  28.001   4.723   1.709
30254W        W94011  13.273  28.976  11.092
30255W        W94012   7.819  40.363   3.299
30256W        W94013  39.395  26.098   3.267
30257W        W94014  24.492  17.782  11.582
30258W        W94015  29.646  34.968  11.938
30259W        W94016   9.239  23.237   0.787
30260W        W94017  36.381  43.801   4.223
30261W        W94018  23.199  41.837  13.890
30262W        W94019  43.002   6.828   1.905
30263W        W94020  31.647   2.283   5.604
30264W        W94021  24.173  38.995   4.147
30265W        W94022   6.282  42.994  11.939
30266W        W94023  32.405  23.605  14.493
30267W        W94024  38.949   8.854  12.410
30268W        W94025  19.562  31.056  11.996
30269W        W94026  35.040  30.083  12.572
30270W        W94027   4.395  22.683  11.943
30271W        W94028  25.504  42.503   1.737
30272W        W94029  13.208  20.147   2.749
30273W        W94030  30.947  20.255   2.378
30274W        W94031  38.946  42.788  13.353
30275W        W94032  22.201  10.687   1.874
30276W        W94033  26.480  40.905  12.443
30277W        W94034  26.502  22.099  11.933
30278W        W94035   7.406  39.831  12.935
30279W        W94036  32.553  23.006  11.058
30280W        W94037  16.248  25.120   4.280
30281W        W94038  30.931  20.565  14.988
30282W        W94039  28.047  44.272   0.338
30283W        W94040  20.235  34.408   4.296
30284W        W94041  28.006   6.870   4.789
30285W        W94042  22.148  36.009   2.300
30286W        W94043  18.777  36.585   2.736
30287W        W94044  18.784   9.841  10.418
30288W        W94045  17.664  31.434   4.819
30289W        W94046  36.407  24.165  11.889
30290W        W94047  38.026  12.359  13.357
30291W        W94048  34.982  13.326   2.331
30292W        W94049   4.830  42.409  13.976
30293W        W94050  22.207   8.225   1.895
30294W        W94051  16.679   3.735   1.790
30295W        W94052   5.740   3.412   4.756
30296W        W94053  43.423  20.748   3.726
30297W        W94054  43.474  17.681  14.760
30298W        W94055   5.437  12.154  14.780
30299W        W94056  40.026   1.824   2.398
30300W        W94057   6.212  25.129   0.893
30301W        W94058  17.681  12.795  10.132
30302W        W94059  11.626  10.192   1.284
30303W        W94060  29.054   8.803  13.318
30304W        W94061  12.684  14.747   3.220
30305W        W94062  25.115   2.767   2.235
30306W        W94063  36.913  20.048   4.160
30307W        W94064  42.438  22.629  14.883
30308W        W94065  42.902  42.891   0.478
30309W        W94066  10.788   8.395   1.776
30310W        W94067  26.978  42.007  10.633
30311W        W94068  38.944   7.326   1.318
30312W        W94069  11.294  34.065  14.356
30313W        W94070  18.202  37.929   4.607
30314W        W94071  20.761   8.387   4.253
30315W        W94072  26.632   7.357   1.902
30316W        W94073  42.877  23.558  12.024
30317W        W94074  20.761   8.182  11.909
30318W        W94075  34.439  30.426   0.474
30319W        W94076  42.514  18.155   3.839
30320W        W94077  31.433  40.909   2.396
30321W        W94078  34.054  35.863  14.280
30322W        W94079  29.057  42.847  12.551
30323W        W94080  20.613  13.712  13.831
30324W        W94081  16.229  36.514  11.890
30325W        W94082  11.342  31.025   3.630
30326W        W94083  44.791   9.217   1.796
30327W        W94084  27.623  23.160  12.836
30328W        W94085  30.541   2.730   0.335
30329W        W94086  15.264  38.056   0.389
30330W        W94087  17.684  27.017  14.013
30331W        W94088   4.794   4.321   0.467
30332W        W94089  15.774  23.208  13.807
30333W        W94090   4.364  19.565  11.951
30334W        W94091  36.527  25.660   3.266
30335W        W94092  35.915  13.272  13.500
30336W        W94093  15.621  29.484   3.641
30337W        W94094  16.745   6.706   4.337
30338W        W94095  20.687   8.829   4.610
30339W        W94096  25.051  27.163  14.028
30340W        W94097  32.954  12.233   1.789
30341W        W94098  40.914  30.090   0.372
30342W        W94099  13.833  13.643  11.957
30343W        W94100   1.751  42.947  10.494
30344W        W94101  27.107  20.731   5.725
30345W        W94102   4.848  43.866   2.699
30346W        W94103  14.731  17.694   1.895
30347W        W94104  25.113  27.190   4.829
30348W        W94105  13.288  40.965   3.160
30349W        W94106  19.578  29.981   2.833
30350W        W94107  36.427  44.362  12.890
30351W        W94108  26.623   6.818  11.877
30352W        W94109  10.860   3.453   0.360
30353W        W94110  23.068  32.521  14.278
30354W        W94111  39.891  12.782   2.897
30355W        W94112  34.523  40.525  10.537
30356W        W94113  32.928  25.607   1.738
30357W        W94114  25.611  15.748  13.341
30358W        W94115  22.709  24.664  12.519
30359W        W94116  27.082  15.140   3.633
30360W        W94117  20.595  13.224  11.433
30361W        W94118  12.329  44.278  11.545
30362W        W94119  31.131  44.374   2.837
30363W        W94120  35.381  21.686  14.292
30364W        W94121   5.786  32.973  13.399
30365W        W94122   9.864  29.993  14.936
30366W        W94123  43.777   5.846   3.797
30367W        W94124  15.729  29.607  13.498
30368W        W94125   0.258  36.471  12.526
30369W        W94126  28.647  23.534   4.290
30370W        W94127  24.517  41.955   4.639
30371W        W94128   4.304  34.900   1.707
30372W        W94129  17.744  12.839  12.093
30373W        W94130  15.215  16.609  10.525
30374W        W94131  41.940   8.725   9.967
30375W        W94132  37.047  19.603  14.941
30376W        W94133  12.803   2.853  13.394
30377W        W94134  19.554  14.137  12.383
30378W        W94135   9.884   1.364  14.278
30379W        W94136  35.963   6.223   1.441
30380W        W94137  36.051  21.168  12.905
30381W        W94138  41.529  11.193   4.763
30382W        W94139  33.920  31.084  14.374
30383W        W94140   9.374   8.743  13.888
30384W        W94141  31.067   9.723   2.301
30385W        W94142  39.328  34.459   2.709
30386W        W94143  44.482  27.119   4.164
30387W        W94144  26.634  40.515  11.527
30388W        W94145  36.504   5.699  13.829
30389W        W94146  16.801  14.639  12.066
30390W        W94147  33.880  17.750   4.140
30391W        W94148   1.948  42.965   3.758
30392W        W94149   4.351  20.110   2.300
30393W        W94150  11.734  17.658  13.955
30394W        W94151  34.883  37.836   3.271
30395W        W94152   0.398   1.855   3.271
30396W        W94153  29.440  25.000   1.793
30397W        W94154  27.015  22.638  10.966
30398W        W94155  32.580   6.286   1.794
30399W        W94156   1.407  13.136  11.120
30400W        W94157  35.479  20.713   4.145
30401W        W94158  25.480   6.186   0.797
30402W        W94159   5.758   2.360  11.042
30403W        W94160  16.663   2.379  10.480
30404W        W94161  26.095  15.796   2.776
30405W        W94162  40.806  37.025   0.826
30406W        W94163  24.552   9.855  14.330
30407W        W94164   7.697  31.446   3.201
30408W        W94165  19.579  29.006  14.448
30409W        W94166  38.958  28.487  11.081
30410W        W94167   3.909  38.355  10.985
30411W        W94168  25.631   5.894  14.447
30412W        W94169  44.489  34.100  11.523
30413W        W94170  11.134  24.527  13.448
30414W        W94171  30.084  29.567   2.662
30415W        W94172  28.446  23.028  13.316
30416W        W94173  42.324   0.937   2.680
30417W        W94174  26.125  23.082  14.901
30418W        W94175   9.739  33.077  10.598
30419W        W94176  30.448   0.411   4.261
30420W        W94177   8.763  36.880  10.469
30421W        W94178  42.489  12.710   3.708
30422W        W94179  34.966  23.094   0.447
30423W        W94180   9.840  16.151  14.349
30424W        W94181  22.579  27.988  12.370
30425W        W94182  27.104   1.338   4.821
30426W        W94183   0.421  32.524   4.797
30427W        W94184  31.027   7.378   4.787
30428W        W94185  37.893   0.853  11.563
30429W        W94186   9.698  25.519   4.168
30430W        W94187  28.465   9.334  11.546
30431W        W94188   3.363  26.189  12.834
30432W        W94189  23.088  37.554   2.903
30433W        W94190  10.649   7.191  11.511
30434W        W94191  37.987  27.970   2.283
30435W        W94192  29.594   1.430  12.577
30436W        W94193  21.231  41.984  14.462
30437W        W94194   5.234  28.572   0.744
30438W        W94195  24.119   7.378   3.734
30439W        W94196   8.727  33.955   1.924
30440W        W94197  21.750   4.794   9.942
30441W        W94198  31.144  21.121   4.615
30442W        W94199  30.117  27.532  10.624
30443W        W94200  24.617  36.903  11.937
30444W        W94201  29.489  40.977  13.977
30445W        W94202  20.047  17.086   4.670
30446W        W94203  18.197  13.695   1.390
30447W        W94204   8.232  39.484  11.118
30448W        W94205   5.283  40.545   1.260
30449W        W94206  22.063   3.840   1.813
30450W        W94207  38.491   7.774   2.699
30451W        W94208  40.861  43.869   0.333
30452W        W94209  20.176   4.846  13.798
30453W        W94210  27.051  29.124   3.720
30454W        W94211  21.193   7.369   1.271
30455W        W94212  33.544  31.014  14.934
30456W        W94213  34.614  41.885   0.255
30457W        W94214  26.626  19.674   2.735
30458W        W94215  44.851  10.233  10.521
30459W        W94216  28.026  37.012   0.814
30460W        W94217  38.034  35.996   0.294
30461W        W94218  40.348  10.735  11.057
30462W        W94219  25.688  11.744  10.438
30463W        W94220  38.006  43.373   2.751
30464W        W94221  10.687   3.857   1.856
30465W        W94222  42.975   7.237   4.602
30466W        W94223  33.920   4.334   9.455
30467W        W94224  21.261  44.859   1.301
30468W        W94225  30.124  19.761   2.298
30469W        W94226  23.989   5.835   3.766
30470W        W94227  33.578  34.875   4.230
30471W        W94228  11.144   1.869  11.539
30472W        W94229   3.855  23.640  14.461
30473W        W94230   6.425  27.636   1.368
30474W        W94231  11.683  15.192   2.297
30475W        W94232  36.517   4.753  12.849
30476W        W94233  28.501  10.737  13.977
30477W        W94234   6.414  23.528   1.710
30478W        W94235  10.816  18.739   1.836
30479W        W94236  24.570  33.411  11.968
30480W        W94237  26.106  38.442   3.378
30481W        W94238   5.339   7.350  13.021
30482W        W94239  43.869   4.925  14.841
30483W        W94240  17.147  12.264  12.414
30484W        W94241  24.188  18.194  13.952
30485W        W94242  28.995  19.589  11.039
30486W        W94243  38.837  26.171  10.095
30487W        W94244  35.563   5.873  12.932
30488W        W94245   8.656  28.950  13.905
30489W        W94246   5.771   5.708   0.743
30490W        W94247  25.626  25.195  13.909
30491W        W94248  38.538  33.942  14.763
30492W        W94249  25.973  25.023  14.935
30493W        W94250   8.810  13.695  14.777
30494W        W94251  40.998  26.101  12.852
30495W        W94252  12.759   7.198   2.195
30496W        W94253  28.080   0.428  12.093
30497W        W94254   4.388  27.072  14.512
30498W        W94255   2.769  24.138  11.446
30499W        W94256  14.639  11.751   3.350
30500W        W94257  17.097  22.504   3.778
30501W        W94258  14.113  39.812   2.370
30502W        W94259   0.346  12.837  14.948
30503W        W94260  34.071  20.533   1.789
30504W        W94261  18.646  13.624   3.353
30505W        W94262  28.140  39.406   1.781
30506W        W94263  37.987   4.787  13.429
30507W        W94264  17.650  42.485   0.375
30508W        W94265  25.651  14.724   2.808
30509W        W94266  37.420  21.650  10.464
30510W        W94267  24.672  35.563   3.335
30511W        W94268  20.208  42.524   4.187
30512W        W94269  25.671  39.865  13.899
30513W        W94270  40.346  39.058  10.582
30514W        W94271  32.424   6.299  12.985
30515W        W94272  14.649  17.555   4.134
30516W        W94273  39.984  34.012   1.740
30517W        W94274  24.708   1.310  12.471
30518W        W94275   6.260  29.064   1.264
30519W        W94276  23.601  28.619   3.740
30520W        W94277  10.246  42.954   4.327
30521W        W94278  33.122  13.263   1.223
30522W        W94279  29.158  13.799  13.401
30523W        W94280  19.168   7.715  13.938
30524W        W94281  17.574  38.919  14.993
30525W        W94282   5.791  10.307  13.448
30526W        W94283  14.660  28.457  11.969
30527W        W94284   3.922  34.017  12.364
30528W        W94285   6.205  27.496  12.973
30529W        W94286  41.811  19.270  11.056
30530W        W94287   8.660  30.655  14.511
30531W        W94288   3.379  27.158  13.354
30532W        W94289  15.141   2.418   0.871
30533W        W94290  32.954  37.399   0.427
30534W        W94291  19.214   8.691  13.473
30535W        W94292  13.192  39.869   2.238
30536W        W94293   9.158  19.622  11.597
30537W        W94294  23.984  26.674   5.138
30538W        W94295  12.116  35.979  12.062
30539W        W94296  34.999   1.891   2.358
30540W        W94297   4.428  20.099   4.302
30541W        W94298  25.549  18.740   1.906
30542W        W94299  25.599  15.188  13.337
30543W        W94300  34.100  20.730  11.861
30544W        W94301   6.680  33.468  11.062
30545W        W94302  27.534   9.809  14.945
30546W        W94303  29.161  31.416   0.906
30547W        W94304   8.384  13.345   4.772
30548W        W94305  40.451  23.209   3.684
30549W        W94306  44.466   0.266   3.650
30550W        W94307  40.812  34.441  13.012
30551W        W94308  12.644  18.101  13.397
30552W        W94309  12.327  38.901   0.792
30553W        W94310  21.584   6.385   0.935
30554W        W94311  26.203  21.721  13.858
30555W        W94312  27.155  15.263  11.538
30556W        W94313   3.741  39.047   4.197
30557W        W94314   4.787  31.020   4.329
30558W        W94315  43.486   9.252  11.406
30559W        W94316   8.760  25.998   0.314
30560W        W94317  25.174  30.637   0.307
30561W        W94318  23.204   3.818   1.417
30562W        W94319   0.837   5.911   3.771
30563W        W94320  34.892  27.596  14.515
30564W        W94321  33.508  38.916   1.770
30565W        W94322  15.591  19.664  12.931
30566W        W94323  42.516  30.091   2.801
30567W        W94324  30.492  26.954   5.305
30568W        W94325  38.530   8.274  13.975
30569W        W94326  28.509   8.664   1.827
30570W        W94327   4.253  22.082   1.694
30571W        W94328  39.535  24.123   1.806
30572W        W94329  36.552  33.460   4.151
30573W        W94330  26.600  12.631   0.754
30574W        W94331  44.005  36.928   0.902
30575W        W94332   9.262  30.025  10.415
30576W        W94333   8.236  26.528   2.270
30577W        W94334  39.810  35.412   4.310
30578W        W94335  38.873   9.684   3.650
30579W        W94336  28.960  43.963   1.362
30580W        W94337   1.335   6.875  14.413
30581W        W94338  26.968   3.259  14.915
30582W        W94339  19.063  11.643   1.834
30583W        W94340  18.719  21.721  12.518
30584W        W94341  41.832  41.009  11.863
30585W        W94342  41.456  18.677  10.421
30586W        W94343  27.046  18.593   3.339
30587W        W94344  13.834  34.983  14.414
30588W        W94345  26.971  44.473  13.893
30589W        W94346  15.645  17.743  10.915
30590W        W94347  39.817  10.680   4.725
30591W        W94348  37.052  27.555   2.261
30592W        W94349  28.145  44.363   4.756
30593W        W94350  14.816  31.535   4.656
30594W        W94351  32.936  33.569  14.334
30595W        W94352  37.926  34.459  14.329
30596W        W94353   7.392  15.778   3.221
30597W        W94354  15.802  14.729  14.418
30598W        W94355  17.649  23.175  14.370
30599W        W94356  17.744  40.044  10.507
30600W        W94357  17.227  31.443  13.912
30601W        W94358  33.391   6.200  11.414
30602W        W94359  17.104  43.320  13.542
30603W        W94360  28.495   8.658  13.975
30604W        W94361   5.321  42.393   3.175
30605W        W94362  37.999  43.344  10.622
30606W        W94363  23.126  39.826   0.454
30607W        W94364   8.263  19.183  12.824
30608W        W94365  16.762  31.995  12.075
30609W        W94366  44.786  24.613  13.052
30610W        W94367   9.725  11.846  10.637
30611W        W94368  42.319  15.219  12.036
30612W        W94369  14.739  21.516   0.281
30613W        W94370  11.729  12.684  14.380
30614W        W94371  36.383  19.051   1.763
30615W        W94372  29.538   3.332  10.046
30616W        W94373  31.459  27.615   5.628
30617W        W94374  11.634  37.086  14.462
30618W        W94375  31.494  31.555  12.969
30619W        W94376  39.491   7.328   1.422
30620W        W94377   1.738  13.611  10.443
30621W        W94378  15.601  12.769  10.053
30622W        W94379   2.430  32.547   1.757
30623W        W94380  30.438  11.132   0.252
30624W        W94381  17.738  35.017   0.912
30625W        W94382  40.311   4.258   3.667
30626W        W94383  43.842  29.087   0.403
30627W        W94384   7.295   6.358   2.682
30628W        W94385  39.418  22.670  13.402
30629W        W94386  31.071   5.423   2.731
30630W        W94387  12.712  42.409   0.342
30631W        W94388  38.998  31.946   2.893
30632W        W94389  14.181  41.822  13.391
30633W        W94390  17.076  24.554   4.603
30634W        W94391  42.953  16.572   4.267
30635W        W94392  36.398  26.118  11.506
30636W        W94393  39.484   6.781  14.500
30637W        W94394  27.667   6.389   1.793
30638W        W94395   2.831   8.801   2.181
30639W        W94396  42.795  26.155   3.240
30640W        W94397  36.351  19.654   4.677
30641W        W94398  24.495  13.293  13.813
30642W        W94399  19.737  21.160   1.812
30643W        W94400  17.061  20.156  11.590
30644W        W94401  34.069  27.612   3.297
30645W        W94402   7.873  10.174   1.717
30646W        W94403  27.050   3.259   0.833
30647W        W94404   4.280  44.260   2.309
30648W        W94405   1.350  22.685  10.460
30649W        W94406  27.640   3.239  14.853
30650W        W94407  33.084  26.519  12.052
30651W        W94408  21.130  36.930   5.132
30652W        W94409  19.079  34.026  10.017
30653W        W94410  10.739  28.134  13.338
30654W        W94411   7.354  17.083   1.226
30655W        W94412   6.300  44.005   9.983
30656W        W94413  24.528   3.351  10.078
30657W        W94414  19.635  12.250  13.449
30658W        W94415  44.455   1.885   1.270
30659W        W94416  33.383  25.542   4.193
30660W        W94417   7.265  11.219   0.393
30661W        W94418  36.443  20.172   3.859
30662W        W94419  43.817  32.980   4.211
30663W        W94420   2.310   0.798   9.924
30664W        W94421  35.945  17.283  11.387
30665W        W94422  38.448  21.042  11.606
30666W        W94423  22.227  21.743   4.301
30667W        W94424  23.015  26.029   3.306
30668W        W94425  10.180  29.541  13.354
30669W        W94426  16.613  19.257   1.239
30670W        W94427  22.736  44.771  11.061
30671W        W94428  15.265  17.239   0.817
30672W        W94429  38.923  12.832   0.416
30673W        W94430  34.495   4.211  14.759
30674W        W94431  18.291   6.360   2.812
30675W        W94432  10.321  42.953   0.869
30676W        W94433   5.846  25.008   3.671
30677W        W94434   2.772  17.230   4.297
30678W        W94435  26.015  29.165   3.244
30679W        W94436  40.470  39.534  13.968
30680W        W94437  10.853   7.805   2.394
30681W        W94438  36.359  35.017   4.243
30682W        W94439  36.426  43.796   0.282
30683W        W94440  32.066  35.520   0.460
30684W        W94441  32.948  44.977   2.765
30685W        W94442  41.932  18.554   4.664
30686W        W94443  44.945   2.750  14.327
30687W        W94444  10.380  22.142  14.026
30688W        W94445   3.888  15.679   3.687
30689W        W94446  23.590   2.787  11.432
30690W        W94447   7.699  17.706   0.329
30691W        W94448   1.945  11.792   0.466
30692W        W94449   9.215  16.761   0.262
30693W        W94450  11.783  23.996   1.925
30694W        W94451   9.711  16.759  11.388
30695W        W94452  43.933   6.683   2.869
30696W        W94453  21.606  42.485  13.949
30697W        W94454  38.535  23.079  13.846
30698W        W94455   6.299  10.336   3.203
30699W        W94456  32.981  14.745  13.830
30700W        W94457  23.522  10.363  10.944
30701W        W94458  12.263  41.848  13.314
30702W        W94459  18.103  30.432   4.599
30703W        W94460  20.087  24.169  12.869
30704W        W94461  32.910   4.865   4.265
30705W        W94462  10.874  17.232   2.211
30706W        W94463  20.033  25.175  13.336
30707W        W94464  39.063   0.888  14.908
30708W        W94465  34.443   7.386   3.788
30709W        W94466  32.053  43.818  11.104
30710W        W94467  24.223  28.140   0.381
30711W        W94468   6.788  14.739   1.746
30712W        W94469  40.346  42.806  11.081
30713W        W94470  41.951   8.261  11.395
30714W        W94471  12.121   3.900  11.994
30715W        W94472  14.626  18.197   4.193
30716W        W94473  24.189  24.721  13.040
30717W        W94474  21.176  41.471   1.859
30718W        W94475  37.978  28.940   1.332
30719W        W94476  35.491  24.569  11.452
30720W        W94477  30.460  34.934   1.730
30721W        W94478   8.167  22.715   0.930
30722W        W94479  17.116  36.868  11.421
30723W        W94480  17.258   4.401  11.585
30724W        W94481  26.575  27.460   0.272
30725W        W94482   7.772  40.489  10.942
30726W        W94483  43.328  33.042  12.518
30727W        W94484  30.006  14.674   9.524
30728W        W94485   2.254   2.373  14.302
30729W        W94486  14.672   7.348  10.590
30730W        W94487  17.612  23.717  10.580
30731W        W94488  14.310  27.018   2.278
30732W        W94489  35.595   1.856   0.851
30733W        W94490  21.747   7.261   4.245
30734W        W94491  12.691   5.690   3.768
30735W        W94492  42.490  18.084   1.225
30736W        W94493  26.479  37.023  11.489
30737W        W94494   8.746  24.631  13.047
30738W        W94495   3.887  20.179   0.398
30739W        W94496  44.908  26.482  11.591
30740W        W94497  30.972   0.820   0.734
30741W        W94498  22.247  26.097  12.437
30742W        W94499  15.085  29.174   2.693
30743W        W94500  25.998  36.408  10.894
30744W        W94501  22.569  24.989   0.421
30745W        W94502  20.585  39.991  10.928
30746W        W94503   3.731  41.850   4.164
30747W        W94504  38.385  27.549   4.203
30748W        W94505  27.960  22.602  10.422
30749W        W94506  25.175  32.428  11.077
30750W        W94507  11.194  22.519   0.896
30751W        W94508   1.377   6.722   3.782
30752W        W94509   3.787  22.062   1.384
30753W        W94510  33.488   4.230  11.042
30754W        W94511   8.306   7.679   4.193
30755W        W94512  37.441   3.390  13.432
30756W        W94513  37.909  21.086   2.702
30757W        W94514  36.512  32.130  13.855
30758W        W94515  39.869   5.773  12.027
30759W        W94516  34.005  13.249   4.188
30760W        W94517  18.763  42.345   4.816
30761W        W94518  32.892   7.338   2.350
30762W        W94519   4.899  28.645  13.009
30763W        W94520   4.338  33.960  13.799
30764W        W94521   3.376  35.860  14.803
30765W        W94522  28.135   5.934  14.784
30766W        W94523  20.704   7.770   4.153
30767W        W94524  35.492  18.080   3.191
30768W        W94525  30.944  38.483  14.476
30769W        W94526  27.135  30.082   4.716
30770W        W94527  29.064  34.443   4.116
30771W        W94528  32.955  25.159  11.538
30772W        W94529   3.449  32.489  14.953
30773W        W94530  33.954   1.902  12.069
30774W        W94531  15.259  44.427  11.910
30775W        W94532  29.167  31.621   2.775
30776W        W94533  36.492  38.952   0.907
30777W        W94534  28.072   1.868  14.431
30778W        W94535  20.582  12.271  10.514
30779W        W94536  15.641  43.426   4.169
30780W        W94537   7.243   6.217  14.471
30781W        W94538  35.958  29.155  11.931
30782W        W94539  21.137   7.351   3.766
30783W        W94540  28.109   7.370  12.544
30784W        W94541   6.830   1.275  11.521
30785W        W94542  18.622  25.998  11.067
30786W        W94543  11.649  15.597  14.986
30787W        W94544  23.216  19.068  13.864
30788W        W94545  12.725  26.573  10.995
30789W        W94546  15.598  33.474   3.788
30790W        W94547  18.560  29.982   2.746
30791W        W94548  31.498   2.383  12.957
30792W        W94549  38.946  41.856   2.787
30793W        W94550  33.442  19.109   4.720
30794W        W94551   7.674   0.422   2.835
30795W        W94552  22.021  24.074  14.393
30796W        W94553   0.954  39.374   0.255
30797W        W94554  22.675  24.133  10.592
30798W        W94555  15.285  15.750   1.883
30799W        W94556  37.969  41.535   2.720
30800W        W94557   4.449   7.352   4.176
30801W        W94558  28.485  17.621  13.962
30802W        W94559   2.814   5.805   3.855
30803W        W94560  12.169  35.880   0.399
30804W        W94561  35.501  27.670  12.454
30805W        W94562  25.155  40.041   1.263
30806W        W94563  41.504  25.051   2.232
30807W        W94564  28.534  12.837  12.067
30808W        W94565   1.468  17.164   4.163
30809W        W94566  10.353  39.873   0.820
30810W        W94567  25.580  14.125   4.708
30811W        W94568  41.505  40.840  13.310
30812W        W94569   4.787  10.243   2.736
30813W        W94570  29.161  29.143   2.191
30814W        W94571  27.994  37.471  13.486
30815W        W94572  28.103  33.437   2.664
30816W        W94573  33.499  37.011  13.975
30817W        W94574  18.600  29.428  13.929
30818W        W94575  16.661   1.737  10.545
30819W        W94576  43.996  24.982  14.328
30820W        W94577  21.027  17.262  14.360
30821W        W94578  34.112  28.674   2.241
30822W        W94579   5.878  29.061   4.238
30823W        W94580   6.703  36.877   4.686
30824W        W94581  19.651  38.854   0.440
30825W        W94582  11.760  34.503  10.956
30826W        W94583  14.326   8.783  14.001
30827W        W94584  32.909  19.571  10.490
30828W        W94585  41.821  21.576  11.460
30829W        W94586   5.365   7.256  13.873
30830W        W94587  19.076  31.937  14.411
30831W        W94588  16.073   9.774   1.716
30832W        W94589  15.216  28.046  12.838
30833W        W94590  34.049   4.432  11.432
30834W        W94591  13.119  17.673   3.177
30835W        W94592  42.490  43.004   0.466
30836W        W94593  17.625  19.053  13.029
30837W        W94594   4.846  22.011   0.423
30838W        W94595  34.027   3.817  12.057
30839W        W94596  35.082   1.867  12.979
30840W        W94597   1.763  37.496   1.799
30841W        W94598  22.717   5.832   0.730
30842W        W94599  41.816  23.108  13.899
30843W        W94600  27.538  13.768  11.034
30844W        W94601  24.084  39.929  13.353
30845W        W94602  34.975  42.525  14.816
30846W        W94603   5.296   8.693  13.433
30847W        W94604  18.059  35.477  10.910
30848W        W94605   2.965  20.755  10.449
30849W        W94606  33.014  12.787   1.396
30850W        W94607  16.665  16.788   3.735
30851W        W94608  17.688  31.117  14.378
30852W        W94609  14.685   9.252  14.031
30853W        W94610  21.739  11.758   0.456
30854W        W94611  23.502  43.014  12.966
30855W        W94612  13.761   9.285   4.741
30856W        W94613   9.333  25.055   4.826
30857W        W94614  23.216  44.769   3.648
30858W        W94615  43.986  38.416   4.137
30859W        W94616  25.070  40.391   3.653
30860W        W94617  13.827  26.571  11.998
30861W        W94618  36.427  43.896   3.201
30862W        W94619   9.347  20.028   4.828
30863W        W94620  22.731  19.669  11.411
30864W        W94621  10.753  24.191   4.326
30865W        W94622  24.000  17.646   3.187
30866W        W94623  36.966  28.958   3.269
30867W        W94624  40.471  39.813  14.467
30868W        W94625  34.027   7.355   4.274
30869W        W94626  34.611  24.507  11.004
30870W        W94627   6.344  35.596   1.271
30871W        W94628  23.205  38.999   4.744
30872W        W94629  12.684   1.426   4.684
30873W        W94630  15.179  39.906  11.371
30874W        W94631  22.667   6.914   4.295
30875W        W94632  18.568   3.862  13.523
30876W        W94633  31.121  40.848  13.022
30877W        W94634   1.247  16.295   3.673
30878W        W94635  21.023  37.474   3.740
30879W        W94636  12.731  30.623   1.443
30880W        W94637  39.833  21.166  13.877
30881W        W94638  30.165   3.725   3.172
30882W        W94639   8.796  18.571  14.415
30883W        W94640  12.129  36.849   1.869
30884W        W94641  24.513  39.886  14.899
30885W        W94642   7.779  40.403  13.542
30886W        W94643  21.054  25.152   2.220
30887W        W94644  42.030  29.113   3.736
30888W        W94645   3.220  35.913   0.448
30889W        W94646  22.584   5.811  12.382
30890W        W94647  10.857  20.250   3.673
30891W        W94648  26.188  38.493   2.323
30892W        W94649   1.340  39.051  11.051
30893W        W94650  14.778  16.177  12.578
30894W        W94651  15.247  11.771  14.863
30895W        W94652  13.217  36.945  13.976
30896W        W94653   7.751  44.856   4.677
30897W        W94654  10.213  35.563  11.051
30898W        W94655  14.218  31.920   5.256
30899W        W94656  37.082  30.159  12.423
30900W        W94657   2.370  20.063  12.453
30901W        W94658   7.321  10.838   4.624
30902W        W94659   6.812  34.403  13.811
30903W        W94660   3.279  17.610  10.494
30904W        W94661  40.050  36.481   1.231
30905W        W94662  26.011  30.474  12.866
30906W        W94663   9.813  44.843   4.703
30907W        W94664  40.959  42.924  13.415
30908W        W94665  19.091  36.480   2.767
30909W        W94666  10.188  39.426  10.890
30910W        W94667  28.933  29.939   2.239
30911W        W94668  44.390   2.299  13.840
30912W        W94669  43.380   7.686   2.307
30913W        W94670  31.013  37.866   2.371
30914W        W94671   8.338  42.030  14.413
30915W        W94672  40.534  16.102  12.980
30916W        W94673  31.539   4.283  13.365
30917W        W94674   6.918  41.300  11.945
30918W        W94675  15.585  23.678  10.527
30919W        W94676  20.657  24.055   2.743
30920W        W94677  35.518  28.556  13.488
30921W        W94678  44.886  31.108   3.230
30922W        W94679   8.323  13.681   1.882
30923W        W94680  34.937  10.739  14.839
30924W        W94681  16.221  28.120  10.515
30925W        W94682   1.471  25.199   1.316
30926W        W94683   7.215  26.485   4.229
30927W        W94684  44.904  21.569  12.530
30928W        W94685   8.328  42.319   0.382
30929W        W94686  11.855  15.812  12.922
30930W        W94687   1.916  14.323  10.987
30931W        W94688  13.628   8.714   1.794
30932W        W94689   9.355   0.911  14.838
30933W        W94690  36.866   4.210   0.355
30934W        W94691  20.042  27.165  12.474
30935W        W94692   3.225  44.960   2.320
30936W        W94693   2.346  42.500   4.223
30937W        W94694  26.090  25.198   0.874
30938W        W94695  30.467  41.020   4.244
30939W        W94696  15.766  31.152   2.683
30940W        W94697  11.652  11.785   5.081
30941W        W94698  26.143  18.282  12.473
30942W        W94699  10.825  42.812   3.736
30943W        W94700  14.195  29.649  13.398
30944W        W94701  33.518  31.104   1.408
30945W        W94702  36.457  44.420  13.494
30946W        W94703  34.529  38.075   1.899
30947W        W94704  40.823  44.317   0.792
30948W        W94705  44.394  18.140   1.218
30949W        W94706  32.060  15.168  10.512
30950W        W94707  15.091   2.856  12.552
30951W        W94708  21.163   2.737   3.829
30952W        W94709  29.086  24.553  10.961
30953W        W94710  32.621  42.913  12.020
30954W        W94711  15.785  19.641   0.946
30955W        W94712   3.894   0.318  12.357
30956W        W94713  12.823  34.522   1.762
30957W        W94714  28.930   8.400  14.853
30958W        W94715  29.941  12.615  14.418
30959W        W94716  42.995  25.593   2.261
30960W        W94717   1.320  32.901   0.864
30961W        W94718  13.150  15.760  14.836
30962W        W94719  35.069  18.738  10.960
30963W        W94720  34.106   1.430  12.929
30964W        W94721  24.506  11.719   0.363
30965W        W94722  33.130  27.090  14.496
30966W        W94723  14.731  16.808   4.737
30967W        W94724  32.057  16.572   2.722
30968W        W94725  14.208  24.039  13.407
30969W        W94726   8.699  41.789  14.861
30970W        W94727   5.379  39.908   0.291
30971W        W94728  41.995  28.569  12.091
30972W        W94729  14.273  10.321  13.031
30973W        W94730  35.399  30.039   1.318
30974W        W94731  16.171  32.394  13.417
30975W        W94732  37.572  13.241  14.031
30976W        W94733  26.056   0.805   4.151
30977W        W94734   2.375   3.283   1.905
30978W        W94735  28.164  17.156  11.533
30979W        W94736  32.565   5.861  14.311
30980W        W94737  15.302  35.397  14.855
30981W        W94738  37.377  21.174  14.888
30982W        W94739   9.766  32.984   0.445
30983W        W94740   8.718  39.889   1.261
30984W        W94741  25.169  39.319   0.926
30985W        W94742  13.113  16.628  14.009
30986W        W94743  27.496  20.113   0.376
30987W        W94744  14.675  32.105  14.356
30988W        W94745  20.753  18.079   1.699
30989W        W94746  37.956  16.311   0.729
30990W        W94747   8.306   4.418   4.169
30991W        W94748  44.258  27.692  12.392
30992W        W94749  25.978  33.565   4.154
30993W        W94750  14.288  13.640  13.371
30994W        W94751  33.128   8.767   1.920
30995W        W94752  26.998  27.636   4.344
30996W        W94753  37.920  14.628  13.876
30997W        W94754  41.019  13.127   0.289
30998W        W94755  29.538   3.444   0.397
30999W        W94756  41.356  36.371  12.439
31000W        W94757  13.665  14.617   0.386
31001W        W94758   3.366   1.426   0.772
31002W        W94759   8.716  42.936   4.328
31003W        W94760  10.868  39.546   1.694
31004W        W94761  42.489   5.294   1.733
31005W        W94762  11.238  17.658   0.256
31006W        W94763   7.797  36.542  10.961
31007W        W94764  26.463   2.948   2.666
31008W        W94765   1.850  17.795  13.375
31009W        W94766  19.678  25.474   4.302
31010W        W94767  28.180  12.115  13.922
31011W        W94768  33.985  14.241   0.405
31012W        W94769  22.116   4.701  14.989
31013W        W94770  26.550   2.334  14.922
31014W        W94771  31.584  26.525   3.821
31015W        W94772   5.863  37.056   0.755
31016W        W94773  11.209   7.829   4.815
31017W        W94774  10.690  42.503   0.862
31018W        W94775  21.145   6.787   0.395
31019W        W94776  11.139  29.514  11.910
31020W        W94777  44.816  39.061  11.894
31021W        W94778  30.611  40.547  13.802
31022W        W94779  44.433  25.071  13.346
31023W        W94780   0.789   4.699  13.379
31024W        W94781  10.776  38.863   1.766
31025W        W94782  36.496  26.089  10.022
31026W        W94783  41.325  29.919  12.356
31027W        W94784  10.816   8.778  13.831
31028W        W94785   7.352  43.909  10.971
31029W        W94786  24.702  42.984  12.853
31030W        W94787   9.704  38.006  11.054
31031W        W94788   5.356  17.763   1.853
31032W        W94789  41.976  10.240  13.005
31033W        W94790  31.573  29.094   1.777
31034W        W94791  28.559  35.992  11.478
31035W        W94792  32.571  29.619  11.551
31036W        W94793   3.226  11.237  14.453
31037W        W94794  29.505  20.758   3.236
31038W        W94795  34.900  20.146  14.926
31039W        W94796  41.889  31.951   1.378
31040W        W94797  16.175  42.459  10.080
31041W        W94798  25.535  25.036   2.372
31042W        W94799  20.038  27.093   0.729
31043W        W94800  33.080  29.004   0.306
31044W        W94801  35.387  16.686   3.339
31045W        W94802  19.265  30.546  11.479
31046W        W94803   9.393  29.126   0.248
31047W        W94804  43.812  10.874   3.276
31048W        W94805  33.584  41.858  10.489
31049W        W94806  43.438  40.524   3.806
31050W        W94807  19.179  34.883   3.272
31051W        W94808  31.450  16.296   4.801
31052W        W94809  36.940  26.569   4.334
31053W        W94810  33.002  35.567  11.487
31054W        W94811  40.543  10.821  14.008
31055W        W94812  41.376  33.501  14.458
31056W        W94813  35.958  37.360   4.147
31057W        W94814  41.810  22.573   2.895
31058W        W94815   1.461  20.210  14.413
31059W        W94816  36.904  19.168   2.722
31060W        W94817   0.750  18.184  10.450
31061W        W94818  34.065   4.304  13.450
31062W        W94819  35.039  38.334   1.303
31063W        W94820  31.545  10.331  14.781
31064W        W94821  19.232  11.791  12.078
31065W        W94822  26.181  28.566  13.889
31066W        W94823  27.011  25.205  11.584
31067W        W94824  37.421   9.711  12.888
31068W        W94825  23.714  29.094  10.543
31069W        W94826  22.997  13.672   0.755
31070W        W94827  21.688  34.064   4.282
31071W        W94828  25.994  37.408   2.664
31072W        W94829  16.089   4.447   2.719
31073W        W94830  15.753  10.166   4.760
31074W        W94831   8.785   9.748  11.585
31075W        W94832  13.293  11.759  13.477
31076W        W94833  13.335  23.639   0.457
31077W        W94834  30.134  21.660   0.349
31078W        W94835  36.066  16.146  11.892
31079W        W94836  14.733  29.954   3.771
31080W        W94837  33.487  33.029   1.901
31081W        W94838  14.333  29.433  10.891
31082W        W94839  23.204  14.099   2.297
31083W        W94840   6.910  16.112  10.933
31084W        W94841   5.358  24.213   1.905
31085W        W94842  33.914  33.045   3.151
31086W        W94843  10.274   1.827  10.515
31087W        W94844  28.533  25.033  12.491
31088W        W94845  42.971  32.929   4.769
31089W        W94846   6.355  17.751  11.448
31090W        W94847  33.577   7.235  14.032
31091W        W94848  31.984  29.099   3.826
31092W        W94849  35.485   6.872  14.934
31093W        W94850  42.458  31.010   4.261
31094W        W94851  15.285   4.790  10.405
31095W        W94852  21.530   2.777   0.341
31096W        W94853  44.369  32.488   0.752
31097W        W94854  33.112  20.217   2.693
31098W        W94855   1.967  33.006  11.473
31099W        W94856  31.588   2.814  14.936
31100W        W94857  12.329   9.884  13.030
31101W        W94858  11.278  15.301   1.792
31102W        W94859  36.395  10.292   2.689
31103W        W94860  38.853  43.489   1.695
31104W        W94861   6.237  37.964   1.219
31105W        W94862  44.505  40.351  11.063
31106W        W94863  36.479  33.590  13.833
31107W        W94864  42.523  29.148   2.781
31108W        W94865  34.070   3.891   0.384
31109W        W94866  43.352  24.117   3.760
31110W        W94867  22.221  30.144  13.850
31111W        W94868  40.352   4.827  13.504
31112W        W94869   6.677  36.072   0.741
31113W        W94870   0.414   6.828   2.720
31114W        W94871  33.603  37.921   0.298
31115W        W94872  39.955   6.763   1.425
31116W        W94873  38.007   0.981  10.511
31117W        W94874   6.222  25.073  11.421
31118W        W94875  28.498  17.588   4.804
31119W        W94876  43.977  27.576  13.815
31120W        W94877   6.861  20.680  13.335
31121W        W94878  36.032  25.476  12.341
31122W        W94879  19.155  19.260   0.470
31123W        W94880   4.360   9.735   4.704
31124W        W94881  38.958  16.251   0.819
31125W        W94882  10.863  31.506   2.694
31126W        W94883  25.056  20.089  12.477
31127W        W94884  44.001  28.170   1.698
31128W        W94885  33.886  33.913  14.483
31129W        W94886  13.247   3.868   3.802
31130W        W94887  34.888   0.455   4.157
31131W        W94888  25.133  20.649  13.524
31132W        W94889   3.318  41.986   5.157
31133W        W94890  19.252  26.137   0.374
31134W        W94891  30.049  19.732   4.116
31135W        W94892   9.711   2.840  11.955
31136W        W94893  36.439  21.065  14.003
31137W        W94894  43.359  37.024  12.517
31138W        W94895   8.833  41.827   2.674
31139W        W94896  28.504  24.646   1.698
31140W        W94897   1.856  42.455  12.866
31141W        W94898   9.841  42.302  14.290
31142W        W94899  33.030  43.355   0.480
31143W        W94900  44.476  21.215  12.053
31144W        W94901  17.214  18.284  10.971
31145W        W94902  11.704  27.148   1.902
31146W        W94903  12.693  36.506   2.792
31147W        W94904   3.232  29.050   1.282
31148W        W94905   0.334   0.344   2.409
31149W        W94906  42.029  42.009  11.549
31150W        W94907  14.336  35.868   2.355
31151W        W94908   2.891  29.002  12.570
31152W        W94909  36.905  16.808   2.885
31153W        W94910   6.308  19.206   0.762
31154W        W94911  23.024  34.092  11.865
31155W        W94912  40.497  41.935  12.399
31156W        W94913  34.544  26.201  13.424
31157W        W94914  29.937   6.832   3.638
31158W        W94915  30.970  20.679  14.332
31159W        W94916  33.524   0.439   3.324
31160W        W94917  27.487  32.454   1.284
31161W        W94918   5.838  38.455   1.379
31162W        W94919  33.040  11.164  12.522
31163W        W94920   8.798   1.931   2.816
31164W        W94921  29.531   2.342  14.870
31165W        W94922   2.749  21.122   0.749
31166W        W94923  22.050  11.690  11.592
31167W        W94924  34.544   2.844  12.528
31168W        W94925  17.754  42.360  12.526
31169W        W94926  31.123   5.732  10.020
31170W        W94927  18.679   0.361   1.907
31171W        W94928  23.125  21.039  13.815
31172W        W94929  13.168   9.201  13.939
31173W        W94930   5.214  39.863   1.329
31174W        W94931  37.406  44.489   2.351
31175W        W94932  19.557  21.147   3.825
31176W        W94933   2.827  16.598   2.383
31177W        W94934  34.109   1.880   1.726
31178W        W94935  43.373  21.595   2.826
31179W        W94936  40.487  18.092   3.291
31180W        W94937  28.586   7.665   3.163
31181W        W94938  33.383  32.081  11.568
31182W        W94939  14.809  33.009   3.244
31183W        W94940  31.149  18.663   3.151
31184W        W94941  44.960  14.754   4.647
31185W        W94942  34.597  37.400   2.411
31186W        W94943  33.490   6.839  13.819
31187W        W94944   9.802  23.621  14.459
31188W        W94945  33.018   7.354   3.771
31189W        W94946  29.141  31.065   1.211
31190W        W94947   1.763  36.026   3.794
31191W        W94948  42.316  13.133   1.924
31192W        W94949  41.972  44.398  13.057
31193W        W94950   0.402  13.819   3.817
31194W        W94951  10.282  35.593  12.889
31195W        W94952  12.167  27.562  14.421
31196W        W94953  20.653   6.922  11.112
31197W        W94954  36.558  32.573   2.318
31198W        W94955  30.637  13.796   2.282
31199W        W94956  35.953   6.396  10.482
31200W        W94957  44.353  15.621  11.022
31201W        W94958   1.894  40.853   1.805
31202W        W94959  31.476   6.280  14.893
31203W        W94960  14.124   5.429  10.457
31204W        W94961  44.485  18.713   5.094
31205W        W94962  30.577   7.293   4.322
31206W        W94963   3.359  33.501  10.980
31207W        W94964  29.012  24.547   4.787
31208W        W94965  39.029  44.332   3.309
31209W        W94966  11.255  26.668  10.543
31210W        W94967   8.844  18.177   0.378
31211W        W94968  23.159  33.558  12.945
31212W        W94969   2.803  31.972  13.430
31213W        W94970  17.077  38.051  10.607
31214W        W94971  25.499  38.463  14.006
31215W        W94972   5.899   4.921  11.590
31216W        W94973   9.744  20.565   0.332
31217W        W94974  14.653  32.501   3.773
31218W        W94975  38.549  37.833  10.460
31219W        W94976  31.415  23.169  13.855
31220W        W94977  33.620  44.808  11.038
31221W        W94978  36.421  14.116  13.027
31222W        W94979   1.342  41.442   1.806
31223W        W94980   8.792  32.993  12.096
31224W        W94981   5.280   2.239   1.373
31225W        W94982  33.520  11.781  14.323
31226W        W94983  38.570   3.723   4.127
31227W        W94984  10.382  15.119  12.875
31228W        W94985  32.470  25.583  13.849
31229W        W94986  35.964  31.428   2.318
31230W        W94987   8.693  36.593  13.315
31231W        W94988  33.430  25.025  11.980
31232W        W94989  14.729  31.565  11.392
31233W        W94990  26.160  42.891  11.446
31234W        W94991  29.098  27.458   1.333
31235W        W94992  31.590  17.705   0.439
31236W        W94993  28.493   7.890   2.250
31237W        W94994  27.508   7.883  11.926
31238W        W94995  42.857  22.101  10.532
31239W        W94996  38.325  10.739  13.870
31240W        W94997  39.471   7.193   0.248
31241W        W94998  32.440   0.815   2.697
31242W        W94999  40.983   7.394  12.415
31243W        W95000  37.888  35.101  11.952
31244W        W95001  15.784  27.134   1.321
31245W        W95002   7.805  38.368  12.480
31246W        W95003  34.115  23.555  13.480
31247W        W95004  42.344  37.418   1.722
31248W        W95005   3.275  43.362   2.198
31249W        W95006   3.710  29.664  13.033
31250W        W95007  24.656  40.934   2.187
31251W        W95008  38.350  43.930   4.156
31252W        W95009  42.328  33.447  10.471
31253W        W95010  36.389   7.728   1.714
31254W        W95011  41.487  17.194   3.268
31255W        W95012  13.148   4.309   1.727
31256W        W95013  24.083   4.884  14.416
31257W        W95014  37.931   1.895  13.385
31258W        W95015  39.424  17.260  14.296
31259W        W95016   1.825  36.385   1.767
31260W        W95017  22.657  42.412   4.320
31261W        W95018  37.484  37.381   3.179
31262W        W95019  23.091   4.875   3.650
31263W        W95020  19.127  17.796   2.865
31264W        W95021  26.132  44.497  11.049
31265W        W95022  33.600  39.972  11.859
31266W        W95023  24.690  41.791  13.458
31267W        W95024   2.416  40.984   4.236
31268W        W95025   1.791  27.141  11.938
31269W        W95026  21.595   6.299  14.385
31270W        W95027  29.152   1.848  11.418
31271W        W95028  30.944  44.423  13.386
31272W        W95029   7.267  20.617   3.221
31273W        W95030  24.713  39.014   4.709
31274W        W95031   1.957  31.457  13.357
31275W        W95032  17.225   7.302   2.233
31276W        W95033  22.174   2.349   0.458
31277W        W95034  36.510   4.766  11.032
31278W        W95035  19.570   6.395  14.282
31279W        W95036   6.276  38.984  12.348
31280W        W95037  12.615  31.547   1.699
31281W        W95038  32.062  44.290   2.700
31282W        W95039  21.176  16.647   4.284
31283W        W95040  21.122  40.369   1.927
31284W        W95041  41.391  12.716  10.977
31285W        W95042   9.174   5.727  11.612
31286W        W95043  30.924   0.337  12.505
31287W        W95044  22.627   7.249   4.316
31288W        W95045   5.841  26.087   4.776
31289W        W95046  26.457   3.855  12.939
31290W        W95047   9.163  23.992  10.634
31291W        W95048  23.726  11.316   4.638
31292W        W95049  17.303  19.097   4.335
31293W        W95050  42.941  28.078  10.528
31294W        W95051  11.247  36.928   4.671
31295W        W95052  21.601   3.242  11.008
31296W        W95053  29.082  20.138  13.889
31297W        W95054   2.393  35.560   3.281
31298W        W95055  26.093   4.794   4.768
31299W        W95056  44.941  30.925  13.829
31300W        W95057  34.592   5.326   4.783
31301W        W95058  17.081  30.986   0.962
31302W        W95059  18.653  34.477  10.099
31303W        W95060  13.273  34.108   0.820
31304W        W95061  43.461  14.698  10.575
31305W        W95062  11.154  42.500  11.433
31306W        W95063  14.182  42.439  10.545
31307W        W95064  28.116  40.964  10.591
31308W        W95065  25.688   6.327  12.053
31309W        W95066  42.012  44.974  10.445
31310W        W95067  15.192  26.622  11.607
31311W        W95068  38.532   6.747   2.256
31312W        W95069  44.324  41.976  12.389
31313W        W95070  20.055  43.806   4.696
31314W        W95071  43.949  23.511  14.029
31315W        W95072  16.586  28.538  11.867
31316W        W95073   4.704   9.674  12.932
31317W        W95074  36.455   8.253   3.765
31318W        W95075  38.920  32.940  14.496
31319W        W95076  10.843  22.106   2.187
31320W        W95077  31.154   7.809   2.839
31321W        W95078  34.413  12.838  14.418
31322W        W95079  10.878   1.827  14.288
31323W        W95080   1.906  22.247   2.190
31324W        W95081  40.375  35.855   5.279
31325W        W95082  14.169  25.522  11.963
31326W        W95083   1.952  21.754  13.425
31327W        W95084  27.954  10.293  14.410
31328W        W95085  36.462  18.707  12.951
31329W        W95086  43.790  16.772  11.445
31330W        W95087  30.154  34.540  11.985
31331W        W95088  27.664  40.971   1.852
31332W        W95089  21.075  28.945   0.753
31333W        W95090  39.922   2.953  11.511
31334W        W95091  37.393  17.737   4.118
31335W        W95092   3.234  12.349  11.507
31336W        W95093  10.324  42.010  12.975
31337W        W95094  37.836  32.398   2.806
31338W        W95095  18.674  30.586   2.295
31339W        W95096  32.075  42.372  14.012
31340W        W95097   7.409  29.631  11.979
31341W        W95098  12.780  21.170  12.344
31342W        W95099  24.680  18.263   2.674
31343W        W95100   2.853   6.760   2.686
31344W        W95101  13.629  33.479  10.589
31345W        W95102  12.280  32.573  14.509
31346W        W95103  36.861  34.064  13.893
31347W        W95104  30.545  20.655  10.930
31348W        W95105  33.055  27.049   4.119
31349W        W95106  14.279  16.190  14.815
31350W        W95107  18.716   8.287  12.365
31351W        W95108  25.021  32.539   0.393
31352W        W95109   6.331   1.740  10.931
31353W        W95110  17.212  40.022   4.301
31354W        W95111  16.642  15.610  14.388
31355W        W95112  13.831   5.287  11.938
31356W        W95113  25.615  12.302   0.935
31357W        W95114  44.407   7.857   3.794
31358W        W95115  37.500   5.389  12.044
31359W        W95116   2.350   2.818  11.586
31360W        W95117  15.159  12.668  10.908
31361W        W95118   2.415  21.204  11.036
31362W        W95119  18.619   8.887   1.438
31363W        W95120  19.611  25.974   2.788
31364W        W95121  19.188  15.308   4.192
31365W        W95122   5.874  36.951  12.550
31366W        W95123   5.351  27.109  14.805
31367W        W95124  34.608  25.095  13.887
31368W        W95125   1.975  12.789  11.588
31369W        W95126  17.593   2.929  13.804
31370W        W95127   8.736  17.736   1.875
31371W        W95128   6.738  39.517   2.316
31372W        W95129   5.294  29.153  14.379
31373W        W95130  38.917  18.659  13.462
31374W        W95131  42.928   8.814  13.007
31375W        W95132  13.200   0.469   2.223
31376W        W95133  23.010  15.242   4.620
31377W        W95134  35.905  25.986  12.982
31378W        W95135  12.835  19.046   0.363
31379W        W95136  30.163  44.350  11.040
31380W        W95137  26.003  21.183  14.453
31381W        W95138  20.050  44.926   2.695
31382W        W95139  38.568  25.699   2.760
31383W        W95140  44.765  13.171  14.431
31384W        W95141   5.254   0.333  10.974
31385W        W95142   4.831  17.645  13.375
31386W        W95143  12.775  16.672   3.254
31387W        W95144  29.665  38.392  14.454
31388W        W95145  20.552  14.599   4.350
31389W        W95146  41.836  10.277  10.955
31390W        W95147   9.366  25.104  13.059
31391W        W95148  18.224  25.612   1.931
31392W        W95149  20.254  28.010  10.626
31393W        W95150   9.299  19.136  14.837
31394W        W95151   0.800  41.354   1.828
31395W        W95152  14.632  41.862   1.874
31396W        W95153   5.915  22.743   3.762
31397W        W95154  20.529  40.014  12.076
31398W        W95155  22.698  18.592  12.923
31399W        W95156  42.349  37.389  11.861
31400W        W95157  11.231  12.781  12.443
31401W        W95158  35.594  19.722  11.081
31402W        W95159  36.991  18.162   2.400
31403W        W95160  22.127   9.177  10.405
31404W        W95161  11.366  42.921   2.185
31405W        W95162  25.167  42.344   1.864
31406W        W95163  12.145  16.221  11.606
31407W        W95164  26.542  27.020   2.397
31408W        W95165   9.665  31.917  12.912
31409W        W95166  13.702  37.905  14.012
31410W        W95167  37.524  39.971   3.837
31411W        W95168  25.219  15.743   0.914
31412W        W95169   9.271  30.527  14.764
31413W        W95170  34.415  31.118   1.749
31414W        W95171  41.878  37.547   4.626
31415W        W95172  13.177  37.887  10.561
31416W        W95173  15.295   7.279  14.762
31417W        W95174  38.329  34.480  13.496
31418W        W95175  33.986  16.116  10.449
31419W        W95176  35.596  35.866   4.785
31420W        W95177  34.591  26.569   3.775
31421W        W95178   4.235  32.395  11.550
31422W        W95179  14.135   4.438   4.664
31423W        W95180  41.505  43.270  12.873
31424W        W95181  44.841  24.111   3.828
31425W        W95182  24.561  32.447   4.190
31426W        W95183  29.628  14.227  11.419
31427W        W95184   5.794  41.343  11.954
31428W        W95185   7.901  19.651   4.672
31429W        W95186  27.586  29.948   1.354
31430W        W95187  32.457  44.379  10.574
31431W        W95188   0.912  27.604   0.911
31432W        W95189  17.569  34.522   3.202
31433W        W95190  27.649   5.283   4.136
31434W        W95191  22.238  16.567   1.896
31435W        W95192  10.741  35.411  13.926
31436W        W95193  16.083   7.288   0.943
31437W        W95194  13.123  25.534   4.729
31438W        W95195  28.061   6.729   2.804
31439W        W95196   8.233  28.440   4.611
31440W        W95197  37.486  13.212  13.010
31441W        W95198  35.538  28.990   2.260
31442W        W95199  15.730  30.470  11.435
31443W        W95200  40.512  23.222  14.322
31444W        W95201  15.154  32.021  11.540
31445W        W95202  38.515  25.216  13.451
31446W        W95203   3.819  32.086   2.296
31447W        W95204  36.540  33.491  13.327
31448W        W95205  12.613  16.171   3.745
31449W        W95206  35.464   8.243   2.683
31450W        W95207  29.154  32.046   1.291
31451W        W95208  26.006  42.005   0.455
31452W        W95209  44.467  40.915   3.862
31453W        W95210  10.377  27.182  10.413
31454W        W95211  36.081  29.627   4.716
31455W        W95212  42.504  28.071   3.734
31456W        W95213   3.245  43.460   0.433
31457W        W95214  40.015   5.428   4.131
31458W        W95215  44.358  19.674  12.096
31459W        W95216  20.566  38.568   0.319
31460W        W95217  24.034  39.485   1.737
31461W        W95218  30.616  34.426   3.379
31462W        W95219  28.072  16.298  10.004
31463W        W95220  12.684  42.453   3.734
31464W        W95221  16.153  42.002   3.236
31465W        W95222  33.472  36.506  12.024
31466W        W95223  18.157  10.758   0.860
31467W        W95224   2.868  28.997   1.389
31468W        W95225  36.357  13.338  13.507
31469W        W95226   1.318  23.005  11.949
31470W        W95227  38.873  29.634  14.816
31471W        W95228  23.205  14.674   0.962
31472W        W95229  20.197  26.060   3.727
31473W        W95230  30.553  11.225   1.887
31474W        W95231  14.272  16.095   0.323
31475W        W95232  35.872  27.016   2.354
31476W        W95233  14.116  21.161   0.748
31477W        W95234  24.587  12.829  14.986
31478W        W95235  13.730  40.485  11.100
31479W        W95236  20.272  38.428   3.319
31480W        W95237   2.735  13.824  13.927
31481W        W95238  16.130  32.920   3.712
31482W        W95239  19.150   7.769   4.709
31483W        W95240  20.642  40.497   4.248
31484W        W95241  27.574  33.520   2.774
31485W        W95242  13.137  10.729   0.411
31486W        W95243   0.438   4.704  12.995
31487W        W95244  44.397  25.639   4.629
31488W        W95245  26.510  10.724  12.461
31489W        W95246  33.401  10.811   9.923
31490W        W95247  16.805  40.931  14.768
31491W        W95248  44.977   5.921   2.665
31492W        W95249  18.571   0.326   2.378
31493W        W95250   5.883   9.323  11.860
31494W        W95251  43.925  33.928   4.783
31495W        W95252  10.267  26.599  14.015
31496W        W95253  28.160  37.851   4.265
31497W        W95254  33.044  29.000  11.482
31498W        W95255  43.960  42.349  14.338
31499W        W95256  19.219  34.369   0.344
31500W        W95257  12.227  44.976  12.865
31501W        W95258  11.219   3.937  13.831
31502W        W95259  44.949  32.541   2.751
31503W        W95260   0.461   4.258   4.712
31504W        W95261  39.350  24.605   4.157
31505W        W95262   9.658  20.560   2.393
31506W        W95263  36.472  38.880   0.414
31507W        W95264  34.428  33.611   2.798
31508W        W95265  41.399  17.088  12.048
31509W        W95266   6.311  12.271  14.918
31510W        W95267   1.858  24.061   4.724
31511W        W95268  19.215   5.353  14.007
31512W        W95269   0.987   5.354  12.996
31513W        W95270  29.018  22.741   2.216
31514W        W95271  33.517  32.550  13.415
31515W        W95272  33.504  17.068  10.103
31516W        W95273  34.945   7.215   4.611
31517W        W95274  25.690   5.837  12.015
31518W        W95275  33.503  36.509   4.134
31519W        W95276  29.585   9.722  14.340
31520W        W95277  36.955  37.340   3.282
31521W        W95278   6.378   8.782  14.925
31522W        W95279  15.718  29.040  10.031
31523W        W95280  26.133  22.592   1.315
31524W        W95281  43.280  14.163  12.050
31525W        W95282  33.402  18.198   2.388
31526W        W95283  18.746  15.753  10.520
31527W        W95284  29.065  16.086  11.519
31528W        W95285  24.989   1.745   0.428
31529W        W95286   3.289  34.393   1.444
31530W        W95287  27.963  23.644   2.729
31531W        W95288  22.547  30.425   3.277
31532W        W95289  23.582   1.373  12.064
31533W        W95290  25.043  33.993   1.860
31534W        W95291  32.402   8.711   9.973
31535W        W95292  42.906  34.870   2.864
31536W        W95293   3.335   8.709  10.034
31537W        W95294  15.758  12.142  12.499
31538W        W95295  44.295  24.102   5.201
31539W        W95296  10.800  22.619   9.921
31540W        W95297  42.864  14.290   3.869
31541W        W95298  20.108  43.917   3.248
31542W        W95299  18.131  21.639  14.808
31543W        W95300  19.762  12.756   3.209
31544W        W95301   5.834  38.832   1.759
31545W        W95302  27.145  31.565  10.969
31546W        W95303  10.221  16.228   1.765
31547W        W95304   9.876  21.070   0.748
31548W        W95305  34.528   1.316   3.316
31549W        W95306  32.952  30.106  12.495
31550W        W95307  42.874  24.712   0.865
31551W        W95308  17.088   3.223   1.350
31552W        W95309  42.978  14.743  14.851
31553W        W95310   6.357  16.319   3.716
31554W        W95311  39.366  12.733  11.411
31555W        W95312  22.163  19.665  11.003
31556W        W95313  14.239  42.526   3.819
31557W        W95314  20.132  40.491   1.377
31558W        W95315   3.817  35.578  14.400
31559W        W95316  25.679   4.412  10.969
31560W        W95317  19.695   3.897   4.148
31561W        W95318  39.880  43.300  12.830
31562W        W95319  25.504  31.610   3.657
31563W        W95320  29.962  41.937   3.363
31564W        W95321   7.868  42.287   2.760
31565W        W95322  12.770   3.280  11.474
31566W        W95323  23.016  11.735   1.345
31567W        W95324  12.358   3.873   1.738
31568W        W95325  30.985  43.280  10.423
31569W        W95326   8.679  38.399  13.871
31570W        W95327  15.160  17.264   4.706
31571W        W95328  26.702   9.705  12.938
31572W        W95329  39.024  38.015   3.803
31573W        W95330   8.785  17.247   3.373
31574W        W95331  16.225  41.433  10.461
31575W        W95332  15.617  10.262  13.433
31576W        W95333  13.260  43.999  10.021
31577W        W95334  25.035  43.451  11.007
31578W        W95335  35.944  29.620  10.592
31579W        W95336  37.046  34.571  14.936
31580W        W95337  23.711  18.576   1.782
31581W        W95338   8.246  33.552   0.245
31582W        W95339  33.396  34.403   3.854
31583W        W95340  29.663  41.497  11.929
31584W        W95341  11.633  10.784   4.303
31585W        W95342  21.099   8.182   4.122
31586W        W95343  36.070  16.246  14.852
31587W        W95344  20.640  33.083   5.321
31588W        W95345   7.194  16.690   3.768
31589W        W95346  31.910  42.463   2.692
31590W        W95347  28.465  34.442  11.099
31591W        W95348  10.745  21.042  10.433
31592W        W95349  12.306  11.372   4.273
31593W        W95350  38.483  18.132   1.740
31594W        W95351  16.661  31.072   0.454
31595W        W95352  11.776  19.073   0.901
31596W        W95353  32.479  21.534  13.425
31597W        W95354  13.115   8.788   2.191
31598W        W95355  21.110  31.983  14.013
31599W        W95356  39.436  36.897  12.033
31600W        W95357  16.074  10.347  10.127
31601W        W95358  24.673  39.004  12.999
31602W        W95359  16.314   3.237  10.627
31603W        W95360  40.893  44.957   2.307
31604W        W95361  41.817  32.054   2.266
31605W        W95362   7.705  36.381  13.427
31606W        W95363  42.951   7.674   0.301
31607W        W95364   3.267  39.488  11.094
31608W        W95365  41.868  22.218   2.228
31609W        W95366  15.328  20.234  11.027
31610W        W95367  37.833  30.073   2.367
31611W        W95368   7.176  44.998  13.977
31612W        W95369   6.776  15.665   4.319
31613W        W95370  42.990  28.629   1.773
31614W        W95371  19.671  43.990   2.263
31615W        W95372  38.925  35.989  10.423
31616W        W95373  29.054   2.317  13.897
31617W        W95374  16.778  44.896  12.576
31618W        W95375   2.834  13.163  10.559
31619W        W95376   8.257  12.242  12.345
31620W        W95377  12.722   6.249  14.427
31621W        W95378   1.920   3.284   4.613
31622W        W95379  15.194  12.726  12.041
31623W        W95380   7.383   7.237   3.683
31624W        W95381  22.516  35.092  10.974
31625W        W95382  11.789   3.272   3.714
31626W        W95383   7.355  23.680  14.934
31627W        W95384  21.745  18.265  13.930
31628W        W95385  25.594  43.322  11.422
31629W        W95386  34.516  24.572   3.658
31630W        W95387  31.917  39.387   2.802
31631W        W95388  33.878   9.354   0.882
31632W        W95389  18.291  19.095  12.342
31633W        W95390   2.446   7.353  13.512
31634W        W95391  30.558  43.349  10.478
31635W        W95392  13.806  37.406   1.417
31636W        W95393   1.922  25.534  10.904
31637W        W95394   8.781  27.982   3.282
31638W        W95395  42.361  14.658   3.312
31639W        W95396  33.057   3.355   2.247
31640W        W95397  42.021  34.974   2.339
31641W        W95398  32.459  29.610  12.525
31642W        W95399  20.560  13.723   1.433
31643W        W95400   4.706   6.855   2.801
31644W        W95401  44.352  37.995  14.445
31645W        W95402  35.926  38.927  14.456
31646W        W95403  22.590  18.274   2.291
31647W        W95404  16.724   6.864   4.703
31648W        W95405  28.082  12.774  13.990
31649W        W95406  23.529  38.550  11.045
31650W        W95407   3.938  15.742  10.407
31651W        W95408  38.535  10.140   1.785
31652W        W95409  15.666  21.757  10.983
31653W        W95410   7.838  29.076   4.212
31654W        W95411   2.264  22.127  12.008
31655W        W95412   8.677   2.389   4.185
31656W        W95413  10.686  14.100  12.969
31657W        W95414  22.085   7.280  14.870
31658W        W95415  29.432  11.827   4.124
31659W        W95416  16.666  18.246  13.521
31660W        W95417   1.370   4.917   1.804
31661W        W95418  29.039  18.051   0.849
31662W        W95419  12.127   6.734   2.320
31663W        W95420   9.669  34.970  10.644
31664W        W95421   2.737  23.611  12.450
31665W        W95422  34.443   4.434  11.436
31666W        W95423  35.514  34.031   2.748
31667W        W95424   7.184  13.703   2.401
31668W        W95425  35.548  24.225  13.429
31669W        W95426   9.684  30.425   1.384
31670W        W95427  29.126  12.787  14.905
31671W        W95428   2.866  39.858   4.233
31672W        W95429  32.554  25.211   2.394
31673W        W95430  30.614  28.677   4.837
31674W        W95431  16.580  10.798   2.414
31675W        W95432  35.039  36.082   3.805
31676W        W95433  30.589  16.791   0.293
31677W        W95434   8.293  31.631   0.931
31678W        W95435  12.292  34.970  11.408
31679W        W95436  38.537  25.525   4.809
31680W        W95437  43.392  25.581   1.338
31681W        W95438  29.167  13.108   2.843
31682W        W95439  36.349  32.926  13.863
31683W        W95440  14.230  44.504  11.053
31684W        W95441  21.570  12.707  13.439
31685W        W95442  33.498  10.343   1.378
31686W        W95443  17.204  23.018   4.735
31687W        W95444   9.882  40.419   0.816
31688W        W95445  39.963  26.538   1.736
31689W        W95446   1.405  44.420  10.443
31690W        W95447  34.374  41.943  13.958
31691W        W95448  22.531  25.058  10.058
31692W        W95449   9.863  40.016   3.661
31693W        W95450   2.263  17.565   0.928
31694W        W95451  36.580  29.515  11.388
31695W        W95452   4.813  26.664  11.859
31696W        W95453  36.982  30.925   1.716
31697W        W95454   6.332  12.295   3.753
31698W        W95455  38.877  25.142  12.388
31699W        W95456  24.604  32.951  10.408
31700W        W95457  17.630   2.421   2.364
31701W        W95458  13.605  13.710  14.377
31702W        W95459  23.670  13.773  14.923
31703W        W95460  13.766  23.709  10.459
31704W        W95461  34.388  19.654   0.445
31705W        W95462  17.200   8.789   9.969
31706W        W95463  13.266  10.294   3.826
31707W        W95464  26.013  35.501  13.389
31708W        W95465  20.129  17.564  13.435
31709W        W95466  41.033  37.941  13.874
31710W        W95467  21.023   1.417   3.659
31711W        W95468   3.786  39.821   3.694
31712W        W95469  25.160  28.130   3.682
31713W        W95470   8.772   8.221  14.420
31714W        W95471  13.334  37.516  10.588
31715W        W95472  30.513  17.069  10.988
31716W        W95473  42.806  39.817   1.295
31717W        W95474  43.334  38.530  10.617
31718W        W95475  19.275  18.074  11.050
31719W        W95476  25.711  40.865   0.847
31720W        W95477   7.219  40.548  14.358
31721W        W95478  28.508  39.495  12.093
31722W        W95479  40.950  14.730   3.814
31723W        W95480  41.869  11.757  14.806
31724W        W95481  43.290  25.524   2.886
31725W        W95482  31.411  42.841  13.966
31726W        W95483  21.666  16.195   0.791
31727W        W95484   2.327  36.968   4.241
31728W        W95485  32.009  34.581   3.197
31729W        W95486  19.607  18.605   4.670
31730W        W95487  34.586   2.305  14.448
31731W        W95488   9.269   7.284   4.727
31732W        W95489  43.334  34.941  12.971
31733W        W95490  28.511  25.112   2.297
31734W        W95491   4.351  11.332   3.163
31735W        W95492  21.583  41.306   1.796
31736W        W95493   4.829   2.770  14.911
31737W        W95494  27.531  27.943  12.491
31738W        W95495  28.087  33.548  10.114
31739W        W95496  23.714  43.473  13.955
31740W        W95497   9.235  32.441   0.258
31741W        W95498  16.285  14.202   3.716
31742W        W95499   5.314   4.252   2.335
31743W        W95500  36.961  40.377  14.941
31744W        W95501  23.132  40.467  10.988
31745W        W95502  20.157  22.719  14.877
31746W        W95503  15.708   2.378   0.482
31747W        W95504  39.332  10.279  10.891
31748W        W95505  31.108  24.059   9.944
31749W        W95506   8.307   8.703  12.825
31750W        W95507  29.654  33.129   2.336
31751W        W95508  40.382   8.820   1.336
31752W        W95509  24.141  20.594  13.363
31753W        W95510  43.907  13.607   2.690
31754W        W95511  43.796   7.725   4.239
31755W        W95512   8.812  14.751   4.608
31756W        W95513  31.417   9.797  10.995
31757W        W95514  13.645  12.170   0.892
31758W        W95515  15.141   3.253   2.320
31759W        W95516  12.802  17.595   1.353
31760W        W95517   6.241  11.827  10.121
31761W        W95518  36.956  24.502   4.757
31762W        W95519  34.436  36.074   4.348
31763W        W95520   2.840  16.139   3.276
31764W        W95521   3.299  16.293   1.219
31765W        W95522  11.629  11.197  11.437
31766W        W95523  19.200  16.792   0.861
31767W        W95524   0.372   3.255   0.958
31768W        W95525  23.569  24.501  13.875
31769W        W95526  12.347  20.266  12.566
31770W        W95527  17.100  21.621   2.839
31771W        W95528  16.228  35.387  14.499
31772W        W95529  21.059  13.152  10.425
31773W        W95530  11.267   5.840  11.054
31774W        W95531  12.310  32.970  13.820
31775W        W95532  22.555  40.038  14.814
31776W        W95533  37.428  25.658  10.596
31777W        W95534   3.916  17.738  14.777
31778W        W95535  30.532  32.565  12.976
31779W        W95536  30.083  32.076   9.991
31780W        W95537  42.970  41.501  11.086
31781W        W95538   8.376  28.123   0.902
31782W        W95539   1.852  10.770   4.757
31783W        W95540   8.803  29.000  11.568
31784W        W95541  17.072   4.771   3.813
31785W        W95542  41.988  16.635  14.973
31786W        W95543  17.752   0.313  12.097
31787W        W95544  43.814  35.097  13.434
31788W        W95545  11.160  31.513   3.199
31789W        W95546  33.920  31.935  11.377
31790W        W95547  25.059  30.580  10.465
31791W        W95548  43.456  14.278   2.710
31792W        W95549   4.860   1.294   2.883
31793W        W95550  16.746  24.191  14.384
31794W        W95551   1.972  15.778   3.283
31795W        W95552   0.961  25.487   1.302
31796W        W95553  37.415  30.082  13.807
31797W        W95554  34.031  19.228  14.845
31798W        W95555  16.316   8.372   4.623
31799W        W95556  36.395   2.954   4.279
31800W        W95557  34.584  27.539  11.557
31801W        W95558  18.212  19.168   4.810
31802W        W95559  25.002  36.442   5.286
31803W        W95560  43.766  44.821  11.862
31804W        W95561  43.799  41.826   0.382
31805W        W95562  41.835  20.543   3.371
31806W        W95563  40.503  41.446   4.129
31807W        W95564  12.129   2.723   2.380
31808W        W95565   7.203  14.202  13.519
31809W        W95566  21.067  16.758   3.355
31810W        W95567   2.429  18.073  11.950
31811W        W95568  11.155  30.952  13.914
31812W        W95569   6.781  33.429   2.708
31813W        W95570   1.281  22.694   0.744
31814W        W95571   4.242  18.169   2.740
31815W        W95572  41.991  40.946  10.995
31816W        W95573  18.210  11.136   0.750
31817W        W95574  34.963  33.905   2.300
31818W        W95575  44.890  34.600  14.946
31819W        W95576   6.341   4.261  14.855
31820W        W95577  10.191  41.031  10.483
31821W        W95578  31.600  17.096   3.740
31822W        W95579  14.722  14.752  12.884
31823W        W95580  11.144  20.064   1.277
31824W        W95581  28.622   3.721   2.250
31825W        W95582  22.124  32.902  14.352
31826W        W95583  30.101  19.581  11.031
31827W        W95584  28.014   6.738  11.586
31828W        W95585  22.699  27.660  11.859
31829W        W95586  33.098  40.307   3.840
31830W        W95587   1.923  34.117  13.416
31831W        W95588   6.822  20.648  10.548
31832W        W95589   1.266  44.784  12.417
31833W        W95590  25.168   8.385   1.843
31834W        W95591  12.850  38.992   4.779
31835W        W95592   8.870  23.605  11.042
31836W        W95593   2.955   9.802  11.561
31837W        W95594  14.759  21.524  14.864
31838W        W95595   9.246  29.025   2.279
31839W        W95596  18.279  34.473   2.767
31840W        W95597  36.947  43.305  14.964
31841W        W95598  19.079  37.871   2.292
31842W        W95599  37.579  14.712   1.704
31843W        W95600  42.864   9.236  14.872
31844W        W95601  38.971  30.554   4.606
31845W        W95602  14.635  33.502  12.480
31846W        W95603  13.238  24.556  10.426
31847W        W95604  31.148  19.282  13.397
31848W        W95605   9.196  38.843   1.374
31849W        W95606  23.518  34.069  12.015
31850W        W95607  24.222  44.397  12.905
31851W        W95608  19.576  35.389  14.903
31852W        W95609  25.161   2.238   2.330
31853W        W95610  28.083  29.663   3.367
31854W        W95611  40.381   5.719   0.741
31855W        W95612  16.170  15.249   3.185
31856W        W95613  42.365  14.238   4.254
31857W        W95614   8.725   0.810   4.276
31858W        W95615  23.671   1.287   0.445
31859W        W95616  19.251  10.278   4.191
31860W        W95617  15.085  24.502   3.790
31861W        W95618  15.762  16.224   2.787
31862W        W95619  30.518  36.539   0.936
31863W        W95620  19.745   6.911   4.687
31864W        W95621  17.731  16.803  10.994
31865W        W95622  31.057  35.992  12.488
31866W        W95623  28.635  27.564   2.812
31867W        W95624   6.272  40.816   3.152
31868W        W95625  29.470   2.854   2.806
31869W        W95626  20.248   3.730  11.055
31870W        W95627   7.771  22.128  12.536
31871W        W95628   3.823  20.739  12.824
31872W        W95629  39.851  35.916   2.734
31873W        W95630  26.139  12.665  11.566
31874W        W95631  17.144  43.326   0.462
31875W        W95632  43.318  30.658  10.076
31876W        W95633  18.216  13.294   2.788
31877W        W95634  24.504  22.675  12.570
31878W        W95635  37.497  34.549  11.874
31879W        W95636  25.542  24.197   0.757
31880W        W95637  40.955  24.626   0.933
31881W        W95638  43.457   2.858  12.536
31882W        W95639  11.642   3.955  10.605
31883W        W95640  14.818  11.274   4.161
31884W        W95641  35.094   2.463   0.861
31885W        W95642   0.779  10.247   0.392
31886W        W95643  29.570   9.692  11.396
31887W        W95644  27.457  36.576   1.855
31888W        W95645  21.514   9.702   0.473
31889W        W95646  43.437  39.912  14.782
31890W        W95647  12.222  37.494   3.236
31891W        W95648   7.807  17.275  14.433
31892W        W95649   3.822  16.682  10.545
31893W        W95650  31.024  10.364  13.365
31894W        W95651  15.657  23.005   0.791
31895W        W95652  35.363  22.594   1.402
31896W        W95653  34.058  43.796  14.908
31897W        W95654  15.141  34.997   4.698
31898W        W95655  40.521   1.245   2.222
31899W        W95656  28.605  38.921  14.006
31900W        W95657  21.176   1.892  11.416
31901W        W95658  20.736   1.262   1.808
31902W        W95659  44.816  11.672   4.148
31903W        W95660   8.171  24.039   2.901
31904W        W95661   2.276  19.136  12.918
31905W        W95662  41.509  44.467   2.309
31906W        W95663  38.871  35.034   3.688
31907W        W95664   1.465   8.254  13.015
31908W        W95665  13.703  39.465  14.978
31909W        W95666   6.767  16.267   1.424
31910W        W95667  16.593  11.206   2.197
31911W        W95668  16.709   1.468  11.120
31912W        W95669   2.283   7.857  10.477
31913W        W95670  17.117  22.192   3.743
31914W        W95671  37.062  14.219  13.360
31915W        W95672  37.577   5.360   4.233
31916W        W95673  33.041  43.766  13.437
31917W        W95674  22.542  19.192  12.558
31918W        W95675  34.000  41.378   4.687
31919W        W95676   0.753  28.929  10.033
31920W        W95677  38.437  21.514   2.786
31921W        W95678  16.120  26.978  12.863
31922W        W95679  28.659  21.089   4.173
31923W        W95680  31.604  16.712   4.710
31924W        W95681  43.851  40.410  11.432
31925W        W95682   0.750  44.410   3.304
31926W        W95683  10.329  34.964   3.778
31927W        W95684   9.693  42.787   4.748
31928W        W95685  42.429  32.427  12.560
31929W        W95686   5.882  29.051  10.525
31930W        W95687   4.821  32.103   3.183
31931W        W95688  40.420  38.539   1.239
31932W        W95689  39.393  37.567   2.239
31933W        W95690  26.095  42.330   2.663
31934W        W95691   1.861  37.551  10.023
31935W        W95692   7.355   4.207   1.215
31936W        W95693  39.407  41.480  12.522
31937W        W95694  25.496   8.364  14.467
31938W        W95695   2.293   9.256   1.273
31939W        W95696  44.374  17.175   0.270
31940W        W95697   9.821  35.580   3.870
31941W        W95698  43.408  14.644  12.892
31942W        W95699  37.548   1.476   2.824
31943W        W95700  11.233  22.178   1.299
31944W        W95701  43.902  14.325   3.809
31945W        W95702  33.017  10.877  14.819
31946W        W95703   7.220  37.925  13.948
31947W        W95704  27.163  20.609   0.828
31948W        W95705  42.775   9.672  14.485
31949W        W95706  14.145  32.398   3.724
31950W        W95707  25.505  19.255  12.578
31951W        W95708   4.781  14.718   3.160
31952W        W95709  40.464  34.056  14.002
31953W        W95710  20.029  39.437  10.496
31954W        W95711  17.673  14.642  12.914
31955W        W95712  42.465  16.229  11.998
31956W        W95713  11.236  27.644   4.335
31957W        W95714   8.662  40.354  10.060
31958W        W95715  10.248  43.791  11.979
31959W        W95716   5.747   6.396   4.831
31960W        W95717  17.651  30.014   4.153
31961W        W95718  43.984  11.282   1.440
31962W        W95719  16.649  17.784   2.395
31963W        W95720  42.364   5.228  14.418
31964W        W95721  12.231  19.217  12.913
31965W        W95722   0.791  10.295  14.496
31966W        W95723  13.322  18.602  11.049
31967W        W95724  29.973   2.431   3.684
31968W        W95725  31.490   8.260  11.382
31969W        W95726  18.074  22.006  14.867
31970W        W95727  17.601   7.378   0.366
31971W        W95728  14.191   9.782  11.550
31972W        W95729  15.134  36.593   0.396
31973W        W95730  32.493   1.267   0.859
31974W        W95731   7.911  38.060  12.074
31975W        W95732  33.415  40.801  12.553
31976W        W95733  22.733  39.480  11.984
31977W        W95734   3.330  33.998  13.384
31978W        W95735  38.993  17.152  14.863
31979W        W95736  12.328  16.664   4.606
31980W        W95737  21.069  16.798   0.728
31981W        W95738  40.850  32.071  11.925
31982W        W95739  36.466  15.227  14.017
31983W        W95740  12.131  20.256  14.445
31984W        W95741  23.044   3.267  11.869
31985W        W95742   1.275   7.188  14.772
31986W        W95743   0.907   8.406   3.260
31987W        W95744  14.340  33.476   2.762
31988W        W95745   2.827  20.620   4.793
31989W        W95746   6.878  15.629   0.830
31990W        W95747  39.874  39.843  10.933
31991W        W95748  38.527  12.335   4.766
31992W        W95749  17.247   9.716  14.352
31993W        W95750   8.261   7.768   2.688
31994W        W95751  26.555  38.502  10.502
31995W        W95752  30.939  34.996   2.198
31996W        W95753  15.202  35.527   4.241
31997W        W95754   2.950  11.217   4.315
31998W        W95755  14.275  10.332  12.506
31999W        W95756  41.452  21.220   0.373
32000W        W95757  42.948  31.056   0.302
32001W        W95758   5.875  22.115  14.986
32002W        W95759  21.093  20.762   1.220
32003W        W95760  32.948  37.579   3.252
32004W        W95761   1.404  32.118   4.125
32005W        W95762  10.142  11.175  10.158
32006W        W95763  28.463  32.951   3.311
32007W        W95764   5.393  29.019  13.827
32008W        W95765   3.281  37.985   4.311
32009W        W95766  30.020  15.607   3.775
32010W        W95767  40.026  23.039  10.964
32011W        W95768  17.749   0.814   3.181
32012W        W95769  37.050  44.443   3.789
32013W        W95770  18.105  26.676  14.445
32014W        W95771  22.541  28.466  11.453
32015W        W95772  32.596  39.873  14.339
32016W        W95773   6.914  20.565   2.391
32017W        W95774  23.118  11.293   3.803
32018W        W95775  19.168  27.179  11.905
32019W        W95776   4.890  22.583   1.709
32020W        W95777  43.991  32.118   0.371
32021W        W95778  35.027  38.469  12.838
32022W        W95779  31.937   5.927   4.669
32023W        W95780  33.441  23.694   0.787
32024W        W95781  32.611   3.363   0.844
32025W        W95782   2.787  26.008   0.274
32026W        W95783  12.361  27.153  13.939
32027W        W95784  26.026  41.904   1.288
32028W        W95785  40.482  22.024  11.054
32029W        W95786  23.181  37.379   3.198
32030W        W95787   7.710  38.386  11.958
32031W        W95788  12.131  26.576  12.527
32032W        W95789  41.301  35.358  13.887
32033W        W95790  37.365   3.388  13.845
32034W        W95791  30.420  11.867  11.052
32035W        W95792  28.665   7.333   3.252
32036W        W95793  31.105  40.445  14.780
32037W        W95794  39.387   9.655   4.311
32038W        W95795   0.423  44.432  12.438
32039W        W95796   7.680  10.281   4.629
32040W        W95797   4.865   2.906  12.050
32041W        W95798   2.312  34.904  11.375
32042W        W95799   2.808   0.756   1.908
32043W        W95800   5.321  27.491   2.365
32044W        W95801   5.228  32.539  12.908
32045W        W95802  26.461  21.220   9.940
32046W        W95803  17.745  26.161   1.226
32047W        W95804   4.857  11.715   4.773
32048W        W95805  16.745  10.371   4.695
32049W        W95806   5.847  42.944   0.260
32050W        W95807  27.671   2.912  11.095
32051W        W95808   0.978  18.261   3.202
32052W        W95809  25.501  44.901   0.791
32053W        W95810  34.009   9.797   0.944
32054W        W95811  36.893  28.040   0.855
32055W        W95812  39.445  17.600   0.247
32056W        W95813  41.966  16.627   1.414
32057W        W95814  36.418  27.584  12.823
32058W        W95815   1.876  39.405   0.925
32059W        W95816  13.611  17.153  10.585
32060W        W95817   9.303  32.523  14.872
32061W        W95818  10.207  32.475   1.268
32062W        W95819  19.642   5.849   4.621
32063W        W95820  20.625  15.668   9.626
32064W        W95821  37.506  41.933   0.944
32065W        W95822  13.269   5.823   3.241
32066W        W95823  33.919   4.272   5.303
32067W        W95824  21.749  38.029  11.965
32068W        W95825   1.246  18.744   1.361
32069W        W95826  27.135   6.409   3.259
32070W        W95827   4.756  35.966  11.933
32071W        W95828  26.593  29.614   2.868
32072W        W95829  27.596  27.650  13.497
32073W        W95830  35.048   1.441  14.397
32074W        W95831  30.110  23.576  12.853
32075W        W95832   7.723   2.421   1.288
32076W        W95833  40.447  14.689  11.610
32077W        W95834  35.021  22.643  11.993
32078W        W95835   3.328   7.289  11.107
32079W        W95836   5.732  13.279  12.525
32080W        W95837  40.871  24.533  10.600
32081W        W95838  30.635  18.223  11.897
32082W        W95839   9.299   3.285   1.344
32083W        W95840  35.968  31.943  12.554
32084W        W95841   7.694   3.730  13.025
32085W        W95842   8.885   5.738  12.490
32086W        W95843   5.846  18.201   1.283
32087W        W95844   2.813  41.508  14.286
32088W        W95845  12.698   2.318  13.437
32089W        W95846   3.325  31.407  11.062
32090W        W95847   0.830  37.017  14.882
32091W        W95848  32.515  37.082  11.970
32092W        W95849  19.073   1.423   2.729
32093W        W95850  34.513   9.813  14.942
32094W        W95851  17.291   7.702  11.085
32095W        W95852   8.211  34.463   3.680
32096W        W95853  10.372  36.438   0.857
32097W        W95854   2.821  25.552   2.853
32098W        W95855  43.795  42.489  10.565
32099W        W95856  14.631  27.471  13.410
32100W        W95857   3.274  30.586   0.318
32101W        W95858  18.168   4.447  10.642
32102W        W95859   2.962  19.091   4.625
32103W        W95860  34.906  38.558  11.942
32104W        W95861  10.275  24.714  12.516
32105W        W95862  16.171  13.614   4.161
32106W        W95863   3.894   1.375   2.841
32107W        W95864  28.606   3.440   0.265
32108W        W95865  41.023  10.261  10.432
32109W        W95866   3.799  21.712   3.335
32110W        W95867  21.571   7.688  14.458
32111W        W95868  20.151  10.770   0.820
32112W        W95869  29.571  33.595  13.019
32113W        W95870  15.181   0.857  13.310
32114W        W95871   7.769  25.103  12.970
32115W        W95872  12.233   5.715   4.351
32116W        W95873  20.769  39.422   1.352
32117W        W95874  33.126  16.695  14.921
32118W        W95875  20.708  41.304   4.352
32119W        W95876   2.337  16.204  12.396
32120W        W95877  19.276   6.384   1.769
32121W        W95878  32.430  15.189  12.086
32122W        W95879   5.906  44.322   0.344
32123W        W95880  42.325  30.459  13.311
32124W        W95881   2.388  36.898  12.893
32125W        W95882  44.864  39.939   4.608
32126W        W95883   8.690  17.294   4.157
32127W        W95884  29.965  23.536   0.894
32128W        W95885  12.774   9.237   2.336
32129W        W95886  40.971   3.383  13.040
32130W        W95887  41.005  10.766  11.555
32131W        W95888   0.876   7.714   1.756
32132W        W95889   9.200  41.491  13.537
32133W        W95890   7.833  40.833   9.631
32134W        W95891  13.776  41.471  14.978
32135W        W95892  42.503  14.656  11.423
32136W        W95893  31.514  24.103   2.392
32137W        W95894  39.480  17.689  13.849
32138W        W95895  44.925  44.960   2.320
32139W        W95896  37.414  34.888  11.512
32140W        W95897  27.034  34.037   2.380
32141W        W95898  16.789  32.560  12.517
32142W        W95899  27.526  29.495  11.919
32143W        W95900  43.912  24.189  11.907
32144W        W95901   2.453  31.482   3.271
32145W        W95902  15.139  25.476  10.964
32146W        W95903   0.915  13.253  11.470
32147W        W95904   8.379  31.967  11.057
32148W        W95905  29.067  11.295   2.889
32149W        W95906   2.232  10.842   2.336
32150W        W95907  34.481  21.171  14.831
32151W        W95908   3.810  31.479   0.775
32152W        W95909   3.900   8.289   4.676
32153W        W95910  15.113  28.105  10.938
32154W        W95911   8.243  35.418   1.866
32155W        W95912  33.018   8.890  14.396
32156W        W95913  24.042  19.536   0.799
32157W        W95914  22.722   8.667  12.553
32158W        W95915  14.799   3.839   1.759
32159W        W95916  34.045  11.245   1.901
32160W        W95917  26.989  38.377  10.960
32161W        W95918  32.125  20.694  14.819
32162W        W95919  18.759  42.798  11.895
32163W        W95920  10.311  12.173   3.629
32164W        W95921  26.024  41.477  11.886
32165W        W95922  23.611  13.711   3.217
32166W        W95923  22.176  27.522  10.919
32167W        W95924   0.475  25.652  10.481
32168W        W95925   7.683  38.029   1.425
32169W        W95926  19.243  19.758   2.866
32170W        W95927   6.854   2.937  12.381
32171W        W95928  35.424  38.327   0.381
32172W        W95929   4.777  31.071  10.114
32173W        W95930  18.605  34.044  14.873
32174W        W95931  18.094  26.474   0.858
32175W        W95932  20.753   2.370  11.594
32176W        W95933  28.117   0.786   2.327
32177W        W95934   5.768  17.091  12.417
32178W        W95935  44.811  30.557  10.909
32179W        W95936  25.667   0.748  11.471
32180W        W95937  21.559   0.925   2.313
32181W        W95938  42.508  38.521  12.339
32182W        W95939   2.383  40.342   3.278
32183W        W95940   0.431   9.688  12.422
32184W        W95941  39.024  25.035   2.770
32185W        W95942  36.900  21.738  14.968
32186W        W95943  36.410  41.034  10.485
32187W        W95944   6.308  29.553   4.653
32188W        W95945  11.252   3.395   2.863
32189W        W95946  13.300  36.557   0.392
32190W        W95947  14.745  12.315  11.563
32191W        W95948  11.643  36.574  14.955
32192W        W95949  11.827  29.454  13.053
32193W        W95950  24.606   5.832  11.107
32194W        W95951  38.004  42.878   5.260
32195W        W95952  17.254  37.015  10.607
32196W        W95953  24.491   4.753   3.378
32197W        W95954  43.429  23.714  12.563
32198W        W95955  42.961   0.479  11.930
32199W        W95956  25.212  18.692   0.877
32200W        W95957   7.407  19.236  12.072
32201W        W95958  29.049  28.996  11.550
32202W        W95959  28.057  27.464  12.857
32203W        W95960  18.101  18.196  11.010
32204W        W95961  43.439   3.893   0.464
32205W        W95962  19.148  39.483  10.940
32206W        W95963   1.895   5.708   2.179
32207W        W95964   5.832  16.182   2.361
32208W        W95965   2.463  27.665  10.896
32209W        W95966  19.204   2.372  12.910
32210W        W95967  44.451  10.381   1.766
32211W        W95968  42.824  44.950  10.440
32212W        W95969  32.998  11.323   1.269
32213W        W95970  34.018  13.176   1.413
32214W        W95971   1.811  18.641   4.787
32215W        W95972   9.320  40.974   4.626
32216W        W95973  29.518  29.006   3.683
32217W        W95974  18.091  44.985  11.877
32218W        W95975  25.669   9.183   2.723
32219W        W95976  35.434  20.171  14.364
32220W        W95977  12.319  14.265   0.783
32221W        W95978   6.710  38.948  11.481
32222W        W95979  34.603  36.985   2.233
32223W        W95980  32.532  33.453  14.008
32224W        W95981  30.104   5.765  14.278
32225W        W95982  29.424   1.265  14.846
32226W        W95983  31.481  25.550  12.392
32227W        W95984  36.510  43.363   0.252
32228W        W95985  41.316  24.215   1.828
32229W        W95986   1.861  20.116  13.976
32230W        W95987   2.252  19.603   4.620
32231W        W95988  16.183  36.873   0.760
32232W        W95989   8.181   2.383  11.458
32233W        W95990  38.819  40.460   4.617
32234W        W95991  43.916  28.666   0.484
32235W        W95992   5.369  24.100   3.830
32236W        W95993  24.530   9.752  11.432
32237W        W95994   2.742  27.187  12.002
32238W        W95995  30.005  15.624   9.652
32239W        W95996  22.106  30.124  14.498
32240W        W95997   7.231  31.132  13.894
32241W        W95998  41.329  37.526   3.379
32242W        W95999  23.571  27.963  12.387
32243W        W96000  22.028   5.882   1.711
32244W        W96001  29.163  13.705   0.473
32245W        W96002  27.170  26.529  11.575
32246W        W96003  38.843  17.686   2.405
32247W        W96004  43.015  13.602  11.416
32248W        W96005  31.026  14.768  11.458
32249W        W96006   1.890   7.281   0.265
32250W        W96007  40.391  11.816   3.861
32251W        W96008  42.325  29.577  12.013
32252W        W96009   7.905  38.031  11.442
32253W        W96010  31.056  33.920  13.963
32254W        W96011  44.922  40.445  10.467
32255W        W96012  26.977  18.574  14.782
32256W        W96013  29.628  24.572   0.863
32257W        W96014  13.773  44.005   3.333
32258W        W96015   8.343  35.971  12.009
32259W        W96016   5.395  10.211   1.437
32260W        W96017  24.504  31.955   4.194
32261W        W96018  21.701  26.580   0.810
32262W        W96019  29.468  13.770   0.373
32263W        W96020  17.076  24.632  13.914
32264W        W96021  41.978   5.267   3.341
32265W        W96022  21.222  24.487   0.336
32266W        W96023  27.077  37.344  12.356
32267W        W96024  14.809  12.750  14.491
32268W        W96025  32.536   8.165  13.839
32269W        W96026  37.982  25.116   0.411
32270W        W96027  39.319  13.303  11.109
32271W        W96028  24.002  10.743   1.786
32272W        W96029   8.222  19.152   0.342
32273W        W96030  14.814  10.669   2.820
32274W        W96031   8.802  23.106  10.527
32275W        W96032  27.554  21.545  14.026
32276W        W96033  39.903  16.708   2.395
32277W        W96034  13.636   5.882  11.505
32278W        W96035   2.414  22.596   2.228
32279W        W96036  25.662  44.336   4.310
32280W        W96037  36.461  42.816   1.881
32281W        W96038  10.665  42.404  13.829
32282W        W96039   4.401  35.857  10.587
32283W        W96040  34.085  41.034   2.236
32284W        W96041  36.844  13.269   2.253
32285W        W96042   2.878   7.874   1.344
32286W        W96043   6.203   8.309  14.433
32287W        W96044  33.460   3.913   9.628
32288W        W96045   7.685  29.005   3.326
32289W        W96046  40.866  15.119   1.696
32290W        W96047  20.271  28.538   3.169
32291W        W96048  15.665  23.525  12.369
32292W        W96049  20.678  27.445  10.595
32293W        W96050  27.128  28.029   1.801
32294W        W96051  33.380  17.693   1.389
32295W        W96052   0.417  25.160   3.145
32296W        W96053  18.270  43.774   1.817
32297W        W96054  32.102  35.041   0.347
32298W        W96055  20.141  42.983  10.520
32299W        W96056   0.417   5.848   0.413
32300W        W96057  33.552  29.170  13.867
32301W        W96058   1.790  12.182  10.494
32302W        W96059  14.774   3.347   3.723
32303W        W96060   8.306  13.118   2.831
32304W        W96061  37.480   4.247  11.489
32305W        W96062  33.462  37.861  10.590
32306W        W96063  10.757  41.804  11.572
32307W        W96064  24.117   5.916   4.609
32308W        W96065  30.545   2.333  11.600
32309W        W96066  39.045  37.578  11.378
32310W        W96067  13.287  24.231  14.777
32311W        W96068  37.842  38.487  10.937
32312W        W96069   3.329  25.535  13.856
32313W        W96070  44.873  24.022  12.369
32314W        W96071  34.022   8.167   0.301
32315W        W96072  16.702  11.807   3.244
32316W        W96073   9.212  22.100   4.352
32317W        W96074  13.237  31.026  12.025
32318W        W96075  12.119   5.827   3.835
32319W        W96076   9.203   6.336  13.914
32320W        W96077  12.217  24.058   0.304
32321W        W96078   5.231   8.260   0.358
32322W        W96079  38.422  13.708   1.218
32323W        W96080  26.685  39.388   2.260
32324W        W96081  18.074  36.563  12.079
32325W        W96082   9.864  40.905   2.872
32326W        W96083  14.716  28.615  13.903
32327W        W96084  12.272  40.978  14.452
32328W        W96085  17.599   7.826  13.925
32329W        W96086  12.616  39.942  10.492
32330W        W96087  41.009   8.255  14.911
32331W        W96088  26.181  21.017  10.602
32332W        W96089  22.620  38.347  11.905
32333W        W96090  13.261  33.017   0.937
32334W        W96091  20.738  43.271   1.341
32335W        W96092  34.402   6.271  10.445
32336W        W96093  43.856  24.614   0.841
32337W        W96094  38.016  19.601   4.781
32338W        W96095  40.356  28.077  10.141
32339W        W96096  15.279  29.585  13.341
32340W        W96097  23.678  37.525  11.893
32341W        W96098   8.863   3.221   2.181
32342W        W96099   4.285  19.727   4.305
32343W        W96100  22.143   1.847   4.691
32344W        W96101  24.214  11.181  11.596
32345W        W96102  34.887  18.693  12.836
32346W        W96103  28.031  37.878   0.389
32347W        W96104   4.710  39.917  11.471
32348W        W96105  23.729  14.178  14.857
32349W        W96106   8.390  21.186  11.035
32350W        W96107  13.210  15.606   1.428
32351W        W96108  43.280   9.779   1.827
32352W        W96109   8.350  24.052  13.057
32353W        W96110   0.747  13.184   1.901
32354W        W96111   8.872  24.086  14.912
32355W        W96112   8.832  31.572  12.053
32356W        W96113  43.910  10.197  14.999
32357W        W96114  30.997  38.465  11.453
32358W        W96115  30.453  38.388  12.981
32359W        W96116   3.247  13.713   3.842
32360W        W96117  42.282  41.896   0.753
32361W        W96118  35.948  42.422   4.172
32362W        W96119  25.612  27.058  14.852
32363W        W96120   5.847  31.410  10.493
32364W        W96121  24.680  33.043  14.396
32365W        W96122   7.688  29.935  13.496
32366W        W96123  16.195  33.404  13.311
32367W        W96124  29.533  28.589  13.510
32368W        W96125  30.000   8.666   1.720
32369W        W96126   6.305  36.351  12.517
32370W        W96127   6.766   7.690   0.407
32371W        W96128  21.258  13.216   2.679
32372W        W96129  28.599  18.167  11.121
32373W        W96130   0.358  39.423  14.437
32374W        W96131   4.777  14.239   1.305
32375W        W96132  13.157   8.205  10.588
32376W        W96133  13.280  32.574   4.232
32377W        W96134  15.662  25.980   2.749
32378W        W96135  34.570  27.449   3.814
32379W        W96136   3.743  28.460   2.398
32380W        W96137  11.762  38.435  12.890
32381W        W96138  28.973  25.496  13.920
32382W        W96139   7.712   8.260  14.421
32383W        W96140   4.731  24.191   3.761
32384W        W96141  23.113  25.063  13.835
32385W        W96142  22.106  39.524  12.936
32386W        W96143  31.062  15.171   2.350
32387W        W96144  11.180  31.910   3.240
32388W        W96145  21.083  27.110  12.578
32389W        W96146  35.481  21.249   3.363
32390W        W96147  14.808   8.175   2.837
32391W        W96148   7.882  30.494   4.159
32392W        W96149  44.860   5.404  11.040
32393W        W96150  13.109  20.180   2.384
32394W        W96151  43.322  20.648  13.539
32395W        W96152  13.149   6.888  14.009
32396W        W96153  43.394  43.766   0.442
32397W        W96154  28.933  10.225  13.819
32398W        W96155   3.855  10.704   0.263
32399W        W96156  18.283  38.420   3.305
32400W        W96157   8.797   9.351  12.968
32401W        W96158  18.685  29.139   3.680
32402W        W96159  11.646  22.174  11.445
32403W        W96160   6.834  22.013  13.456
32404W        W96161  23.509  34.058   4.606
32405W        W96162  37.040   3.218   2.848
32406W        W96163  40.303  42.358  12.838
32407W        W96164  24.558  17.249   1.449
32408W        W96165  44.920  23.534  14.356
32409W        W96166  36.850   7.837   2.209
32410W        W96167  40.352  23.223  12.927
32411W        W96168   6.347  44.361  11.908
32412W        W96169  29.476   5.309  11.856
32413W        W96170  43.772   0.397   0.832
32414W        W96171  31.903  43.807   3.186
32415W        W96172  12.281   0.464  13.042
32416W        W96173   6.750   0.342  14.320
32417W        W96174  25.138  31.433  12.973
32418W        W96175  38.425  24.717  14.001
32419W        W96176  28.625   3.391  13.810
32420W        W96177   0.439  18.279   2.867
32421W        W96178   7.816   3.235  14.390
32422W        W96179  11.172  44.813  10.406
32423W        W96180   5.769  13.114  13.916
32424W        W96181  20.733  27.197   1.257
32425W        W96182  20.131  28.680   0.749
32426W        W96183  26.651  14.244  14.772
32427W        W96184  36.527  29.054  13.857
32428W        W96185  26.475  37.046  10.985
32429W        W96186   6.799  34.921  10.904
32430W        W96187  35.074  33.016  12.884
32431W        W96188  21.592  26.080   2.192
32432W        W96189  32.086   4.751  11.426
32433W        W96190   5.815  42.964   2.388
32434W        W96191  29.656  17.137   1.399
32435W        W96192   9.681   1.240   0.952
32436W        W96193  12.319  36.561   2.413
32437W        W96194  10.764  19.205   3.227
32438W        W96195  18.056  42.823   0.912
32439W        W96196  36.463   0.350  13.386
32440W        W96197   3.835  25.497   4.325
32441W        W96198   8.291  32.465  10.970
32442W        W96199  11.151   2.422  11.050
32443W        W96200  14.808   2.396  12.858
32444W        W96201  24.089  11.695   1.328
32445W        W96202   6.243  24.647   3.349
32446W        W96203  11.823  16.127  12.972
32447W        W96204  28.947  23.160  10.458
32448W        W96205  19.266   3.822  12.989
32449W        W96206  22.102  22.607   0.942
32450W        W96207  20.148   1.360   3.213
32451W        W96208  17.726   9.265   3.749
32452W        W96209  44.795  23.996  10.572
32453W        W96210   7.320   2.748  12.068
32454W        W96211  21.020  31.091   1.927
32455W        W96212  14.737  10.761   1.802
32456W        W96213   6.770   9.389   0.733
32457W        W96214  25.557   8.265  10.912
32458W        W96215  43.977  39.546   1.264
32459W        W96216  23.559  38.059  13.913
32460W        W96217  44.385  36.349  11.905
32461W        W96218   6.740   9.824   4.113
32462W        W96219  14.333   7.191   3.365
32463W        W96220  11.625  14.155   4.752
32464W        W96221  11.696  23.014  13.452
32465W        W96222   3.249  29.592  11.584
32466W        W96223  23.515  26.149  14.769
32467W        W96224   2.837  10.271   0.842
32468W        W96225   7.286   7.725  11.509
32469W        W96226  30.097  28.645   2.759
32470W        W96227  19.161   2.878  11.121
32471W        W96228  16.775  12.786   4.317
32472W        W96229  23.681  17.691  14.903
32473W        W96230  17.135  40.421   2.757
32474W        W96231  12.845  37.060   2.706
32475W        W96232  34.934  27.482   2.767
32476W        W96233   9.242  30.102  12.470
32477W        W96234   7.809   0.837  12.511
32478W        W96235   2.459  40.904   4.792
32479W        W96236  30.947  41.814   1.363
32480W        W96237  44.305  40.483   1.283
32481W        W96238  32.635  38.381  11.088
32482W        W96239  21.757   2.405   2.889
32483W        W96240  28.643   2.328   2.828
32484W        W96241  15.782  13.653   0.761
32485W        W96242  10.763  26.194   0.862
32486W        W96243  38.509  13.297  13.466
32487W        W96244  16.132  25.545   1.861
32488W        W96245  22.559  36.550  12.520
32489W        W96246   1.876  28.089   0.399
32490W        W96247   4.441  23.146   3.311
32491W        W96248  13.250  21.203  10.615
32492W        W96249   2.374  33.013  10.405
32493W        W96250  27.121  18.196  10.499
32494W        W96251  16.201  11.671  10.010
32495W        W96252  34.481  34.580  13.492
32496W        W96253   7.674   4.374  10.483
32497W        W96254  40.878  13.250  14.411
32498W        W96255   4.217  23.514   2.867
32499W        W96256  38.467  16.678  13.939
32500W        W96257  25.511  24.665   3.252
32501W        W96258  11.852  12.328   0.789
32502W        W96259  35.499  21.708  13.500
32503W        W96260   7.718  37.019  14.356
32504W        W96261  17.247  20.685  11.129
32505W        W96262   1.382  15.201   3.841
32506W        W96263  39.317  15.673  12.948
32507W        W96264  20.523  23.518  13.422
32508W        W96265  32.931  39.522   2.321
32509W        W96266  15.220  23.577   3.856
32510W        W96267  32.611  26.996   2.184
32511W        W96268  38.989  40.016   3.779
32512W        W96269  14.315  36.377  10.563
32513W        W96270  25.523  43.847   2.256
32514W        W96271   5.717  18.661   1.849
32515W        W96272   4.931  32.011  13.988
32516W        W96273  27.023  11.791  14.284
32517W        W96274   3.233  26.495  12.359
32518W        W96275  10.671   6.409   1.409
32519W        W96276  35.853  23.171  14.434
32520W        W96277   4.291  36.915  13.014
32521W        W96278  25.559   2.734  12.414
32522W        W96279  22.611  19.727   5.240
32523W        W96280  29.474   2.797  13.895
32524W        W96281  20.070  15.186  14.825
32525W        W96282  10.222  25.531  10.596
32526W        W96283  18.162   3.267  12.454
32527W        W96284  25.651   9.837   1.231
32528W        W96285  16.285  42.827  14.322
32529W        W96286  23.537  37.085   2.361
32530W        W96287  11.228  36.404  14.429
32531W        W96288  30.614   3.759  14.443
32532W        W96289  31.922  21.540   1.363
32533W        W96290  18.214  36.055  14.382
32534W        W96291  24.524  39.370  12.523
32535W        W96292   7.715   0.781   4.279
32536W        W96293  27.554  32.419  13.472
32537W        W96294  14.193  32.951   9.955
32538W        W96295  18.720  11.221  13.508
32539W        W96296  26.130   4.428   2.787
32540W        W96297  13.698   8.804  11.089
32541W        W96298  23.141  26.505  14.824
32542W        W96299  27.526   5.200   3.759
32543W        W96300  41.862  17.632   3.151
32544W        W96301  40.865  24.987  10.923
32545W        W96302  24.991   2.312  13.911
32546W        W96303  18.177  23.066  12.002
32547W        W96304  32.489  23.540   0.932
32548W        W96305  25.497   0.444  12.921
32549W        W96306  25.060   2.787  11.006
32550W        W96307  41.941  43.875  11.462
32551W        W96308  14.184   8.216  12.040
32552W        W96309  19.268  31.562  12.961
32553W        W96310   8.314  16.250  14.457
32554W        W96311  20.060  33.438  11.918
32555W        W96312  19.733   9.764  11.892
32556W        W96313  44.283   4.281  14.781
32557W        W96314  42.486   8.208  13.308
32558W        W96315   3.236   4.895   3.202
32559W        W96316  36.887  15.285   0.750
32560W        W96317  22.110  29.961   4.826
32561W        W96318  11.788  26.506   3.255
32562W        W96319  35.988  23.693  14.362
32563W        W96320  17.615  22.507   3.637
32564W        W96321  40.926  13.132  10.630
32565W        W96322  43.437  13.750  11.125
32566W        W96323  32.938  35.072   1.810
32567W        W96324  35.452  29.666   2.776
32568W        W96325  12.178  25.627  12.466
32569W        W96326  19.546  25.977  12.005
32570W        W96327   8.703  19.232  14.426
32571W        W96328  28.538   2.309  13.900
32572W        W96329  36.438   1.294   2.413
32573W        W96330  34.516  14.679  10.603
32574W        W96331  18.195   5.704   1.778
32575W        W96332  40.947  19.271  10.612
32576W        W96333   5.873   6.899  12.572
32577W        W96334   6.838  41.502  13.009
32578W        W96335   2.882  27.144  14.362
32579W        W96336   4.905   1.305   1.702
32580W        W96337  31.944   2.941  14.892
32581W        W96338  20.692  39.975   2.883
32582W        W96339  34.052  27.153  14.903
32583W        W96340  35.029  20.701   4.273
32584W        W96341  22.667  16.614   3.687
32585W        W96342  16.580  35.868  11.092
32586W        W96343  37.473  40.952  14.018
32587W        W96344   0.359  33.977   2.338
32588W        W96345  14.250  18.787  11.569
32589W        W96346  42.282   1.321  11.570
32590W        W96347  22.528  24.655  14.963
32591W        W96348  40.370  13.148  11.981
32592W        W96349  13.690  21.664  13.049
32593W        W96350  28.140   5.381   2.192
32594W        W96351   6.354  42.968  10.897
32595W        W96352   2.352  38.934  13.334
32596W        W96353  43.996   2.236   0.820
32597W        W96354   6.763  44.895  14.758
32598W        W96355  28.649  42.906  13.948
32599W        W96356  32.920  28.522  12.430
32600W        W96357  28.003  20.560   0.776
32601W        W96358  14.722   7.735   0.861
32602W        W96359  44.836   0.921   2.735
32603W        W96360   3.396  28.546  11.889
32604W        W96361  40.051  33.961  12.504
32605W        W96362  42.018  33.535   2.711
32606W        W96363   2.252  13.607   4.287
32607W        W96364  32.998  11.853   4.764
32608W        W96365  26.671  42.999   3.736
32609W        W96366  39.010  28.996   4.282
32610W        W96367  33.383  32.952   3.375
32611W        W96368  14.326  23.567   0.963
32612W        W96369  11.811   0.857   4.205
32613W        W96370   7.666   0.347  13.426
32614W        W96371  35.406  40.451  14.801
32615W        W96372  44.770  43.942   4.240
32616W        W96373  30.999  44.357  13.042
32617W        W96374  38.919   3.765  14.415
32618W        W96375  42.934  29.434   1.377
32619W        W96376  13.652  38.383  13.353
32620W        W96377  15.710   8.739  10.479
32621W        W96378   2.371  22.233  12.516
32622W        W96379   0.422  44.894  14.803
32623W        W96380  11.367  21.665  12.441
32624W        W96381  17.661  31.962   4.619
32625W        W96382  15.597  42.492  12.423
32626W        W96383  34.467  16.091   3.853
32627W        W96384   6.185   1.303  14.364
32628W        W96385  39.889   1.239   1.758
32629W        W96386   7.299  31.984   0.382
32630W        W96387  22.691   0.313   4.117
32631W        W96388  29.092  13.343  11.899
32632W        W96389  16.724  26.156   0.421
32633W        W96390   3.392  19.050   4.674
32634W        W96391  17.163  31.013   1.343
32635W        W96392   0.754  32.563   3.163
32636W        W96393  33.881  21.100  13.926
32637W        W96394  37.848   7.752  11.110
32638W        W96395  21.064   5.228  14.024
32639W        W96396  38.406  36.868  13.429
32640W        W96397  44.983  14.793  13.977
32641W        W96398  15.225  11.348   0.420
32642W        W96399   7.821  23.059   1.284
32643W        W96400  44.453  38.925   3.236
32644W        W96401  26.991   1.271   4.186
32645W        W96402  30.102  21.100  14.511
32646W        W96403  13.741  26.188  10.925
32647W        W96404  40.410  38.003   4.678
32648W        W96405  28.643  38.506  12.973
32649W        W96406  14.824  31.586  13.049
32650W        W96407  20.162  34.909   3.688
32651W        W96408  22.112  40.383  14.865
32652W        W96409   9.392  39.985   4.792
32653W        W96410  39.508  14.605  13.921
32654W        W96411  44.263  24.104   1.714
32655W        W96412  35.482  26.122   1.286
32656W        W96413  25.525  25.493   3.211
32657W        W96414  39.487   1.778  13.547
32658W        W96415  35.068  33.114  13.453
32659W        W96416  30.138  41.449   1.212
32660W        W96417   1.834   4.342  12.875
32661W        W96418  43.392  23.685   4.629
32662W        W96419   2.433   3.435  11.479
32663W        W96420  34.895   5.426  11.880
32664W        W96421  22.651  14.685  10.556
32665W        W96422  17.716  30.438  14.467
32666W        W96423  17.305  25.159  10.119
32667W        W96424  21.246  39.422  11.091
32668W        W96425  13.233  18.766  13.395
32669W        W96426  40.930  41.360   0.329
32670W        W96427  25.151  43.020  14.493
32671W        W96428  29.151  13.261   0.936
32672W        W96429  41.386   0.810   0.439
32673W        W96430  39.476  22.716  10.554
32674W        W96431  11.766  14.734   2.318
32675W        W96432  36.475  15.641  14.368
32676W        W96433  21.677  17.726   1.256
32677W        W96434  13.259  18.269  10.596
32678W        W96435  34.404  16.668   3.153
32679W        W96436  43.898  18.265   0.876
32680W        W96437  39.429  39.908  13.802
32681W        W96438   8.806  42.831  14.507
32682W        W96439  16.761  31.462  13.444
32683W        W96440  37.832  26.547  10.972
32684W        W96441   9.350  10.278   9.979
32685W        W96442  15.719   3.270   0.878
32686W        W96443  12.146  23.691  11.417
32687W        W96444  35.921  28.543   5.698
32688W        W96445  44.915  41.507  13.804
32689W        W96446  35.365  41.446   1.857
32690W        W96447  28.956  33.512   1.225
32691W        W96448   5.743  12.710  14.303
32692W        W96449  42.388  17.282   0.425
32693W        W96450  20.137  23.700   0.819
32694W        W96451  22.720   6.210  10.638
32695W        W96452   2.387  33.621   2.687
32696W        W96453  19.534   3.874   3.379
32697W        W96454   1.483  32.511  13.849
32698W        W96455  13.831  10.358  14.990
32699W        W96456  16.270   5.232   3.353
32700W        W96457  20.270  16.797   2.359
32701W        W96458  26.019   0.842   0.824
32702W        W96459  12.128  44.328   4.309
32703W        W96460  10.685  15.292  13.812
32704W        W96461  40.398   4.439  12.369
32705W        W96462  32.517  41.448  10.144
32706W        W96463  43.435  30.647  13.869
32707W        W96464   1.380   1.331  11.454
32708W        W96465  32.584   6.806   2.771
32709W        W96466   5.192  25.490  12.019
32710W        W96467  29.588  41.400   0.814
32711W        W96468  20.526  12.152  13.322
32712W        W96469  35.597  38.536   4.655
32713W        W96470   8.250  34.095  12.096
32714W        W96471  22.112  33.892   3.222
32715W        W96472  16.160   4.943   0.915
32716W        W96473  23.713  18.251  13.939
32717W        W96474  40.956   3.447  10.004
32718W        W96475  42.811  10.148   5.263
32719W        W96476  19.743  29.452   2.352
32720W        W96477   0.773  26.467   2.362
32721W        W96478  35.893   8.234   1.260
32722W        W96479  43.336  39.898  13.798
32723W        W96480  39.051  28.455   3.793
32724W        W96481  41.528   7.720   0.741
32725W        W96482   5.281   4.337  14.470
32726W        W96483  32.029   4.312  14.879
32727W        W96484  44.287  19.198   0.481
32728W        W96485   5.282  44.285   2.286
32729W        W96486  32.959   7.412  14.944
32730W        W96487   2.466   1.962  14.881
32731W        W96488   3.935  33.410  14.333
32732W        W96489  36.061  35.414   2.372
32733W        W96490   1.770  41.809  14.382
32734W        W96491  12.351   8.162   3.682
32735W        W96492  17.566   3.728   3.232
32736W        W96493   3.913   8.319  14.847
32737W        W96494  40.523   5.352   2.698
32738W        W96495   6.288  25.523   3.384
32739W        W96496  31.492   7.761   0.310
32740W        W96497  22.187  35.452  12.468
32741W        W96498  29.575  24.542   2.665
32742W        W96499   8.357   3.805  11.499
32743W        W96500   8.245  38.849  13.479
32744W        W96501  18.773  34.609   2.713
32745W        W96502  43.803  42.521  13.350
32746W        W96503  37.941  33.917   2.683
32747W        W96504  32.892   4.443  14.800
32748W        W96505  26.178   4.802  13.353
32749W        W96506  23.591  41.437   1.404
32750W        W96507  39.888   7.383  13.307
32751W        W96508  25.658  22.036  10.035
32752W        W96509   8.721  35.404  10.966
32753W        W96510  31.901   1.820  13.859
32754W        W96511  10.323  26.114   0.788
32755W        W96512  31.926  38.437   4.274
32756W        W96513  35.059  41.437  11.865
32757W        W96514   4.921   5.389   0.911
32758W        W96515  18.139   8.370  14.509
32759W        W96516  31.079  36.523  12.853
32760W        W96517   7.709  43.301  13.966
32761W        W96518  40.036  18.054   1.770
32762W        W96519  12.213  14.234  11.061
32763W        W96520   7.732  20.566  11.460
32764W        W96521  11.143  16.783   4.770
32765W        W96522   2.378   3.333  10.075
32766W        W96523  44.434  34.604   0.453
32767W        W96524  36.986   5.250   4.266
32768W        W96525  30.068  39.369  10.542
32769W        W96526  11.259  21.253   0.331
32770W        W96527   9.784  19.275  11.549
32771W        W96528  28.434  24.634  13.426
32772W        W96529   6.906  27.494   0.912
32773W        W96530  34.387  10.638   3.177
32774W        W96531  18.254  22.049   4.738
32775W        W96532  44.814  30.484   4.189
32776W        W96533  40.974  19.700  11.504
32777W        W96534  14.617  32.020  12.483
32778W        W96535  25.218  31.020   5.095
32779W        W96536  35.073   0.882   9.982
32780W        W96537  42.389   1.279   1.214
32781W        W96538  16.813  17.639  14.288
32782W        W96539  33.046  29.530  11.381
32783W        W96540  12.774  41.524  11.594
32784W        W96541   1.243  37.083   2.345
32785W        W96542  12.317  37.415   0.962
32786W        W96543  43.865  38.474  11.876
32787W        W96544  39.941   0.256   2.736
32788W        W96545  36.373  19.153  13.419
32789W        W96546  30.911  23.138   1.302
32790W        W96547  39.357  27.505   3.637
32791W        W96548  37.541  40.421   3.644
32792W        W96549   0.766  27.945   1.448
32793W        W96550  18.779  33.000  10.448
32794W        W96551  16.179  29.938   2.415
32795W        W96552  11.322   6.300   4.287
32796W        W96553  25.552  42.420   4.250
32797W        W96554  26.084   0.792   1.873
32798W        W96555  16.318  10.638   3.656
32799W        W96556  22.066  28.073  11.927
32800W        W96557  14.309   5.775   1.324
32801W        W96558  31.510  15.754   0.334
32802W        W96559   9.185  34.443  12.866
32803W        W96560  12.264  22.557   3.869
32804W        W96561  42.921  12.776  11.980
32805W        W96562  41.378  33.011  10.516
32806W        W96563  37.494  35.857  14.962
32807W        W96564   7.381  23.164   0.764
32808W        W96565  21.221   4.323   0.783
32809W        W96566   2.934  21.195   4.272
32810W        W96567  23.993  43.877   2.813
32811W        W96568  18.137   6.886  13.350
32812W        W96569  36.399  19.100   2.866
32813W        W96570   3.855  41.791   2.771
32814W        W96571  36.388  33.029  11.056
32815W        W96572  27.192  44.492   3.326
32816W        W96573  38.059  21.078  14.497
32817W        W96574  22.680  31.995   3.374
32818W        W96575   6.880   4.732  11.013
32819W        W96576  36.518   0.321   5.243
32820W        W96577  42.854  43.483   5.296
32821W        W96578  29.134  41.023  14.837
32822W        W96579  44.286  15.323  11.107
32823W        W96580  37.504  40.829  11.600
32824W        W96581  39.490  35.379   0.775
32825W        W96582  35.477  15.807  13.983
32826W        W96583   1.350  10.649  12.407
32827W        W96584  38.068   9.155   1.813
32828W        W96585  40.018  40.897  12.374
32829W        W96586  32.954  19.629   1.406
32830W        W96587  42.517  43.379  12.566
32831W        W96588  10.290   8.331   3.258
32832W        W96589  12.686  18.730   0.405
32833W        W96590   9.713  28.133   1.706
32834W        W96591  11.141   5.258   1.854
32835W        W96592  24.169  12.842   2.325
32836W        W96593  31.581  37.949  12.961
32837W        W96594   1.395   7.794   1.889
32838W        W96595   4.372  31.126   3.361
32839W        W96596  22.686  20.618   2.861
32840W        W96597   9.193  19.173   5.231
32841W        W96598   2.912  10.196   3.642
32842W        W96599  32.539   1.290   2.693
32843W        W96600  24.019  22.740  12.401
32844W        W96601  30.114  39.479   0.805
32845W        W96602  44.474  40.917  13.911
32846W        W96603  13.264  19.692  14.316
32847W        W96604  25.045  28.082  11.032
32848W        W96605  10.701  31.413  12.938
32849W        W96606  14.205  32.476   0.281
32850W        W96607  22.586  38.532   1.769
32851W        W96608  44.825  43.278   2.335
32852W        W96609  31.012  31.068   0.904
32853W        W96610  18.090  37.419   0.949
32854W        W96611  39.864  26.954   2.282
32855W        W96612  10.353   8.297  11.997
32856W        W96613  14.672  44.944  11.562
32857W        W96614   4.369  28.009   1.823
32858W        W96615  30.058  21.563   3.226
32859W        W96616  18.767  38.510  13.920
32860W        W96617  11.218   5.422  11.582
32861W        W96618  32.978  32.044  12.391
32862W        W96619  31.465  28.459  10.599
32863W        W96620  28.039  39.485  13.810
32864W        W96621  35.071  12.725  10.523
32865W        W96622   1.887  40.307   0.473
32866W        W96623  13.655  38.932  13.393
32867W        W96624  33.092   1.470   2.332
32868W        W96625   2.928  13.225  10.923
32869W        W96626  37.365  23.095   1.324
32870W        W96627  43.426  30.647   1.888
32871W        W96628   7.280  42.482  14.877
32872W        W96629  17.595   6.362  10.562
32873W        W96630  10.808  34.474  13.497
32874W        W96631   4.371  37.350   3.767
32875W        W96632  28.127   5.761   3.846
32876W        W96633  33.563  19.235  13.968
32877W        W96634  39.558  36.069   2.697
32878W        W96635   8.843   1.430   3.844
32879W        W96636  41.031   4.794   2.200
32880W        W96637  35.987  29.168   4.172
32881W        W96638  31.111  41.925   4.617
32882W        W96639   7.835  13.291   2.719
32883W        W96640  16.255  10.152   1.854
32884W        W96641  43.970  40.476  10.418
32885W        W96642  33.082   2.787  14.013
32886W        W96643  10.368  25.637  13.308
32887W        W96644   4.872  19.110  14.507
32888W        W96645  11.129  14.610  12.425
32889W        W96646  12.705  30.064   2.300
32890W        W96647  10.742  20.645  14.880
32891W        W96648  29.469  12.263  13.058
32892W        W96649  27.587  22.552  14.898
32893W        W96650   7.800  44.797  11.086
32894W        W96651  39.335  18.624   4.832
32895W        W96652   3.848   8.176   1.326
32896W        W96653  21.244  22.620   1.217
32897W        W96654  25.041   4.753  10.591
32898W        W96655   1.930   8.770   0.270
32899W        W96656  33.432  42.507   3.760
32900W        W96657  10.844   9.761  12.986
32901W        W96658  37.928   7.815  10.595
32902W        W96659  12.351  20.683   4.749
32903W        W96660  41.825  18.696   9.993
32904W        W96661  24.655  35.578  13.059
32905W        W96662  26.608   9.755  11.973
32906W        W96663  27.168   0.979  10.411
32907W        W96664  29.511  31.591   4.265
32908W        W96665   0.401  33.030   3.192
32909W        W96666   1.863  39.978   2.259
32910W        W96667  10.320  14.664  10.610
32911W        W96668  44.405   0.891   2.306
32912W        W96669  16.767  20.030  11.072
32913W        W96670  31.622   8.221   3.695
32914W        W96671  32.426  19.125  12.081
32915W        W96672  34.900   5.722   4.772
32916W        W96673   7.380  30.607  14.902
32917W        W96674  39.045  25.485   4.832
32918W        W96675  18.241  40.038  14.978
32919W        W96676  15.252  10.208   2.785
32920W        W96677  21.112  31.415   3.244
32921W        W96678  20.030  24.104  14.408
32922W        W96679  33.617  40.504  11.000
32923W        W96680  10.707  17.687  11.610
32924W        W96681  10.673  36.060  11.485
32925W        W96682  30.072   7.863  14.946
32926W        W96683  29.494   9.691  13.946
32927W        W96684  30.498   8.384  11.014
32928W        W96685  27.044  14.262  11.598
32929W        W96686  14.298  18.250  11.563
32930W        W96687  36.989  33.119  13.846
32931W        W96688  34.986  41.873  12.876
32932W        W96689  38.504  14.616  14.939
32933W        W96690   1.887  17.660  10.978
32934W        W96691  42.453  36.074  14.382
32935W        W96692  20.656   0.927   2.665
32936W        W96693   8.310   3.426   3.203
32937W        W96694  25.557  14.242  11.121
32938W        W96695  18.662  23.634   3.690
32939W        W96696  34.945  30.565   4.703
32940W        W96697  43.332  14.337   0.429
32941W        W96698   3.847  15.155  13.946
32942W        W96699   4.290  26.035   2.197
32943W        W96700   2.812  12.278   4.752
32944W        W96701  24.046   1.886   0.870
32945W        W96702  30.041   2.929   5.302
32946W        W96703   3.803  37.907  10.450
32947W        W96704  11.301   0.845  10.005
32948W        W96705   3.941  17.155  14.439
32949W        W96706  20.612  11.776   2.336
32950W        W96707   6.323  44.896   2.251
32951W        W96708  16.118  18.135   2.247
32952W        W96709  20.206   6.838   3.844
32953W        W96710  17.577  11.676   4.296
32954W        W96711  26.193  26.113   4.288
32955W        W96712  18.612  35.971   4.626
32956W        W96713  34.075   4.777  10.136
32957W        W96714  32.479  26.482  13.993
32958W        W96715  16.168  38.495   3.338
32959W        W96716  42.324  20.167  13.417
32960W        W96717  22.587   6.379   0.923
32961W        W96718  17.590  37.004   1.740
32962W        W96719  13.796  28.985  10.631
32963W        W96720  16.607  17.727  13.392
32964W        W96721  20.055  28.103  14.349
32965W        W96722  16.209  33.625   1.446
32966W        W96723  33.601  38.834  12.824
32967W        W96724  37.870   1.462   5.315
32968W        W96725   7.360  20.561  11.856
32969W        W96726  40.455  18.764  13.931
32970W        W96727  41.002  30.035   0.920
32971W        W96728   3.323  13.118  13.017
32972W        W96729   1.468  30.016  11.506
32973W        W96730  20.266  41.812   2.207
32974W        W96731  31.554  10.365  13.950
32975W        W96732  29.057   8.331  14.433
32976W        W96733  21.166  40.510  10.958
32977W        W96734   5.332  41.395  11.908
32978W        W96735  12.314   6.316  10.466
32979W        W96736  39.815  44.272  10.917
32980W        W96737  33.570   9.671   4.685
32981W        W96738   6.788  26.500   4.726
32982W        W96739  25.216   8.393  14.352
32983W        W96740  42.857  11.637   3.871
32984W        W96741  40.827   1.483  11.610
32985W        W96742  36.002  34.995   3.380
32986W        W96743  38.508  16.590  11.901
32987W        W96744  35.906  33.520  14.436
32988W        W96745   2.380  25.999  12.427
32989W        W96746  10.281  20.257   0.832
32990W        W96747  41.535  30.486  11.018
32991W        W96748  29.995  41.435  12.894
32992W        W96749   0.343  37.929  13.452
32993W        W96750  36.867  40.987   4.273
32994W        W96751  31.907  27.005  12.979
32995W        W96752  38.075  34.438   3.742
32996W        W96753  21.711  38.038   2.335
32997W        W96754  38.959   9.710  14.868
32998W        W96755  13.336   9.330   0.294
32999W        W96756  10.861  43.969  13.921
33000W        W96757  35.895  15.659   3.336
33001W        W96758  24.005  39.548   1.390
33002W        W96759  35.024  37.488  13.534
33003W        W96760  36.553  22.198   2.305
33004W        W96761  16.760  17.301  10.617
33005W        W96762  19.599  12.276   3.792
33006W        W96763  31.965  10.336   1.847
33007W        W96764   1.422   7.314   2.784
33008W        W96765  14.643  30.977   2.735
33009W        W96766   6.879  33.130  13.338
33010W        W96767   1.871   0.355   0.336
33011W        W96768  41.532  22.006  14.014
33012W        W96769  13.694   4.406   3.284
33013W        W96770  23.582  26.654   1.885
33014W        W96771  36.980  21.073  10.034
33015W        W96772  16.109  20.663  12.025
33016W        W96773  17.162  17.302   4.215
33017W        W96774  12.299  19.777   0.873
33018W        W96775  18.118  15.109  14.308
33019W        W96776   0.317  29.120  12.868
33020W        W96777  10.667  12.334   0.923
33021W        W96778  32.093  15.205   2.860
33022W        W96779  22.711  44.780   4.138
33023W        W96780  42.880  43.019   3.811
33024W        W96781  42.791  37.068  13.853
33025W        W96782   3.307   1.911  11.428
33026W        W96783  33.399  20.714  11.430
33027W        W96784  31.470  17.563   0.867
33028W        W96785  31.583  13.148   4.216
33029W        W96786  37.056  40.973  14.432
33030W        W96787  40.903   9.304   3.173
33031W        W96788  37.032  31.479  10.574
33032W        W96789  44.370   5.235  11.110
33033W        W96790   8.822  13.151  10.408
33034W        W96791  33.518  43.395   2.819
33035W        W96792  43.811  10.719  10.582
33036W        W96793  29.662  17.281   4.804
33037W        W96794  21.670  31.493   9.640
33038W        W96795   2.727   8.823  14.487
33039W        W96796  25.552   8.697  14.005
33040W        W96797  26.682  16.741   1.874
33041W        W96798  19.235  26.963   4.778
33042W        W96799  40.421   3.724  14.940
33043W        W96800  40.533  27.459   4.717
33044W        W96801  42.319  16.236  10.916
33045W        W96802  11.173   6.717  13.833
33046W        W96803   2.748  11.697   0.817
33047W        W96804  13.605  23.083   3.821
33048W        W96805  11.751  13.778   3.787
33049W        W96806  13.299  19.084  12.923
33050W        W96807   2.411  16.666  13.517
33051W        W96808  32.629  11.239   4.245
33052W        W96809  18.717  39.861  12.477
33053W        W96810  15.129  31.627   0.748
33054W        W96811  43.885   0.370  14.379
33055W        W96812  27.537  23.521   3.349
33056W        W96813  31.055  43.425   4.288
33057W        W96814  35.442  21.693  11.607
33058W        W96815  43.930  36.591  12.985
33059W        W96816   6.251  26.651  12.415
33060W        W96817  42.464  19.746  14.775
33061W        W96818  36.083   4.803   3.777
33062W        W96819  39.038  41.485  14.458
33063W        W96820   2.314  27.065  12.007
33064W        W96821  24.723  28.084  14.424
33065W        W96822  19.567   8.867  12.950
33066W        W96823  31.135   3.294   1.338
33067W        W96824  31.527  41.397  12.879
33068W        W96825  31.094  27.568  13.360
33069W        W96826   2.901  16.731   4.828
33070W        W96827  12.344  34.086  13.991
33071W        W96828  28.139  44.850   1.388
33072W        W96829   5.711   7.861  12.823
33073W        W96830  34.493  16.805  12.992
33074W        W96831   1.438  12.852  11.019
33075W        W96832  27.137  18.617  11.977
33076W        W96833  12.243  36.999  10.432
33077W        W96834  31.547  10.251  12.478
33078W        W96835  38.401  14.608   3.708
33079W        W96836  18.597  33.493   1.323
33080W        W96837   0.890   7.723   1.306
33081W        W96838  32.630  14.681   0.339
33082W        W96839  43.923  30.591   4.600
33083W        W96840  15.200  11.697  12.065
33084W        W96841  16.765  41.536   4.208
33085W        W96842  14.614  19.206  14.280
33086W        W96843  30.069  35.953   2.834
33087W        W96844   1.957  23.139   4.322
33088W        W96845  32.474   1.744  14.010
33089W        W96846  21.048  10.301   2.374
33090W        W96847  35.382  37.340  11.902
33091W        W96848  31.460  21.610  11.897
33092W        W96849  15.727  20.564  13.389
33093W        W96850  17.682  27.008  10.565
33094W        W96851  31.606   6.249   1.367
33095W        W96852  23.033  40.925   2.401
33096W        W96853   1.927   6.412  11.037
33097W        W96854  29.030   9.351   0.799
33098W        W96855   3.835  34.494   4.223
33099W        W96856  10.336  38.371  10.075
33100W        W96857  11.648  20.710   1.238
33101W        W96858   1.250  13.655   3.271
33102W        W96859  35.916  23.091   2.662
33103W        W96860  28.968  27.174   4.715
33104W        W96861  27.143  20.086   1.248
33105W        W96862   1.869  26.655  10.464
33106W        W96863   2.305   8.264   4.736
33107W        W96864  36.078  39.997   0.920
33108W        W96865  11.742  35.386   0.808
33109W        W96866   3.310   8.858   0.742
33110W        W96867   1.251  33.468  13.847
33111W        W96868   5.829  36.075  13.842
33112W        W96869   1.878  17.064  12.983
33113W        W96870  11.718  10.148   2.418
33114W        W96871  16.652  21.031  11.542
33115W        W96872  25.684  25.612  11.563
33116W        W96873   1.905   8.771   1.840
33117W        W96874  10.690  25.676   4.288
33118W        W96875  27.479   9.789  11.546
33119W        W96876  29.629  13.627   2.701
33120W        W96877  42.969  17.746  13.871
33121W        W96878   8.194  22.223   4.793
33122W        W96879  21.257  27.653   4.692
33123W        W96880  32.525  12.705  13.408
33124W        W96881   8.258   3.732   2.665
33125W        W96882  20.645  43.503  11.473
33126W        W96883  22.208  24.482   3.384
33127W        W96884   7.720  34.008  10.455
33128W        W96885   6.910  23.985   2.280
33129W        W96886  11.279  18.758  13.324
33130W        W96887  16.266  22.149   0.281
33131W        W96888  33.096  10.155  14.971
33132W        W96889   0.301   2.950  14.892
33133W        W96890  44.316  36.540  11.080
33134W        W96891  25.507  31.915  10.072
33135W        W96892  20.602  26.590   2.276
33136W        W96893  17.093  42.456   1.373
33137W        W96894  25.477  23.110  13.490
33138W        W96895   8.725   7.363   2.378
33139W        W96896  28.121  20.188  11.943
33140W        W96897  26.059   8.840  12.414
33141W        W96898  38.886  37.461  10.937
33142W        W96899  15.627   1.405   4.684
33143W        W96900  41.867  25.650  13.800
33144W        W96901  21.232  20.142   5.198
33145W        W96902  40.435  12.835  10.082
33146W        W96903  30.424  23.584   0.935
33147W        W96904  32.452  22.147  11.537
33148W        W96905  36.890  39.999  12.853
33149W        W96906  22.715  43.793  12.084
33150W        W96907   5.281  19.579   4.284
33151W        W96908  32.139   5.920   2.319
33152W        W96909  25.521   7.320  11.419
33153W        W96910  18.572  40.408  10.956
33154W        W96911  14.209  37.357  14.354
33155W        W96912  12.179  11.195  12.580
33156W        W96913  15.224  31.496  14.024
33157W        W96914   5.788  44.370   1.807
33158W        W96915  34.577  15.231   2.835
33159W        W96916  41.294  14.322   1.889
33160W        W96917  19.622   4.234  12.353
33161W        W96918  11.139  10.789  12.854
33162W        W96919  34.951  31.570  11.884
33163W        W96920  33.013  32.037   1.906
33164W        W96921  25.664  32.632  10.431
33165W        W96922  26.476  39.941  13.478
33166W        W96923  42.820  35.888  12.529
33167W        W96924  32.592  42.526   4.793
33168W        W96925   7.747  39.350   1.699
33169W        W96926  29.083  26.695  12.021
33170W        W96927   8.385  36.070  10.954
33171W        W96928   9.778  21.703   2.744
33172W        W96929  42.826  38.564  13.976
33173W        W96930  42.288  38.894   1.796
33174W        W96931   2.265  38.906   0.923
33175W        W96932  14.659  18.272  11.908
33176W        W96933  20.079  16.716  14.878
33177W        W96934  30.112  11.832   3.169
33178W        W96935  23.507  34.482   0.890
33179W        W96936   5.794  36.375  14.395
33180W        W96937  14.336  10.685   0.260
33181W        W96938   5.235  20.226   4.633
33182W        W96939  23.184  29.624   0.319
33183W        W96940   3.851  16.189  14.411
33184W        W96941   9.692  41.955   3.824
33185W        W96942  25.468  37.494   4.628
33186W        W96943  25.187  10.161  13.366
33187W        W96944   4.411  31.589   2.747
33188W        W96945  21.072  37.520   2.861
33189W        W96946  29.615  20.694   0.351
33190W        W96947  35.927  36.972   1.774
33191W        W96948  41.972  26.166   2.809
33192W        W96949  38.394  34.050  13.816
33193W        W96950  17.761  33.587  10.902
33194W        W96951  33.388  17.122   1.355
33195W        W96952  30.150  32.000   1.271
33196W        W96953   1.243   8.250   1.763
33197W        W96954  41.876  31.959  10.889
33198W        W96955  30.950   4.282  13.325
33199W        W96956  19.137   4.378  11.570
33200W        W96957  10.261  34.067  13.505
33201W        W96958  23.588  27.994   2.271
33202W        W96959  38.473  24.571   0.932
33203W        W96960  16.768  14.602   2.372
33204W        W96961   9.853  39.376   3.209
33205W        W96962  38.536  14.240   1.789
33206W        W96963  44.773  28.131  14.000
33207W        W96964  32.139  28.650  11.562
33208W        W96965  34.439  26.167   1.380
33209W        W96966  30.645  26.554  12.993
33210W        W96967  11.688  41.021   0.847
33211W        W96968  25.493   8.836   1.705
33212W        W96969  20.763  33.054  14.894
33213W        W96970  26.194  26.951   3.652
33214W        W96971   7.333  10.739  13.059
33215W        W96972   6.324  17.727   4.221
33216W        W96973  14.748  30.917   2.381
33217W        W96974  15.166  19.740  12.921
33218W        W96975  24.219  32.078   2.815
33219W        W96976   5.903  34.600  12.554
33220W        W96977  44.776  35.566   0.746
33221W        W96978  28.052   0.855  13.963
33222W        W96979  15.100  32.529   0.756
33223W        W96980  40.448  27.475  13.043
33224W        W96981   1.800  23.025  12.079
33225W        W96982  15.605  31.962   1.744
33226W        W96983  24.083  31.065   2.770
33227W        W96984  42.793  10.295   2.317
33228W        W96985  38.562  15.283  10.488
33229W        W96986   3.223  22.188  13.952
33230W        W96987  12.651  39.407   4.683
33231W        W96988  25.159   9.822   4.618
33232W        W96989  19.720  42.990   3.868
33233W        W96990  22.228  36.000   4.676
33234W        W96991  16.156  34.985  11.894
33235W        W96992  15.581  28.644  12.868
33236W        W96993  11.815  32.129  11.094
33237W        W96994  20.710  42.356  14.367
33238W        W96995  34.409   4.333  13.920
33239W        W96996  29.556  24.138   5.085
33240W        W96997  41.026   3.376   3.662
33241W        W96998  39.475  12.246   2.400
33242W        W96999  22.534  15.710   2.742
33243W        W97000  37.338   5.823   2.874
33244W        W97001  42.303  28.180  11.402
33245W        W97002  27.019  22.560   3.265
33246W        W97003  18.559  16.672  10.538
33247W        W97004   1.268  25.104   3.307
33248W        W97005  13.218  44.878   1.899
33249W        W97006  18.777  33.438   4.627
33250W        W97007  34.525   9.243   4.296
33251W        W97008  19.714  39.884   2.764
33252W        W97009  19.060  20.690  13.479
33253W        W97010  13.718  15.584   4.151
33254W        W97011  16.250  26.585   4.336
33255W        W97012  17.648  20.204  11.907
33256W        W97013  11.288  15.581  14.924
33257W        W97014  40.904   7.200  14.488
33258W        W97015  44.260  20.622  13.852
33259W        W97016  40.443  12.335  12.367
33260W        W97017  28.133  25.654   4.618
33261W        W97018  31.025   8.667  13.342
33262W        W97019  16.302  18.163   2.707
33263W        W97020   9.770  33.999   2.812
33264W        W97021   1.346   9.275   1.373
33265W        W97022  36.434   7.854   3.833
33266W        W97023  13.775  23.155  10.988
33267W        W97024  12.338   7.192   4.748
33268W        W97025  26.570   6.394  13.482
33269W        W97026  10.149  30.612   3.237
33270W        W97027  43.312  33.065  11.056
33271W        W97028  43.914  18.658  12.519
33272W        W97029  31.525  10.327  10.547
33273W        W97030  17.232   1.847  11.933
33274W        W97031  16.219  21.518   3.207
33275W        W97032  43.996   4.813  10.469
33276W        W97033  40.404  36.550  11.970
33277W        W97034   6.715  43.428   4.727
33278W        W97035  40.531  30.603  12.873
33279W        W97036  13.704  44.353   3.799
33280W        W97037  27.575  37.507  10.631
33281W        W97038   3.871   6.230   2.749
33282W        W97039  12.781  13.773   1.724
33283W        W97040  40.019  12.252  12.916
33284W        W97041  31.599  32.131   4.721
33285W        W97042  17.599  21.244  13.954
33286W        W97043  13.329  27.647  12.367
33287W        W97044   6.215  20.076  13.025
33288W        W97045  44.453   1.434  12.048
33289W        W97046   3.460  28.542  12.565
33290W        W97047   9.865  28.487   2.395
33291W        W97048  17.131  32.615   2.893
33292W        W97049  21.513  36.036   3.723
33293W        W97050  23.228  31.993   4.155
33294W        W97051   6.686   2.783  10.630
33295W        W97052  31.073  38.414   0.875
33296W        W97053  28.504  21.161  12.491
33297W        W97054  41.791   4.820  12.860
33298W        W97055  14.107  16.636   0.856
33299W        W97056  41.519  35.874   0.807
33300W        W97057  44.420   5.890  11.509
33301W        W97058  22.555  35.447  12.076
33302W        W97059   9.732   8.351   1.814
33303W        W97060  38.836  40.961   2.213
33304W        W97061  44.274  42.455  10.504
33305W        W97062  17.279  42.299   2.856
33306W        W97063  28.964   8.262   0.934
33307W        W97064  24.521  16.768   4.653
33308W        W97065  17.121  43.956  12.965
33309W        W97066  44.896  33.915  13.810
33310W        W97067   1.733   6.380   4.206
33311W        W97068   6.230   1.307   2.667
33312W        W97069  26.186   7.186   3.853
33313W        W97070  39.343  44.399  13.877
33314W        W97071  13.633  33.619   2.189
33315W        W97072  14.805  33.905   0.731
33316W        W97073  27.660  14.255   5.144
33317W        W97074  31.100   7.822   0.794
33318W        W97075  19.612  21.146   0.480
33319W        W97076  40.309   3.423   0.244
33320W        W97077  30.061   6.879  12.876
33321W        W97078  15.784   5.904   4.134
33322W        W97079   9.261   6.721   4.638
33323W        W97080   9.651  43.808  14.447
33324W        W97081  10.275  28.005   2.729
33325W        W97082  14.769  41.917   1.261
33326W        W97083  23.167  28.572   0.930
33327W        W97084   4.237  32.091   4.736
33328W        W97085  27.506  30.063  12.024
33329W        W97086  22.543  12.735   0.890
33330W        W97087  36.350  31.506   0.909
33331W        W97088  24.181  42.813   1.787
33332W        W97089   1.810  31.072   4.831
33333W        W97090  40.938  37.353   5.210
33334W        W97091  13.145  42.997  13.802
33335W        W97092   6.419  31.586   0.930
33336W        W97093  17.705  10.207  14.465
33337W        W97094  34.907   8.240   1.740
33338W        W97095  13.259  20.594   3.147
33339W        W97096  26.646  34.410  12.916
33340W        W97097  36.509   5.333  14.845
33341W        W97098  28.106  34.010   4.198
33342W        W97099  25.532  35.489  11.526
33343W        W97100   6.249  11.681  13.847
33344W        W97101  23.607  29.000   0.444
33345W        W97102  21.020   0.370  14.852
33346W        W97103   2.271  41.803   1.930
33347W        W97104   9.303  27.104  10.450
33348W        W97105  39.834  29.583   1.292
33349W        W97106  17.717  11.140  13.837
33350W        W97107  37.340  29.149  14.948
33351W        W97108  42.345  25.169   3.685
33352W        W97109  34.020  42.910   3.337
33353W        W97110  33.488  39.877  11.512
33354W        W97111  33.067   1.345   4.814
33355W        W97112   4.768  19.191  10.027
33356W        W97113  21.652  14.108   2.842
33357W        W97114   1.248  15.318  12.464
33358W        W97115  23.714  11.744   3.827
33359W        W97116  40.018  20.160  11.954
33360W        W97117  31.898  28.493  10.033
33361W        W97118  13.114   1.438   4.692
33362W        W97119  27.108  32.414  14.389
33363W        W97120  21.214  33.524   0.938
33364W        W97121  19.041  39.905  13.494
33365W        W97122  25.628  23.507  14.459
33366W        W97123  41.296  44.480   1.800
33367W        W97124  43.985  11.861   1.710
33368W        W97125  32.928  29.553  13.833
33369W        W97126  10.815  11.662   9.929
33370W        W97127   5.264  21.173   4.184
33371W        W97128  30.129   1.416   2.695
33372W        W97129   0.834  19.214   0.315
33373W        W97130  27.579   5.368   1.377
33374W        W97131   1.430  12.757   1.732
33375W        W97132  23.225  39.042  12.553
33376W        W97133  37.428  26.665  13.909
33377W        W97134   3.784  10.325  13.527
33378W        W97135   3.948  13.767  12.352
33379W        W97136  19.553  39.338   1.762
33380W        W97137  26.052   4.365  14.779
33381W        W97138   4.337  30.546   1.908
33382W        W97139  21.733   2.918  11.466
33383W        W97140   7.295  19.713   0.480
33384W        W97141  32.993   7.897   0.286
33385W        W97142  43.345   8.356  13.812
33386W        W97143  16.798  36.428   4.647
33387W        W97144  34.078   8.362  14.786
33388W        W97145  30.997  27.569  10.630
33389W        W97146  10.377  28.567  12.345
33390W        W97147  14.259  26.685   5.137
33391W        W97148  29.609  15.771  13.422
33392W        W97149  39.900  15.785  12.440
33393W        W97150  36.036  17.185  14.915
33394W        W97151  13.708  32.400  11.413
33395W        W97152  42.490  24.661  13.994
33396W        W97153  35.954  21.060   0.244
33397W        W97154  40.929  43.899   4.643
33398W        W97155  23.051   8.759   2.825
33399W        W97156  43.970  43.340   0.316
33400W        W97157  28.029  21.608   3.667
33401W        W97158  44.360  16.767   5.273
33402W        W97159  25.574  12.717   0.867
33403W        W97160   5.842  36.935  10.980
33404W        W97161  38.945  21.244  11.857
33405W        W97162  21.535  39.338  13.933
33406W        W97163   0.370  41.997  11.483
33407W        W97164  12.718  37.071  13.408
33408W        W97165  19.547  28.511   4.751
33409W        W97166   0.914  17.111  13.920
33410W        W97167  35.449  40.911  11.124
33411W        W97168  36.427  32.912   0.275
33412W        W97169  36.071  22.058   2.392
33413W        W97170  35.008   9.295  13.834
33414W        W97171  33.469  34.060   1.836
33415W        W97172  35.569   1.803  10.565
33416W        W97173   0.875  12.702   2.357
33417W        W97174   0.273   7.691  11.438
33418W        W97175  28.653  18.156  12.893
33419W        W97176  42.493  11.320  13.031
33420W        W97177   2.279  41.842   3.219
33421W        W97178  18.227  33.940  12.516
33422W        W97179  17.559  20.187   4.631
33423W        W97180  39.439  42.919   1.436
33424W        W97181  28.498  21.733  10.620
33425W        W97182  30.473  42.841   1.879
33426W        W97183   4.846   3.921  10.920
33427W        W97184  37.415  26.033  12.086
33428W        W97185   4.808  30.071  14.344
33429W        W97186  30.081   4.257  11.125
33430W        W97187   1.928   6.279  13.062
33431W        W97188   7.307   7.196   1.362
33432W        W97189  31.637  43.514   1.449
33433W        W97190  43.898  14.608   3.740
33434W        W97191  14.331   0.296  13.864
33435W        W97192  36.588   7.222   5.292
33436W        W97193  10.806  11.744  14.824
33437W        W97194   9.813  34.094  11.953
33438W        W97195  25.668  18.635   1.227
33439W        W97196  36.878   3.770  13.457
33440W        W97197  40.430  28.941   4.262
33441W        W97198  43.890  26.193  14.288
33442W        W97199  27.018  44.822  10.475
33443W        W97200  44.898  27.641   4.328
33444W        W97201  44.471  21.578  10.582
33445W        W97202  41.293   9.211  14.031
33446W        W97203   5.823  20.039  14.882
33447W        W97204  38.845  40.541   0.320
33448W        W97205   9.339  34.401   2.776
33449W        W97206   5.302  26.024  12.996
33450W        W97207  28.610  35.401   1.235
33451W        W97208  32.121  20.549   2.358
33452W        W97209  22.721  12.334  13.944
33453W        W97210  29.099  12.612   3.698
33454W        W97211  19.651  38.503   2.344
33455W        W97212  15.673  41.397  10.917
33456W        W97213  11.228   6.191   4.686
33457W        W97214  11.305  20.631  11.564
33458W        W97215  31.091  28.954  10.552
33459W        W97216  23.656  13.705   2.244
33460W        W97217   8.778  29.094  11.871
33461W        W97218  13.137  24.111  13.526
33462W        W97219  18.274  25.577   2.889
33463W        W97220  37.050  38.932  11.056
33464W        W97221  31.036  30.634  13.886
33465W        W97222  22.071  38.922  14.458
33466W        W97223  43.516   4.781  10.141
33467W        W97224  14.640  15.663  13.059
33468W        W97225  34.589  25.569  10.502
33469W        W97226  20.549  25.008   0.367
33470W        W97227   3.793  33.599  14.901
33471W        W97228  42.944  41.359   1.288
33472W        W97229  29.626  14.301  13.387
33473W        W97230  10.637  37.445  13.405
33474W        W97231   6.843  24.711   4.349
33475W        W97232  35.359  30.114   2.820
33476W        W97233  31.505  14.637  13.802
33477W        W97234  31.116  42.981   1.788
33478W        W97235   6.420  19.538   0.938
33479W        W97236   0.825  40.900  12.515
33480W        W97237  42.505  26.682   0.796
33481W        W97238  36.031  28.480   3.781
33482W        W97239  15.624  20.182   2.818
33483W        W97240  15.606  20.235  10.920
33484W        W97241  37.543  13.711  12.836
33485W        W97242  14.156   6.741  12.058
33486W        W97243  34.979  30.070  12.028
33487W        W97244  28.608  30.423   1.817
33488W        W97245  10.778  21.128   3.207
33489W        W97246   3.286  39.957  13.398
33490W        W97247  23.658  23.178   0.410
33491W        W97248   4.398  20.222  13.816
33492W        W97249  24.548  40.530   4.599
33493W        W97250   9.283  43.816   3.352
33494W        W97251  14.704   1.368  12.890
33495W        W97252  20.128  29.034   0.402
33496W        W97253  29.079  26.114  11.916
33497W        W97254  40.533  22.126  13.330
33498W        W97255  40.989   3.276  14.302
33499W        W97256   6.312   1.731  11.415
33500W        W97257  15.191  16.625  13.019
33501W        W97258  19.046  40.327  11.936
33502W        W97259  36.873  10.683   1.409
33503W        W97260   8.168  12.198  10.903
33504W        W97261  34.989  22.675   2.189
33505W        W97262   9.681  15.817  11.055
33506W        W97263  15.276  21.223  11.857
33507W        W97264   3.855  34.450   3.735
33508W        W97265  23.091   9.389   1.831
33509W        W97266   3.770  10.700  14.505
33510W        W97267  32.972  29.102  13.527
33511W        W97268  26.465  23.607   0.390
33512W        W97269  35.473  23.638   3.686
33513W        W97270   3.333  32.986   4.233
33514W        W97271  35.086  17.770   2.197
33515W        W97272   7.704  12.685  13.807
33516W        W97273  44.407  21.200  13.415
33517W        W97274  18.056  42.991  10.932
33518W        W97275  17.777  15.822   3.154
33519W        W97276  38.939  27.689  12.516
33520W        W97277  31.070   1.748   4.793
33521W        W97278  34.901   3.885   3.247
33522W        W97279   8.658  23.633   1.930
33523W        W97280  31.000  10.723   3.269
33524W        W97281   1.947  26.129  14.783
33525W        W97282  37.938  24.079  14.321
33526W        W97283  13.612  29.965   3.867
33527W        W97284  41.534   1.816   1.227
33528W        W97285  16.685  41.023   0.769
33529W        W97286   9.302  29.940  13.422
33530W        W97287   2.910  12.612   3.206
33531W        W97288  14.720   2.365  11.549
33532W        W97289  28.576   1.771  13.437
33533W        W97290   6.821  44.344   1.768
33534W        W97291  17.085   0.824  10.984
33535W        W97292  39.538  28.952   0.903
33536W        W97293  39.021   8.770  10.024
33537W        W97294  16.250  24.147  13.322
33538W        W97295  24.973   8.359  13.048
33539W        W97296   7.793  19.647  13.806
33540W        W97297  42.832  23.027  14.806
33541W        W97298  19.639  43.009   2.186
33542W        W97299   8.334  34.399  12.054
33543W        W97300  21.626  19.267  14.940
33544W        W97301  10.728   4.729  13.845
33545W        W97302  10.714  43.810  14.397
33546W        W97303  17.157  37.337  13.393
33547W        W97304  24.151  25.687  10.015
33548W        W97305  40.869  13.764  14.893
33549W        W97306  42.022  28.003   1.260
33550W        W97307  42.396  44.294  13.329
33551W        W97308   9.280  16.731   0.744
33552W        W97309  36.891  35.036  14.779
33553W        W97310  39.367  25.035  11.560
33554W        W97311  40.972  11.231  14.953
33555W        W97312   4.776   7.200   1.308
33556W        W97313  41.793  43.976   0.785
33557W        W97314   5.301  21.608   0.823
33558W        W97315  40.415  40.898   0.932
33559W        W97316  13.745  16.596   1.371
33560W        W97317  26.550  28.680  13.839
33561W        W97318  38.053  39.366   0.293
33562W        W97319   9.325  13.641  13.028
33563W        W97320  36.965  39.909   0.879
33564W        W97321  38.456  17.101  10.541
33565W        W97322  38.846  43.772  14.503
33566W        W97323  42.860   1.307  14.954
33567W        W97324   2.257   6.315  14.944
33568W        W97325  39.452   9.699  14.792
33569W        W97326  39.932  35.543   1.340
33570W        W97327   7.682   0.426   1.845
33571W        W97328   3.218  19.071  14.972
33572W        W97329  10.693  11.857   1.845
33573W        W97330  16.178  34.449   4.138
33574W        W97331  38.929   7.871  12.084
33575W        W97332  11.778  28.539   0.749
33576W        W97333   7.862  36.027   1.258
33577W        W97334  24.722  39.822   1.335
33578W        W97335  34.429   4.724  14.852
33579W        W97336  32.007  20.565   0.900
33580W        W97337  33.532  11.667   5.291
33581W        W97338  41.437  14.150   4.749
33582W        W97339  25.536  43.828   0.391
33583W        W97340  14.257   8.796   4.646
33584W        W97341  17.643  17.150   4.149
33585W        W97342  17.164  37.864  13.457
33586W        W97343   1.774  26.589   0.411
33587W        W97344  21.220  29.082  11.386
33588W        W97345  25.179  40.975  12.476
33589W        W97346   8.818  15.163  11.492
33590W        W97347  23.702  24.186   3.834
33591W        W97348  37.883  23.611  14.988
33592W        W97349  10.275  43.281  13.903
33593W        W97350  42.433  30.945   4.795
33594W        W97351  14.708  13.338   2.766
33595W        W97352  16.777  33.116   1.790
33596W        W97353  14.331  30.447   1.779
33597W        W97354  17.178   6.908  10.492
33598W        W97355  32.910  38.948   3.245
33599W        W97356  31.081  28.040   5.771
33600W        W97357  14.666  13.700   4.156
33601W        W97358  43.794  12.138  11.880
33602W        W97359  42.469   7.340   1.446
33603W        W97360  26.689   1.442  14.390
33604W        W97361  10.229   6.404   3.635
33605W        W97362  11.805  42.871   3.303
33606W        W97363  16.134  37.932  12.993
33607W        W97364  16.119  36.362   4.765
33608W        W97365  44.279  21.633  12.465
33609W        W97366   0.448  39.404  13.456
33610W        W97367  20.554  44.965   1.384
33611W        W97368  17.094  41.512  13.320
33612W        W97369   0.836  34.613  11.900
33613W        W97370  30.567  15.197  12.086
33614W        W97371   6.282  43.272  10.605
33615W        W97372   3.943  39.823  11.913
33616W        W97373  32.453  22.584  12.358
33617W        W97374  32.608  42.354  13.477
33618W        W97375   9.197  25.105   0.805
33619W        W97376  39.031  28.511  10.426
33620W        W97377  22.006   6.716   0.895
33621W        W97378  39.536  31.958   4.140
33622W        W97379   2.846  38.456   4.768
33623W        W97380  14.688  44.317  12.019
33624W        W97381  31.043  37.876  11.500
33625W        W97382   4.365  33.110  11.114
33626W        W97383  42.323  37.950   3.713
33627W        W97384  41.529  41.531  10.955
33628W        W97385  20.727   8.289   1.916
33629W        W97386  11.822  30.528  12.024
33630W        W97387  42.834  37.841   2.334
33631W        W97388  14.302   6.798   2.199
33632W        W97389   6.385  41.520  10.529
33633W        W97390  23.723  16.095  12.840
33634W        W97391  27.496  26.168   0.406
33635W        W97392   3.721  34.951   1.798
33636W        W97393  20.082  41.927  11.416
33637W        W97394  38.444  30.931  11.434
33638W        W97395  18.640  20.083  11.429
33639W        W97396   9.372   4.804   9.926
33640W        W97397  33.419  32.015  12.932
33641W        W97398  38.426  34.893   4.187
33642W        W97399  37.374  30.128   2.872
33643W        W97400  35.063  14.756   2.256
33644W        W97401  16.159  42.417   0.928
33645W        W97402   5.205  26.526  10.624
33646W        W97403   5.718  15.151   0.961
33647W        W97404  32.564   7.173   0.279
33648W        W97405  43.991  26.105   2.706
33649W        W97406  25.023  22.175   3.804
33650W        W97407   9.350  25.593   3.685
33651W        W97408   4.328  41.429   5.668
33652W        W97409  43.894  27.109  13.995
33653W        W97410  35.036  17.136   5.223
33654W        W97411   0.860  24.486   0.948
33655W        W97412  20.246  26.652  14.812
33656W        W97413  23.154  13.730  14.792
33657W        W97414  33.000  23.144  14.863
33658W        W97415  25.657  20.545   1.730
33659W        W97416  40.949  30.968   1.924
33660W        W97417  17.078   2.852   1.294
33661W        W97418  20.182  10.349  13.004
33662W        W97419  19.683  18.588   2.707
33663W        W97420  19.733  39.401  10.990
33664W        W97421  28.534  22.633  11.991
33665W        W97422   6.424  16.573   0.362
33666W        W97423  23.173  19.575   0.960
33667W        W97424  26.016   6.374  11.562
33668W        W97425  24.182  16.138  10.960
33669W        W97426  41.468  33.102   0.258
33670W        W97427  27.647  32.434  12.501
33671W        W97428  26.973   9.645   1.785
33672W        W97429  39.947   0.767   0.466
33673W        W97430   1.904  30.538   4.616
33674W        W97431  26.588   6.777  12.854
33675W        W97432  33.938  13.631   0.742
33676W        W97433   2.848  32.613  12.412
33677W        W97434  29.500  34.439  11.533
33678W        W97435  41.323  41.312   1.892
33679W        W97436  10.766  37.034   3.727
33680W        W97437  28.600  43.799  13.905
33681W        W97438  15.798  15.113   3.761
33682W        W97439  13.150   6.845  13.432
33683W        W97440  14.754  44.440   1.412
33684W        W97441  11.765  21.154  14.308
33685W        W97442  25.092  38.038   0.349
33686W        W97443  34.892  35.933  11.505
33687W        W97444   8.257   9.869  11.546
33688W        W97445  11.232  14.094   2.233
33689W        W97446  16.587  17.674   1.873
33690W        W97447   4.360  17.088  10.616
33691W        W97448  18.566  17.124   3.240
33692W        W97449  18.179   0.474   1.443
33693W        W97450  29.523  27.612   4.599
33694W        W97451  28.021   8.329  12.539
33695W        W97452  34.868   2.928  13.511
33696W        W97453  15.622  42.891  11.469
33697W        W97454  12.235  35.022  12.943
33698W        W97455  29.942  35.892   0.472
33699W        W97456  18.291  20.530  12.844
33700W        W97457  21.549  30.600  10.616
33701W        W97458  44.461  28.121   4.690
33702W        W97459  24.720  26.694   3.717
33703W        W97460  41.897  29.571   2.827
33704W        W97461  17.595  37.948   3.375
33705W        W97462  12.715  23.736   4.836
33706W        W97463  44.325   7.195  11.882
33707W        W97464  21.161  14.233  11.953
33708W        W97465  10.315  25.034   2.669
33709W        W97466  34.570  16.278  14.410
33710W        W97467  13.299  42.519   0.403
33711W        W97468  27.947  20.242   3.200
33712W        W97469  25.186   3.371   4.827
33713W        W97470  44.864  28.147   1.263
33714W        W97471  44.490  34.899  14.478
33715W        W97472  40.797   1.270   2.239
33716W        W97473  13.156  33.505   1.820
33717W        W97474   2.760  14.335  14.394
33718W        W97475  14.810  45.000   2.414
33719W        W97476  32.471   3.250  10.903
33720W        W97477  18.661  24.575  10.902
33721W        W97478  28.483   6.759   1.297
33722W        W97479  21.531  19.592  11.525
33723W        W97480  19.123   4.225   0.322
33724W        W97481  25.167  23.019   2.834
33725W        W97482   2.776  29.160   1.883
33726W        W97483  16.788  34.025  13.838
33727W        W97484  12.669  15.227   4.600
33728W        W97485  35.492  14.675  12.549
33729W        W97486   5.698  18.104   0.394
33730W        W97487   2.850  22.145   2.694
33731W        W97488   9.693  23.029   2.350
33732W        W97489  37.416  13.672   3.680
33733W        W97490  19.719  34.024  13.439
33734W        W97491   8.172   6.408  13.490
33735W        W97492  26.066   5.788  10.895
33736W        W97493  37.854  37.843   2.249
33737W        W97494  31.937  10.779   1.374
33738W        W97495  10.744  15.801  14.470
33739W        W97496  31.481  23.032  11.424
33740W        W97497  18.171  29.157  11.468
33741W        W97498  29.081  25.027  14.414
33742W        W97499  44.260  21.567   1.930
33743W        W97500   9.212  41.385   4.298
33744W        W97501   0.799  38.533  14.833
33745W        W97502  25.095  22.616  13.413
33746W        W97503  14.795  37.559  10.493
33747W        W97504  29.148  15.318   0.788
33748W        W97505   0.346  28.645   4.710
33749W        W97506   8.254  20.564  13.465
33750W        W97507  14.216  24.010   5.300
33751W        W97508   1.854   5.252  11.531
33752W        W97509   8.219  39.842  13.836
33753W        W97510  40.377  20.765   0.733
33754W        W97511  33.557   1.332   1.267
33755W        W97512  38.074  33.961  10.958
33756W        W97513  17.231  35.450  13.034
33757W        W97514   9.798   9.810   0.336
33758W        W97515  27.495   8.395  10.459
33759W        W97516  33.037  30.451  12.420
33760W        W97517  23.026  42.379  11.999
33761W        W97518  42.968  13.645   2.685
33762W        W97519   7.798  10.168   0.940
33763W        W97520  18.555  34.395  10.892
33764W        W97521   3.265  16.254  10.537
33765W        W97522  10.824  42.952   1.422
33766W        W97523  43.397  39.816  11.394
33767W        W97524  43.395   1.408   3.248
33768W        W97525  39.537  41.813  12.480
33769W        W97526   0.846  27.587  10.951
33770W        W97527  26.193  40.876  12.999
33771W        W97528  11.231  38.824  11.094
33772W        W97529  31.537   1.402   3.220
33773W        W97530  12.140  35.525  12.897
33774W        W97531  23.143  30.158   0.847
33775W        W97532  42.285   7.257   0.835
33776W        W97533  33.043  21.213   4.171
33777W        W97534  12.119  35.932  11.009
33778W        W97535  24.581  28.930   0.477
33779W        W97536  41.363  26.623  13.919
33780W        W97537   8.225  35.457   0.751
33781W        W97538  18.229  35.878  13.472
33782W        W97539   3.284  29.929  14.505
33783W        W97540  10.382  41.499  10.140
33784W        W97541  29.972  42.946   0.817
33785W        W97542   2.268  25.646   3.170
33786W        W97543  17.792   7.808  14.919
33787W        W97544  14.334  20.657  11.495
33788W        W97545  27.687  32.946  13.424
33789W        W97546   4.271   2.905   3.837
33790W        W97547   2.318  37.435  11.874
33791W        W97548  35.053  34.936   0.300
33792W        W97549   0.914  26.146  13.387
33793W        W97550  13.769  37.516  12.978
33794W        W97551  25.701  11.314   0.281
33795W        W97552  39.947  23.081  12.525
33796W        W97553   8.852   6.748  10.407
33797W        W97554  15.111  24.143   4.338
33798W        W97555  31.984   5.814  13.020
33799W        W97556  33.427  32.401   4.329
33800W        W97557  23.602  39.918  14.800
33801W        W97558  43.954  25.649   4.186
33802W        W97559  21.683  11.760  10.645
33803W        W97560  40.846  24.208   4.814
33804W        W97561  22.564  10.298   3.787
33805W        W97562  40.955  44.280   2.312
33806W        W97563   3.851  43.479  10.582
33807W        W97564  18.674  33.999   3.343
33808W        W97565  32.959   2.868   4.154
33809W        W97566  26.999  27.988  13.001
33810W        W97567   9.329  29.127  10.010
33811W        W97568  31.116  41.409   5.088
33812W        W97569  18.148  28.984   0.457
33813W        W97570  19.114  26.504  10.596
33814W        W97571   6.182   1.250   3.370
33815W        W97572  24.046  37.429  13.324
33816W        W97573   8.859   0.286  13.322
33817W        W97574   0.753  25.090   0.428
33818W        W97575  24.550  27.152  14.898
33819W        W97576  30.584  21.545  10.970
33820W        W97577  39.479   9.258  11.406
33821W        W97578   4.885  12.680   9.968
33822W        W97579  35.028  10.834   1.712
33823W        W97580  24.710  41.872  12.458
33824W        W97581  42.345   3.327   4.229
33825W        W97582  38.857   5.731  12.874
33826W        W97583  14.756  25.524   1.257
33827W        W97584  38.424   7.769   4.606
33828W        W97585   4.701  36.378  11.464
33829W        W97586  28.666  10.356  13.937
33830W        W97587   9.836   9.667   1.398
33831W        W97588   2.267  24.196  12.450
33832W        W97589  16.312  16.211  10.438
33833W        W97590   7.682  29.496   1.900
33834W        W97591   8.656   0.965  11.072
33835W        W97592  40.540   8.178   1.425
33836W        W97593  42.867  21.152   2.342
33837W        W97594   5.851  23.508  12.421
33838W        W97595  33.096  37.393   2.685
33839W        W97596  29.526   6.778  12.514
33840W        W97597   1.970  43.501  13.997
33841W        W97598  28.999  10.653   2.284
33842W        W97599  14.194  14.678   1.757
33843W        W97600   8.704   4.875   4.129
33844W        W97601  38.860  15.323  11.923
33845W        W97602   5.921   2.749   0.868
33846W        W97603   6.391  26.623  11.035
33847W        W97604  28.131  19.682  12.556
33848W        W97605  30.558  19.554   3.758
33849W        W97606   6.426  20.092  14.025
33850W        W97607  37.427  43.791  13.937
33851W        W97608   7.685   8.342  11.413
33852W        W97609  25.549  31.078  11.383
33853W        W97610  13.190   4.901   0.319
33854W        W97611  34.023  41.489  14.971
33855W        W97612  44.318  38.525  10.901
33856W        W97613  22.210  38.846  11.931
33857W        W97614   5.853  39.473   2.720
33858W        W97615  34.492   1.245   1.249
33859W        W97616  24.138  25.169  10.044
33860W        W97617  20.119   5.344   2.414
33861W        W97618  36.382   6.217  14.804
33862W        W97619  29.541  34.520   4.223
33863W        W97620  40.341  27.521  11.129
33864W        W97621  35.879   5.383   4.151
33865W        W97622  16.297  36.062  12.043
33866W        W97623  22.093  41.409   4.633
33867W        W97624  19.593  13.331   2.390
33868W        W97625   0.423  39.418   4.789
33869W        W97626   4.234  11.305  10.591
33870W        W97627  25.555  13.601  12.927
33871W        W97628  27.157  39.522  14.891
33872W        W97629   5.320  23.219  14.999
33873W        W97630  15.597  20.538  11.607
33874W        W97631  10.251  32.480  11.068
33875W        W97632  23.584  40.036   3.238
33876W        W97633  10.820  42.434  12.431
33877W        W97634  28.110   8.780  13.404
33878W        W97635  31.117  36.869  11.008
33879W        W97636   2.351  42.916  14.343
33880W        W97637  34.055   0.976   1.723
33881W        W97638  23.505  38.472   2.682
33882W        W97639  25.477  40.389  10.934
33883W        W97640  21.185  17.226  11.438
33884W        W97641   2.270  12.171   4.311
33885W        W97642  26.101  41.363  13.928
33886W        W97643  19.283  25.701  12.425
33887W        W97644  31.414  11.176   3.280
33888W        W97645  39.839   9.385   4.269
33889W        W97646  41.952  35.923   2.315
33890W        W97647  26.006  43.841  13.504
33891W        W97648  29.925   6.243  10.438
33892W        W97649  24.554   3.394  14.972
33893W        W97650  37.356  27.637  11.410
33894W        W97651  23.231   1.911   3.277
33895W        W97652  26.169  41.920   1.767
33896W        W97653  41.860  32.400  13.881
33897W        W97654  21.023  26.568  13.471
33898W        W97655  22.996   9.201  14.898
33899W        W97656  24.483  39.495   1.775
33900W        W97657  31.093  11.179   3.767
33901W        W97658  38.874   8.314  14.899
33902W        W97659  14.736  39.053   4.835
33903W        W97660  41.870  37.357   1.305
33904W        W97661  23.130   3.271  12.447
33905W        W97662  23.187  41.881   0.283
33906W        W97663   2.352   2.754   2.807
33907W        W97664  22.588  26.484   0.822
33908W        W97665  14.287   4.721   4.146
33909W        W97666   8.344  25.106   2.353
33910W        W97667  19.128  23.018  12.399
33911W        W97668   4.742  42.457  10.067
33912W        W97669  44.276   5.760  14.818
33913W        W97670  31.086  34.526   4.619
33914W        W97671   9.153  38.007  13.521
33915W        W97672  21.633  37.084   5.694
33916W        W97673  13.620  18.681  10.965
33917W        W97674   1.463   3.846   4.699
33918W        W97675  26.152  14.252   1.756
33919W        W97676   9.658   4.876   1.286
33920W        W97677  14.268  33.079   3.176
33921W        W97678   1.331  44.504   1.279
33922W        W97679  25.101  27.126  11.512
33923W        W97680  16.128  32.058   1.892
33924W        W97681  44.957  12.819  10.974
33925W        W97682   6.824  28.938   2.245
33926W        W97683  38.990  42.314  13.514
33927W        W97684  28.947   0.446  11.930
33928W        W97685   2.399  12.645   0.777
33929W        W97686  16.318  25.541   2.337
33930W        W97687  21.165   1.419   1.442
33931W        W97688   2.855   8.869   1.417
33932W        W97689  37.380  31.404  14.904
33933W        W97690  42.467  29.987  11.378
33934W        W97691  35.073  12.631  13.031
33935W        W97692  35.537  12.781   3.307
33936W        W97693  15.823  30.563  14.352
33937W        W97694   0.943  27.974   3.656
33938W        W97695   9.799  11.753  11.991
33939W        W97696  17.156  12.737   5.783
33940W        W97697  26.985   5.800   0.293
33941W        W97698  23.696  24.110  11.501
33942W        W97699  20.713  22.198   2.772
33943W        W97700   8.205   1.344   1.760
33944W        W97701  35.093   0.319  13.834
33945W        W97702  10.744  12.172  10.480
33946W        W97703   3.291  41.354   1.733
33947W        W97704  17.306   0.950   4.799
33948W        W97705   8.901  34.397  12.443
33949W        W97706  30.620  44.755  10.478
33950W        W97707   8.294  37.503   0.816
33951W        W97708  21.741   8.826  13.004
33952W        W97709   9.327  29.004   0.856
33953W        W97710  20.134  19.117   4.224
33954W        W97711  38.435  34.525   3.354
33955W        W97712   4.786  19.537   2.200
33956W        W97713  17.255  17.280  14.984
33957W        W97714  29.064   1.968   2.184
33958W        W97715  13.339  43.427  11.076
33959W        W97716  41.949   2.927   1.925
33960W        W97717  31.573  19.229  11.479
33961W        W97718  23.040  26.976   1.871
33962W        W97719  31.000  35.868  11.024
33963W        W97720  10.756  40.002   4.808
33964W        W97721  42.480  41.791   1.216
33965W        W97722  43.835  22.553   4.150
33966W        W97723  10.377  34.015   2.793
33967W        W97724   3.908  17.068   4.272
33968W        W97725  37.982  19.704  12.913
33969W        W97726  32.404  38.061   1.769
33970W        W97727  33.983  44.400  12.921
33971W        W97728   0.807  29.998   1.393
33972W        W97729  31.137   6.251   2.404
33973W        W97730  27.499  26.169   3.764
33974W        W97731  12.244  14.692  12.440
33975W        W97732  43.458  26.514   4.647
33976W        W97733  33.523  30.571  11.533
33977W        W97734   6.184  24.619   4.301
33978W        W97735  28.067  42.393  12.401
33979W        W97736  22.604  23.098  12.951
33980W        W97737  30.065   3.272   4.350
33981W        W97738  23.049  42.329  12.509
33982W        W97739  15.265  37.387  14.483
33983W        W97740  29.042  33.910  10.998
33984W        W97741  20.522  29.433  14.412
33985W        W97742  13.674  37.457  14.389
33986W        W97743  11.714  27.688   1.357
33987W        W97744   3.340  38.327   0.776
33988W        W97745  41.998  17.267   3.321
33989W        W97746  40.491  16.791  12.549
33990W        W97747  13.263  17.767   3.802
33991W        W97748  39.316  37.928   2.393
33992W        W97749   2.309  17.157  13.922
33993W        W97750   0.294  10.738  14.769
33994W        W97751  33.531  17.744  12.434
33995W        W97752  21.551  27.060   2.186
33996W        W97753  31.898  25.640  13.849
33997W        W97754  37.030  36.061   1.726
33998W        W97755  13.641  39.520  11.575
33999W        W97756  41.914  12.625   3.197
34000W        W97757  15.701   0.965   1.845
34001W        W97758  11.228  27.015  14.881
34002W        W97759  20.103  28.165  11.468
34003W        W97760   8.882  16.745  12.556
34004W        W97761  42.435  29.584  12.575
34005W        W97762  27.486  18.088   0.266
34006W        W97763  41.316  40.967   2.358
34007W        W97764  38.029   9.195   2.359
34008W        W97765  16.109  23.535   4.175
34009W        W97766  24.623  44.323   1.792
34010W        W97767  24.133  16.161   2.415
34011W        W97768  19.700  25.652  11.604
34012W        W97769  33.120  26.693  11.051
34013W        W97770  12.137  12.694   4.260
34014W        W97771  23.577   6.870  14.772
34015W        W97772  22.613  40.479  14.438
34016W        W97773   6.789  26.044   1.218
34017W        W97774  31.483  11.231  14.419
34018W        W97775  43.944   8.227  12.395
34019W        W97776  40.982  34.604   3.638
34020W        W97777  29.130   1.456   3.263
34021W        W97778  18.777  24.606   4.344
34022W        W97779   1.788  19.152  13.435
34023W        W97780  43.804  28.485  10.635
34024W        W97781  26.487  14.172  13.921
34025W        W97782  38.568   5.418   2.254
34026W        W97783  43.947  37.473  12.984
34027W        W97784  36.094   7.892  12.971
34028W        W97785  38.499  34.951   1.825
34029W        W97786  37.570  20.647  11.082
34030W        W97787   1.917  28.067   3.798
34031W        W97788  18.776  33.981   0.918
34032W        W97789  32.598  36.517   3.303
34033W        W97790   5.689  25.089  12.042
34034W        W97791  20.751  21.727  14.883
34035W        W97792  28.670  34.394   1.266
34036W        W97793  34.547  24.670  14.315
34037W        W97794  19.539  44.279  14.280
34038W        W97795  41.881  16.202  11.028
34039W        W97796  28.527  23.026   5.647
34040W        W97797  17.695   3.863  14.020
34041W        W97798  20.235  26.194   0.315
34042W        W97799  37.569  27.536   2.192
34043W        W97800  11.796  33.906  11.006
34044W        W97801  36.935  34.455   3.333
34045W        W97802   4.377  11.322  12.958
34046W        W97803  29.485  33.072   3.270
34047W        W97804  10.669   3.717   1.446
34048W        W97805  18.592  29.055   4.252
34049W        W97806  18.682  31.983   1.834
34050W        W97807  23.543  37.923  12.032
34051W        W97808  16.279   0.399   0.262
34052W        W97809  37.489  22.185   2.811
34053W        W97810  30.480  16.289  13.543
34054W        W97811  43.455  17.687   3.215
34055W        W97812  29.470  34.398  13.969
34056W        W97813  20.237  43.844   0.358
34057W        W97814  26.179  18.267  11.052
34058W        W97815  23.002  29.500   1.715
34059W        W97816   6.871   3.350   0.297
34060W        W97817   2.914  11.798   3.657
34061W        W97818  14.618  39.401  11.933
34062W        W97819  16.105  32.936  10.999
34063W        W97820  16.766   1.473  12.977
34064W        W97821  12.843  29.486  11.874
34065W        W97822   8.805  18.237  13.024
34066W        W97823  37.054  32.998  10.901
34067W        W97824   9.845  28.586  13.926
34068W        W97825  33.055  17.082   4.321
34069W        W97826  36.011  11.849   3.710
34070W        W97827  24.667  44.386  12.467
34071W        W97828  21.529  27.677   0.748
34072W        W97829   3.932  19.573   2.282
34073W        W97830  17.634  23.697  14.351
34074W        W97831  18.110  21.256   3.689
34075W        W97832  33.105  11.637  10.515
34076W        W97833  39.501  19.770  13.826
34077W        W97834  18.279   6.368   2.192
34078W        W97835  17.757  37.370  13.856
34079W        W97836  24.063  13.204  14.281
34080W        W97837   2.307  34.560   0.926
34081W        W97838  41.020  26.618   4.830
34082W        W97839  39.918   0.786  10.557
34083W        W97840  26.981  16.250   5.139
34084W        W97841  10.261  24.680  13.414
34085W        W97842  13.720  41.916  12.455
34086W        W97843  15.580  40.306   3.730
34087W        W97844  36.469  14.637  13.446
34088W        W97845  26.701   0.366  14.983
34089W        W97846  23.733  16.754  13.809
34090W        W97847  38.412   0.794   2.738
34091W        W97848  27.609   4.278   2.366
34092W        W97849   3.434  17.752  12.463
34093W        W97850  18.170  10.365  11.123
34094W        W97851  22.641  43.850   2.364
34095W        W97852  38.533  26.504   2.737
34096W        W97853  10.183  42.417   4.280
34097W        W97854  36.010   0.341  10.150
34098W        W97855  30.934  21.204   0.892
34099W        W97856  28.470   7.870  12.901
34100W        W97857  37.950  21.708   3.638
34101W        W97858  40.377  23.014   4.116
34102W        W97859  12.672  15.709  11.882
34103W        W97860   3.391  32.507  13.954
34104W        W97861  43.432  17.694  12.396
34105W        W97862  26.702  10.274   5.116
34106W        W97863   7.803  18.609   1.884
34107W        W97864  43.503   2.451  11.393
34108W        W97865  32.948  19.637  11.377
34109W        W97866  17.777  18.737   4.147
34110W        W97867   3.800   7.370   1.432
34111W        W97868  29.046  35.942   2.270
34112W        W97869  32.392   0.845  13.939
34113W        W97870  16.100   2.756   4.347
34114W        W97871  40.839   2.295   5.754
34115W        W97872  11.659  32.403  14.479
34116W        W97873  28.043  34.369   4.617
34117W        W97874  29.988  42.526  13.540
34118W        W97875  42.396  32.928   2.299
34119W        W97876  24.175  13.824  13.848
34120W        W97877  44.260  18.653   0.250
34121W        W97878  16.691  20.734  11.456
34122W        W97879  17.187   4.272   0.398
34123W        W97880  11.642   1.790   1.223
34124W        W97881  17.224   9.394   1.891
34125W        W97882  35.461  12.778   0.884
34126W        W97883  27.651  36.092  13.520
34127W        W97884   6.428   6.904   0.390
34128W        W97885   6.188  22.077   0.275
34129W        W97886   0.757  28.568  11.439
34130W        W97887  10.174  35.061   3.193
34131W        W97888  26.009  26.574  13.376
34132W        W97889   9.836  15.135  14.434
34133W        W97890  10.240  21.747   4.696
34134W        W97891  16.101  19.168  12.470
34135W        W97892  27.041  21.707   4.692
34136W        W97893  25.054   0.840   2.365
34137W        W97894  41.957  13.175   3.327
34138W        W97895  24.220  10.213  12.564
34139W        W97896   3.902  17.800  12.958
34140W        W97897   3.897   4.411   0.794
34141W        W97898  21.124  10.733  13.003
34142W        W97899  26.506  19.237  13.836
34143W        W97900  44.931  14.608   3.166
34144W        W97901   5.823  44.267  13.336
34145W        W97902  25.174  44.772  11.593
34146W        W97903  20.221  29.117   3.806
34147W        W97904  39.415   0.300  10.096
34148W        W97905  35.922  12.747  10.429
34149W        W97906   2.796  15.618  13.902
34150W        W97907  11.181  25.563  12.045
34151W        W97908  17.091  24.056  11.517
34152W        W97909  28.955   4.867  14.285
34153W        W97910  37.073   0.866  13.827
34154W        W97911  19.042  33.903   0.431
34155W        W97912  41.473  28.087  12.378
34156W        W97913  33.023   5.403  13.340
34157W        W97914  44.825  17.275  11.398
34158W        W97915  18.228  27.168  14.430
34159W        W97916  17.232  42.949   2.772
34160W        W97917  32.613  39.920   1.359
34161W        W97918   2.440  31.968   3.191
34162W        W97919  25.627   0.314   4.684
34163W        W97920  28.581  31.599   2.199
34164W        W97921  28.164  35.019   1.873
34165W        W97922  27.549  35.557  14.421
34166W        W97923  18.622   5.244  13.058
34167W        W97924  34.389  35.017  14.276
34168W        W97925  24.481  27.462   0.243
34169W        W97926  11.219   9.658   1.350
34170W        W97927   8.386  32.908  11.524
34171W        W97928   7.365  22.615   0.429
34172W        W97929  35.418  19.721   3.788
34173W        W97930  25.079   1.938   2.782
34174W        W97931  38.075  17.099  13.862
34175W        W97932  34.956  43.901  11.906
34176W        W97933   2.901   0.342   2.202
34177W        W97934  22.144  12.138   1.294
34178W        W97935  14.592  23.154  14.405
34179W        W97936  41.869  32.635   0.472
34180W        W97937  18.755  42.786  13.829
34181W        W97938   7.839   0.474   3.701
34182W        W97939  10.143  24.142  10.505
34183W        W97940  21.096  43.503  11.911
34184W        W97941  44.439   8.655  13.054
34185W        W97942  28.625  18.787  10.084
34186W        W97943  19.620  28.591   3.689
34187W        W97944  36.026  19.049   1.403
34188W        W97945   5.896  28.601  12.904
34189W        W97946  21.685  21.252  11.570
34190W        W97947  36.927  38.926  11.539
34191W        W97948  40.394   5.357  10.618
34192W        W97949  31.524   4.294   0.957
34193W        W97950  13.244  29.630  12.836
34194W        W97951  30.943  30.456  14.359
34195W        W97952  19.114  34.560  11.566
34196W        W97953   0.479  42.931   3.709
34197W        W97954  26.543  19.047   3.225
34198W        W97955  28.462  14.220   0.814
34199W        W97956  22.605  26.035   0.867
34200W        W97957  32.523   5.777  13.876
34201W        W97958  29.919   6.420   0.869
34202W        W97959  19.123  30.544   4.207
34203W        W97960  14.111  38.473   1.399
34204W        W97961  26.554  16.715   0.332
34205W        W97962   3.801  35.915  13.438
34206W        W97963  11.830  17.114   3.259
34207W        W97964  11.144  43.986  13.536
34208W        W97965  20.113  24.108  13.310
34209W        W97966  43.466  16.203  14.959
34210W        W97967   9.151  31.624  14.479
34211W        W97968  30.060  14.317  10.582
34212W        W97969  21.253   9.728   0.854
34213W        W97970   4.426  38.060  11.937
34214W        W97971  37.347   5.747   4.349
34215W        W97972  26.974  25.534  10.552
34216W        W97973  35.109  28.570   0.278
34217W        W97974   1.258  16.663   4.816
34218W        W97975  19.773  44.378   4.679
34219W        W97976  31.098  24.185   0.815
34220W        W97977  20.039  37.880   0.355
34221W        W97978   0.405  20.597  13.959
34222W        W97979  11.641  23.125   4.196
34223W        W97980   8.301  20.762  11.606
34224W        W97981  13.138  36.458   0.899
34225W        W97982  27.490  41.383   3.813
34226W        W97983   2.315   5.730   2.266
34227W        W97984   8.167  37.438  12.036
34228W        W97985  24.703  28.669  12.415
34229W        W97986  28.014  10.202  13.949
34230W        W97987   3.824   8.760   3.342
34231W        W97988  22.033   2.260  12.480
34232W        W97989   6.841   4.388   3.181
34233W        W97990  11.351  20.526   0.953
34234W        W97991  36.917   2.754  12.073
34235W        W97992  32.491  33.491   1.793
34236W        W97993   2.464  30.552   3.324
34237W        W97994  10.800  11.848   3.640
34238W        W97995  18.132   2.470   4.635
34239W        W97996  38.835  36.433  12.471
34240W        W97997   6.422  35.590   3.291
34241W        W97998  24.557  14.339  14.821
34242W        W97999  22.043  18.635   2.417
34243W        W98000  36.350  14.720   4.837
34244W        W98001  38.820  26.513   1.295
34245W        W98002   5.859  39.560  14.832
34246W        W98003  32.095  17.156   1.242
34247W        W98004   2.448  11.757   4.144
34248W        W98005  36.389  15.257  10.634
34249W        W98006  28.455  24.613   0.777
34250W        W98007   5.734  16.134   4.252
34251W        W98008  16.787  21.168  12.899
34252W        W98009  32.568  31.463   0.443
34253W        W98010  11.230  21.705  13.921
34254W        W98011  32.412  23.225  13.900
34255W        W98012  26.965  33.580  13.337
34256W        W98013   8.734  40.333   0.804
34257W        W98014  18.247  42.995   4.600
34258W        W98015   8.229  34.085   4.599
34259W        W98016  22.731  36.373   2.326
34260W        W98017  16.660  32.980  12.491
34261W        W98018   8.405  10.669   3.777
34262W        W98019  13.658   6.793  12.407
34263W        W98020   6.333  28.148   0.364
34264W        W98021  35.052  39.849   0.390
34265W        W98022   5.342  11.714  10.409
34266W        W98023  19.739  21.531  14.899
34267W        W98024  17.097  37.474   3.276
34268W        W98025   3.814   4.391   2.802
34269W        W98026  36.466  15.644   1.421
34270W        W98027  21.528   8.246   3.795
34271W        W98028  30.477   0.465  10.892
34272W        W98029  20.107  25.526   3.293
34273W        W98030  38.485   0.947  10.076
34274W        W98031  41.787  20.661   1.924
34275W        W98032  40.885  26.029   0.360
34276W        W98033  13.299  25.200  11.992
34277W        W98034  14.796   7.321  13.833
34278W        W98035  11.664  30.619  10.965
34279W        W98036  18.631  19.729   4.145
34280W        W98037  29.176  12.700   1.402
34281W        W98038   3.270  29.569  14.017
34282W        W98039  44.862  27.562   4.809
34283W        W98040  42.932  13.184   3.799
34284W        W98041  23.206   4.885  12.853
34285W        W98042  41.948   8.882   2.272
34286W        W98043  27.136  24.650   3.339
34287W        W98044  31.489  16.168   3.696
34288W        W98045   7.859  44.274   5.215
34289W        W98046  15.608  19.181   1.399
34290W        W98047  32.934  17.257   1.854
34291W        W98048  21.595  26.097   0.315
34292W        W98049   3.348   8.830  13.341
34293W        W98050   9.184  22.179  14.326
34294W        W98051  39.917  37.033   4.237
34295W        W98052  42.339   4.854  14.792
34296W        W98053  17.639  25.161  14.352
34297W        W98054  13.717  33.883   2.182
34298W        W98055  41.959  25.198   4.716
34299W        W98056  13.825  19.157  14.473
34300W        W98057  37.498  14.306   1.260
34301W        W98058  19.280  44.480   4.681
34302W        W98059  38.005  12.323  12.970
34303W        W98060  34.540   6.328   4.741
34304W        W98061  22.006   2.435  13.028
34305W        W98062  39.866  44.505   0.810
34306W        W98063  28.981  38.917  10.598
34307W        W98064  36.846  44.322  13.513
34308W        W98065  15.805  25.675   0.743
34309W        W98066  30.163  41.464   4.805
34310W        W98067  20.049   2.410  12.508
34311W        W98068   7.899  22.170  14.443
34312W        W98069  11.765  28.660  12.868
34313W        W98070  26.057   3.896  13.365
34314W        W98071   1.377  29.551   1.874
34315W        W98072   8.251  26.102   2.284
34316W        W98073  30.435   9.350   5.157
34317W        W98074  30.003  38.415  13.018
34318W        W98075   1.853  12.640  14.507
34319W        W98076  18.214   6.839  13.060
34320W        W98077  43.781  21.550  13.469
34321W        W98078   6.781  33.431  11.506
34322W        W98079  40.947  18.681   3.798
34323W        W98080   5.420  38.435   0.420
34324W        W98081  32.962  42.868   2.204
34325W        W98082  21.713   8.692   1.368
34326W        W98083  28.959   3.454   3.761
34327W        W98084  26.668   8.718   2.741
34328W        W98085  12.258  34.499  11.079
34329W        W98086  11.832  39.476   1.695
34330W        W98087  38.966  21.642   4.698
34331W        W98088  34.462  16.176  12.368
34332W        W98089  31.459  32.577   3.829
34333W        W98090  27.025  39.392   4.768
34334W        W98091  24.110  26.519  13.926
34335W        W98092  23.553  44.978   0.902
34336W        W98093  13.262  38.355  14.779
34337W        W98094  31.636   7.837   3.869
34338W        W98095  11.827  25.623  11.919
34339W        W98096  10.677  32.485   0.944
34340W        W98097  24.722  39.862   3.864
34341W        W98098  42.021  15.281  13.373
34342W        W98099  37.537  44.367  13.362
34343W        W98100   7.739  42.340   3.179
34344W        W98101  15.271  23.656  12.889
34345W        W98102  18.676  34.532   3.297
34346W        W98103  24.052  12.772  10.144
34347W        W98104   8.362  19.096   3.750
34348W        W98105  20.035  44.350  14.392
34349W        W98106  17.711  15.584   1.304
34350W        W98107  18.116  28.051  13.416
34351W        W98108  27.681  41.021  13.853
34352W        W98109   7.394  38.976  10.972
34353W        W98110  37.529  33.878   1.450
34354W        W98111  28.500   0.274   2.403
34355W        W98112  14.753   8.883  10.587
34356W        W98113  12.216  17.176   4.277
34357W        W98114   5.404  10.237   1.885
34358W        W98115   0.467  26.171   0.757
34359W        W98116  13.786  42.382   0.807
34360W        W98117  10.279  17.615   0.355
34361W        W98118  43.952  23.112   1.287
34362W        W98119  25.654  43.298   1.451
34363W        W98120  35.419  29.446   4.833
34364W        W98121   9.177  17.772  11.433
34365W        W98122   0.299  40.033   0.428
34366W        W98123  23.126   1.423  12.878
34367W        W98124   4.260  38.348   1.363
34368W        W98125  37.569  26.680  13.503
34369W        W98126  17.634  25.541  14.295
34370W        W98127   9.657  39.054  12.498
34371W        W98128  13.671   8.219  12.967
34372W        W98129  27.036  18.216   2.790
34373W        W98130   8.330  41.927  13.335
34374W        W98131   7.869  15.702   2.227
34375W        W98132  22.083  11.302   3.281
34376W        W98133  37.862  21.590  13.840
34377W        W98134  33.880  31.404   4.761
34378W        W98135   3.788  41.399  13.975
34379W        W98136  24.617  12.685  11.988
34380W        W98137  41.314  16.309   0.387
34381W        W98138   2.402  32.922   0.808
34382W        W98139  27.672  37.416   0.413
34383W        W98140  28.438  41.370   2.893
34384W        W98141  37.959  30.505  14.961
34385W        W98142  33.421  10.161  10.419
34386W        W98143  27.001  16.122  11.379
34387W        W98144  38.825  26.963  13.393
34388W        W98145  38.404   4.446   9.515
34389W        W98146  16.587   3.852   4.772
34390W        W98147  22.156  12.763  12.390
34391W        W98148  33.521  34.876  11.973
34392W        W98149  37.881  10.673   3.251
34393W        W98150  11.660  19.112   3.325
34394W        W98151  39.864  26.076  13.005
34395W        W98152  14.767  40.332   2.763
34396W        W98153  31.482  42.978  10.011
34397W        W98154  18.662   4.768  11.058
34398W        W98155  31.081   0.785   0.288
34399W        W98156  43.954   6.305  14.804
34400W        W98157  28.941  37.372   5.174
34401W        W98158  38.481  36.983   4.188
34402W        W98159   0.962   9.753  14.029
34403W        W98160  13.710  25.125   1.912
34404W        W98161   7.276  28.524   0.328
34405W        W98162   5.288  42.458  13.793
34406W        W98163   5.215  21.041   1.843
34407W        W98164  26.587  40.953   3.807
34408W        W98165   1.239  42.482   1.779
34409W        W98166  34.895   1.823   9.974
34410W        W98167  25.709  33.944  13.477
34411W        W98168   3.300   5.858   0.354
34412W        W98169  23.030  26.495  12.385
34413W        W98170  40.015  13.242  14.025
34414W        W98171  12.213  20.625   1.917
34415W        W98172  40.811  33.472   3.325
34416W        W98173  19.638  40.416  13.006
34417W        W98174  43.512   0.442  12.905
34418W        W98175  24.221  27.136   2.404
34419W        W98176  22.517  16.280   1.305
34420W        W98177  28.452   8.178  10.940
34421W        W98178   9.148  37.011  11.079
34422W        W98179  30.068  14.727  11.065
34423W        W98180  30.498  17.687   4.770
34424W        W98181  18.153  23.716  14.915
34425W        W98182  31.418  14.253   1.889
34426W        W98183  27.615  40.523  11.480
34427W        W98184  28.989  32.472  10.635
34428W        W98185   7.236  34.612   4.243
34429W        W98186  31.063  20.181  13.444
34430W        W98187  34.531  26.517   1.428
34431W        W98188  28.560  27.597   1.312
34432W        W98189  44.403  31.908   2.329
34433W        W98190  17.197  43.984   1.314
34434W        W98191  14.787  13.226   2.417
34435W        W98192  25.190  15.707  11.472
34436W        W98193  18.146  13.223  14.414
34437W        W98194   5.428   9.213  10.562
34438W        W98195  12.824   9.827   3.650
34439W        W98196   1.394  36.457  13.479
34440W        W98197  29.566  18.620   3.265
34441W        W98198  11.308  35.031  11.607
34442W        W98199   2.888   5.314  13.503
34443W        W98200  37.848  40.034  11.399
34444W        W98201  33.390  40.462   3.157
34445W        W98202   4.295  20.560   0.344
34446W        W98203  44.908  43.368  14.817
34447W        W98204  16.243  43.796  14.481
34448W        W98205  20.269  40.366  12.483
34449W        W98206  17.627  20.651  14.372
34450W        W98207   1.389   0.365  12.912
34451W        W98208  30.475   1.267   1.417
34452W        W98209  33.453   4.246   5.651
34453W        W98210  13.763  29.549   3.228
34454W        W98211  21.034  21.535   0.788
34455W        W98212   8.199  31.515   3.717
34456W        W98213  29.602  33.064  14.420
34457W        W98214  18.569  19.723  14.339
34458W        W98215  19.774  27.662   0.793
34459W        W98216  40.512  38.948   1.784
34460W        W98217  40.939   2.367   1.398
34461W        W98218   2.336   4.939   2.820
34462W        W98219  31.504  17.735   2.712
34463W        W98220  15.698  35.500  13.950
34464W        W98221   9.686  28.986   2.181
34465W        W98222  33.061  44.340   4.206
34466W        W98223  21.596   5.212  13.958
34467W        W98224  29.559   5.305   3.728
34468W        W98225  40.914   7.836   2.193
34469W        W98226   9.755  23.230  13.460
34470W        W98227   7.671  11.733   5.277
34471W        W98228  23.232  18.273   0.418
34472W        W98229  32.141  31.486   4.219
34473W        W98230  43.497   7.219  14.477
34474W        W98231  20.762  10.311   3.865
34475W        W98232   2.285   2.375  10.622
34476W        W98233  31.645  15.610   4.749
34477W        W98234  29.465  21.690   4.802
34478W        W98235  34.534  27.087  12.529
34479W        W98236   3.246  36.898  11.963
34480W        W98237  43.907   9.711  14.381
34481W        W98238   0.442   4.879   4.821
34482W        W98239  32.433  31.412   3.773
34483W        W98240  13.121   2.889  10.584
34484W        W98241  42.920  36.888  10.501
34485W        W98242  34.611  37.391   1.709
34486W        W98243  31.420   2.786   4.129
34487W        W98244  25.672  15.614  14.798
34488W        W98245  16.095   9.378  13.361
34489W        W98246  28.181  28.143   3.674
34490W        W98247  14.228  31.543  10.491
34491W        W98248  38.006  43.456  14.773
34492W        W98249  41.929   0.453  12.837
34493W        W98250  25.663  32.531  12.036
34494W        W98251   4.925   4.700  14.776
34495W        W98252   9.179  15.138  13.314
34496W        W98253  37.448  28.957   2.677
34497W        W98254  44.483  19.257  14.953
34498W        W98255  10.737   7.860  12.422
34499W        W98256  34.445  34.451  11.594
34500W        W98257   8.704  12.650   4.621
34501W        W98258   7.737   7.772  12.577
34502W        W98259  13.350  25.683  12.849
34503W        W98260  31.068  18.290  14.887
34504W        W98261  25.046  21.538   2.847
34505W        W98262  42.524  43.981   0.270
34506W        W98263  42.286  39.330   4.145
34507W        W98264  17.193  13.186  13.803
34508W        W98265  16.231   3.317   2.692
34509W        W98266   9.198  27.172   0.917
34510W        W98267  18.074  35.854  10.552
34511W        W98268  34.459  27.524   0.296
34512W        W98269  34.990  38.548   1.786
34513W        W98270  15.672  34.042   1.431
34514W        W98271  44.455  17.099  10.616
34515W        W98272  22.106  40.456  12.844
34516W        W98273  23.120  30.442   2.378
34517W        W98274  30.041  15.703   0.399
34518W        W98275  23.580  15.207   4.778
34519W        W98276  26.024  26.981  12.050
34520W        W98277  41.509  40.917  12.885
34521W        W98278  16.214  33.020  11.488
34522W        W98279  39.929  40.011  13.836
34523W        W98280   1.427  37.968   0.773
34524W        W98281  33.071  25.628  12.460
34525W        W98282   9.652  35.399  11.406
34526W        W98283  43.857  21.148   4.236
34527W        W98284  29.514  43.908   0.912
34528W        W98285  27.120  29.003  12.554
34529W        W98286  31.496   6.911   2.901
34530W        W98287   9.316   3.335  12.951
34531W        W98288  19.735   6.312   1.873
34532W        W98289   5.738  28.463   0.873
34533W        W98290  36.060  10.811  12.490
34534W        W98291  30.937  41.877  11.608
34535W        W98292   6.751  18.204   2.293
34536W        W98293  12.229  35.479   1.431
34537W        W98294  13.828  17.184  14.849
34538W        W98295  35.909  34.090  13.367
34539W        W98296  14.336   1.973   5.254
34540W        W98297  21.073  36.978   3.660
34541W        W98298  34.585  44.946   3.669
34542W        W98299  41.966   7.861   0.849
34543W        W98300   4.842  20.688  10.598
34544W        W98301  20.666  35.021   2.895
34545W        W98302  26.693  18.123  11.901
34546W        W98303  16.701  19.624  11.399
34547W        W98304   0.937  13.686  10.451
34548W        W98305  35.540  26.514  13.537
34549W        W98306  21.597  19.659   0.466
34550W        W98307  28.044  30.998  14.921
34551W        W98308   1.740  35.558   0.912
34552W        W98309   5.389  10.197   0.850
34553W        W98310  16.605  42.477   4.819
34554W        W98311  19.205   6.226  11.491
34555W        W98312  42.495   4.323   3.284
34556W        W98313  44.438  42.871   3.800
34557W        W98314  11.834  16.314   0.472
34558W        W98315  44.383  28.129  14.822
34559W        W98316  40.508  15.306   4.347
34560W        W98317  18.155  40.534  10.951
34561W        W98318  18.051  26.117  14.772
34562W        W98319  20.163   1.743  11.583
34563W        W98320   4.280  12.853  11.025
34564W        W98321  41.297  25.613   3.195
34565W        W98322  18.708   8.332   1.904
34566W        W98323  32.973  34.010   0.786
34567W        W98324  17.196  42.357   3.804
34568W        W98325   2.961  10.871   4.151
34569W        W98326  42.381  40.854  12.966
34570W        W98327   4.347  33.944  14.314
34571W        W98328   3.777  43.279   3.804
34572W        W98329   2.960   0.390   0.895
34573W        W98330  43.311   5.875  14.373
34574W        W98331  31.063   8.849  13.979
34575W        W98332   3.435  15.794  13.465
34576W        W98333  13.691  42.464   5.571
34577W        W98334  25.565  28.650   2.779
34578W        W98335  34.406  28.498  12.506
34579W        W98336   2.808   0.928  12.345
34580W        W98337  23.163  30.436  11.986
34581W        W98338  17.759  28.676  10.428
34582W        W98339  10.719  32.939   2.704
34583W        W98340  37.047  30.471  13.412
34584W        W98341  31.931   6.749  10.425
34585W        W98342  25.063  36.091  14.280
34586W        W98343  25.556  28.041  10.565
34587W        W98344   5.920  25.629   2.325
34588W        W98345  13.765  39.918  12.473
34589W        W98346   6.201  40.525   5.276
34590W        W98347  33.925  35.566   3.848
34591W        W98348  22.620   4.337  10.475
34592W        W98349  31.512   1.933  10.994
34593W        W98350  40.028  42.936   0.922
34594W        W98351  43.312  10.652  12.922
34595W        W98352  21.121  21.654   0.419
34596W        W98353  11.783   6.428   4.722
34597W        W98354  32.451   4.277  10.434
34598W        W98355  38.979  23.989   2.269
34599W        W98356  22.644  35.434  11.578
34600W        W98357  28.581   3.782  11.492
34601W        W98358  30.488  22.585   3.190
34602W        W98359   0.775   0.955  13.829
34603W        W98360   3.903  37.463   5.259
34604W        W98361  25.015   8.833   1.234
34605W        W98362  21.209  38.853  11.114
34606W        W98363  25.113  36.494   1.306
34607W        W98364  38.951  44.010  12.849
34608W        W98365  26.040  25.676   1.396
34609W        W98366   9.244  35.467  14.983
34610W        W98367  19.629  35.503  10.089
34611W        W98368  33.949   9.351   0.311
34612W        W98369  28.059  32.918   9.925
34613W        W98370  17.717  17.677  10.556
34614W        W98371   3.409  10.723   0.302
34615W        W98372  15.716  31.449   0.830
34616W        W98373  36.406   5.259  13.965
34617W        W98374   6.257  14.134   3.671
34618W        W98375   0.912  17.661  13.903
34619W        W98376  35.444   5.407  11.463
34620W        W98377   6.403  13.686  12.928
34621W        W98378  15.162   5.270  14.989
34622W        W98379   5.864  24.216   0.927
34623W        W98380  37.966  29.555   1.238
34624W        W98381   5.328  40.433  12.862
34625W        W98382  27.065  34.418   2.748
34626W        W98383  29.048  18.257  13.521
34627W        W98384  29.158  26.481  11.393
34628W        W98385  31.511   9.336  11.118
34629W        W98386  18.148   7.357  13.487
34630W        W98387  43.016   3.301   2.872
34631W        W98388  24.201  14.213   2.847
34632W        W98389  30.431   8.343  12.462
34633W        W98390  18.157  12.187  10.977
34634W        W98391  29.023  20.661   3.835
34635W        W98392   9.796   0.760  11.020
34636W        W98393   9.651   8.871  14.972
34637W        W98394  14.096  26.040  13.309
34638W        W98395  37.926  26.094   3.268
34639W        W98396  12.616   9.186  13.460
34640W        W98397  22.677  24.070   9.929
34641W        W98398  42.981  20.535  11.073
34642W        W98399  11.196  29.587  12.928
34643W        W98400  26.620  22.190   1.242
34644W        W98401  35.008  16.802  13.012
34645W        W98402  43.408  17.778   4.713
34646W        W98403   7.237  18.759  13.897
34647W        W98404  10.374   5.396   0.842
34648W        W98405  35.991   2.378   4.164
34649W        W98406  25.683  29.108  13.989
34650W        W98407  33.382  27.626  10.941
34651W        W98408  30.972  27.018  14.970
34652W        W98409  29.576   7.397  12.472
34653W        W98410   8.167  12.309   2.278
34654W        W98411   5.309  14.263   1.428
34655W        W98412  17.190  33.542   0.437
34656W        W98413  12.694  38.406  10.456
34657W        W98414  22.594   4.878   4.286
34658W        W98415  38.343  32.077  14.363
34659W        W98416  17.605  20.733  13.849
34660W        W98417  24.498  32.954   2.330
34661W        W98418  31.404  25.167   4.711
34662W        W98419  40.814  32.574   0.961
34663W        W98420  15.229  39.888  12.368
34664W        W98421  18.050  10.669   2.825
34665W        W98422  39.429  28.569   3.734
34666W        W98423  43.514  44.349   0.417
34667W        W98424  14.145  20.043  10.922
34668W        W98425  40.472  43.909   1.261
34669W        W98426  16.136  38.884   9.932
34670W        W98427  25.571  19.694   2.399
34671W        W98428  22.014  10.316  13.940
34672W        W98429  40.389  40.031  10.955
34673W        W98430  30.534   8.222   2.384
34674W        W98431  27.679  26.121   1.811
34675W        W98432  43.350  19.666  14.782
34676W        W98433  16.072   6.266  12.907
34677W        W98434  38.849   2.837  13.342
34678W        W98435   8.757  32.482   2.873
34679W        W98436  19.197  23.122  13.334
34680W        W98437  37.882  38.490   4.602
34681W        W98438   9.700  33.890   4.739
34682W        W98439  14.786  28.662  10.478
34683W        W98440  44.893  33.942   1.763
34684W        W98441   4.746   0.255   5.133
34685W        W98442  13.318  11.737  14.500
34686W        W98443  27.465  15.116  13.455
34687W        W98444  20.600   3.215  13.502
34688W        W98445  17.673  30.561  11.932
34689W        W98446  35.403   8.693  13.899
34690W        W98447  43.829  42.284   0.918
34691W        W98448  22.115  28.635   0.833
34692W        W98449  34.515  39.385   2.212
34693W        W98450   8.184  28.070   3.387
34694W        W98451  40.403  44.002   4.149
34695W        W98452  44.489  30.923   2.689
34696W        W98453   2.754  34.864  10.421
34697W        W98454  37.015  41.978  14.508
34698W        W98455  26.979  19.626   3.783
34699W        W98456   0.281  13.822  11.864
34700W        W98457   4.869  15.645   3.631
34701W        W98458  38.015  21.675   3.329
34702W        W98459  29.439  11.621  14.906
34703W        W98460  35.528  13.244   2.812
34704W        W98461  29.448  37.353   0.739
34705W        W98462  32.885   3.355  14.495
34706W        W98463  13.332  12.330   4.329
34707W        W98464  28.089  24.215  13.496
34708W        W98465  26.126  17.670  14.327
34709W        W98466  34.455  35.888  10.596
34710W        W98467  14.264  40.539   4.750
34711W        W98468  26.145   9.710   0.411
34712W        W98469  44.355  11.634   3.357
34713W        W98470  29.649  36.907  13.006
34714W        W98471  43.427  39.396  13.342
34715W        W98472  11.833   4.401  10.467
34716W        W98473  41.492  12.345  14.863
34717W        W98474  31.442  36.905  11.909
34718W        W98475  15.702  43.807  11.980
34719W        W98476   1.434  40.326   3.315
34720W        W98477   2.240  33.956  14.960
34721W        W98478  33.451  16.103  11.450
34722W        W98479  40.502  31.445   4.737
34723W        W98480  19.646  26.500   2.782
34724W        W98481  20.666  25.102   4.737
34725W        W98482  33.446  17.126   0.454
34726W        W98483  11.340  20.573   3.756
34727W        W98484  19.185  33.518   2.701
34728W        W98485   6.323   6.765   2.296
34729W        W98486  39.452   2.273  13.980
34730W        W98487  42.413  39.456  14.423
34731W        W98488  20.537  44.861  12.364
34732W        W98489  40.942  27.136   0.886
34733W        W98490  33.511  19.645  13.452
34734W        W98491  30.600  10.294   4.825
34735W        W98492   5.258  20.594  13.491
34736W        W98493  18.248  25.666  11.508
34737W        W98494  35.420   4.710   0.368
34738W        W98495   2.759  29.954  13.844
34739W        W98496   7.743   0.885   5.280
34740W        W98497   1.880   7.185  11.083
34741W        W98498  12.243  12.300   4.777
34742W        W98499  37.024  28.103  14.431
34743W        W98500  32.951  38.449  11.996
34744W        W98501  32.075   1.928  11.003
34745W        W98502  18.783  27.194   2.704
34746W        W98503  38.480  41.914   2.843
34747W        W98504   7.305  39.939   0.895
34748W        W98505  19.694   0.390   2.751
34749W        W98506  10.349   9.265  14.309
34750W        W98507  18.749  42.815   0.936
34751W        W98508  18.087  23.575   4.708
34752W        W98509   4.245  17.573   2.286
34753W        W98510   4.286  20.229  11.965
34754W        W98511  15.271  29.146  13.864
34755W        W98512  17.758  28.140  14.907
34756W        W98513   5.209  23.699   1.397
34757W        W98514  40.471  10.363  14.026
34758W        W98515  39.481  34.598   5.310
34759W        W98516  30.106  11.203   1.909
34760W        W98517  24.055  20.036   2.350
34761W        W98518  39.333   8.290  13.941
34762W        W98519  16.727   6.364   2.786
34763W        W98520  20.138  10.248   4.838
34764W        W98521  25.574  10.257  11.909
34765W        W98522  31.594  16.105  13.478
34766W        W98523  39.484   4.888  10.914
34767W        W98524   7.782  19.161  13.329
34768W        W98525   6.402   3.274  12.370
34769W        W98526  36.381   8.312  11.384
34770W        W98527  28.053   0.375  12.400
34771W        W98528  36.391  18.685  14.326
34772W        W98529   8.351  16.090   0.754
34773W        W98530  39.487  11.625   4.118
34774W        W98531  31.975  23.552  14.326
34775W        W98532   5.895  39.384   9.511
34776W        W98533  13.120  42.911   1.935
34777W        W98534  27.671  14.316  10.912
34778W        W98535  28.999  34.942   0.878
34779W        W98536  24.570  15.657   0.807
34780W        W98537  13.733  20.645   1.439
34781W        W98538  14.264  40.881  13.995
34782W        W98539  36.070  22.606  14.373
34783W        W98540  38.438   6.234   3.834
34784W        W98541   6.683  26.479   2.360
34785W        W98542  21.222   0.952   0.860
34786W        W98543  15.131  16.221  13.879
34787W        W98544   8.855   1.386   2.328
34788W        W98545   6.863  37.971  12.428
34789W        W98546   4.864   8.272   4.646
34790W        W98547  39.344  18.570   2.329
34791W        W98548  36.844  34.515   1.220
34792W        W98549   0.419  13.748  12.897
34793W        W98550  20.730   2.839   1.794
34794W        W98551  15.154   5.842  14.375
34795W        W98552  29.609  43.765  11.413
34796W        W98553  32.458  32.471   3.318
34797W        W98554   2.235  17.131  11.876
34798W        W98555  38.524  32.401  12.003
34799W        W98556  26.472  39.357   3.753
34800W        W98557  11.142  15.713  13.006
34801W        W98558  12.684  19.120  11.475
34802W        W98559  18.219  10.192   0.269
34803W        W98560  25.696  27.657   1.282
34804W        W98561  24.219  33.001  13.872
34805W        W98562  13.330  14.251  14.425
34806W        W98563  26.206  36.452  11.926
34807W        W98564  37.445  36.536  12.898
34808W        W98565  43.808  40.328   1.702
34809W        W98566  36.477  31.509  14.431
34810W        W98567  42.895  36.422  13.862
34811W        W98568  27.671  30.097  12.508
34812W        W98569   1.369  13.328  13.002
34813W        W98570  40.876  43.015   0.782
34814W        W98571  34.067   5.759   3.301
34815W        W98572  27.097   9.786   1.360
34816W        W98573  36.861  40.964   1.269
34817W        W98574   1.258  20.647   1.866
34818W        W98575  20.733  12.117   3.713
34819W        W98576  19.676  18.750  12.527
34820W        W98577  25.109  18.069  12.434
34821W        W98578  13.753  19.249   4.186
34822W        W98579  13.770   7.786  12.866
34823W        W98580   5.933  34.473   3.254
34824W        W98581   4.438   0.254  14.913
34825W        W98582   8.723  19.169  12.483
34826W        W98583  24.012   7.765   1.704
34827W        W98584   8.373  30.637   4.265
34828W        W98585  12.171  30.414  10.430
34829W        W98586  29.987  39.536  11.414
34830W        W98587  14.760  38.869  11.867
34831W        W98588  40.544   1.340   9.927
34832W        W98589  16.305   6.797   0.371
34833W        W98590  12.200  43.304   2.849
34834W        W98591   3.814  26.977  14.783
34835W        W98592  29.964  10.211   3.657
34836W        W98593  15.698  29.496  10.603
34837W        W98594  19.154  31.050  13.064
34838W        W98595  38.952  41.388  14.761
34839W        W98596  27.973   9.875  12.528
34840W        W98597  38.866  26.628   2.253
34841W        W98598   3.436  43.372   0.886
34842W        W98599  30.934  28.680   9.514
34843W        W98600  43.344  37.081  13.500
34844W        W98601  10.352   3.764  14.485
34845W        W98602  15.747  41.454   4.256
34846W        W98603  38.923  29.952  14.889
34847W        W98604  39.473   3.940   0.948
34848W        W98605   3.397  27.013  11.871
34849W        W98606   3.819  11.621   2.378
34850W        W98607  24.700  14.618   3.275
34851W        W98608   6.881  31.962  11.016
34852W        W98609  22.515  37.877   4.251
34853W        W98610   8.293  30.415  14.918
34854W        W98611  42.792   6.391   2.901
34855W        W98612  10.138  40.396   4.818
34856W        W98613  19.558  19.265   3.170
34857W        W98614   3.808  29.020   4.662
34858W        W98615  15.716   0.807   5.230
34859W        W98616  41.348  40.340  11.504
34860W        W98617  37.908  40.502   0.480
34861W        W98618  20.114   7.696  11.563
34862W        W98619  17.775  29.099   1.253
34863W        W98620   1.306  28.448   0.410
34864W        W98621  19.648  34.961   1.246
34865W        W98622  40.839  27.473  13.867
34866W        W98623  42.959   9.864  10.549
34867W        W98624   1.286  22.737  14.943
34868W        W98625  32.950  18.630   1.351
34869W        W98626   2.412   2.743  11.100
34870W        W98627   9.204  17.576   2.346
34871W        W98628   3.847  25.567   0.931
34872W        W98629  28.679  19.753  11.871
34873W        W98630  30.510  36.378   4.293
34874W        W98631  11.235  33.032  12.532
34875W        W98632  33.959  34.885  11.507
34876W        W98633  39.411  19.703   3.329
34877W        W98634   6.707  14.305   4.271
34878W        W98635   6.817  40.976  14.464
34879W        W98636  40.386   2.321   2.419
34880W        W98637   5.410  30.949   3.313
34881W        W98638  35.483  23.642  12.505
34882W        W98639  23.660   5.850  11.550
34883W        W98640  35.601  23.183   2.291
34884W        W98641   9.289   4.765   1.309
34885W        W98642  19.165  24.227   4.162
34886W        W98643   6.783  13.695  12.057
34887W        W98644  43.897  30.976  14.956
34888W        W98645   8.357  28.656   4.129
34889W        W98646  21.068  23.636   0.813
34890W        W98647  38.934   2.253  13.982
34891W        W98648  34.585  16.678   3.826
34892W        W98649  33.610  41.486   3.736
34893W        W98650  18.088  21.232   3.372
34894W        W98651  40.850  40.909  11.098
34895W        W98652  43.767  32.473   4.795
34896W        W98653  17.644  36.427   3.801
34897W        W98654  41.865   3.438  12.853
34898W        W98655   2.299  30.456  12.870
34899W        W98656  33.564  34.009  14.390
34900W        W98657  32.432  40.378   0.909
34901W        W98658  26.616  39.447  11.566
34902W        W98659  33.525  22.640   2.265
34903W        W98660   1.448  42.332   2.828
34904W        W98661  40.853  44.380  14.829
34905W        W98662  14.260  43.967  14.322
34906W        W98663  43.405  27.162   0.855
34907W        W98664  21.529  38.968   4.231
34908W        W98665  10.832   3.398  11.373
34909W        W98666   6.264  33.450  11.574
34910W        W98667   8.337  19.097   5.289
34911W        W98668  36.366  24.695  12.433
34912W        W98669  24.504  15.721   4.752
34913W        W98670  28.571  29.601  12.996
34914W        W98671  24.696   1.851   3.169
34915W        W98672  33.038  13.228  12.462
34916W        W98673  14.727  20.534  10.501
34917W        W98674   7.268  31.046   2.874
34918W        W98675  27.151  30.920  10.491
34919W        W98676   1.965  40.849   0.477
34920W        W98677  34.413  13.603   4.615
34921W        W98678  31.486  10.170   1.249
34922W        W98679  23.055  41.798  11.068
34923W        W98680  13.284   9.745  10.422
34924W        W98681   7.759  16.294   3.287
34925W        W98682  36.091  33.031  14.937
34926W        W98683  41.447  19.049   2.737
34927W        W98684  20.150  21.534   4.707
34928W        W98685  14.247  34.536  12.514
34929W        W98686   9.385  36.376   1.319
34930W        W98687   4.210  32.596  13.520
34931W        W98688  24.170   3.910  10.636
34932W        W98689  26.123   8.796   0.836
34933W        W98690  23.165  23.531   0.279
34934W        W98691  44.370   2.772   5.243
34935W        W98692  37.379  27.663  13.330
34936W        W98693   7.854   2.301   3.856
34937W        W98694  20.260  30.098   0.895
34938W        W98695  31.495  40.856   4.751
34939W        W98696  24.227  12.173  12.504
34940W        W98697  29.571  19.051   4.227
34941W        W98698  18.261  32.052   0.255
34942W        W98699  19.686   7.223   0.363
34943W        W98700  25.557  16.111   4.709
34944W        W98701  23.062  19.690  14.948
34945W        W98702  12.217   5.227  14.306
34946W        W98703   0.271   2.789  12.997
34947W        W98704  16.704  15.311   2.681
34948W        W98705   6.821   8.349   1.381
34949W        W98706  39.863  44.458   1.392
34950W        W98707   0.473   0.353   0.953
34951W        W98708  18.182   2.261   0.448
34952W        W98709  29.470  10.814   1.372
34953W        W98710   8.380  38.335  12.404
34954W        W98711  25.181   0.303   4.658
34955W        W98712  21.540  37.865  14.981
34956W        W98713  43.460  36.492   2.355
34957W        W98714  44.443  35.372  11.585
34958W        W98715  33.510  24.081   5.312
34959W        W98716  38.949  41.353   0.253
34960W        W98717  33.608   1.475   0.877
34961W        W98718  14.279   6.303   1.414
34962W        W98719  10.180  15.163  13.362
34963W        W98720  32.585  20.253  12.968
34964W        W98721  11.719  36.499  13.819
34965W        W98722   6.295  26.041   3.357
34966W        W98723  31.139   8.220  12.571
34967W        W98724   7.790   5.810  14.466
34968W        W98725   7.185  38.511  12.023
34969W        W98726  16.186  19.672  11.025
34970W        W98727   7.352  36.530  12.023
34971W        W98728   0.755   8.895   5.220
34972W        W98729  15.622   9.362   2.416
34973W        W98730  29.542  41.523  13.992
34974W        W98731   4.779  21.212   2.319
34975W        W98732   9.190  30.086   2.409
34976W        W98733  23.217  41.026  11.081
34977W        W98734  41.985  27.517  14.833
34978W        W98735   8.727  26.074  11.580
34979W        W98736   8.294  10.188   1.782
34980W        W98737  13.266  30.024  14.380
34981W        W98738  16.764   6.419  14.008
34982W        W98739   7.286  20.734  11.391
34983W        W98740   1.808  22.614   3.373
34984W        W98741  26.114  36.886   4.603
34985W        W98742   0.289  14.679  10.478
34986W        W98743  17.260  10.248  10.472
34987W        W98744   4.778   7.366   4.755
34988W        W98745  27.472   4.831  13.415
34989W        W98746  43.342   2.388   4.159
34990W        W98747  11.319  32.633  13.539
34991W        W98748  13.653  24.641   1.757
34992W        W98749  26.473  22.172   9.978
34993W        W98750  19.704  24.102  14.465
34994W        W98751  28.676   3.402   9.436
34995W        W98752   7.352  26.591   1.835
34996W        W98753  22.174   3.935   4.700
34997W        W98754  38.392   8.666   1.366
34998W        W98755  13.603   9.792  11.979
34999W        W98756   5.911   0.796   2.764
35000W        W98757  42.964  33.467   1.448
35001W        W98758  29.611  25.550   4.306
35002W        W98759  11.156  37.860   1.445
35003W        W98760  43.812  26.187   1.791
35004W        W98761  27.688  44.456   2.246
35005W        W98762  14.731  24.194   1.765
35006W        W98763  28.465  10.785  13.049
35007W        W98764   4.231  24.086  11.387
35008W        W98765  30.151  24.497  12.079
35009W        W98766   0.881   4.233   4.316
35010W        W98767  34.575  36.517  12.054
35011W        W98768  36.962  25.468  13.444
35012W        W98769  15.099  24.697   2.687
35013W        W98770  27.952  14.176   2.396
35014W        W98771  30.643  22.054  14.803
35015W        W98772  37.489  27.645  10.589
35016W        W98773  36.079  41.523   2.744
35017W        W98774   2.391  20.097   0.381
35018W        W98775  44.397  22.634   3.843
35019W        W98776  20.523  12.697  13.930
35020W        W98777  43.015  16.279  11.438
35021W        W98778  20.525   9.722  12.350
35022W        W98779  34.040   9.283  13.837
35023W        W98780  35.030  22.210  11.863
35024W        W98781  35.054  37.429   1.754
35025W        W98782  41.964  39.475  11.095
35026W        W98783  16.617  11.765   4.274
35027W        W98784  12.838  42.915  13.383
35028W        W98785   2.869   1.272   4.782
35029W        W98786   6.273  11.848   0.268
35030W        W98787   6.206   0.941   0.750
35031W        W98788  29.568  28.540  14.852
35032W        W98789  40.018  37.074   2.355
35033W        W98790   3.896  35.938  14.949
35034W        W98791  12.778  35.895  11.957
35035W        W98792   0.798  16.092  14.865
35036W        W98793  14.099  15.683   3.244
35037W        W98794  44.414  42.792  14.381
35038W        W98795  22.126  42.991   1.815
35039W        W98796  29.519  33.030  13.316
35040W        W98797  17.725  34.445  10.914
35041W        W98798  24.142   5.368   2.738
35042W        W98799  19.042  22.603  11.970
35043W        W98800   6.406  21.629  14.355
35044W        W98801  29.971  21.621   4.314
35045W        W98802  31.046  16.648  14.447
35046W        W98803   8.280  23.646  10.549
35047W        W98804  12.827  20.589  14.768
35048W        W98805  38.438  26.111  14.920
35049W        W98806  39.919  43.288   0.836
35050W        W98807   9.814  27.162  13.905
35051W        W98808  40.902  42.392   2.794
35052W        W98809  37.448  37.525   2.730
35053W        W98810  37.508  42.507   0.771
35054W        W98811  31.084  29.512   0.339
35055W        W98812  30.986  39.033   4.208
35056W        W98813   5.820  19.596  13.019
35057W        W98814  11.329  15.262   0.897
35058W        W98815  30.015   4.818  13.814
35059W        W98816  21.601   4.379   1.441
35060W        W98817  26.526   4.428  12.943
35061W        W98818  22.047  33.108  13.441
35062W        W98819  35.481   9.858   1.746
35063W        W98820  30.161  42.898   4.630
35064W        W98821  27.964   3.833  13.001
35065W        W98822  21.097  10.671   2.779
35066W        W98823  33.440  39.855  14.862
35067W        W98824  30.573  25.637  13.337
35068W        W98825   8.855  41.382   2.822
35069W        W98826  35.922  24.521   2.724
35070W        W98827  14.763  12.175   2.375
35071W        W98828   5.859  37.494  14.316
35072W        W98829   7.212   8.720  12.441
35073W        W98830   0.372  16.202   4.739
35074W        W98831   6.275  24.483   0.468
35075W        W98832   1.393  28.587   1.914
35076W        W98833  19.080  21.601   4.704
35077W        W98834  22.616   4.850  10.635
35078W        W98835  21.513  32.428  14.511
35079W        W98836  20.635   1.389  12.944
35080W        W98837  16.786  15.176  13.825
35081W        W98838  28.681  18.569  11.445
35082W        W98839  25.968  36.921   0.367
35083W        W98840  33.040   6.882   4.789
35084W        W98841  24.231  41.009  10.494
35085W        W98842  12.263  14.595   1.773
35086W        W98843  30.922   6.260   2.824
35087W        W98844  34.016  39.003  13.307
35088W        W98845  24.095  43.366   1.370
35089W        W98846  44.764  12.282   4.210
35090W        W98847  32.898  21.622   3.677
35091W        W98848  40.917  20.111  13.480
35092W        W98849  32.542  41.358  14.939
35093W        W98850  33.397  37.936  11.455
35094W        W98851  26.021  24.158   3.794
35095W        W98852  18.768  37.376   4.771
35096W        W98853  11.155  17.783  10.595
35097W        W98854  42.482   6.706  11.436
35098W        W98855  26.141  41.538  14.373
35099W        W98856   0.322  10.672   3.187
35100W        W98857  24.515  33.608  11.529
35101W        W98858  43.270  39.944  10.596
35102W        W98859  42.876  25.556   2.822
35103W        W98860  17.301  30.036   0.811
35104W        W98861  30.937   4.255   1.361
35105W        W98862   1.292  12.782   0.361
35106W        W98863  35.421  31.528   0.295
35107W        W98864  13.306  23.593   3.241
35108W        W98865  27.622  25.468   1.851
35109W        W98866   7.733  12.653  12.359
35110W        W98867   8.390  19.755   4.160
35111W        W98868  11.736  44.407   0.899
35112W        W98869  25.690   2.397   1.352
35113W        W98870   4.739  38.856  14.848
35114W        W98871  36.509  24.665  13.490
35115W        W98872  28.154  30.444  11.586
35116W        W98873  28.932  34.915  14.999
35117W        W98874   8.714   1.326  14.031
35118W        W98875  38.910  43.883  13.369
35119W        W98876  35.495  14.336   0.759
35120W        W98877  18.620  32.984   3.711
35121W        W98878  42.937  12.731  10.496
35122W        W98879  41.795  43.292   3.227
35123W        W98880  13.331   5.899   4.812
35124W        W98881   3.932  20.594  13.953
35125W        W98882   7.752  35.038   4.270
35126W        W98883  38.544  30.463  11.451
35127W        W98884  36.986  19.071   1.859
35128W        W98885  11.625  25.622   4.702
35129W        W98886  11.666  34.547  11.472
35130W        W98887  28.642  42.383  13.008
35131W        W98888  40.872  32.539  13.800
35132W        W98889  44.892   4.869  12.926
35133W        W98890  37.570  10.742   0.323
35134W        W98891   3.822   7.190  14.955
35135W        W98892  31.452  18.141  12.921
35136W        W98893  32.955  20.161  13.513
35137W        W98894  16.652  40.900   0.435
35138W        W98895   0.892   3.799   1.367
35139W        W98896  15.148   2.457   1.868
35140W        W98897  34.027   1.827   4.206
35141W        W98898  17.254  32.905  11.472
35142W        W98899  22.040   8.172  13.799
35143W        W98900  41.349   4.281   4.630
35144W        W98901  26.106  17.777  10.470
35145W        W98902   3.390  19.729  12.382
35146W        W98903  40.476  25.995   0.741
35147W        W98904   4.369  19.640  11.012
35148W        W98905  21.682  43.001  11.612
35149W        W98906  10.320  12.787   0.856
35150W        W98907  39.496  30.570  13.458
35151W        W98908  17.128   7.907  12.919
35152W        W98909  33.621   2.387  12.377
35153W        W98910  14.104  34.571   1.316
35154W        W98911  43.963   4.784  14.310
35155W        W98912   9.889  22.539   3.340
35156W        W98913  19.694   4.892   0.950
35157W        W98914  28.172  21.123   3.646
35158W        W98915  28.032  31.557   4.284
35159W        W98916  33.465   7.377   4.618
35160W        W98917  41.034   4.740  13.978
35161W        W98918  39.399  32.134  14.428
35162W        W98919  28.505  24.697   3.684
35163W        W98920  31.100  28.504  10.053
35164W        W98921   1.442  30.471   3.769
35165W        W98922  12.123  26.581   0.480
35166W        W98923  10.198   9.864  11.105
35167W        W98924  40.945   7.212  14.011
35168W        W98925  32.437  14.296   3.205
35169W        W98926  42.890  32.600   0.438
35170W        W98927  13.745  11.676  12.497
35171W        W98928   7.695  43.768  14.818
35172W        W98929  40.830  25.054  13.503
35173W        W98930  35.949   6.329  13.331
35174W        W98931  36.044   0.471  13.503
35175W        W98932  35.046  42.976  11.407
35176W        W98933  27.631   2.730   1.808
35177W        W98934  44.894  27.560  13.373
35178W        W98935  42.505  33.621   4.726
35179W        W98936  24.506   2.917   2.304
35180W        W98937  23.198   9.165   4.347
35181W        W98938  25.591   7.366   3.189
35182W        W98939  35.931  28.552  11.086
35183W        W98940  30.590  21.541   1.354
35184W        W98941  12.246  43.792   5.313
35185W        W98942  25.973  35.005  12.930
35186W        W98943  34.445  44.811   3.302
35187W        W98944  43.945   0.254  11.101
35188W        W98945  38.554   3.836   1.387
35189W        W98946  28.998  32.940   1.843
35190W        W98947  35.072  32.594   2.669
35191W        W98948  13.786  39.426  13.057
35192W        W98949  12.791   1.378   3.845
35193W        W98950  42.431   7.885   4.119
35194W        W98951  30.999  42.888  13.043
35195W        W98952  35.410  11.805  14.885
35196W        W98953   6.348  36.024  12.013
35197W        W98954  25.030  36.943   2.378
35198W        W98955  22.504  32.005   0.877
35199W        W98956   5.880   6.314   2.739
35200W        W98957   6.846  32.921   1.272
35201W        W98958  12.837  42.846   4.732
35202W        W98959  22.130  32.083   2.374
35203W        W98960   6.842   4.772   1.778
35204W        W98961  41.872  28.655  13.345
35205W        W98962  14.178   6.843   1.766
35206W        W98963  16.701  27.069   3.780
35207W        W98964  36.936  16.747  11.573
35208W        W98965  32.510   2.465  10.968
35209W        W98966  18.726  27.942   0.749
35210W        W98967   3.447  18.258  12.976
35211W        W98968   7.195  25.100   1.368
35212W        W98969  14.615  42.830   1.816
35213W        W98970  30.480  26.083   2.720
35214W        W98971  31.470  22.018  10.566
35215W        W98972  11.821  14.138  14.282
35216W        W98973  18.076  18.652   4.335
35217W        W98974  26.197  13.637  10.930
35218W        W98975  15.310  14.298  12.462
35219W        W98976   2.778  37.843   1.419
35220W        W98977   6.286  22.153  11.919
35221W        W98978   2.428   4.757   9.962
35222W        W98979  10.807  41.900   1.376
35223W        W98980  23.672   8.265  14.290
35224W        W98981   3.729  10.231   3.859
35225W        W98982   5.361  39.868  14.982
35226W        W98983  25.969   1.301  12.343
35227W        W98984  27.040   6.763   2.186
35228W        W98985  34.013  35.918   4.220
35229W        W98986  36.517  38.997  14.290
35230W        W98987  39.034  22.581  10.533
35231W        W98988  22.729  19.209  10.891
35232W        W98989  19.177   3.853  10.462
35233W        W98990  18.725  35.040  11.397
35234W        W98991  32.050   5.278   3.776
35235W        W98992  23.688  16.264  11.573
35236W        W98993  16.708  27.594   3.164
35237W        W98994  18.628  28.091   2.283
35238W        W98995  39.504  35.102   0.833
35239W        W98996  37.915  43.276   0.281
35240W        W98997  39.382  30.647   3.737
35241W        W98998  31.153  41.345   3.200
35242W        W98999  37.354  36.868   0.282
35243W        W99000  21.140  26.500   2.387
35244W        W99001  14.756  22.554   2.834
35245W        W99002  15.743  35.404  10.545
35246W        W99003  31.491   0.360   4.337
35247W        W99004  38.927  18.621  14.794
35248W        W99005  23.077  12.172   0.774
35249W        W99006  22.637  32.969   3.668
35250W        W99007  15.745  12.757  12.379
35251W        W99008  11.297  34.500   2.399
35252W        W99009  12.277  40.044   0.930
35253W        W99010   8.397  29.156   4.707
35254W        W99011  36.500  42.836  14.835
35255W        W99012  35.024  34.973  11.118
35256W        W99013   9.323  21.551   3.635
35257W        W99014   4.799   5.932  12.487
35258W        W99015   3.726  28.035  13.808
35259W        W99016  33.416  13.172  10.982
35260W        W99017  34.863  21.149   3.220
35261W        W99018   0.427  21.695  14.465
35262W        W99019   8.199   2.911  11.547
35263W        W99020  21.603  28.515   1.427
35264W        W99021  35.857   1.742  10.926
35265W        W99022  43.861  41.320   1.434
35266W        W99023  38.373  38.496  13.847
35267W        W99024   1.806   1.262   2.865
35268W        W99025   4.241  42.356  10.533
35269W        W99026  26.109   4.757  12.365
35270W        W99027  22.534  35.045   3.302
35271W        W99028   2.803  23.636  14.852
35272W        W99029  14.290  20.040   2.286
35273W        W99030   5.424  34.608   2.777
35274W        W99031  40.903  41.470  12.477
35275W        W99032  10.146  42.471  10.645
35276W        W99033  35.476  10.373  14.929
35277W        W99034  27.964  14.829   1.307
35278W        W99035  18.718  31.524  12.969
35279W        W99036  32.123  36.045  10.012
35280W        W99037   0.956  40.378  13.341
35281W        W99038  42.522   2.291  12.359
35282W        W99039  31.114  24.567   0.775
35283W        W99040  27.653   5.423   2.878
35284W        W99041  22.059  40.896   2.324
35285W        W99042  22.183  42.370   0.469
35286W        W99043   3.252  30.533  11.036
35287W        W99044  12.845  28.119  11.026
35288W        W99045  23.001  23.158   4.691
35289W        W99046  41.033  21.132   2.705
35290W        W99047   1.932  34.053   1.272
35291W        W99048   8.358  23.014  14.376
35292W        W99049   1.904  37.079  12.904
35293W        W99050  34.492  16.283  11.516
35294W        W99051  33.513   0.793  10.996
35295W        W99052  40.880  12.138   1.716
35296W        W99053   0.881  42.460  14.024
35297W        W99054   2.932  28.599  10.939
35298W        W99055  24.515  24.725  10.150
35299W        W99056   1.412  19.685   4.816
35300W        W99057  35.907  43.921  10.542
35301W        W99058  36.910  10.805  12.402
35302W        W99059  34.445   2.426   4.768
35303W        W99060  44.338   5.356  12.406
35304W        W99061  30.925  16.734   1.849
35305W        W99062  38.425  27.987   0.865
35306W        W99063  26.625  28.029  10.985
35307W        W99064  10.725  29.121   0.862
35308W        W99065   2.898  44.958  10.949
35309W        W99066  40.047  27.608   0.794
35310W        W99067  34.601   4.238   3.772
35311W        W99068  25.529  35.935   5.203
35312W        W99069   3.259  20.180  13.473
35313W        W99070  42.869   3.780   0.361
35314W        W99071  39.324  17.659   4.651
35315W        W99072  34.491  33.054   3.739
35316W        W99073  16.242   7.390  10.529
35317W        W99074  27.590   3.796  14.938
35318W        W99075  29.557  42.867  14.837
35319W        W99076  43.977  11.265  11.055
35320W        W99077  29.035  40.399  12.486
35321W        W99078   8.307  37.916  10.611
35322W        W99079   9.296  20.631  14.027
35323W        W99080  33.463  40.425  13.013
35324W        W99081  43.383  19.718  10.492
35325W        W99082  10.659  36.936   2.366
35326W        W99083  26.182  28.531  14.848
35327W        W99084  31.491  23.707  14.355
35328W        W99085  28.487  16.307  14.919
35329W        W99086  35.363  39.938   3.717
35330W        W99087   2.843   0.263   4.283
35331W        W99088  15.245  20.224   2.672
35332W        W99089  13.310   3.846  12.862
35333W        W99090  35.881  26.100   1.279
35334W        W99091  28.992  11.724   2.390
35335W        W99092   4.210  38.376   3.306
35336W        W99093   4.921  41.395  12.094
35337W        W99094  18.194  20.685   4.788
35338W        W99095  11.298   9.154  10.458
35339W        W99096  32.957  22.155  14.982
35340W        W99097   6.779  17.710   0.358
35341W        W99098  17.216  27.666   4.808
35342W        W99099  34.102   0.253  13.853
35343W        W99100  40.312   7.837   2.740
35344W        W99101  28.012  22.180   4.612
35345W        W99102   5.349  17.121   2.385
35346W        W99103  28.964  11.286  10.529
35347W        W99104  41.397  28.679   1.233
35348W        W99105  22.195  30.100  13.390
35349W        W99106  36.063  15.303  11.528
35350W        W99107   0.370  41.002   0.774
35351W        W99108  22.188  13.749   4.624
35352W        W99109  13.206  11.188   3.308
35353W        W99110  31.497  30.136  10.565
35354W        W99111  20.228  36.544   0.438
35355W        W99112  24.669   2.235  14.797
35356W        W99113  23.710  38.398   0.859
35357W        W99114  10.652  22.553   3.812
35358W        W99115  39.890  17.196  12.890
35359W        W99116  40.515  10.236   5.231
35360W        W99117  21.751  19.675  10.606
35361W        W99118   7.752  42.333  10.606
35362W        W99119  43.873  42.398  12.465
35363W        W99120  42.020  23.717   2.765
35364W        W99121   0.859  35.934   4.767
35365W        W99122  32.994  15.302   2.857
35366W        W99123  40.466  34.981  12.960
35367W        W99124  36.068  20.548   2.835
35368W        W99125  18.165  38.539  12.485
35369W        W99126  25.589  28.978   1.927
35370W        W99127   8.192   0.349  11.908
35371W        W99128  10.366  43.422   3.314
35372W        W99129  34.952  44.319   1.319
35373W        W99130  16.684  26.588   2.290
35374W        W99131  29.947  31.411  13.831
35375W        W99132  24.560   0.264   2.412
35376W        W99133   9.308   2.439   4.274
35377W        W99134  42.995   7.751   4.258
35378W        W99135  34.505  35.860   0.794
35379W        W99136  16.173  12.154   3.264
35380W        W99137  14.163  24.225   3.735
35381W        W99138  29.474  12.824  10.580
35382W        W99139  29.931  16.194   1.835
35383W        W99140   1.373  30.139  13.469
35384W        W99141   0.979  37.877   1.260
35385W        W99142   9.678  14.260  11.486
35386W        W99143  24.081  11.169   4.603
35387W        W99144  35.930   1.433  11.479
35388W        W99145   6.422  23.064  11.902
35389W        W99146  36.893  19.253  12.893
35390W        W99147  22.040  37.830   3.668
35391W        W99148   8.857  26.154  13.038
35392W        W99149  40.011  35.075  12.976
35393W        W99150  22.223   1.287   1.400
35394W        W99151   8.828  40.820   2.207
35395W        W99152   4.828  37.371  11.879
35396W        W99153  20.736  31.488   4.830
35397W        W99154  29.603  10.146   2.730
35398W        W99155  42.420  28.107   4.294
35399W        W99156  31.029  28.496  13.963
35400W        W99157  29.003   3.386   1.713
35401W        W99158   8.385  34.872   0.327
35402W        W99159   8.765  31.604   4.137
35403W        W99160  28.617  12.342  11.425
35404W        W99161  29.114  33.926   1.293
35405W        W99162   0.809  27.548   4.790
35406W        W99163   7.693  10.188   1.400
35407W        W99164  20.758   7.894  13.828
35408W        W99165   2.360   3.950  12.966
35409W        W99166  36.485  29.650  12.823
35410W        W99167  31.511   2.891   3.706
35411W        W99168  37.543   5.913  10.894
35412W        W99169  16.740   6.417  14.932
35413W        W99170  38.833  27.577  13.914
35414W        W99171  27.463  17.214   3.718
35415W        W99172  20.092  10.334   0.448
35416W        W99173  40.489  36.515   2.796
35417W        W99174  36.049   3.450  11.520
35418W        W99175  10.824   2.938   4.182
35419W        W99176  17.593  28.475   3.168
35420W        W99177   3.263  22.036  14.832
35421W        W99178  14.113  31.584   4.283
35422W        W99179  10.151  32.143   1.887
35423W        W99180  43.874   1.415   1.451
35424W        W99181   5.910  11.776  14.387
35425W        W99182  37.919  26.566   0.301
35426W        W99183  31.627  33.108   2.800
35427W        W99184  37.369  19.716   0.404
35428W        W99185  33.615  34.405  13.454
35429W        W99186   3.911   2.314   1.415
35430W        W99187  20.214  11.255  12.065
35431W        W99188  44.441  14.279  13.930
35432W        W99189  26.624  18.705   1.429
35433W        W99190   5.375  18.547   3.669
35434W        W99191  35.510  37.957   2.303
35435W        W99192   2.318   9.736  10.506
35436W        W99193   1.894  14.127   1.331
35437W        W99194  27.979  11.208  11.046
35438W        W99195   5.279  13.249   0.726
35439W        W99196   9.281   2.893  14.911
35440W        W99197   3.367   7.666   1.812
35441W        W99198  29.452   6.710  11.540
35442W        W99199   1.343  10.216  11.391
35443W        W99200  13.339   2.746  11.492
35444W        W99201  20.101  27.600   2.728
35445W        W99202  33.027  40.951   1.449
35446W        W99203  29.654  35.400   2.753
35447W        W99204  36.486  41.469  14.303
35448W        W99205  42.820   7.817   2.727
35449W        W99206   7.756  33.455   4.723
35450W        W99207  17.575  40.521  11.025
35451W        W99208  34.400   8.779   2.178
35452W        W99209  13.787  19.541   3.633
35453W        W99210  39.993  17.173   4.755
35454W        W99211  10.285  33.499   0.840
35455W        W99212  25.115  17.732  13.459
35456W        W99213   3.819  21.068   2.271
35457W        W99214  35.887  32.523  13.499
35458W        W99215   1.944  41.384  12.542
35459W        W99216  22.248   4.827  11.446
35460W        W99217  36.877  16.688  12.873
35461W        W99218  40.804  37.361   0.803
35462W        W99219  21.234  21.646  11.017
35463W        W99220  17.185  39.332  10.960
35464W        W99221   4.855   1.465  10.538
35465W        W99222  44.809  11.778  11.453
35466W        W99223  11.345  17.233   0.347
35467W        W99224  18.198  27.195   0.863
35468W        W99225  22.126  12.254   4.189
35469W        W99226  28.543  21.606   2.684
35470W        W99227  33.458  12.612   3.277
35471W        W99228  29.039  31.934  13.048
35472W        W99229  41.433  33.588   4.168
35473W        W99230  36.916  34.545  14.458
35474W        W99231   8.232  18.089  13.814
35475W        W99232  35.010  34.529  12.085
35476W        W99233  11.769  26.647   4.117
35477W        W99234  18.766  35.441   1.408
35478W        W99235  35.398  44.326   0.946
35479W        W99236   6.418  16.641   5.620
35480W        W99237  33.891  12.667  14.843
35481W        W99238  24.508  36.954  10.961
35482W        W99239  37.901  25.056  11.901
35483W        W99240  15.222   5.372  14.408
35484W        W99241  18.145  18.074  13.859
35485W        W99242  42.447  40.393  11.372
35486W        W99243  42.003  26.533  11.931
35487W        W99244   2.313  40.449   1.896
35488W        W99245  35.885  29.983  12.504
35489W        W99246  19.680  10.669   1.320
35490W        W99247  25.625  35.100   3.769
35491W        W99248  22.033   9.276   2.865
35492W        W99249  23.230  30.982  11.465
35493W        W99250  11.146  18.595  12.081
35494W        W99251  23.580   5.717   1.771
35495W        W99252   2.951   8.365  11.927
35496W        W99253   5.892   0.313   4.319
35497W        W99254  42.856  17.706   4.617
35498W        W99255  35.459  40.988  12.062
35499W        W99256  32.545  12.309  10.626
35500W        W99257  25.192   0.328   3.355
35501W        W99258   1.247  26.028  13.512
35502W        W99259   6.697  18.122   4.291
35503W        W99260  32.455  25.011  14.380
35504W        W99261  15.821  12.724  14.461
35505W        W99262  30.617  42.462   2.178
35506W        W99263  34.376  19.740  11.446
35507W        W99264  29.437  19.622  13.014
35508W        W99265  39.341  18.659   3.856
35509W        W99266  27.983  21.110   1.764
35510W        W99267  16.809  25.116  12.917
35511W        W99268  25.135  38.416  11.421
35512W        W99269  36.423  36.041   1.306
35513W        W99270  16.261  10.310   1.226
35514W        W99271   3.446  39.417  13.318
35515W        W99272  20.245  36.438  13.508
35516W        W99273  41.956  42.819   4.771
35517W        W99274  21.262  33.092  14.854
35518W        W99275  13.768  23.720   0.736
35519W        W99276  12.655  44.288  11.955
35520W        W99277  27.683   9.821  14.372
35521W        W99278   3.427  19.081   0.250
35522W        W99279  44.010  43.972  12.430
35523W        W99280  39.033  26.022  11.047
35524W        W99281  44.895  44.288  10.549
35525W        W99282  37.038  39.350  12.355
35526W        W99283  22.520  27.177  11.510
35527W        W99284  18.236  43.869  11.593
35528W        W99285  27.496  25.694   3.337
35529W        W99286   0.282  40.836  12.384
35530W        W99287  41.043  28.451   3.221
35531W        W99288  13.756  23.548   0.327
35532W        W99289  38.340   9.279  10.921
35533W        W99290  40.864  21.599  14.872
35534W        W99291  11.137   0.910  14.367
35535W        W99292   3.827  15.739   0.891
35536W        W99293   7.895  13.824   2.769
35537W        W99294   7.411  20.142  14.027
35538W        W99295  33.548   5.346  14.423
35539W        W99296   2.898  13.307   3.279
35540W        W99297  28.503  34.895   3.349
35541W        W99298   2.264  21.545  10.422
35542W        W99299  42.287  44.880  11.995
35543W        W99300  15.197  12.855  14.898
35544W        W99301  18.055  15.193   2.226
35545W        W99302  16.214  38.052   2.790
35546W        W99303  27.554  33.525  14.801
35547W        W99304   4.342  32.602   0.348
35548W        W99305  37.865   7.779  13.879
35549W        W99306  34.460  33.594   2.335
35550W        W99307  41.037  17.592   3.158
35551W        W99308  18.740  37.446   1.341
35552W        W99309  44.843  36.542  14.321
35553W        W99310  13.322  30.581  14.511
35554W        W99311   9.384  12.666  12.372
35555W        W99312   5.691  43.817   4.670
35556W        W99313  12.813  21.706   2.883
35557W        W99314  38.000  24.684   0.745
35558W        W99315  33.519  40.499  12.429
35559W        W99316   8.673  12.161   2.372
35560W        W99317   0.369   9.221  10.551
35561W        W99318  32.897  37.885  14.945
35562W        W99319  31.114  42.421   1.922
35563W        W99320  36.909   6.415  14.029
35564W        W99321  41.869  32.402   4.191
35565W        W99322   5.813   8.698  13.032
35566W        W99323  28.023  31.595  11.518
35567W        W99324  27.958  44.394   3.725
35568W        W99325  14.253  41.900  14.401
35569W        W99326  29.140  30.963   0.248
35570W        W99327  11.233   3.281   0.316
35571W        W99328   0.805  35.005   1.727
35572W        W99329  31.575  25.004  11.461
35573W        W99330   6.214   7.332   9.931
35574W        W99331   1.879   5.827  10.557
35575W        W99332  14.753   3.719  12.856
35576W        W99333  10.711  18.670  11.115
35577W        W99334  43.369  27.596  11.554
35578W        W99335   5.913   0.325   3.340
35579W        W99336  20.690  23.734  10.993
35580W        W99337  43.779  12.212   4.207
35581W        W99338  21.263  37.860   9.450
35582W        W99339  34.559  22.140   3.708
35583W        W99340   0.986  20.735   1.694
35584W        W99341   5.767  22.075   3.724
35585W        W99342  16.741  43.395   0.388
35586W        W99343   7.808  10.678  13.411
35587W        W99344   9.766   6.219  13.476
35588W        W99345  32.905  15.758   2.179
35589W        W99346  30.119  25.616  13.984
35590W        W99347  33.879  13.129   0.341
35591W        W99348  43.965   4.840   1.698
35592W        W99349  43.842  22.100   3.376
35593W        W99350   2.900  30.596  14.863
35594W        W99351  26.081  37.413   3.232
35595W        W99352  20.524   5.318  11.915
35596W        W99353   0.266  37.347  10.613
35597W        W99354  27.107   7.350  13.810
35598W        W99355  31.585  39.855  13.493
35599W        W99356   8.267  15.270   4.742
35600W        W99357  31.925   8.869  11.599
35601W        W99358  15.795  13.308   2.261
35602W        W99359  31.647  10.847  14.823
35603W        W99360   5.833   5.757   1.762
35604W        W99361   5.417  34.090  12.537
35605W        W99362   5.757  17.610   1.700
35606W        W99363  23.591  17.262  11.607
35607W        W99364  11.715  32.405   1.847
35608W        W99365  17.686   9.808  14.018
35609W        W99366   4.347  28.080   4.698
35610W        W99367  41.467  10.841   1.748
35611W        W99368  31.494  10.358   0.836
35612W        W99369  30.916  29.479   1.920
35613W        W99370  37.952  38.357   0.300
35614W        W99371  34.069  36.352   2.218
35615W        W99372   7.815  42.887  13.366
35616W        W99373  31.100  36.563   3.655
35617W        W99374  31.607  15.677  12.570
35618W        W99375  15.821  27.070  12.883
35619W        W99376  40.959   2.301  12.532
35620W        W99377  28.041  14.274  12.429
35621W        W99378   4.921   4.749   4.774
35622W        W99379  35.033  39.045  12.435
35623W        W99380  18.245  41.822  11.502
35624W        W99381  25.596   8.889   4.655
35625W        W99382  34.888  26.078  14.978
35626W        W99383  13.318  24.695   2.267
35627W        W99384  22.552  16.663   2.794
35628W        W99385  30.603   0.755  14.935
35629W        W99386  17.190  17.724   1.366
35630W        W99387  23.604   0.486  10.929
35631W        W99388  18.072   1.915  13.940
35632W        W99389  23.159   1.742   2.803
35633W        W99390   7.817  14.748   4.635
35634W        W99391  34.965  32.075  10.411
35635W        W99392  11.146  21.752  13.026
35636W        W99393   7.667  20.765  13.029
35637W        W99394  11.309  29.576  13.515
35638W        W99395  23.067  40.461  12.082
35639W        W99396  13.349  32.465   3.826
35640W        W99397   8.212  18.766   1.916
35641W        W99398  36.396  15.670   3.682
35642W        W99399   8.673  31.093   4.767
35643W        W99400  27.517  38.980   0.480
35644W        W99401  33.425   7.330   0.430
35645W        W99402  10.809  11.213   2.810
35646W        W99403  18.276  29.028  13.434
35647W        W99404  35.871   5.785   1.225
35648W        W99405  42.831  20.182   4.309
35649W        W99406  21.595  40.959   1.385
35650W        W99407  20.228  30.466   5.185
35651W        W99408  17.677   9.834   1.359
35652W        W99409   7.700  30.930  13.912
35653W        W99410   6.285  13.230  11.991
35654W        W99411  37.973  22.575   1.340
35655W        W99412  43.367  21.107   0.812
35656W        W99413  41.387   4.224  14.417
35657W        W99414  30.653  25.512  12.501
35658W        W99415   1.259  19.218  12.450
35659W        W99416  15.106  14.150   1.879
35660W        W99417  35.977  38.974   1.801
35661W        W99418  41.384  24.994   1.886
35662W        W99419  12.750  33.004  11.081
35663W        W99420  15.680  14.742  12.076
35664W        W99421   9.846   8.698   1.898
35665W        W99422  34.012   1.468  14.988
35666W        W99423  16.798  26.973  10.601
35667W        W99424   2.948  19.129   0.289
35668W        W99425  18.280  16.164   3.317
35669W        W99426  11.806  23.017  12.855
35670W        W99427   9.267  44.284   4.794
35671W        W99428   2.932  31.514  12.944
35672W        W99429  11.640  16.584   0.854
35673W        W99430  44.797   9.865   3.695
35674W        W99431  12.750   7.672   2.709
35675W        W99432  42.386  18.682  12.014
35676W        W99433   6.916  41.013   2.802
35677W        W99434  42.411  25.123  12.369
35678W        W99435   3.829   5.907   3.867
35679W        W99436   8.900  27.116   2.296
35680W        W99437  12.716  19.130   4.696
35681W        W99438  42.307   5.806  13.802
35682W        W99439  42.781  37.956  11.129
35683W        W99440  43.917  14.305  12.570
35684W        W99441  19.139  40.457   1.361
35685W        W99442  25.682   1.751   2.843
35686W        W99443  36.051  34.518  11.591
35687W        W99444  28.061  15.673  11.070
35688W        W99445   0.852  23.027   2.722
35689W        W99446  32.084  31.919  13.420
35690W        W99447  41.370   7.267   4.744
35691W        W99448  25.219  30.936  14.506
35692W        W99449  17.071  39.557  14.297
35693W        W99450   1.447  15.733  13.821
35694W        W99451  40.846  17.589  14.492
35695W        W99452   5.807  30.010  12.537
35696W        W99453   2.443  22.578  12.394
35697W        W99454  11.850   7.364  14.841
35698W        W99455   8.665  23.199  11.533
35699W        W99456  36.904  39.871   4.739
35700W        W99457  33.535  31.996  14.408
35701W        W99458   2.405  27.176   0.797
35702W        W99459  21.176  24.716  10.447
35703W        W99460   4.226   4.772   0.417
35704W        W99461  33.089  37.546  11.077
35705W        W99462   1.957   7.830  12.967
35706W        W99463  10.259  31.005  14.458
35707W        W99464  37.074  16.074   3.266
35708W        W99465  40.969   3.839  10.435
35709W        W99466  29.587  32.117  10.957
35710W        W99467   5.322  28.117   2.365
35711W        W99468  19.226  31.990  12.990
35712W        W99469  12.738  23.179   0.776
35713W        W99470   9.198  24.479   0.867
35714W        W99471  19.150   4.769  11.954
35715W        W99472   6.887  16.309   2.288
35716W        W99473  43.982  36.415   3.178
35717W        W99474   8.746  19.278  11.426
35718W        W99475  42.356  39.929   4.628
35719W        W99476  39.056  13.309  12.473
35720W        W99477  27.485  21.648  12.403
35721W        W99478  19.541  20.094   2.706
35722W        W99479  43.802  37.397  13.535
35723W        W99480   6.712  21.743   4.603
35724W        W99481  15.805   3.786  14.513
35725W        W99482  44.878  41.037   4.287
35726W        W99483  19.665  20.223   5.137
35727W        W99484  29.972  11.351   0.751
35728W        W99485   6.308  29.603   1.383
35729W        W99486  13.285  15.635   0.399
35730W        W99487  43.401  22.653   9.971
35731W        W99488   8.230  18.110  13.507
35732W        W99489  13.334  31.929  14.318
35733W        W99490   3.401  13.749  12.929
35734W        W99491  43.401  37.355   0.405
35735W        W99492  37.353  22.007  13.437
35736W        W99493  39.027  43.918  13.805
35737W        W99494  16.258   8.262   3.182
35738W        W99495  31.470   4.243  13.952
35739W        W99496  34.030  21.140   3.196
35740W        W99497   7.360   5.384  10.916
35741W        W99498  43.780  40.026   0.457
35742W        W99499  34.442  32.971  12.514
35743W        W99500   0.261  24.523  11.411
35744W        W99501   8.778  27.975   0.344
35745W        W99502  39.531  26.150  11.042
35746W        W99503  35.509  16.731  10.404
35747W        W99504  29.100   8.879   2.804
35748W        W99505   3.393  13.134  13.989
35749W        W99506  36.043  39.000  11.895
35750W        W99507  37.473  10.716   1.289
35751W        W99508  28.498   7.671   4.259
35752W        W99509  41.295  27.191   2.189
35753W        W99510  25.567  23.674  14.885
35754W        W99511  43.869   1.869  14.335
35755W        W99512   3.246  43.496  11.875
35756W        W99513  17.694  17.235  13.342
35757W        W99514   5.375   6.917  10.962
35758W        W99515  36.593   0.848  12.429
35759W        W99516  24.104  39.426   0.743
35760W        W99517  43.806   1.918   1.784
35761W        W99518   9.337  17.084   3.167
35762W        W99519  33.510  20.232   0.385
35763W        W99520   7.817  25.095   2.676
35764W        W99521  30.099   5.358  11.934
35765W        W99522  11.714   4.280   4.764
35766W        W99523   6.706   5.364   2.252
35767W        W99524   1.368  37.355   2.253
35768W        W99525  20.560  11.155  12.565
35769W        W99526   1.449  34.970   2.186
35770W        W99527  15.663  44.475  12.437
35771W        W99528  32.008  30.102   0.933
35772W        W99529   6.286  15.677  10.006
35773W        W99530  28.143  38.516   3.707
35774W        W99531  29.019  37.058  13.814
35775W        W99532   3.801  42.941   4.353
35776W        W99533  34.584   8.719   0.916
35777W        W99534   1.336  30.575   4.300
35778W        W99535  35.896  26.979   2.733
35779W        W99536   6.268  38.847  13.821
35780W        W99537  41.029  43.856  12.886
35781W        W99538  12.744  30.150  14.907
35782W        W99539  13.807   3.247  13.369
35783W        W99540  41.294   3.844   9.631
35784W        W99541  44.992  31.444  11.449
35785W        W99542   8.727  19.109   5.198
35786W        W99543   0.940  33.968   4.168
35787W        W99544  38.971  19.072  14.924
35788W        W99545   6.737  28.123   0.768
35789W        W99546  14.815  40.437  14.451
35790W        W99547  27.659  11.780  11.048
35791W        W99548  18.702  41.885  12.538
35792W        W99549  17.294  18.590   4.734
35793W        W99550  39.920  23.139   4.812
35794W        W99551   2.941  20.067   3.641
35795W        W99552  22.077  34.383   1.863
35796W        W99553  22.625  27.650   1.349
35797W        W99554  30.447  27.495  14.879
35798W        W99555  10.196   3.950   0.260
35799W        W99556  13.276  21.040  10.906
35800W        W99557  36.091  30.946   1.918
35801W        W99558  14.095  17.100   1.729
35802W        W99559  16.203  20.034  14.495
35803W        W99560  39.010  22.713   3.266
35804W        W99561  44.307   0.946   0.471
35805W        W99562   9.713  42.917  13.901
35806W        W99563  28.531  11.865  14.356
35807W        W99564  17.609  31.504  12.392
35808W        W99565  21.118  37.389   1.224
35809W        W99566   1.772   4.750   1.864
35810W        W99567   1.894  16.779  14.897
35811W        W99568  43.000  34.509   2.397
35812W        W99569  14.676  22.624  10.471
35813W        W99570   9.267  13.347   0.809
35814W        W99571  29.115  40.980   1.408
35815W        W99572  21.152   0.431  11.939
35816W        W99573  41.343  37.461   1.335
35817W        W99574   2.340   0.423  13.899
35818W        W99575  36.957  24.675  14.878
35819W        W99576  35.458   9.828   4.247
35820W        W99577  24.651   3.808   1.722
35821W        W99578  36.856   3.253  11.998
35822W        W99579  16.301  12.327  11.970
35823W        W99580  34.983   2.851  14.854
35824W        W99581  21.160  35.528   1.391
35825W        W99582  39.544  30.599  10.612
35826W        W99583  38.931  34.390   1.780
35827W        W99584  44.436  40.497  14.953
35828W        W99585   4.407  25.565   2.858
35829W        W99586   9.274   7.292   2.264
35830W        W99587   4.259  40.908  14.030
35831W        W99588  42.911  19.645  11.015
35832W        W99589  16.577   4.905   3.173
35833W        W99590  20.714  17.211  13.307
35834W        W99591  22.024  43.868   3.710
35835W        W99592  23.501   9.762   1.829
35836W        W99593  30.954  29.625   1.392
35837W        W99594  24.047  39.885   2.858
35838W        W99595  28.569  36.498   0.834
35839W        W99596  24.079  33.523   3.299
35840W        W99597  33.586  39.446   1.801
35841W        W99598  43.497  44.791  13.413
35842W        W99599  30.453  25.660  11.011
35843W        W99600   6.888  34.103  10.603
35844W        W99601   9.220  22.637  11.490
35845W        W99602  13.770   6.773  14.498
35846W        W99603  16.261  13.684   2.332
35847W        W99604  18.564   2.302  10.560
35848W        W99605  20.208  19.182  12.416
35849W        W99606  23.025  16.797   4.628
35850W        W99607  37.390  35.005  10.935
35851W        W99608  33.392   3.389  14.909
35852W        W99609  28.588   8.214   1.872
35853W        W99610  33.884  12.265   1.751
35854W        W99611   0.413  40.853   4.184
35855W        W99612  44.448  34.990  12.498
35856W        W99613  37.368   1.279  14.023
35857W        W99614   0.815   1.302   4.810
35858W        W99615  10.308   3.449   2.784
35859W        W99616   7.214  31.919   3.749
35860W        W99617  26.056  20.525  13.382
35861W        W99618   1.393  31.460  13.949
35862W        W99619   9.853  30.466  12.036
35863W        W99620  22.703  23.159   4.244
35864W        W99621  17.616  36.998  13.423
35865W        W99622  28.012   6.684   0.796
35866W        W99623  43.871  18.092   2.757
35867W        W99624  13.212   9.261   1.403
35868W        W99625  32.395  34.072  13.441
35869W        W99626  38.427  22.549   2.232
35870W        W99627  23.548  12.203   3.795
35871W        W99628  15.636  37.962  12.450
35872W        W99629  31.116   2.293  14.496
35873W        W99630   4.404  14.105  10.628
35874W        W99631   2.957  13.177  13.942
35875W        W99632   5.310   1.939  10.493
35876W        W99633  43.314  25.156  11.537
35877W        W99634  17.128   4.919  11.408
35878W        W99635  29.563  38.566  13.931
35879W        W99636  43.437  35.424   1.824
35880W        W99637  42.388  23.662   4.813
35881W        W99638   5.799  42.942   1.850
35882W        W99639  18.565  23.148  11.412
35883W        W99640   2.947   1.414   0.474
35884W        W99641  30.086   7.369   3.194
35885W        W99642  19.205  35.947  10.531
35886W        W99643  14.612   5.799   1.387
35887W        W99644  13.317  26.955   2.840
35888W        W99645  42.331  29.029   4.136
35889W        W99646  34.609  21.653   0.328
35890W        W99647  22.192  26.660  13.951
35891W        W99648  26.611  11.789  14.999
35892W        W99649  44.815  23.018   4.612
35893W        W99650  21.710  36.398  10.505
35894W        W99651   8.699  20.042   1.727
35895W        W99652  16.193  24.556   0.785
35896W        W99653  33.902  26.099   3.363
35897W        W99654   6.428   6.205   0.735
35898W        W99655  11.156   1.912   0.477
35899W        W99656   1.863  18.217  13.879
35900W        W99657  19.121  44.318  11.596
35901W        W99658  41.431   9.240   0.901
35902W        W99659  31.505  16.128  12.923
35903W        W99660  32.515  38.892   4.281
35904W        W99661  27.453  37.942  11.039
35905W        W99662  35.009  31.632   0.365
35906W        W99663  27.030  43.394  10.941
35907W        W99664  25.154  36.964  11.032
35908W        W99665   2.405  18.583   4.290
35909W        W99666  26.170  26.506  11.969
35910W        W99667  22.574  17.626  14.846
35911W        W99668  44.278  35.457   0.822
35912W        W99669  15.817  21.614  13.439
35913W        W99670  40.870   2.388   4.345
35914W        W99671  44.920  20.683  13.920
35915W        W99672  15.736   9.191   2.846
35916W        W99673  15.261  43.982   3.707
35917W        W99674  19.728  17.726  13.456
35918W        W99675  39.429  15.232   2.821
35919W        W99676  41.983   2.358   0.278
35920W        W99677  20.171  30.020  13.823
35921W        W99678  11.320  13.136  13.366
35922W        W99679  31.474  30.483  13.384
35923W        W99680  43.275   5.782   3.729
35924W        W99681  30.121  31.445   4.649
35925W        W99682  37.473   9.889  13.469
35926W        W99683  28.961   7.782  10.942
35927W        W99684  17.266  24.632   2.736
35928W        W99685  22.206  30.574   1.309
35929W        W99686  28.614  35.998  14.950
35930W        W99687   5.285  19.277  14.026
35931W        W99688  34.510  37.361   3.157
35932W        W99689   6.914  43.407  13.308
35933W        W99690  13.636  25.472  13.897
35934W        W99691  18.602  44.980  13.358
35935W        W99692  31.486  28.674  14.411
35936W        W99693  43.890  38.012   0.856
35937W        W99694  11.325   4.229  14.999
35938W        W99695  37.892  43.947   3.169
35939W        W99696   9.727  23.219   1.426
35940W        W99697  39.465   1.435   1.373
35941W        W99698  13.286  44.279   2.708
35942W        W99699  44.911   8.778  11.038
35943W        W99700  11.365  28.010   1.424
35944W        W99701   0.844  29.933   2.874
35945W        W99702   9.236  34.962   2.793
35946W        W99703  39.436  17.732  14.394
35947W        W99704  23.533  30.077   2.885
35948W        W99705  40.400  31.916  11.068
35949W        W99706  43.839  12.162  11.057
35950W        W99707  13.331  25.157  13.057
35951W        W99708  27.061   1.387  11.098
35952W        W99709  33.951  22.575   3.709
35953W        W99710  30.111  12.244  13.494
35954W        W99711  39.874  43.488   2.843
35955W        W99712  23.554  23.558  10.487
35956W        W99713  32.066  25.585   1.218
35957W        W99714  42.510  39.454  14.952
35958W        W99715  16.236  37.489   1.299
35959W        W99716  22.084   3.820  12.850
35960W        W99717  10.756  10.198   4.301
35961W        W99718  38.913  22.617  11.863
35962W        W99719  40.966  21.553   0.479
35963W        W99720  25.992  24.127  10.889
35964W        W99721  17.676   0.837  13.976
35965W        W99722  16.260  29.515   1.376
35966W        W99723   6.188  17.190   3.669
35967W        W99724   6.253   5.722  13.384
35968W        W99725  42.961  42.814   2.817
35969W        W99726  24.002  11.837  11.482
35970W        W99727   3.350  10.723  11.527
35971W        W99728  32.920  32.596  13.400
35972W        W99729  42.896  31.560  13.027
35973W        W99730  21.614  34.614  13.938
35974W        W99731  42.964  11.133  14.831
35975W        W99732  44.391  17.217  13.355
35976W        W99733  19.633  35.436  13.316
35977W        W99734  20.706  30.427  13.835
35978W        W99735  15.314  10.372   3.201
35979W        W99736  27.643  22.707  12.007
35980W        W99737  42.814  21.630   2.313
35981W        W99738  13.723  42.466  11.025
35982W        W99739  36.961  27.688   4.229
35983W        W99740  17.101  35.102  12.843
35984W        W99741  31.594   2.958  13.325
35985W        W99742   6.404  20.749   4.655
35986W        W99743   7.870  38.966  14.414
35987W        W99744  24.054  25.072  14.385
35988W        W99745  23.625  43.444  13.478
35989W        W99746  27.655  16.219   2.664
35990W        W99747  36.557  34.469  11.886
35991W        W99748  16.129  38.521  13.395
35992W        W99749   0.882  42.376   1.246
35993W        W99750  32.084   5.331  13.394
35994W        W99751  11.204  29.039   2.800
35995W        W99752  38.494   7.843   0.904
35996W        W99753  28.483   1.285   3.662
35997W        W99754  14.678  12.664   3.253
35998W        W99755  43.409   0.875  11.935
35999W        W99756  44.463  13.253  12.451
36000W        W99757  43.865  23.610  14.906
36001W        W99758  20.567  31.473   2.338
36002W        W99759  36.030   0.938   2.320
36003W        W99760   9.162  11.828  14.964
36004W        W99761  28.107  15.794  12.013
36005W        W99762  39.317  40.421  12.461
36006W        W99763  23.531  27.046  11.485
36007W        W99764  14.792  21.536   3.697
36008W        W99765  11.748  35.992  10.014
36009W        W99766  23.221  25.542   0.742
36010W        W99767  12.232  11.347   2.279
36011W        W99768  16.278   4.371   1.257
36012W        W99769  29.532  16.674   3.633
36013W        W99770  33.879  22.052   0.953
36014W        W99771  30.077  13.204   2.819
36015W        W99772  23.735   6.861   3.706
36016W        W99773   7.800  27.016  13.988
36017W        W99774  18.681  37.427  10.042
36018W        W99775  36.545  15.143   0.731
36019W        W99776   8.233  20.727  14.282
36020W        W99777  43.820  34.462  13.440
36021W        W99778  33.580  17.165  10.452
36022W        W99779  20.612   5.844   0.369
36023W        W99780  39.058  37.421  13.440
36024W        W99781  20.578  31.101   1.694
36025W        W99782  30.006  34.000  10.621
36026W        W99783  15.671  26.138   1.288
36027W        W99784  14.663  19.197   2.255
36028W        W99785  26.152  32.016  10.411
36029W        W99786  13.140   3.216   3.271
36030W        W99787  12.760   3.305   3.261
36031W        W99788  36.084  18.084   3.784
36032W        W99789  15.765  28.554  11.496
36033W        W99790  23.004  34.094  11.512
36034W        W99791  43.005   6.261  14.015
36035W        W99792  39.452   6.763  13.433
36036W        W99793   2.962  15.320  14.381
36037W        W99794   1.945   8.378   1.272
36038W        W99795  39.910  17.564   2.703
36039W        W99796  44.383  36.511   0.814
36040W        W99797   1.780  34.007  10.619
36041W        W99798  42.480  29.099  12.028
36042W        W99799  16.644   2.267  11.985
36043W        W99800  44.782  39.499   1.401
36044W        W99801  26.152   7.355  13.349
36045W        W99802  13.217  13.238   3.244
36046W        W99803   7.797  31.998  13.408
36047W        W99804  44.448  33.553   0.848
36048W        W99805  13.805   5.716   1.832
36049W        W99806  44.342   4.335  13.365
36050W        W99807  21.099   5.765  13.506
36051W        W99808  15.188  16.118  12.499
36052W        W99809  21.697   5.803   4.326
36053W        W99810  18.591  31.588   4.786
36054W        W99811  19.159  28.043  14.021
36055W        W99812  44.363  20.140  13.844
36056W        W99813  31.940  33.524   2.178
36057W        W99814  33.505  43.429   4.249
36058W        W99815  23.534  14.716  12.007
36059W        W99816  33.612  42.991  14.774
36060W        W99817   7.862  27.684   0.385
36061W        W99818  14.109  10.639   0.889
36062W        W99819  41.894   3.850   1.311
36063W        W99820  10.679  27.198  13.312
36064W        W99821  31.967  22.245  10.574
36065W        W99822  19.212  22.158   1.332
36066W        W99823  14.780  36.903   3.199
36067W        W99824  15.156  29.929  11.447
36068W        W99825  33.097   6.410  13.816
36069W        W99826   5.909  14.314  11.090
36070W        W99827  35.037  43.821  12.927
36071W        W99828  43.884  10.230  10.987
36072W        W99829   8.281  42.522   2.818
36073W        W99830  29.071  11.143   1.344
36074W        W99831   6.853  13.218   4.670
36075W        W99832  19.681   0.845   5.101
36076W        W99833  32.544   2.762   0.852
36077W        W99834   0.765  16.614  12.833
36078W        W99835  22.542   4.225  14.975
36079W        W99836   0.340  29.643  10.457
36080W        W99837  33.404  14.263   1.780
36081W        W99838  31.435  31.938   1.790
36082W        W99839   0.436   1.442   2.744
36083W        W99840  19.638  32.627  13.476
36084W        W99841  31.104  26.025   0.776
36085W        W99842  13.123  44.987   0.337
36086W        W99843  43.501   4.356   1.882
36087W        W99844  12.669  18.278   0.782
36088W        W99845   6.862  34.516   2.848
36089W        W99846  23.650  28.935  14.964
36090W        W99847  27.625  26.180  11.956
36091W        W99848   2.415  24.511   4.188
36092W        W99849  18.577  14.224   2.784
36093W        W99850   7.298  25.657  11.959
36094W        W99851  29.490   1.962  14.025
36095W        W99852  38.476  14.220  11.030
36096W        W99853  20.268  42.834  11.097
36097W        W99854  19.165   2.819   3.734
36098W        W99855  23.202   6.731  12.559
36099W        W99856  40.480  17.266   2.413
36100W        W99857   0.455  18.664   0.289
36101W        W99858  36.592  43.391  14.861
36102W        W99859  11.756   9.817   2.219
36103W        W99860  17.102  31.979   4.206
36104W        W99861   3.942  19.207   4.175
36105W        W99862  24.708  22.523   3.859
36106W        W99863  25.674  12.853  10.473
36107W        W99864  12.632  31.059  14.444
36108W        W99865  20.127  36.852   4.231
36109W        W99866   3.725  14.109   5.131
36110W        W99867  43.403   0.411  14.277
36111W        W99868  27.000   3.881  10.917
36112W        W99869  24.091   9.253   2.767
36113W        W99870  39.872  22.212   4.208
36114W        W99871  43.769  40.836  14.992
36115W        W99872  43.014  32.434   1.908
36116W        W99873  41.969   4.365  13.365
36117W        W99874  14.758  27.128   4.774
36118W        W99875  32.463  22.640   2.206
36119W        W99876  14.774  29.118   3.285
36120W        W99877  17.193  29.543   2.680
36121W        W99878  39.901  11.651  12.075
36122W        W99879  31.451  37.042  10.443
36123W        W99880  38.853  16.707  12.952
36124W        W99881  13.288  16.713  11.062
36125W        W99882  42.801   9.225   1.798
36126W        W99883  17.623  43.396   2.356
36127W        W99884  29.595   3.383  12.377
36128W        W99885  39.906  23.221  11.940
36129W        W99886  28.486  43.293   4.614
36130W        W99887  24.168  36.463   3.653
36131W        W99888  26.466  24.527  10.924
36132W        W99889   9.245   6.248  10.477
36133W        W99890  14.732  40.810  11.395
36134W        W99891   6.232  25.016   2.281
36135W        W99892  23.130  15.641  12.964
36136W        W99893  17.078  15.249  14.302
36137W        W99894   9.666  19.604   2.402
36138W        W99895   5.697  14.774   4.761
36139W        W99896  44.419  43.898   4.720
36140W        W99897  35.099   5.742  11.040
36141W        W99898  17.181   3.417  11.068
36142W        W99899  19.048  39.460  11.445
36143W        W99900   9.210  41.328  11.100
36144W        W99901  26.570   8.833   3.749
36145W        W99902  16.601  15.139   5.287
36146W        W99903  23.133   7.681   2.394
36147W        W99904   8.862  11.668  13.062
36148W        W99905  25.049  28.610  11.549
36149W        W99906  37.840  41.018  13.050
36150W        W99907  17.080  40.345   2.306
36151W        W99908   0.779   9.792   2.379
36152W        W99909  33.914  39.965  11.901
36153W        W99910   3.299  17.570   4.707
36154W        W99911  29.520  29.135   4.662
36155W        W99912  21.147  34.951  13.893
36156W        W99913  31.139  30.107   3.147
36157W        W99914  21.623   1.472   3.321
36158W        W99915  17.154  11.783  11.445
36159W        W99916  35.873  28.580   2.808
36160W        W99917  42.484  41.875   3.819
36161W        W99918  43.959   2.860  11.106
36162W        W99919   3.222   5.761  11.927
36163W        W99920  22.574  32.962  10.937
36164W        W99921  37.040  29.547  13.452
36165W        W99922   3.223   3.459   4.628
36166W        W99923  33.894  41.414  11.865
36167W        W99924   3.875   2.292  14.838
36168W        W99925  30.099   9.830  14.321
36169W        W99926   8.227  11.164  11.073
36170W        W99927  35.385   4.371   1.772
36171W        W99928  16.093   0.303  10.585
36172W        W99929   2.365  29.462   2.691
36173W        W99930  31.518  44.928  14.344
36174W        W99931   9.161  22.102   0.869
36175W        W99932  32.397   9.173  12.490
36176W        W99933  36.983  32.581   2.188
36177W        W99934  32.900  30.956   5.135
36178W        W99935  14.774  38.364  14.847
36179W        W99936   6.411  37.903   2.715
36180W        W99937  38.568  18.618  13.348
36181W        W99938   6.813  26.534   3.870
36182W        W99939   7.242  14.317   2.746
36183W        W99940  16.723  34.377  11.963
36184W        W99941   4.356  41.415   0.827
36185W        W99942  12.204   7.739   1.925
36186W        W99943  41.387  30.083   0.924
36187W        W99944   0.477   3.866  14.431
36188W        W99945   3.384  29.064  13.880
36189W        W99946  14.322   4.257  14.019
36190W        W99947   8.192  12.746  13.812
36191W        W99948  28.448   0.330  11.373
36192W        W99949  28.125  31.943   5.221
36193W        W99950  34.054  37.835  12.442
36194W        W99951   4.387  10.714   4.836
36195W        W99952  39.902  14.108  14.434
36196W        W99953  21.214  10.876  10.473
36197W        W99954  13.612   1.950   3.155
36198W        W99955  44.474   7.264   2.239
36199W        W99956   7.709  30.638  11.935
36200W        W99957  27.613  27.535  13.996
36201W        W99958   4.382  20.688   1.792
36202W        W99959  35.981  34.081  12.054
36203W        W99960   5.222  10.716  10.620
36204W        W99961  10.760  26.625   3.160
36205W        W99962  24.672  42.884   3.795
36206W        W99963  15.120  17.720   2.215
36207W        W99964   1.394  39.047  13.984
36208W        W99965  20.058  20.124   4.287
36209W        W99966   9.782  15.244  10.443
36210W        W99967  22.245  14.803  13.385
36211W        W99968  20.689  18.192   0.857
36212W        W99969  22.014  17.614   3.704
36213W        W99970   7.666  36.993   4.828
36214W        W99971  15.274   4.248  13.325
36215W        W99972   4.313  37.396   3.331
36216W        W99973  27.587  30.095   3.192
36217W        W99974  21.205  35.525  13.483
36218W        W99975  12.691  35.384   1.282
36219W        W99976  26.544  33.942   0.905
36220W        W99977  27.512  14.126  14.840
36221W        W99978  28.166   0.476  14.484
36222W        W99979  28.562   0.985   1.727
36223W        W99980  30.979  15.659  13.962
36224W        W99981  21.661  42.825   0.420
36225W        W99982  18.747  14.119   3.302
36226W        W99983  11.717   9.868  14.452
36227W        W99984  36.460  21.625   4.809
36228W        W99985   2.876   4.235   0.430
36229W        W99986  43.776  19.754  11.899
36230W        W99987  32.454  41.369  12.863
36231W        W99988   1.933  11.817  11.570
36232W        W99989  33.065   6.693  14.462
36233W        W99990  21.620  13.620   1.404
36234W        W99991  41.375  17.246  12.486
36235W        W99992   7.727   1.875  12.056
36236W        W99993  10.179  14.132  11.605
36237W        W99994  28.169  13.817   1.705
36238W        W99995   2.957  41.369   3.702
36239W        W99996  19.229  16.219   0.837
36240W        W99997  26.568  21.248   1.230
36241W        W99998   9.784  29.029  11.559
36242W        W99999  22.646  22.602   3.707
36243W        W    0  40.812  23.165  10.645
36244W        W    1  28.586  19.566   4.152
36245W        W    2  22.061  33.490  11.124
36246W        W    3   9.870  10.283  11.467
36247W        W    4  42.343  34.911  13.020
36248W        W    5   2.292  38.347   0.919
36249W        W    6  28.040   7.360  11.456
36250W        W    7  15.165   1.425   5.587
36251W        W    8  18.597   1.847   2.728
36252W        W    9  26.203   5.241  10.957
36253W        W   10  24.688  32.544   2.866
36254W        W   11  35.405  31.153   0.792
36255W        W   12  19.055  14.605   1.858
36256W        W   13  16.664  19.208  10.461
36257W        W   14  40.799  26.082  11.018
36258W        W   15  31.471  41.878   1.383
36259W        W   16   5.839  34.539   1.894
36260W        W   17  25.593   4.923  14.809
36261W        W   18   9.713  18.656  11.602
36262W        W   19  12.648   0.378   3.334
36263W        W   20  19.077   5.890  13.495
36264W        W   21  19.068   4.857  13.964
36265W        W   22  29.922  35.442  14.477
36266W        W   23   3.358  41.898  13.936
36267W        W   24  10.635  17.225   0.386
36268W        W   25  42.030   5.743   4.742
36269W        W   26  44.330  22.648  11.433
36270W        W   27  15.787  39.915   0.914
36271W        W   28  44.888  36.349   1.259
36272W        W   29  27.957  28.064  14.016
36273W        W   30  16.765  15.108   3.850
36274W        W   31  38.837  24.637  11.936
36275W        W   32  34.025   4.802  13.487
36276W        W   33  35.395  23.563  14.309
36277W        W   34  15.586  30.064   4.210
36278W        W   35  18.634  15.162  12.440
36279W        W   36  29.540   8.887  13.952
36280W        W   37  32.623   9.389  14.815
36281W        W   38  38.495  23.564   4.139
36282W        W   39   2.436  30.981  11.960
36283W        W   40  22.654  18.782   4.704
36284W        W   41  35.420  28.455  13.045
36285W        W   42  39.530  39.378  12.886
36286W        W   43  41.938  18.122  14.297
36287W        W   44  23.231  28.107  10.923
36288W        W   45  30.154  19.622  12.875
36289W        W   46  43.928   8.369   3.680
36290W        W   47  39.502  10.346   2.808
36291W        W   48  37.858   6.902  13.326
36292W        W   49  41.870  27.459  11.907
36293W        W   50  16.628  18.724   0.278
36294W        W   51   3.440  11.695  14.302
36295W        W   52  28.180  35.085   4.128
36296W        W   53  23.003   0.382   2.245
36297W        W   54   0.299  23.239  11.054
36298W        W   55  29.086  27.058  13.827
36299W        W   56  35.002  18.072   4.710
36300W        W   57   7.729  21.154   0.860
36301W        W   58  10.808  16.761  13.310
36302W        W   59  10.324  39.506  13.344
36303W        W   60  12.315   7.902   3.847
36304W        W   61  12.196  37.888   0.311
36305W        W   62   2.407  37.059   1.833
36306W        W   63  25.684  12.239   3.857
36307W        W   64  41.041  28.992  11.563
36308W        W   65  15.328  35.895   3.767
36309W        W   66  37.518  30.557  14.516
36310W        W   67  15.167   2.822  13.051
36311W        W   68  29.973   4.908   0.820
36312W        W   69  40.882  26.504  11.562
36313W        W   70   3.301  31.559  14.887
36314W        W   71   6.784  16.752  13.826
36315W        W   72   2.382  18.167  14.982
36316W        W   73   7.861  42.930   5.127
36317W        W   74   2.962  42.523   1.412
36318W        W   75  16.643  22.571   4.335
36319W        W   76  19.190  16.718   2.712
36320W        W   77  36.001  42.331  10.530
36321W        W   78  18.601  14.176  13.028
36322W        W   79  28.571  27.952   2.881
36323W        W   80   6.752  18.785   1.426
36324W        W   81  10.830  18.621   2.820
36325W        W   82  20.190  24.204  11.420
36326W        W   83  13.709  22.523   4.176
36327W        W   84   3.442  10.150  12.472
36328W        W   85  32.135  25.666   1.782
36329W        W   86  25.543  37.986   1.934
36330W        W   87  32.424  10.203   3.806
36331W        W   88  14.771  23.003   1.451
36332W        W   89  17.230  36.429  14.426
36333W        W   90   8.740  19.770   5.250
36334W        W   91   1.945  31.013   3.147
36335W        W   92  34.430  39.371  10.541
36336W        W   93  40.462  14.766  10.542
36337W        W   94  19.193  25.559   1.383
36338W        W   95   4.856  39.415  11.870
36339W        W   96  19.165  17.168  14.304
36340W        W   97  26.539  25.984   2.181
36341W        W   98   4.390   9.751   0.473
36342W        W   99  18.103   0.756  10.893
36343W        W  100  25.513   9.203   0.936
36344W        W  101  26.177   9.239   2.855
36345W        W  102  16.792  24.629  11.465
36346W        W  103  15.615  34.925   4.713
36347W        W  104  20.559  41.999   3.348
36348W        W  105  36.477  18.746   4.222
36349W        W  106  32.619  16.799   2.694
36350W        W  107  39.981  12.231  11.959
36351W        W  108  39.510  38.396  10.598
36352W        W  109  34.373   9.723  14.280
36353W        W  110  12.855  44.010   2.827
36354W        W  111   7.264   2.765   0.363
36355W        W  112  19.710  38.367  11.432
36356W        W  113   9.206  14.615  10.012
36357W        W  114  31.074  41.320  14.883
36358W        W  115  37.469  42.947   2.386
36359W        W  116  11.276  17.135  13.322
36360W        W  117  19.175  39.935  11.016
36361W        W  118  29.996  20.060   1.867
36362W        W  119  12.231   5.765  10.942
36363W        W  120  16.220  34.870   1.298
36364W        W  121  33.548  29.067   2.365
36365W        W  122   3.331  13.639   2.330
36366W        W  123  31.618  43.823   2.841
36367W        W  124  17.711  35.856   2.709
36368W        W  125  29.006  22.580   2.771
36369W        W  126   7.901  44.327  12.401
36370W        W  127  23.702   3.412  10.925
36371W        W  128  15.644  38.391  10.936
36372W        W  129  16.145  39.384   4.800
36373W        W  130  20.627  30.052   2.195
36374W        W  131  22.637  29.060  11.509
36375W        W  132  10.743  24.205  10.490
36376W        W  133  40.503  17.166   2.813
36377W        W  134   0.967  42.001   4.291
36378W        W  135  28.529  21.213   1.375
36379W        W  136   7.310  29.463   0.300
36380W        W  137  31.044  41.954  10.471
36381W        W  138  42.901  42.848  11.476
36382W        W  139  31.414   5.244  10.413
36383W        W  140   1.912   2.755  11.402
36384W        W  141  43.959   8.195   3.321
36385W        W  142  44.778  34.470  10.610
36386W        W  143  15.269  18.678   0.468
36387W        W  144  13.267  29.520   0.873
36388W        W  145  15.227  21.625  12.088
36389W        W  146  21.044   3.260   1.271
36390W        W  147  27.091  24.183  13.439
36391W        W  148  32.610  39.425  13.410
36392W        W  149  40.327  28.094  12.496
36393W        W  150  36.495  33.902   2.792
36394W        W  151  22.161   5.270  13.322
36395W        W  152  40.490  14.223   2.292
36396W        W  153   0.311  42.894   2.815
36397W        W  154  29.923  32.592   1.710
36398W        W  155  31.141  43.794  11.433
36399W        W  156  13.683   4.306  14.864
36400W        W  157  14.137  22.217   4.605
36401W        W  158   7.394  39.318  14.953
36402W        W  159  42.793   7.666  14.919
36403W        W  160   1.287  26.070  12.063
36404W        W  161  27.658  40.441   2.268
36405W        W  162  43.905  42.896   1.750
36406W        W  163   0.760  20.603  14.930
36407W        W  164   8.224   3.761  10.546
36408W        W  165  19.205  26.665  12.053
36409W        W  166  23.731  27.951   3.257
36410W        W  167  36.375  41.325   3.692
36411W        W  168  33.498  29.998   5.278
36412W        W  169   2.770  34.373  11.940
36413W        W  170  42.976   8.329   1.308
36414W        W  171  16.276   9.873   4.781
36415W        W  172  44.872  37.970   4.238
36416W        W  173   7.345   5.880   3.667
36417W        W  174  20.076  36.852   1.416
36418W        W  175  35.984  44.891  13.035
36419W        W  176  10.754  20.608   0.312
36420W        W  177  26.491  19.046   2.803
36421W        W  178  13.614  12.258  11.110
36422W        W  179  30.919  37.018  10.536
36423W        W  180  39.044  15.145   3.677
36424W        W  181   8.275  44.416  10.932
36425W        W  182  43.010  22.103   4.162
36426W        W  183   8.658   2.463   5.278
36427W        W  184  25.082  25.642  13.532
36428W        W  185  26.676  43.002   4.715
36429W        W  186  43.855  20.586  13.969
36430W        W  187  38.419   2.460  13.034
36431W        W  188  16.660   7.407   4.324
36432W        W  189  35.110  24.169   0.797
36433W        W  190  44.436   4.741   5.216
36434W        W  191  15.134  17.765   3.163
36435W        W  192  35.543  41.819  13.531
36436W        W  193  42.901  28.619   1.239
36437W        W  194  10.155   1.734   0.350
36438W        W  195  25.544   6.905   1.350
36439W        W  196  43.012  14.640   2.402
36440W        W  197  18.250  29.618   0.444
36441W        W  198  32.488  32.590  13.831
36442W        W  199  18.269  20.563   2.732
36443W        W  200  28.580   7.688   0.256
36444W        W  201   6.708  34.863  14.867
36445W        W  202   3.364   4.710   1.925
36446W        W  203  40.487  39.882   3.159
36447W        W  204  44.487  19.709   5.135
36448W        W  205   2.256  13.796   1.712
36449W        W  206  16.251  35.467   4.216
36450W        W  207   0.287  11.668   3.649
36451W        W  208  38.553  17.099  14.795
36452W        W  209   5.423   5.765  14.371
36453W        W  210  21.605  20.524   0.765
36454W        W  211  41.003  17.726  11.542
36455W        W  212  27.578   1.341   3.272
36456W        W  213  13.217  11.746  12.850
36457W        W  214  18.183   8.399  13.396
36458W        W  215  13.654  39.453  12.400
36459W        W  216  29.949  25.536   2.395
36460W        W  217  21.162   0.789  11.033
36461W        W  218  17.167  42.969   1.894
36462W        W  219   1.964   1.377   4.296
36463W        W  220  22.062  14.309   4.333
36464W        W  221  12.347  37.029  14.365
36465W        W  222   8.703  10.837   0.753
36466W        W  223  26.095  20.750   1.266
36467W        W  224  33.071  22.520   3.271
36468W        W  225  25.675  16.300   5.154
36469W        W  226  11.157  11.161  13.487
36470W        W  227  32.518   6.373   0.380
36471W        W  228  41.826  28.622  14.427
36472W        W  229  42.359   2.956   3.161
36473W        W  230   3.272  33.491  13.820
36474W        W  231  21.671  30.092  10.978
36475W        W  232  23.226   4.224  14.813
36476W        W  233  14.142   1.935  12.907
36477W        W  234   9.180   2.736   3.824
36478W        W  235   2.813   9.653   0.968
36479W        W  236  37.861  17.701  14.918
36480W        W  237   5.687  15.590   4.765
36481W        W  238   8.875   9.737   4.716
36482W        W  239   2.369  15.744  14.954
36483W        W  240  30.962  41.326  12.380
36484W        W  241  40.937  33.020   0.281
36485W        W  242  38.370   1.880  12.420
36486W        W  243  42.454  32.625   0.912
36487W        W  244  11.640  42.898   3.868
36488W        W  245  11.838  13.700  11.573
36489W        W  246  31.570  39.360   2.380
36490W        W  247   7.897  19.223   4.666
36491W        W  248  28.989  37.856   2.862
36492W        W  249  37.851  37.931   3.244
36493W        W  250   0.846  34.530   1.786
36494W        W  251  34.416  15.776   2.667
36495W        W  252  32.429  21.738   0.863
36496W        W  253   5.408  44.345   0.774
36497W        W  254  11.307  13.839  10.579
36498W        W  255   9.700   1.732   0.411
36499W        W  256  29.172  41.388   4.239
36500W        W  257   4.827  23.184   2.215
36501W        W  258  23.686  21.535  10.473
36502W        W  259  37.931  31.045  10.634
36503W        W  260  38.972   9.791  11.948
36504W        W  261   8.346  19.604   2.733
36505W        W  262  23.157  17.590  13.798
36506W        W  263  23.618  15.679   2.340
36507W        W  264  30.564  35.444  11.541
36508W        W  265  22.509  29.958  10.531
36509W        W  266  22.024  27.692   4.235
36510W        W  267  23.511  41.902   0.429
36511W        W  268  16.240   4.340   0.323
36512W        W  269   4.425   7.689   3.347
36513W        W  270  15.805  35.104  12.394
36514W        W  271  14.814  40.887   3.655
36515W        W  272   3.933  41.042   5.727
36516W        W  273  23.676  37.885  11.449
36517W        W  274  21.088  44.343  12.533
36518W        W  275  17.189  14.601   1.240
36519W        W  276  26.523  15.714  11.507
36520W        W  277  44.011  32.494   1.295
36521W        W  278  40.338   5.303   4.731
36522W        W  279   2.961  43.434   0.781
36523W        W  280  11.343  22.146  12.406
36524W        W  281   0.838  21.551   0.824
36525W        W  282  36.555   2.306  12.521
36526W        W  283  25.056  41.376   3.712
36527W        W  284  20.619   5.202   4.278
36528W        W  285  41.534  33.412  11.927
36529W        W  286  34.922  40.864  14.835
36530W        W  287  36.893  42.781   2.755
36531W        W  288  24.501  16.102   1.830
36532W        W  289  10.343  22.058   4.180
36533W        W  290  33.105   8.300  13.547
36534W        W  291  11.623  33.402   2.820
36535W        W  292   7.697   7.327   2.892
36536W        W  293   4.337  25.209  12.911
36537W        W  294  39.859  18.636   0.471
36538W        W  295  27.120  21.029   5.316
36539W        W  296  32.072  18.547  14.461
36540W        W  297  22.550   3.801  11.066
36541W        W  298   3.875  44.002   1.424
36542W        W  299  34.525  12.808  11.381
36543W        W  300  33.953  16.074  14.998
36544W        W  301  20.159  34.517   1.708
36545W        W  302  31.512  37.385  11.496
36546W        W  303  20.214  22.036  10.424
36547W        W  304  37.438  33.882  10.962
36548W        W  305  15.680  34.864  13.480
36549W        W  306  38.567  11.138  10.460
36550W        W  307  25.199  16.687  10.914
36551W        W  308   6.317  13.253   1.912
36552W        W  309   0.757  11.735   5.113
36553W        W  310  34.987  16.294   3.795
36554W        W  311  36.938  40.927  13.453
36555W        W  312  19.066  44.959  14.029
36556W        W  313   3.397  16.625   4.319
36557W        W  314  41.823   5.306  14.807
36558W        W  315  34.386   6.251  13.406
36559W        W  316  18.074  14.831  11.539
36560W        W  317  23.101  25.165   0.810
36561W        W  318  24.545   9.887  12.423
36562W        W  319   2.838  31.010   1.763
36563W        W  320  14.261  28.985   3.279
36564W        W  321   8.266  16.088   4.612
36565W        W  322   6.784   8.794  13.890
36566W        W  323  21.082   9.200  14.348
36567W        W  324   4.844   9.762   3.349
36568W        W  325  36.515  20.733  12.906
36569W        W  326   0.882   3.246  12.829
36570W        W  327  35.429  34.016  13.015
36571W        W  328  39.030  40.010   1.800
36572W        W  329  19.624  43.312  14.346
36573W        W  330  16.163  19.630   4.288
36574W        W  331  32.441  38.968   3.335
36575W        W  332  37.985  36.962  14.430
36576W        W  333   4.812  24.144   1.288
36577W        W  334   0.891  39.948  13.873
36578W        W  335  32.009  11.651   1.865
36579W        W  336  11.678  31.411   3.830
36580W        W  337  33.395   1.462   3.811
36581W        W  338  10.689   0.447  10.934
36582W        W  339  24.695  19.770  12.825
36583W        W  340  23.507  32.587   4.755
36584W        W  341  44.266  34.991   5.154
36585W        W  342  39.514  24.650   4.771
36586W        W  343  17.674   0.361   4.772
36587W        W  344  20.525  37.340  10.990
36588W        W  345   1.252  39.058  12.419
36589W        W  346  17.185  28.530   0.268
36590W        W  347  44.480  28.474  14.351
36591W        W  348  19.635   2.284   3.157
36592W        W  349  10.771  43.404  14.957
36593W        W  350  39.899  15.222   3.754
36594W        W  351  25.552  13.134  12.562
36595W        W  352  30.044   7.785   3.294
36596W        W  353  35.997  10.670   0.320
36597W        W  354  32.453  12.760  13.036
36598W        W  355  33.542  35.913  13.323
36599W        W  356  37.344  33.886  11.427
36600W        W  357  26.657  18.597   2.405
36601W        W  358   2.324  26.170  14.401
36602W        W  359  17.099  25.012   0.422
36603W        W  360  37.950  18.727  13.964
36604W        W  361   8.306  17.619  11.904
36605W        W  362   9.391   6.264   3.755
36606W        W  363  13.780  34.954   4.229
36607W        W  364  22.145  22.132  13.024
36608W        W  365  21.532  10.374  12.441
36609W        W  366  43.971  31.409  11.999
36610W        W  367  35.875  19.765  10.480
36611W        W  368  44.391  26.973   3.234
36612W        W  369  18.267  36.091  11.380
36613W        W  370  44.906   7.868  14.397
36614W        W  371  35.888   3.949   3.215
36615W        W  372  22.718  13.677  12.443
36616W        W  373   9.811   4.417  12.481
36617W        W  374  26.014   7.255  14.908
36618W        W  375  16.202  41.993  12.407
36619W        W  376  42.957  15.228   0.797
36620W        W  377   3.385  44.364  11.514
36621W        W  378  15.595  26.573   0.733
36622W        W  379   2.279  33.490   5.185
36623W        W  380  25.004  12.632   1.884
36624W        W  381  32.627  23.109  12.410
36625W        W  382  38.043   9.287   0.841
36626W        W  383  43.467   2.256   4.650
36627W        W  384   0.367  22.170  14.903
36628W        W  385  27.055  29.607  14.448
36629W        W  386  22.138   2.927  12.909
36630W        W  387  15.638  42.905  12.828
36631W        W  388  28.089  13.810  11.123
36632W        W  389  13.177  37.495   4.304
36633W        W  390   2.273  15.734   1.876
36634W        W  391  18.076  29.618   4.292
36635W        W  392  35.516  24.607  13.036
36636W        W  393  26.047  35.858   2.726
36637W        W  394  17.658   5.894  11.528
36638W        W  395  13.835   2.884   4.755
36639W        W  396  19.077  42.899  14.018
36640W        W  397   3.714  18.073  12.344
36641W        W  398  16.093   6.210  11.554
36642W        W  399  43.827  41.293  11.871
36643W        W  400   0.838   2.942  13.047
36644W        W  401  30.521  11.781   1.426
36645W        W  402  14.762  21.205  11.464
36646W        W  403  10.168  14.226  12.551
36647W        W  404  35.956  14.234   2.690
36648W        W  405  18.546   2.883  10.413
36649W        W  406   5.808  21.638  14.386
36650W        W  407  24.156   6.679  11.928
36651W        W  408  31.993  18.252  11.892
36652W        W  409  19.744   6.737  12.380
36653W        W  410  37.367  33.049   0.355
36654W        W  411   1.748  17.778  10.489
36655W        W  412  17.225  24.690  12.056
36656W        W  413  23.639  14.223  11.126
36657W        W  414  14.834  11.165   4.614
36658W        W  415  35.889   5.688  11.478
36659W        W  416  31.593  28.098  12.489
36660W        W  417  22.666  30.065   2.311
36661W        W  418  24.112  15.704  13.343
36662W        W  419   3.350  38.957  13.335
36663W        W  420   7.838   1.436   3.777
36664W        W  421  27.467  33.420   1.277
36665W        W  422   5.251  30.161  13.406
36666W        W  423   5.888  13.297  13.411
36667W        W  424  15.657   7.697   4.665
36668W        W  425   5.206  15.652   0.956
36669W        W  426  15.711  43.017   3.254
36670W        W  427  36.916  43.493   0.435
36671W        W  428  10.357  31.430   3.632
36672W        W  429  26.983  38.473  14.470
36673W        W  430  18.560  36.008   3.374
36674W        W  431  24.530   1.742   0.742
36675W        W  432  24.496  32.093  13.908
36676W        W  433  40.046  27.133  13.978
36677W        W  434   9.287  33.613   2.219
36678W        W  435  12.664  14.691   2.774
36679W        W  436  32.409   0.971  14.403
36680W        W  437  36.426  23.235   3.366
36681W        W  438  10.680  12.201  13.971
36682W        W  439   7.398  13.696   4.252
36683W        W  440  11.799  10.854  12.360
36684W        W  441  29.034   5.865  10.962
36685W        W  442  11.848  27.999  13.816
36686W        W  443   4.372   1.454  13.933
36687W        W  444  17.568  42.813   4.332
36688W        W  445   4.345  39.425   0.796
36689W        W  446   4.727  29.107  12.951
36690W        W  447  34.979  43.325  13.475
36691W        W  448  17.131  26.024   4.823
36692W        W  449  24.599  25.567  14.493
36693W        W  450  38.446   2.948   0.959
36694W        W  451  14.097  43.502  11.913
36695W        W  452   1.926  42.365   4.181
36696W        W  453  43.015  10.857  13.492
36697W        W  454  14.178  34.499   2.894
36698W        W  455   4.785   6.883   1.413
36699W        W  456  21.039  18.057   0.249
36700W        W  457  34.867  10.273   1.226
36701W        W  458   0.455  41.448   4.654
36702W        W  459   8.400  29.549  11.994
36703W        W  460  24.510   4.276   1.863
36704W        W  461  10.663  29.053   2.398
36705W        W  462  22.567  32.044  11.910
36706W        W  463  38.379  13.299   3.702
36707W        W  464  35.097  19.543  10.941
36708W        W  465  44.485   1.971  10.612
36709W        W  466   7.176  34.588  10.976
36710W        W  467  35.975  22.558   4.147
36711W        W  468   6.399  44.783   0.343
36712W        W  469   0.812  34.984  11.092
36713W        W  470  40.315  16.638   4.337
36714W        W  471  38.512  37.392  14.403
36715W        W  472  38.896   0.275  11.973
36716W        W  473  25.039   9.832   0.273
36717W        W  474   9.220  30.495   0.300
36718W        W  475  37.945  31.075  11.480
36719W        W  476  17.733  11.356  13.001
36720W        W  477  36.562  23.050   1.921
36721W        W  478   0.905   9.341   4.748
36722W        W  479  24.546  33.578   1.696
36723W        W  480  11.848  44.501   5.168
36724W        W  481  27.487  11.665   0.851
36725W        W  482  11.269  16.113   5.599
36726W        W  483  11.742  19.646   1.915
36727W        W  484  34.545   7.264  14.832
36728W        W  485  22.717  39.506  13.002
36729W        W  486   0.868  28.487  14.895
36730W        W  487   6.766  42.787  11.063
36731W        W  488   2.753  32.901   4.289
36732W        W  489   7.272   8.280  10.555
36733W        W  490  27.500  25.174  14.962
36734W        W  491   8.833  13.125   5.170
36735W        W  492  24.091  10.820   4.238
36736W        W  493   6.229  17.107  12.868
36737W        W  494  39.959  43.459  13.953
36738W        W  495  23.207   3.884  11.538
36739W        W  496  30.922  39.876  14.422
36740W        W  497  32.468  11.623  12.057
36741W        W  498   6.719  36.580   1.423
36742W        W  499  37.931  38.872   2.249
36743W        W  500  33.433  26.683  12.049
36744W        W  501  34.545  14.609   4.314
36745W        W  502  33.975  39.438  11.386
36746W        W  503  17.183   4.316   2.344
36747W        W  504   8.797  30.979   0.320
36748W        W  505  39.529  30.947  13.902
36749W        W  506  35.928   4.834   4.751
36750W        W  507   1.387   6.741  14.833
36751W        W  508   9.178  15.758   2.377
36752W        W  509   6.396  44.903  11.087
36753W        W  510   1.409  34.966  13.032
36754W        W  511  37.925  32.951   4.159
36755W        W  512  17.238  33.537   1.401
36756W        W  513  36.936   0.898   4.705
36757W        W  514  29.656   3.875  14.393
36758W        W  515   0.892  43.323   2.209
36759W        W  516   2.233   4.415   2.672
36760W        W  517  21.055   8.877   2.699
36761W        W  518   1.402  30.045   4.616
36762W        W  519  22.156  24.066  13.842
36763W        W  520  31.477  26.125   4.770
36764W        W  521  44.780  30.118  10.612
36765W        W  522  29.962  32.976   2.885
36766W        W  523  15.162  26.628   3.304
36767W        W  524  35.984   1.758  11.935
36768W        W  525  13.807   7.293  14.014
36769W        W  526   1.415  23.687   4.814
36770W        W  527  19.691   9.732  14.437
36771W        W  528  39.049  43.447   4.280
36772W        W  529   0.776   4.437   1.807
36773W        W  530  38.905  23.656  10.044
36774W        W  531   6.705   4.439   4.123
36775W        W  532  30.954   8.299   2.895
36776W        W  533  10.722  18.742   2.377
36777W        W  534   7.733   1.452  13.838
36778W        W  535  19.778   8.358  12.864
36779W        W  536  42.793  13.642   3.662
36780W        W  537   8.272   8.769  14.401
36781W        W  538  14.141   5.318  12.565
36782W        W  539   2.962  21.258  14.932
36783W        W  540  39.941   0.924  12.991
36784W        W  541  20.141  31.540   0.759
36785W        W  542  32.973  28.609   3.865
36786W        W  543   5.418  14.205   0.925
36787W        W  544   3.409   5.832   2.402
36788W        W  545  29.562  13.639   1.773
36789W        W  546  44.830   5.282   2.399
36790W        W  547  43.295  11.820   1.784
36791W        W  548  29.143  17.600   3.755
36792W        W  549  21.627  30.497  11.928
36793W        W  550  39.915  39.982   4.146
36794W        W  551  20.075  36.000  11.949
36795W        W  552   6.777   8.804   2.385
36796W        W  553   0.369  13.235  14.317
36797W        W  554  25.694  26.974   1.434
36798W        W  555  18.774  20.095   0.812
36799W        W  556  21.056  36.346  12.411
36800W        W  557  18.757  35.973   4.160
36801W        W  558  23.720  10.821   1.442
36802W        W  559  25.688  32.082   2.781
36803W        W  560   4.937  14.742   1.266
36804W        W  561  28.504  35.894  10.515
36805W        W  562   4.823  14.152   3.292
36806W        W  563  38.901  30.932   3.747
36807W        W  564  43.381  34.554   4.197
36808W        W  565  38.935  15.247  12.980
36809W        W  566  37.459   8.329   0.805
36810W        W  567   4.298  35.408  12.984
36811W        W  568  31.498  35.425   0.351
36812W        W  569  37.866   1.309  10.460
36813W        W  570  20.533   6.826  13.951
36814W        W  571  31.514  24.045  12.479
36815W        W  572  19.770   7.834  13.493
36816W        W  573  11.845   9.773   1.846
36817W        W  574  39.999  39.549  10.622
36818W        W  575  28.579  17.164  14.992
36819W        W  576   1.480  32.404  11.511
36820W        W  577  39.395   6.303   4.159
36821W        W  578  21.636   7.228   2.244
36822W        W  579  14.319   3.725   2.859
36823W        W  580  30.919  21.582   1.757
36824W        W  581   1.352  27.956   0.247
36825W        W  582  30.128   3.873  13.061
36826W        W  583  37.046   3.826  11.977
36827W        W  584  25.169  35.402   4.816
36828W        W  585   3.416   3.335   1.801
36829W        W  586   3.319   1.394   3.295
36830W        W  587  26.963  23.628  14.337
36831W        W  588  18.050  43.801   2.254
36832W        W  589   4.891   2.267   3.857
36833W        W  590  27.537  13.677   5.634
36834W        W  591   0.467  22.539   0.368
36835W        W  592  35.565  28.627  10.559
36836W        W  593  23.214  22.534   0.446
36837W        W  594   6.330  36.419  13.446
36838W        W  595  29.011  38.023   2.195
36839W        W  596   7.756  20.081   4.287
36840W        W  597  33.101  28.021  14.868
36841W        W  598   9.707  41.843  13.321
36842W        W  599  39.550  36.444  10.628
36843W        W  600   4.259  30.469  11.043
36844W        W  601   3.456  24.141  11.072
36845W        W  602  16.673  18.585  11.888
36846W        W  603  24.126  30.107   1.250
36847W        W  604  21.197  28.158   3.700
36848W        W  605  23.192   8.712   3.341
36849W        W  606  31.489  35.954   2.838
36850W        W  607  35.906   9.767   3.767
36851W        W  608  11.310  36.582  14.772
36852W        W  609   1.919  35.914  13.965
36853W        W  610  14.319  25.499  14.347
36854W        W  611  20.212  11.863   4.191
36855W        W  612  16.257  24.205  10.636
36856W        W  613   7.215  39.895   4.347
36857W        W  614   1.824  27.576   3.318
36858W        W  615  26.637  37.049  14.316
36859W        W  616  15.329   6.778   0.312
36860W        W  617   4.730  16.223   0.912
36861W        W  618  11.223  43.769   3.347
36862W        W  619  22.637  27.460   2.295
36863W        W  620  21.063  16.234   3.330
36864W        W  621  10.839  42.494   4.331
36865W        W  622  37.533  35.389  12.419
36866W        W  623  10.158   2.285   3.865
36867W        W  624   2.875  26.013  12.569
36868W        W  625   4.720  11.786  14.963
36869W        W  626   2.811   6.414   2.846
36870W        W  627  10.793   0.782   2.894
36871W        W  628  27.997  31.144  13.875
36872W        W  629  28.042  14.271   5.102
36873W        W  630  34.398   6.802   1.814
36874W        W  631  17.738   8.302   0.479
36875W        W  632  15.691  18.662  14.331
36876W        W  633  34.556   2.882  13.866
36877W        W  634   5.845  30.145   2.718
36878W        W  635  16.084  32.461   1.719
36879W        W  636  22.121  13.681  13.540
36880W        W  637  12.835  10.825  13.966
36881W        W  638  41.513  44.821   2.881
36882W        W  639  28.113  24.710  14.017
36883W        W  640  25.525   4.824  13.417
36884W        W  641  16.084  30.074   3.362
36885W        W  642  44.795   9.855   3.317
36886W        W  643  17.677  43.363  11.410
36887W        W  644  23.148  26.540  13.381
36888W        W  645   1.826  12.191   0.411
36889W        W  646  28.115  29.085   4.114
36890W        W  647  44.456  11.308   1.816
36891W        W  648  14.737  37.397  14.399
36892W        W  649  11.712  33.475   0.367
36893W        W  650  19.701  40.927   3.650
36894W        W  651  27.448  33.565  13.466
36895W        W  652   1.904  23.635   2.759
36896W        W  653  36.034  21.119   2.280
36897W        W  654   3.384  11.308   2.385
36898W        W  655   3.282  13.307  13.320
36899W        W  656  12.831  39.400   2.896
36900W        W  657  19.713  30.412   2.312
36901W        W  658  18.187  41.320  13.448
36902W        W  659  34.611   1.765   3.761
36903W        W  660  29.536  22.573  12.900
36904W        W  661  30.908  18.623   3.654
36905W        W  662  13.772   7.812   0.948
36906W        W  663   2.318  24.206  14.378
36907W        W  664  44.850  12.170   3.636
36908W        W  665   0.442   6.182   0.779
36909W        W  666   6.287  11.764   5.083
36910W        W  667   6.403   8.199   0.300
36911W        W  668  32.077   6.424   3.869
36912W        W  669  34.944  18.083  11.861
36913W        W  670  26.108  22.584  14.412
36914W        W  671   3.322   5.849  12.960
36915W        W  672  17.685  20.585   3.784
36916W        W  673  44.885  24.040  14.864
36917W        W  674   5.907  31.603  14.376
36918W        W  675  12.303  33.400   3.371
36919W        W  676  25.218  14.100  14.840
36920W        W  677  40.818  28.036  10.566
36921W        W  678  20.225  32.123   4.610
36922W        W  679  17.612  24.038  12.383
36923W        W  680  40.455  26.562   9.931
36924W        W  681  19.719  18.585  14.448
36925W        W  682  38.952  30.961  11.555
36926W        W  683   6.816   1.899   4.221
36927W        W  684  28.585  29.063  11.041
36928W        W  685   5.705  21.549  10.430
36929W        W  686  38.435  30.955  14.459
36930W        W  687   4.773  20.190   2.765
36931W        W  688  40.924  17.295  13.449
36932W        W  689  19.708   3.304   4.639
36933W        W  690  20.173  17.115   1.387
36934W        W  691   9.817  17.594  12.498
36935W        W  692  13.207  30.931  11.505
36936W        W  693  43.362  34.478  13.406
36937W        W  694  10.163  43.927   0.817
36938W        W  695  19.697   7.700  10.431
36939W        W  696  24.691   8.174   1.316
36940W        W  697  26.083  14.156   0.827
36941W        W  698  32.980  35.099  13.364
36942W        W  699   8.328  39.885  12.551
36943W        W  700   8.357  42.881   0.879
36944W        W  701  32.574  42.849   2.264
36945W        W  702  37.069  40.404   3.162
36946W        W  703  11.625   9.648  14.797
36947W        W  704  11.827  18.614  14.860
36948W        W  705  38.333  33.465   0.911
36949W        W  706  31.088  28.678   1.395
36950W        W  707   4.347  30.507  12.381
36951W        W  708  44.344  10.801   3.697
36952W        W  709   4.879  11.203  12.927
36953W        W  710  36.386   7.282   2.257
36954W        W  711  44.793  15.690  13.021
36955W        W  712   5.436  30.913  11.966
36956W        W  713  29.012  23.202   2.252
36957W        W  714  34.401  38.970   2.763
36958W        W  715  10.269  19.747   2.862
36959W        W  716  37.522  26.516   1.702
36960W        W  717  22.682  26.020  13.057
36961W        W  718   9.762  33.463   1.747
36962W        W  719   3.728  33.049   4.125
36963W        W  720  10.162   9.875  13.390
36964W        W  721   5.847  26.470  10.008
36965W        W  722  12.335   8.670  14.457
36966W        W  723  44.430  35.462   2.178
36967W        W  724  22.528  24.007  13.318
36968W        W  725   9.296  39.521  12.065
36969W        W  726  17.657  15.326  13.872
36970W        W  727   1.369  10.348   1.445
36971W        W  728   9.301   6.864  14.011
36972W        W  729  44.390  35.892  14.796
36973W        W  730  17.782  28.646   1.730
36974W        W  731  37.067  41.352  10.484
36975W        W  732  17.212  20.252  14.279
36976W        W  733   5.344  30.413  10.413
36977W        W  734  14.154  19.734   3.639
36978W        W  735  22.680  17.262   9.934
36979W        W  736  43.833  16.317   1.705
36980W        W  737  30.951  28.536  11.590
36981W        W  738   5.282  19.641   0.789
36982W        W  739  40.021  44.301  14.831
36983W        W  740  16.110  31.919  12.978
36984W        W  741  32.968  10.178   0.853
36985W        W  742   5.758  39.022  12.553
36986W        W  743   2.884  23.152  13.407
36987W        W  744   3.262  26.699   0.934
36988W        W  745  31.494  38.485  11.565
36989W        W  746   8.794  44.327   0.302
36990W        W  747  42.429  19.547  10.456
36991W        W  748  23.133  23.196   0.919
36992W        W  749  41.534  34.120   4.715
36993W        W  750  21.706  44.978  13.859
36994W        W  751  26.112  27.610  14.927
36995W        W  752   5.390  16.642  13.461
36996W        W  753  13.619  20.161   2.189
36997W        W  754  22.084  23.114  12.482
36998W        W  755   9.321  23.088   1.827
36999W        W  756  20.267   0.310  11.461
37000W        W  757  21.033  35.358   0.277
37001W        W  758  25.676  23.175   0.301
37002W        W  759   0.747  33.452   2.734
37003W        W  760  12.627  11.861  12.005
37004W        W  761   7.319  21.217   1.297
37005W        W  762   9.734  36.482   4.256
37006W        W  763  17.074  20.212  12.391
37007W        W  764   8.663  24.677  10.968
37008W        W  765  11.218  32.548  10.440
37009W        W  766  34.881  21.565   1.248
37010W        W  767  19.546  27.967  14.462
37011W        W  768  37.510  19.260  12.482
37012W        W  769  41.501  28.083  14.943
37013W        W  770  17.606  41.330  11.586
37014W        W  771  39.457  25.149  13.003
37015W        W  772  24.484  16.124   2.280
37016W        W  773  11.653  32.610   1.355
37017W        W  774  40.533  39.450  13.469
37018W        W  775  23.072  22.651   3.315
37019W        W  776  33.448  15.195   1.296
37020W        W  777  13.799  31.544   3.828
37021W        W  778  39.504   8.161  10.907
37022W        W  779  28.957  33.390  11.896
37023W        W  780  24.178  13.229   4.777
37024W        W  781  24.599  13.230   1.327
37025W        W  782  42.813  18.102   4.154
37026W        W  783  20.074  44.880   3.181
37027W        W  784  23.735  17.289  14.764
37028W        W  785  44.801  26.146  14.889
37029W        W  786  15.608  36.915  13.005
37030W        W  787  28.151  33.615  12.854
37031W        W  788  30.628  32.582  13.907
37032W        W  789   1.327  15.228   0.369
37033W        W  790  32.519  14.721  14.490
37034W        W  791  12.316   7.898   1.285
37035W        W  792  26.557  23.137  13.973
37036W        W  793  21.105  29.020  13.907
37037W        W  794  25.084  40.481  10.635
37038W        W  795  19.774  40.991  10.952
37039W        W  796  32.621  15.709   4.258
37040W        W  797  30.001  40.331  13.376
37041W        W  798  29.515   7.275   3.813
37042W        W  799  16.120  28.446  12.530
37043W        W  800  14.804  37.037   2.337
37044W        W  801  24.108  22.575  10.142
37045W        W  802  23.063  38.050   1.432
37046W        W  803   2.848  14.686  11.019
37047W        W  804   5.303   5.394  14.863
37048W        W  805  37.478  16.621  13.017
37049W        W  806   1.783  44.767   1.247
37050W        W  807  23.496  35.095   4.305
37051W        W  808   9.290   8.852   0.445
37052W        W  809  20.198  14.156   1.927
37053W        W  810  36.946  27.088  14.513
37054W        W  811   1.318  44.431  14.335
37055W        W  812   7.720  22.108   4.666
37056W        W  813  35.033  25.695   4.177
37057W        W  814   6.227   4.726   4.209
37058W        W  815   2.427  26.664   5.150
37059W        W  816  44.862  39.418   1.756
37060W        W  817  12.176   5.197   2.790
37061W        W  818  24.493  10.794   3.825
37062W        W  819  30.421  31.957   1.309
37063W        W  820  18.145   1.956   1.445
37064W        W  821   7.376  26.125  13.361
37065W        W  822  40.974  31.143  11.948
37066W        W  823  39.975   5.280  12.869
37067W        W  824   2.731  36.944  14.485
37068W        W  825  35.011  13.829  14.275
37069W        W  826  30.952  30.909   0.251
37070W        W  827   4.813  34.374   1.917
37071W        W  828  24.182  29.148   0.282
37072W        W  829  22.167  22.209  10.491
37073W        W  830   3.804  13.190  13.052
37074W        W  831  29.624  11.262   1.717
37075W        W  832   4.360  22.524   4.246
37076W        W  833  36.082   7.232  14.395
37077W        W  834  41.323  43.499   2.336
37078W        W  835  23.134  15.179   4.214
37079W        W  836   4.735  16.223   2.197
37080W        W  837  20.211  14.722   2.689
37081W        W  838  44.321  21.691   2.400
37082W        W  839  19.738   2.381  14.795
37083W        W  840  22.669   4.254  12.861
37084W        W  841  21.665  17.139   9.963
37085W        W  842  33.465   4.833   3.737
37086W        W  843  37.463  33.907  11.954
37087W        W  844   7.226  28.645   1.269
37088W        W  845  42.393  31.122  12.430
37089W        W  846  31.581  39.478  13.397
37090W        W  847  20.546  35.446   1.308
37091W        W  848   2.848  31.065   3.770
37092W        W  849  23.015  36.846  14.446
37093W        W  850   0.797  38.059   2.866
37094W        W  851  21.591  24.160  12.881
37095W        W  852  39.341  38.917   3.375
37096W        W  853  33.445   0.819  12.507
37097W        W  854  42.813  26.999  14.284
37098W        W  855  37.004  20.214  13.850
37099W        W  856  18.748  20.179  10.464
37100W        W  857  42.906   5.719   2.884
37101W        W  858  42.892   3.754  13.507
37102W        W  859  27.503  43.937   1.265
37103W        W  860  27.083  32.905  11.407
37104W        W  861  39.951  30.931  13.441
37105W        W  862   7.838  13.624  12.560
37106W        W  863  28.084  42.317  10.548
37107W        W  864   3.405  35.883  12.509
37108W        W  865   2.936  34.449  10.902
37109W        W  866  29.435  42.862   0.921
37110W        W  867  20.556  30.938   2.792
37111W        W  868  31.973  34.440  11.438
37112W        W  869  14.667  18.219  11.405
37113W        W  870  24.974  31.958   2.741
37114W        W  871   6.877  40.418  13.324
37115W        W  872  28.021   1.349  11.510
37116W        W  873  33.076   1.971  13.852
37117W        W  874   7.194  30.492   4.154
37118W        W  875   8.320  29.158  13.486
37119W        W  876  37.059   8.876   2.363
37120W        W  877  13.107  40.925  13.814
37121W        W  878  35.456   7.346  14.410
37122W        W  879  36.887  27.074  10.527
37123W        W  880   0.979   3.937   4.705
37124W        W  881  27.955  37.514   3.635
37125W        W  882  13.637   6.243   3.696
37126W        W  883   0.886  35.555  11.392
37127W        W  884   4.442  43.796   2.405
37128W        W  885  19.711  43.020  11.513
37129W        W  886  21.080  40.052   1.213
37130W        W  887   9.211  31.583   0.823
37131W        W  888  24.095  44.936  10.585
37132W        W  889   5.357  18.604   5.300
37133W        W  890  34.398   8.190  12.521
37134W        W  891  34.375  16.668  14.462
37135W        W  892  39.898  31.109  10.917
37136W        W  893  10.823  43.767   3.307
37137W        W  894  33.040  13.805   0.424
37138W        W  895   7.886  20.530   1.908
37139W        W  896   0.303   7.742   3.711
37140W        W  897  36.510   8.325  11.880
37141W        W  898   6.200   3.874   4.599
37142W        W  899   5.924  10.277   4.267
37143W        W  900  30.038   6.903   2.234
37144W        W  901  35.546  26.514  10.424
37145W        W  902  25.104  16.634   4.325
37146W        W  903  28.985  30.658  12.991
37147W        W  904  34.937  15.284  12.825
37148W        W  905  17.663  10.207  11.913
37149W        W  906  18.099  41.883   0.370
37150W        W  907   5.749  41.883   1.332
37151W        W  908  25.168  23.100   4.191
37152W        W  909   6.884  10.861   3.760
37153W        W  910  34.502  36.409  12.549
37154W        W  911  27.994   2.946  13.421
37155W        W  912  33.115  24.986   0.348
37156W        W  913  24.653  31.116   1.415
37157W        W  914  25.528  12.786  13.540
37158W        W  915   3.945  28.932   2.259
37159W        W  916   8.710  18.143   1.384
37160W        W  917  41.994   7.385   2.214
37161W        W  918  19.595  24.548  12.420
37162W        W  919  10.283  33.898  10.460
37163W        W  920  30.620   3.936  11.981
37164W        W  921  14.157   3.263   4.731
37165W        W  922  42.344  14.198  11.026
37166W        W  923  30.577   6.293   0.739
37167W        W  924  12.274  23.028   3.209
37168W        W  925   8.691  34.445  13.478
37169W        W  926  28.491  17.701  13.324
37170W        W  927  33.466  23.721   0.344
37171W        W  928  26.524  15.223  12.026
37172W        W  929  13.672  37.395  11.922
37173W        W  930   7.210  42.909   1.390
37174W        W  931   4.933  21.218   0.369
37175W        W  932   0.430  14.733   2.769
37176W        W  933   0.803  14.792   3.284
37177W        W  934  13.196  14.236   0.385
37178W        W  935  24.677   9.351  11.380
37179W        W  936  23.498  41.383   2.286
37180W        W  937  10.649  32.568  13.428
37181W        W  938  22.179  36.415   0.763
37182W        W  939  11.694   5.720   1.750
37183W        W  940  28.169  31.628   0.372
37184W        W  941  10.848  38.475   2.815
37185W        W  942   8.722  11.132   4.734
37186W        W  943  32.501  13.117  11.884
37187W        W  944  39.833   6.768   2.416
37188W        W  945  37.383   0.324  14.335
37189W        W  946  24.122  40.797   4.614
37190W        W  947  26.098   1.949  13.971
37191W        W  948   4.806  22.062  13.044
37192W        W  949  18.629   3.319  13.412
37193W        W  950  34.013  33.058   4.656
37194W        W  951  34.968   7.212   3.630
37195W        W  952  12.673  26.062   0.908
37196W        W  953  21.636  41.351  12.877
37197W        W  954   5.340  31.540  12.921
37198W        W  955  18.120   8.184   0.356
37199W        W  956  44.776  12.766  10.463
37200W        W  957  16.752   7.732  10.902
37201W        W  958  24.206  12.144  12.841
37202W        W  959   2.960  13.729  10.984
37203W        W  960  21.627  14.151  14.837
37204W        W  961  12.314  13.261   3.710
37205W        W  962   5.265  14.618   0.443
37206W        W  963   1.903   3.219   1.277
37207W        W  964  28.638  13.322   5.132
37208W        W  965  43.919  39.397  13.361
37209W        W  966  20.525  16.193   0.845
37210W        W  967  35.410   1.342  13.456
37211W        W  968  40.446  33.403   1.902
37212W        W  969  10.714  13.111  13.440
37213W        W  970  10.261  42.865  12.531
37214W        W  971   6.851  10.201   3.217
37215W        W  972  22.206  11.307   2.405
37216W        W  973  25.609  39.391  10.919
37217W        W  974   3.825   3.822  12.522
37218W        W  975  39.000  25.972   2.400
37219W        W  976   8.681  10.677  12.065
37220W        W  977  37.950  35.903   2.889
37221W        W  978  39.477  38.071   3.761
37222W        W  979  26.059  38.822   0.395
37223W        W  980  18.115  16.137   0.818
37224W        W  981  12.293  20.194   2.178
37225W        W  982  40.489  37.557   3.380
37226W        W  983  40.338  37.955   1.360
37227W        W  984  22.570  35.883   2.776
37228W        W  985  20.737  19.102  12.010
37229W        W  986  35.409  15.139   4.178
37230W        W  987   7.872  28.092   4.824
37231W        W  988  36.898  42.824   5.206
37232W        W  989  43.288  38.478   3.227
37233W        W  990  30.538   8.805   1.790
37234W        W  991  12.278  25.993  11.913
37235W        W  992  37.412  28.019  12.550
37236W        W  993  16.147   9.369   1.728
37237W        W  994   6.256  24.570   2.734
37238W        W  995  43.337   0.261   1.306
37239W        W  996  44.347  30.590  11.869
37240W        W  997  13.144  28.515   0.828
37241W        W  998  39.445   5.281  14.864
37242W        W  999   6.314   0.974   1.403
37243W        W 1000  29.487   6.208   4.269
37244W        W 1001   7.856  10.174   3.162
37245W        W 1002   3.772  30.071   2.411
37246W        W 1003   4.938  25.150   3.359
37247W        W 1004  12.330  41.795   3.660
37248W        W 1005  31.606  43.489   3.785
37249W        W 1006  23.681  34.407  14.386
37250W        W 1007   1.863   7.877   2.755
37251W        W 1008  38.065   3.789  13.933
37252W        W 1009  27.522  26.534  13.398
37253W        W 1010   5.430   4.832  12.958
37254W        W 1011   6.822  38.934  14.802
37255W        W 1012  15.262  29.065   3.214
37256W        W 1013  20.648  22.741  13.809
37257W        W 1014  29.514  34.376   2.335
37258W        W 1015  41.860  23.612  14.919
37259W        W 1016  25.561  25.219  12.564
37260W        W 1017  44.939  21.725   2.227
37261W        W 1018   9.331   2.378  10.634
37262W        W 1019  30.910  13.700   2.326
37263W        W 1020  25.575  31.636  14.958
37264W        W 1021  25.680  18.675  10.572
37265W        W 1022  35.048  27.188  10.478
37266W        W 1023   4.308  10.161   1.242
37267W        W 1024   1.912  34.946  11.073
37268W        W 1025  21.522  18.071   0.395
37269W        W 1026  35.600  14.792   3.778
37270W        W 1027  35.101  40.306   2.820
37271W        W 1028  10.150  12.723  10.462
37272W        W 1029  19.138  25.593   2.184
37273W        W 1030  15.084   7.302   0.379
37274W        W 1031  37.360  10.377   1.233
37275W        W 1032  18.757  15.645  12.990
37276W        W 1033  19.545  42.516  10.534
37277W        W 1034   5.221  25.554  12.535
37278W        W 1035  34.914  42.979   4.125
37279W        W 1036  13.764  25.048  13.816
37280W        W 1037  12.299   7.847  13.404
37281W        W 1038  42.948   7.903   2.370
37282W        W 1039  33.520   7.274   1.839
37283W        W 1040  38.355  33.534  14.821
37284W        W 1041   1.870  32.568   1.704
37285W        W 1042  36.082  13.629  11.073
37286W        W 1043   9.759  39.013   2.369
37287W        W 1044  16.214  22.619   2.700
37288W        W 1045  30.090   7.698   4.142
37289W        W 1046   4.860  21.036  13.356
37290W        W 1047  22.222   7.838   4.687
37291W        W 1048  26.112  24.204   2.213
37292W        W 1049   9.808  12.791  12.088
37293W        W 1050   3.352   9.289   3.689
37294W        W 1051   7.355  32.578   2.197
37295W        W 1052   0.357  34.965   2.184
37296W        W 1053  18.160   9.189   0.831
37297W        W 1054  28.450   6.686  12.900
37298W        W 1055  14.135  23.145   0.377
37299W        W 1056   8.330   7.313  12.094
37300W        W 1057  21.207  19.572   1.435
37301W        W 1058  17.156   9.773   3.297
37302W        W 1059  44.943  10.780  12.960
37303W        W 1060  39.437  15.163  10.898
37304W        W 1061  26.568  11.190  11.091
37305W        W 1062   7.690  24.691   3.167
37306W        W 1063  43.283  30.542  10.622
37307W        W 1064   3.745  14.300   2.880
37308W        W 1065  24.654   1.973   1.822
37309W        W 1066  35.070  18.550   0.920
37310W        W 1067  33.896  17.069  11.422
37311W        W 1068  16.590  29.547  13.895
37312W        W 1069  28.606  17.067   1.711
37313W        W 1070  44.810  44.404   4.700
37314W        W 1071  41.305  13.116   3.236
37315W        W 1072  23.666  28.591  13.367
37316W        W 1073  26.023   4.431  14.486
37317W        W 1074  31.519  12.117   0.811
37318W        W 1075  27.511  33.401  14.452
37319W        W 1076   9.771  23.535   0.455
37320W        W 1077  21.620  14.226   3.225
37321W        W 1078  25.203  11.754  13.540
37322W        W 1079   6.325  44.808  11.527
37323W        W 1080  31.510   5.271  11.382
37324W        W 1081  30.513  36.865   3.775
37325W        W 1082  12.653  14.254   4.137
37326W        W 1083  10.196   9.744  12.395
37327W        W 1084  16.277   0.937  14.299
37328W        W 1085  42.316  33.888   1.790
37329W        W 1086  21.656  22.567  14.773
37330W        W 1087   8.195  41.994  13.924
37331W        W 1088  32.436  35.967   5.259
37332W        W 1089  33.906  10.836  13.929
37333W        W 1090  36.066   6.706  13.920
37334W        W 1091  27.599   2.456   3.367
37335W        W 1092   4.926  26.586   0.827
37336W        W 1093  11.852  19.156   2.341
37337W        W 1094   3.722  16.295  12.565
37338W        W 1095  17.587  38.879   2.712
37339W        W 1096  10.191   7.221   0.733
37340W        W 1097  17.186  17.281  10.905
37341W        W 1098   1.253  28.646   3.754
37342W        W 1099  44.980  11.797   1.243
37343W        W 1100  33.404  33.405  11.057
37344W        W 1101  36.412  24.148  13.372
37345W        W 1102  20.200   8.396   0.929
37346W        W 1103  32.085  31.462  11.567
37347W        W 1104  13.328  11.259   1.388
37348W        W 1105  11.173  23.587   1.381
37349W        W 1106  42.027  19.708  14.278
37350W        W 1107  44.812   6.415   2.180
37351W        W 1108   6.752  17.169  11.867
37352W        W 1109  32.956  41.403  11.450
37353W        W 1110   8.877  36.880  13.462
37354W        W 1111  33.413  44.949  13.315
37355W        W 1112   7.415  25.712  10.959
37356W        W 1113   4.941  24.599   0.837
37357W        W 1114  31.088  39.998  13.444
37358W        W 1115  35.875  28.627   5.313
37359W        W 1116  31.058  36.019   3.301
37360W        W 1117  18.097  13.248   4.230
37361W        W 1118  44.357  16.088   2.268
37362W        W 1119  37.385  16.159  11.937
37363W        W 1120  10.321  44.466  13.976
37364W        W 1121  19.746  26.619   1.275
37365W        W 1122  35.049  34.016  11.918
37366W        W 1123  32.427   8.337   4.795
37367W        W 1124  24.636  38.455   0.326
37368W        W 1125   4.207  19.565   4.633
37369W        W 1126   6.288   9.235   4.729
37370W        W 1127  20.187  40.958  11.488
37371W        W 1128  33.570  38.901   0.821
37372W        W 1129  35.895  30.452  14.776
37373W        W 1130  39.541   7.813   4.832
37374W        W 1131  16.133  38.931   0.368
37375W        W 1132   0.294  31.966  12.468
37376W        W 1133  28.108  40.549   3.844
37377W        W 1134  26.516  16.106  14.985
37378W        W 1135  31.989   1.945  14.445
37379W        W 1136  40.429  22.556   0.388
37380W        W 1137  37.901  29.573  11.969
37381W        W 1138  27.968  31.412   2.289
37382W        W 1139  31.464  39.873   1.894
37383W        W 1140  38.039  28.516  12.565
37384W        W 1141  14.336  25.502  11.023
37385W        W 1142  44.451   9.293   2.297
37386W        W 1143  11.727  28.656   2.794
37387W        W 1144  28.058  25.040  12.886
37388W        W 1145   9.245  21.027  10.571
37389W        W 1146  43.469  42.889  12.892
37390W        W 1147  42.936  32.531  13.050
37391W        W 1148  10.283  29.016   0.412
37392W        W 1149  27.143  35.471  12.506
37393W        W 1150  40.541   0.834  10.626
37394W        W 1151  28.544   8.864  14.786
37395W        W 1152  10.670   9.805   3.851
37396W        W 1153  20.176  13.840   9.557
37397W        W 1154  30.593  33.994   4.329
37398W        W 1155  33.930   8.737  12.501
37399W        W 1156  11.803  17.581   1.778
37400W        W 1157   5.812  19.113  13.790
37401W        W 1158  11.727  18.597   3.762
37402W        W 1159  39.834  15.693   2.741
37403W        W 1160   3.233   3.874   2.409
37404W        W 1161  40.450  33.954   1.222
37405W        W 1162  25.144   6.223   2.890
37406W        W 1163  35.966  28.019  13.013
37407W        W 1164  25.142  38.932  14.345
37408W        W 1165  11.722   1.758  14.761
37409W        W 1166  19.679  13.115   3.245
37410W        W 1167  35.938  26.616   3.723
37411W        W 1168  36.861   5.701  10.971
37412W        W 1169  17.076  43.995  14.302
37413W        W 1170  38.845  40.978   3.739
37414W        W 1171   5.196   1.253   0.900
37415W        W 1172  14.724  33.915  13.851
37416W        W 1173   6.770   8.877  14.956
37417W        W 1174  22.744  43.331   3.789
37418W        W 1175  43.503   9.744  13.961
37419W        W 1176  26.037   9.211   2.301
37420W        W 1177   1.317  33.003  14.860
37421W        W 1178  31.498   3.241   2.883
37422W        W 1179  22.588  30.049  12.840
37423W        W 1180  41.800   0.749  11.952
37424W        W 1181  38.404  42.299   1.430
37425W        W 1182  12.703  38.935   1.739
37426W        W 1183   6.866  39.992  10.489
37427W        W 1184  31.643  21.127   3.246
37428W        W 1185  20.542  28.130  13.533
37429W        W 1186  41.980  24.636   0.250
37430W        W 1187  28.470  44.944   4.220
37431W        W 1188  38.860  24.535  13.521
37432W        W 1189  32.907   3.311  12.826
37433W        W 1190  10.325  28.015   3.317
37434W        W 1191  35.086  33.417   3.355
37435W        W 1192  26.036   5.823   2.773
37436W        W 1193  20.042  38.880  12.088
37437W        W 1194  11.781  20.104  10.976
37438W        W 1195   4.397   4.702   4.774
37439W        W 1196  15.697   4.371  13.316
37440W        W 1197   7.863  32.960   4.646
37441W        W 1198  27.646  42.025  11.415
37442W        W 1199  11.323   3.416  12.952
37443W        W 1200   6.679  30.599  10.429
37444W        W 1201  16.235  22.065   1.751
37445W        W 1202  26.552   9.834   3.154
37446W        W 1203  26.622  22.524  13.034
37447W        W 1204  32.461   8.362   3.349
37448W        W 1205  42.779  34.462   4.653
37449W        W 1206  43.846   5.834  11.547
37450W        W 1207   6.284   7.863  12.455
37451W        W 1208  34.874  32.603  14.282
37452W        W 1209  38.986  32.585   3.851
37453W        W 1210  31.062  16.276  13.034
37454W        W 1211  34.043   3.341   0.335
37455W        W 1212  14.641  35.001   4.769
37456W        W 1213  44.290  33.114  10.153
37457W        W 1214  32.483  39.317  12.444
37458W        W 1215  10.334  15.738   4.656
37459W        W 1216   5.742   8.836   0.770
37460W        W 1217   8.229  25.018   0.426
37461W        W 1218  32.888   7.303   4.131
37462W        W 1219   9.155  35.977   2.902
37463W        W 1220  21.119  34.431   0.891
37464W        W 1221  25.493  27.192  11.982
37465W        W 1222  42.409  13.778   3.776
37466W        W 1223   8.164  17.740  13.424
37467W        W 1224   3.786  17.208  11.107
37468W        W 1225  38.852  11.652  13.329
37469W        W 1226   8.785  17.292  13.366
37470W        W 1227  31.413  29.515   0.763
37471W        W 1228  37.459   2.779  14.369
37472W        W 1229  20.174  38.025  14.815
37473W        W 1230  40.358  22.595  13.343
37474W        W 1231  37.955  36.852   0.283
37475W        W 1232  34.598  13.341  14.931
37476W        W 1233  35.599   8.404   3.867
37477W        W 1234  39.993  22.006  11.927
37478W        W 1235  18.615   8.874   5.243
37479W        W 1236  29.096  14.761   2.902
37480W        W 1237   2.254  31.145  10.620
37481W        W 1238  29.529  18.596  12.885
37482W        W 1239  44.782   7.297   1.307
37483W        W 1240  38.031  17.627  10.914
37484W        W 1241  41.999  12.154  10.589
37485W        W 1242  36.558   4.706   1.763
37486W        W 1243   1.762  34.484  10.625
37487W        W 1244   7.304  18.656  14.833
37488W        W 1245  22.139  17.788  12.423
37489W        W 1246  29.487   6.863  11.891
37490W        W 1247  42.522  25.542  11.119
37491W        W 1248  27.093  44.379   1.845
37492W        W 1249  12.150   9.803  14.512
37493W        W 1250   0.746  34.417  10.903
37494W        W 1251   3.257  24.563   2.326
37495W        W 1252  31.953  36.431  10.461
37496W        W 1253  35.875  25.199   0.947
37497W        W 1254  11.188  31.019   4.293
37498W        W 1255  44.350  14.623   5.253
37499W        W 1256   4.937   7.765  13.509
37500W        W 1257  13.696   9.235  11.489
37501W        W 1258  13.342  14.286  10.618
37502W        W 1259  33.589  10.381  13.429
37503W        W 1260   6.312  13.625   4.230
37504W        W 1261   4.428  28.619   1.300
37505W        W 1262  27.034   8.654   0.454
37506W        W 1263  30.533   2.333  12.025
37507W        W 1264   3.907   1.293  13.348
37508W        W 1265  43.293   7.791  12.463
37509W        W 1266  34.533  18.227   1.235
37510W        W 1267  43.788   4.843   1.331
37511W        W 1268  28.117  22.155  10.934
37512W        W 1269  27.105  12.856  14.977
37513W        W 1270  44.423   4.234   1.745
37514W        W 1271   5.845  17.667   1.346
37515W        W 1272   0.932   7.284   3.866
37516W        W 1273   9.853  29.154  14.409
37517W        W 1274  23.080  35.426  12.349
37518W        W 1275  40.844  37.915  12.829
37519W        W 1276  22.034  43.277   4.350
37520W        W 1277  25.674  11.298  13.956
37521W        W 1278  31.900   0.312   0.372
37522W        W 1279  40.479  41.020   1.396
37523W        W 1280  11.223  26.672  13.006
37524W        W 1281  34.031  11.342   1.324
37525W        W 1282  11.297   1.955   0.954
37526W        W 1283  26.661  43.000   4.137
37527W        W 1284  38.020  29.624  14.935
37528W        W 1285  43.931  44.848  10.899
37529W        W 1286  42.880  15.700   0.824
37530W        W 1287  36.575  25.588  11.986
37531W        W 1288  41.525  34.519  14.341
37532W        W 1289  43.831  29.495  12.859
37533W        W 1290  17.098   1.770   3.658
37534W        W 1291  18.654  23.604   2.702
37535W        W 1292  21.204  28.636   4.809
37536W        W 1293   1.418  11.647  12.999
37537W        W 1294  33.532  34.973   2.716
37538W        W 1295  32.621  42.339  11.108
37539W        W 1296  10.209  13.786  14.980
37540W        W 1297   4.724  35.526   9.949
37541W        W 1298  24.705   7.183   2.823
37542W        W 1299   3.752  44.362   3.309
37543W        W 1300  44.935   0.479  12.066
37544W        W 1301  19.117  19.569   4.234
37545W        W 1302  34.104  16.588   2.248
37546W        W 1303  12.260  25.627  10.996
37547W        W 1304  13.247  27.963  13.034
37548W        W 1305  30.080  28.657   3.350
37549W        W 1306  25.628  24.681   0.794
37550W        W 1307  39.019  35.585   3.650
37551W        W 1308   6.305   9.806  10.507
37552W        W 1309   9.758  14.323   4.210
37553W        W 1310  16.590  19.089  14.458
37554W        W 1311  25.036  12.125   4.123
37555W        W 1312  16.712  15.122  12.417
37556W        W 1313  38.361   6.807  12.835
37557W        W 1314   1.255   2.373  10.461
37558W        W 1315  41.956  43.787   2.348
37559W        W 1316  20.237  30.491   0.384
37560W        W 1317  43.767  27.570  14.759
37561W        W 1318  20.168  26.499   2.341
37562W        W 1319  40.040   2.860  13.821
37563W        W 1320   6.257  42.474   4.270
37564W        W 1321  32.490  21.241   2.807
37565W        W 1322  19.210  43.904   3.781
37566W        W 1323  27.500  28.678   0.379
37567W        W 1324  33.504  32.621   2.240
37568W        W 1325   1.420  27.176   0.320
37569W        W 1326  44.448   3.762   4.257
37570W        W 1327  34.458   2.824   2.269
37571W        W 1328  26.136  38.035   1.376
37572W        W 1329  39.862   1.970   4.219
37573W        W 1330  21.202  28.442  11.469
37574W        W 1331  38.527   8.371   1.877
37575W        W 1332   5.236  36.492  13.903
37576W        W 1333   3.457  22.514  14.875
37577W        W 1334  32.462   6.422  10.904
37578W        W 1335  35.947  34.576   0.351
37579W        W 1336  44.457  37.874   1.268
37580W        W 1337  41.391   2.293   3.220
37581W        W 1338  42.808  22.113  13.330
37582W        W 1339   2.340  17.294   2.754
37583W        W 1340  38.065   0.769  14.886
37584W        W 1341  38.925  11.249   4.133
37585W        W 1342  13.306   8.746  10.568
37586W        W 1343  21.715  43.950  10.634
37587W        W 1344   4.431  20.611   3.217
37588W        W 1345   5.256  28.081  10.996
37589W        W 1346   5.294  35.918   4.290
37590W        W 1347  12.155  38.449   1.869
37591W        W 1348  32.473  26.021   3.792
37592W        W 1349   1.876  38.068  11.100
37593W        W 1350  12.791  34.503   4.218
37594W        W 1351  21.086  35.926  11.905
37595W        W 1352  27.543   9.281   1.369
37596W        W 1353  28.963  32.934   3.272
37597W        W 1354  13.651  33.597   0.356
37598W        W 1355  38.388  11.831  12.925
37599W        W 1356  14.314  29.922  13.034
37600W        W 1357  44.840  44.989  14.921
37601W        W 1358   4.314  13.244  11.963
37602W        W 1359  43.439  22.185   4.288
37603W        W 1360  25.530  38.438   4.661
37604W        W 1361  26.160  16.640  13.373
37605W        W 1362  36.412  28.939  11.996
37606W        W 1363  18.553  34.041   2.696
37607W        W 1364  11.344   1.944   2.740
37608W        W 1365  25.178  10.350   0.827
37609W        W 1366  27.096  27.466  12.436
37610W        W 1367  11.245  35.044  13.484
37611W        W 1368  13.257  27.144  12.383
37612W        W 1369  10.205  34.445  12.474
37613W        W 1370  32.393  35.602   0.762
37614W        W 1371  36.953  16.174  14.371
37615W        W 1372  14.228  20.162  13.401
37616W        W 1373  23.999  22.630  11.067
37617W        W 1374  25.658   1.733  12.983
37618W        W 1375   7.768  31.565   2.257
37619W        W 1376  21.614   6.359   2.280
37620W        W 1377  16.228  36.508  11.097
37621W        W 1378  21.180   8.258  13.545
37622W        W 1379  31.056  17.658   4.129
37623W        W 1380  34.091  20.094  10.404
37624W        W 1381  27.110  38.350  11.563
37625W        W 1382  26.150  17.606   2.409
37626W        W 1383   0.336  39.464  11.872
37627W        W 1384  44.787  12.158  11.508
37628W        W 1385  31.019  23.060   4.169
37629W        W 1386  19.773  28.497   0.838
37630W        W 1387   4.321  42.327  12.929
37631W        W 1388  18.133  32.992   2.744
37632W        W 1389  30.524  19.652   1.409
37633W        W 1390  42.507  16.151   2.257
37634W        W 1391  17.678  20.149  11.478
37635W        W 1392  27.582  41.478  13.024
37636W        W 1393  33.449   6.192   5.255
37637W        W 1394   9.818  25.195  14.905
37638W        W 1395  10.678  41.916  10.931
37639W        W 1396  17.129  27.577  10.583
37640W        W 1397  23.614  35.399   5.677
37641W        W 1398  44.813   9.816  10.615
37642W        W 1399  12.762  31.067   3.321
37643W        W 1400  30.084   5.789   1.228
37644W        W 1401  36.852  16.105   1.219
37645W        W 1402  10.300  23.101  14.904
37646W        W 1403  19.659   5.924  13.834
37647W        W 1404  38.901   7.376  14.015
37648W        W 1405  28.110   3.457  12.883
37649W        W 1406   1.754   4.898  13.389
37650W        W 1407  11.810  25.577  14.307
37651W        W 1408   8.241  19.631  12.966
37652W        W 1409   1.328  11.790   3.706
37653W        W 1410  33.477  42.967  12.395
37654W        W 1411  15.584  33.409  12.505
37655W        W 1412  33.584   7.777   1.734
37656W        W 1413  34.892  37.407  11.950
37657W        W 1414  33.603   0.414   4.286
37658W        W 1415  18.130  34.041  14.443
37659W        W 1416  15.232  37.876  14.447
37660W        W 1417  37.019  15.096  12.382
37661W        W 1418  15.786  12.259   5.118
37662W        W 1419  24.007  18.213  14.875
37663W        W 1420  14.299  44.343   2.196
37664W        W 1421   4.383  27.528   3.662
37665W        W 1422  44.887   9.689   0.306
37666W        W 1423  42.787  30.648  11.557
37667W        W 1424  34.005  24.048  12.085
37668W        W 1425  20.140  27.536   2.280
37669W        W 1426  21.598   1.291   0.748
37670W        W 1427  27.992  41.297   2.727
37671W        W 1428  25.001  10.293   1.272
37672W        W 1429   9.301  32.405  11.886
37673W        W 1430  18.769  36.044   5.117
37674W        W 1431  27.186  32.512  11.086
37675W        W 1432  37.978  29.961  12.966
37676W        W 1433  12.295  36.035   1.222
37677W        W 1434  42.856  37.032  13.044
37678W        W 1435  13.330  24.205   2.384
37679W        W 1436  16.613  27.165  14.027
37680W        W 1437   6.772  25.687   1.830
37681W        W 1438  32.618  13.630   3.871
37682W        W 1439  17.215  14.336  12.451
37683W        W 1440  42.443  23.004   4.271
37684W        W 1441   2.293  10.794  12.456
37685W        W 1442  12.803  14.651   1.430
37686W        W 1443  26.998  42.994  10.903
37687W        W 1444  44.895  44.930  13.326
37688W        W 1445  43.435  21.562   0.262
37689W        W 1446  43.310  40.915   1.340
37690W        W 1447  19.602  22.210  10.999
37691W        W 1448  42.780   1.361   4.238
37692W        W 1449   6.406   5.930  11.898
37693W        W 1450  21.149  15.307   2.845
37694W        W 1451   0.989   0.412  13.423
37695W        W 1452  20.734  19.058   2.683
37696W        W 1453   9.704  35.579   4.795
37697W        W 1454   6.692  39.332   0.280
37698W        W 1455  20.202  15.325   1.827
37699W        W 1456  38.880  32.994   1.396
37700W        W 1457   0.889   7.248   4.138
37701W        W 1458  29.469  25.558  12.512
37702W        W 1459  39.809   6.824   0.450
37703W        W 1460  27.591  25.044   3.717
37704W        W 1461  38.462  32.036   4.352
37705W        W 1462   1.786   2.812  12.912
37706W        W 1463  14.143  33.566  13.450
37707W        W 1464   7.289  21.525  10.518
37708W        W 1465   7.830  21.090  13.335
37709W        W 1466  16.263  13.318   5.132
37710W        W 1467  25.522  27.660  12.408
37711W        W 1468  18.791  14.619  14.796
37712W        W 1469  14.777  10.854   3.275
37713W        W 1470  19.138  38.876  12.399
37714W        W 1471  15.667  37.368   1.450
37715W        W 1472   9.208   6.801  12.440
37716W        W 1473  40.838   4.373  13.341
37717W        W 1474  38.928  21.655  12.021
37718W        W 1475  43.903   4.732  13.961
37719W        W 1476   3.386   1.404  10.998
37720W        W 1477  23.532   0.485  13.514
37721W        W 1478  18.707   4.896   5.277
37722W        W 1479   2.925   3.435   0.764
37723W        W 1480   4.702  33.516   1.933
37724W        W 1481  39.860  12.697  11.057
37725W        W 1482   5.785   5.810  13.056
37726W        W 1483  20.648  13.132   2.384
37727W        W 1484  14.138  35.488  12.430
37728W        W 1485  37.540  30.500  12.959
37729W        W 1486  15.118  23.657   2.408
37730W        W 1487  32.948  44.786  13.997
37731W        W 1488  42.933  43.473   1.396
37732W        W 1489  35.080   4.304   3.209
37733W        W 1490   3.397   1.751   1.403
37734W        W 1491  32.421  14.115  12.460
37735W        W 1492  28.592  31.485  10.978
37736W        W 1493  30.459  30.611   4.284
37737W        W 1494  42.492  38.378  14.401
37738W        W 1495  20.150  18.247  11.097
37739W        W 1496  25.985  10.250  13.401
37740W        W 1497  25.526  12.738  13.886
37741W        W 1498  34.528  17.586  13.996
37742W        W 1499  42.874   3.926   3.317
37743W        W 1500  27.108  20.722   3.348
37744W        W 1501  10.254   3.721  11.552
37745W        W 1502  29.551  31.025  11.583
37746W        W 1503   6.715  24.206   0.427
37747W        W 1504   4.327  43.433  12.071
37748W        W 1505  36.512   7.259   1.866
37749W        W 1506  22.591  40.391   3.241
37750W        W 1507   7.673  13.820  14.808
37751W        W 1508   8.373  35.561  12.388
37752W        W 1509   6.328   4.293   0.338
37753W        W 1510  27.067  26.457   0.922
37754W        W 1511  38.940  26.479   4.347
37755W        W 1512  42.325  41.854   4.291
37756W        W 1513  25.106  39.048   1.877
37757W        W 1514  39.367  14.795  13.342
37758W        W 1515   7.750  16.674   1.336
37759W        W 1516  19.619  35.513  13.976
37760W        W 1517  40.872  25.538  11.451
37761W        W 1518  10.776  14.258   3.749
37762W        W 1519  44.394  12.835  12.913
37763W        W 1520  33.514  19.696  14.384
37764W        W 1521   8.399  18.668  14.792
37765W        W 1522  43.425  34.412   1.926
37766W        W 1523  26.042  30.933  13.547
37767W        W 1524  20.705   9.747   1.812
37768W        W 1525  27.446   3.745  11.001
37769W        W 1526  23.726  40.425   4.627
37770W        W 1527  43.384  21.723   1.828
37771W        W 1528   7.887  41.924  13.431
37772W        W 1529  22.249  32.589  12.071
37773W        W 1530  10.714  34.489  13.877
37774W        W 1531  25.508  29.030   2.825
37775W        W 1532  44.952   6.357  10.513
37776W        W 1533  35.000  15.206   4.685
37777W        W 1534   6.678  17.139   0.339
37778W        W 1535  25.538  42.849   1.866
37779W        W 1536  19.161   2.914   1.912
37780W        W 1537  23.499  28.538  11.912
37781W        W 1538  15.610  29.484   5.160
37782W        W 1539  15.303   4.795  11.507
37783W        W 1540  38.389  43.923  14.789
37784W        W 1541  12.184  27.090  14.412
37785W        W 1542  16.680  39.479   1.811
37786W        W 1543  32.433  12.318   1.328
37787W        W 1544   1.296  33.589  14.850
37788W        W 1545  11.798  10.304  13.927
37789W        W 1546  31.480   0.816   4.795
37790W        W 1547  19.583  36.079   0.402
37791W        W 1548  21.720  37.080   4.656
37792W        W 1549  25.967  13.236  13.041
37793W        W 1550   4.309  38.952   3.241
37794W        W 1551  43.455  26.576   0.464
37795W        W 1552  32.119  31.990  10.919
37796W        W 1553  23.187  22.179   2.293
37797W        W 1554  29.642  12.779  14.315
37798W        W 1555  35.461  15.318  11.974
37799W        W 1556  39.838  29.068  11.947
37800W        W 1557  16.662   3.926  14.908
37801W        W 1558  37.082  28.571  11.090
37802W        W 1559  43.833  15.296   0.334
37803W        W 1560  39.870   8.794   4.214
37804W        W 1561  39.929   9.791  12.901
37805W        W 1562   2.828  30.561  14.449
37806W        W 1563  11.218  31.557  12.054
37807W        W 1564  13.236  26.618  10.424
37808W        W 1565  26.642   0.287   2.384
37809W        W 1566  30.064  21.031   0.330
37810W        W 1567  36.588  13.845   4.818
37811W        W 1568   4.291  42.855  12.965
37812W        W 1569  44.428  36.980   2.320
37813W        W 1570   6.825  35.549  10.917
37814W        W 1571  27.648  23.529   1.870
37815W        W 1572   7.390   1.868   4.166
37816W        W 1573  17.307  13.639   4.123
37817W        W 1574  19.211  41.020  14.799
37818W        W 1575  13.170   3.951  13.800
37819W        W 1576   5.884   6.360   3.805
37820W        W 1577  26.522  26.076   0.831
37821W        W 1578  34.416  38.860  12.894
37822W        W 1579  12.845  36.006  11.552
37823W        W 1580  40.364  12.332  11.897
37824W        W 1581  17.742  32.446   0.468
37825W        W 1582  25.980  33.038  11.935
37826W        W 1583  34.558  41.368  13.862
37827W        W 1584   2.877  44.479  13.810
37828W        W 1585  17.636  24.228   2.720
37829W        W 1586  25.195  37.053  12.485
37830W        W 1587   8.712   1.297   1.901
37831W        W 1588  34.585  21.026   4.169
37832W        W 1589  24.531  32.613  12.453
37833W        W 1590  16.255  13.280   1.271
37834W        W 1591  23.704  30.657  14.831
37835W        W 1592  43.432  37.054  10.594
37836W        W 1593  10.783   9.673   1.928
37837W        W 1594  12.832  29.605   4.834
37838W        W 1595  18.117   3.231  11.953
37839W        W 1596  41.359  34.026  13.348
37840W        W 1597  21.066  11.269  14.359
37841W        W 1598  27.512  25.079  13.858
37842W        W 1599  25.490  19.574  14.898
37843W        W 1600   9.248  31.914  12.577
37844W        W 1601  27.633  24.595  13.357
37845W        W 1602   5.436  30.013   0.331
37846W        W 1603  21.703   8.780   1.708
37847W        W 1604  43.318  32.451   1.425
37848W        W 1605  22.592   9.671  10.509
37849W        W 1606  18.564   7.845  11.574
37850W        W 1607   3.825  40.940   3.730
37851W        W 1608  13.321  33.525   0.922
37852W        W 1609  42.879  24.028  12.065
37853W        W 1610  25.148  14.274  12.955
37854W        W 1611   0.475   7.783   1.432
37855W        W 1612   9.802  29.064   3.675
37856W        W 1613  28.091  17.802   1.778
37857W        W 1614  16.692  16.093   4.677
37858W        W 1615  32.524  20.056   4.786
37859W        W 1616  27.647   4.820  11.496
37860W        W 1617  36.464  43.410  12.488
37861W        W 1618   7.736  18.252   9.952
37862W        W 1619   3.763  10.841   3.157
37863W        W 1620  15.601  35.466   0.895
37864W        W 1621  34.084  26.575   1.227
37865W        W 1622  20.271  35.974   2.697
37866W        W 1623  29.922   3.221  14.327
37867W        W 1624  13.746  17.609  14.952
37868W        W 1625  20.099  22.689   3.688
37869W        W 1626   1.269   6.756   1.864
37870W        W 1627  24.204  33.131  14.484
37871W        W 1628   8.252  21.626  14.952
37872W        W 1629  28.937  17.602   4.629
37873W        W 1630  40.904  12.198  14.981
37874W        W 1631  26.061  28.065   0.727
37875W        W 1632  25.131  43.798  10.415
37876W        W 1633  24.562   5.411  11.982
37877W        W 1634  30.552   2.926   1.820
37878W        W 1635   8.251  24.137   3.797
37879W        W 1636  28.470  20.262  11.882
37880W        W 1637  29.970  36.040  13.544
37881W        W 1638   4.775   5.727   3.851
37882W        W 1639  19.119  39.447  10.556
37883W        W 1640   6.352   6.878  14.501
37884W        W 1641  39.818  26.073  12.423
37885W        W 1642  27.181   8.188  14.025
37886W        W 1643  37.378  36.551   5.279
37887W        W 1644  42.305  37.538  11.560
37888W        W 1645  18.708   9.747  13.309
37889W        W 1646   5.789  17.294  12.907
37890W        W 1647  44.872  20.213   3.168
37891W        W 1648  30.566  11.671   4.353
37892W        W 1649  43.455   5.216   3.724
37893W        W 1650  29.633  17.203   3.827
37894W        W 1651  27.604   2.420   1.842
37895W        W 1652   0.391   8.814   5.166
37896W        W 1653   9.684   6.283  12.097
37897W        W 1654  20.132   7.302   0.452
37898W        W 1655  30.573   8.692   3.743
37899W        W 1656  13.689  32.478  13.883
37900W        W 1657  13.842  31.094  10.588
37901W        W 1658  15.741  32.887   1.844
37902W        W 1659   1.350  27.642   3.799
37903W        W 1660  10.225  38.925  12.005
37904W        W 1661   3.229  13.350  11.077
37905W        W 1662  44.784   1.941   3.247
37906W        W 1663  16.256  13.277   0.742
37907W        W 1664   0.407   5.871   4.614
37908W        W 1665  37.913  35.415  12.377
37909W        W 1666  18.116  14.660  10.546
37910W        W 1667  19.284  25.590   1.910
37911W        W 1668   9.312  33.040   4.342
37912W        W 1669  40.543  25.188   1.319
37913W        W 1670  41.864   7.758   1.388
37914W        W 1671  19.063  40.027   4.663
37915W        W 1672   2.235   3.868  10.422
37916W        W 1673  35.457  42.803  12.981
37917W        W 1674  16.283  24.096   4.301
37918W        W 1675  25.490  33.037  12.535
37919W        W 1676  32.490  27.529   3.842
37920W        W 1677  25.658  11.332   2.360
37921W        W 1678  28.026   2.957  13.050
37922W        W 1679  13.699  27.563  12.502
37923W        W 1680  41.464  26.670   2.769
37924W        W 1681  13.346  21.129   1.878
37925W        W 1682  26.031  10.255   2.840
37926W        W 1683  23.593  29.042  11.008
37927W        W 1684  15.225  28.995  10.560
37928W        W 1685  41.533   5.902  12.441
37929W        W 1686  34.463  44.278  12.402
37930W        W 1687  21.173  38.399  13.028
37931W        W 1688   5.775  23.128   1.388
37932W        W 1689   0.797  21.686  12.390
37933W        W 1690   4.712  30.598  10.906
37934W        W 1691   3.404  33.899   2.893
37935W        W 1692  17.736  15.748   5.733
37936W        W 1693   5.281  31.616  14.442
37937W        W 1694  13.161  29.609   4.142
37938W        W 1695  33.579   4.866   1.836
37939W        W 1696   5.712  43.327   1.725
37940W        W 1697   4.914  14.220  14.885
37941W        W 1698  16.683   7.261  14.479
37942W        W 1699  41.918  43.283  13.936
37943W        W 1700   2.315  31.064   3.376
37944W        W 1701  30.440  32.458   0.422
37945W        W 1702  40.992  16.611   3.373
37946W        W 1703  39.962  35.932  14.495
37947W        W 1704  37.013  26.634  13.326
37948W        W 1705  23.168  27.570   4.270
37949W        W 1706   8.899   1.969  12.375
37950W        W 1707  24.586  35.859   4.193
37951W        W 1708   0.276  33.877   1.392
37952W        W 1709  11.216  39.418   0.321
37953W        W 1710  17.152  18.183   2.738
37954W        W 1711  37.083  36.907   4.746
37955W        W 1712  38.541  36.454  12.467
37956W        W 1713  20.599   1.392   0.788
37957W        W 1714  43.504  18.118   0.878
37958W        W 1715   4.800  32.912   3.691
37959W        W 1716  14.834  41.394  13.021
37960W        W 1717  17.592  19.573   3.732
37961W        W 1718  24.719  31.933  14.844
37962W        W 1719  34.086   6.733  11.957
37963W        W 1720   6.230  37.525   3.244
37964W        W 1721  22.126   7.906   2.300
37965W        W 1722  43.795   7.330   0.893
37966W        W 1723  11.300   7.902   4.352
37967W        W 1724  24.186  36.986   4.643
37968W        W 1725  39.813  33.976  10.970
37969W        W 1726  12.131  18.206  13.017
37970W        W 1727  23.069  16.141  13.965
37971W        W 1728  10.146  27.598   4.312
37972W        W 1729  20.037  31.640  11.935
37973W        W 1730  37.438  37.338   1.414
37974W        W 1731  23.213  31.455  12.489
37975W        W 1732  24.052   5.269   0.958
37976W        W 1733  18.208  14.275  10.132
37977W        W 1734   0.415  37.394  14.927
37978W        W 1735   7.351  22.110  10.919
37979W        W 1736  12.267  43.407   3.769
37980W        W 1737  27.196  40.985   1.791
37981W        W 1738  14.147   4.698  12.907
37982W        W 1739  39.488  12.268   3.189
37983W        W 1740   6.717  39.980  13.365
37984W        W 1741  42.839  11.749  12.406
37985W        W 1742  28.000  35.537  11.451
37986W        W 1743  40.448  31.905  14.849
37987W        W 1744  40.800  36.453  11.473
37988W        W 1745  25.467  23.034   3.261
37989W        W 1746  35.948  42.481   3.752
37990W        W 1747  42.483  43.781  10.934
37991W        W 1748  14.820  23.051  12.421
37992W        W 1749   8.165  35.551  14.823
37993W        W 1750  21.057   1.364   0.470
37994W        W 1751  10.637  44.375   2.789
37995W        W 1752  19.185  35.060  13.816
37996W        W 1753  42.995  29.466   3.851
37997W        W 1754  42.845  20.203  14.447
37998W        W 1755  24.187  21.213  10.503
37999W        W 1756  19.764  42.382  13.040
38000W        W 1757  19.250  26.995  13.438
38001W        W 1758   5.817  10.159  10.954
38002W        W 1759  29.446   7.869  12.529
38003W        W 1760  33.952  25.007  14.030
38004W        W 1761  29.635  21.529  13.813
38005W        W 1762   7.732  35.004   1.717
38006W        W 1763  41.402  40.314   2.671
38007W        W 1764   1.467  28.993  14.291
38008W        W 1765  17.700  16.249  14.319
38009W        W 1766  33.975   0.761  11.961
38010W        W 1767   5.422  25.192   2.340
38011W        W 1768   7.338   8.399  14.814
38012W        W 1769  29.131  16.236  14.008
38013W        W 1770  36.393  44.384   3.669
38014W        W 1771  20.567   0.467   1.340
38015W        W 1772  36.997  14.751  10.887
38016W        W 1773  12.308  41.874   1.763
38017W        W 1774  42.501  24.589   0.939
38018W        W 1775  13.199  34.410   3.787
38019W        W 1776  16.120   6.293   1.324
38020W        W 1777  13.738  22.626   1.716
38021W        W 1778  44.894  28.996   4.801
38022W        W 1779  43.929  28.096  12.404
38023W        W 1780  30.909  43.787   4.243
38024W        W 1781  39.501  22.050   2.244
38025W        W 1782  41.799   2.810   1.431
38026W        W 1783  27.601  41.940   1.246
38027W        W 1784  15.316  36.467   4.345
38028W        W 1785  36.447   1.276   2.802
38029W        W 1786  24.499  23.169   3.717
38030W        W 1787  23.075  12.650   2.217
38031W        W 1788  16.258  40.419  12.532
38032W        W 1789  30.480   0.790   4.831
38033W        W 1790  20.703   0.763  11.416
38034W        W 1791  24.974  20.127   3.637
38035W        W 1792  28.561  23.200   9.450
38036W        W 1793  29.580   9.219   4.658
38037W        W 1794  31.612  30.601  11.939
38038W        W 1795  28.480  16.688   5.311
38039W        W 1796  18.595  12.755   2.353
38040W        W 1797  16.213  26.701  11.558
38041W        W 1798   6.383   4.793   2.242
38042W        W 1799  42.491   9.307   1.334
38043W        W 1800  30.426  30.012  14.941
38044W        W 1801  15.189  22.233  11.574
38045W        W 1802  42.940  39.902  11.004
38046W        W 1803   3.320  17.652   2.295
38047W        W 1804   4.434  11.281  12.348
38048W        W 1805  11.835  13.110  11.375
38049W        W 1806  34.120  18.702  11.599
38050W        W 1807  31.527  15.766  10.484
38051W        W 1808  27.073  26.162  13.415
38052W        W 1809  33.035   6.329   4.148
38053W        W 1810  44.993   3.391   1.397
38054W        W 1811   7.789  12.830   1.724
38055W        W 1812  26.557  37.504  13.373
38056W        W 1813  26.023   2.857   2.336
38057W        W 1814  30.633  17.186  10.413
38058W        W 1815  39.386  30.488   4.120
38059W        W 1816  41.883  24.167  10.891
38060W        W 1817  37.074  24.178   4.343
38061W        W 1818  24.072  18.768   3.662
38062W        W 1819  37.907   3.396   0.316
38063W        W 1820  37.955  38.539  11.865
38064W        W 1821  24.063  12.718  11.940
38065W        W 1822  21.213  33.017  14.029
38066W        W 1823  38.060  16.090  12.897
38067W        W 1824  28.051   8.203   4.696
38068W        W 1825   5.401  15.755  14.321
38069W        W 1826   4.263  31.624   1.298
38070W        W 1827  26.135  26.519   0.900
38071W        W 1828  42.292  28.564   4.322
38072W        W 1829   3.784   9.784   3.293
38073W        W 1830  24.042  34.903   1.837
38074W        W 1831  26.112  36.052   4.630
38075W        W 1832   2.232  17.610  13.524
38076W        W 1833   9.840  33.130   3.846
38077W        W 1834  18.093  20.126  11.921
38078W        W 1835  24.499   2.905  12.483
38079W        W 1836   5.775  43.838   9.555
38080W        W 1837   0.293  38.465  12.464
38081W        W 1838  24.593  24.630  14.501
38082W        W 1839  20.643  20.272   1.361
38083W        W 1840  24.219  24.513   3.758
38084W        W 1841  21.202  34.961   4.778
38085W        W 1842   5.205   2.765  12.347
38086W        W 1843  35.554  16.267   3.669
38087W        W 1844  15.126  34.026  12.006
38088W        W 1845   1.400  42.946   0.350
38089W        W 1846  12.121  19.774   1.399
38090W        W 1847  29.553   5.790   0.888
38091W        W 1848  30.441  14.125  11.924
38092W        W 1849  36.940  28.059  14.944
38093W        W 1850  40.038  10.725   2.350
38094W        W 1851   8.893  30.643  11.982
38095W        W 1852  30.555   4.733  13.359
38096W        W 1853  27.524  25.632  12.431
38097W        W 1854  19.659   7.715   2.702
38098W        W 1855  25.097   3.898   4.244
38099W        W 1856  17.130  19.278   0.343
38100W        W 1857  44.358   7.366  13.505
38101W        W 1858  20.758  22.246   1.788
38102W        W 1859   2.863  18.747   1.864
38103W        W 1860   3.893  39.558   3.281
38104W        W 1861  43.794  21.162   9.984
38105W        W 1862   6.414  31.146  13.837
38106W        W 1863   9.743  44.893   2.400
38107W        W 1864   6.225   5.285  14.504
38108W        W 1865  14.640   8.365  11.537
38109W        W 1866  41.862  12.848  13.520
38110W        W 1867  14.601  23.656   3.324
38111W        W 1868   7.694   8.803   2.711
38112W        W 1869  34.890  18.696   1.794
38113W        W 1870  10.329  25.498  12.359
38114W        W 1871  44.818   3.804  13.407
38115W        W 1872  13.764  41.865  13.489
38116W        W 1873  29.031  36.409   4.258
38117W        W 1874  18.633   1.931  11.462
38118W        W 1875  30.154  26.643   3.868
38119W        W 1876  13.607  31.627  10.443
38120W        W 1877  10.683  39.982  12.865
38121W        W 1878   3.907  24.211   1.758
38122W        W 1879  11.769   0.884   3.661
38123W        W 1880   6.701  32.419  10.932
38124W        W 1881  12.807  22.104  14.983
38125W        W 1882   4.381  11.139   1.863
38126W        W 1883  33.483   6.704  13.487
38127W        W 1884  30.146  36.040  11.047
38128W        W 1885  32.098  33.487   2.846
38129W        W 1886   8.375  32.917   0.367
38130W        W 1887  38.028  43.910   2.271
38131W        W 1888  33.535  30.970   4.315
38132W        W 1889   5.817   8.806   1.884
38133W        W 1890   0.384  12.707  14.502
38134W        W 1891  31.999   1.479   1.731
38135W        W 1892  33.463  35.029  14.443
38136W        W 1893  27.585  38.451  11.588
38137W        W 1894  14.215   2.722   5.234
38138W        W 1895  44.308   0.904  13.515
38139W        W 1896  22.571  19.276   4.676
38140W        W 1897  44.295  13.147   0.871
38141W        W 1898  42.349  40.859   1.787
38142W        W 1899  40.484   3.790  12.032
38143W        W 1900  31.061  29.936  13.527
38144W        W 1901  15.820  17.186   3.333
38145W        W 1902  29.058  19.735   2.682
38146W        W 1903  36.942   1.964   4.299
38147W        W 1904  35.386  36.847   1.377
38148W        W 1905  10.760  24.502   2.189
38149W        W 1906  30.542  43.452   4.758
38150W        W 1907  44.317  12.789  14.447
38151W        W 1908  33.880  24.703  13.809
38152W        W 1909  34.988  38.854  13.465
38153W        W 1910   8.713  20.174  13.335
38154W        W 1911  15.685   8.746  13.395
38155W        W 1912  23.127  32.582   4.127
38156W        W 1913  10.286   8.712  10.602
38157W        W 1914  15.749   8.695   3.809
38158W        W 1915   0.900   1.957  13.436
38159W        W 1916  25.677   5.858   0.399
38160W        W 1917  14.319  37.835   1.297
38161W        W 1918   8.188  25.147  14.439
38162W        W 1919  39.897   2.291  11.984
38163W        W 1920  23.530  12.761  14.370
38164W        W 1921  31.154   4.262  14.276
38165W        W 1922  39.810  18.244  13.868
38166W        W 1923   6.847  40.051  11.439
38167W        W 1924   3.355  40.831   3.327
38168W        W 1925  37.426   3.842  12.905
38169W        W 1926  33.385  27.620   2.746
38170W        W 1927  41.847  17.651  10.947
38171W        W 1928  18.630  37.862  11.579
38172W        W 1929  15.691   5.781  10.005
38173W        W 1930  35.096  32.950   0.785
38174W        W 1931  29.642  21.561  14.848
38175W        W 1932   0.308  25.033   1.281
38176W        W 1933   2.436  18.709  11.398
38177W        W 1934  16.801  22.995  11.568
38178W        W 1935   8.667   1.925   2.236
38179W        W 1936   7.172   9.366  14.955
38180W        W 1937  31.031  28.546   5.131
38181W        W 1938  36.960   3.890  11.450
38182W        W 1939  33.096  16.811   3.657
38183W        W 1940   0.928  34.920  11.431
38184W        W 1941  10.700   4.742   0.293
38185W        W 1942  16.700  36.083  10.521
38186W        W 1943  18.694   1.758   1.219
38187W        W 1944  23.992  28.519   3.740
38188W        W 1945   6.233  39.881   0.911
38189W        W 1946  24.024   7.894   0.349
38190W        W 1947  20.637   2.894  14.849
38191W        W 1948   8.745  39.818   0.787
38192W        W 1949  34.456   8.817  11.592
38193W        W 1950  44.758  14.230   3.839
38194W        W 1951   8.329  22.050  14.315
38195W        W 1952  11.671  27.004  10.946
38196W        W 1953  15.206  34.087   2.794
38197W        W 1954  18.683  35.520  14.903
38198W        W 1955  22.544  36.085   0.321
38199W        W 1956  23.145  40.546  12.484
38200W        W 1957   7.417  29.045  10.417
38201W        W 1958  11.634  40.861   4.259
38202W        W 1959  39.443  42.988   5.181
38203W        W 1960  13.288  27.002  14.999
38204W        W 1961  25.661  11.835  10.044
38205W        W 1962  41.887  21.556   0.803
38206W        W 1963  17.117  11.274   2.344
38207W        W 1964  27.491  22.698  11.581
38208W        W 1965  43.449  44.262   2.182
38209W        W 1966  36.071  40.427   0.810
38210W        W 1967   9.296  35.869   1.832
38211W        W 1968  37.866  41.873  13.342
38212W        W 1969  29.558  35.563  11.955
38213W        W 1970  11.849  44.400   9.987
38214W        W 1971  24.078  39.444  14.314
38215W        W 1972  16.207  15.153   1.364
38216W        W 1973  32.419  36.943   4.726
38217W        W 1974   8.804   8.679  13.019
38218W        W 1975  23.500  13.826  11.453
38219W        W 1976  25.572  18.106   0.269
38220W        W 1977   2.743  17.101   1.818
38221W        W 1978  20.247  23.183   0.836
38222W        W 1979  21.737  40.010   3.156
38223W        W 1980  34.902  40.456   5.113
38224W        W 1981  30.078  33.559  14.296
38225W        W 1982   9.332  34.941  10.437
38226W        W 1983   6.236  23.673   9.998
38227W        W 1984  25.711  35.930  11.444
38228W        W 1985   7.856  22.680  12.008
38229W        W 1986   5.200  18.296   5.595
38230W        W 1987  36.568  27.131  10.931
38231W        W 1988  35.523  40.916   2.830
38232W        W 1989   7.681  42.327   0.386
38233W        W 1990  16.244   4.885  11.856
38234W        W 1991   0.317   8.233   3.146
38235W        W 1992  26.050  13.801  11.415
38236W        W 1993  38.952  12.154   0.930
38237W        W 1994  22.155  14.815  14.898
38238W        W 1995  25.009  31.468  12.067
38239W        W 1996  25.090   6.198  12.359
38240W        W 1997  32.492  25.204  12.902
38241W        W 1998  16.810  23.047  13.450
38242W        W 1999  34.389   8.254  11.572
38243W        W 2000   9.663  14.235   3.758
38244W        W 2001  42.878  28.979   1.324
38245W        W 2002   8.782  31.442  12.495
38246W        W 2003  31.985  28.551   3.291
38247W        W 2004  11.367  11.301  14.919
38248W        W 2005  10.779  11.320  13.419
38249W        W 2006  20.084  39.427  14.399
38250W        W 2007  11.317  13.693   3.324
38251W        W 2008  27.534   1.944   3.358
38252W        W 2009  17.144  29.119  12.552
38253W        W 2010  26.563  31.022   1.244
38254W        W 2011  17.144  16.720   3.776
38255W        W 2012  44.858  21.086  10.424
38256W        W 2013   8.822  40.390  14.013
38257W        W 2014  44.315  26.106  12.093
38258W        W 2015  13.206  33.383   2.397
38259W        W 2016  32.579  15.219   0.771
38260W        W 2017  19.712  35.864  11.382
38261W        W 2018  33.000  41.868   0.947
38262W        W 2019  10.673  44.304   4.661
38263W        W 2020  17.659   3.449   5.201
38264W        W 2021  16.760   5.696  14.402
38265W        W 2022   0.861  13.303   2.249
38266W        W 2023  39.502  27.052  14.864
38267W        W 2024  37.561  26.154  10.575
38268W        W 2025   2.404   4.718  10.427
38269W        W 2026  18.678   9.280   1.792
38270W        W 2027  34.485  33.597  14.385
38271W        W 2028  17.755  30.923  11.984
38272W        W 2029   8.856  11.867   2.769
38273W        W 2030   5.314  17.741   2.325
38274W        W 2031  14.728   2.832   2.787
38275W        W 2032   0.452   5.303   0.892
38276W        W 2033  41.932   2.236  14.022
38277W        W 2034   6.710  37.461  12.905
38278W        W 2035  40.471   5.912  14.782
38279W        W 2036  39.881   5.784  13.949
38280W        W 2037  43.270  25.976   1.321
38281W        W 2038  23.613  12.788  13.999
38282W        W 2039   2.793  26.624  11.530
38283W        W 2040   3.343  27.091   1.349
38284W        W 2041  30.617  25.675   5.167
38285W        W 2042   7.317  19.639   4.255
38286W        W 2043  41.941  44.902   3.859
38287W        W 2044  21.045  31.146  10.958
38288W        W 2045  10.191  20.215   1.344
38289W        W 2046  33.973   7.315  13.011
38290W        W 2047  27.188  18.166  14.391
38291W        W 2048  33.541  12.841  12.449
38292W        W 2049   9.790   6.421  14.446
38293W        W 2050  20.035   6.815  13.360
38294W        W 2051  19.555  22.015   1.848
38295W        W 2052   6.207   5.232  11.993
38296W        W 2053  38.006  18.593  12.489
38297W        W 2054  29.484  37.085  13.406
38298W        W 2055   3.861  41.528   5.128
38299W        W 2056   2.402  40.933  11.568
38300W        W 2057   2.395  32.957  11.859
38301W        W 2058   8.312  17.758  10.408
38302W        W 2059  29.637  41.820  11.563
38303W        W 2060  27.044  32.578  12.577
38304W        W 2061  23.184  42.291   0.753
38305W        W 2062   2.291  17.281   0.770
38306W        W 2063  42.018  15.261  13.895
38307W        W 2064  44.919  14.318  14.018
38308W        W 2065  25.966  35.066   2.798
38309W        W 2066  33.623   4.748  11.879
38310W        W 2067  37.512  44.274   0.787
38311W        W 2068  38.399  21.236   4.228
38312W        W 2069  19.173  19.213  11.069
38313W        W 2070  34.382  17.100   1.699
38314W        W 2071  19.098  18.699   2.411
38315W        W 2072  23.146  12.634  14.827
38316W        W 2073  34.475  26.602  14.328
38317W        W 2074  19.200   5.790  11.578
38318W        W 2075  11.231   0.438   9.925
38319W        W 2076   8.673  22.030  14.862
38320W        W 2077   8.360  39.414   0.347
38321W        W 2078  41.032  34.465   1.825
38322W        W 2079  34.026  30.637   5.199
38323W        W 2080  11.249   7.899  12.971
38324W        W 2081  42.985  44.333   3.753
38325W        W 2082  33.531  24.020   0.897
38326W        W 2083  44.358  12.751  11.964
38327W        W 2084  28.575  15.609   1.856
38328W        W 2085   7.247  29.540   0.814
38329W        W 2086  30.963  41.516  13.489
38330W        W 2087  28.505  41.973  14.392
38331W        W 2088  33.601  12.334  10.566
38332W        W 2089  35.868  23.625   4.182
38333W        W 2090  24.137   8.392  11.105
38334W        W 2091  11.829   4.896  13.401
38335W        W 2092  18.126   1.288  14.982
38336W        W 2093   6.722  43.870  12.470
38337W        W 2094  31.983  33.485   3.736
38338W        W 2095  12.725  27.482  12.011
38339W        W 2096  44.915  15.641  13.386
38340W        W 2097  41.377  19.182  11.585
38341W        W 2098  21.600  23.056   2.294
38342W        W 2099  33.623  36.858   4.165
38343W        W 2100  23.069  29.426  10.416
38344W        W 2101   9.842  11.364   3.299
38345W        W 2102   8.168  37.085  13.803
38346W        W 2103  23.142  16.192  11.079
38347W        W 2104  31.403  37.978   4.815
38348W        W 2105  18.288  24.983   0.967
38349W        W 2106  10.648  10.261  12.556
38350W        W 2107  33.945  17.202   2.805
38351W        W 2108  10.668  20.616   0.779
38352W        W 2109  42.889  12.250  12.043
38353W        W 2110  19.186  12.628   4.636
38354W        W 2111  22.688   1.265  14.881
38355W        W 2112  34.062  42.930  11.955
38356W        W 2113  41.366  38.014  12.956
38357W        W 2114   3.266  18.254  13.932
38358W        W 2115  32.453  34.371  10.456
38359W        W 2116  15.128  39.975   2.416
38360W        W 2117  31.465  27.561   1.304
38361W        W 2118  13.318  40.348  11.944
38362W        W 2119  29.581   3.320   3.195
38363W        W 2120  12.610  23.987   4.655
38364W        W 2121  34.954   1.877   4.754
38365W        W 2122  22.194   9.292  13.447
38366W        W 2123  44.311  25.187   1.321
38367W        W 2124  15.139  27.590  11.919
38368W        W 2125  41.904  22.697   3.257
38369W        W 2126   5.322  42.820   0.398
38370W        W 2127   1.348  17.699  13.469
38371W        W 2128  18.677  27.009   4.155
38372W        W 2129  20.705  31.119   0.836
38373W        W 2130  31.502  29.529   2.252
38374W        W 2131  28.625  39.986  11.537
38375W        W 2132  14.670  39.039   3.849
38376W        W 2133  39.355  33.114  10.617
38377W        W 2134  11.674  44.294  13.370
38378W        W 2135  35.462  11.821  13.408
38379W        W 2136  37.343  23.171   0.937
38380W        W 2137  26.159  23.197  13.484
38381W        W 2138  33.586   4.207  13.814
38382W        W 2139  19.272   3.377   3.738
38383W        W 2140  41.477  24.612  14.811
38384W        W 2141  28.999  15.323   4.328
38385W        W 2142  23.135   8.299   2.216
38386W        W 2143  39.451  29.492  11.467
38387W        W 2144  20.724   7.280  11.047
38388W        W 2145  16.647  25.033  10.943
38389W        W 2146  37.406   3.340   5.656
38390W        W 2147  36.555  19.629   3.678
38391W        W 2148  37.455  44.937   1.405
38392W        W 2149   7.184   8.232  12.576
38393W        W 2150  15.288  38.350   4.345
38394W        W 2151  13.710  12.274   0.259
38395W        W 2152  34.512  41.837  12.378
38396W        W 2153  20.713  15.260   4.290
38397W        W 2154  16.136  12.175   2.901
38398W        W 2155  20.065  22.248  12.006
38399W        W 2156  34.477  33.090   4.613
38400W        W 2157  41.904   0.328   1.774
38401W        W 2158  10.868  15.263   1.281
38402W        W 2159  43.818  24.605  13.900
38403W        W 2160  19.080  35.998   2.874
38404W        W 2161  28.527  31.933   1.928
38405W        W 2162  38.511  29.433   0.821
38406W        W 2163  34.490  33.072  11.514
38407W        W 2164  30.454  21.055  10.410
38408W        W 2165  42.376  21.606   4.192
38409W        W 2166  19.142  37.841   4.806
38410W        W 2167   1.803  21.698   4.125
38411W        W 2168  22.665  29.060  10.592
38412W        W 2169  17.173   3.352   0.371
38413W        W 2170  19.693   3.313   3.741
38414W        W 2171  32.405  31.995  11.408
38415W        W 2172  20.268   3.870   4.123
38416W        W 2173  28.490   2.297  13.392
38417W        W 2174  24.702  14.321  12.448
38418W        W 2175  10.693   8.831   0.855
38419W        W 2176  36.361   2.332   0.259
38420W        W 2177  15.723  32.131   2.219
38421W        W 2178  40.022  16.312  11.501
38422W        W 2179  40.318  41.914   4.158
38423W        W 2180  15.616   9.749  11.059
38424W        W 2181  33.077  29.586  12.090
38425W        W 2182  34.535  28.622  13.940
38426W        W 2183   0.886  14.789  14.986
38427W        W 2184  17.614  21.063  14.881
38428W        W 2185  13.802  23.119   3.345
38429W        W 2186  44.979   2.852  11.507
38430W        W 2187   6.809  30.585   2.255
38431W        W 2188   1.239   8.758   1.910
38432W        W 2189  44.940  33.115  14.911
38433W        W 2190   6.681  14.772   1.344
38434W        W 2191  41.308  18.125  12.461
38435W        W 2192  34.034  16.267   3.364
38436W        W 2193  29.931  33.922   2.261
38437W        W 2194  27.054  37.568   4.659
38438W        W 2195  36.090  40.828   2.738
38439W        W 2196  42.426  40.519  10.899
38440W        W 2197  30.921  40.021  10.450
38441W        W 2198  32.031  34.447  10.645
38442W        W 2199  10.801  11.656   0.260
38443W        W 2200  25.085  22.638   2.371
38444W        W 2201   2.348   1.355  12.925
38445W        W 2202  17.621  39.463  13.509
38446W        W 2203  36.047   4.895   1.355
38447W        W 2204  31.086  28.930   3.835
38448W        W 2205   0.433  22.248   3.757
38449W        W 2206  29.455  43.770   0.453
38450W        W 2207   4.257   8.860  11.958
38451W        W 2208   9.154   3.709   1.313
38452W        W 2209   3.831   7.701  13.386
38453W        W 2210  42.908  23.490   2.794
38454W        W 2211   6.282  38.509   1.251
38455W        W 2212  17.088   7.217  14.935
38456W        W 2213  43.020  22.044  13.925
38457W        W 2214  23.087  35.999  14.845
38458W        W 2215  31.982  41.014   4.836
38459W        W 2216  13.349   9.725   0.757
38460W        W 2217  11.816   2.720  12.468
38461W        W 2218  10.207  40.533  11.522
38462W        W 2219  16.677  34.105   0.475
38463W        W 2220  34.093   3.730   0.812
38464W        W 2221  42.813  16.212   1.899
38465W        W 2222  43.512  37.066   0.397
38466W        W 2223  38.939   5.841  10.458
38467W        W 2224  37.058  10.694   3.384
38468W        W 2225  34.493  26.139   3.196
38469W        W 2226  31.917  28.127  14.028
38470W        W 2227  32.398  25.586   2.823
38471W        W 2228   5.925   5.925   2.839
38472W        W 2229  11.777  16.724   3.372
38473W        W 2230   5.691   2.435  11.421
38474W        W 2231  22.551  21.611   1.361
38475W        W 2232  41.894   6.724  12.952
38476W        W 2233  41.303   2.799   0.367
38477W        W 2234  24.037  12.131   4.156
38478W        W 2235   5.815  14.829  11.924
38479W        W 2236   0.310  42.891  12.569
38480W        W 2237  21.168  35.509   2.415
38481W        W 2238   3.887  31.953  11.947
38482W        W 2239  41.536  12.285  13.043
38483W        W 2240  23.158   4.857   1.916
38484W        W 2241  23.587   8.874  13.320
38485W        W 2242  13.303  32.088  11.032
38486W        W 2243  19.723  21.021   4.800
38487W        W 2244  27.050   4.743  11.980
38488W        W 2245  40.861  19.639  14.399
38489W        W 2246  22.081   9.179   2.367
38490W        W 2247   9.804  42.988   0.319
38491W        W 2248  27.033  31.949  12.545
38492W        W 2249  10.689   6.382   0.286
38493W        W 2250  15.141  19.249  13.811
38494W        W 2251  31.066  23.557  14.027
38495W        W 2252   8.830  42.323  14.417
38496W        W 2253   8.878  27.591  13.504
38497W        W 2254  32.907  18.203  13.473
38498W        W 2255  31.148  16.166   0.845
38499W        W 2256  36.885  39.923  10.906
38500W        W 2257  14.163  40.500  14.878
38501W        W 2258   7.289  24.578  14.794
38502W        W 2259  12.236   4.896   3.328
38503W        W 2260  29.541  44.442   3.380
38504W        W 2261   7.720  17.193  12.427
38505W        W 2262  19.191   1.390   1.798
38506W        W 2263  27.979  41.787   9.996
38507W        W 2264  22.746  20.602  11.899
38508W        W 2265  44.476  42.334   4.175
38509W        W 2266   3.899  21.150  13.943
38510W        W 2267  38.432  23.186  11.414
38511W        W 2268  43.884   5.770   2.794
38512W        W 2269   3.813   7.852   4.759
38513W        W 2270  27.098  12.840   3.770
38514W        W 2271  34.510  20.113   1.309
38515W        W 2272   0.290  32.421  12.925
38516W        W 2273  14.158  26.656   1.884
38517W        W 2274  10.793  35.982   3.208
38518W        W 2275  17.638  29.101  11.012
38519W        W 2276  15.760  22.073  13.498
38520W        W 2277  43.406  17.611  10.509
38521W        W 2278  44.426  34.527  10.962
38522W        W 2279  18.085  44.841   1.397
38523W        W 2280  39.047   2.350   4.347
38524W        W 2281  28.659  36.084   4.696
38525W        W 2282  28.667  15.330   3.209
38526W        W 2283  40.482   2.834  12.864
38527W        W 2284   3.840  13.714  12.867
38528W        W 2285  43.987  16.700  12.939
38529W        W 2286  21.123   5.735  14.997
38530W        W 2287  40.826  25.094   1.797
38531W        W 2288  40.405   5.692   3.653
38532W        W 2289  34.553  22.086  11.953
38533W        W 2290  16.178   1.410   4.823
38534W        W 2291  36.536  24.009   1.876
38535W        W 2292   8.310  20.098  14.798
38536W        W 2293  22.672   9.886   2.894
38537W        W 2294  26.194  15.249   5.610
38538W        W 2295  36.881  39.048   0.745
38539W        W 2296  26.181   3.760  11.083
38540W        W 2297  17.627  14.797  12.403
38541W        W 2298  22.104  31.980   4.290
38542W        W 2299  21.206  24.998   4.757
38543W        W 2300  36.570  34.510  10.640
38544W        W 2301   1.271  44.348  10.988
38545W        W 2302   8.886   6.787   4.640
38546W        W 2303  42.963  16.232   4.797
38547W        W 2304  18.177  39.016   4.641
38548W        W 2305  22.193  14.590   2.804
38549W        W 2306  19.213  34.077  11.039
38550W        W 2307   4.329   1.935   2.775
38551W        W 2308  22.022  35.933  14.942
38552W        W 2309  32.616  40.878   4.264
38553W        W 2310  35.903  17.081   5.252
38554W        W 2311  18.702  36.518  14.344
38555W        W 2312  33.581   6.804   3.229
38556W        W 2313   6.774  22.233  12.519
38557W        W 2314  34.475  25.613   0.450
38558W        W 2315   4.747  32.966  11.997
38559W        W 2316  36.501  35.413   3.357
38560W        W 2317   5.301   9.332  14.480
38561W        W 2318  43.974  26.670   4.159
38562W        W 2319  43.366  24.595   4.290
38563W        W 2320   4.228   1.288   3.848
38564W        W 2321  15.720  24.711   1.868
38565W        W 2322  37.388  12.824   9.956
38566W        W 2323  12.702   3.896  13.825
38567W        W 2324  39.416  31.524   2.194
38568W        W 2325  29.150  37.835   3.208
38569W        W 2326  41.384   3.402   0.811
38570W        W 2327  27.139   6.225  10.121
38571W        W 2328  33.940  41.457   0.410
38572W        W 2329  43.923   5.688  12.491
38573W        W 2330  31.006  21.157  12.967
38574W        W 2331  10.298  17.712  14.793
38575W        W 2332  24.541  12.757   0.841
38576W        W 2333  10.233  27.973  10.540
38577W        W 2334  28.609   1.290   0.252
38578W        W 2335   5.785   3.370   0.349
38579W        W 2336  39.927  38.413  12.916
38580W        W 2337  14.731  44.490   4.682
38581W        W 2338  25.541  33.446   3.357
38582W        W 2339   9.760   6.722  11.911
38583W        W 2340  20.586  36.031   1.260
38584W        W 2341  17.215  34.392   4.213
38585W        W 2342   4.208  38.984  13.466
38586W        W 2343   4.895  27.692  10.910
38587W        W 2344  10.346  44.329  14.336
38588W        W 2345   7.301  23.161  11.378
38589W        W 2346  15.156  11.736   2.222
38590W        W 2347  22.560  39.542  10.913
38591W        W 2348  21.646  21.240  14.896
38592W        W 2349  39.546  10.855   1.227
38593W        W 2350  10.847  39.402   0.837
38594W        W 2351   8.280  26.465  13.456
38595W        W 2352  44.772  32.017   4.310
38596W        W 2353  41.842   9.257   3.322
38597W        W 2354  37.034  31.072  12.830
38598W        W 2355   7.893   2.897   1.850
38599W        W 2356  21.257   2.235  14.488
38600W        W 2357  18.708   7.206   3.701
38601W        W 2358  17.631  40.370  10.600
38602W        W 2359  29.919   1.959  12.003
38603W        W 2360   3.765  10.214  10.942
38604W        W 2361  16.641   8.828   4.132
38605W        W 2362  10.292  23.734  14.473
38606W        W 2363  39.485   6.401   2.214
38607W        W 2364   0.451  18.609  10.889
38608W        W 2365  28.604  35.365  12.931
38609W        W 2366  36.940   3.850  10.591
38610W        W 2367  44.983  28.074  14.941
38611W        W 2368  15.150  18.584  10.906
38612W        W 2369   0.944   2.450  10.585
38613W        W 2370  43.398  32.513  14.983
38614W        W 2371  44.952  29.150   1.806
38615W        W 2372  14.600  15.593   1.868
38616W        W 2373  37.019   6.406  14.783
38617W        W 2374   8.738  30.548  12.968
38618W        W 2375  31.916  44.840   0.267
38619W        W 2376   8.707  17.120   2.699
38620W        W 2377  39.356  15.822   5.205
38621W        W 2378  11.714  24.710   3.791
38622W        W 2379   1.271  14.667  13.959
38623W        W 2380  11.366  10.705  13.898
38624W        W 2381  42.964  30.494   3.371
38625W        W 2382  16.601  13.807   3.234
38626W        W 2383   3.293  38.350   1.256
38627W        W 2384  30.424  19.059   0.262
38628W        W 2385  17.590   8.207  12.468
38629W        W 2386  25.098  29.519   4.197
38630W        W 2387  38.387  16.248  14.375
38631W        W 2388   2.895  40.897   2.732
38632W        W 2389   8.268  13.259  13.894
38633W        W 2390  43.341  22.505  10.637
38634W        W 2391   9.184  10.714   0.280
38635W        W 2392  13.311   3.339   0.914
38636W        W 2393  22.058   5.307   4.253
38637W        W 2394  40.846  19.573   3.311
38638W        W 2395   8.703  17.139  14.875
38639W        W 2396  10.720  41.786   4.258
38640W        W 2397  25.649  27.664  14.428
38641W        W 2398  17.071  10.221  12.438
38642W        W 2399   5.372  18.630   1.861
38643W        W 2400  28.598  36.462  14.436
38644W        W 2401  13.683  29.660  14.847
38645W        W 2402  34.543   9.275  10.510
38646W        W 2403  41.876  10.185   0.428
38647W        W 2404  25.631  19.598   0.851
38648W        W 2405  33.478  39.943   2.234
38649W        W 2406  21.085  20.159   3.767
38650W        W 2407  16.282  11.236   2.392
38651W        W 2408  34.598  10.793  12.019
38652W        W 2409  38.865  38.439   5.230
38653W        W 2410  34.110   9.156   3.674
38654W        W 2411  25.054   1.418   4.319
38655W        W 2412  28.105  19.562   0.809
38656W        W 2413  18.245  23.154  12.826
38657W        W 2414  29.155  11.730   3.220
38658W        W 2415  14.106  40.334   2.184
38659W        W 2416  43.380  18.664  13.469
38660W        W 2417  30.491  16.625   2.805
38661W        W 2418  35.897  41.483  14.970
38662W        W 2419  35.045  20.067  11.585
38663W        W 2420  10.243  40.046  10.607
38664W        W 2421  15.781  12.668  13.497
38665W        W 2422  29.498  29.584  14.280
38666W        W 2423  20.074  14.168  12.512
38667W        W 2424  37.462  41.439  14.771
38668W        W 2425   4.909  37.892   0.280
38669W        W 2426  36.080  12.207  13.989
38670W        W 2427   7.390  23.094  14.477
38671W        W 2428  20.080  29.510   3.177
38672W        W 2429  25.675  25.620   1.738
38673W        W 2430  26.059   1.742   4.836
38674W        W 2431  42.939  16.632   1.751
38675W        W 2432   4.253  38.060  13.475
38676W        W 2433  18.166  40.819   1.230
38677W        W 2434  12.612  34.515   0.900
38678W        W 2435  33.548   9.165  14.017
38679W        W 2436  13.121  31.110   2.665
38680W        W 2437  38.348  18.567  14.860
38681W        W 2438  35.947   7.769  12.536
38682W        W 2439  19.141  10.676  13.917
38683W        W 2440  29.442   5.824  12.986
38684W        W 2441  40.020  14.778  10.552
38685W        W 2442   2.933  35.503   2.239
38686W        W 2443  23.026   5.348  14.489
38687W        W 2444   2.450  10.355  11.094
38688W        W 2445  21.176  19.282  14.875
38689W        W 2446   6.223   4.798   0.773
38690W        W 2447   0.433   6.692   0.915
38691W        W 2448  21.122  16.250  13.392
38692W        W 2449   1.821  12.213  13.897
38693W        W 2450  29.517  33.538   5.137
38694W        W 2451  31.914  20.735  11.945
38695W        W 2452  16.764  43.982  11.907
38696W        W 2453  29.521  18.103   9.964
38697W        W 2454  16.802  30.134   4.311
38698W        W 2455  19.159   7.369  12.434
38699W        W 2456   7.411  37.416   1.383
38700W        W 2457   5.742  12.127   0.934
38701W        W 2458  13.734   8.378   4.275
38702W        W 2459  13.146   4.386  10.633
38703W        W 2460  20.036  29.444   2.393
38704W        W 2461   1.384  24.108  13.454
38705W        W 2462   9.712  19.665  13.435
38706W        W 2463   5.866  33.924  13.363
38707W        W 2464  18.634  19.238   4.185
38708W        W 2465  14.259  40.370   0.355
38709W        W 2466  34.394  23.533   3.819
38710W        W 2467  38.048  32.492   2.228
38711W        W 2468  27.654   1.745  12.521
38712W        W 2469  39.875   7.811  13.053
38713W        W 2470   1.444  38.021  12.500
38714W        W 2471  44.909  42.820  11.033
38715W        W 2472   0.889  20.752  10.489
38716W        W 2473  16.138  26.608  13.452
38717W        W 2474  40.438  39.995   9.970
38718W        W 2475  38.569  44.265  13.855
38719W        W 2476  10.356  39.957  14.363
38720W        W 2477  15.683   7.299  12.049
38721W        W 2478  25.539  37.998  13.964
38722W        W 2479  34.869   6.254  10.494
38723W        W 2480  23.099  32.441   9.453
38724W        W 2481   6.912   0.289   0.891
38725W        W 2482  24.173  19.051  11.032
38726W        W 2483  12.834  19.208   3.633
38727W        W 2484  28.115  27.126   2.316
38728W        W 2485  24.575  31.944  13.059
38729W        W 2486  22.158  42.503   3.338
38730W        W 2487  43.288  12.714  14.407
38731W        W 2488   8.240   8.352   2.681
38732W        W 2489  12.645  15.602   3.661
38733W        W 2490  32.463   9.305   3.255
38734W        W 2491  17.144  29.037   4.768
38735W        W 2492  20.591   4.921  10.487
38736W        W 2493   0.831  18.237   2.825
38737W        W 2494  20.079   3.950   3.328
38738W        W 2495  42.842  25.149   2.840
38739W        W 2496  15.801  11.663   0.843
38740W        W 2497   4.940   3.715   9.960
38741W        W 2498   4.886  26.640  12.494
38742W        W 2499  38.510  42.912   3.652
38743W        W 2500   0.877   4.924  14.350
38744W        W 2501  29.016  10.321   4.780
38745W        W 2502  24.484  23.615  13.999
38746W        W 2503  35.089  25.984   3.643
38747W        W 2504  31.905  42.879  14.857
38748W        W 2505  38.985   4.933   4.806
38749W        W 2506  25.534  20.607   3.189
38750W        W 2507  10.677  31.985  11.867
38751W        W 2508  28.508  11.170   0.354
38752W        W 2509   0.844  27.483  13.434
38753W        W 2510  12.643  29.143  12.903
38754W        W 2511   0.948  34.950  12.981
38755W        W 2512   2.341  37.528   4.715
38756W        W 2513   3.724  13.221  11.420
38757W        W 2514   9.793   7.811  14.825
38758W        W 2515   3.416  24.518  14.810
38759W        W 2516   0.447  35.519   2.715
38760W        W 2517  33.438  15.643   4.210
38761W        W 2518  14.286  16.084  13.054
38762W        W 2519   0.248  41.819  10.442
38763W        W 2520  15.290   8.245  14.315
38764W        W 2521  25.555   5.859  12.852
38765W        W 2522  37.413  10.176   2.205
38766W        W 2523  26.055  22.149  14.476
38767W        W 2524  27.608  38.885   1.794
38768W        W 2525  39.384   1.843  11.529
38769W        W 2526  30.983  24.133   1.409
38770W        W 2527  38.839  14.660  13.826
38771W        W 2528  10.828   0.461   0.242
38772W        W 2529  25.086  11.286  13.040
38773W        W 2530   3.823  27.949   3.159
38774W        W 2531  23.497   6.290   1.255
38775W        W 2532  36.982   8.849  10.512
38776W        W 2533  33.467   0.410  14.370
38777W        W 2534  35.953  25.182  12.576
38778W        W 2535  27.599  41.024   3.809
38779W        W 2536  37.441  14.178   4.717
38780W        W 2537  41.038  33.012   2.298
38781W        W 2538   9.658   1.832   3.343
38782W        W 2539  16.785  44.390  14.451
38783W        W 2540  12.631  16.236  12.370
38784W        W 2541  37.389  18.742   4.700
38785W        W 2542  22.061  19.667   4.771
38786W        W 2543  35.361   8.320   4.643
38787W        W 2544  36.980  10.792  13.042
38788W        W 2545  17.705   2.454   2.766
38789W        W 2546  40.844  40.518  13.792
38790W        W 2547  14.637  13.758  14.858
38791W        W 2548   2.879  15.709  10.460
38792W        W 2549  29.558  31.091   2.810
38793W        W 2550  35.386  38.522  10.893
38794W        W 2551  30.615   5.195   4.141
38795W        W 2552  40.999   8.851  12.379
38796W        W 2553   4.265   8.387   2.705
38797W        W 2554  26.578  43.003   3.350
38798W        W 2555   7.395  19.056   1.771
38799W        W 2556  41.531  29.047   1.922
38800W        W 2557   5.426  17.273  13.036
38801W        W 2558  42.787  12.222   1.394
38802W        W 2559  43.899  27.674   1.806
38803W        W 2560  14.602  30.937   0.840
38804W        W 2561  39.957  38.981  11.595
38805W        W 2562  28.172  29.149   1.304
38806W        W 2563   9.691  29.484  14.447
38807W        W 2564  30.006  21.121   1.833
38808W        W 2565   7.277   3.953  14.847
38809W        W 2566   3.802  38.481   2.215
38810W        W 2567  18.069   0.489  14.817
38811W        W 2568   5.314  14.775  11.452
38812W        W 2569  44.315  20.709   3.245
38813W        W 2570  31.057   5.873   5.710
38814W        W 2571  33.064  20.192  12.414
38815W        W 2572   3.327   6.289   1.861
38816W        W 2573  14.122  42.491   5.133
38817W        W 2574  40.398   3.928  14.409
38818W        W 2575  30.621   6.720   3.735
38819W        W 2576   6.720  34.490  12.989
38820W        W 2577  14.224  39.953  10.637
38821W        W 2578  41.880   2.251  10.569
38822W        W 2579  36.426  44.438   0.387
38823W        W 2580  26.549   3.866  11.931
38824W        W 2581   2.756   8.762   4.321
38825W        W 2582   8.744  34.421   1.727
38826W        W 2583  22.708   0.942  14.454
38827W        W 2584   5.313  30.646  12.423
38828W        W 2585  42.344  19.208   2.234
38829W        W 2586  41.918   5.756  12.843
38830W        W 2587   4.783  35.400  10.506
38831W        W 2588  23.100  22.709  11.919
38832W        W 2589   3.746  15.236   4.171
38833W        W 2590  33.944  17.269  14.957
38834W        W 2591  13.214  16.236  12.411
38835W        W 2592  23.139  44.439  14.308
38836W        W 2593   1.376  27.633   2.671
38837W        W 2594  21.523  28.621  13.458
38838W        W 2595  11.205  30.932   3.277
38839W        W 2596  36.008  36.892   2.806
38840W        W 2597  34.992  16.741  12.547
38841W        W 2598   5.934   0.842   3.247
38842W        W 2599  40.478  43.946  13.801
38843W        W 2600   8.338  31.965   1.220
38844W        W 2601  34.597  37.915   3.834
38845W        W 2602   5.276  30.525   3.189
38846W        W 2603  18.576  14.337  12.094
38847W        W 2604  25.494  11.148  11.909
38848W        W 2605   0.859  32.132  10.081
38849W        W 2606  36.380  22.746  10.001
38850W        W 2607  24.558  10.641  14.954
38851W        W 2608  14.641  40.415   3.330
38852W        W 2609  19.640   1.282   0.410
38853W        W 2610  41.803  33.510  12.569
38854W        W 2611  20.523  38.834  11.499
38855W        W 2612   8.769  40.848   4.123
38856W        W 2613   2.916   6.252  10.492
38857W        W 2614  29.077   1.841  10.630
38858W        W 2615  29.062  13.696   0.943
38859W        W 2616  29.100  14.209  14.860
38860W        W 2617  11.352  38.367  12.573
38861W        W 2618  37.882  33.480  12.545
38862W        W 2619  41.519  42.889  14.862
38863W        W 2620  22.159  44.317  13.522
38864W        W 2621  25.970  27.514  14.386
38865W        W 2622  26.997  14.801  13.847
38866W        W 2623   2.929   1.377  11.397
38867W        W 2624  34.552   2.872   1.881
38868W        W 2625   0.983   8.694  10.577
38869W        W 2626  22.731   1.828   4.694
38870W        W 2627  44.800  30.474  13.902
38871W        W 2628  40.468  30.481   3.242
38872W        W 2629  14.294  15.626   0.742
38873W        W 2630  37.995  16.659  14.429
38874W        W 2631  22.543  18.112  11.526
38875W        W 2632  29.980  20.055  13.876
38876W        W 2633   2.425   8.832   3.664
38877W        W 2634  39.899   1.457   3.769
38878W        W 2635   7.244   7.775  14.813
38879W        W 2636  28.543  11.834   2.262
38880W        W 2637  41.475  35.035  13.322
38881W        W 2638   6.864  43.330   3.252
38882W        W 2639  24.603  42.438   0.411
38883W        W 2640  37.973  28.562   3.300
38884W        W 2641  35.018   6.182  11.562
38885W        W 2642  22.524  30.948   2.775
38886W        W 2643  14.638  16.782   4.201
38887W        W 2644  21.185  34.512   1.933
38888W        W 2645  13.282   7.251  10.149
38889W        W 2646  37.387   5.892  12.579
38890W        W 2647  42.310  33.460  14.785
38891W        W 2648   3.243  27.585  10.903
38892W        W 2649  44.491  12.334   1.771
38893W        W 2650  35.390  14.783  12.039
38894W        W 2651  10.656  27.062   2.389
38895W        W 2652  12.340  39.911   1.354
38896W        W 2653   7.879   2.776  10.902
38897W        W 2654  40.549  13.617  13.041
38898W        W 2655  10.267   6.704  12.864
38899W        W 2656  18.213  32.479   0.775
38900W        W 2657  32.917   6.859   3.725
38901W        W 2658  12.245   3.455  13.485
38902W        W 2659   3.796   0.312   1.410
38903W        W 2660  34.976  15.312  13.323
38904W        W 2661  28.594  19.068  11.961
38905W        W 2662   0.797  43.947   2.738
38906W        W 2663  13.324  36.369   2.866
38907W        W 2664  39.356  34.562   3.678
38908W        W 2665  31.409  40.477   4.330
38909W        W 2666  24.033  20.535  14.379
38910W        W 2667  35.378  43.876   1.716
38911W        W 2668  28.455  14.098   2.383
38912W        W 2669  24.656   5.923   3.382
38913W        W 2670   0.759   2.897   4.674
38914W        W 2671  39.938  36.869   1.432
38915W        W 2672  35.392  36.453   3.260
38916W        W 2673  15.085  42.385  12.840
38917W        W 2674  35.971  22.065   3.851
38918W        W 2675  19.096  36.935  10.078
38919W        W 2676  19.161  31.403   3.659
38920W        W 2677  14.718  42.939   0.334
38921W        W 2678  10.799  19.542  14.906
38922W        W 2679  13.831   4.868  10.983
38923W        W 2680  40.398  40.843   1.707
38924W        W 2681   1.893  43.018  14.952
38925W        W 2682  38.389   3.839  10.587
38926W        W 2683  20.538  35.062   3.204
38927W        W 2684   8.230   8.298   4.326
38928W        W 2685  11.688  32.607  13.421
38929W        W 2686  35.955   6.884  10.410
38930W        W 2687  18.290  13.763   0.850
38931W        W 2688   7.322  37.847   3.731
38932W        W 2689  42.876  40.496   1.862
38933W        W 2690  39.973   3.230  13.928
38934W        W 2691  44.988  15.602   4.354
38935W        W 2692  32.029   1.821  13.026
38936W        W 2693  11.706  15.592  12.076
38937W        W 2694  31.971  10.157   5.295
38938W        W 2695  30.419  24.676   4.788
38939W        W 2696  26.144   9.757   3.253
38940W        W 2697  14.270   8.729  10.899
38941W        W 2698  29.613  34.906   2.246
38942W        W 2699  27.136  44.306   3.808
38943W        W 2700  22.607  32.893   5.151
38944W        W 2701  43.272  16.677   4.693
38945W        W 2702  18.278  28.120   2.787
38946W        W 2703  26.957  44.867  12.493
38947W        W 2704  42.778  42.886  14.412
38948W        W 2705  30.514  10.368   1.760
38949W        W 2706   2.918  38.864   0.437
38950W        W 2707  44.277  38.956   4.688
38951W        W 2708  16.194  22.563  11.549
38952W        W 2709  30.434   2.956  12.541
38953W        W 2710  31.072  35.570  13.433
38954W        W 2711   1.960  34.060  12.407
38955W        W 2712  11.169  30.577  13.398
38956W        W 2713  34.996  25.690   2.395
38957W        W 2714  14.602   9.177  14.878
38958W        W 2715  13.306   7.207   4.769
38959W        W 2716  25.172  35.425   1.930
38960W        W 2717  19.171  19.552   3.723
38961W        W 2718  21.605   4.881   1.220
38962W        W 2719   7.296  38.450   3.191
38963W        W 2720  19.628  37.875  12.911
38964W        W 2721  10.272  43.375  13.462
38965W        W 2722   7.749  43.502   3.727
38966W        W 2723  32.970  33.923   4.649
38967W        W 2724  11.747  17.077  10.435
38968W        W 2725  22.033  32.037  14.921
38969W        W 2726  29.431  10.665  12.500
38970W        W 2727   1.266   5.272   0.379
38971W        W 2728  21.564  31.064  12.967
38972W        W 2729  13.657  30.567   2.740
38973W        W 2730  12.133  22.612   1.710
38974W        W 2731  28.116  39.997   0.308
38975W        W 2732   2.367   3.739  12.376
38976W        W 2733  31.567  40.038   3.311
38977W        W 2734  36.583   3.450   4.230
38978W        W 2735  34.961   0.300   1.826
38979W        W 2736  21.185  36.041   4.288
38980W        W 2737   8.680  33.444  14.953
38981W        W 2738  21.742   5.883   4.820
38982W        W 2739  20.666  22.021  13.004
38983W        W 2740  17.168  24.559   0.955
38984W        W 2741   5.867   9.654  11.427
38985W        W 2742   1.775  29.131   4.682
38986W        W 2743   5.691  10.723   3.769
38987W        W 2744  37.950  30.463  13.027
38988W        W 2745  10.339  31.926   4.119
38989W        W 2746   4.441  14.332   0.460
38990W        W 2747  33.435  29.487  10.146
38991W        W 2748  35.104  27.481   2.192
38992W        W 2749  42.023  28.063  13.472
38993W        W 2750  38.820  42.344  10.417
38994W        W 2751  30.640   8.360   2.886
38995W        W 2752  24.158   7.735  10.510
38996W        W 2753  16.633  18.199  13.951
38997W        W 2754  15.324   1.784  13.322
38998W        W 2755   5.434  41.317   0.947
38999W        W 2756   3.742   4.891   0.379
39000W        W 2757   5.760  35.933  14.424
39001W        W 2758  38.378   6.329   0.826
39002W        W 2759   3.452  30.508   2.773
39003W        W 2760  28.021  25.569  14.856
39004W        W 2761   8.266  43.898   0.890
39005W        W 2762   2.365  43.888   1.832
39006W        W 2763  34.463   6.378  11.929
39007W        W 2764  21.132  27.574  11.915
39008W        W 2765  40.339  36.927   4.117
39009W        W 2766  26.577   2.403  11.047
39010W        W 2767  20.059  42.436  12.052
39011W        W 2768   2.762  36.079  12.834
39012W        W 2769  23.043  30.008   1.758
39013W        W 2770  33.405  12.611  13.979
39014W        W 2771  31.116   9.671  10.896
39015W        W 2772  44.280  26.642   2.779
39016W        W 2773   5.722  42.447   3.173
39017W        W 2774  33.402  12.802   0.458
39018W        W 2775  28.566  25.637  11.563
39019W        W 2776  15.725  26.535   5.292
39020W        W 2777   6.295   7.864   4.290
39021W        W 2778  36.944  20.151  10.571
39022W        W 2779  24.529  24.991   2.822
39023W        W 2780  14.749  26.491  10.408
39024W        W 2781  28.121  44.827   1.886
39025W        W 2782  28.525  25.501   5.120
39026W        W 2783  26.993   6.777   1.242
39027W        W 2784  26.458   3.234  13.524
39028W        W 2785  33.897   3.340  10.446
39029W        W 2786   3.742  24.017   2.817
39030W        W 2787  32.484  17.664   0.910
39031W        W 2788   8.239  19.260  11.486
39032W        W 2789  42.025   7.204   1.710
39033W        W 2790  15.785  34.457   0.937
39034W        W 2791  24.185  40.542  12.511
39035W        W 2792  38.570  33.564  10.569
39036W        W 2793   1.794  31.536   1.815
39037W        W 2794  34.038  33.598  14.282
39038W        W 2795  11.716  44.397  12.003
39039W        W 2796  36.966  11.361   0.866
39040W        W 2797  23.154  37.987  14.922
39041W        W 2798  39.924  11.315   0.477
39042W        W 2799  34.422  16.295   2.865
39043W        W 2800  24.154   4.279   1.362
39044W        W 2801   6.908  14.148   3.635
39045W        W 2802  15.260  26.544   1.750
39046W        W 2803   1.876  32.468  14.438
39047W        W 2804   1.930  23.167  14.512
39048W        W 2805  12.788  16.599   1.429
39049W        W 2806  13.826  43.957   4.149
39050W        W 2807  27.007  39.559  14.357
39051W        W 2808  17.156  23.661  12.889
39052W        W 2809  26.030  27.124   2.400
39053W        W 2810  33.476  26.117   4.127
39054W        W 2811  40.475  15.317  14.971
39055W        W 2812  17.186  14.655  11.479
39056W        W 2813  15.162  40.828   4.315
39057W        W 2814  37.045  19.692   4.142
39058W        W 2815  10.226   4.236  10.132
39059W        W 2816  19.244  36.893  11.114
39060W        W 2817  19.233   5.298  10.565
39061W        W 2818  17.222  31.428  12.916
39062W        W 2819  42.475  12.800   2.257
39063W        W 2820  29.952  26.188  13.932
39064W        W 2821  22.212   8.711  11.949
39065W        W 2822  39.839  22.192   3.258
39066W        W 2823  34.962  34.993  10.078
39067W        W 2824  12.333  14.727   3.639
39068W        W 2825  24.023  40.397  11.550
39069W        W 2826  26.032  35.072  12.579
39070W        W 2827  41.447  44.362  11.991
39071W        W 2828   1.482  42.416  13.510
39072W        W 2829   5.382  41.455  14.854
39073W        W 2830  24.980  25.086   4.127
39074W        W 2831  13.131  14.749  11.114
39075W        W 2832  42.406  41.935   3.173
39076W        W 2833  12.716  27.023   3.862
39077W        W 2834  15.787  23.490   2.760
39078W        W 2835   3.451  14.667  11.493
39079W        W 2836   8.842  13.216   4.193
39080W        W 2837  43.780  28.157   3.856
39081W        W 2838  29.093   4.808   2.374
39082W        W 2839  17.716  16.603  14.930
39083W        W 2840   4.376   0.891  11.514
39084W        W 2841   0.403  33.427   1.360
39085W        W 2842  35.380  36.513  11.057
39086W        W 2843   0.823  28.681   3.204
39087W        W 2844   6.902   2.761  11.021
39088W        W 2845  42.438  42.361   4.824
39089W        W 2846  37.561  34.530   1.908
39090W        W 2847  28.050  15.130  11.527
39091W        W 2848  19.651  13.141  13.932
39092W        W 2849  44.305  44.421   2.223
39093W        W 2850  37.997   8.365  10.585
39094W        W 2851  39.883  33.048  10.928
39095W        W 2852  28.657   0.755  13.891
39096W        W 2853  21.554  32.972  14.021
39097W        W 2854  16.088  23.158  11.994
39098W        W 2855   2.370   2.319   0.909
39099W        W 2856  15.298   0.969   5.625
39100W        W 2857  21.735  31.933  10.062
39101W        W 2858  23.522  14.163  14.381
39102W        W 2859  25.045  22.528   0.371
39103W        W 2860   5.330  36.869  13.454
39104W        W 2861  23.592   0.493   4.146
39105W        W 2862  26.465   5.772   2.780
39106W        W 2863  16.142  33.062   4.172
39107W        W 2864  25.115  44.845   4.184
39108W        W 2865  28.509  10.254  13.547
39109W        W 2866  23.000  22.062  13.416
39110W        W 2867  38.075  36.493   2.344
39111W        W 2868  38.943  31.441   3.332
39112W        W 2869  33.925   7.818   4.641
39113W        W 2870  23.546  19.642  14.024
39114W        W 2871  22.629  38.510   0.411
39115W        W 2872  31.068  10.257  11.994
39116W        W 2873   2.465  43.495   4.623
39117W        W 2874  34.589  40.474   1.434
39118W        W 2875   2.316   7.811  13.986
39119W        W 2876   1.751  37.414   4.832
39120W        W 2877  18.114  42.010  10.641
39121W        W 2878  18.681  43.280   1.222
39122W        W 2879   3.752  37.059  11.506
39123W        W 2880  37.901  19.253   3.745
39124W        W 2881  38.570  13.276   1.416
39125W        W 2882  29.514   5.699  10.988
39126W        W 2883  42.016   6.402   1.928
39127W        W 2884  11.300   2.728   1.430
39128W        W 2885  13.643   3.844   2.355
39129W        W 2886  12.121  30.127  11.439
39130W        W 2887  20.238  11.843  11.875
39131W        W 2888  19.646   4.792   4.814
39132W        W 2889   6.822  30.006  10.897
39133W        W 2890  32.037  20.721   3.161
39134W        W 2891  28.081  21.690   0.918
39135W        W 2892  38.857  25.523   0.257
39136W        W 2893  16.720  15.270  14.500
39137W        W 2894  27.512  31.078  14.993
39138W        W 2895  28.550  17.202  10.553
39139W        W 2896  26.190   4.864  14.450
39140W        W 2897  30.926   2.250   5.126
39141W        W 2898  44.993  37.480   0.863
39142W        W 2899  28.997   9.884  13.889
39143W        W 2900  15.182  28.624   0.303
39144W        W 2901  39.331  28.121  14.965
39145W        W 2902  31.068  34.097   1.789
39146W        W 2903  39.835  31.558  13.851
39147W        W 2904   9.388  12.284   4.230
39148W        W 2905  36.593  28.105   9.996
39149W        W 2906  31.032   9.363   1.255
39150W        W 2907  30.069  22.723   0.859
39151W        W 2908  38.002  39.823  12.543
39152W        W 2909   0.963  38.437   4.239
39153W        W 2910  42.983  34.463   1.756
39154W        W 2911  29.647  24.051   3.162
39155W        W 2912  12.226  26.020  14.818
39156W        W 2913  39.542  12.804   0.441
39157W        W 2914  29.172  29.936  10.452
39158W        W 2915  36.086  35.085  11.080
39159W        W 2916   8.878  26.998   1.291
39160W        W 2917  35.580   4.867  11.014
39161W        W 2918  19.677  18.259  11.097
39162W        W 2919  30.556  22.536   1.253
39163W        W 2920  39.867   5.839  12.933
39164W        W 2921  29.638  10.851  11.005
39165W        W 2922  30.569  20.039  13.532
39166W        W 2923   3.938   9.884   1.277
39167W        W 2924  32.459  34.380  14.971
39168W        W 2925  29.144  20.738   4.299
39169W        W 2926  24.663  35.079  14.937
39170W        W 2927   8.811  42.005   3.690
39171W        W 2928  37.081  14.747  14.348
39172W        W 2929  12.790  11.662   3.781
39173W        W 2930  14.182   2.237  13.877
39174W        W 2931  27.037   0.475  14.028
39175W        W 2932  12.328  25.015   0.473
39176W        W 2933  43.956  10.714   0.799
39177W        W 2934  13.230  41.475  11.565
39178W        W 2935  17.248  29.035  11.895
39179W        W 2936  36.350  16.094   4.641
39180W        W 2937  34.460   3.778   3.841
39181W        W 2938  14.182   9.679   4.632
39182W        W 2939  31.146  21.614   4.163
39183W        W 2940  28.663  39.546  11.009
39184W        W 2941  36.066  19.107   0.334
39185W        W 2942  18.675   6.321   3.218
39186W        W 2943   4.224  39.499  11.466
39187W        W 2944  11.221  25.106   1.440
39188W        W 2945  17.802  29.539  14.438
39189W        W 2946   9.686  25.565   0.414
39190W        W 2947  27.528  20.711  14.893
39191W        W 2948   1.344  42.839  11.919
39192W        W 2949  44.996  24.531   3.683
39193W        W 2950  34.530  40.468  13.472
39194W        W 2951  14.637  43.792   1.797
39195W        W 2952  12.773  38.458   4.608
39196W        W 2953  21.108  15.782  14.280
39197W        W 2954  17.557  12.203   3.270
39198W        W 2955  42.415  22.149  12.077
39199W        W 2956  17.226  17.185  12.955
39200W        W 2957  36.997  22.682   2.314
39201W        W 2958  12.349  23.543   3.630
39202W        W 2959  38.343  33.940   1.771
39203W        W 2960  29.497  42.960  14.026
39204W        W 2961  23.059  16.271   2.724
39205W        W 2962  38.866  36.093   2.318
39206W        W 2963  19.281  43.463  12.043
39207W        W 2964  15.182   6.919   0.819
39208W        W 2965  22.228  17.160   0.332
39209W        W 2966   6.314   1.340  11.054
39210W        W 2967  20.050  34.435  12.861
39211W        W 2968   9.299  23.584  11.460
39212W        W 2969  38.833  29.136  10.572
39213W        W 2970  22.715  14.143  10.072
39214W        W 2971  44.786  18.557  13.336
39215W        W 2972   0.280  17.698   2.231
39216W        W 2973  16.224  10.211   0.801
39217W        W 2974  36.004   8.277   2.855
39218W        W 2975   8.897   7.706   4.614
39219W        W 2976  22.207  20.594  14.310
39220W        W 2977  43.493   3.906  14.974
39221W        W 2978   6.378  19.128  10.022
39222W        W 2979  21.709  25.549   2.688
39223W        W 2980  21.746  28.036  12.471
39224W        W 2981  31.447  28.015  14.977
39225W        W 2982   9.699  25.525  10.530
39226W        W 2983  31.028   9.237  14.764
39227W        W 2984   2.459  23.203   1.763
39228W        W 2985  21.668  14.650   0.857
39229W        W 2986  27.963   5.332  14.006
39230W        W 2987  30.022  26.551  10.618
39231W        W 2988  38.453  12.819  10.568
39232W        W 2989   5.714  37.026   4.286
39233W        W 2990   4.368  41.325   5.255
39234W        W 2991  16.126   2.446  12.860
39235W        W 2992  37.046  36.026  12.885
39236W        W 2993  23.641  14.122  12.904
39237W        W 2994  12.763  43.512  10.465
39238W        W 2995  36.523  11.361  13.496
39239W        W 2996  22.115  17.114  13.497
39240W        W 2997   7.287  37.977   2.793
39241W        W 2998  22.045  42.911   2.213
39242W        W 2999   7.371  13.826   2.779
39243W        W 3000  21.159  11.854  13.357
39244W        W 3001  33.609  21.646   0.394
39245W        W 3002  22.710  39.014   3.167
39246W        W 3003  32.060  39.553   2.236
39247W        W 3004  43.975   7.338   0.430
39248W        W 3005  12.306  17.651  12.846
39249W        W 3006  40.806  15.175  12.435
39250W        W 3007   3.279  12.144   2.188
39251W        W 3008  30.525  36.090  10.435
39252W        W 3009   5.698  16.732  11.597
39253W        W 3010  28.550  36.877   4.768
39254W        W 3011   5.337  12.693   3.251
39255W        W 3012   4.301  35.092  12.368
39256W        W 3013   5.415  33.993   3.662
39257W        W 3014  44.440  20.103  14.337
39258W        W 3015  31.999   4.783  13.889
39259W        W 3016  22.727   3.246  13.033
39260W        W 3017  13.803   8.252   1.282
39261W        W 3018  26.654   6.215  11.434
39262W        W 3019  10.648   7.886   4.224
39263W        W 3020  28.631  37.881   1.392
39264W        W 3021  31.019  44.449   1.747
39265W        W 3022  33.098  33.920  13.931
39266W        W 3023  27.494  35.079  11.427
39267W        W 3024  37.056  22.714   3.243
39268W        W 3025  29.608  11.194   0.457
39269W        W 3026   5.776   8.262   3.355
39270W        W 3027   9.278  25.962   3.322
39271W        W 3028  34.965  10.838   3.650
39272W        W 3029  24.499  14.735  12.486
39273W        W 3030   2.743  23.066   0.823
39274W        W 3031  20.258  11.141   3.204
39275W        W 3032  24.534  43.477  13.313
39276W        W 3033  15.650  23.154   4.751
39277W        W 3034  42.443   0.473  11.975
39278W        W 3035  27.447   2.351  13.384
39279W        W 3036   4.931  14.682  12.390
39280W        W 3037  16.221  23.022   4.303
39281W        W 3038   8.708   7.793  12.015
39282W        W 3039  21.511  28.929   2.402
39283W        W 3040   9.377  42.324  10.411
39284W        W 3041  15.282  31.075   2.373
39285W        W 3042  30.565  39.850  12.837
39286W        W 3043  18.776  41.394  13.307
39287W        W 3044  29.094   8.830   0.875
39288W        W 3045  30.121  27.543   1.309
39289W        W 3046  44.938  18.280   1.828
39290W        W 3047   2.234   5.362   1.448
39291W        W 3048  14.745  10.147  14.965
39292W        W 3049   2.801  44.905   1.735
39293W        W 3050   2.342  31.080  11.557
39294W        W 3051  11.679  36.078  14.928
39295W        W 3052  31.050  31.407   3.675
39296W        W 3053  19.636  41.400  11.944
39297W        W 3054   3.872  41.891  14.782
39298W        W 3055  16.317  19.691  12.518
39299W        W 3056  12.649  29.513  12.357
39300W        W 3057  30.997  43.318   4.643
39301W        W 3058  34.403  25.678  11.466
39302W        W 3059   0.461  15.795   3.199
39303W        W 3060  30.531  11.661   4.812
39304W        W 3061  14.239   5.825   0.335
39305W        W 3062  21.683  29.450  12.402
39306W        W 3063  20.183  30.945   4.193
39307W        W 3064  41.871  19.579   4.785
39308W        W 3065  29.488   0.961   2.284
39309W        W 3066  33.412  31.084  12.844
39310W        W 3067  34.581  37.421  14.765
39311W        W 3068  39.395  10.692  11.016
39312W        W 3069  33.392  24.521   0.306
39313W        W 3070  28.483  20.122   2.236
39314W        W 3071  36.018   5.280  12.567
39315W        W 3072  42.382  18.586   4.738
39316W        W 3073   0.466  34.115   3.718
39317W        W 3074  14.245  40.363   0.908
39318W        W 3075  43.338  22.666  11.470
39319W        W 3076  18.053  29.006   3.655
39320W        W 3077  13.727  25.591  14.384
39321W        W 3078  23.535  42.958  11.917
39322W        W 3079  11.159  23.593   3.664
39323W        W 3080  35.989  36.433  12.434
39324W        W 3081   4.875  40.950   0.324
39325W        W 3082  43.390  10.823   1.266
39326W        W 3083   5.806  41.001   0.889
39327W        W 3084  36.849   5.300   4.599
39328W        W 3085  38.480  25.963  11.877
39329W        W 3086  34.984  14.183   2.217
39330W        W 3087   2.752   9.157  12.494
39331W        W 3088  13.288  20.607   1.804
39332W        W 3089   6.262  28.093  12.498
39333W        W 3090  27.654   6.893   0.757
39334W        W 3091   6.320  21.099  14.924
39335W        W 3092  43.361  44.379   0.875
39336W        W 3093  30.986   8.212   0.786
39337W        W 3094  40.512  43.021   4.615
39338W        W 3095  36.856  32.419   0.430
39339W        W 3096  15.294   1.457   9.630
39340W        W 3097  24.671  40.920   2.861
39341W        W 3098  17.288  38.470  12.958
39342W        W 3099  40.885  37.005   4.146
39343W        W 3100  29.061  22.643  13.535
39344W        W 3101   6.754  12.630  12.880
39345W        W 3102  31.064  30.122  11.874
39346W        W 3103   5.341   2.340   2.779
39347W        W 3104  30.939  25.698   0.810
39348W        W 3105  28.045  40.919   4.124
39349W        W 3106  10.659  23.021  10.888
39350W        W 3107   8.790  19.258   0.791
39351W        W 3108  23.029  22.164   1.283
39352W        W 3109   9.163  20.543   3.826
39353W        W 3110   5.367  17.232   4.824
39354W        W 3111   7.790  30.999  10.576
39355W        W 3112  28.032   1.889   1.859
39356W        W 3113  40.498  19.170   3.150
39357W        W 3114  16.305  11.815  10.930
39358W        W 3115  21.112  24.589  13.840
39359W        W 3116  30.538  36.899  14.013
39360W        W 3117  18.707  37.571  14.959
39361W        W 3118  32.604  29.514   0.248
39362W        W 3119   4.358  11.318   4.308
39363W        W 3120  19.092   5.726  10.977
39364W        W 3121  14.302  42.427  13.008
39365W        W 3122  32.113  22.709   0.845
39366W        W 3123  14.146   1.385   4.315
39367W        W 3124  36.349  20.121   3.196
39368W        W 3125  41.911  25.129   3.712
39369W        W 3126   1.411  13.260   0.333
39370W        W 3127  42.391   9.743  11.440
39371W        W 3128   6.723  44.991  10.131
39372W        W 3129   5.232  26.550   3.338
39373W        W 3130  39.460  37.082   4.661
39374W        W 3131   7.787  36.022   1.828
39375W        W 3132   9.310   9.797  13.460
39376W        W 3133  37.392  42.498   3.633
39377W        W 3134  37.013  39.033  12.507
39378W        W 3135  39.380  36.915  10.583
39379W        W 3136   1.772  19.574  14.806
39380W        W 3137  30.602  32.603   2.799
39381W        W 3138  33.425   7.397  10.096
39382W        W 3139  10.182  28.441   1.214
39383W        W 3140  44.272  24.486  14.327
39384W        W 3141  21.675  24.625   3.659
39385W        W 3142  29.076  19.546   1.923
39386W        W 3143   8.751  34.606   2.790
39387W        W 3144  41.005  12.745  14.295
39388W        W 3145  36.556  30.625  12.865
39389W        W 3146  41.318  36.592   2.839
39390W        W 3147  11.332  37.455   2.872
39391W        W 3148  33.524  24.486  14.336
39392W        W 3149  39.319  12.324   0.390
39393W        W 3150  26.975  27.141  12.033
39394W        W 3151   9.375  36.566   1.894
39395W        W 3152  19.666  23.098  10.582
39396W        W 3153  34.456  14.283   1.856
39397W        W 3154  15.240  22.696  12.471
39398W        W 3155  30.057  41.399   0.457
39399W        W 3156  42.383  11.238   2.285
39400W        W 3157  30.630  18.088  10.586
39401W        W 3158   5.307  17.566  12.879
39402W        W 3159  32.098   1.243  10.510
39403W        W 3160  24.083  37.342   0.429
39404W        W 3161   2.758  23.061   2.774
39405W        W 3162  32.635  35.936  13.063
39406W        W 3163  28.513   2.452   0.761
39407W        W 3164  23.172  13.345   2.272
39408W        W 3165  29.529  19.717   4.707
39409W        W 3166  43.270  33.980  11.601
39410W        W 3167   6.364  34.526   2.231
39411W        W 3168  21.722   6.371  13.912
39412W        W 3169  37.438  29.978  14.372
39413W        W 3170   3.839   3.355  13.911
39414W        W 3171  15.729  30.622   1.815
39415W        W 3172   0.885   5.193  10.414
39416W        W 3173  28.515  44.283  12.878
39417W        W 3174  44.326  14.787   2.673
39418W        W 3175  32.066   9.803  12.876
39419W        W 3176  42.968  17.666  13.372
39420W        W 3177   8.888  21.062   5.234
39421W        W 3178  14.741  41.455   0.809
39422W        W 3179  21.724  31.464  12.888
39423W        W 3180  11.733  19.642   4.686
39424W        W 3181  25.124   4.314  14.928
39425W        W 3182   6.679  15.196   1.305
39426W        W 3183  30.609  20.660   0.299
39427W        W 3184  32.407   3.897  14.476
39428W        W 3185  27.180   4.315   0.418
39429W        W 3186  38.549  28.116   3.233
39430W        W 3187  38.475  42.323  11.942
39431W        W 3188   5.278  42.015  10.999
39432W        W 3189  41.022  25.695  13.943
39433W        W 3190  10.688  15.585  12.479
39434W        W 3191  28.937  37.087  13.348
39435W        W 3192  43.388  29.629  10.912
39436W        W 3193  38.000  41.940   1.866
39437W        W 3194   5.258  34.563  12.871
39438W        W 3195   0.899  41.464   3.748
39439W        W 3196  41.405  13.300   4.210
39440W        W 3197   1.412  33.585  11.903
39441W        W 3198  18.747   9.175   4.826
39442W        W 3199  20.139  43.305   0.266
39443W        W 3200   1.954  43.428  12.014
39444W        W 3201  37.965  27.167   3.803
39445W        W 3202   5.721  26.664  10.623
39446W        W 3203  40.502  10.860   0.367
39447W        W 3204  38.952  43.395  12.837
39448W        W 3205  25.505  28.167   3.380
39449W        W 3206  11.802   4.905   3.165
39450W        W 3207  14.155  33.597  12.965
39451W        W 3208  28.950  34.092  12.843
39452W        W 3209  13.159  39.877   3.354
39453W        W 3210  39.317  35.427   1.778
39454W        W 3211  14.111  44.913  14.313
39455W        W 3212  16.801  17.643   0.746
39456W        W 3213  35.962  32.018   3.387
39457W        W 3214  18.170   4.421   2.242
39458W        W 3215  10.788  37.353  14.905
39459W        W 3216  40.803  30.121   2.381
39460W        W 3217  40.871  14.313   1.759
39461W        W 3218   2.404   4.220  11.075
39462W        W 3219  24.486  18.623  11.110
39463W        W 3220  29.505  38.884  12.570
39464W        W 3221  24.199   4.925  12.434
39465W        W 3222  42.449  10.792  12.537
39466W        W 3223   0.922  32.466  12.094
39467W        W 3224  27.986   8.697   1.896
39468W        W 3225  36.368   3.249  12.013
39469W        W 3226  10.825  34.885   4.176
39470W        W 3227   7.216  37.516   1.754
39471W        W 3228  29.034   1.284   4.686
39472W        W 3229  34.459  13.786  12.464
39473W        W 3230   8.894   5.852   4.303
39474W        W 3231   5.233  24.565  13.397
39475W        W 3232   3.276  12.633  10.632
39476W        W 3233  23.137   1.417  14.960
39477W        W 3234  25.219  41.909  11.415
39478W        W 3235  14.723  14.118  11.882
39479W        W 3236  16.253  12.642  13.838
39480W        W 3237  18.170  36.562   3.352
39481W        W 3238   8.330  40.050  11.104
39482W        W 3239  36.023  11.215  13.358
39483W        W 3240  21.227  25.673  12.092
39484W        W 3241   6.250   0.483  12.886
39485W        W 3242  10.768  42.495   0.445
39486W        W 3243   0.382  40.886   1.399
39487W        W 3244  17.093  18.552  10.550
39488W        W 3245  25.039  40.336   2.883
39489W        W 3246  32.936  20.659   4.700
39490W        W 3247  19.626  19.739  14.898
39491W        W 3248   4.771   9.694  10.488
39492W        W 3249  33.626   0.279  11.009
39493W        W 3250  34.963  26.555  10.588
39494W        W 3251   9.348   2.398  11.403
39495W        W 3252  41.434  33.059   4.697
39496W        W 3253  38.569   5.284   3.686
39497W        W 3254   7.222  38.844   2.756
39498W        W 3255  35.454   3.346   1.414
39499W        W 3256  11.792  26.133  13.431
39500W        W 3257  10.821  38.398  11.962
39501W        W 3258  39.548  16.616   2.186
39502W        W 3259  37.394  31.150   1.784
39503W        W 3260  33.506  23.094   2.865
39504W        W 3261  10.667  40.030   4.157
39505W        W 3262  18.131   0.898   0.425
39506W        W 3263  14.694   9.714   4.812
39507W        W 3264  13.686  34.886  10.977
39508W        W 3265  25.593  18.061  13.379
39509W        W 3266  39.947   8.393  13.827
39510W        W 3267  31.073  29.007   2.249
39511W        W 3268  30.473   2.310  10.547
39512W        W 3269  19.594  13.283  11.438
39513W        W 3270  43.862  11.353  12.066
39514W        W 3271  35.015   7.761  11.039
39515W        W 3272  33.486  33.937   4.347
39516W        W 3273  21.167  12.345  11.113
39517W        W 3274   2.430  19.169  14.512
39518W        W 3275  38.922  28.096   4.750
39519W        W 3276  27.093  27.149  14.313
39520W        W 3277  43.862  20.211   3.649
39521W        W 3278   3.231  42.467  13.307
39522W        W 3279  19.715  42.456  14.317
39523W        W 3280   1.416   4.699  12.972
39524W        W 3281  32.993  32.420  12.957
39525W        W 3282  29.968  33.399   4.730
39526W        W 3283  13.272  34.544  13.935
39527W        W 3284  43.370   7.295   3.303
39528W        W 3285  19.780  35.979  12.915
39529W        W 3286  38.891   7.772   0.380
39530W        W 3287  18.252  30.463   3.173
39531W        W 3288  15.132  25.120  14.826
39532W        W 3289  14.710   0.445   0.858
39533W        W 3290  30.519   6.301  11.544
39534W        W 3291  11.184  37.577   3.844
39535W        W 3292  29.485   7.404  11.062
39536W        W 3293  10.731   3.323   2.847
39537W        W 3294   0.923  34.530   4.598
39538W        W 3295   8.394  29.070  13.808
39539W        W 3296   2.351  24.219  10.067
39540W        W 3297  15.167  38.508  10.550
39541W        W 3298  41.451   5.350  12.019
39542W        W 3299  44.830   8.215  13.333
39543W        W 3300  39.448  43.789  10.590
39544W        W 3301   1.948  42.436   1.334
39545W        W 3302   5.278  41.826   1.226
39546W        W 3303   0.831   6.866  14.005
39547W        W 3304  38.507  22.635  11.445
39548W        W 3305  30.945  16.753  12.840
39549W        W 3306  40.019  30.465   1.250
39550W        W 3307  35.880  44.470   4.338
39551W        W 3308  18.638  20.196  11.903
39552W        W 3309  43.964  18.215   2.383
39553W        W 3310  39.898  43.900   1.783
39554W        W 3311  15.710  43.438   0.956
39555W        W 3312   0.807   7.832  13.006
39556W        W 3313  32.498  27.124  14.916
39557W        W 3314   3.396   7.195   0.253
39558W        W 3315   7.321  12.769  13.864
39559W        W 3316  36.491  36.024   4.682
39560W        W 3317  35.005  11.161  14.015
39561W        W 3318  17.713   0.798   2.402
39562W        W 3319  35.475  11.805   2.345
39563W        W 3320  12.168   9.175   2.761
39564W        W 3321   5.438  19.168   4.280
39565W        W 3322  33.064   9.200  13.387
39566W        W 3323  32.633  40.318  10.546
39567W        W 3324  30.004  12.763   3.377
39568W        W 3325  23.004   0.388   1.744
39569W        W 3326   1.902  30.453  11.975
39570W        W 3327  39.398  26.041   0.846
39571W        W 3328  16.687   5.751   3.280
39572W        W 3329   2.848  44.502   1.844
39573W        W 3330  44.933  24.504  11.591
39574W        W 3331  25.963  21.075  10.158
39575W        W 3332  15.703  26.589  11.109
39576W        W 3333   0.883  24.657   2.694
39577W        W 3334  40.930  26.071   2.728
39578W        W 3335  44.455  40.016  14.374
39579W        W 3336  36.912  38.975  11.958
39580W        W 3337  16.597  28.119   1.807
39581W        W 3338   3.804  26.018   1.442
39582W        W 3339  35.525  28.074   1.220
39583W        W 3340  37.008  16.650  13.892
39584W        W 3341   3.732  38.927   3.821
39585W        W 3342  17.250  36.590   2.744
39586W        W 3343  11.810  37.025   4.700
39587W        W 3344  40.798  35.511   1.352
39588W        W 3345  23.602  18.135  12.504
39589W        W 3346  13.299  13.166  12.409
39590W        W 3347  36.902  20.045  13.387
39591W        W 3348  40.380  25.160  11.609
39592W        W 3349  26.109  37.052  13.515
39593W        W 3350  42.941  44.439   1.716
39594W        W 3351  36.954   1.274   1.214
39595W        W 3352   0.433   3.433   1.761
39596W        W 3353  30.002  23.106   2.379
39597W        W 3354  43.471  42.505   4.117
39598W        W 3355  35.079  33.084   1.786
39599W        W 3356  12.205  39.513   3.678
39600W        W 3357   7.193  19.079  13.001
39601W        W 3358  17.621   9.154   3.359
39602W        W 3359  43.387   7.258   1.222
39603W        W 3360  44.303   0.344   2.765
39604W        W 3361  29.527  24.070   9.997
39605W        W 3362  39.425  42.000   2.282
39606W        W 3363  41.435   7.339  14.428
39607W        W 3364  32.140  36.032  10.938
39608W        W 3365  25.046  42.466  12.006
39609W        W 3366  31.899  37.956   4.814
39610W        W 3367   6.291  43.490  11.872
39611W        W 3368  41.031  39.366  11.415
39612W        W 3369  36.556  20.574   0.271
39613W        W 3370  11.655  27.560   2.192
39614W        W 3371  40.917  19.691   2.726
39615W        W 3372  10.647   4.363   1.704
39616W        W 3373  31.492  40.501  14.947
39617W        W 3374   2.408  38.886   3.855
39618W        W 3375  17.558   2.875  11.015
39619W        W 3376  14.751  43.793  13.013
39620W        W 3377   1.458  42.334   2.207
39621W        W 3378   7.297  30.102   0.804
39622W        W 3379  44.989  23.065  10.540
39623W        W 3380  31.138  24.663   3.813
39624W        W 3381  42.006   7.830   2.783
39625W        W 3382  28.477  26.464   3.298
39626W        W 3383   4.305   1.958  12.568
39627W        W 3384  13.741  27.659   1.888
39628W        W 3385  43.443  44.363  11.525
39629W        W 3386  26.164  28.460   1.211
39630W        W 3387  36.466  15.153   1.350
39631W        W 3388  43.782  41.014   1.365
39632W        W 3389  14.171  21.720  10.607
39633W        W 3390   6.371  23.551   4.706
39634W        W 3391  30.420  13.602   1.334
39635W        W 3392  39.934  43.798  12.578
39636W        W 3393  20.561   3.323  11.607
39637W        W 3394  40.809  43.885   2.722
39638W        W 3395  29.058  22.109  14.010
39639W        W 3396  44.323  23.653   3.205
39640W        W 3397  37.463  17.261  12.532
39641W        W 3398  36.861  38.028   0.248
39642W        W 3399  35.898   3.810  13.907
39643W        W 3400  26.199  11.733  10.450
39644W        W 3401   2.828  39.908   3.318
39645W        W 3402   8.864  21.229  13.389
39646W        W 3403  28.631  35.444   4.827
39647W        W 3404  30.034   0.488  11.402
39648W        W 3405  34.120   7.239   1.261
39649W        W 3406   4.413  10.761  11.469
39650W        W 3407  42.809  26.514  14.301
39651W        W 3408  15.177   4.831   2.369
39652W        W 3409  23.611  13.165   3.680
39653W        W 3410  34.094  34.017  12.361
39654W        W 3411  12.738  24.596  14.029
39655W        W 3412  41.922  43.411   2.378
39656W        W 3413  20.212  30.909   2.400
39657W        W 3414  17.158  43.491   5.192
39658W        W 3415   8.755   4.251   4.219
39659W        W 3416   1.381  39.496   4.291
39660W        W 3417  20.575   8.378  13.923
39661W        W 3418  44.329  26.649   4.350
39662W        W 3419  23.150  13.627   3.352
39663W        W 3420  41.487  13.650   1.340
39664W        W 3421  40.037  23.669   0.763
39665W        W 3422   0.967  31.969  10.460
39666W        W 3423  30.571  40.415   4.692
39667W        W 3424  11.802   0.354  11.379
39668W        W 3425  33.536  37.403   0.392
39669W        W 3426  42.432  26.488  10.940
39670W        W 3427   9.215   3.922   2.257
39671W        W 3428  29.501   8.367  14.456
39672W        W 3429  18.630  41.928   0.888
39673W        W 3430  42.028  43.776  14.337
39674W        W 3431  13.141  39.361  11.527
39675W        W 3432  18.147  43.510   1.719
39676W        W 3433  39.373  40.438  13.333
39677W        W 3434   4.290   6.383   1.353
39678W        W 3435  22.190   3.306  11.966
39679W        W 3436  38.404  39.895  12.053
39680W        W 3437  11.150  14.665   1.853
39681W        W 3438  12.650  35.590   2.266
39682W        W 3439  36.576  29.592   3.730
39683W        W 3440  38.400  10.292  13.499
39684W        W 3441  23.120  30.059  12.035
39685W        W 3442   2.925  29.151   3.305
39686W        W 3443  19.228  43.354   4.126
39687W        W 3444   3.244   3.342   4.270
39688W        W 3445  34.066   3.294   3.868
39689W        W 3446  22.734  14.624   2.254
39690W        W 3447   5.225   5.267   0.461
39691W        W 3448   4.226  14.681  14.813
39692W        W 3449  44.275  37.987   5.197
39693W        W 3450  44.501  10.313  11.861
39694W        W 3451  21.148  21.545  14.431
39695W        W 3452  32.432  11.373   3.285
39696W        W 3453  35.379  35.061  12.481
39697W        W 3454   0.303  23.997   4.293
39698W        W 3455  19.621  18.567  13.848
39699W        W 3456  14.723  23.225  12.892
39700W        W 3457  40.385   8.353   0.832
39701W        W 3458  29.143  18.205  13.020
39702W        W 3459  26.168  26.672   3.833
39703W        W 3460  32.518  39.017  10.432
39704W        W 3461  19.656  30.456  10.975
39705W        W 3462  10.797  30.427  12.928
39706W        W 3463   9.203  27.505   4.339
39707W        W 3464  40.397   0.321  10.512
39708W        W 3465  10.662  38.051  14.410
39709W        W 3466   6.719  36.347  14.302
39710W        W 3467   7.184  38.827  11.561
39711W        W 3468  29.050   5.758   3.746
39712W        W 3469  31.443  12.674   3.839
39713W        W 3470  29.095   3.771   3.347
39714W        W 3471  40.818   2.882   2.710
39715W        W 3472   5.376  20.092   2.296
39716W        W 3473   4.283   8.696   0.389
39717W        W 3474  22.119  43.513  11.446
39718W        W 3475  14.260  28.510  11.982
39719W        W 3476   2.429  13.179  10.591
39720W        W 3477  10.286  38.936  14.881
39721W        W 3478  28.494   1.481   1.282
39722W        W 3479  15.624  24.995   2.281
39723W        W 3480  13.217  32.613  12.418
39724W        W 3481  13.233   6.720   4.154
39725W        W 3482  11.282  19.704  13.843
39726W        W 3483  26.606  15.619   1.434
39727W        W 3484  25.710   4.836  12.374
39728W        W 3485  21.125  23.713  12.432
39729W        W 3486   6.269  21.239   0.858
39730W        W 3487  30.960  17.760   0.369
39731W        W 3488  33.599   7.721   4.275
39732W        W 3489   2.435  10.146  10.577
39733W        W 3490   8.870  11.200   1.933
39734W        W 3491  30.423   3.248  12.853
39735W        W 3492   9.644  41.980   1.314
39736W        W 3493  10.874  31.590   0.324
39737W        W 3494  33.618  38.493  12.491
39738W        W 3495  34.448   4.816   2.712
39739W        W 3496  16.593  17.774   4.210
39740W        W 3497  19.668  35.552   1.365
39741W        W 3498  35.589   9.885  11.916
39742W        W 3499  29.604   0.370  13.961
39743W        W 3500  41.945  40.821   3.229
39744W        W 3501  39.429  38.922   2.903
39745W        W 3502  15.254  21.052  10.561
39746W        W 3503  43.981  27.941   3.249
39747W        W 3504  42.446  13.122  14.421
39748W        W 3505  23.558  11.634  10.561
39749W        W 3506  28.018  19.741  11.078
39750W        W 3507  28.674  42.974  10.556
39751W        W 3508  27.987  16.797   5.297
39752W        W 3509   5.749   9.660  12.423
39753W        W 3510   4.716  32.127  14.383
39754W        W 3511  13.677  31.444   3.312
39755W        W 3512  15.617  13.845   4.736
39756W        W 3513  23.116   1.381   1.856
39757W        W 3514  30.634  32.127  11.451
39758W        W 3515   4.813  24.127  11.474
39759W        W 3516  42.818  15.195  12.417
39760W        W 3517  20.585  41.879   0.439
39761W        W 3518  22.582   7.754   3.237
39762W        W 3519  26.640  22.044  12.572
39763W        W 3520  21.636  22.653  14.505
39764W        W 3521  16.308  40.861   2.706
39765W        W 3522  43.899  42.362  14.766
39766W        W 3523  44.273  19.215  12.903
39767W        W 3524   8.858  15.314   9.603
39768W        W 3525  35.600  14.252   3.235
39769W        W 3526  12.157  31.426  12.443
39770W        W 3527  38.421  28.945  13.986
39771W        W 3528   2.747   2.393   1.798
39772W        W 3529   1.463  31.018  10.595
39773W        W 3530   7.214   2.862   4.656
39774W        W 3531  22.057  30.592   0.918
39775W        W 3532  18.601   2.286  12.413
39776W        W 3533   8.253  30.997   4.662
39777W        W 3534  17.734   2.355  10.575
39778W        W 3535  42.809   5.247   0.832
39779W        W 3536  20.763  16.116  14.815
39780W        W 3537  42.865  10.647  11.965
39781W        W 3538  39.504   3.902  11.018
39782W        W 3539   4.417  25.183  14.464
39783W        W 3540  15.823  40.929   1.934
39784W        W 3541  25.183  24.522   2.768
39785W        W 3542  39.843  37.461  11.468
39786W        W 3543   6.214  27.586   2.829
39787W        W 3544  14.783  19.640  11.546
39788W        W 3545  42.491  27.023   2.179
39789W        W 3546  36.354  20.226  14.287
39790W        W 3547  32.454  39.427  14.764
39791W        W 3548  44.272  32.413   3.193
39792W        W 3549  33.942  17.757   0.378
39793W        W 3550  42.894   9.670  13.063
39794W        W 3551  34.452  34.504  10.904
39795W        W 3552  31.491  26.007   0.286
39796W        W 3553   9.333  20.097   5.288
39797W        W 3554  26.158  26.485  11.076
39798W        W 3555  24.005  16.645  10.975
39799W        W 3556  16.240  11.731  13.999
39800W        W 3557  43.432  24.043  13.835
39801W        W 3558  42.323  10.153  11.375
39802W        W 3559   9.369   9.286  13.369
39803W        W 3560  31.985  40.360  12.077
39804W        W 3561  11.675  31.073   1.908
39805W        W 3562   3.392  26.585  13.928
39806W        W 3563  29.454  16.214   2.704
39807W        W 3564  18.161  29.039  14.825
39808W        W 3565  34.864  36.545   2.833
39809W        W 3566  12.338  20.101   3.223
39810W        W 3567  40.949  22.543  12.536
39811W        W 3568  20.055   2.946   0.752
39812W        W 3569  25.085   4.294  11.947
39813W        W 3570   5.275  19.674  13.827
39814W        W 3571   7.264   5.769   2.386
39815W        W 3572  26.072  25.562   2.867
39816W        W 3573   5.839  22.640  14.473
39817W        W 3574  29.567  14.647  13.514
39818W        W 3575  25.090  36.569  10.439
39819W        W 3576  12.709  10.219  12.517
39820W        W 3577  29.991   6.425  11.052
39821W        W 3578  10.792  30.576   3.385
39822W        W 3579  26.027  10.170  11.114
39823W        W 3580  11.762  36.085   4.323
39824W        W 3581  15.602   3.280   2.289
39825W        W 3582  37.014  36.875  11.554
39826W        W 3583  40.978  24.596   2.768
39827W        W 3584  19.284   9.644   0.342
39828W        W 3585  35.103  20.713   4.774
39829W        W 3586  18.651  42.508   0.327
39830W        W 3587  33.041  15.269  10.952
39831W        W 3588   2.902   6.790   1.896
39832W        W 3589  22.247  31.585   2.723
39833W        W 3590  43.427   6.861   3.707
39834W        W 3591  11.268  32.432   3.836
39835W        W 3592  29.559  18.290  12.841
39836W        W 3593  37.070  22.529   1.809
39837W        W 3594   6.733  20.667  12.963
39838W        W 3595  15.753  38.345  11.573
39839W        W 3596  33.908  25.510  10.468
39840W        W 3597  17.221  20.146  10.543
39841W        W 3598  17.209  42.863   9.949
39842W        W 3599  24.508  22.680  14.902
39843W        W 3600  17.075  18.215  11.863
39844W        W 3601  21.261  29.556  11.950
39845W        W 3602  26.016  19.159  13.477
39846W        W 3603  37.574  19.163   4.658
39847W        W 3604  37.081   4.281  14.295
39848W        W 3605  18.547   3.846   3.717
39849W        W 3606  13.262  10.665  13.900
39850W        W 3607  13.135  15.206   1.696
39851W        W 3608  17.713  20.736  10.966
39852W        W 3609   5.339  16.780  11.492
39853W        W 3610  22.719   2.391   2.703
39854W        W 3611  41.407  28.116  13.033
39855W        W 3612   4.347  36.446   0.940
39856W        W 3613   9.852   0.851   4.597
39857W        W 3614  32.006   0.401  11.963
39858W        W 3615  30.965  33.948  13.324
39859W        W 3616  30.079  37.896   4.650
39860W        W 3617  17.633   3.230  14.290
39861W        W 3618  33.926  41.385  12.847
39862W        W 3619   0.342  27.602   3.299
39863W        W 3620   8.329  41.983   2.822
39864W        W 3621   4.821  17.583  11.108
39865W        W 3622  27.111  25.101   5.173
39866W        W 3623  41.830   1.399  13.526
39867W        W 3624  16.682  26.960   1.871
39868W        W 3625  13.285  21.631   3.647
39869W        W 3626  41.904  23.522  13.487
39870W        W 3627  13.708  35.421   3.672
39871W        W 3628  40.929  43.945  14.899
39872W        W 3629  26.617  35.866   2.313
39873W        W 3630  11.255  18.119   3.700
39874W        W 3631  40.851  42.846   2.721
39875W        W 3632   4.857  31.017   2.822
39876W        W 3633  37.507  31.003   2.395
39877W        W 3634  39.410   4.271   0.383
39878W        W 3635  23.643  16.257   1.874
39879W        W 3636  44.282  22.566  12.893
39880W        W 3637   3.223  14.109   9.969
39881W        W 3638  28.638  42.894   1.362
39882W        W 3639   3.794   3.812   2.857
39883W        W 3640   7.680  34.594  12.917
39884W        W 3641  31.418   3.418  14.786
39885W        W 3642   4.332   6.705   1.881
39886W        W 3643  40.343   2.838   1.347
39887W        W 3644   0.800  25.164   1.244
39888W        W 3645  24.981   7.270   1.708
39889W        W 3646  10.339  12.631   4.187
39890W        W 3647  18.236  10.318  12.999
39891W        W 3648   3.803   3.254  10.468
39892W        W 3649  41.826  22.158   4.178
39893W        W 3650   4.764  31.999  12.901
39894W        W 3651  24.614  18.197   1.717
39895W        W 3652   7.368  10.300  10.440
39896W        W 3653  42.989  37.458   4.728
39897W        W 3654   3.298  19.690   3.264
39898W        W 3655   0.376  19.145   0.743
39899W        W 3656   1.270  13.127   0.769
39900W        W 3657  33.543  39.360   3.831
39901W        W 3658  19.629  24.976   1.416
39902W        W 3659   8.810  40.442  13.003
39903W        W 3660  36.498   6.788   0.729
39904W        W 3661  21.054   9.371   2.278
39905W        W 3662  35.464  10.229   4.817
39906W        W 3663  30.589  43.984   3.652
39907W        W 3664  36.906   7.270  11.100
39908W        W 3665  35.600   8.257  13.343
39909W        W 3666  29.053  15.580  14.030
39910W        W 3667  40.803  36.966   0.353
39911W        W 3668  22.629  34.426  12.430
39912W        W 3669  34.070   4.370   0.405
39913W        W 3670  30.479  15.693  10.144
39914W        W 3671  35.470  30.916   4.282
39915W        W 3672   9.681  38.515   2.409
39916W        W 3673   4.420  38.978   4.715
39917W        W 3674  27.016  33.514   3.287
39918W        W 3675  19.168   7.674  12.543
39919W        W 3676  11.132  35.370  12.471
39920W        W 3677  44.889  35.534   3.161
39921W        W 3678  29.500  41.443  11.018
39922W        W 3679   2.851   0.327  14.308
39923W        W 3680   9.212  18.682   0.893
39924W        W 3681   7.246   6.890   3.374
39925W        W 3682  38.832  39.453  10.613
39926W        W 3683  27.612  40.922   3.242
39927W        W 3684  29.968  22.066  10.970
39928W        W 3685  39.822  29.919   3.771
39929W        W 3686  11.633   1.418  12.935
39930W        W 3687  21.617  41.041   3.356
39931W        W 3688   8.797  30.121   0.924
39932W        W 3689  20.644  31.627   0.930
39933W        W 3690  13.262  33.432  15.000
39934W        W 3691   3.299  10.663  13.015
39935W        W 3692  41.445  22.599  13.951
39936W        W 3693  12.163  39.875  11.495
39937W        W 3694  23.178  16.770   0.832
39938W        W 3695  36.974  35.403   0.851
39939W        W 3696  21.185  22.723   0.380
39940W        W 3697   0.755   1.460  10.476
39941W        W 3698  17.265  20.667   4.205
39942W        W 3699  20.226   3.223   1.793
39943W        W 3700   6.337   3.433  10.418
39944W        W 3701   4.728   2.459   4.219
39945W        W 3702   5.360  24.512   2.204
39946W        W 3703  43.431   3.265  13.538
39947W        W 3704  39.034  20.628  12.078
39948W        W 3705  34.897  30.011   4.331
39949W        W 3706  42.283  12.242  12.053
39950W        W 3707  30.597  12.268  11.070
39951W        W 3708   0.744  23.239  11.486
39952W        W 3709   6.845  25.505  12.861
39953W        W 3710  20.669  14.257  11.982
39954W        W 3711  11.663  15.715   1.878
39955W        W 3712  39.517  24.097  14.343
39956W        W 3713   6.846  11.782   3.179
39957W        W 3714  22.007  27.142  14.346
39958W        W 3715  17.801   3.216  12.495
39959W        W 3716  14.590  29.011   1.921
39960W        W 3717  38.917  32.932   4.670
39961W        W 3718  35.530  43.368  13.989
39962W        W 3719  23.097  26.160   2.776
39963W        W 3720  10.312  10.364   3.377
39964W        W 3721  34.597  13.199   2.672
39965W        W 3722   1.859  21.117  10.035
39966W        W 3723  17.065   9.194   2.356
39967W        W 3724  21.728  29.029  12.825
39968W        W 3725  10.357  20.766  10.541
39969W        W 3726  38.556  22.031   1.898
39970W        W 3727   4.362   8.811  14.500
39971W        W 3728   7.229  30.991  14.813
39972W        W 3729  13.194  12.208  11.436
39973W        W 3730   9.308  21.191  12.502
39974W        W 3731  32.892  24.228  12.965
39975W        W 3732  20.103  44.384  11.929
39976W        W 3733  39.818  10.241   1.348
39977W        W 3734  40.532  43.405  11.374
39978W        W 3735  12.133  40.030   1.762
39979W        W 3736  44.921  11.801  11.002
39980W        W 3737   9.361  44.903  14.454
39981W        W 3738  12.782  35.585  12.552
39982W        W 3739  24.195  11.721   2.243
39983W        W 3740   3.332  26.187   3.755
39984W        W 3741   8.672   6.413  13.022
39985W        W 3742  14.795  19.216  13.336
39986W        W 3743   7.358  14.202  12.909
39987W        W 3744  12.277   9.829   0.478
39988W        W 3745  25.061  41.938   0.822
39989W        W 3746  15.802  13.107   3.297
39990W        W 3747   3.809  27.001  14.003
39991W        W 3748  29.508   4.722   3.659
39992W        W 3749  12.269   0.255   3.273
39993W        W 3750  44.767  27.986  13.481
39994W        W 3751  36.507  29.669   2.328
39995W        W 3752  39.047  26.462   2.871
39996W        W 3753   3.373  41.468   4.634
39997W        W 3754  10.777  23.736  10.977
39998W        W 3755  24.536   9.205   1.304
39999W        W 3756  34.872   6.281   1.794
40000W        W 3757  41.392   9.348   2.249
40001W        W 3758   0.494  23.075  14.451
40002W        W 3759   9.824  30.018  12.915
40003W        W 3760  39.452  19.262  14.801
40004W        W 3761  38.039  10.825  12.889
40005W        W 3762  27.121   5.406  11.052
40006W        W 3763  41.017  35.502  12.912
40007W        W 3764  43.833  33.942   4.290
40008W        W 3765   7.696   5.756  12.041
40009W        W 3766  36.053  43.886  14.310
40010W        W 3767  23.100  23.152  11.064
40011W        W 3768  10.822   2.459   2.757
40012W        W 3769   9.739  20.767   3.206
40013W        W 3770  11.172  31.972   1.741
40014W        W 3771  28.936  37.400  12.364
40015W        W 3772  40.362   2.785  13.806
40016W        W 3773  39.842  22.613   3.859
40017W        W 3774   3.782   4.908   2.712
40018W        W 3775   1.768   4.302  11.128
40019W        W 3776  23.633  30.557  10.925
40020W        W 3777  43.766  41.460  13.484
40021W        W 3778  37.364  22.545  13.362
40022W        W 3779  41.344  18.180  10.472
40023W        W 3780  36.451  40.419   4.159
40024W        W 3781  25.694  34.082  12.578
40025W        W 3782  19.248  30.994  14.441
40026W        W 3783  15.113  27.650   1.373
40027W        W 3784  32.041  15.689  10.084
40028W        W 3785  32.904  21.735  11.125
40029W        W 3786  38.911  12.813  13.860
40030W        W 3787  36.419  20.641  14.305
40031W        W 3788  41.478  39.448   0.382
40032W        W 3789  19.111  33.118   2.392
40033W        W 3790   5.195  11.767   0.938
40034W        W 3791   3.924   2.909   0.956
40035W        W 3792   7.883  27.668  12.418
40036W        W 3793   1.792  32.107   0.921
40037W        W 3794  25.191  24.548   0.804
40038W        W 3795  14.641  14.710   4.215
40039W        W 3796  37.467  11.136  11.563
40040W        W 3797  39.423  22.681  14.283
40041W        W 3798  39.826   8.335   4.772
40042W        W 3799   5.739  16.783  12.843
40043W        W 3800  28.155  37.044   1.793
40044W        W 3801  17.575  36.961  14.959
40045W        W 3802  16.583   2.958   4.679
40046W        W 3803  21.546   2.327   3.685
40047W        W 3804  12.626  19.779   2.787
40048W        W 3805   0.820   0.361  10.549
40049W        W 3806  42.880  36.855   1.801
40050W        W 3807  43.342   7.230  14.779
40051W        W 3808  24.480  24.519   4.165
40052W        W 3809  16.085  10.828  12.864
40053W        W 3810  40.535   7.706  13.504
40054W        W 3811  23.702  17.250   1.320
40055W        W 3812  38.368  20.140  12.024
40056W        W 3813  40.386  15.107  12.454
40057W        W 3814  41.932  35.091   0.316
40058W        W 3815  44.451   8.195   2.717
40059W        W 3816  44.324  33.045   0.428
40060W        W 3817  11.793  42.368  10.589
40061W        W 3818  37.426  44.811   0.256
40062W        W 3819  36.859  21.180   1.772
40063W        W 3820   6.273   4.725   1.216
40064W        W 3821  22.995  12.131   4.640
40065W        W 3822  39.060  38.067   2.268
40066W        W 3823   7.389   6.710  10.596
40067W        W 3824  40.395  26.104   4.756
40068W        W 3825  21.587  20.193   3.681
40069W        W 3826  16.108   7.184   3.774
40070W        W 3827  16.753  18.192  12.077
40071W        W 3828  43.433  18.116  14.838
40072W        W 3829  35.970  41.399   1.891
40073W        W 3830  44.802  38.828   4.737
40074W        W 3831  24.620  22.527  11.496
40075W        W 3832  11.849  21.596   1.888
40076W        W 3833  20.031  21.044   3.794
40077W        W 3834  21.072  31.125  14.276
40078W        W 3835   6.183  13.266  14.500
40079W        W 3836  10.356  43.304  12.449
40080W        W 3837   5.338  33.045  14.469
40081W        W 3838  39.037  37.996  10.604
40082W        W 3839  29.031  21.068  12.408
40083W        W 3840   5.368  37.942   4.598
40084W        W 3841  44.868   0.819  13.473
40085W        W 3842  41.907  30.627  12.015
40086W        W 3843  12.716  23.639  14.940
40087W        W 3844   6.218  17.078  13.332
40088W        W 3845  16.179  12.633  12.403
40089W        W 3846  14.178  27.092   4.221
40090W        W 3847  27.462  32.125  12.856
40091W        W 3848  29.621  19.147  10.473
40092W        W 3849  26.661   8.723  14.954
40093W        W 3850  28.124  38.915   4.707
40094W        W 3851  40.328  11.278  13.824
40095W        W 3852  15.287   9.173   4.817
40096W        W 3853  34.537  33.472   3.352
40097W        W 3854  39.893  21.612   0.273
40098W        W 3855  40.418  25.140  14.002
40099W        W 3856  33.383   8.700   3.213
40100W        W 3857  29.061  39.001  14.410
40101W        W 3858   7.295  11.703  11.084
40102W        W 3859   4.881  30.597  10.074
40103W        W 3860  27.478  38.548   2.899
40104W        W 3861  10.148  39.547   1.341
40105W        W 3862  38.888  23.661  10.964
40106W        W 3863  18.181  20.059   1.266
40107W        W 3864  11.283  25.708  13.466
40108W        W 3865  34.471  27.128   5.796
40109W        W 3866  19.559   4.349  11.985
40110W        W 3867  29.136  42.978   3.276
40111W        W 3868  25.213   8.715  12.399
40112W        W 3869  25.614  28.589  14.906
40113W        W 3870   6.688   9.211   1.879
40114W        W 3871  22.605  26.987  10.474
40115W        W 3872   5.879  28.144   0.364
40116W        W 3873  13.185  28.169  13.989
40117W        W 3874  30.015   6.736   0.254
40118W        W 3875  14.279  10.182  12.018
40119W        W 3876   8.832  36.539  10.928
40120W        W 3877  35.944   3.407  12.508
40121W        W 3878  32.485  27.518  12.496
40122W        W 3879  17.294  38.450  10.956
40123W        W 3880  27.637  27.989   0.454
40124W        W 3881  30.413  41.432  11.609
40125W        W 3882  29.148  35.433   3.182
40126W        W 3883  29.124  18.291   4.256
40127W        W 3884  27.525  43.322  14.760
40128W        W 3885  10.679  27.158  10.594
40129W        W 3886   4.760  40.418   4.771
40130W        W 3887  31.458  21.133  13.844
40131W        W 3888   1.468  16.313  14.772
40132W        W 3889  20.166  32.585  11.442
40133W        W 3890  42.374  31.933  10.991
40134W        W 3891   1.388  30.096  14.015
40135W        W 3892  17.599  24.700  11.871
40136W        W 3893   5.344  25.582  14.492
40137W        W 3894  27.131   0.424   3.288
40138W        W 3895   7.871   4.805  11.876
40139W        W 3896   2.852  16.724  14.970
40140W        W 3897  44.396   2.369   3.311
40141W        W 3898  34.394  10.266   0.781
40142W        W 3899   0.478   2.360   4.253
40143W        W 3900  35.922   2.265  14.831
40144W        W 3901  41.958  39.439   3.720
40145W        W 3902  36.894  26.127   3.802
40146W        W 3903   2.948  19.614   0.891
40147W        W 3904   8.340   4.753   2.727
40148W        W 3905  24.113  10.373   1.710
40149W        W 3906   5.687  17.233   2.348
40150W        W 3907  34.872  25.140   2.892
40151W        W 3908  26.473  26.081  14.383
40152W        W 3909  44.442   6.296   1.852
40153W        W 3910  17.219   1.477  10.138
40154W        W 3911  42.427  23.546  11.909
40155W        W 3912  25.058   2.459   4.262
40156W        W 3913  20.686   4.366   2.873
40157W        W 3914  29.428  38.423   3.363
40158W        W 3915  29.484  34.551  14.814
40159W        W 3916  12.303  21.207  13.039
40160W        W 3917  15.793  25.993  12.386
40161W        W 3918  14.808  22.116   3.813
40162W        W 3919  22.564  25.045   2.358
40163W        W 3920  23.167  11.328   2.713
40164W        W 3921  30.108  43.381  12.954
40165W        W 3922  29.055  41.365   3.830
40166W        W 3923  14.319  18.222  13.392
40167W        W 3924   7.774  36.575   4.326
40168W        W 3925  18.056  11.201   5.220
40169W        W 3926  25.047  18.293  13.334
40170W        W 3927  26.109  21.090   4.198
40171W        W 3928  34.476  28.182  12.394
40172W        W 3929  34.377  14.331  11.525
40173W        W 3930  26.501  15.621   3.856
40174W        W 3931  17.682  32.413  14.004
40175W        W 3932  40.867   2.748  10.096
40176W        W 3933  13.289   1.447   1.868
40177W        W 3934  21.626  20.652   1.432
40178W        W 3935  42.808  28.960  14.352
40179W        W 3936  44.887  38.366  13.314
40180W        W 3937  21.217  39.323  13.941
40181W        W 3938   2.832   9.388  14.874
40182W        W 3939  38.986  13.188  11.918
40183W        W 3940  17.151   0.314  11.030
40184W        W 3941  43.281  27.994   2.853
40185W        W 3942  29.600  37.554  10.577
40186W        W 3943  35.930  29.133   0.814
40187W        W 3944   6.361  33.487   5.179
40188W        W 3945  37.018   5.315   2.283
40189W        W 3946  27.120  22.708   2.247
40190W        W 3947  21.741   7.373  10.453
40191W        W 3948  43.429  19.735  14.446
40192W        W 3949   3.883  44.496   0.413
40193W        W 3950  26.696   9.300   1.404
40194W        W 3951   4.269  43.875   4.640
40195W        W 3952  10.843   3.765   4.603
40196W        W 3953  12.265  38.003   0.816
40197W        W 3954  15.653  28.591   3.644
40198W        W 3955  24.160   1.796   9.982
40199W        W 3956  15.715   9.653  12.023
40200W        W 3957   1.831  31.134   3.774
40201W        W 3958  35.101  22.152   4.640
40202W        W 3959   3.252   3.323   3.731
40203W        W 3960  18.194  24.523  14.774
40204W        W 3961  29.483  23.217   1.357
40205W        W 3962  11.733  30.605  12.395
40206W        W 3963  28.492   4.870   1.897
40207W        W 3964  18.184  15.653   0.479
40208W        W 3965  23.661  14.737   4.327
40209W        W 3966  44.383  27.522   2.214
40210W        W 3967  31.078  13.649   4.785
40211W        W 3968  13.197  20.254   3.216
40212W        W 3969  40.541  29.450   3.798
40213W        W 3970  29.043  20.207  11.050
40214W        W 3971  44.282  11.280  11.453
40215W        W 3972   1.955   6.404   4.631
40216W        W 3973  17.267  37.910   3.369
40217W        W 3974   3.824  18.695   5.260
40218W        W 3975  24.678  38.965   3.672
40219W        W 3976   0.932  12.312  14.929
40220W        W 3977  20.244  39.390  12.498
40221W        W 3978  43.432   4.390  11.981
40222W        W 3979  34.425  39.406   3.684
40223W        W 3980  35.947  21.707  12.461
40224W        W 3981  29.426  27.004  14.447
40225W        W 3982  24.481  11.373   3.856
40226W        W 3983  38.457  16.773   3.868
40227W        W 3984  26.174  16.179  12.967
40228W        W 3985  24.556  13.728   1.908
40229W        W 3986  29.940  41.521  11.115
40230W        W 3987  41.478  25.690   4.186
40231W        W 3988  23.634   3.835   3.744
40232W        W 3989  35.585  29.614   1.427
40233W        W 3990  25.511  20.744  10.537
40234W        W 3991  33.940   9.862   3.311
40235W        W 3992  25.023  11.314   4.350
40236W        W 3993  44.801  41.509   1.868
40237W        W 3994  44.283  18.583  10.548
40238W        W 3995  29.080  18.750   2.294
40239W        W 3996  38.349  41.824   3.709
40240W        W 3997  43.947  29.654  11.019
40241W        W 3998  27.544  42.972  11.991
40242W        W 3999  15.694  32.513   1.384
40243W        W 4000  44.293   9.848   2.767
40244W        W 4001  18.295  27.633   2.352
40245W        W 4002  33.027   0.476   2.304
40246W        W 4003   9.657  29.668  12.904
40247W        W 4004  38.380  24.561   3.335
40248W        W 4005  20.222   5.386  11.873
40249W        W 4006   0.942   3.364   4.771
40250W        W 4007  17.171  35.880  12.557
40251W        W 4008  13.787  34.093  10.979
40252W        W 4009  28.509  10.192  12.550
40253W        W 4010  30.563  23.068   2.669
40254W        W 4011  25.124  18.779   4.114
40255W        W 4012  43.405   0.259   3.741
40256W        W 4013  17.204  11.696  10.085
40257W        W 4014   3.919  26.484   9.928
40258W        W 4015  25.627   0.959   2.822
40259W        W 4016  37.937  23.008  13.811
40260W        W 4017  10.714  30.091   3.773
40261W        W 4018  25.543  25.964  13.319
40262W        W 4019  15.623  26.155  11.118
40263W        W 4020   6.205  33.610  14.287
40264W        W 4021  25.142  25.686   2.683
40265W        W 4022   8.167  24.504  11.532
40266W        W 4023  33.454   4.714  10.582
40267W        W 4024  12.158  31.130  13.475
40268W        W 4025  29.494  13.832   3.387
40269W        W 4026  25.090  17.617   2.767
40270W        W 4027  44.321  35.481   4.601
40271W        W 4028  25.100  35.516  14.303
40272W        W 4029  37.559  37.413  14.506
40273W        W 4030  31.539  27.150   3.824
40274W        W 4031  43.430  17.155   9.941
40275W        W 4032  43.367  24.227  10.490
40276W        W 4033  16.260  25.595  11.433
40277W        W 4034   1.239  39.433  11.522
40278W        W 4035  29.637  23.571   3.675
40279W        W 4036   3.403   2.246   5.138
40280W        W 4037  10.203   2.926   0.282
40281W        W 4038  32.104  34.484  14.864
40282W        W 4039  40.346  15.805  12.948
40283W        W 4040   3.397  40.862  10.560
40284W        W 4041   6.767  43.499   0.839
40285W        W 4042  13.145  13.710   3.344
40286W        W 4043  10.639  12.773   2.191
40287W        W 4044  39.929   2.940   1.810
40288W        W 4045  16.742  17.278  13.425
40289W        W 4046  16.079  32.104   4.647
40290W        W 4047  38.838   4.893  12.469
40291W        W 4048  22.212  44.799   3.273
40292W        W 4049  36.453  27.484  11.571
40293W        W 4050  32.504   6.717  14.320
40294W        W 4051   9.354   1.800  11.450
40295W        W 4052  30.520  13.762   4.690
40296W        W 4053  34.062  44.781  11.596
40297W        W 4054  21.126  22.154   1.304
40298W        W 4055  29.570   6.243   1.263
40299W        W 4056  14.164  37.412   3.689
40300W        W 4057  31.969  42.419  12.400
40301W        W 4058  23.173  32.972  14.302
40302W        W 4059  44.760  14.161   0.261
40303W        W 4060   2.255  14.630   0.471
40304W        W 4061  28.566  12.216  10.618
40305W        W 4062   2.805  22.110   4.609
40306W        W 4063   0.396  37.548   1.813
40307W        W 4064  23.660   7.200   2.792
40308W        W 4065  32.087  19.058  11.971
40309W        W 4066   0.757  33.922   0.260
40310W        W 4067  26.170  10.762  14.397
40311W        W 4068   4.374  12.710   0.295
40312W        W 4069  28.661   6.761   3.177
40313W        W 4070   7.900  38.468  10.912
40314W        W 4071  38.954   6.817  11.444
40315W        W 4072  32.976  34.548  12.965
40316W        W 4073  40.877  30.565  14.860
40317W        W 4074  13.676   3.774   2.780
40318W        W 4075  19.059  11.302  14.500
40319W        W 4076  27.077  33.599  14.461
40320W        W 4077  37.832  12.802  13.418
40321W        W 4078  27.613  19.188  14.284
40322W        W 4079  33.932   9.374  14.790
40323W        W 4080  24.165  39.951   3.235
40324W        W 4081   6.698  22.636   1.335
40325W        W 4082   2.899  17.638  13.018
40326W        W 4083  24.660   4.257  11.597
40327W        W 4084  15.587  26.580   4.190
40328W        W 4085   9.214  13.630   4.707
40329W        W 4086  27.447  15.651  11.410
40330W        W 4087   9.813  27.678   0.807
40331W        W 4088   8.289  36.886  11.544
40332W        W 4089  43.281   0.804   0.906
40333W        W 4090  12.778  32.101   3.669
40334W        W 4091  39.813  30.545  12.379
40335W        W 4092   0.769  18.576   2.271
40336W        W 4093  20.747   9.354   0.766
40337W        W 4094   7.238   7.666   2.800
40338W        W 4095  21.582  22.085   4.807
40339W        W 4096  24.074   5.439   2.261
40340W        W 4097  17.682   1.770  12.040
40341W        W 4098  36.432   0.292  11.404
40342W        W 4099  37.075  18.212   1.446
40343W        W 4100  41.032  44.335   4.288
40344W        W 4101  37.389  37.967  11.492
40345W        W 4102  12.736   4.410  10.553
40346W        W 4103   7.701  39.841  12.485
40347W        W 4104  14.174   0.906  14.820
40348W        W 4105  27.509  41.428   4.656
40349W        W 4106  20.132  20.529  14.772
40350W        W 4107   2.843   8.847   1.893
40351W        W 4108  22.727  24.143   4.227
40352W        W 4109  33.059  19.271  13.495
40353W        W 4110  23.147  17.156   1.411
40354W        W 4111   1.880  30.148   0.927
40355W        W 4112   4.945  37.418  13.849
40356W        W 4113  12.277  28.175  14.404
40357W        W 4114  12.737  41.866   0.866
40358W        W 4115   9.745  37.883  13.010
40359W        W 4116  11.742   7.729   4.280
40360W        W 4117  12.195  21.236  14.490
40361W        W 4118  26.477  13.188   0.405
40362W        W 4119  13.825  39.333   2.293
40363W        W 4120   7.191  15.329   4.606
40364W        W 4121  10.304  14.611   4.298
40365W        W 4122  14.213  41.916   0.420
40366W        W 4123  40.330  10.362   3.340
40367W        W 4124  28.446  27.966  11.074
40368W        W 4125  34.016  24.483   0.428
40369W        W 4126  35.040  12.182  14.458
40370W        W 4127  32.988  30.164   9.624
40371W        W 4128  43.809  44.911  14.843
40372W        W 4129  11.838  38.377  10.129
40373W        W 4130  24.130  23.046  11.946
40374W        W 4131  44.923  12.803  14.922
40375W        W 4132  40.534  33.423  11.402
40376W        W 4133   6.793  22.248   2.361
40377W        W 4134  19.050  16.116   1.332
40378W        W 4135  35.920   4.926   1.804
40379W        W 4136  27.122  41.409   2.372
40380W        W 4137  25.149  33.428  11.937
40381W        W 4138  30.020  10.662  13.059
40382W        W 4139  37.974  11.735   1.920
40383W        W 4140  33.106  23.561   1.817
40384W        W 4141  27.017  12.196  12.019
40385W        W 4142  32.915  40.817   2.693
40386W        W 4143   0.958  36.085   2.397
40387W        W 4144   6.833  32.118   4.692
40388W        W 4145  14.646  29.649  10.110
40389W        W 4146  34.580  11.187   4.741
40390W        W 4147  12.766  24.592  10.913
40391W        W 4148  17.067  15.791  14.354
40392W        W 4149   0.920  42.018   1.422
40393W        W 4150  29.147  22.143   9.675
40394W        W 4151  29.632   7.859   0.859
40395W        W 4152   8.666  39.437   4.780
40396W        W 4153   9.304   5.725   3.266
40397W        W 4154  41.812   2.838  14.012
40398W        W 4155  22.537  12.257   0.905
40399W        W 4156  26.651  37.502  10.624
40400W        W 4157  25.016  27.664   2.391
40401W        W 4158  31.426  26.603   4.746
40402W        W 4159  22.047  35.569   1.307
40403W        W 4160  21.121   3.713   3.739
40404W        W 4161  30.146  35.423  10.503
40405W        W 4162   4.282  39.499   2.316
40406W        W 4163  11.853  39.819   3.224
40407W        W 4164  37.950   5.216  14.384
40408W        W 4165  15.328  22.220   2.687
40409W        W 4166   5.216  11.672  14.432
40410W        W 4167  44.435  30.511  10.140
40411W        W 4168  28.995  22.713  10.977
40412W        W 4169  18.680  17.302   4.634
40413W        W 4170  42.924  18.092  13.323
40414W        W 4171  42.865  11.863   1.358
40415W        W 4172  12.831  14.655  11.933
40416W        W 4173  43.868   4.337   1.244
40417W        W 4174  39.533  37.515   3.699
40418W        W 4175  21.652  12.664   2.314
40419W        W 4176  18.729  37.440   2.803
40420W        W 4177  26.537  13.802  12.012
40421W        W 4178  22.007   7.320  10.502
40422W        W 4179  15.086  28.548   0.829
40423W        W 4180  12.227  44.839  14.350
40424W        W 4181  41.519  22.528  12.995
40425W        W 4182  31.477  12.254  12.536
40426W        W 4183   9.352  12.833   0.828
40427W        W 4184  28.012  22.184  12.871
40428W        W 4185  37.453  36.910   0.876
40429W        W 4186   7.793  43.343  13.398
40430W        W 4187  16.096  24.519  11.494
40431W        W 4188  43.993   5.764  14.849
40432W        W 4189  39.505   8.683   2.183
40433W        W 4190  12.751  13.140  11.903
40434W        W 4191  27.526  16.682  14.331
40435W        W 4192  43.812  18.705   4.599
40436W        W 4193  35.946  25.568   1.883
40437W        W 4194  14.299   1.848  13.348
40438W        W 4195  17.277  44.424   1.823
40439W        W 4196  19.580   3.330  12.480
40440W        W 4197  29.464   0.918  11.094
40441W        W 4198   2.735  12.307  14.511
40442W        W 4199  34.930  31.624   2.886
40443W        W 4200  33.893  31.457   3.778
40444W        W 4201  16.198  31.447   0.286
40445W        W 4202  39.832  43.896  13.442
40446W        W 4203  29.064   5.354  11.461
40447W        W 4204  20.208  12.170   5.205
40448W        W 4205  36.355  31.037   4.814
40449W        W 4206  30.438   0.985   1.382
40450W        W 4207  15.254   0.824  12.410
40451W        W 4208   2.370  10.188   2.715
40452W        W 4209  16.745   4.862  11.512
40453W        W 4210  42.375   9.704   0.303
40454W        W 4211  30.431  31.058   3.660
40455W        W 4212  26.131  33.055   4.140
40456W        W 4213  34.927   7.852  12.444
40457W        W 4214  18.255  37.533   2.376
40458W        W 4215  39.516  40.341   0.422
40459W        W 4216  25.130  21.737  14.790
40460W        W 4217  17.274  10.696  13.805
40461W        W 4218  14.244  37.501   2.323
40462W        W 4219   8.687   1.958   4.227
40463W        W 4220  11.629  25.574  12.971
40464W        W 4221   5.332   2.240   1.872
40465W        W 4222  32.962  38.458  12.919
40466W        W 4223  41.306  20.572  11.108
40467W        W 4224   1.799   5.428   4.618
40468W        W 4225   0.910  13.166   4.324
40469W        W 4226  23.604  44.833  12.986
40470W        W 4227  11.347   5.410  10.522
40471W        W 4228   1.417   8.363  10.591
40472W        W 4229  36.405   2.281  11.386
40473W        W 4230  41.873   5.906  13.853
40474W        W 4231  28.442   9.218   4.710
40475W        W 4232  17.121   6.744  14.896
40476W        W 4233  44.942  30.461   3.821
40477W        W 4234   6.393  12.624  12.910
40478W        W 4235  40.403  25.181  10.080
40479W        W 4236  25.070  30.491  13.359
40480W        W 4237  15.174  27.566   3.308
40481W        W 4238  30.549   3.837   3.856
40482W        W 4239   1.441  26.533  12.041
40483W        W 4240  35.493  13.172  13.010
40484W        W 4241   1.863  20.701  11.944
40485W        W 4242  39.998  32.611  12.892
40486W        W 4243  20.136  18.237  14.921
40487W        W 4244   7.870  18.703  12.060
40488W        W 4245  19.739  33.572  12.082
40489W        W 4246  33.912  39.921  12.921
40490W        W 4247   0.444  14.124  13.384
40491W        W 4248  27.179  35.585  11.383
40492W        W 4249  29.512  24.592  12.358
40493W        W 4250   0.958   5.896   3.298
40494W        W 4251  31.102  44.836   3.630
40495W        W 4252  18.632  24.186   3.675
40496W        W 4253  18.130  21.162   1.908
40497W        W 4254  17.692  41.906   0.835
40498W        W 4255  21.022   2.840  12.824
40499W        W 4256  24.196   4.240   3.837
40500W        W 4257  15.145  10.731  14.773
40501W        W 4258  34.569  42.888  11.023
40502W        W 4259   6.809  21.126   2.318
40503W        W 4260  23.077  23.062   1.355
40504W        W 4261  15.600   2.420   2.271
40505W        W 4262  36.947  23.089  13.411
40506W        W 4263  32.445  14.742  12.516
40507W        W 4264  42.317  28.603   0.424
40508W        W 4265  31.054  25.166  13.473
40509W        W 4266  36.904  44.798  14.484
40510W        W 4267   4.272  13.236   4.646
40511W        W 4268  11.866  34.881  13.838
40512W        W 4269   2.812  21.188  11.580
40513W        W 4270   6.186  12.631   4.139
40514W        W 4271  44.877  28.069   2.264
40515W        W 4272  39.959  32.142   2.185
40516W        W 4273  15.815   5.375   4.143
40517W        W 4274   6.294  41.445  11.472
40518W        W 4275  27.649   5.425  11.065
40519W        W 4276   6.801  10.150   1.874
40520W        W 4277  27.582  19.541   1.823
40521W        W 4278  13.655   9.359  12.487
40522W        W 4279   5.375  26.668   1.927
40523W        W 4280  23.550   0.494   2.188
40524W        W 4281  39.341  43.816   1.377
40525W        W 4282  33.404  42.904   1.919
40526W        W 4283  11.181   7.730  12.004
40527W        W 4284   5.924   5.796  11.962
40528W        W 4285   4.382   3.420   4.689
40529W        W 4286  33.948  32.058  11.073
40530W        W 4287  19.723  31.499   2.247
40531W        W 4288  16.242  34.568   2.416
40532W        W 4289  43.962  27.546   1.312
40533W        W 4290  14.696  23.021   0.367
40534W        W 4291   6.411  14.605   0.951
40535W        W 4292  13.252   6.783   0.801
40536W        W 4293  29.663  11.754  11.865
40537W        W 4294   8.724  40.999   0.739
40538W        W 4295  19.776  11.817   2.195
40539W        W 4296   6.270  17.082   0.928
40540W        W 4297  11.819  44.009  13.435
40541W        W 4298  17.176  15.590   4.724
40542W        W 4299  20.263  37.485   4.189
40543W        W 4300   7.328  36.445  11.124
40544W        W 4301  22.610  27.638   3.826
40545W        W 4302  41.447  33.111   3.323
40546W        W 4303  13.699  24.024  10.898
40547W        W 4304  37.420  42.870   4.829
40548W        W 4305  38.539  33.959   4.610
40549W        W 4306  25.473  37.535   0.276
40550W        W 4307  43.989  23.021   3.265
40551W        W 4308  16.672  43.985   3.772
40552W        W 4309  19.630  31.416  12.527
40553W        W 4310  21.163   6.361  14.400
40554W        W 4311  21.698  13.146   3.320
40555W        W 4312  28.068  23.667  14.456
40556W        W 4313   1.408  18.247   3.827
40557W        W 4314  17.555  12.833   1.711
40558W        W 4315  29.125  32.136   2.390
40559W        W 4316  37.832  16.661  11.489
40560W        W 4317  25.629  10.869   4.220
40561W        W 4318  15.768  38.561   4.166
40562W        W 4319   5.193  30.966   4.602
40563W        W 4320  19.644  17.235   5.295
40564W        W 4321  41.325  34.117   0.392
40565W        W 4322  44.406  11.823   0.786
40566W        W 4323  43.388  12.163  13.528
40567W        W 4324  25.096  41.885  13.481
40568W        W 4325  20.262  44.953   1.916
40569W        W 4326  17.636  26.525  11.607
40570W        W 4327  15.165  16.690  12.373
40571W        W 4328  44.333  41.897   4.229
40572W        W 4329  41.951  38.513   0.360
40573W        W 4330  26.508   3.327  11.391
40574W        W 4331  17.635  38.356  12.951
40575W        W 4332  15.744  35.561   1.738
40576W        W 4333  37.425   9.262   0.839
40577W        W 4334  36.036  34.600  10.581
40578W        W 4335  29.660  36.576   2.305
40579W        W 4336  23.004  29.175   3.153
40580W        W 4337   7.829   3.791   0.431
40581W        W 4338  33.924   5.378  12.973
40582W        W 4339  12.808  22.534  10.537
40583W        W 4340  33.080   9.252  14.478
40584W        W 4341  43.461  11.810  10.891
40585W        W 4342  21.715  25.138  10.957
40586W        W 4343  31.995  24.560   2.319
40587W        W 4344  27.563  16.602  13.041
40588W        W 4345  11.299  23.203  13.880
40589W        W 4346  31.001   1.870   0.735
40590W        W 4347  30.538  19.636  13.819
40591W        W 4348  35.472   2.812   0.888
40592W        W 4349  32.478  30.924  11.540
40593W        W 4350  29.576  42.385  11.020
40594W        W 4351  41.890  36.850  10.623
40595W        W 4352  11.818  10.706   2.235
40596W        W 4353   1.769   4.768   0.426
40597W        W 4354  21.163   8.267   1.912
40598W        W 4355  17.106   6.921  12.946
40599W        W 4356  16.590  42.882   1.752
40600W        W 4357  40.510  32.398  12.475
40601W        W 4358  19.705  21.536   1.820
40602W        W 4359  38.355   6.720  11.568
40603W        W 4360  36.098  42.836  10.937
40604W        W 4361  35.471   8.343   0.310
40605W        W 4362  21.224   1.831  12.960
40606W        W 4363  25.576   0.369  14.858
40607W        W 4364   4.426  43.954  11.458
40608W        W 4365   4.407  36.453  10.457
40609W        W 4366  11.665  39.015  13.018
40610W        W 4367  42.024   6.746  14.966
40611W        W 4368   2.426   7.387  12.456
40612W        W 4369  25.134  35.482   4.148
40613W        W 4370  18.758  33.963   1.350
40614W        W 4371  18.736  40.866  14.766
40615W        W 4372   7.715   5.194  11.933
40616W        W 4373  18.686  42.461   3.373
40617W        W 4374  15.731   0.815  12.997
40618W        W 4375   7.765   4.322   1.836
40619W        W 4376  34.596  18.622  13.517
40620W        W 4377  34.457  22.217  10.415
40621W        W 4378  41.942  13.662  12.557
40622W        W 4379  18.638   7.357   2.232
40623W        W 4380  13.343   8.176  14.445
40624W        W 4381   9.859  24.066  14.780
40625W        W 4382  41.422   2.940   3.164
40626W        W 4383  43.997  28.590   0.747
40627W        W 4384  40.364   7.832   2.386
40628W        W 4385  13.130  35.525   3.372
40629W        W 4386  34.490  43.287   2.247
40630W        W 4387  33.578  38.876  10.976
40631W        W 4388  28.169  43.344   4.650
40632W        W 4389   5.731   9.381   4.622
40633W        W 4390   8.378  43.489  13.406
40634W        W 4391  19.646  13.797   3.684
40635W        W 4392  42.480  43.939   4.314
40636W        W 4393  36.964  31.406   3.787
40637W        W 4394  39.988   4.317  13.953
40638W        W 4395  20.752  29.071   0.476
40639W        W 4396  26.060   8.376  12.520
40640W        W 4397  12.851  32.094   0.389
40641W        W 4398   3.341  14.285  12.553
40642W        W 4399  30.476  15.769   4.738
40643W        W 4400  28.178  42.374  11.917
40644W        W 4401  41.315  35.102   0.867
40645W        W 4402  33.018  24.127   1.893
40646W        W 4403  43.779  11.754   0.355
40647W        W 4404  36.424  28.017  10.972
40648W        W 4405   9.833  29.605   2.869
40649W        W 4406  23.626  25.602  14.463
40650W        W 4407  41.953   8.714  14.511
40651W        W 4408  11.858  32.915   1.714
40652W        W 4409  26.115  17.143  12.040
40653W        W 4410  30.122   3.291   3.715
40654W        W 4411   6.296   9.217  13.363
40655W        W 4412  19.207   4.292   0.837
40656W        W 4413  40.982  31.552   2.758
40657W        W 4414  33.439  12.837  14.392
40658W        W 4415  17.172  36.916  10.999
40659W        W 4416  36.009  30.078  10.497
40660W        W 4417   5.793  31.109  14.017
40661W        W 4418  12.642  12.789  10.932
40662W        W 4419  21.562  26.001  11.415
40663W        W 4420  11.175  38.436  11.464
40664W        W 4421   0.857  44.425   0.929
40665W        W 4422   7.312   1.332   2.764
40666W        W 4423  37.902   0.950  14.352
40667W        W 4424  31.074   0.803  10.993
40668W        W 4425  33.545  14.238  12.371
40669W        W 4426  37.507  40.053   3.383
40670W        W 4427  28.678  43.870  11.518
40671W        W 4428   2.720  35.493  11.012
40672W        W 4429  33.563   2.892   3.178
40673W        W 4430  32.101  33.623   4.772
40674W        W 4431  13.177  23.237  13.997
40675W        W 4432  28.098  20.646   3.364
40676W        W 4433  36.848  10.792  11.453
40677W        W 4434  34.902   8.810   2.844
40678W        W 4435  30.424  41.470  13.824
40679W        W 4436  34.075   8.866   0.372
40680W        W 4437  44.803  32.890   4.673
40681W        W 4438  37.391  31.642  12.895
40682W        W 4439  35.859  41.995  11.392
40683W        W 4440  11.773  22.022   3.193
40684W        W 4441   6.348  44.432   4.679
40685W        W 4442   9.182  10.372   3.854
40686W        W 4443   6.399  41.443   3.213
40687W        W 4444  31.907   5.705  14.357
40688W        W 4445   7.901  40.828   9.989
40689W        W 4446  12.234  37.919  11.866
40690W        W 4447  38.507  41.508   2.215
40691W        W 4448  37.990  23.990   0.753
40692W        W 4449  40.461   6.922  10.598
40693W        W 4450  37.871   5.381  11.515
40694W        W 4451  28.075  35.918  11.409
40695W        W 4452  15.591  14.151  13.496
40696W        W 4453  13.622  11.241  13.334
40697W        W 4454  15.086   8.820  10.988
40698W        W 4455   0.366  13.210  14.836
40699W        W 4456  20.114  43.365   2.353
40700W        W 4457  20.533  39.339  11.090
40701W        W 4458  35.573  26.976   2.833
40702W        W 4459   0.967   1.971  12.908
40703W        W 4460  22.211  43.434   3.636
40704W        W 4461  44.919  29.150   1.254
40705W        W 4462  43.477  28.118   0.452
40706W        W 4463  29.084  17.142   9.968
40707W        W 4464  29.476  43.795  10.437
40708W        W 4465  32.598  42.032  11.547
40709W        W 4466   8.683   4.737  10.970
40710W        W 4467   1.802  37.480  12.550
40711W        W 4468   4.850  15.325  14.491
40712W        W 4469  14.298   4.737   9.965
40713W        W 4470  20.588  39.017  10.018
40714W        W 4471   5.299   2.846   0.385
40715W        W 4472  26.678  23.116   3.789
40716W        W 4473  16.147  30.002  12.899
40717W        W 4474   7.248  21.247   5.297
40718W        W 4475  10.245  35.557   4.786
40719W        W 4476  25.595  30.525   0.791
40720W        W 4477  38.847  20.565  10.514
40721W        W 4478  18.550  11.176   2.803
40722W        W 4479  27.572   4.403   4.121
40723W        W 4480  16.201   9.878  11.099
40724W        W 4481  39.022  37.024  14.431
40725W        W 4482   0.489   6.799   2.373
40726W        W 4483  39.358   4.872  13.514
40727W        W 4484  17.778  39.340   0.951
40728W        W 4485  25.989  18.648   1.259
40729W        W 4486  29.662   2.890  12.090
40730W        W 4487   5.876  26.042  14.798
40731W        W 4488  10.276  34.934   5.159
40732W        W 4489  14.153  22.225  14.486
40733W        W 4490  44.975  42.416   1.265
40734W        W 4491  29.426  20.747  13.926
40735W        W 4492   9.243   9.727   1.701
40736W        W 4493  31.006   7.306  12.931
40737W        W 4494  12.753   0.771   2.265
40738W        W 4495  44.286  18.098   4.251
40739W        W 4496  41.354  34.558  14.779
40740W        W 4497  43.002  29.606  13.858
40741W        W 4498  19.160   5.360   1.844
40742W        W 4499  43.922  33.489  13.504
40743W        W 4500   2.737  44.458   2.704
40744W        W 4501  29.618  34.064  10.550
40745W        W 4502  44.836  17.157   3.816
40746W        W 4503  37.983  10.840   0.363
40747W        W 4504  42.425  23.586   1.714
40748W        W 4505   5.290  28.547   3.277
40749W        W 4506   3.896  28.436   4.249
40750W        W 4507  39.031  20.675  10.897
40751W        W 4508  37.562  10.692  13.435
40752W        W 4509   7.323   9.329   3.177
40753W        W 4510   6.408   3.306  12.869
40754W        W 4511  38.433  16.275  14.917
40755W        W 4512  40.807  13.350   2.262
40756W        W 4513  35.925  11.641  10.909
40757W        W 4514   7.329  35.493   0.918
40758W        W 4515   9.805  39.967   1.307
40759W        W 4516  23.133  11.828   1.717
40760W        W 4517  12.238  17.782  14.508
40761W        W 4518  41.470  31.037   4.789
40762W        W 4519   0.900  36.507  14.840
40763W        W 4520   9.801  33.055   1.836
40764W        W 4521  22.691   5.850  10.532
40765W        W 4522  21.607  19.548   5.108
40766W        W 4523  32.479   1.894   0.822
40767W        W 4524  23.686   7.693   3.386
40768W        W 4525  39.022   4.209   1.323
40769W        W 4526  38.852  44.933  14.808
40770W        W 4527  31.450  40.505  13.818
40771W        W 4528  19.669  43.406   2.702
40772W        W 4529  34.955  21.206  14.789
40773W        W 4530  12.673   8.734   4.635
40774W        W 4531   6.760  25.082   3.370
40775W        W 4532  17.158   4.905  11.866
40776W        W 4533  43.013  18.282   3.764
40777W        W 4534   2.460  17.227  11.074
40778W        W 4535  41.012  16.668  14.853
40779W        W 4536  30.096   8.405  12.060
40780W        W 4537  26.465  17.604   1.267
40781W        W 4538   7.372  29.615  14.467
40782W        W 4539  19.208   7.345  14.997
40783W        W 4540  24.162   4.706  10.035
40784W        W 4541   2.472  25.998  10.915
40785W        W 4542  44.786  42.981  10.552
40786W        W 4543  30.440   2.778  12.047
40787W        W 4544  13.321  21.685  13.313
40788W        W 4545  24.077  34.987  14.853
40789W        W 4546  34.895  28.061   3.706
40790W        W 4547  40.828   4.353   1.388
40791W        W 4548  26.658  24.478  14.807
40792W        W 4549  23.526  27.048   3.825
40793W        W 4550  22.668  24.620   4.283
40794W        W 4551  40.520  12.683  14.019
40795W        W 4552  18.260  40.810  13.026
40796W        W 4553   4.421  20.619  14.472
40797W        W 4554  43.375  18.113  10.506
40798W        W 4555  28.165  39.401  14.876
40799W        W 4556  42.889   6.734   3.284
40800W        W 4557   3.322  42.941   2.186
40801W        W 4558  39.816  27.110  14.821
40802W        W 4559  34.422  21.620  13.906
40803W        W 4560  12.205  21.566   4.624
40804W        W 4561  41.462  42.935   2.815
40805W        W 4562  26.462   0.365  11.920
40806W        W 4563   5.384  17.787   0.360
40807W        W 4564  21.173  13.622  12.933
40808W        W 4565   6.341  14.261  10.976
40809W        W 4566  10.776  24.609   4.331
40810W        W 4567   7.185  12.750   1.421
40811W        W 4568  17.640  28.138   2.862
40812W        W 4569  14.256  31.607  13.431
40813W        W 4570  37.426  17.244   1.714
40814W        W 4571  39.987   4.827   2.842
40815W        W 4572  42.880  40.491   0.282
40816W        W 4573   2.419  13.156   2.722
40817W        W 4574  13.186  29.148  13.463
40818W        W 4575   8.331  11.863   4.353
40819W        W 4576  36.553  19.280  11.870
40820W        W 4577   9.723   3.750  11.043
40821W        W 4578  16.299  19.751   1.858
40822W        W 4579  39.836  35.409   1.786
40823W        W 4580  31.071   9.830   2.876
40824W        W 4581   0.919  18.730   0.356
40825W        W 4582  38.387   2.780   2.260
40826W        W 4583   3.733  29.163   1.767
40827W        W 4584  27.951   9.212   2.312
40828W        W 4585   0.404  10.276   1.258
40829W        W 4586   6.226   7.899   1.709
40830W        W 4587   0.329  30.642   1.712
40831W        W 4588  42.814  39.484   0.961
40832W        W 4589  41.492  42.839  11.427
40833W        W 4590  35.481  34.602  11.060
40834W        W 4591  38.841   1.859  11.082
40835W        W 4592  38.902  23.204   1.746
40836W        W 4593  13.610  32.037   0.353
40837W        W 4594  29.053  40.019  12.005
40838W        W 4595   6.225  30.478   4.152
40839W        W 4596  38.008  32.393  14.439
40840W        W 4597  21.263  18.219   3.849
40841W        W 4598  27.639  28.470  14.406
40842W        W 4599  21.017  10.763  13.475
40843W        W 4600  23.195  12.709  12.053
40844W        W 4601   4.870  39.350   3.742
40845W        W 4602  17.294  42.342  11.883
40846W        W 4603  34.933  30.522  11.566
40847W        W 4604  27.132  24.209  14.995
40848W        W 4605  35.552   5.850  12.343
40849W        W 4606   5.287   9.310   3.838
40850W        W 4607  17.756  39.851  10.924
40851W        W 4608  32.082  27.940  13.314
40852W        W 4609  16.787  16.774   2.308
40853W        W 4610  40.534   0.818   1.705
40854W        W 4611  11.660  38.053  10.449
40855W        W 4612  40.532   7.731   5.291
40856W        W 4613  37.907  37.000  11.124
40857W        W 4614   7.276  20.212  14.817
40858W        W 4615  31.136  15.228   0.828
40859W        W 4616   1.911  43.455  14.516
40860W        W 4617   0.478  24.169   2.365
40861W        W 4618  20.745  35.550   3.369
40862W        W 4619  40.888   8.244   2.812
40863W        W 4620  16.764  26.990   2.254
40864W        W 4621   9.776  43.817  11.561
40865W        W 4622  36.443  41.516  13.835
40866W        W 4623  41.806  32.938   0.951
40867W        W 4624  43.852   6.337  11.882
40868W        W 4625  14.168   7.180   0.934
40869W        W 4626   0.370  38.486   0.251
40870W        W 4627  17.680  21.112  12.913
40871W        W 4628  19.188  36.457   5.788
40872W        W 4629  32.951  34.871  14.409
40873W        W 4630  17.738   0.415  13.328
40874W        W 4631  39.024  42.519   0.804
40875W        W 4632  35.028  36.908   3.751
40876W        W 4633  35.978   8.855  13.028
40877W        W 4634   0.478  31.090   3.260
40878W        W 4635   5.836  22.674   0.957
40879W        W 4636   4.434   1.251   4.674
40880W        W 4637   1.745  21.239   2.342
40881W        W 4638   4.274  19.199  10.552
40882W        W 4639  18.227  42.326  14.293
40883W        W 4640  23.143  23.501  14.812
40884W        W 4641  37.846  41.513  13.315
40885W        W 4642  19.703   4.809  12.064
40886W        W 4643  22.668   8.371  10.996
40887W        W 4644   4.347   8.830  11.506
40888W        W 4645  37.883  37.469   1.433
40889W        W 4646   6.209   3.254   0.750
40890W        W 4647  44.345  37.988  10.453
40891W        W 4648  22.151  26.988  13.000
40892W        W 4649  25.179   8.194   4.734
40893W        W 4650   8.273  10.196   4.790
40894W        W 4651   7.908  32.087  12.344
40895W        W 4652  10.879  11.210   0.819
40896W        W 4653  11.691  42.913  11.977
40897W        W 4654  11.207   9.152   0.789
40898W        W 4655  32.535  23.682   1.858
40899W        W 4656  10.207  32.428  14.465
40900W        W 4657  28.103  34.560  12.079
40901W        W 4658  18.711   8.855  10.638
40902W        W 4659  44.812  34.109  10.992
40903W        W 4660  19.080  17.619   4.214
40904W        W 4661  43.368  10.823   0.813
40905W        W 4662  16.648  22.597  12.500
40906W        W 4663   4.942  38.001   4.170
40907W        W 4664   4.320  44.852  10.590
40908W        W 4665  38.041   4.836  12.387
40909W        W 4666  22.689   8.726  13.866
40910W        W 4667  28.609  26.694   1.706
40911W        W 4668  16.708   4.336   3.755
40912W        W 4669  39.959  34.478  11.124
40913W        W 4670  23.553  42.971   1.367
40914W        W 4671   2.412  32.470   3.286
40915W        W 4672  10.812  32.408  12.452
40916W        W 4673  30.945  44.791  14.957
40917W        W 4674  14.697  16.688  14.409
40918W        W 4675   8.686   6.736   2.840
40919W        W 4676   7.367  10.354  12.451
40920W        W 4677  36.054  34.414  14.888
40921W        W 4678  13.640   5.783  14.931
40922W        W 4679  38.437  21.607   0.480
40923W        W 4680  27.197  25.161   3.252
40924W        W 4681  16.141  44.868   3.661
40925W        W 4682   4.716  16.647  11.105
40926W        W 4683  27.676   0.766   4.706
40927W        W 4684  14.745  15.121   4.663
40928W        W 4685  19.253  14.617  14.912
40929W        W 4686   8.826  44.505   3.357
40930W        W 4687  41.443  12.238   3.351
40931W        W 4688  17.272  37.362   1.718
40932W        W 4689  14.691   9.792  13.371
40933W        W 4690  41.418  15.760  10.970
40934W        W 4691  39.367  42.331  13.342
40935W        W 4692  17.602  13.248   2.864
40936W        W 4693  25.555  43.857  12.354
40937W        W 4694   9.263  44.407  10.121
40938W        W 4695  29.035  22.640   3.374
40939W        W 4696  36.925  35.080  11.857
40940W        W 4697  44.309  20.543   2.729
40941W        W 4698  35.439   7.859  12.931
40942W        W 4699  39.859  44.963  11.609
40943W        W 4700   1.805  26.468  11.027
40944W        W 4701  37.511  26.577   3.293
40945W        W 4702  27.476  18.628  12.917
40946W        W 4703   4.768  22.109   2.697
40947W        W 4704  31.541  39.485   1.928
40948W        W 4705  15.301  38.828  13.416
40949W        W 4706  19.265  16.733  12.957
40950W        W 4707  24.987   8.326   3.211
40951W        W 4708  10.279  34.417  11.595
40952W        W 4709   3.332  22.515  10.583
40953W        W 4710  20.681  23.515   3.782
40954W        W 4711  34.434  15.631   3.631
40955W        W 4712  22.704  31.416   3.196
40956W        W 4713  12.176  41.475   0.804
40957W        W 4714  26.206  28.596  11.888
40958W        W 4715  20.087  43.339   3.300
40959W        W 4716  37.361   5.921  14.424
40960W        W 4717  18.721  14.680  13.534
40961W        W 4718  27.674  14.706  11.874
40962W        W 4719  11.215  11.255  13.879
40963W        W 4720  19.080  41.802  10.998
40964W        W 4721  20.596  10.273   1.746
40965W        W 4722   6.261   5.872   0.828
40966W        W 4723  16.722  30.081   2.281
40967W        W 4724   0.850  35.026   4.825
40968W        W 4725  30.608   5.299  13.531
40969W        W 4726  44.931   2.386   3.348
40970W        W 4727  42.873  25.541   5.315
40971W        W 4728  39.521   1.914   0.417
40972W        W 4729  27.947  28.939  14.423
40973W        W 4730  33.395  34.605  10.500
40974W        W 4731   5.315  22.170  12.096
40975W        W 4732  31.611  38.350   1.932
40976W        W 4733  42.371  17.191  11.564
40977W        W 4734   6.735  14.680   3.730
40978W        W 4735  40.971  25.188   2.897
40979W        W 4736  11.682   5.787  14.957
40980W        W 4737  13.122   3.232  12.438
40981W        W 4738  11.643  25.112   3.209
40982W        W 4739  10.212  40.909   2.701
40983W        W 4740  21.082  11.660   1.892
40984W        W 4741  16.099  15.131  12.904
40985W        W 4742  19.627  17.265   4.820
40986W        W 4743  42.018  22.996  10.504
40987W        W 4744  15.304  15.656   4.727
40988W        W 4745  44.838   9.277   3.278
40989W        W 4746  30.538  13.293   3.318
40990W        W 4747   0.437  27.592   2.267
40991W        W 4748  29.627  36.589  14.843
40992W        W 4749  44.387  15.246  13.927
40993W        W 4750  43.327  11.367  12.535
40994W        W 4751  40.950  21.645  13.363
40995W        W 4752  15.102  30.463   2.902
40996W        W 4753   0.433  21.152  11.884
40997W        W 4754  17.658  32.885  10.556
40998W        W 4755  42.323  44.358  12.392
40999W        W 4756  29.561  39.547  12.514
41000W        W 4757  42.803  15.302   4.278
41001W        W 4758  40.820   9.689  11.507
41002W        W 4759  22.035  26.479   3.719
41003W        W 4760  24.114   8.402   3.647
41004W        W 4761  36.378  23.103  10.608
41005W        W 4762  26.106  43.463  10.964
41006W        W 4763  26.617  31.153   1.819
41007W        W 4764  42.965  38.064  12.525
41008W        W 4765  35.073  22.215   3.282
41009W        W 4766   4.421   7.683  14.389
41010W        W 4767   5.396  34.985   2.231
41011W        W 4768  33.111   9.149   3.206
41012W        W 4769  39.444  26.549   2.866
41013W        W 4770  39.490  10.276  13.025
41014W        W 4771  31.577  39.433  14.433
41015W        W 4772  29.632   0.325  12.979
41016W        W 4773   7.795  15.108  11.517
41017W        W 4774  41.342   0.847  11.448
41018W        W 4775  29.001  16.711  14.393
41019W        W 4776  30.073  39.499   1.798
41020W        W 4777   8.363  44.815   1.802
41021W        W 4778  16.192   0.344  11.057
41022W        W 4779  44.815  16.187  10.458
41023W        W 4780  21.579  12.740  12.992
41024W        W 4781  27.108  34.417  10.951
41025W        W 4782  14.244  26.668   0.751
41026W        W 4783  26.548   5.243   0.372
41027W        W 4784   8.716  33.878  12.838
41028W        W 4785  29.615  10.280  12.984
41029W        W 4786   8.723  13.192   3.363
41030W        W 4787  44.860   7.877  13.920
41031W        W 4788  22.576  22.088  11.416
41032W        W 4789  29.986  13.839  12.913
41033W        W 4790  11.636  12.315  12.461
41034W        W 4791  35.933  10.650   4.779
41035W        W 4792  42.378  12.827  14.510
41036W        W 4793  11.865  37.431  14.287
41037W        W 4794  17.089   3.280  10.637
41038W        W 4795   3.443   3.401  13.862
41039W        W 4796   3.390  16.163   3.739
41040W        W 4797   5.312   1.886  14.339
41041W        W 4798   7.408  14.218   4.216
41042W        W 4799  41.795   8.325   3.636
41043W        W 4800   4.841  21.232   3.148
41044W        W 4801   2.472  44.459   4.352
41045W        W 4802  24.515  13.844  12.091
41046W        W 4803  12.780   9.253   0.943
41047W        W 4804   2.434  23.180  12.524
41048W        W 4805  18.638  20.590   0.771
41049W        W 4806  15.814  16.659  10.416
41050W        W 4807  21.589  37.928  13.317
41051W        W 4808  14.204  27.633  10.515
41052W        W 4809  29.516   3.361  11.009
41053W        W 4810  35.096  41.949   4.342
41054W        W 4811  36.973   6.754  10.997
41055W        W 4812   7.783  42.377  14.283
41056W        W 4813   5.895  33.455  10.619
41057W        W 4814   7.683  37.933   2.735
41058W        W 4815  35.040  11.268   3.736
41059W        W 4816  35.444   2.824  11.493
41060W        W 4817  33.059   0.883  14.943
41061W        W 4818  14.279  17.633  12.050
41062W        W 4819  29.669  37.954  13.919
41063W        W 4820  14.316  12.822   1.304
41064W        W 4821  34.049  23.029   4.733
41065W        W 4822  44.413  35.470   1.314
41066W        W 4823  44.465   1.888  14.378
41067W        W 4824  13.766   3.330  13.802
41068W        W 4825  31.577   9.827  12.442
41069W        W 4826  43.341   3.428  10.640
41070W        W 4827  18.578  14.123  13.875
41071W        W 4828  31.534   8.171  12.090
41072W        W 4829  29.948  41.344   0.917
41073W        W 4830  32.436   8.345   3.853
41074W        W 4831  15.183  27.446  11.031
41075W        W 4832  23.209  11.137  14.327
41076W        W 4833  34.930   9.370   3.199
41077W        W 4834   2.737   5.925   2.852
41078W        W 4835  43.379  42.520   4.772
41079W        W 4836   9.340   5.874   4.160
41080W        W 4837   2.724  25.469   4.151
41081W        W 4838  38.912  25.975   1.925
41082W        W 4839  28.094  31.647  10.011
41083W        W 4840  22.247  27.508   2.874
41084W        W 4841   7.770   8.672   3.368
41085W        W 4842  30.945  19.552  12.901
41086W        W 4843  34.954  26.649   1.740
41087W        W 4844  15.622  24.485  12.949
41088W        W 4845  24.092  42.960  11.984
41089W        W 4846  37.920  37.987   0.279
41090W        W 4847   3.899   1.783   5.186
41091W        W 4848  17.101  27.971  13.330
41092W        W 4849  20.200   5.246   1.907
41093W        W 4850  36.976  30.435   1.728
41094W        W 4851  34.497  15.708  11.518
41095W        W 4852  18.269  21.071   0.821
41096W        W 4853  12.624  40.506  11.924
41097W        W 4854  14.256  16.303  13.875
41098W        W 4855  27.459   5.893   2.311
41099W        W 4856  19.070  40.856  14.423
41100W        W 4857  21.625  24.013   2.235
41101W        W 4858  43.329  14.132   1.214
41102W        W 4859  38.463  24.557  12.551
41103W        W 4860  32.988  10.286   4.635
41104W        W 4861  35.092  32.992  14.357
41105W        W 4862  33.930  34.077  13.809
41106W        W 4863  39.405  28.173  13.350
41107W        W 4864  43.953  22.728   2.861
41108W        W 4865   6.368  28.002  10.429
41109W        W 4866  36.080  18.759   5.131
41110W        W 4867  24.088  28.929   4.623
41111W        W 4868   4.902  23.632  10.143
41112W        W 4869  20.197  16.227   2.384
41113W        W 4870   6.863  41.038   3.669
41114W        W 4871  38.883  31.021   1.907
41115W        W 4872   8.325   8.334  14.393
41116W        W 4873  27.989  33.562  10.644
41117W        W 4874  26.462  43.367   3.855
41118W        W 4875  37.981   0.827   1.723
41119W        W 4876  21.059  29.569   4.780
41120W        W 4877  27.126  28.018  14.760
41121W        W 4878   5.353  13.760   1.310
41122W        W 4879  17.576  35.925  14.499
41123W        W 4880   1.286   1.431  10.454
41124W        W 4881  26.484  20.257   4.141
41125W        W 4882  21.617   6.818   2.826
41126W        W 4883  29.515   7.385  14.473
41127W        W 4884   9.209  41.004   3.854
41128W        W 4885  40.975  10.808  12.066
41129W        W 4886  30.635  15.746  12.442
41130W        W 4887  13.253   4.935  10.559
41131W        W 4888  36.514  42.964   2.851
41132W        W 4889  34.999  24.075  14.017
41133W        W 4890  27.984  27.098   1.854
41134W        W 4891   5.796   4.770  14.983
41135W        W 4892  13.341  27.681  11.070
41136W        W 4893  36.508   8.852  13.372
41137W        W 4894  38.870  44.309  11.598
41138W        W 4895  37.020  23.544   0.451
41139W        W 4896  32.891  36.053   4.715
41140W        W 4897  10.792  20.696   4.285
41141W        W 4898   6.917  17.746  11.986
41142W        W 4899   2.766  40.404  11.861
41143W        W 4900  14.811  22.536   4.834
41144W        W 4901  43.931  27.988  13.845
41145W        W 4902  28.508  11.311  11.401
41146W        W 4903  35.974  40.328  10.922
41147W        W 4904  10.765  29.578  14.850
41148W        W 4905  28.498   3.814   4.336
41149W        W 4906  24.017  37.388   3.852
41150W        W 4907   6.184  36.371   0.271
41151W        W 4908  18.108  11.133  12.918
41152W        W 4909  39.897  22.599   4.212
41153W        W 4910  20.633  25.661  14.866
41154W        W 4911   8.254  31.418   4.651
41155W        W 4912  34.103  13.814  11.972
41156W        W 4913  29.073  21.612  12.895
41157W        W 4914   4.235  17.293  10.893
41158W        W 4915  23.211  22.188   1.867
41159W        W 4916   1.733  38.862  14.305
41160W        W 4917  18.249  12.720   2.899
41161W        W 4918   4.785  27.553   0.739
41162W        W 4919  26.688  10.280  11.404
41163W        W 4920  17.228  36.851  10.139
41164W        W 4921  17.111   6.767   0.248
41165W        W 4922  19.110  31.561   0.803
41166W        W 4923  41.840  20.759   2.277
41167W        W 4924  40.429  19.606  14.306
41168W        W 4925   1.850  25.555  11.569
41169W        W 4926  41.865  41.470  14.484
41170W        W 4927  14.782   0.442  13.534
41171W        W 4928  23.035  40.349  14.804
41172W        W 4929  44.435  25.682  10.463
41173W        W 4930  43.876   1.839   2.828
41174W        W 4931  15.704   6.233  12.356
41175W        W 4932  37.337  21.160  12.935
41176W        W 4933   2.260  40.515  10.472
41177W        W 4934  32.053  28.082  12.384
41178W        W 4935  26.593   6.726   0.269
41179W        W 4936  40.529  25.091   0.421
41180W        W 4937  43.873  42.916   0.813
41181W        W 4938  30.110  13.328  13.418
41182W        W 4939  34.576  28.007   4.156
41183W        W 4940  38.025   7.192   4.176
41184W        W 4941   4.421   3.839   3.273
41185W        W 4942  41.998  33.510   3.706
41186W        W 4943  33.462   1.917   0.316
41187W        W 4944  28.038  39.471  12.495
41188W        W 4945  21.076  28.116   2.203
41189W        W 4946  40.847  33.988  12.066
41190W        W 4947  25.185   8.863   3.808
41191W        W 4948   4.428  17.299   0.399
41192W        W 4949  19.768  16.634   2.782
41193W        W 4950  36.352  38.952   2.279
41194W        W 4951  39.042  34.503   3.175
41195W        W 4952  15.308  20.160  12.003
41196W        W 4953   3.797  17.590  14.278
41197W        W 4954  22.544  29.948   0.783
41198W        W 4955  30.949  30.988  13.847
41199W        W 4956  21.736  28.533   3.248
41200W        W 4957  23.692  14.318   1.845
41201W        W 4958  11.851  10.848  12.905
41202W        W 4959  34.120  35.457  14.023
41203W        W 4960  36.932  21.199   0.449
41204W        W 4961  25.159   2.791   1.430
41205W        W 4962  21.640   3.898  11.986
41206W        W 4963  27.006  32.543  13.377
41207W        W 4964  14.306  37.520  10.930
41208W        W 4965  27.002  17.721   0.739
41209W        W 4966  44.262  29.933  12.379
41210W        W 4967  26.028  27.038  13.807
41211W        W 4968  13.320  42.907  11.486
41212W        W 4969  31.556  30.044   2.891
41213W        W 4970  13.842   0.265  12.928
41214W        W 4971  29.531  36.942  13.853
41215W        W 4972  36.532   1.356   1.827
41216W        W 4973  41.818  38.463   3.631
41217W        W 4974  31.423   4.746   4.252
41218W        W 4975   2.258  16.139   1.285
41219W        W 4976  28.601  41.869   0.958
41220W        W 4977  37.918   1.409   4.156
41221W        W 4978   8.224  11.356   3.843
41222W        W 4979   1.965   8.744   0.813
41223W        W 4980  30.155  36.879   2.225
41224W        W 4981  11.659  14.671   3.669
41225W        W 4982  28.601   5.862  14.907
41226W        W 4983  16.227  37.456   2.247
41227W        W 4984  34.094  39.545   3.235
41228W        W 4985  24.705  42.819  14.308
41229W        W 4986  29.982  37.902   3.634
41230W        W 4987  38.843  10.346   1.825
41231W        W 4988  20.752  37.962   2.305
41232W        W 4989   8.659  10.303  11.076
41233W        W 4990  15.144   5.222   4.318
41234W        W 4991   4.921  17.271  10.151
41235W        W 4992  12.152   9.750   0.823
41236W        W 4993  31.056   2.442   0.883
41237W        W 4994  20.054  37.420  11.985
41238W        W 4995  40.387  31.556  11.396
41239W        W 4996  18.068  34.482   1.918
41240W        W 4997  40.000  21.712  13.326
41241W        W 4998   8.718  18.240   1.874
41242W        W 4999  35.510  40.377  13.039
41243W        W 5000  29.633  31.542  14.486
41244W        W 5001   7.354   0.940  11.017
41245W        W 5002   6.307   3.299   3.710
41246W        W 5003  30.929  17.742  10.955
41247W        W 5004   7.296  43.298  14.898
41248W        W 5005  25.619  19.091  14.423
41249W        W 5006  22.218  20.131  12.379
41250W        W 5007  32.552  13.797   4.240
41251W        W 5008  41.480  26.162  12.344
41252W        W 5009  34.953  11.245  11.392
41253W        W 5010   2.456  37.874   1.320
41254W        W 5011  27.150  11.712  11.608
41255W        W 5012   5.306  41.884   2.273
41256W        W 5013  42.804  19.600   0.833
41257W        W 5014   9.656  31.443  14.856
41258W        W 5015  38.045  29.104   0.743
41259W        W 5016   3.336   8.210   1.282
41260W        W 5017  12.634  36.933   4.704
41261W        W 5018  19.090  11.793   3.196
41262W        W 5019  44.995  18.782  10.513
41263W        W 5020   7.250  28.542   2.787
41264W        W 5021  18.212  12.212   1.743
41265W        W 5022  42.898  44.794  13.939
41266W        W 5023   0.811   4.797  12.988
41267W        W 5024  29.603  19.039  11.432
41268W        W 5025   3.420  32.590   3.230
41269W        W 5026  32.142  40.949   4.164
41270W        W 5027  10.697   6.890  14.432
41271W        W 5028  17.672  23.599   2.673
41272W        W 5029  18.567  36.457   2.416
41273W        W 5030  23.102  15.091  12.999
41274W        W 5031  35.473  20.551   2.347
41275W        W 5032  11.846  29.055  13.907
41276W        W 5033  36.947   7.776  10.582
41277W        W 5034   3.793  22.060   1.812
41278W        W 5035  17.731  21.188  11.588
41279W        W 5036   4.226   8.234  12.494
41280W        W 5037  32.040  39.850  11.952
41281W        W 5038  33.025  33.910   0.472
41282W        W 5039  44.793  27.604  12.485
41283W        W 5040  33.496   0.399   4.733
41284W        W 5041  10.204  31.109   4.228
41285W        W 5042  16.704  10.707   2.679
41286W        W 5043  23.675   1.362   1.707
41287W        W 5044  16.741  16.581  12.413
41288W        W 5045  14.229  13.829  10.911
41289W        W 5046  21.693  31.115   2.665
41290W        W 5047  14.158  13.699   2.184
41291W        W 5048  42.989  23.080   2.256
41292W        W 5049   7.344  15.653   4.723
41293W        W 5050   9.213  22.636  14.351
41294W        W 5051  28.441  14.704   0.738
41295W        W 5052   6.289  18.547   0.391
41296W        W 5053   1.862   8.204   2.687
41297W        W 5054  24.720  10.234  10.475
41298W        W 5055  40.517  12.159  13.371
41299W        W 5056  14.216  16.295  11.996
41300W        W 5057   5.927   8.725  11.601
41301W        W 5058  38.053   5.874   2.749
41302W        W 5059  34.371  34.604   0.340
41303W        W 5060  30.449  34.389  12.878
41304W        W 5061   1.392   7.210   1.241
41305W        W 5062  39.948  42.918   2.351
41306W        W 5063  12.290  10.142  12.563
41307W        W 5064  19.113  36.455  14.511
41308W        W 5065  39.862  31.473  10.982
41309W        W 5066  18.544  14.165   3.633
41310W        W 5067  35.521  30.138  10.482
41311W        W 5068   6.677  29.164   3.752
41312W        W 5069  18.056  35.086   1.333
41313W        W 5070  21.575  34.078  13.498
41314W        W 5071  15.096   6.841   4.759
41315W        W 5072  20.673  22.128  12.081
41316W        W 5073  29.545  13.842  11.023
41317W        W 5074  16.756  29.924   3.192
41318W        W 5075  41.921  12.244  13.397
41319W        W 5076  31.500  25.635  12.042
41320W        W 5077  39.864  13.794  11.075
41321W        W 5078  44.839  11.771   3.722
41322W        W 5079  27.065  15.270   2.265
41323W        W 5080  11.687  33.120  10.039
41324W        W 5081  16.088  27.509   4.718
41325W        W 5082  25.637  43.969  12.041
41326W        W 5083  44.904   7.382   4.345
41327W        W 5084  19.212   7.777   0.419
41328W        W 5085   2.379  33.540  10.525
41329W        W 5086  27.022   6.858   4.196
41330W        W 5087  44.493   8.786   1.338
41331W        W 5088  44.487   2.924  11.406
41332W        W 5089  35.430  37.459   0.886
41333W        W 5090  38.457  31.495  11.524
41334W        W 5091  15.692   6.426  11.083
41335W        W 5092  34.439  35.425   4.753
41336W        W 5093  30.044  18.078  11.925
41337W        W 5094  42.379   9.740   1.771
41338W        W 5095  30.447  27.109  14.759
41339W        W 5096  38.354  43.480   4.821
41340W        W 5097  14.711  16.219  13.325
41341W        W 5098  10.715  17.707   4.825
41342W        W 5099  36.959   5.272   3.736
41343W        W 5100  11.244  11.364  14.301
41344W        W 5101  29.106  23.995   1.853
41345W        W 5102   7.840  27.547   0.838
41346W        W 5103  30.158  26.019  14.783
41347W        W 5104   0.345  19.684   3.169
41348W        W 5105  30.064  26.459   2.752
41349W        W 5106  24.142   5.264  11.968
41350W        W 5107   8.288  19.080   0.909
41351W        W 5108   1.952  28.457   0.473
41352W        W 5109  24.656  11.656  11.936
41353W        W 5110  33.122  37.569  10.456
41354W        W 5111  37.448  34.026  10.575
41355W        W 5112   0.458  21.174  10.551
41356W        W 5113  27.493  36.943  14.851
41357W        W 5114   4.868  33.599   0.740
41358W        W 5115  15.649  16.314   0.389
41359W        W 5116  24.705   6.333  14.895
41360W        W 5117  11.680  41.869   0.368
41361W        W 5118  10.757  43.811   1.385
41362W        W 5119  12.239  23.706  12.899
41363W        W 5120   9.330  37.467  13.454
41364W        W 5121   4.391   3.801   2.814
41365W        W 5122  43.302  19.044  12.990
41366W        W 5123  23.092  40.824   4.815
41367W        W 5124  33.906  17.725   1.216
41368W        W 5125  42.858   0.823  10.556
41369W        W 5126  11.627  30.018   2.393
41370W        W 5127   3.215   6.706   3.687
41371W        W 5128   4.350  29.028   1.781
41372W        W 5129  24.144   4.403  13.045
41373W        W 5130  42.003  19.077   3.210
41374W        W 5131  14.811  26.540   2.311
41375W        W 5132  41.301  21.142  13.383
41376W        W 5133  30.146  27.122   3.844
41377W        W 5134   1.805  27.446   4.236
41378W        W 5135  25.146  12.329   3.334
41379W        W 5136  36.428  25.005  10.441
41380W        W 5137  11.699  20.761   3.310
41381W        W 5138  42.779  31.429  11.393
41382W        W 5139  23.726  16.739   4.169
41383W        W 5140  15.323  16.160   9.640
41384W        W 5141  39.921  44.976   4.748
41385W        W 5142  13.272   6.410  11.558
41386W        W 5143  41.827  17.612  12.997
41387W        W 5144  15.672  10.310   5.130
41388W        W 5145  13.185  40.836   2.373
41389W        W 5146   3.236  41.920   4.179
41390W        W 5147  36.375  29.516  14.394
41391W        W 5148  32.599  33.432  13.379
41392W        W 5149  19.605  37.495   9.996
41393W        W 5150   5.215   9.796   0.438
41394W        W 5151  27.106  14.781   3.290
41395W        W 5152  25.209  28.520  13.954
41396W        W 5153  10.384  13.348   2.389
41397W        W 5154   4.780  13.145  12.527
41398W        W 5155  21.628  21.515  12.937
41399W        W 5156  14.634  42.361   4.812
41400W        W 5157  34.084  15.149  11.564
41401W        W 5158  41.908   2.294   1.703
41402W        W 5159  11.311   3.346  10.610
41403W        W 5160   7.270  21.090  12.450
41404W        W 5161  30.610  31.998  13.927
41405W        W 5162  31.127   3.874  13.044
41406W        W 5163  29.967  40.847   4.175
41407W        W 5164   4.313  31.957  10.454
41408W        W 5165  24.118   6.368   5.232
41409W        W 5166  13.700   1.408   2.710
41410W        W 5167  38.538  30.633   2.868
41411W        W 5168  19.198  20.612   2.900
41412W        W 5169   0.908  42.953   4.680
41413W        W 5170  12.844  34.049   0.874
41414W        W 5171  27.190   9.220  13.852
41415W        W 5172  15.207  38.933  14.359
41416W        W 5173  35.967  25.513   4.118
41417W        W 5174  13.322  35.929   4.206
41418W        W 5175  13.245   4.381   3.354
41419W        W 5176   7.878   2.340   4.616
41420W        W 5177   0.759   6.889  10.535
41421W        W 5178   6.213  11.168  12.515
41422W        W 5179   6.864   5.292   1.712
41423W        W 5180   4.232  25.623   1.855
41424W        W 5181  40.909  19.648  13.440
41425W        W 5182  10.798   8.842   3.723
41426W        W 5183  15.143  44.866  14.401
41427W        W 5184  40.042   3.261  12.944
41428W        W 5185  30.085   5.434  10.125
41429W        W 5186  22.067  34.538  13.453
41430W        W 5187   3.395  25.126  11.087
41431W        W 5188  33.952  37.481   0.423
41432W        W 5189  21.080  12.766  13.445
41433W        W 5190  38.844  36.062  12.871
41434W        W 5191  41.810  20.186  13.029
41435W        W 5192  24.078  28.051  10.988
41436W        W 5193  12.692  33.451  13.802
41437W        W 5194  21.067   0.254  12.903
41438W        W 5195   8.871  17.591  11.975
41439W        W 5196   3.802  18.570  11.456
41440W        W 5197   8.296  25.095   0.901
41441W        W 5198   6.826  18.596  14.483
41442W        W 5199  19.171  13.796  13.029
41443W        W 5200  13.642  19.168  12.020
41444W        W 5201   5.913   7.417  10.906
41445W        W 5202   1.412   7.297  11.070
41446W        W 5203   4.260  27.033   1.801
41447W        W 5204  11.257  12.825  11.391
41448W        W 5205  14.696  20.736   2.266
41449W        W 5206  22.530  25.079  14.919
41450W        W 5207  15.241  36.548  14.915
41451W        W 5208   2.235  31.432   2.832
41452W        W 5209  26.130   2.412  10.466
41453W        W 5210  21.166  29.128   0.257
41454W        W 5211  33.089  42.286   3.220
41455W        W 5212  28.631  15.643  11.859
41456W        W 5213  19.549   4.792   4.275
41457W        W 5214  14.637  32.100  13.024
41458W        W 5215  11.654  12.659   3.221
41459W        W 5216  18.106  35.521  10.051
41460W        W 5217  26.123  32.038   0.336
41461W        W 5218  38.824  11.666   0.429
41462W        W 5219  21.047  31.572  14.939
41463W        W 5220  40.043   2.465   4.114
41464W        W 5221  18.067   3.320   3.371
41465W        W 5222  28.942  39.988   4.209
41466W        W 5223  43.783  13.203  10.471
41467W        W 5224   2.738  18.571  14.029
41468W        W 5225  44.415  21.637   4.606
41469W        W 5226   2.755  26.126   0.751
41470W        W 5227  15.744  30.518  13.309
41471W        W 5228  30.433  20.107  14.290
41472W        W 5229   1.910  34.865   2.708
41473W        W 5230  36.991  11.663   2.212
41474W        W 5231  44.979  14.102   1.871
41475W        W 5232  34.519  21.679  14.995
41476W        W 5233   9.743  19.539   3.291
41477W        W 5234  20.619  40.349  11.869
41478W        W 5235  30.587  16.725  14.946
41479W        W 5236  27.088  14.616  12.341
41480W        W 5237  23.539  13.262  13.330
41481W        W 5238   1.474  38.037  10.552
41482W        W 5239  18.693  20.643  13.365
41483W        W 5240  43.851   9.239   2.665
41484W        W 5241  24.704  35.008   0.282
41485W        W 5242  33.619  32.125  13.315
41486W        W 5243   5.380  20.070  14.392
41487W        W 5244   7.783  35.036   0.420
41488W        W 5245  25.649   9.659   2.903
41489W        W 5246   7.207  43.284   1.694
41490W        W 5247  27.597  10.217   3.656
41491W        W 5248   4.883  33.423   2.664
41492W        W 5249  16.611   8.221   1.425
41493W        W 5250  26.516   4.738  14.464
41494W        W 5251  29.033  34.111  13.870
41495W        W 5252  12.734  43.843   3.747
41496W        W 5253   9.297  42.516   0.908
41497W        W 5254  40.494  30.560  13.342
41498W        W 5255   7.881  26.690  12.450
41499W        W 5256   5.716  26.478   2.273
41500W        W 5257  10.659   1.379  11.559
41501W        W 5258  44.338   0.886  11.019
41502W        W 5259   8.786   4.869   2.894
41503W        W 5260  18.189  43.507   0.905
41504W        W 5261  34.023  28.620   2.806
41505W        W 5262  20.695   2.756   0.411
41506W        W 5263  31.924  18.641   1.844
41507W        W 5264  13.296  28.085   3.779
41508W        W 5265  19.544  37.930   3.262
41509W        W 5266  33.438  29.574   5.285
41510W        W 5267  25.180  26.056   0.864
41511W        W 5268   9.178  14.743   3.648
41512W        W 5269  35.867  14.768  11.922
41513W        W 5270  10.832  28.975  13.037
41514W        W 5271  13.276  43.301  14.407
41515W        W 5272   0.277  34.514  13.922
41516W        W 5273  11.349  18.075   0.964
41517W        W 5274   3.880   3.948   4.304
41518W        W 5275  19.663   5.308  12.928
41519W        W 5276  27.036   7.286   2.883
41520W        W 5277  30.080  34.542   2.793
41521W        W 5278   2.342  31.403   2.206
41522W        W 5279  44.800  31.069   0.864
41523W        W 5280  43.864  17.242   1.327
41524W        W 5281  13.191  24.580  13.038
41525W        W 5282  21.114  32.936   0.479
41526W        W 5283   8.334  30.001   4.353
41527W        W 5284   6.816  28.508  12.998
41528W        W 5285  13.601  29.610   1.872
41529W        W 5286   4.873  19.751  14.482
41530W        W 5287  44.955  40.452  14.791
41531W        W 5288  38.964  15.322   4.632
41532W        W 5289  30.583   7.395   2.863
41533W        W 5290  39.551  30.157  13.057
41534W        W 5291  37.897  38.551  11.509
41535W        W 5292  28.596  42.320  12.088
41536W        W 5293   7.727  26.596   2.197
41537W        W 5294  11.851   2.404  13.823
41538W        W 5295  22.717   0.866   3.786
41539W        W 5296  17.087  21.139   0.275
41540W        W 5297   2.764  24.528   4.165
41541W        W 5298  42.022  18.684   0.293
41542W        W 5299  10.326  39.440  13.899
41543W        W 5300  22.138  31.033  13.041
41544W        W 5301   1.791   7.760  11.889
41545W        W 5302  20.248  42.389  14.284
41546W        W 5303  19.046  42.286   3.385
41547W        W 5304  41.449   9.215  11.901
41548W        W 5305  24.056  20.706  14.941
41549W        W 5306  28.153   2.787   3.650
41550W        W 5307  32.581  12.763  12.037
41551W        W 5308  31.409  18.652  13.412
41552W        W 5309  21.520  29.461  11.062
41553W        W 5310   4.890  31.647  14.841
41554W        W 5311   1.747  14.764   1.418
41555W        W 5312  33.605  44.315  14.413
41556W        W 5313  35.864  20.144   2.312
41557W        W 5314  29.987  38.453   4.835
41558W        W 5315  22.591  43.463   1.697
41559W        W 5316   3.931  24.711  14.370
41560W        W 5317  44.487  14.104  11.543
41561W        W 5318  23.504  27.109   3.353
41562W        W 5319  28.142   6.695  12.911
41563W        W 5320  24.181  15.086  13.335
41564W        W 5321  16.587   7.293  12.549
41565W        W 5322  37.515  43.361   3.147
41566W        W 5323  13.714   1.964  11.543
41567W        W 5324  22.229   2.281   4.644
41568W        W 5325  14.643   4.897   2.359
41569W        W 5326   4.272  26.961   3.641
41570W        W 5327  40.911  39.449  13.862
41571W        W 5328  13.294   4.371  11.976
41572W        W 5329  32.587   0.453   2.699
41573W        W 5330  26.960  28.993   0.849
41574W        W 5331  29.587  11.165   3.215
41575W        W 5332  39.521   8.382   2.272
41576W        W 5333  33.554  41.029  10.577
41577W        W 5334  42.862   3.333   4.789
41578W        W 5335   9.725   5.318  13.420
41579W        W 5336  31.582  43.429  14.854
41580W        W 5337  17.155   6.909   0.847
41581W        W 5338  24.169  43.976  13.494
41582W        W 5339  28.464  30.973   3.332
41583W        W 5340  17.793  22.615   2.778
41584W        W 5341  44.295  12.324   5.220
41585W        W 5342   6.684   3.321  14.378
41586W        W 5343  14.161   7.842  10.516
41587W        W 5344  21.020  26.159  14.445
41588W        W 5345  28.618  20.207  12.496
41589W        W 5346  21.250  35.539   5.228
41590W        W 5347  29.444  10.745  12.879
41591W        W 5348  42.294   8.700  12.093
41592W        W 5349  18.604  30.648   4.152
41593W        W 5350  41.862  42.835  13.901
41594W        W 5351  22.997  31.108   3.840
41595W        W 5352  25.534  39.542   1.872
41596W        W 5353  33.571  20.252  14.981
41597W        W 5354  29.463  32.451   4.713
41598W        W 5355  19.746   8.198   2.222
41599W        W 5356  25.612   3.225  14.299
41600W        W 5357  39.885  43.908   0.356
41601W        W 5358  10.749  19.564   3.251
41602W        W 5359  43.432   7.912  13.328
41603W        W 5360  31.047   6.737  11.009
41604W        W 5361  41.997  23.110   3.230
41605W        W 5362  10.140   6.856   0.331
41606W        W 5363  13.820  40.800  14.282
41607W        W 5364  15.696  13.267  12.555
41608W        W 5365  16.643   8.377  12.825
41609W        W 5366  11.707   6.717  12.551
41610W        W 5367  35.570   0.257   0.275
41611W        W 5368   2.268   7.207  10.010
41612W        W 5369  42.891  30.050  12.044
41613W        W 5370  35.903  30.087   4.305
41614W        W 5371  13.679  22.588  12.556
41615W        W 5372  15.722  26.579  10.563
41616W        W 5373  29.528  10.270   4.238
41617W        W 5374  26.992   4.750  13.495
41618W        W 5375  26.639  44.300   0.255
41619W        W 5376  42.838  24.164  12.480
41620W        W 5377  19.719  14.148  13.895
41621W        W 5378  22.136  30.125  12.465
41622W        W 5379  41.017  25.194   4.203
41623W        W 5380  10.163  28.017  13.426
41624W        W 5381  29.963  12.151  11.381
41625W        W 5382  39.895  26.985  11.579
41626W        W 5383  44.410   8.190   3.709
41627W        W 5384  43.403  33.974  11.990
41628W        W 5385  43.300   7.808  14.489
41629W        W 5386  31.606   4.437   1.761
41630W        W 5387  24.190  28.568   3.271
41631W        W 5388   9.848   1.769   2.812
41632W        W 5389  42.969  42.288   4.833
41633W        W 5390  12.669  29.429   0.815
41634W        W 5391  19.243  38.363   3.831
41635W        W 5392  31.465  39.840  12.392
41636W        W 5393  19.250  13.742   4.135
41637W        W 5394   2.918  11.373  12.528
41638W        W 5395  34.924  44.336   9.979
41639W        W 5396  19.208  40.905   4.267
41640W        W 5397  15.276   7.704  11.040
41641W        W 5398  10.307  41.976  14.768
41642W        W 5399  24.029  30.919  14.457
41643W        W 5400  36.873   2.776  14.449
41644W        W 5401  18.153  22.090   1.867
41645W        W 5402   8.200  33.601   2.413
41646W        W 5403  20.145  26.990   0.465
41647W        W 5404  15.170  18.223   4.602
41648W        W 5405   1.753  27.980   3.353
41649W        W 5406  36.560   2.884   0.853
41650W        W 5407   5.715  43.824   0.762
41651W        W 5408  18.087   8.697  14.792
41652W        W 5409   4.712  42.823  12.426
41653W        W 5410  30.956  26.683   5.113
41654W        W 5411  23.079   8.696  13.472
41655W        W 5412  29.061  44.898   3.176
41656W        W 5413   2.443  36.405   0.737
41657W        W 5414  32.097  22.089  13.399
41658W        W 5415   2.269   1.866   4.798
41659W        W 5416   6.737  21.625   1.322
41660W        W 5417  14.157  13.305   5.244
41661W        W 5418  41.008  42.351   3.693
41662W        W 5419  41.322  12.355  13.483
41663W        W 5420  32.457  30.499  11.442
41664W        W 5421  13.738  13.767   2.402
41665W        W 5422  24.642  27.672  14.933
41666W        W 5423  30.973  33.109  12.850
41667W        W 5424  14.826   3.719  12.425
41668W        W 5425  20.598  10.728  11.454
41669W        W 5426  36.446  40.387   3.281
41670W        W 5427  25.539   5.872  11.609
41671W        W 5428  16.146  18.174  14.515
41672W        W 5429  11.240  41.432   1.325
41673W        W 5430  18.270  29.053  11.050
41674W        W 5431  33.030   7.711  12.463
41675W        W 5432  26.541   2.417  14.349
41676W        W 5433  41.387  35.581  10.569
41677W        W 5434  37.019  10.787  11.090
41678W        W 5435  23.004  42.950   0.920
41679W        W 5436  18.091  39.859  13.331
41680W        W 5437   5.887  32.113   0.782
41681W        W 5438   0.391   0.799   3.302
41682W        W 5439  11.774  18.783   0.879
41683W        W 5440  26.564  33.055  10.405
41684W        W 5441  15.106  20.707  14.485
41685W        W 5442  40.505  16.245   2.248
41686W        W 5443  30.460  43.271  12.891
41687W        W 5444   7.349  20.125   3.184
41688W        W 5445  31.445  14.658  11.051
41689W        W 5446  18.050  40.546   0.262
41690W        W 5447  41.434   7.688   1.277
41691W        W 5448  41.808  36.426   0.456
41692W        W 5449  23.138  12.311   3.148
41693W        W 5450  14.177  23.641  13.060
41694W        W 5451   3.795  13.640  14.361
41695W        W 5452   4.889   8.323   1.846
41696W        W 5453  20.226  37.381  14.029
41697W        W 5454  17.148  29.051   3.219
41698W        W 5455   0.252  38.515  11.610
41699W        W 5456   0.820   7.805  13.548
41700W        W 5457  34.030   5.202  13.919
41701W        W 5458  26.199  11.661  11.572
41702W        W 5459  15.739   1.767   1.300
41703W        W 5460   1.374  32.096  10.459
41704W        W 5461   0.861   3.848   2.763
41705W        W 5462  29.466  29.626  13.027
41706W        W 5463  23.530  32.601   4.197
41707W        W 5464  39.894  39.535   1.352
41708W        W 5465  16.706   8.197   0.891
41709W        W 5466   5.240   0.352  13.810
41710W        W 5467  20.730  17.800  11.933
41711W        W 5468  30.960  26.649  13.854
41712W        W 5469  15.792  36.842  13.796
41713W        W 5470  18.558  29.439  13.307
41714W        W 5471  34.437  17.241  14.440
41715W        W 5472   3.417  42.326   4.315
41716W        W 5473  29.610   2.885  13.310
41717W        W 5474  28.649  43.431   1.701
41718W        W 5475  26.609  11.631   0.765
41719W        W 5476  17.261  23.210   2.403
41720W        W 5477  43.007  36.910  13.477
41721W        W 5478  20.628  37.007   4.612
41722W        W 5479  41.988  29.483  14.758
41723W        W 5480  16.159  29.572  13.905
41724W        W 5481   4.373  21.080   2.736
41725W        W 5482  10.847  21.142   2.307
41726W        W 5483  29.159  34.497  13.880
41727W        W 5484  28.112   4.352  10.604
41728W        W 5485  10.850  20.133   4.715
41729W        W 5486  27.567  31.002   3.312
41730W        W 5487   5.208  37.451  14.306
41731W        W 5488   3.349  23.168  12.015
41732W        W 5489   0.894  20.661   1.404
41733W        W 5490  10.308   0.388  12.542
41734W        W 5491   1.919   0.479  10.549
41735W        W 5492  25.696  27.951  13.491
41736W        W 5493  34.945   0.404   3.300
41737W        W 5494  40.855  41.354   2.739
41738W        W 5495  39.551  25.169   0.872
41739W        W 5496  36.425  23.699  12.349
41740W        W 5497  25.188  35.936   0.323
41741W        W 5498  36.437  24.687   1.274
41742W        W 5499  16.219   9.662   3.792
41743W        W 5500  32.609  25.575  14.363
41744W        W 5501  39.810  22.091   4.806
41745W        W 5502  40.513  14.701   4.632
41746W        W 5503  32.033   3.929   1.932
41747W        W 5504   4.374  39.968  10.922
41748W        W 5505  14.798  13.743   1.316
41749W        W 5506  44.773  42.338   0.819
41750W        W 5507  18.290  17.256  11.510
41751W        W 5508  22.229  36.553   3.701
41752W        W 5509  29.453  35.533  11.457
41753W        W 5510  22.225  11.373  12.010
41754W        W 5511  27.614  30.056   0.752
41755W        W 5512  42.298  13.125   2.366
41756W        W 5513   2.891  20.184  10.632
41757W        W 5514  33.450  18.284  10.906
41758W        W 5515  29.629   1.428   0.475
41759W        W 5516  22.190  37.341   4.158
41760W        W 5517   7.901  43.334   2.794
41761W        W 5518  12.303  14.207  13.343
41762W        W 5519   7.885  19.098   5.660
41763W        W 5520  33.027   0.925   1.351
41764W        W 5521  26.131  18.707   0.385
41765W        W 5522  36.504  36.948  12.017
41766W        W 5523  13.643  30.494  13.380
41767W        W 5524  43.496  13.121  10.950
41768W        W 5525  36.018  17.155   0.404
41769W        W 5526  37.898  42.311  13.427
41770W        W 5527  18.769  42.995  10.961
41771W        W 5528  18.556  27.689  10.475
41772W        W 5529  33.470   9.386   0.817
41773W        W 5530  17.661  16.796   4.343
41774W        W 5531  38.488   5.335  10.557
41775W        W 5532  36.580  11.623  14.025
41776W        W 5533  42.428  31.961  14.799
41777W        W 5534   1.784  35.496  11.576
41778W        W 5535  24.138  21.534   2.716
41779W        W 5536  30.556  19.586  11.971
41780W        W 5537   8.248  10.217  12.521
41781W        W 5538  44.406  28.126   2.212
41782W        W 5539  29.441  13.239   4.160
41783W        W 5540   6.885  20.109   4.799
41784W        W 5541  39.348  38.941  10.887
41785W        W 5542  11.371   4.411   0.767
41786W        W 5543  24.128  21.101   0.406
41787W        W 5544  37.470  17.786   1.339
41788W        W 5545  42.948  27.532  13.962
41789W        W 5546  43.914  22.541   0.735
41790W        W 5547  11.353  35.406   0.377
41791W        W 5548  18.553   2.924  13.857
41792W        W 5549  29.467  38.351  11.532
41793W        W 5550  40.034  44.324   1.779
41794W        W 5551  30.586   6.912   3.302
41795W        W 5552  32.934  23.126   3.677
41796W        W 5553  16.127  24.044  12.525
41797W        W 5554  12.304  11.692  12.511
41798W        W 5555   6.825   8.698  14.284
41799W        W 5556  25.068  10.318   0.352
41800W        W 5557  40.001   7.912   3.708
41801W        W 5558  32.919  42.008  13.041
41802W        W 5559  36.418   8.709  11.498
41803W        W 5560  40.486  14.248  10.996
41804W        W 5561  20.179  28.594   4.151
41805W        W 5562   6.778  38.874  10.588
41806W        W 5563  40.352  21.565  12.484
41807W        W 5564  33.115  14.299   1.287
41808W        W 5565  31.508  42.014  10.550
41809W        W 5566  39.441  22.528   2.326
41810W        W 5567  30.605  26.697  14.966
41811W        W 5568  11.202  29.642  14.422
41812W        W 5569   5.196   1.777  13.960
41813W        W 5570  16.583  36.918   2.340
41814W        W 5571  12.631  40.351   4.340
41815W        W 5572  21.722  26.065  12.872
41816W        W 5573   8.790   4.758  13.426
41817W        W 5574  25.136  26.513   4.195
41818W        W 5575  37.939   1.265  13.430
41819W        W 5576  14.589  30.509   1.255
41820W        W 5577   2.438  11.180  10.614
41821W        W 5578   9.186   4.356  14.924
41822W        W 5579  41.899  33.411  14.881
41823W        W 5580  10.667  41.538  11.868
41824W        W 5581  38.454  42.814   0.763
41825W        W 5582  35.369  17.065   4.632
41826W        W 5583  33.874  40.048  14.997
41827W        W 5584  30.140  13.292  14.879
41828W        W 5585  17.258  21.629   3.841
41829W        W 5586  33.072   9.150  11.440
41830W        W 5587  31.093  37.948  12.009
41831W        W 5588  41.919  32.535   1.240
41832W        W 5589  26.002  30.525   4.280
41833W        W 5590  26.003  13.201   4.623
41834W        W 5591   0.757  36.027  13.872
41835W        W 5592  30.021  40.397   0.399
41836W        W 5593   9.813  27.121  11.904
41837W        W 5594   6.242  21.532  10.472
41838W        W 5595  39.346  36.895   1.268
41839W        W 5596  19.149  24.627  12.580
41840W        W 5597  26.997  29.609  13.020
41841W        W 5598  20.149  35.585   2.716
41842W        W 5599   3.452  30.442  12.889
41843W        W 5600   6.749  28.115   0.465
41844W        W 5601  33.068  18.690   2.394
41845W        W 5602  20.146  42.315  13.389
41846W        W 5603  20.211  39.439   1.417
41847W        W 5604   5.773  30.496   1.421
41848W        W 5605  29.506  36.065   1.703
41849W        W 5606  13.744  25.479   3.844
41850W        W 5607  21.260  43.984  14.512
41851W        W 5608  36.482  42.400  10.984
41852W        W 5609   2.816  29.103  12.835
41853W        W 5610   0.882  25.027   9.956
41854W        W 5611  24.665  25.638   3.262
41855W        W 5612  44.400  32.899  13.808
41856W        W 5613  27.950  26.550  13.494
41857W        W 5614  17.103  41.519   2.411
41858W        W 5615  40.332  21.697  14.356
41859W        W 5616   0.789  41.874  12.427
41860W        W 5617  29.087   6.263  10.938
41861W        W 5618  32.966   1.765   3.334
41862W        W 5619  42.427  34.577   1.330
41863W        W 5620   4.309  26.542  14.813
41864W        W 5621  21.555  42.521   4.800
41865W        W 5622  25.062  26.140   0.364
41866W        W 5623  39.858  31.436   1.256
41867W        W 5624   5.195  23.067   2.885
41868W        W 5625  22.591  43.325  14.289
41869W        W 5626  44.410  32.997  13.430
41870W        W 5627   5.884   4.347  13.348
41871W        W 5628  25.699  10.303   0.398
41872W        W 5629  26.695  42.367  12.385
41873W        W 5630  21.517  20.580  11.059
41874W        W 5631  15.580  15.785   5.147
41875W        W 5632  19.256   8.887   3.210
41876W        W 5633  33.919  39.961   2.294
41877W        W 5634   1.866  18.734  14.493
41878W        W 5635  39.413  18.185   2.865
41879W        W 5636   7.794  37.869   2.297
41880W        W 5637  13.706  33.472  13.906
41881W        W 5638   3.932  11.635   2.705
41882W        W 5639  20.253   4.290  10.574
41883W        W 5640   1.473  32.526   2.339
41884W        W 5641   2.907  33.038  14.371
41885W        W 5642   3.261  16.778  13.875
41886W        W 5643  12.347   2.298  14.416
41887W        W 5644   7.672  33.564   1.426
41888W        W 5645  11.166   9.680   3.659
41889W        W 5646   5.932  17.761  12.081
41890W        W 5647   0.318  13.806  14.491
41891W        W 5648  15.814   7.328   4.133
41892W        W 5649  34.381  25.621  12.545
41893W        W 5650  28.007   6.905  12.054
41894W        W 5651  14.602  18.585   0.933
41895W        W 5652  16.699   0.332   4.341
41896W        W 5653  44.313  23.239   0.247
41897W        W 5654  15.251  39.508  14.870
41898W        W 5655  24.535  37.371   3.705
41899W        W 5656  18.553  21.518   1.713
41900W        W 5657  15.262  34.894   1.415
41901W        W 5658  15.819  30.589   0.949
41902W        W 5659   4.450  26.537   5.172
41903W        W 5660  20.758   0.264  13.307
41904W        W 5661  11.826  36.587  12.054
41905W        W 5662  14.145  35.911  12.865
41906W        W 5663  15.781  42.874  10.991
41907W        W 5664  44.844  18.208   4.142
41908W        W 5665   5.311  15.202  11.549
41909W        W 5666  43.443  25.092   4.156
41910W        W 5667   4.382  25.058   0.319
41911W        W 5668   6.839  36.079  10.598
41912W        W 5669   0.894  29.552  10.421
41913W        W 5670  34.413  18.578   3.168
41914W        W 5671  24.987   2.246  13.492
41915W        W 5672   5.892   9.360  13.547
41916W        W 5673  31.897  17.799  13.793
41917W        W 5674  30.636  33.500  13.866
41918W        W 5675  38.968  35.437   2.791
41919W        W 5676  13.809   9.779  12.482
41920W        W 5677   8.174   3.812   4.302
41921W        W 5678  14.302  33.976   4.781
41922W        W 5679  24.015  43.864   1.696
41923W        W 5680  39.488  43.869   0.409
41924W        W 5681  38.861   0.463  12.964
41925W        W 5682  21.260   1.890   0.921
41926W        W 5683  35.065   6.750   1.276
41927W        W 5684  38.051   4.373   3.800
41928W        W 5685  23.063   4.207   0.742
41929W        W 5686  12.745  23.660   2.807
41930W        W 5687   1.805  34.960   1.859
41931W        W 5688   2.858  39.370   0.268
41932W        W 5689  38.872  23.715   1.770
41933W        W 5690  41.533  29.093  12.026
41934W        W 5691  13.725  16.232   0.926
41935W        W 5692  12.230   8.183  13.834
41936W        W 5693   0.471  40.502  12.490
41937W        W 5694  21.025   9.845  10.503
41938W        W 5695  10.703  19.564  10.462
41939W        W 5696  34.461  42.303  10.452
41940W        W 5697   6.854  14.721   4.115
41941W        W 5698  16.658  11.356  11.979
41942W        W 5699   5.795  13.793   4.755
41943W        W 5700   8.283  31.113   0.334
41944W        W 5701  27.561   0.778  13.937
41945W        W 5702   1.302   7.375   4.354
41946W        W 5703   0.834  21.065  10.952
41947W        W 5704  11.725  34.042  14.884
41948W        W 5705  18.603  15.170   5.167
41949W        W 5706   2.964  14.667   3.729
41950W        W 5707  26.055  17.632   1.271
41951W        W 5708   3.383  30.111   2.381
41952W        W 5709  27.988  42.935  14.872
41953W        W 5710  23.556   0.926  11.869
41954W        W 5711   6.396  18.708  10.447
41955W        W 5712  29.549  27.555  10.421
41956W        W 5713  18.124  38.847   0.799
41957W        W 5714  22.083  44.481  13.997
41958W        W 5715  35.932  39.933   4.306
41959W        W 5716  24.215  44.417   1.831
41960W        W 5717  22.085   8.701  13.425
41961W        W 5718   3.955  40.803   1.838
41962W        W 5719  22.063   1.423  14.316
41963W        W 5720  26.466   5.734   3.256
41964W        W 5721  37.931  32.419  11.084
41965W        W 5722  35.549   3.223  13.812
41966W        W 5723  12.276  30.423   2.389
41967W        W 5724  11.623   0.761   0.415
41968W        W 5725   4.761  33.927  13.375
41969W        W 5726  15.774  39.937  11.542
41970W        W 5727  44.809  30.984   4.220
41971W        W 5728  38.415  36.368   3.639
41972W        W 5729  10.378  17.691   2.837
41973W        W 5730  27.607  17.178   0.769
41974W        W 5731   0.367   7.193   0.441
41975W        W 5732  22.233  44.429   3.829
41976W        W 5733  42.793  35.987  13.035
41977W        W 5734  27.140  43.361  11.597
41978W        W 5735  32.497  16.687   1.825
41979W        W 5736  14.104  27.470  13.425
41980W        W 5737  41.844  35.868  12.374
41981W        W 5738  23.140  38.062  13.330
41982W        W 5739   4.383  32.910   2.709
41983W        W 5740  25.195  36.574   2.211
41984W        W 5741  20.129   5.379   3.698
41985W        W 5742  34.609   2.371   2.754
41986W        W 5743  18.701  26.702  14.788
41987W        W 5744  44.457   5.843   4.140
41988W        W 5745  15.775  23.990   2.286
41989W        W 5746  18.147  14.626   3.855
41990W        W 5747  11.215  34.510  14.509
41991W        W 5748  24.680   1.901  12.574
41992W        W 5749  32.018  12.342   3.778
41993W        W 5750   4.405  32.986   0.806
41994W        W 5751  33.511  31.007   0.905
41995W        W 5752   8.846  33.958  14.004
41996W        W 5753   6.272  44.827   2.771
41997W        W 5754  29.956   8.189   4.627
41998W        W 5755  21.120  14.680  10.981
41999W        W 5756   9.729  26.099  14.449
42000W        W 5757  41.385   1.781   2.341
42001W        W 5758  16.104  28.633  11.032
42002W        W 5759  38.479  25.606   1.260
42003W        W 5760  17.661  43.899  14.493
42004W        W 5761  19.052  20.704  12.913
42005W        W 5762  14.779  14.341   0.926
42006W        W 5763  27.599  23.108   4.313
42007W        W 5764  19.177  29.009   2.404
42008W        W 5765  37.500   8.401  11.600
42009W        W 5766  31.972  28.633   3.787
42010W        W 5767  35.001   8.838  12.054
42011W        W 5768  12.273  24.100   2.304
42012W        W 5769  44.907  20.617   2.678
42013W        W 5770   9.678  14.753  14.287
42014W        W 5771  19.222  19.158  10.623
42015W        W 5772  15.205  28.983   0.872
42016W        W 5773  10.326  16.277  13.986
42017W        W 5774  22.546  38.520  11.496
42018W        W 5775  26.160  40.416  13.919
42019W        W 5776  13.307  22.630  10.894
42020W        W 5777  25.711  16.132   3.158
42021W        W 5778  24.567  43.782  14.999
42022W        W 5779  41.930  12.841   0.815
42023W        W 5780  15.144  32.985  12.428
42024W        W 5781  20.136   7.286   2.185
42025W        W 5782  15.641  15.633   0.941
42026W        W 5783  40.515  38.343   2.788
42027W        W 5784  18.291   3.349   0.471
42028W        W 5785  22.549  33.481  13.358
42029W        W 5786  26.677  25.489  12.343
42030W        W 5787  14.204  37.545   1.845
42031W        W 5788   3.327   5.834  11.532
42032W        W 5789   9.718  34.577  13.954
42033W        W 5790  14.330  26.657   3.280
42034W        W 5791   8.220  43.446  12.352
42035W        W 5792  25.516  42.006   2.834
42036W        W 5793  13.262  11.710   1.753
42037W        W 5794   1.316  43.992   4.241
42038W        W 5795  40.354  12.118   4.724
42039W        W 5796  26.038  37.940  10.992
42040W        W 5797   7.404  21.524  12.407
42041W        W 5798  19.245  43.989   1.353
42042W        W 5799  11.656   1.349   4.734
42043W        W 5800   7.237  30.441   3.629
42044W        W 5801  26.609  16.120   3.737
42045W        W 5802  44.010  16.628   1.414
42046W        W 5803  21.145  26.041   1.806
42047W        W 5804  20.523  42.017  12.553
42048W        W 5805  16.703  38.366  11.092
42049W        W 5806  31.063  22.506   3.690
42050W        W 5807  15.681  10.863  12.097
42051W        W 5808  43.273  23.051   4.648
42052W        W 5809  25.607  15.180   0.245
42053W        W 5810  39.944   0.299  11.085
42054W        W 5811  31.118  32.135   3.771
42055W        W 5812  35.439   1.241  10.891
42056W        W 5813  21.648   5.699  14.771
42057W        W 5814  11.168  44.357  13.016
42058W        W 5815  21.682  12.737  10.607
42059W        W 5816  12.691  39.891  11.014
42060W        W 5817  44.799  12.154  11.940
42061W        W 5818  19.251  26.488   4.835
42062W        W 5819  25.605  29.069   5.226
42063W        W 5820   2.959  22.663   0.431
42064W        W 5821  41.433  27.456  12.480
42065W        W 5822  11.828  13.695  11.050
42066W        W 5823  17.237  25.467   1.288
42067W        W 5824  34.456  39.879   1.447
42068W        W 5825  40.986   6.386  12.426
42069W        W 5826  21.162  23.001   0.410
42070W        W 5827   2.290  31.522   1.778
42071W        W 5828  14.733  35.544   0.244
42072W        W 5829  44.327  37.868   1.779
42073W        W 5830  27.478  42.788  12.528
42074W        W 5831  24.614  39.329   0.372
42075W        W 5832  27.018   8.694   5.224
42076W        W 5833   3.803  32.529   1.797
42077W        W 5834  28.172  28.108  13.046
42078W        W 5835  38.444   0.934   0.316
42079W        W 5836  42.776  40.999  11.003
42080W        W 5837  18.603  12.308   2.716
42081W        W 5838  27.573  39.548  14.799
42082W        W 5839  10.660  37.502   5.223
42083W        W 5840  31.049  37.010  13.852
42084W        W 5841  24.555  38.972  14.357
42085W        W 5842  27.972   8.229   2.722
42086W        W 5843  14.173  41.838  12.986
42087W        W 5844   6.379  44.489   2.241
42088W        W 5845   0.338   0.953  13.962
42089W        W 5846  37.350  39.021  12.470
42090W        W 5847   6.860  27.948   4.838
42091W        W 5848  15.611   4.827  14.884
42092W        W 5849  33.074  43.823   4.701
42093W        W 5850  17.599  41.401   2.381
42094W        W 5851  29.549  36.974  11.474
42095W        W 5852   2.410  39.821   0.360
42096W        W 5853  30.460   7.213   1.246
42097W        W 5854   0.966  36.545   3.320
42098W        W 5855  27.967  42.013  14.458
42099W        W 5856  23.146   3.819  10.446
42100W        W 5857  42.809  30.067  14.316
42101W        W 5858  25.176   7.324   0.817
42102W        W 5859  16.618  39.056   4.769
42103W        W 5860  15.800  41.852  13.919
42104W        W 5861  10.143  11.690  11.506
42105W        W 5862  11.863  43.354  12.350
42106W        W 5863   6.907  25.185  14.506
42107W        W 5864  40.991  26.172   3.716
42108W        W 5865  34.480  27.669  14.295
42109W        W 5866  10.765   2.268   3.633
42110W        W 5867  17.568  19.555   4.634
42111W        W 5868   1.830  44.783  10.535
42112W        W 5869  17.305  40.398  12.469
42113W        W 5870  25.641   9.862   0.419
42114W        W 5871  19.154  16.125  13.926
42115W        W 5872  31.576  27.027  13.878
42116W        W 5873  35.440  36.953  14.874
42117W        W 5874  33.978  29.954   9.959
42118W        W 5875  11.803  40.537  12.914
42119W        W 5876   5.778  21.569  11.023
42120W        W 5877   6.371  36.039   1.252
42121W        W 5878   0.362  34.380   3.822
42122W        W 5879  21.226  11.637   4.651
42123W        W 5880  20.028  26.195   3.149
42124W        W 5881  34.040  44.353  11.909
42125W        W 5882   9.776   1.319   4.739
42126W        W 5883  25.091  31.904   4.316
42127W        W 5884  26.586  14.128   3.299
42128W        W 5885  33.079  36.944  12.042
42129W        W 5886  28.509  39.530  14.318
42130W        W 5887  31.497   5.884  14.838
42131W        W 5888   9.233   8.387   0.916
42132W        W 5889   0.394  19.632  14.915
42133W        W 5890  31.055  18.616  14.777
42134W        W 5891  24.118  39.384  13.874
42135W        W 5892   3.772  37.050  13.460
42136W        W 5893   4.390  13.608  11.879
42137W        W 5894  41.477  23.004  14.818
42138W        W 5895   3.826  19.169   4.605
42139W        W 5896   5.869  32.028   2.849
42140W        W 5897  13.662  34.468   0.374
42141W        W 5898  34.964  37.551  10.985
42142W        W 5899  32.997  19.151   4.338
42143W        W 5900  33.079   5.303   2.820
42144W        W 5901  25.987  11.361   0.470
42145W        W 5902  29.572  40.866  12.084
42146W        W 5903   7.210  24.164  12.974
42147W        W 5904  32.058  13.237  13.794
42148W        W 5905  18.633  33.981   4.646
42149W        W 5906  27.660  31.565   0.255
42150W        W 5907   8.364  17.292   0.735
42151W        W 5908  20.667  17.099  10.507
42152W        W 5909  41.517  34.598   1.735
42153W        W 5910  34.022  37.449   0.749
42154W        W 5911  24.188   0.284   0.360
42155W        W 5912  42.445  13.221   3.758
42156W        W 5913  27.668  30.937  13.983
42157W        W 5914  19.670  10.250   3.807
42158W        W 5915  14.281  26.587   2.387
42159W        W 5916  11.636  44.975  12.849
42160W        W 5917  19.746  10.800  14.373
42161W        W 5918   1.744   0.747   3.640
42162W        W 5919   6.298  43.343   3.857
42163W        W 5920   3.926  21.057  12.862
42164W        W 5921  40.034  34.589  13.340
42165W        W 5922  23.497  18.195  12.933
42166W        W 5923  36.545  38.055  12.992
42167W        W 5924  22.120  26.016  10.435
42168W        W 5925   8.748  17.258  13.977
42169W        W 5926   7.251   2.414   0.267
42170W        W 5927  11.365   2.780   1.774
42171W        W 5928  27.480  10.671  12.424
42172W        W 5929  17.609  24.671   2.178
42173W        W 5930   8.731   0.266   0.245
42174W        W 5931   5.888   4.801   4.319
42175W        W 5932  18.138   5.389   4.791
42176W        W 5933  26.120  18.756   1.781
42177W        W 5934  13.318  24.070   3.164
42178W        W 5935  10.658   5.326  10.975
42179W        W 5936  16.687  27.119  11.611
42180W        W 5937  42.954  15.168  11.465
42181W        W 5938  10.342  28.968  11.594
42182W        W 5939  20.184  17.181   3.791
42183W        W 5940  33.440  36.910   2.303
42184W        W 5941   5.387  27.022   3.193
42185W        W 5942  27.168  23.105   1.412
42186W        W 5943  31.006  40.801  13.408
42187W        W 5944  23.220  41.484   0.311
42188W        W 5945  41.907  35.063  14.889
42189W        W 5946  36.070   1.751   5.705
42190W        W 5947  28.474  28.465  12.945
42191W        W 5948  17.185  15.257   2.776
42192W        W 5949  30.550  38.872  12.506
42193W        W 5950   4.793  25.015   2.325
42194W        W 5951  21.645   1.962  14.869
42195W        W 5952  35.071  22.508   1.829
42196W        W 5953  40.315  26.203   2.759
42197W        W 5954  17.612  16.719  13.424
42198W        W 5955  39.999  27.691   3.802
42199W        W 5956  36.573  14.710   1.367
42200W        W 5957  20.257  40.874  13.829
42201W        W 5958  33.596  13.692  13.801
42202W        W 5959  15.168   0.943  11.877
42203W        W 5960  38.963  13.264   2.866
42204W        W 5961  19.626  12.283  10.133
42205W        W 5962   4.226  33.537   3.270
42206W        W 5963   4.765  32.953  11.377
42207W        W 5964  39.051  42.028  13.030
42208W        W 5965   6.378   3.893   1.722
42209W        W 5966   0.440  12.256  12.923
42210W        W 5967  33.435   0.430  13.513
42211W        W 5968  22.679  36.461   3.674
42212W        W 5969  22.160   0.335   4.700
42213W        W 5970  19.704   5.899   1.222
42214W        W 5971  33.959  14.746  11.455
42215W        W 5972  24.162  42.289   4.720
42216W        W 5973  41.318  24.547  12.575
42217W        W 5974  15.793  37.060  10.537
42218W        W 5975   9.314   5.391  12.568
42219W        W 5976   7.236   8.901  10.922
42220W        W 5977  33.545  29.947  10.113
42221W        W 5978  25.140  16.097   5.090
42222W        W 5979  28.967  19.216  10.945
42223W        W 5980   6.892  16.637  11.984
42224W        W 5981  11.145  24.974  11.090
42225W        W 5982   4.774  22.182  10.584
42226W        W 5983  21.735  44.010  14.881
42227W        W 5984  25.021  42.518  11.491
42228W        W 5985   5.260  22.034   4.673
42229W        W 5986  12.134   4.249  11.484
42230W        W 5987  35.533   6.269   2.825
42231W        W 5988  40.319  32.524  11.072
42232W        W 5989   5.234   3.936   0.757
42233W        W 5990  31.611  33.989   2.749
42234W        W 5991  12.624  20.753  14.360
42235W        W 5992   1.465  35.502  14.014
42236W        W 5993  25.059  40.016   4.257
42237W        W 5994  18.563  17.722   3.162
42238W        W 5995  36.510  19.184   3.740
42239W        W 5996  11.719   1.239  14.333
42240W        W 5997   8.393  24.152  13.995
42241W        W 5998  23.029  28.442   1.898
42242W        W 5999  36.896  44.322  13.008
42243W        W 6000  34.908  17.073   3.770
42244W        W 6001  23.143   7.203  11.879
42245W        W 6002  10.731  36.375   2.339
42246W        W 6003  40.851  38.979  13.966
42247W        W 6004  25.548  34.485  12.472
42248W        W 6005  32.033   9.202   4.665
42249W        W 6006   7.888  30.113   2.247
42250W        W 6007  17.699  37.577  12.930
42251W        W 6008  22.237  17.659  10.475
42252W        W 6009  27.453  19.242  10.631
42253W        W 6010  24.104  13.766  13.001
42254W        W 6011   6.687  42.523  14.491
42255W        W 6012  10.222  26.157  13.371
42256W        W 6013   8.850  42.527  12.518
42257W        W 6014   3.753  44.348   4.223
42258W        W 6015  14.764  26.469  11.539
42259W        W 6016  29.595  31.954   3.824
42260W        W 6017   6.190  17.703  13.993
42261W        W 6018  10.633  14.782   2.722
42262W        W 6019  44.302   5.439   1.862
42263W        W 6020   3.335  18.714   4.833
42264W        W 6021  33.465   6.908  11.026
42265W        W 6022  39.919  26.583  10.136
42266W        W 6023   3.799  33.501  11.076
42267W        W 6024  31.903   9.312   0.885
42268W        W 6025  30.942  41.363   4.680
42269W        W 6026  44.503   9.819   3.331
42270W        W 6027  41.838  44.786  11.075
42271W        W 6028  42.492  41.973  11.474
42272W        W 6029   2.437  29.563  14.275
42273W        W 6030  10.158   7.830  13.518
42274W        W 6031  35.097  34.964   1.722
42275W        W 6032  26.136  37.060  11.388
42276W        W 6033  24.018  41.787   0.772
42277W        W 6034  44.485  34.534   2.749
42278W        W 6035  41.915  20.614  14.363
42279W        W 6036  43.771  18.188   4.641
42280W        W 6037  24.058  33.917   3.801
42281W        W 6038  23.221  37.404   0.806
42282W        W 6039   7.278   7.383   2.285
42283W        W 6040  24.606  25.124   1.356
42284W        W 6041  12.757   5.396   3.686
42285W        W 6042  13.194  43.820  11.083
42286W        W 6043  37.550   5.908  13.825
42287W        W 6044   1.465  16.650  11.952
42288W        W 6045  37.907  28.574  12.010
42289W        W 6046  28.943  19.654  11.390
42290W        W 6047   2.430  14.679   2.276
42291W        W 6048  38.569  19.541  10.546
42292W        W 6049  44.400   1.959  13.366
42293W        W 6050  41.990  21.190   9.979
42294W        W 6051  25.494  25.026   3.868
42295W        W 6052   0.932  42.449  13.352
42296W        W 6053  17.230  43.944   0.931
42297W        W 6054  20.738  17.725  14.823
42298W        W 6055  29.533  21.207  13.955
42299W        W 6056   4.710  17.230   3.793
42300W        W 6057  21.039  21.663   2.383
42301W        W 6058   1.941  37.978   4.328
42302W        W 6059  16.691   4.286   2.862
42303W        W 6060   5.833  20.178   1.266
42304W        W 6061  10.214   2.349   0.855
42305W        W 6062  39.515  28.483   1.235
42306W        W 6063   0.273  35.904   4.682
42307W        W 6064  43.471  34.999   2.842
42308W        W 6065  27.966  14.783  12.868
42309W        W 6066   9.789  34.898   2.388
42310W        W 6067  34.121  25.470   1.891
42311W        W 6068  39.966   7.386  14.861
42312W        W 6069   8.313  36.464  14.514
42313W        W 6070  40.544   0.272  13.949
42314W        W 6071  44.492  14.188   1.804
42315W        W 6072   0.945  27.039   1.307
42316W        W 6073  33.957  19.760  11.062
42317W        W 6074  21.176   0.458  11.609
42318W        W 6075  21.093   5.725  12.451
42319W        W 6076  10.809   3.214  11.956
42320W        W 6077   3.223  25.498   4.802
42321W        W 6078  21.237  37.976  10.454
42322W        W 6079  42.515  24.095  13.434
42323W        W 6080  31.012  27.964   3.674
42324W        W 6081  22.717  33.080   4.795
42325W        W 6082  23.624  43.800  14.881
42326W        W 6083   2.336  20.098  12.965
42327W        W 6084   7.327  26.582  12.832
42328W        W 6085  31.998  31.144  11.536
42329W        W 6086  18.758  41.971  13.432
42330W        W 6087  34.400  44.441   4.199
42331W        W 6088  34.062  22.688  11.905
42332W        W 6089  26.105  23.181  11.431
42333W        W 6090   2.337  30.479  11.917
42334W        W 6091  32.483  19.087  11.399
42335W        W 6092   6.845  41.042  13.001
42336W        W 6093  16.162  20.177  14.007
42337W        W 6094  18.663  15.592   2.396
42338W        W 6095  10.139  29.927  14.879
42339W        W 6096   8.756  23.096  11.918
42340W        W 6097   7.188  28.513  14.796
42341W        W 6098  34.419  27.577   1.389
42342W        W 6099  37.054  23.177  13.926
42343W        W 6100  10.790  19.078   4.218
42344W        W 6101  20.618  33.402   2.673
42345W        W 6102  17.622  15.772   9.934
42346W        W 6103  14.248  10.644  10.985
42347W        W 6104  10.307  19.196   4.765
42348W        W 6105  41.989   7.806  13.540
42349W        W 6106  11.307  31.604   0.262
42350W        W 6107  40.465   4.890  10.121
42351W        W 6108  15.310  13.688   1.346
42352W        W 6109   1.360  13.340  10.583
42353W        W 6110  10.799  22.660  12.513
42354W        W 6111  12.674  33.129   0.344
42355W        W 6112  13.116   5.914  10.459
42356W        W 6113   1.446  32.968   1.230
42357W        W 6114  18.250  26.024  12.082
42358W        W 6115  20.662  30.627  11.078
42359W        W 6116  26.100  12.749   0.283
42360W        W 6117   0.373  34.508   2.724
42361W        W 6118   2.294  11.175  13.516
42362W        W 6119  27.513  43.350   2.188
42363W        W 6120  20.233   8.362  11.431
42364W        W 6121  44.404   1.302   3.676
42365W        W 6122   2.931  32.410   1.852
42366W        W 6123  24.145  44.338   0.754
42367W        W 6124  26.692  30.002  11.022
42368W        W 6125   2.871   0.848   4.304
42369W        W 6126  20.225  10.211   0.950
42370W        W 6127  32.451   4.890   0.365
42371W        W 6128   2.470   5.317  13.869
42372W        W 6129  30.560  17.221  13.041
42373W        W 6130  23.657  12.661   0.958
42374W        W 6131  29.056  10.654   3.309
42375W        W 6132  27.050  40.042  14.988
42376W        W 6133  35.558   2.444   4.649
42377W        W 6134  31.910  28.535  14.359
42378W        W 6135  19.097   9.164  11.050
42379W        W 6136  11.646  38.035  12.058
42380W        W 6137   1.853   7.181  14.426
42381W        W 6138  38.502   4.886   3.630
42382W        W 6139  14.791  33.014  14.884
42383W        W 6140  18.232  37.065  13.991
42384W        W 6141  16.659  37.996   4.761
42385W        W 6142  14.784  35.975  14.866
42386W        W 6143  28.125   9.852  11.079
42387W        W 6144  22.161  44.377  12.400
42388W        W 6145  32.515  33.031   1.218
42389W        W 6146   0.359  34.516   2.328
42390W        W 6147  37.994  21.150  10.548
42391W        W 6148  37.850   5.391   4.304
42392W        W 6149  42.515  35.408  11.510
42393W        W 6150  41.398  17.616  11.534
42394W        W 6151  27.950  16.720   1.430
42395W        W 6152  22.603  23.016  10.896
42396W        W 6153  33.519  18.639   4.631
42397W        W 6154  36.367  19.639  11.584
42398W        W 6155  36.544  28.026  12.536
42399W        W 6156  34.068  28.639  12.980
42400W        W 6157  19.547  43.968  11.867
42401W        W 6158  16.154   9.662   1.349
42402W        W 6159  35.966  15.118  14.333
42403W        W 6160  11.753   5.326  11.459
42404W        W 6161  11.664  18.155  10.039
42405W        W 6162  34.582  34.483  11.919
42406W        W 6163  30.105  21.719   1.397
42407W        W 6164  12.800  24.153  12.421
42408W        W 6165  22.739  15.210   0.832
42409W        W 6166   0.986  21.077   1.441
42410W        W 6167   9.843  30.453  13.476
42411W        W 6168  15.198  44.965  11.479
42412W        W 6169   1.274   5.844   1.386
42413W        W 6170  20.112  20.219   3.811
42414W        W 6171  40.900  36.885  11.948
42415W        W 6172  24.521   4.208  10.891
42416W        W 6173  22.118  44.366  10.068
42417W        W 6174  30.084  36.421   4.805
42418W        W 6175  36.967   2.443  14.767
42419W        W 6176  38.036  22.507  11.073
42420W        W 6177  25.559  22.224   3.748
42421W        W 6178   7.763  44.317  12.092
42422W        W 6179   4.834  34.510  12.966
42423W        W 6180   8.225  38.038  10.993
42424W        W 6181  20.712  13.739  12.467
42425W        W 6182   5.227  28.679  10.530
42426W        W 6183  26.492  18.225  14.515
42427W        W 6184  36.980  16.781   1.324
42428W        W 6185  22.713  32.028   2.897
42429W        W 6186  30.944   7.232   5.223
42430W        W 6187   1.384  31.996   3.630
42431W        W 6188  16.304  30.481  10.949
42432W        W 6189  37.418  17.796   3.211
42433W        W 6190  22.604  30.577  14.988
42434W        W 6191  37.845  39.840   4.295
42435W        W 6192  26.645  23.137  14.451
42436W        W 6193  24.144   3.780   0.919
42437W        W 6194   3.829  18.063  11.498
42438W        W 6195  16.280   1.466   3.812
42439W        W 6196  34.969  25.136   1.868
42440W        W 6197  14.685  22.046  12.861
42441W        W 6198  23.535  13.767   4.645
42442W        W 6199  23.206   3.943   1.929
42443W        W 6200  28.630  17.637   2.778
42444W        W 6201   1.279   5.878   3.760
42445W        W 6202  25.067   0.893   3.240
42446W        W 6203  19.764  11.229  11.552
42447W        W 6204  33.087  41.979  14.835
42448W        W 6205   9.377  22.103  12.379
42449W        W 6206  40.842  18.098   3.852
42450W        W 6207   2.830  43.329   2.202
42451W        W 6208  19.621  26.469   5.286
42452W        W 6209  33.111  14.646   1.326
42453W        W 6210  31.909  21.692   4.192
42454W        W 6211  26.113  22.091   4.193
42455W        W 6212  13.136  43.890   0.728
42456W        W 6213  15.698  42.406  10.080
42457W        W 6214  15.091  31.630  11.546
42458W        W 6215  11.152   1.945   3.836
42459W        W 6216  12.825  28.952   2.835
42460W        W 6217  39.969  19.197   4.604
42461W        W 6218  26.951   4.420   3.857
42462W        W 6219  11.801  38.475  10.626
42463W        W 6220  35.392  39.014   2.805
42464W        W 6221  35.552  22.031  10.464
42465W        W 6222  34.505  13.166  10.567
42466W        W 6223  16.748   9.808   1.423
42467W        W 6224  23.221  20.765   2.692
42468W        W 6225  41.931  22.607   0.828
42469W        W 6226   3.874  13.616   4.338
42470W        W 6227  19.588  24.197  13.978
42471W        W 6228  32.414  16.638   3.192
42472W        W 6229  36.436  33.924  11.012
42473W        W 6230  19.223  44.010  13.914
42474W        W 6231   0.762  42.011  10.529
42475W        W 6232  40.983  28.122   4.640
42476W        W 6233  10.268   7.803   3.813
42477W        W 6234  32.584  23.551  14.765
42478W        W 6235  43.299  14.771  13.376
42479W        W 6236  18.136  30.967  15.000
42480W        W 6237   2.965  31.060  10.433
42481W        W 6238   5.225  44.399   2.750
42482W        W 6239  30.965  11.271   1.226
42483W        W 6240   2.420  37.881   4.787
42484W        W 6241  15.755  17.691   3.837
42485W        W 6242  21.183  42.026   1.889
42486W        W 6243  16.715  27.676  14.336
42487W        W 6244  10.833   3.238   0.841
42488W        W 6245  26.537  11.222  13.463
42489W        W 6246  17.151  25.053  12.021
42490W        W 6247  28.999   2.351  10.010
42491W        W 6248   2.341  17.090   1.396
42492W        W 6249  36.013  22.165  11.491
42493W        W 6250  15.616  23.611  12.062
42494W        W 6251  14.273  42.028   2.364
42495W        W 6252   3.449  21.035  11.126
42496W        W 6253  34.615  15.746  14.859
42497W        W 6254  36.095  21.702  14.287
42498W        W 6255  43.426   1.303  14.402
42499W        W 6256   5.387  20.095   4.135
42500W        W 6257   8.701  40.372  10.995
42501W        W 6258  44.796  34.084  12.435
42502W        W 6259   7.759  42.868   2.355
42503W        W 6260  12.226  40.544  14.848
42504W        W 6261  20.179  13.620   5.153
42505W        W 6262  27.956  33.502   5.281
42506W        W 6263  19.542  44.342  13.856
42507W        W 6264   3.863  12.688  13.041
42508W        W 6265   4.817  28.636  10.480
42509W        W 6266   4.309  20.151   3.182
42510W        W 6267   3.811  27.646   1.440
42511W        W 6268  34.119  14.760   3.180
42512W        W 6269  32.949  37.875  13.816
42513W        W 6270  31.929  15.595   1.215
42514W        W 6271  34.088   5.330   0.372
42515W        W 6272  43.990  37.085   3.806
42516W        W 6273  18.214   6.246   3.283
42517W        W 6274   7.893  40.508  14.341
42518W        W 6275   3.836  40.033   4.257
42519W        W 6276  20.592   4.415   1.247
42520W        W 6277   1.943   9.696  14.436
42521W        W 6278   2.960  32.040   3.670
42522W        W 6279  14.226   5.428   1.250
42523W        W 6280  43.492   5.308  11.466
42524W        W 6281  42.952   9.858   0.345
42525W        W 6282  30.969  32.086  14.453
42526W        W 6283  15.128  23.071  12.007
42527W        W 6284   0.883  26.499  11.995
42528W        W 6285  31.150  41.455   0.370
42529W        W 6286  27.027  12.146   3.384
42530W        W 6287  40.954  15.317  14.428
42531W        W 6288   8.316  31.976   2.253
42532W        W 6289  28.654  24.098   0.476
42533W        W 6290  32.611   1.482  12.971
42534W        W 6291  15.674  15.725   1.871
42535W        W 6292  19.277   0.896  14.863
42536W        W 6293  22.179  11.343  12.414
42537W        W 6294  25.588  24.481   4.653
42538W        W 6295   5.788   6.676  11.117
42539W        W 6296  18.172  17.686  14.363
42540W        W 6297  38.479  30.113   2.722
42541W        W 6298  31.126  16.300   5.621
42542W        W 6299  25.648  43.372  14.993
42543W        W 6300   1.792  33.457  10.901
42544W        W 6301  28.481  28.615   2.845
42545W        W 6302  36.470  34.477  11.090
42546W        W 6303  36.496  33.077  12.922
42547W        W 6304  34.117   1.935   4.738
42548W        W 6305  38.392  22.088   0.326
42549W        W 6306  42.970   4.355   4.354
42550W        W 6307   5.290  24.167  10.610
42551W        W 6308  17.595  10.285   4.758
42552W        W 6309  32.136  23.520   4.770
42553W        W 6310   0.934  16.603   1.418
42554W        W 6311  43.964  24.036   1.892
42555W        W 6312   4.741  31.604  10.148
42556W        W 6313  40.892  31.094  11.000
42557W        W 6314  38.452  25.538   3.715
42558W        W 6315   4.242   1.839   1.896
42559W        W 6316  17.186  30.980  12.831
42560W        W 6317  36.396  41.425   2.757
42561W        W 6318  38.946  24.647   3.302
42562W        W 6319  31.514   4.357  12.546
42563W        W 6320  23.115  24.499  12.896
42564W        W 6321  32.423  44.792   3.679
42565W        W 6322  15.602   0.855  11.459
42566W        W 6323  44.859  24.715  13.547
42567W        W 6324  37.918  33.580   1.837
42568W        W 6325  15.779  43.345  14.479
42569W        W 6326  25.202  27.150   0.851
42570W        W 6327  37.847  13.771  11.051
42571W        W 6328  16.247  34.451   2.680
42572W        W 6329  21.697  30.104  11.587
42573W        W 6330  28.476  24.479  14.390
42574W        W 6331  33.583  39.379  13.343
42575W        W 6332   5.253  16.810   3.833
42576W        W 6333  41.370  40.305   1.448
42577W        W 6334  27.469  41.952   3.283
42578W        W 6335  24.123   3.387   5.125
42579W        W 6336  43.962  33.499   4.269
42580W        W 6337  20.163  24.668   1.371
42581W        W 6338  25.591  33.113  11.873
42582W        W 6339   9.374   8.727  12.044
42583W        W 6340  42.293  28.441  14.424
42584W        W 6341  10.721   5.320  12.424
42585W        W 6342  26.609  16.155  14.347
42586W        W 6343  10.751  17.165  12.059
42587W        W 6344  24.697  27.649   1.219
42588W        W 6345  34.545  25.476   4.239
42589W        W 6346   2.915  15.323   4.147
42590W        W 6347  36.007  19.267   2.274
42591W        W 6348  23.028  33.596  11.541
42592W        W 6349   5.281  19.649  14.808
42593W        W 6350  24.100  21.188   3.201
42594W        W 6351   3.841  19.270  13.908
42595W        W 6352  21.171   7.858  12.419
42596W        W 6353  21.183  37.503  13.532
42597W        W 6354  27.094  12.195   4.300
42598W        W 6355  24.652  23.159   2.406
42599W        W 6356  44.459  25.609  13.039
42600W        W 6357  22.024  10.769  13.533
42601W        W 6358  26.996  29.949  14.875
42602W        W 6359  10.187  33.606   4.792
42603W        W 6360  38.972  36.573  14.799
42604W        W 6361  38.355  24.579  13.003
42605W        W 6362   6.257   0.428   4.204
42606W        W 6363  30.006  37.480  12.083
42607W        W 6364  15.170  12.643  10.569
42608W        W 6365   3.854  42.500  14.765
42609W        W 6366  14.832  14.333  11.563
42610W        W 6367   9.275  41.981   1.261
42611W        W 6368  44.480  21.605   3.686
42612W        W 6369   3.222  30.476   3.358
42613W        W 6370  24.222  26.961  14.278
42614W        W 6371  26.987  21.120   2.880
42615W        W 6372   4.317  37.977   2.240
42616W        W 6373  20.172  11.703   2.401
42617W        W 6374  14.228  43.861   3.236
42618W        W 6375  22.998  10.676  10.903
42619W        W 6376  15.658   8.307   2.384
42620W        W 6377  39.525   7.742  12.882
42621W        W 6378  26.669  32.120  10.608
42622W        W 6379  20.662  35.081  13.394
42623W        W 6380  11.295  29.952   2.283
42624W        W 6381   9.193  24.705  14.931
42625W        W 6382  33.607  27.139  11.455
42626W        W 6383  28.120  35.577  10.016
42627W        W 6384  14.115  25.989   0.386
42628W        W 6385  31.114   2.235   9.922
42629W        W 6386  26.503  18.211   4.196
42630W        W 6387  33.430   5.926   1.771
42631W        W 6388   8.279  33.982   4.254
42632W        W 6389  21.743  32.603   0.325
42633W        W 6390  13.804  31.913  14.304
42634W        W 6391  11.186  14.748  11.957
42635W        W 6392  35.875  23.698  12.546
42636W        W 6393  44.423   5.920   3.335
42637W        W 6394  44.891  22.248   0.348
42638W        W 6395   4.263  26.685  13.533
42639W        W 6396   1.952  27.561  10.979
42640W        W 6397  42.325  43.960  12.859
42641W        W 6398  16.704  12.762   3.714
42642W        W 6399  39.014  20.580   4.664
42643W        W 6400  22.140  22.545   2.320
42644W        W 6401  27.565  17.623  13.435
42645W        W 6402  23.169  42.946   1.846
42646W        W 6403  11.261  26.167   4.715
42647W        W 6404  23.039  29.505   2.316
42648W        W 6405  17.128   8.207  12.346
42649W        W 6406  44.432  25.184   2.267
42650W        W 6407   6.254  44.321   1.394
42651W        W 6408  30.136  34.933  10.516
42652W        W 6409   5.813  20.716   1.276
42653W        W 6410  32.139   6.294   5.700
42654W        W 6411  10.839   2.884  11.056
42655W        W 6412   2.432  25.188   0.822
42656W        W 6413  18.220  41.473  10.535
42657W        W 6414  38.965  26.191  11.581
42658W        W 6415  25.662  28.024  10.947
42659W        W 6416  23.583  44.274   0.459
42660W        W 6417  27.121  15.112  12.458
42661W        W 6418  11.224   3.881  11.965
42662W        W 6419  19.102   8.759  11.431
42663W        W 6420  17.791  13.219   1.825
42664W        W 6421   5.880   6.876  11.949
42665W        W 6422  25.548   3.308   2.284
42666W        W 6423  21.662  36.892  12.923
42667W        W 6424  12.357  17.187  11.004
42668W        W 6425  44.860  35.359   2.258
42669W        W 6426  20.638  12.724   3.254
42670W        W 6427  27.667   7.729  11.430
42671W        W 6428  34.504  12.805   1.213
42672W        W 6429  31.035  10.251   5.086
42673W        W 6430  23.192  27.622  12.826
42674W        W 6431  14.698  20.050  12.974
42675W        W 6432   5.208  27.127  12.426
42676W        W 6433  33.579  21.213  14.473
42677W        W 6434  16.242  27.521  12.349
42678W        W 6435  39.892  19.709   3.725
42679W        W 6436  27.676  22.732  12.913
42680W        W 6437   9.223   7.390   0.730
42681W        W 6438  25.635  40.504  10.583
42682W        W 6439  37.961  23.733  11.035
42683W        W 6440   4.861  38.438   2.813
42684W        W 6441   5.762  16.577   3.332
42685W        W 6442  23.629  35.485  13.432
42686W        W 6443  17.231   0.395  14.780
42687W        W 6444  15.652  17.245  14.804
42688W        W 6445   8.847  12.834   2.814
42689W        W 6446  22.559  33.541  11.050
42690W        W 6447  38.457  17.667   2.398
42691W        W 6448   9.818   2.235  11.432
42692W        W 6449   8.257  21.675   0.877
42693W        W 6450  25.014  39.394  14.821
42694W        W 6451  25.563  12.265   1.731
42695W        W 6452  43.907  32.574  12.526
42696W        W 6453  20.678  19.567   0.738
42697W        W 6454  11.286  24.004  11.987
42698W        W 6455  10.205  18.210  14.299
42699W        W 6456   9.865  30.070   1.356
42700W        W 6457  28.532  39.818   3.671
42701W        W 6458  38.465   2.269   4.318
42702W        W 6459   6.330  25.113   0.340
42703W        W 6460  19.772  39.021  12.076
42704W        W 6461  36.377  21.109  10.907
42705W        W 6462   7.895  22.520  10.135
42706W        W 6463   7.821   8.317   1.214
42707W        W 6464  40.034   3.904   0.245
42708W        W 6465   5.798  30.574  12.350
42709W        W 6466  43.270   4.435   3.159
42710W        W 6467   9.166  17.772   0.834
42711W        W 6468  28.436  32.460  10.474
42712W        W 6469   7.286   4.319  12.525
42713W        W 6470  24.123  25.049   5.137
42714W        W 6471   2.897  30.478  10.543
42715W        W 6472  12.152  33.427   3.651
42716W        W 6473  29.435  43.304  14.988
42717W        W 6474  25.987  17.800  12.897
42718W        W 6475  19.089  37.970   0.264
42719W        W 6476   9.828  29.067  11.885
42720W        W 6477  13.350   0.818  11.883
42721W        W 6478   6.812  12.201   3.777
42722W        W 6479  35.014   7.856   2.327
42723W        W 6480   9.361   7.396  14.963
42724W        W 6481  22.555   3.933   1.265
42725W        W 6482  10.699  43.488  11.377
42726W        W 6483   0.868  26.188  11.598
42727W        W 6484  40.361  12.718   3.294
42728W        W 6485   3.268   3.384   3.210
42729W        W 6486  13.128   9.256  10.622
42730W        W 6487  25.031   5.718  13.024
42731W        W 6488   0.371  35.417  12.949
42732W        W 6489  35.402  34.539  12.353
42733W        W 6490   1.870  28.176   1.862
42734W        W 6491  14.667  35.554   3.798
42735W        W 6492  31.603  14.137   4.225
42736W        W 6493  25.161   0.859   3.689
42737W        W 6494  42.817   2.965   4.174
42738W        W 6495   5.242  24.173  13.966
42739W        W 6496  21.241   8.671  14.926
42740W        W 6497  41.948  12.260   4.686
42741W        W 6498  29.015  12.261  12.449
42742W        W 6499  26.172   6.719  13.886
42743W        W 6500  23.179  14.786   1.383
42744W        W 6501  44.447   8.706  14.991
42745W        W 6502  23.214  18.774   0.328
42746W        W 6503  26.123  31.968   4.338
42747W        W 6504   2.857  33.931   0.308
42748W        W 6505  35.995  16.308   2.744
42749W        W 6506  43.335   2.792  12.062
42750W        W 6507  13.743  14.671   3.318
42751W        W 6508  14.315  10.146  13.371
42752W        W 6509  25.963  38.062   3.813
42753W        W 6510  29.568  11.268   0.847
42754W        W 6511  30.629   5.716   4.320
42755W        W 6512  31.971  38.854  13.392
42756W        W 6513  41.038  36.041   3.362
42757W        W 6514  10.670  11.738  11.106
42758W        W 6515  36.881  18.550  10.966
42759W        W 6516   7.900  30.159  10.912
42760W        W 6517  22.505   1.321   2.809
42761W        W 6518  35.480  28.935  10.634
42762W        W 6519  18.124  29.569   0.817
42763W        W 6520  16.251  30.649   5.109
42764W        W 6521  36.981  39.869   2.739
42765W        W 6522  15.238  14.697   0.262
42766W        W 6523   9.859  30.002  11.946
42767W        W 6524  13.282  33.618  10.149
42768W        W 6525   6.329  40.797   5.190
42769W        W 6526  39.399  16.181  12.001
42770W        W 6527  16.766  35.940  11.862
42771W        W 6528  43.476  33.504   2.400
42772W        W 6529   6.894   2.234  11.952
42773W        W 6530  28.017  16.165  13.435
42774W        W 6531  10.652  14.734  11.896
42775W        W 6532  34.918   6.899  13.471
42776W        W 6533   2.862  31.946   3.362
42777W        W 6534  44.478  15.733   1.246
42778W        W 6535  22.225  30.642   3.258
42779W        W 6536  29.953   0.979   0.326
42780W        W 6537  23.236  27.578  12.541
42781W        W 6538  30.070   3.457   1.911
42782W        W 6539   9.386  42.842  14.427
42783W        W 6540  27.955  25.036  11.382
42784W        W 6541  44.319  43.327   0.396
42785W        W 6542  42.357  12.279   4.203
42786W        W 6543   4.399   5.746  14.494
42787W        W 6544   6.699  24.003  13.527
42788W        W 6545  33.010  41.407   2.863
42789W        W 6546  16.720  15.184  10.591
42790W        W 6547  33.024  36.485  14.292
42791W        W 6548  18.209  17.702   1.766
42792W        W 6549  19.145  10.274   3.796
42793W        W 6550  25.496  43.322   2.334
42794W        W 6551   0.818  36.969  11.067
42795W        W 6552  43.971  11.246  14.450
42796W        W 6553   9.870   8.173  12.457
42797W        W 6554  13.736  29.643  13.406
42798W        W 6555  35.049  11.291  11.092
42799W        W 6556  14.178   3.377  13.905
42800W        W 6557  12.732  13.338  10.523
42801W        W 6558   2.416  23.653  10.931
42802W        W 6559  43.906  30.431   0.728
42803W        W 6560   1.836  43.319  12.474
42804W        W 6561  16.251  26.537   2.201
42805W        W 6562  10.332   3.367   0.305
42806W        W 6563  27.631  21.731  14.385
42807W        W 6564   3.307  20.274  11.902
42808W        W 6565  20.693  23.223   0.329
42809W        W 6566   9.803  43.805  13.860
42810W        W 6567   5.746  43.403   0.409
42811W        W 6568   9.227  25.591  13.355
42812W        W 6569   9.187  27.457  13.040
42813W        W 6570  11.733   8.750   4.239
42814W        W 6571  29.123   9.368  12.844
42815W        W 6572  44.424  44.825  10.508
42816W        W 6573   8.664  11.671   0.455
42817W        W 6574  37.474  17.669   0.342
42818W        W 6575  13.762   2.357  12.065
42819W        W 6576  29.606  34.438   1.717
42820W        W 6577  18.593  15.617  13.948
42821W        W 6578   4.750  14.206   5.234
42822W        W 6579  19.109  17.136  13.921
42823W        W 6580   7.822  29.963   1.701
42824W        W 6581   3.831  12.666   2.339
42825W        W 6582  11.714  43.367  12.864
42826W        W 6583  16.275  19.094  11.958
42827W        W 6584  13.314   6.312  13.386
42828W        W 6585   3.312   7.284  11.516
42829W        W 6586  25.194  41.863  10.550
42830W        W 6587  17.272  11.853   4.786
42831W        W 6588  36.978  43.434  12.951
42832W        W 6589  42.367  29.088  12.414
42833W        W 6590  14.185  38.532   0.249
42834W        W 6591  10.773  17.727   4.175
42835W        W 6592  20.645   0.883   1.784
42836W        W 6593  41.996   4.257  12.831
42837W        W 6594  44.477  19.553   4.143
42838W        W 6595  19.742  22.568   3.235
42839W        W 6596  12.332   9.372   0.962
42840W        W 6597  33.618  36.079   0.391
42841W        W 6598  25.026  34.066   4.641
42842W        W 6599  32.941  25.209   0.913
42843W        W 6600  26.459   8.795  11.478
42844W        W 6601  20.586  31.058  14.418
42845W        W 6602  21.538  38.027  10.941
42846W        W 6603  25.668  24.636  11.578
42847W        W 6604   0.797  12.796   0.294
42848W        W 6605  17.213  39.525   3.789
42849W        W 6606   6.804   8.325   1.744
42850W        W 6607   8.743  31.588  10.144
42851W        W 6608   6.821   7.183  10.636
42852W        W 6609  40.800   4.220  10.453
42853W        W 6610  29.098  44.277  13.881
42854W        W 6611   9.768  15.184   0.270
42855W        W 6612  22.030  38.479  14.838
42856W        W 6613  15.256  42.876   0.291
42857W        W 6614  40.976   5.808  13.801
42858W        W 6615  40.387  31.442  14.789
42859W        W 6616  37.035  27.972  12.896
42860W        W 6617  42.827  21.572  14.011
42861W        W 6618  38.895  23.185  12.352
42862W        W 6619  20.104  33.077  11.028
42863W        W 6620  21.108  10.161  13.038
42864W        W 6621  37.075  43.496  13.964
42865W        W 6622  16.274   3.896  14.776
42866W        W 6623  11.740  22.579  14.935
42867W        W 6624  24.213  29.025  12.072
42868W        W 6625  16.279   8.173  10.553
42869W        W 6626  41.347  44.796   3.220
42870W        W 6627   5.235  42.407   1.857
42871W        W 6628  15.173  42.783   3.246
42872W        W 6629   3.256  23.689  13.509
42873W        W 6630  15.587  24.538  10.915
42874W        W 6631  30.628   5.758   1.232
42875W        W 6632  38.948  21.613  12.510
42876W        W 6633  32.438   7.250  11.003
42877W        W 6634  10.809  11.863   0.777
42878W        W 6635  29.955  16.290   4.694
42879W        W 6636  33.913   2.885   0.782
42880W        W 6637  21.751  41.510  11.930
42881W        W 6638  38.411  27.151   1.772
42882W        W 6639  33.600  43.428  14.018
42883W        W 6640  20.274  39.453  11.019
42884W        W 6641  41.833  16.299   1.287
42885W        W 6642  10.364  23.191  10.902
42886W        W 6643  20.742  26.004   3.274
42887W        W 6644  43.323  42.796  13.445
42888W        W 6645  17.732  42.029  11.475
42889W        W 6646  28.565  15.724   1.266
42890W        W 6647  16.620  20.030  12.062
42891W        W 6648  19.191  12.761  10.475
42892W        W 6649  22.196  14.102   1.883
42893W        W 6650  41.513   8.691  13.417
42894W        W 6651   2.235  32.632   0.762
42895W        W 6652  27.520  41.043  11.939
42896W        W 6653  24.649  20.619   2.378
42897W        W 6654  21.023  27.056   2.348
42898W        W 6655  39.934  17.645   0.396
42899W        W 6656  12.316  25.488  12.964
42900W        W 6657  41.845   1.460   0.741
42901W        W 6658  41.916  17.189  11.577
42902W        W 6659  32.614  30.033  11.508
42903W        W 6660  12.264  21.750  14.393
42904W        W 6661  23.534   6.201   4.151
42905W        W 6662  22.639  42.285  10.642
42906W        W 6663  17.166  25.009   4.664
42907W        W 6664  20.558  41.407  11.893
42908W        W 6665  28.628  40.306   3.758
42909W        W 6666  29.161  34.881   2.683
42910W        W 6667   4.267  31.524   4.764
42911W        W 6668  40.478  44.977  11.575
42912W        W 6669  33.091  34.563  14.352
42913W        W 6670  14.334  41.023   1.416
42914W        W 6671  17.129  40.499  14.843
42915W        W 6672  36.508  15.597  10.627
42916W        W 6673  40.818  11.277   0.444
42917W        W 6674  10.284   0.843   0.460
42918W        W 6675  37.487  43.497  12.477
42919W        W 6676  25.475  11.854   3.775
42920W        W 6677  36.397  43.270  14.420
42921W        W 6678  36.350   1.326  13.416
42922W        W 6679   3.361   7.831  11.870
42923W        W 6680  12.820  27.067  14.473
42924W        W 6681   0.941  23.698  12.857
42925W        W 6682  36.967   6.380   3.867
42926W        W 6683  29.465  18.098   4.299
42927W        W 6684   9.274   7.666   4.291
42928W        W 6685  13.645  28.110   0.368
42929W        W 6686   0.309  41.495   1.836
42930W        W 6687  31.544  14.724  14.487
42931W        W 6688   7.712  28.035   4.212
42932W        W 6689  30.980  41.301  12.047
42933W        W 6690  33.101  10.691   0.462
42934W        W 6691  38.847  23.689   0.352
42935W        W 6692  36.385  31.918   2.818
42936W        W 6693   3.286  36.444  10.959
42937W        W 6694  41.039   8.366  11.558
42938W        W 6695  12.302  23.115  13.990
42939W        W 6696  15.115  37.936  13.327
42940W        W 6697   7.222  15.114   3.668
42941W        W 6698  32.079  17.707   1.301
42942W        W 6699  41.810  40.899   0.949
42943W        W 6700  20.120  39.526   1.838
42944W        W 6701  31.122  27.137  12.043
42945W        W 6702  26.974  17.135   3.345
42946W        W 6703  27.585  13.717   9.567
42947W        W 6704  25.963  44.341   1.385
42948W        W 6705  33.930  26.198  14.791
42949W        W 6706  37.031  26.082  14.784
42950W        W 6707  42.338  29.095  12.860
42951W        W 6708  30.120  10.802   3.840
42952W        W 6709  37.463  34.397   2.792
42953W        W 6710  43.396   7.868  14.030
42954W        W 6711  15.184  36.521  13.492
42955W        W 6712  42.018  40.454  11.987
42956W        W 6713  11.150  24.716  11.126
42957W        W 6714  31.100  15.191  12.534
42958W        W 6715  43.401  28.081  11.396
42959W        W 6716  13.749  33.419   0.797
42960W        W 6717  37.053   3.908   4.230
42961W        W 6718   3.459  37.011   1.867
42962W        W 6719  15.182  24.193  10.972
42963W        W 6720  36.535  25.184   3.258
42964W        W 6721  22.085  11.812   4.760
42965W        W 6722  38.548  33.003   3.223
42966W        W 6723  38.366  38.466   1.441
42967W        W 6724  11.314  16.577   3.705
42968W        W 6725   3.876  25.059  11.570
42969W        W 6726  18.704  38.427   2.195
42970W        W 6727  32.483   9.266  13.868
42971W        W 6728  20.107  12.332   4.665
42972W        W 6729  17.678  33.511  14.964
42973W        W 6730  39.473   4.937   2.337
42974W        W 6731  30.635  18.742  11.062
42975W        W 6732  20.701   5.814   1.849
42976W        W 6733  18.069  32.475  14.927
42977W        W 6734  42.912  34.033   4.206
42978W        W 6735  11.666  30.580   3.760
42979W        W 6736  40.008  40.804  11.611
42980W        W 6737  15.248  41.535   2.791
42981W        W 6738  29.466   3.853  13.500
42982W        W 6739   3.331  32.497   1.303
42983W        W 6740   6.788   3.787  11.578
42984W        W 6741  26.667  10.766  11.889
42985W        W 6742  40.008   2.442  12.499
42986W        W 6743  26.990   3.923   0.766
42987W        W 6744  28.606  35.524   3.789
42988W        W 6745   0.399  42.388  14.823
42989W        W 6746  14.674  36.580  11.488
42990W        W 6747  43.845   5.324   1.413
42991W        W 6748   7.324  42.931  12.543
42992W        W 6749  22.149  28.580  10.972
42993W        W 6750  38.424   8.692   1.919
42994W        W 6751   8.320  32.079  11.590
42995W        W 6752  21.592  25.513  14.356
42996W        W 6753  33.037   6.718   0.394
42997W        W 6754  29.643  18.214   3.356
42998W        W 6755  39.867  10.712   3.230
42999W        W 6756  26.629  34.374   2.705
43000W        W 6757  21.060  19.589  13.546
43001W        W 6758  13.351  37.834  13.998
43002W        W 6759   8.682  33.062   1.932
43003W        W 6760  44.378  22.181  10.138
43004W        W 6761  19.559  25.619  13.816
43005W        W 6762  23.681   7.181  13.976
43006W        W 6763  30.444  35.945   3.204
43007W        W 6764  27.682  18.603   4.292
43008W        W 6765  10.241   0.374  14.311
43009W        W 6766  42.996  23.185   2.824
43010W        W 6767  14.634  27.566   2.810
43011W        W 6768  20.688  17.245  12.427
43012W        W 6769   7.753  36.974  10.573
43013W        W 6770  41.361   7.804   0.301
43014W        W 6771  40.971  39.476  11.995
43015W        W 6772  18.100  36.362  10.538
43016W        W 6773  40.385  11.727   1.834
43017W        W 6774  23.591  24.635   1.751
43018W        W 6775  19.608  33.023   4.731
43019W        W 6776   8.796  17.657   3.654
43020W        W 6777  23.717  40.912   0.915
43021W        W 6778  25.697  39.030   0.450
43022W        W 6779  37.050  37.029  13.501
43023W        W 6780  42.994  32.430   4.277
43024W        W 6781  43.494  39.993  13.341
43025W        W 6782  22.556  28.647  12.865
43026W        W 6783  33.596  22.599   0.446
43027W        W 6784  37.431  13.167   1.244
43028W        W 6785   8.890  33.574   5.254
43029W        W 6786  44.332  27.996   0.387
43030W        W 6787  16.637  27.459   4.796
43031W        W 6788  13.315  23.060   0.258
43032W        W 6789   9.365  20.059  11.392
43033W        W 6790  40.376  37.425  11.603
43034W        W 6791   0.889   1.762   1.346
43035W        W 6792   0.791  21.033   9.926
43036W        W 6793  43.852  10.306   0.389
43037W        W 6794  26.632   3.293  10.966
43038W        W 6795  24.022  22.052   4.206
43039W        W 6796  23.588   7.267  14.979
43040W        W 6797   0.872  44.351   1.235
43041W        W 6798  35.869  34.120   4.742
43042W        W 6799  34.966  44.853   3.749
43043W        W 6800   7.771  11.163   0.468
43044W        W 6801   0.250  14.739   4.834
43045W        W 6802  38.483  18.156  11.471
43046W        W 6803  31.084  19.262  10.599
43047W        W 6804  15.592  36.584   4.249
43048W        W 6805  17.263  32.471   2.258
43049W        W 6806  27.059  21.112  12.363
43050W        W 6807  10.739  14.205   2.216
43051W        W 6808  18.140  31.596  13.027
43052W        W 6809  42.889  26.048   2.296
43053W        W 6810  17.195  15.193  10.515
43054W        W 6811  29.643  11.817   5.219
43055W        W 6812  43.772   9.207   4.613
43056W        W 6813  30.962  44.791  11.547
43057W        W 6814  10.777  43.292  10.472
43058W        W 6815  16.241  42.024   3.762
43059W        W 6816   4.278  40.926   3.256
43060W        W 6817  25.637  26.121   2.249
43061W        W 6818  38.945  25.025   0.315
43062W        W 6819  21.149  38.837   5.166
43063W        W 6820   5.870  31.072  12.078
43064W        W 6821  21.557  42.422   2.265
43065W        W 6822  14.111  19.694   4.296
43066W        W 6823   9.791  12.307  12.520
43067W        W 6824  27.955  38.566   1.316
43068W        W 6825  30.524  16.666   2.244
43069W        W 6826  34.448  31.619  13.893
43070W        W 6827  10.172  16.242  11.372
43071W        W 6828  34.404  43.886   2.666
43072W        W 6829  12.856  41.433   2.842
43073W        W 6830   4.443  37.889  14.493
43074W        W 6831  26.500  24.076  13.935
43075W        W 6832   8.839  30.537   0.900
43076W        W 6833  36.588  42.295  11.375
43077W        W 6834   9.374  29.105   1.748
43078W        W 6835  33.400   5.310  10.474
43079W        W 6836  35.098  12.122   3.753
43080W        W 6837  17.669  16.658   3.765
43081W        W 6838  23.502  28.964   4.141
43082W        W 6839  30.611  42.346   2.806
43083W        W 6840  37.891  24.698  12.906
43084W        W 6841  10.174  42.385   2.701
43085W        W 6842  37.952  18.642  14.497
43086W        W 6843  14.696  16.245   1.344
43087W        W 6844  43.771  36.378   1.870
43088W        W 6845   4.785  33.974   2.410
43089W        W 6846  34.524   4.437  10.890
43090W        W 6847  28.050  24.642  14.911
43091W        W 6848  40.968  14.662   0.787
43092W        W 6849  12.328  41.849   0.948
43093W        W 6850  35.454  10.208   1.301
43094W        W 6851  21.077  21.121  12.500
43095W        W 6852   7.858  32.051  11.078
43096W        W 6853   5.344   9.292  13.840
43097W        W 6854  26.577  23.593  10.482
43098W        W 6855  29.637   1.910   4.610
43099W        W 6856  37.967  34.562  13.811
43100W        W 6857  19.205  44.991   1.824
43101W        W 6858   2.924   2.415   3.796
43102W        W 6859  25.682  33.563  10.640
43103W        W 6860  29.564  23.063   4.838
43104W        W 6861   0.361  37.582  12.071
43105W        W 6862  20.127   6.271   1.730
43106W        W 6863  12.136  16.665  10.477
43107W        W 6864  20.552  23.100  13.425
43108W        W 6865  43.853  37.360   0.254
43109W        W 6866  19.281   9.868  10.616
43110W        W 6867  21.262  22.671   3.309
43111W        W 6868  38.568  21.259   4.622
43112W        W 6869  28.964  21.088  14.456
43113W        W 6870  21.695  40.546  13.863
43114W        W 6871   0.477  12.122   0.762
43115W        W 6872  41.996  13.756   3.302
43116W        W 6873  13.211  38.424   4.814
43117W        W 6874   0.819  36.477   0.429
43118W        W 6875  13.156  32.476  14.458
43119W        W 6876  30.594  18.695  11.921
43120W        W 6877  42.371  20.751  14.495
43121W        W 6878  35.394  12.173   2.183
43122W        W 6879  11.784  24.013   3.847
43123W        W 6880   8.769  19.556  11.444
43124W        W 6881  29.155  13.686  12.360
43125W        W 6882  13.224  13.764  13.544
43126W        W 6883  23.106  34.084  14.945
43127W        W 6884  44.833  21.066   0.765
43128W        W 6885  38.558  14.753  11.873
43129W        W 6886   0.794  11.661  14.011
43130W        W 6887   3.780  25.965   0.810
43131W        W 6888   6.730  26.201  12.418
43132W        W 6889  26.479  16.729  13.918
43133W        W 6890  21.022  28.583  11.921
43134W        W 6891  30.483  43.286   1.781
43135W        W 6892   3.923   3.770   1.334
43136W        W 6893  29.426  42.842   3.379
43137W        W 6894   7.267   4.836  12.068
43138W        W 6895   2.338  18.760   3.805
43139W        W 6896  34.598  24.703  12.411
43140W        W 6897  24.214  41.898  12.346
43141W        W 6898  29.629   1.367  11.111
43142W        W 6899  28.589   8.799   1.374
43143W        W 6900  26.504  10.371  11.872
43144W        W 6901  41.841  31.092   4.300
43145W        W 6902   9.230  15.613  13.403
43146W        W 6903   2.252   8.874   5.224
43147W        W 6904  20.119  22.620  13.444
43148W        W 6905  11.671  25.020  14.304
43149W        W 6906  44.379  22.034   2.345
43150W        W 6907  11.314  29.147   0.835
43151W        W 6908  40.436  44.477   0.371
43152W        W 6909  21.024  14.261  12.877
43153W        W 6910  11.741  29.611  10.591
43154W        W 6911  24.515  19.558   3.311
43155W        W 6912  13.214  22.162   4.775
43156W        W 6913   6.401  21.588   2.270
43157W        W 6914  34.869  20.057  13.539
43158W        W 6915  42.935  40.498   4.303
43159W        W 6916  40.367  18.199  12.486
43160W        W 6917  37.054  41.990   0.747
43161W        W 6918  32.606  34.597  14.404
43162W        W 6919  36.530  33.576   3.245
43163W        W 6920  29.174  14.170   1.294
43164W        W 6921  32.416  14.206   0.264
43165W        W 6922   6.218  18.689   0.860
43166W        W 6923   6.886  27.959  10.627
43167W        W 6924  28.622  42.359  13.807
43168W        W 6925  41.329  36.849  13.797
43169W        W 6926  26.981   1.328   3.669
43170W        W 6927  22.179   0.937  10.412
43171W        W 6928   5.210  36.992  12.381
43172W        W 6929  15.617  44.873   3.328
43173W        W 6930   7.194   1.886   3.320
43174W        W 6931  38.557  24.215   2.848
43175W        W 6932  29.037  22.568   4.760
43176W        W 6933   7.730  24.223   0.776
43177W        W 6934   8.788   1.825   1.403
43178W        W 6935  17.575  30.962   1.301
43179W        W 6936   3.936  23.188   1.821
43180W        W 6937  18.684  35.096   2.192
43181W        W 6938  27.024  25.650  14.021
43182W        W 6939   4.232  27.006   2.837
43183W        W 6940   0.468   2.249  10.422
43184W        W 6941   1.393  27.077   1.361
43185W        W 6942  16.772  33.094  14.407
43186W        W 6943  43.785  41.807  14.892
43187W        W 6944  34.040  21.047  10.916
43188W        W 6945  32.081  40.024   2.827
43189W        W 6946  41.404   5.909  14.454
43190W        W 6947   9.821  21.536  11.098
43191W        W 6948   3.908  15.796  13.537
43192W        W 6949  32.071  26.136  12.930
43193W        W 6950   2.336  12.813   4.175
43194W        W 6951  17.646  36.450   4.168
43195W        W 6952  35.563  22.140  12.986
43196W        W 6953  20.187  15.107  11.927
43197W        W 6954  27.132  12.827   1.230
43198W        W 6955  12.150   7.279   0.945
43199W        W 6956   0.969  18.647  11.559
43200W        W 6957  42.886   2.451   5.098
43201W        W 6958  22.129  14.161  14.430
43202W        W 6959   9.735  19.203  12.350
43203W        W 6960  30.610  40.375   2.396
43204W        W 6961  10.152   2.830  14.821
43205W        W 6962  13.162  10.269  14.282
43206W        W 6963  25.671  16.788  10.522
43207W        W 6964  41.938   9.779  14.899
43208W        W 6965   0.382  11.780   0.779
43209W        W 6966   5.822  43.936  12.854
43210W        W 6967  25.644   8.698  12.421
43211W        W 6968  30.927   1.330  11.103
43212W        W 6969  26.693   9.203   2.723
43213W        W 6970  35.013  16.298  10.463
43214W        W 6971  15.271  23.048   0.404
43215W        W 6972  14.669   5.266  10.507
43216W        W 6973  44.366   3.742   2.787
43217W        W 6974  42.436  33.070   1.399
43218W        W 6975  30.469  11.684   2.332
43219W        W 6976  25.038  39.913   2.837
43220W        W 6977  30.457  35.036   4.310
43221W        W 6978  23.585  28.463  10.552
43222W        W 6979  35.945  17.182  13.338
43223W        W 6980  35.361  21.029  14.019
43224W        W 6981  37.024   9.231   2.778
43225W        W 6982  16.721  38.060   0.745
43226W        W 6983  21.037  18.569   3.152
43227W        W 6984   1.483   8.787   3.652
43228W        W 6985  24.165  21.540  11.520
43229W        W 6986   7.810   6.831   0.410
43230W        W 6987  27.648  12.332  10.500
43231W        W 6988  16.302   2.766   0.356
43232W        W 6989  29.532   9.807   1.811
43233W        W 6990  36.591  41.831   1.742
43234W        W 6991  24.719  35.105   0.790
43235W        W 6992   7.699  43.373   4.272
43236W        W 6993  42.296  37.951  13.365
43237W        W 6994  30.586  34.995   3.854
43238W        W 6995  25.088  30.485   2.808
43239W        W 6996  13.601   1.841   1.743
43240W        W 6997  42.890  27.061   1.295
43241W        W 6998  31.141  10.218  11.013
43242W        W 6999  44.819  38.484   1.409
43243W        W 7000  36.591   0.978  11.477
43244W        W 7001  27.180   0.363   1.302
43245W        W 7002  33.116  39.957   4.653
43246W        W 7003  34.874  35.585   0.760
43247W        W 7004  20.644  10.175  11.991
43248W        W 7005   1.326  12.758  12.441
43249W        W 7006  41.915   8.246   3.223
43250W        W 7007  12.720   2.378   3.708
43251W        W 7008   8.405  34.987  12.856
43252W        W 7009  21.592   8.329  14.853
43253W        W 7010  31.469  12.651   4.807
43254W        W 7011  32.522  40.986   1.245
43255W        W 7012   7.367  44.484  10.119
43256W        W 7013  34.469  20.581  11.033
43257W        W 7014  44.985  18.710  11.588
43258W        W 7015  36.094  15.095   2.834
43259W        W 7016  44.375  11.630  14.932
43260W        W 7017   2.795  32.986   2.311
43261W        W 7018  13.341  41.517  10.911
43262W        W 7019  31.960  40.541  12.556
43263W        W 7020   6.852  23.139  10.517
43264W        W 7021   0.461  34.904  14.445
43265W        W 7022   3.240  36.859  13.508
43266W        W 7023  10.321   1.432   2.362
43267W        W 7024  30.114  30.427   1.393
43268W        W 7025  13.648  43.397  13.998
43269W        W 7026  27.631  26.962   2.702
43270W        W 7027   7.753  43.856   2.236
43271W        W 7028  18.169  43.990   2.895
43272W        W 7029  18.735  21.154  11.984
43273W        W 7030  25.615   1.785  11.008
43274W        W 7031  13.672   8.278  11.600
43275W        W 7032  26.992   3.764  14.456
43276W        W 7033  10.830  15.243  10.068
43277W        W 7034  43.363  10.235  11.093
43278W        W 7035  23.709  18.141   2.283
43279W        W 7036  26.638  31.435   2.767
43280W        W 7037   5.236  28.044  13.349
43281W        W 7038  22.032  13.209   1.344
43282W        W 7039  32.120   2.943  14.370
43283W        W 7040  23.646  22.073  14.357
43284W        W 7041  29.053  26.040  10.458
43285W        W 7042  17.666  42.922   0.414
43286W        W 7043  39.501   5.783  10.456
43287W        W 7044  39.007  28.489   9.968
43288W        W 7045  28.951   0.316   1.838
43289W        W 7046  21.677  11.669  11.439
43290W        W 7047   9.361   8.750   3.264
43291W        W 7048   1.873  11.311   1.356
43292W        W 7049  37.364  21.571   0.743
43293W        W 7050  42.874  30.432  14.913
43294W        W 7051  37.935  26.550  12.040
43295W        W 7052   2.756   1.285   2.208
43296W        W 7053  26.480   1.746  11.063
43297W        W 7054  31.938  13.201   2.419
43298W        W 7055  32.139  40.989  11.500
43299W        W 7056   7.730  30.437   1.785
43300W        W 7057  31.902  26.476   0.774
43301W        W 7058   2.826  32.965   3.217
43302W        W 7059  23.020  30.012   4.814
43303W        W 7060  23.698  19.088  13.958
43304W        W 7061  39.410   5.720  14.306
43305W        W 7062   2.335  30.071  12.343
43306W        W 7063   9.341  34.868  14.299
43307W        W 7064  39.871  33.051   1.776
43308W        W 7065  37.079  19.264   0.262
43309W        W 7066   8.858  36.983   0.899
43310W        W 7067  19.733  10.270  10.411
43311W        W 7068  13.327   3.351  13.002
43312W        W 7069  35.082  21.622   0.282
43313W        W 7070   8.659  35.947  12.570
43314W        W 7071  28.976  38.980   4.734
43315W        W 7072  36.587   4.941   4.700
43316W        W 7073  39.502  35.513  14.835
43317W        W 7074  27.177  27.987  10.008
43318W        W 7075  41.929  36.980   2.281
43319W        W 7076   5.811  27.004   0.809
43320W        W 7077   0.406  14.615   1.706
43321W        W 7078  10.289  21.061  14.505
43322W        W 7079   1.853  30.471   2.368
43323W        W 7080  13.174  22.208   1.843
43324W        W 7081   7.199  33.082  13.860
43325W        W 7082   8.224  22.627  11.124
43326W        W 7083  27.081   5.414  13.360
43327W        W 7084  16.759  14.235   2.220
43328W        W 7085  28.569  28.149  11.581
43329W        W 7086  39.455  42.791  11.912
43330W        W 7087  13.122  44.785   2.861
43331W        W 7088  31.116  21.185  11.402
43332W        W 7089  26.694   7.260   4.190
43333W        W 7090  40.882   4.425   3.257
43334W        W 7091  13.241   5.202   4.665
43335W        W 7092  13.610  23.607   3.209
43336W        W 7093  39.877  12.302  10.607
43337W        W 7094  29.030   6.741   1.825
43338W        W 7095  42.353  11.722   4.669
43339W        W 7096  30.657   8.171   3.868
43340W        W 7097   1.331  20.535  12.030
43341W        W 7098  32.959  20.066  13.058
43342W        W 7099   8.169   3.778   1.847
43343W        W 7100  16.079   5.834   2.766
43344W        W 7101   0.280  17.086   3.319
43345W        W 7102   8.854  25.696   0.854
43346W        W 7103   2.462  26.995   1.758
43347W        W 7104  11.795  27.650   3.735
43348W        W 7105   7.797  15.211   9.585
43349W        W 7106  43.290   9.149   1.256
43350W        W 7107  23.109   1.958  12.392
43351W        W 7108   9.699  25.514  13.879
43352W        W 7109  16.683  33.914   0.830
43353W        W 7110  40.485  35.566   4.254
43354W        W 7111  18.572  26.569  13.051
43355W        W 7112  13.229  11.207   2.888
43356W        W 7113  28.993  16.797  13.366
43357W        W 7114  26.579  10.367   0.293
43358W        W 7115   7.262   2.370   3.315
43359W        W 7116   6.421  13.165  13.989
43360W        W 7117  32.422  30.568  12.952
43361W        W 7118  19.739  43.810   3.809
43362W        W 7119  30.617  35.059  14.279
43363W        W 7120   8.785  30.645  14.920
43364W        W 7121  28.131  16.280   0.466
43365W        W 7122  11.684   4.318  12.908
43366W        W 7123  20.543   3.410  14.846
43367W        W 7124  29.922  36.998   2.792
43368W        W 7125  20.263  13.115  13.445
43369W        W 7126  32.428  18.727   2.779
43370W        W 7127  36.535  26.460   0.432
43371W        W 7128  34.084  12.281   3.636
43372W        W 7129   7.332  40.348   2.750
43373W        W 7130  12.188  36.591  12.921
43374W        W 7131  18.562  15.156   4.316
43375W        W 7132  32.951  17.671  12.074
43376W        W 7133  11.656  20.156   3.203
43377W        W 7134  19.771   8.383  14.484
43378W        W 7135  22.692  33.118  14.372
43379W        W 7136  18.724  18.724   3.202
43380W        W 7137  37.406   7.180  12.355
43381W        W 7138  28.602  35.394   0.400
43382W        W 7139  14.285  10.852  11.888
43383W        W 7140  10.214  30.023   4.163
43384W        W 7141  18.236  25.972   4.682
43385W        W 7142   6.392  19.051  14.442
43386W        W 7143  31.443   5.343  13.412
43387W        W 7144  15.193   3.749   1.929
43388W        W 7145  30.603  37.496  12.345
43389W        W 7146   0.461  26.589  10.410
43390W        W 7147  32.552  44.294  12.473
43391W        W 7148  35.971  25.634  14.362
43392W        W 7149  13.801  21.655   3.679
43393W        W 7150  21.537   1.768  12.933
43394W        W 7151   8.225  17.304  12.981
43395W        W 7152  28.670  44.360  14.871
43396W        W 7153  26.107  31.062  13.021
43397W        W 7154  37.844  43.877  14.004
43398W        W 7155  22.686   3.884   2.871
43399W        W 7156  18.272  16.124  13.956
43400W        W 7157   8.189  30.592  11.960
43401W        W 7158   9.778  33.537  11.031
43402W        W 7159  39.808  32.060   0.874
43403W        W 7160   1.909  24.119  11.583
43404W        W 7161  35.076  12.754   1.898
43405W        W 7162  26.618   4.838  10.151
43406W        W 7163  29.984   9.333  13.027
43407W        W 7164  39.359  33.431  13.409
43408W        W 7165   8.302  35.365   1.272
43409W        W 7166  15.681  28.638  10.612
43410W        W 7167  35.533  27.121  10.007
43411W        W 7168   2.803   9.755   0.389
43412W        W 7169  20.091   0.928  14.417
43413W        W 7170  31.434  22.588  12.537
43414W        W 7171  24.602  32.960   2.900
43415W        W 7172   3.855  36.572   1.443
43416W        W 7173  36.530  33.058   4.184
43417W        W 7174  10.285   0.980  10.543
43418W        W 7175  21.678  26.552   1.886
43419W        W 7176  15.771   3.710  10.516
43420W        W 7177   2.772  33.450  11.602
43421W        W 7178   8.299  13.759   0.767
43422W        W 7179  12.286  39.940  11.030
43423W        W 7180   8.814   8.214   0.871
43424W        W 7181   7.744  20.139   2.383
43425W        W 7182  15.215  34.057  13.839
43426W        W 7183  19.747   3.281  11.051
43427W        W 7184   3.836  32.986  12.859
43428W        W 7185  26.104  10.702   1.732
43429W        W 7186  32.996  42.905   4.147
43430W        W 7187   5.706   8.894   2.345
43431W        W 7188   4.705  28.679  12.017
43432W        W 7189  32.617  23.035   1.406
43433W        W 7190   1.362  25.130   0.355
43434W        W 7191   8.833  32.490  12.559
43435W        W 7192  33.541  29.105   1.299
43436W        W 7193   5.413  44.874  13.955
43437W        W 7194  17.221   2.327   4.697
43438W        W 7195  19.745   6.313  14.914
43439W        W 7196   9.880  20.115   1.255
43440W        W 7197   5.237  11.649   3.244
43441W        W 7198   5.798  33.489   0.262
43442W        W 7199   7.207  42.410  11.859
43443W        W 7200  41.464   4.212   1.876
43444W        W 7201  30.472  26.181  11.051
43445W        W 7202  37.504  13.691   3.366
43446W        W 7203  43.434   2.966   0.421
43447W        W 7204   1.766  35.027   4.289
43448W        W 7205  17.257  28.520  10.578
43449W        W 7206   1.764  39.922   4.193
43450W        W 7207  38.512  26.698  14.981
43451W        W 7208  28.006  18.155   5.259
43452W        W 7209  26.668  20.537   5.156
43453W        W 7210  10.816  14.656   1.838
43454W        W 7211   9.272   2.353   3.700
43455W        W 7212   7.201  23.008  14.032
43456W        W 7213  42.897  43.312   2.205
43457W        W 7214  23.209  11.821   3.727
43458W        W 7215  10.379  24.524  14.495
43459W        W 7216  25.964   7.802  10.480
43460W        W 7217   0.945  17.273   3.646
43461W        W 7218  19.115  17.707  11.086
43462W        W 7219  11.307  29.157   4.602
43463W        W 7220   5.912  15.107  13.326
43464W        W 7221   2.734  13.293   0.931
43465W        W 7222  25.528  36.368   1.791
43466W        W 7223  39.945  12.839   3.334
43467W        W 7224   3.274  15.708   3.190
43468W        W 7225   1.746  34.375   2.702
43469W        W 7226  30.455  15.257   2.194
43470W        W 7227  24.038   7.750  11.548
43471W        W 7228  29.459  27.971   5.172
43472W        W 7229  24.106  44.300   5.249
43473W        W 7230  31.084  10.763   3.764
43474W        W 7231  32.057  44.867   2.414
43475W        W 7232  13.783  14.180   1.351
43476W        W 7233  36.044   2.452  11.859
43477W        W 7234   9.205   8.892  10.956
43478W        W 7235  40.850  38.038   3.726
43479W        W 7236  10.751  27.068   1.890
43480W        W 7237  17.630  15.167  10.114
43481W        W 7238   7.874  24.225  14.769
43482W        W 7239  13.699   5.233   1.787
43483W        W 7240  25.157  16.178  14.363
43484W        W 7241   9.869  26.987   3.867
43485W        W 7242  38.977  22.997  10.466
43486W        W 7243  17.677  44.935   2.256
43487W        W 7244  14.751  11.273  13.050
43488W        W 7245  43.920  18.076  14.967
43489W        W 7246  20.715  36.071   2.247
43490W        W 7247  26.598  14.305  12.419
43491W        W 7248  15.635  42.813   3.688
43492W        W 7249  32.391  11.213  13.949
43493W        W 7250  36.525  29.047  10.560
43494W        W 7251   6.709  22.628  14.381
43495W        W 7252   2.421  38.569  10.977
43496W        W 7253  34.118  28.091  14.849
43497W        W 7254  22.009  19.691   2.385
43498W        W 7255  42.792  14.224  12.359
43499W        W 7256   4.750  12.686   3.249
43500W        W 7257  44.946  19.718   3.659
43501W        W 7258  17.619  11.639   3.219
43502W        W 7259   0.389  24.613   3.358
43503W        W 7260  21.524  30.465   3.835
43504W        W 7261  35.494  30.087   0.364
43505W        W 7262  32.538  19.568   2.673
43506W        W 7263  19.153  16.243  12.420
43507W        W 7264   6.848  32.929  12.568
43508W        W 7265  24.580  27.547  11.899
43509W        W 7266  12.128   8.814   2.194
43510W        W 7267  17.086  44.341  13.826
43511W        W 7268  12.678   6.708   0.747
43512W        W 7269  25.561  39.978  10.972
43513W        W 7270  41.803  32.425  10.960
43514W        W 7271   2.825   4.703  10.511
43515W        W 7272   1.937  23.224  10.923
43516W        W 7273   1.926  26.699  13.394
43517W        W 7274   8.821   8.177   2.206
43518W        W 7275   6.364  38.487   0.861
43519W        W 7276  33.993  38.486  13.453
43520W        W 7277  10.791  33.522   2.685
43521W        W 7278  15.101  43.958   4.336
43522W        W 7279  35.447   4.944  13.530
43523W        W 7280  38.518  37.914  13.880
43524W        W 7281   3.785  19.725   0.366
43525W        W 7282  37.918   1.278   1.291
43526W        W 7283  16.780  39.874   4.143
43527W        W 7284  44.284  17.169  14.946
43528W        W 7285  30.426  14.124  14.974
43529W        W 7286  30.592  13.173  11.014
43530W        W 7287  14.710  14.237   5.106
43531W        W 7288  28.974  37.426  14.375
43532W        W 7289  32.429  40.379   4.115
43533W        W 7290  44.967  40.392   4.741
43534W        W 7291  40.913  25.630  12.513
43535W        W 7292  12.178  15.261  11.590
43536W        W 7293  35.057   7.876   3.299
43537W        W 7294  28.571  26.028   0.319
43538W        W 7295   9.194   4.429   0.260
43539W        W 7296  11.263  23.697   1.910
43540W        W 7297   6.686  39.823   3.148
43541W        W 7298  14.706   4.934  10.007
43542W        W 7299  36.026   4.750  12.514
43543W        W 7300  36.556  33.899   1.334
43544W        W 7301  24.000  14.812  11.045
43545W        W 7302  17.269  33.478  14.836
43546W        W 7303  26.120  24.116   1.709
43547W        W 7304  27.122  17.137   3.747
43548W        W 7305  24.560  23.559   2.854
43549W        W 7306  19.657   7.275   1.370
43550W        W 7307  21.589  39.448   0.957
43551W        W 7308  22.669  16.071  10.445
43552W        W 7309  28.570  38.527  14.020
43553W        W 7310  13.762  37.050  11.031
43554W        W 7311  16.215  28.611   2.815
43555W        W 7312  13.159  14.595   2.850
43556W        W 7313   1.915  12.304  14.944
43557W        W 7314   0.489  24.211  13.350
43558W        W 7315  43.458  23.106   4.149
43559W        W 7316  19.255  26.500   1.925
43560W        W 7317  36.571  19.558  12.350
43561W        W 7318  11.257  39.459  13.959
43562W        W 7319  20.596   7.770   0.301
43563W        W 7320  38.509  31.940  12.873
43564W        W 7321  25.112  40.952  14.889
43565W        W 7322   2.312  39.351  14.845
43566W        W 7323   2.916  40.465  11.074
43567W        W 7324  18.114  26.119   3.691
43568W        W 7325  41.401   2.451   2.228
43569W        W 7326  24.715  44.383   4.180
43570W        W 7327  16.173  17.575   1.416
43571W        W 7328  32.412  26.634   3.270
43572W        W 7329  33.080   6.255  11.504
43573W        W 7330  44.351  24.062   2.824
43574W        W 7331  16.187  25.498  13.047
43575W        W 7332  41.312  28.943   3.175
43576W        W 7333   0.828  19.584  11.404
43577W        W 7334  43.357  20.196   4.785
43578W        W 7335  16.713  33.545   0.942
43579W        W 7336  43.854  28.090   2.331
43580W        W 7337  42.511  23.692  13.421
43581W        W 7338  18.245   5.439   4.303
43582W        W 7339   6.811  28.167  11.960
43583W        W 7340  15.200  14.330  11.547
43584W        W 7341   3.422  44.332  14.401
43585W        W 7342   8.186   1.356   1.289
43586W        W 7343  37.902  37.044  14.931
43587W        W 7344  20.167  36.386   2.792
43588W        W 7345  41.877  38.864   3.778
43589W        W 7346   8.778  36.467  13.970
43590W        W 7347   0.802  29.026  10.917
43591W        W 7348  18.203  10.229  13.359
43592W        W 7349  34.029  35.401  13.457
43593W        W 7350  20.538  31.537  11.063
43594W        W 7351  41.397  31.000  12.504
43595W        W 7352   3.826   9.242   3.251
43596W        W 7353  31.029  33.947   0.410
43597W        W 7354   1.337   0.761  11.085
43598W        W 7355  40.532  38.464  13.416
43599W        W 7356  17.722  29.949  13.978
43600W        W 7357  41.858  38.540   0.905
43601W        W 7358  40.029  21.194  10.428
43602W        W 7359  12.144   7.336   4.244
43603W        W 7360   7.353  36.851   3.674
43604W        W 7361  36.519  16.676  11.602
43605W        W 7362   2.739  19.650   4.285
43606W        W 7363  15.668   4.387   1.828
43607W        W 7364   9.856  41.488  13.389
43608W        W 7365  28.496  29.432   1.287
43609W        W 7366  30.489  35.575   0.365
43610W        W 7367  37.029  42.897  11.856
43611W        W 7368  34.976  44.906   2.789
43612W        W 7369  42.953  19.771   3.267
43613W        W 7370  36.021  12.173  10.940
43614W        W 7371  29.641  26.547   0.833
43615W        W 7372  20.594   6.795   1.430
43616W        W 7373  27.529  28.011   2.766
43617W        W 7374  36.539  42.371   4.322
43618W        W 7375  43.434  15.680   3.661
43619W        W 7376  32.096  28.662   2.402
43620W        W 7377  16.614   5.401  11.936
43621W        W 7378   9.210  21.049  12.829
43622W        W 7379   4.938  18.688  14.376
43623W        W 7380   0.918  33.442  13.062
43624W        W 7381  20.033  10.381   2.869
43625W        W 7382  38.972  21.054   1.775
43626W        W 7383  40.838  30.121  10.604
43627W        W 7384  43.956  15.723  14.278
43628W        W 7385   2.883  34.561  14.010
43629W        W 7386  39.355  40.992  14.843
43630W        W 7387  41.858   3.362  13.455
43631W        W 7388  36.887  33.515  12.918
43632W        W 7389   9.207  12.143   0.952
43633W        W 7390  34.472  12.291   2.885
43634W        W 7391  29.046  40.337  10.601
43635W        W 7392   4.204  30.561  14.401
43636W        W 7393  42.778  29.452  12.929
43637W        W 7394  33.460  16.618   9.949
43638W        W 7395  21.093   6.807   5.314
43639W        W 7396  19.280   5.265  12.552
43640W        W 7397  24.613  23.236   2.811
43641W        W 7398  32.109  15.126  12.498
43642W        W 7399  18.084  41.305  14.005
43643W        W 7400  16.607  17.632   3.650
43644W        W 7401   3.455  21.623  14.467
43645W        W 7402  44.313   5.863   3.787
43646W        W 7403  30.470  27.542  11.435
43647W        W 7404  31.926  17.581   2.800
43648W        W 7405  23.093  25.671  12.831
43649W        W 7406   3.424   3.849   4.781
43650W        W 7407  39.865   3.879   5.093
43651W        W 7408  42.524   7.186  14.961
43652W        W 7409   1.733  11.705   2.184
43653W        W 7410  31.476  20.557   0.790
43654W        W 7411  24.533  15.096  12.000
43655W        W 7412  38.491   0.248  11.514
43656W        W 7413  38.930   9.315   0.323
43657W        W 7414  19.698  18.141   3.657
43658W        W 7415  21.559  14.735  10.572
43659W        W 7416  35.397   8.744  14.432
43660W        W 7417  17.764  12.687  12.507
43661W        W 7418   6.227  36.943  14.794
43662W        W 7419   8.313   4.314   3.815
43663W        W 7420  24.691  12.774   1.895
43664W        W 7421  13.150   6.337  12.868
43665W        W 7422  15.654  37.903   0.801
43666W        W 7423  18.731  41.975  12.852
43667W        W 7424  32.111  27.129   9.511
43668W        W 7425  40.506   8.216  11.551
43669W        W 7426   1.883  20.735   2.390
43670W        W 7427  22.690  23.575   3.717
43671W        W 7428   8.345  16.686   3.209
43672W        W 7429   9.308  24.494   3.385
43673W        W 7430  11.212  41.019  12.434
43674W        W 7431  16.174  40.045  12.084
43675W        W 7432  13.313  29.589  12.549
43676W        W 7433  40.830  29.150  14.776
43677W        W 7434   9.150  29.436  11.990
43678W        W 7435  18.169   4.788  11.376
43679W        W 7436  39.514  35.494  14.427
43680W        W 7437  34.513   1.938  14.984
43681W        W 7438  12.770   2.917  11.517
43682W        W 7439  26.999  20.707  11.492
43683W        W 7440  29.462  35.077  12.900
43684W        W 7441  40.479   1.405   3.702
43685W        W 7442  44.340  26.627   0.435
43686W        W 7443  37.866   1.923   0.783
43687W        W 7444  42.922  38.500  13.535
43688W        W 7445  27.668  26.122   4.125
43689W        W 7446  42.852  35.095   4.668
43690W        W 7447  24.600  26.501   3.211
43691W        W 7448   5.739  21.083  12.365
43692W        W 7449  20.616  10.342  11.453
43693W        W 7450  26.581   4.874   3.654
43694W        W 7451  15.224  21.165  13.505
43695W        W 7452  15.582   9.734   1.911
43696W        W 7453  21.630   7.248   2.881
43697W        W 7454  38.996  36.889   0.900
43698W        W 7455   8.894  28.946   4.665
43699W        W 7456  15.178  32.097  14.364
43700W        W 7457  14.750  22.519  11.988
43701W        W 7458  14.831   3.381  10.439
43702W        W 7459  18.771  15.743   1.315
43703W        W 7460  29.512  36.458   4.600
43704W        W 7461  39.842  32.000  10.579
43705W        W 7462  11.167  41.888   3.693
43706W        W 7463  23.692   0.450  13.055
43707W        W 7464   8.222  13.619   0.282
43708W        W 7465  21.023  39.479   3.330
43709W        W 7466  27.006   5.722   0.872
43710W        W 7467   0.362  34.066   0.924
43711W        W 7468  30.039  16.649  13.881
43712W        W 7469  44.770  10.666   0.736
43713W        W 7470  24.013  29.975  13.062
43714W        W 7471  38.516   1.939   5.251
43715W        W 7472  42.289   1.968  11.452
43716W        W 7473   8.184  35.920  14.813
43717W        W 7474  15.272  43.907  14.484
43718W        W 7475  29.059   0.421   3.287
43719W        W 7476  26.474  44.264   3.717
43720W        W 7477  28.095   0.896   0.884
43721W        W 7478   0.865  20.238  11.877
43722W        W 7479  22.044  41.015  14.439
43723W        W 7480   9.849   3.833  10.477
43724W        W 7481   7.906   1.769   2.824
43725W        W 7482  31.428  37.964   1.805
43726W        W 7483  31.594  42.875   4.314
43727W        W 7484  15.687   2.420  10.632
43728W        W 7485  33.910   9.310   3.168
43729W        W 7486   3.824  10.157  11.972
43730W        W 7487  23.219  37.462  13.334
43731W        W 7488  31.503  38.564   1.422
43732W        W 7489  37.426  16.215   2.859
43733W        W 7490  29.922  24.175  11.543
43734W        W 7491  21.023  44.417   2.326
43735W        W 7492  17.674  23.205   4.749
43736W        W 7493  28.557  31.080   2.182
43737W        W 7494  10.229  33.093  11.079
43738W        W 7495  38.851   2.265  10.979
43739W        W 7496  18.766  31.551   4.201
43740W        W 7497  17.761   2.801   3.175
43741W        W 7498   8.763   2.333  11.119
43742W        W 7499  36.507  29.642  13.525
43743W        W 7500  21.747  44.952  11.522
43744W        W 7501  12.325  36.565  10.576
43745W        W 7502  30.607  31.153   4.731
43746W        W 7503  13.764  42.817  10.041
43747W        W 7504  16.236  35.548   1.435
43748W        W 7505  43.878  26.956   1.210
43749W        W 7506  35.035   3.304  13.430
43750W        W 7507  22.621  38.567   0.732
43751W        W 7508  22.231  25.598   0.354
43752W        W 7509  24.171   8.172  10.585
43753W        W 7510   7.275  25.103   2.716
43754W        W 7511   5.714   4.795   1.369
43755W        W 7512   0.759  17.585   4.237
43756W        W 7513  25.165  21.218  12.842
43757W        W 7514  13.788   2.254  14.344
43758W        W 7515   6.423  17.108   9.637
43759W        W 7516  17.780  24.531  14.434
43760W        W 7517  23.555  26.205  13.889
43761W        W 7518  12.813  26.480  12.370
43762W        W 7519  40.913  14.627   1.352
43763W        W 7520  16.788  37.354   1.860
43764W        W 7521  12.344   4.820  10.643
43765W        W 7522  40.866   3.267   2.875
43766W        W 7523   7.826  15.211  13.472
43767W        W 7524  14.149   0.944  10.088
43768W        W 7525  31.576   6.305  10.537
43769W        W 7526  26.161  14.691   4.237
43770W        W 7527  33.104   5.899  13.379
43771W        W 7528  28.018   5.772  11.062
43772W        W 7529  30.548  34.454  12.481
43773W        W 7530  38.000  30.999  14.507
43774W        W 7531  18.212  13.130   3.763
43775W        W 7532  37.857  30.111  13.411
43776W        W 7533   7.899  35.950   2.206
43777W        W 7534  11.143   5.851   0.267
43778W        W 7535  36.385   5.700   4.201
43779W        W 7536  30.011  32.577   4.350
43780W        W 7537  20.187  25.562  13.437
43781W        W 7538  43.865   7.808   4.821
43782W        W 7539  34.579   2.843   0.788
43783W        W 7540   4.805  30.043  11.102
43784W        W 7541  19.633  39.454  12.495
43785W        W 7542  22.048   8.354   4.814
43786W        W 7543   1.766  37.944   0.817
43787W        W 7544   8.317  22.996  13.849
43788W        W 7545   2.857  31.595  10.583
43789W        W 7546  39.448  40.435   4.313
43790W        W 7547  41.428  32.136  12.418
43791W        W 7548  18.278  44.757   2.359
43792W        W 7549  33.586  19.256   1.793
43793W        W 7550  22.717  10.290   4.261
43794W        W 7551  13.339   4.722  11.382
43795W        W 7552  44.873  12.223  12.931
43796W        W 7553  43.906  43.929   4.714
43797W        W 7554   4.333   6.425   1.816
43798W        W 7555  32.921  22.088  12.960
43799W        W 7556  42.335   7.716   0.309
43800W        W 7557  31.440  37.851  11.119
43801W        W 7558  26.462   1.430   4.183
43802W        W 7559  12.170  22.017  14.840
43803W        W 7560  39.952  30.429   0.313
43804W        W 7561  23.526  17.629  10.467
43805W        W 7562  27.944  15.159   2.785
43806W        W 7563  10.219  23.984  12.835
43807W        W 7564  23.075  35.474   3.799
43808W        W 7565  10.262  21.080   3.347
43809W        W 7566  27.672  22.667   0.917
43810W        W 7567   9.785  43.347   3.151
43811W        W 7568   6.391   3.218   4.777
43812W        W 7569   2.913  18.052   0.474
43813W        W 7570  33.074  44.763  14.288
43814W        W 7571  30.928  44.754  14.485
43815W        W 7572  13.274  10.805  11.477
43816W        W 7573  12.682   4.806  12.923
43817W        W 7574  40.413  34.983  11.883
43818W        W 7575  18.221   1.400  13.977
43819W        W 7576  17.704  38.969  13.381
43820W        W 7577   3.847  33.910   3.755
43821W        W 7578  35.924   7.669  11.877
43822W        W 7579  38.921  11.750   4.708
43823W        W 7580  35.008  10.751   4.665
43824W        W 7581   6.246  24.040  12.897
43825W        W 7582  43.020   8.899   3.189
43826W        W 7583   8.755  35.069  13.343
43827W        W 7584  30.076  18.564  11.036
43828W        W 7585  30.004  44.387  11.958
43829W        W 7586  24.099   3.782  12.937
43830W        W 7587  18.731  42.527   2.886
43831W        W 7588  11.308   5.772  10.447
43832W        W 7589  28.604  14.599   2.414
43833W        W 7590   2.450  44.316   1.705
43834W        W 7591   3.924  25.194  13.425
43835W        W 7592  19.727  29.585  11.104
43836W        W 7593  28.161  37.369   2.820
43837W        W 7594   8.379   2.917  13.981
43838W        W 7595  45.000  41.812  11.073
43839W        W 7596  18.783   8.775   0.435
43840W        W 7597  25.110  18.634  14.911
43841W        W 7598  31.423   2.301   1.308
43842W        W 7599  20.083  40.524  12.092
43843W        W 7600   4.318  16.269  13.951
43844W        W 7601   6.845  20.056  10.554
43845W        W 7602  39.456  14.673  14.339
43846W        W 7603  21.165   0.483  12.512
43847W        W 7604  29.594  17.560  14.866
43848W        W 7605  37.997   9.349   3.380
43849W        W 7606  10.253  14.301  13.425
43850W        W 7607   7.701   3.220  11.588
43851W        W 7608  25.484   7.834   2.413
43852W        W 7609  22.013  12.835  14.922
43853W        W 7610  11.718  18.559   4.687
43854W        W 7611  31.898  30.073  11.473
43855W        W 7612  26.123  26.562  10.599
43856W        W 7613  38.489  44.263   3.844
43857W        W 7614  33.534  42.509  13.970
43858W        W 7615  29.146   3.301   2.667
43859W        W 7616  33.444  19.159  14.835
43860W        W 7617   5.201   1.247  12.346
43861W        W 7618  36.436  25.128  12.825
43862W        W 7619  31.526  16.796   4.265
43863W        W 7620  35.097   0.889  11.383
43864W        W 7621   4.310  14.688   4.347
43865W        W 7622  22.672  24.114  11.564
43866W        W 7623   7.229  33.621  10.966
43867W        W 7624  23.609  29.457  11.865
43868W        W 7625  39.995  29.510   2.384
43869W        W 7626  19.228  40.347  14.985
43870W        W 7627  27.175  19.188  11.880
43871W        W 7628   6.744   2.240  12.575
43872W        W 7629  11.295   2.243   3.770
43873W        W 7630  30.989  25.690  12.941
43874W        W 7631   8.272  19.610  11.006
43875W        W 7632  40.853  44.949  13.010
43876W        W 7633  38.468   0.944   1.892
43877W        W 7634   2.376  19.707  14.317
43878W        W 7635  11.746   0.753  13.808
43879W        W 7636   4.913  39.860   0.899
43880W        W 7637  43.455  37.443  14.428
43881W        W 7638  44.426  35.023   4.148
43882W        W 7639  10.220   5.736  12.488
43883W        W 7640   9.310  15.809  14.354
43884W        W 7641   8.165  39.352   2.383
43885W        W 7642   7.220  27.055   4.768
43886W        W 7643  33.480  41.538  10.052
43887W        W 7644  43.451  34.055  13.878
43888W        W 7645  17.227  37.919   4.766
43889W        W 7646  39.843  25.204  10.527
43890W        W 7647   3.731  26.017  11.955
43891W        W 7648  28.069  31.122  10.457
43892W        W 7649  31.152  29.636  13.467
43893W        W 7650   4.387  27.452   0.744
43894W        W 7651   9.715  34.899   3.252
43895W        W 7652  35.506  10.245   3.363
43896W        W 7653  33.915  34.470   4.628
43897W        W 7654  42.478  18.727  12.909
43898W        W 7655  42.856  44.445   0.822
43899W        W 7656  27.565  14.196   9.976
43900W        W 7657   2.302   5.362  14.484
43901W        W 7658  30.580   9.675  12.084
43902W        W 7659  41.916  34.594   2.253
43903W        W 7660   7.852  40.548   0.368
43904W        W 7661  40.474  26.104  11.036
43905W        W 7662  35.362  26.976  13.438
43906W        W 7663  17.199  11.638   4.325
43907W        W 7664   5.324  22.613  14.484
43908W        W 7665  35.953  41.382  10.499
43909W        W 7666   2.898  41.396   1.213
43910W        W 7667   5.731  27.191  14.976
43911W        W 7668  36.479  18.131  14.006
43912W        W 7669  34.590  31.525   0.305
43913W        W 7670  38.996  34.421  12.071
43914W        W 7671  24.162  43.782   4.139
43915W        W 7672   7.235  19.237   3.709
43916W        W 7673  27.614  15.162  11.999
43917W        W 7674  42.306  24.045   0.734
43918W        W 7675  32.625   0.922  12.393
43919W        W 7676  24.581  42.845  13.888
43920W        W 7677   9.329  19.556   2.263
43921W        W 7678  15.103  19.613   0.416
43922W        W 7679   0.911  43.842   2.178
43923W        W 7680  39.891  30.590  10.529
43924W        W 7681   2.470   8.230  13.446
43925W        W 7682  42.923  34.386  14.899
43926W        W 7683  10.663  37.074  11.006
43927W        W 7684  44.397   8.657   4.710
43928W        W 7685  32.040  35.542  12.052
43929W        W 7686  44.494  11.758   3.676
43930W        W 7687  12.206  40.382  12.062
43931W        W 7688  18.124  19.134  14.969
43932W        W 7689  20.751  10.223   0.853
43933W        W 7690   8.250  43.990  13.438
43934W        W 7691   2.439  30.628  10.995
43935W        W 7692  12.249   2.404  12.063
43936W        W 7693  42.905  24.540  12.070
43937W        W 7694  38.398  35.092  13.798
43938W        W 7695   0.263   5.841  12.845
43939W        W 7696  24.581  34.458  10.423
43940W        W 7697  28.183  13.340   3.218
43941W        W 7698  37.965  22.234  12.983
43942W        W 7699  37.000  12.283  12.344
43943W        W 7700  31.580  18.218   2.696
43944W        W 7701   4.385  30.430  10.526
43945W        W 7702  22.704  41.387  12.894
43946W        W 7703  19.059  10.772  13.015
43947W        W 7704  17.252  15.665  13.831
43948W        W 7705  44.492   0.424   4.114
43949W        W 7706  14.732  35.874   1.304
43950W        W 7707  24.633  22.695   1.804
43951W        W 7708   1.247  11.164   3.776
43952W        W 7709  30.144   5.925   0.297
43953W        W 7710   2.963  42.498   4.284
43954W        W 7711   7.252  15.672  13.928
43955W        W 7712  21.733   3.901  11.553
43956W        W 7713  43.859  40.471  11.083
43957W        W 7714   4.409  29.424  13.516
43958W        W 7715   2.301  34.108   3.283
43959W        W 7716  14.637  20.564   0.781
43960W        W 7717  18.098  17.566   3.368
43961W        W 7718  16.168  10.149  12.578
43962W        W 7719  30.638  27.634   4.753
43963W        W 7720  24.107   1.373   2.354
43964W        W 7721   5.239  30.954  14.349
43965W        W 7722  13.326   8.851   0.465
43966W        W 7723   7.810  19.775   1.256
43967W        W 7724  37.085  37.079  10.481
43968W        W 7725  13.183  18.117   3.799
43969W        W 7726  28.585  11.236   3.240
43970W        W 7727   9.697  20.096  11.068
43971W        W 7728   7.696  28.013  11.405
43972W        W 7729   4.730  13.642  11.866
43973W        W 7730  40.979  18.777  11.447
43974W        W 7731  21.684  17.753   3.740
43975W        W 7732  39.423   8.748  12.984
43976W        W 7733  27.462  41.827  12.432
43977W        W 7734  33.431  27.196   0.361
43978W        W 7735   0.469  41.463  13.800
43979W        W 7736  13.141  12.344  11.053
43980W        W 7737  38.885   6.699  11.020
43981W        W 7738  13.235  17.062   5.163
43982W        W 7739  24.115   4.342   0.927
43983W        W 7740   5.372  20.084  14.927
43984W        W 7741  19.128  26.143  12.406
43985W        W 7742  32.120  44.843  11.460
43986W        W 7743  18.280  32.082   1.842
43987W        W 7744  43.410  14.619  11.078
43988W        W 7745  24.145  44.852   3.264
43989W        W 7746  12.854  37.862   2.713
43990W        W 7747  26.570  17.260  14.895
43991W        W 7748  19.681  37.546   4.136
43992W        W 7749  27.170  43.295   2.237
43993W        W 7750  38.862   2.755   3.379
43994W        W 7751  31.464  27.188   3.146
43995W        W 7752  37.567  20.102  12.837
43996W        W 7753  37.516  11.800  10.423
43997W        W 7754  25.549  22.548   0.955
43998W        W 7755   6.372   1.238   1.909
43999W        W 7756   1.908   3.944   0.963
44000W        W 7757  11.240  12.671   3.845
44001W        W 7758  41.374  29.476  10.951
44002W        W 7759  38.077  18.072   3.148
44003W        W 7760  25.472  18.255  11.381
44004W        W 7761   5.892  44.498  12.867
44005W        W 7762  17.634  19.066  14.008
44006W        W 7763   3.220   5.873  14.833
44007W        W 7764  44.930  34.008   4.702
44008W        W 7765  17.203  15.305   4.772
44009W        W 7766  29.030  19.567  12.044
44010W        W 7767  35.500  34.112   4.744
44011W        W 7768  39.375   7.798   1.755
44012W        W 7769  18.259  26.689  13.977
44013W        W 7770  19.646  14.113   3.780
44014W        W 7771  41.459  21.579  12.341
44015W        W 7772  28.015   8.850  13.964
44016W        W 7773  40.815  27.542  13.505
44017W        W 7774  23.185  36.059  11.500
44018W        W 7775   0.932  10.822   1.313
44019W        W 7776  25.530  36.009  12.350
44020W        W 7777   1.814  42.310   0.440
44021W        W 7778  29.433  37.381   4.285
44022W        W 7779   4.826  27.088   0.478
44023W        W 7780   2.443  23.661   2.220
44024W        W 7781  38.969  23.167  11.480
44025W        W 7782  19.744  22.204  10.570
44026W        W 7783   8.206  24.040  10.620
44027W        W 7784   6.818  41.478  14.426
44028W        W 7785   4.926  41.924   1.929
44029W        W 7786  38.377  20.218   0.425
44030W        W 7787   0.745  26.610   4.246
44031W        W 7788  39.858  13.603   2.879
44032W        W 7789  35.494  14.769   1.436
44033W        W 7790  16.660  28.955  14.894
44034W        W 7791  12.721  28.556   0.342
44035W        W 7792   5.781  37.077  13.852
44036W        W 7793  32.891  28.657   1.922
44037W        W 7794   9.805  28.468  10.534
44038W        W 7795  14.772   5.278   1.878
44039W        W 7796  27.942   1.794   3.233
44040W        W 7797   5.887  37.830  13.413
44041W        W 7798  24.505   4.229  12.860
44042W        W 7799  14.683  34.533  11.057
44043W        W 7800  19.732  14.295  14.315
44044W        W 7801  28.555  30.137  13.910
44045W        W 7802  36.546  40.838   1.935
44046W        W 7803  16.731  32.997  13.488
44047W        W 7804  22.570   5.379   3.853
44048W        W 7805  37.970  12.764   2.678
44049W        W 7806  35.068  13.836  10.972
44050W        W 7807  43.765  26.992   1.747
44051W        W 7808   1.354   4.843  10.124
44052W        W 7809  10.340  44.491   3.283
44053W        W 7810  33.963  41.905  13.031
44054W        W 7811  40.010  35.568   4.602
44055W        W 7812   6.307  14.701   1.872
44056W        W 7813   4.408  28.993   2.696
44057W        W 7814  21.586  42.875   4.134
44058W        W 7815  17.592   4.417  12.898
44059W        W 7816  29.014  39.473   2.183
44060W        W 7817   4.418  26.071  12.506
44061W        W 7818  28.034   1.945   1.231
44062W        W 7819  21.680  23.207   1.800
44063W        W 7820  13.118   7.715  10.621
44064W        W 7821   2.415  34.991  13.324
44065W        W 7822  20.136   1.292  11.963
44066W        W 7823  29.458  31.072   1.816
44067W        W 7824   3.944  41.815  10.638
44068W        W 7825  23.228  39.515   2.787
44069W        W 7826  25.054   6.809   0.953
44070W        W 7827  17.754  24.094  11.048
44071W        W 7828  20.247  10.717   3.670
44072W        W 7829  11.724  41.942   2.773
44073W        W 7830  31.648   9.245  11.555
44074W        W 7831  36.506  42.476  10.486
44075W        W 7832   7.741  22.099  11.592
44076W        W 7833  44.342  12.216   1.388
44077W        W 7834  28.136  16.164  12.894
44078W        W 7835  12.131  44.379  10.549
44079W        W 7836  43.384  30.533   2.410
44080W        W 7837  25.019  38.022  11.398
44081W        W 7838  41.040  12.647   1.823
44082W        W 7839  25.196  24.060  13.535
44083W        W 7840  14.242  14.728   4.785
44084W        W 7841  38.962  42.479  11.954
44085W        W 7842  28.935  39.840  10.998
44086W        W 7843  35.536  19.208   2.217
44087W        W 7844  38.417   2.945  14.781
44088W        W 7845  40.840  24.071   2.852
44089W        W 7846  10.777  15.265   2.335
44090W        W 7847  11.802  27.645   0.892
44091W        W 7848  11.358  13.752  13.543
44092W        W 7849  21.743  41.338  11.072
44093W        W 7850   0.379   7.275  14.444
44094W        W 7851  29.130  13.682   1.789
44095W        W 7852  26.041  36.455  14.305
44096W        W 7853   2.264  33.910   3.746
44097W        W 7854   6.251  12.634  13.516
44098W        W 7855   0.927   5.303   0.943
44099W        W 7856  17.726  15.302  10.631
44100W        W 7857  27.173  44.894  14.412
44101W        W 7858  42.856  14.824   4.326
44102W        W 7859  28.650  21.150   2.703
44103W        W 7860   1.803  28.986   0.962
44104W        W 7861   3.840  32.082   0.341
44105W        W 7862  19.183   4.205   3.792
44106W        W 7863  34.985  11.750  10.999
44107W        W 7864   9.890   3.873   0.255
44108W        W 7865  43.779  18.137   1.261
44109W        W 7866  32.490  28.164  13.864
44110W        W 7867  40.935  38.037   1.931
44111W        W 7868  32.453  23.517  13.412
44112W        W 7869  39.441  21.097   1.369
44113W        W 7870  36.435  26.563   1.240
44114W        W 7871  23.514  16.306   2.179
44115W        W 7872   3.450  10.741  13.344
44116W        W 7873  15.740  15.261  13.341
44117W        W 7874  22.507  34.026  13.526
44118W        W 7875  34.504  23.551  11.463
44119W        W 7876  35.866   1.321  10.068
44120W        W 7877  24.152  26.543   1.697
44121W        W 7878  13.837  18.657  13.977
44122W        W 7879  32.136  12.247  12.077
44123W        W 7880   6.774  36.916   0.953
44124W        W 7881  29.955  41.786  13.509
44125W        W 7882  31.004  42.400  13.472
44126W        W 7883  16.137  36.942  13.825
44127W        W 7884  18.593  12.715   3.683
44128W        W 7885  17.296  34.016  10.556
44129W        W 7886  16.237   0.466   4.799
44130W        W 7887  27.496  40.503  13.440
44131W        W 7888  12.273   4.397  10.441
44132W        W 7889  31.080  12.199  14.766
44133W        W 7890   9.193  31.923   4.735
44134W        W 7891  27.075   4.414   4.316
44135W        W 7892  31.515  43.993  11.090
44136W        W 7893   2.272  31.589   0.857
44137W        W 7894  18.286  10.265   0.862
44138W        W 7895  23.026  16.186  11.430
44139W        W 7896  15.185  13.270   1.222
44140W        W 7897  11.300  39.978   0.819
44141W        W 7898  14.597  10.733   0.270
44142W        W 7899   2.408  28.678  12.363
44143W        W 7900  12.330  34.018   4.170
44144W        W 7901  26.017   8.248  10.979
44145W        W 7902  17.122  19.583   3.720
44146W        W 7903  38.551  11.200   4.748
44147W        W 7904  13.291   1.755   0.355
44148W        W 7905  36.970  42.998   3.343
44149W        W 7906  41.917  33.440   0.394
44150W        W 7907  31.098  35.374   0.871
44151W        W 7908   7.239  26.006  12.926
44152W        W 7909   3.241  10.206   1.876
44153W        W 7910  11.740  22.603   4.798
44154W        W 7911  16.808  43.766   2.215
44155W        W 7912  11.693  41.400   5.189
44156W        W 7913  18.654  13.687   4.294
44157W        W 7914  37.413  18.184  13.323
44158W        W 7915  17.661   4.368  10.567
44159W        W 7916  27.463   3.226  11.039
44160W        W 7917  40.048  25.555   3.758
44161W        W 7918  24.102  31.084   3.179
44162W        W 7919  40.327  13.836   4.748
44163W        W 7920  38.882   5.310   1.876
44164W        W 7921  24.552  29.018   4.771
44165W        W 7922   9.149  27.998   2.378
44166W        W 7923  35.097  27.044   3.789
44167W        W 7924   8.880  34.905  14.874
44168W        W 7925  12.688  32.509   3.349
44169W        W 7926  23.705  38.973  13.496
44170W        W 7927  42.836  19.588  11.922
44171W        W 7928  31.119  16.769  13.982
44172W        W 7929  40.004  25.066  11.113
44173W        W 7930  44.768  24.600   3.198
44174W        W 7931  41.035  24.152  11.494
44175W        W 7932  26.599  22.240   4.695
44176W        W 7933  35.471  37.543  10.436
44177W        W 7934  29.537   6.203  14.863
44178W        W 7935  29.469   1.365   1.443
44179W        W 7936   1.461  35.986   4.279
44180W        W 7937  11.718  29.034   9.973
44181W        W 7938  42.814  20.200  11.876
44182W        W 7939  13.842  27.957   1.724
44183W        W 7940   0.798  10.312   2.333
44184W        W 7941   5.412  33.480   4.796
44185W        W 7942  40.975  44.904   3.320
44186W        W 7943  27.196  30.475   1.444
44187W        W 7944  41.495   6.368  13.849
44188W        W 7945  44.011   9.680  10.958
44189W        W 7946   7.849  17.777   1.346
44190W        W 7947   3.937  14.791   2.399
44191W        W 7948  30.440   1.317   4.146
44192W        W 7949  34.992  18.785   2.781
44193W        W 7950  22.165  40.475   1.267
44194W        W 7951  29.950  10.820   1.696
44195W        W 7952  20.752  37.968   3.855
44196W        W 7953  44.784  15.120  11.447
44197W        W 7954  35.048  16.654   1.261
44198W        W 7955  43.014  30.422  13.387
44199W        W 7956  24.032   2.269   1.816
44200W        W 7957  34.575  12.218   4.224
44201W        W 7958  26.565  38.343  12.477
44202W        W 7959  34.050  33.459   3.298
44203W        W 7960  38.053  33.974  10.404
44204W        W 7961  31.517  30.113   3.734
44205W        W 7962  31.951  44.427  11.429
44206W        W 7963  21.043  30.460  10.117
44207W        W 7964  16.277  44.974  11.429
44208W        W 7965  19.099  29.981   4.247
44209W        W 7966  12.276   2.447  10.521
44210W        W 7967  26.585  21.058   3.311
44211W        W 7968  29.918  24.171   0.785
44212W        W 7969  15.234  10.694   3.809
44213W        W 7970  24.569  16.179   4.227
44214W        W 7971  41.331  39.392   2.742
44215W        W 7972  10.758  30.105   3.320
44216W        W 7973  29.051  38.487   2.340
44217W        W 7974  39.046  40.314  13.520
44218W        W 7975   0.954  22.658   4.245
44219W        W 7976  43.866  31.492  13.046
44220W        W 7977  27.498  44.940   4.659
44221W        W 7978  32.905   5.852  10.464
44222W        W 7979   0.416  28.517   0.888
44223W        W 7980  40.977  19.578  12.849
44224W        W 7981   9.875   3.459   1.745
44225W        W 7982  13.617   4.298  11.952
44226W        W 7983  21.159   1.438  14.370
44227W        W 7984  15.117  19.589  11.019
44228W        W 7985   3.738  34.094  10.949
44229W        W 7986  21.069  33.062   4.201
44230W        W 7987  18.614  26.183  13.537
44231W        W 7988  11.342   0.417   5.641
44232W        W 7989  22.177   0.902   3.190
44233W        W 7990  23.143  29.603   2.740
44234W        W 7991  16.218  31.580   0.960
44235W        W 7992  44.437  38.887  12.090
44236W        W 7993  12.126   7.265  10.623
44237W        W 7994  31.906   9.232  10.481
44238W        W 7995   7.848  39.947  13.929
44239W        W 7996  10.791  33.053   1.352
44240W        W 7997  19.771  38.563   4.181
44241W        W 7998   8.870  37.905  10.642
44242W        W 7999   7.781   5.430  13.961
44243W        W 8000  18.577  15.243  14.460
44244W        W 8001  20.206   4.887   3.182
44245W        W 8002  43.362  20.730  12.356
44246W        W 8003  34.529  32.393   2.900
44247W        W 8004   9.764   6.710   3.649
44248W        W 8005  15.242  37.014   0.892
44249W        W 8006  18.052   4.398  11.416
44250W        W 8007   3.751  42.450  13.348
44251W        W 8008  37.937  22.635  12.837
44252W        W 8009  24.644  13.645   0.322
44253W        W 8010  21.538  31.580   4.604
44254W        W 8011   3.347  39.865  10.060
44255W        W 8012  28.011  44.763  14.351
44256W        W 8013   1.368  40.535  10.557
44257W        W 8014  13.808   5.888   2.729
44258W        W 8015  12.127   3.921   2.397
44259W        W 8016  28.150  31.946   4.703
44260W        W 8017  10.326   0.341   4.743
44261W        W 8018  12.223  44.756  10.490
44262W        W 8019   9.176   6.307   4.799
44263W        W 8020  24.230  39.809   0.755
44264W        W 8021  18.670  36.405   0.336
44265W        W 8022   2.751  15.155   1.368
44266W        W 8023   8.846  35.048  10.937
44267W        W 8024  43.765   7.699   3.163
44268W        W 8025  18.635  43.501  13.441
44269W        W 8026  34.589  29.064  13.045
44270W        W 8027  24.171  41.037   4.141
44271W        W 8028  42.785  12.230  13.454
44272W        W 8029  12.700   1.360  14.911
44273W        W 8030   0.971  12.840   2.862
44274W        W 8031   6.919  38.975  12.543
44275W        W 8032   4.222   0.839  12.379
44276W        W 8033  28.038  36.093   1.919
44277W        W 8034  33.927   5.252   1.751
44278W        W 8035   5.250  29.015   0.832
44279W        W 8036  24.524  22.052   4.158
44280W        W 8037  25.053  17.088  14.994
44281W        W 8038  38.496  10.703  11.455
44282W        W 8039   3.232  17.172  11.968
44283W        W 8040  21.546  17.307  14.432
44284W        W 8041   1.331   4.749   0.964
44285W        W 8042  28.069  21.246  10.427
44286W        W 8043  13.138  33.970  10.607
44287W        W 8044  33.051   4.733   0.945
44288W        W 8045  34.379  12.213   2.187
44289W        W 8046  35.936  29.573   0.450
44290W        W 8047  18.183  16.571   4.163
44291W        W 8048  16.259  33.501   2.195
44292W        W 8049  15.622  16.585   1.409
44293W        W 8050  24.650  38.469   0.782
44294W        W 8051  25.060  42.777  11.967
44295W        W 8052  30.615   8.321  13.384
44296W        W 8053  38.522   2.889   1.736
44297W        W 8054  42.453  41.411   1.332
44298W        W 8055  11.786   6.201   1.343
44299W        W 8056  40.865   0.952  12.390
44300W        W 8057  23.551  38.365   1.706
44301W        W 8058  41.478  32.472   1.290
44302W        W 8059  33.005  15.765   0.942
44303W        W 8060  31.024  33.950  14.425
44304W        W 8061  12.619   2.903  12.529
44305W        W 8062  37.483  31.648   3.755
44306W        W 8063  14.616  31.151  14.993
44307W        W 8064  13.191  42.812   3.794
44308W        W 8065  32.030  14.234   3.781
44309W        W 8066  25.149  41.000   2.261
44310W        W 8067  20.733  42.000  11.894
44311W        W 8068  33.488  40.895   1.321
44312W        W 8069  22.229  21.144   3.820
44313W        W 8070  38.485  21.543  11.968
44314W        W 8071  21.738   6.911   0.316
44315W        W 8072  37.849   9.696  13.409
44316W        W 8073   5.926   1.851   2.893
44317W        W 8074  19.081  21.568   2.364
44318W        W 8075   7.780  22.172   4.350
44319W        W 8076  27.155   8.363  14.364
44320W        W 8077  22.527  12.326  12.947
44321W        W 8078  42.887   2.817  11.535
44322W        W 8079  40.449  30.911   3.701
44323W        W 8080  21.556  39.488  10.603
44324W        W 8081  39.033   3.418  14.391
44325W        W 8082  26.600  33.448   2.251
44326W        W 8083  24.683  29.562  13.001
44327W        W 8084  35.004  16.248  13.491
44328W        W 8085  21.185  14.798   3.280
44329W        W 8086  42.303  25.080  14.898
44330W        W 8087  34.503  39.408   0.314
44331W        W 8088  41.335  32.073  13.856
44332W        W 8089   8.280  23.127  12.526
44333W        W 8090  35.074  20.253   1.897
44334W        W 8091   4.900  42.777   4.247
44335W        W 8092  28.521   1.914   4.830
44336W        W 8093   7.686   7.867   3.862
44337W        W 8094  36.481  36.861   2.740
44338W        W 8095  26.965  18.756   1.725
44339W        W 8096  20.664  30.429   3.225
44340W        W 8097  30.490  23.721  10.491
44341W        W 8098  24.674  33.455  10.899
44342W        W 8099  40.996  28.119   0.745
44343W        W 8100  16.632  28.012  10.889
44344W        W 8101  25.198  10.658  13.059
44345W        W 8102  41.388  41.405   0.292
44346W        W 8103  13.324  33.105   3.237
44347W        W 8104   6.894  22.518   2.400
44348W        W 8105  17.206   6.184   3.692
44349W        W 8106  39.454  42.793   1.926
44350W        W 8107  41.977  10.175   1.354
44351W        W 8108  24.613  22.747   0.287
44352W        W 8109   2.948  43.927  10.996
44353W        W 8110  15.244  27.014   0.298
44354W        W 8111  36.526  35.956   2.250
44355W        W 8112  30.517  40.441   3.733
44356W        W 8113  16.780  11.210   2.860
44357W        W 8114  29.996   1.734   2.372
44358W        W 8115  13.827  36.986  10.457
44359W        W 8116  28.619  17.145  11.483
44360W        W 8117  27.538  41.478  11.431
44361W        W 8118  34.031  15.777  13.944
44362W        W 8119   8.842  24.480  13.348
44363W        W 8120   1.250  11.319  14.016
44364W        W 8121  27.970  27.581  11.373
44365W        W 8122  44.907   8.854   4.258
44366W        W 8123  38.033  10.272  10.114
44367W        W 8124  43.947  11.309   0.916
44368W        W 8125  12.170  41.021   4.660
44369W        W 8126  26.648  16.571   4.744
44370W        W 8127  36.377  40.832  12.492
44371W        W 8128  41.536  15.776   1.771
44372W        W 8129  14.736  20.079   1.860
44373W        W 8130  25.515  14.710   1.322
44374W        W 8131  15.628  11.367  10.897
44375W        W 8132  16.597  25.556   4.274
44376W        W 8133  18.691  22.712  10.036
44377W        W 8134  38.423  35.474  10.625
44378W        W 8135  35.458  18.736  13.980
44379W        W 8136  38.846  17.157   5.242
44380W        W 8137   1.340  40.915   2.203
44381W        W 8138  19.633  33.980   0.267
44382W        W 8139  34.477   8.894  12.060
44383W        W 8140  17.127  29.004  14.276
44384W        W 8141  22.142  26.006  13.813
44385W        W 8142   5.334  11.164   1.414
44386W        W 8143  19.682  10.778  11.993
44387W        W 8144  33.009   9.783  14.765
44388W        W 8145   2.405  36.517  10.406
44389W        W 8146  41.501  31.948  12.061
44390W        W 8147  23.167  28.522   4.211
44391W        W 8148  31.897  33.102  14.317
44392W        W 8149   5.758  34.914  14.931
44393W        W 8150  18.673  39.988  12.982
44394W        W 8151   4.911   2.831   1.891
44395W        W 8152   4.293  20.594   4.170
44396W        W 8153  32.886  10.240  10.953
44397W        W 8154  35.026  22.071  12.574
44398W        W 8155  42.323  42.860   3.638
44399W        W 8156  19.627   5.750   0.875
44400W        W 8157   8.312   4.355  10.580
44401W        W 8158   2.280  13.316  10.996
44402W        W 8159  27.648   9.251   1.807
44403W        W 8160  41.371  16.694  12.451
44404W        W 8161  22.688  36.943   1.846
44405W        W 8162   9.190   8.365   2.736
44406W        W 8163  14.143  33.379   0.476
44407W        W 8164  28.527  43.018  12.061
44408W        W 8165   2.403  28.948  10.941
44409W        W 8166   5.877  44.924   9.565
44410W        W 8167  30.147  14.791  13.462
44411W        W 8168  19.691  19.208   2.719
44412W        W 8169  12.246  27.018  11.119
44413W        W 8170  14.696  13.313  13.380
44414W        W 8171   9.210  13.731   0.361
44415W        W 8172  13.704  13.314   4.773
44416W        W 8173   0.968   3.738  12.037
44417W        W 8174   2.246  14.792   1.884
44418W        W 8175  23.651  20.177   4.831
44419W        W 8176  23.007  43.987  11.598
44420W        W 8177  10.727  12.839  14.865
44421W        W 8178  18.238  43.383   4.349
44422W        W 8179   1.305  17.156   0.943
44423W        W 8180  27.110   0.978  10.995
44424W        W 8181  13.219  10.764  14.841
44425W        W 8182  37.420   1.811   1.927
44426W        W 8183  41.855  20.697   0.465
44427W        W 8184  18.127  14.830  12.001
44428W        W 8185   5.925  38.374   4.217
44429W        W 8186  39.329  27.131   4.797
44430W        W 8187  38.950  13.636  10.506
44431W        W 8188  31.022  20.238  14.965
44432W        W 8189  21.233  18.067  14.001
44433W        W 8190  34.110  33.061  13.376
44434W        W 8191  35.368  13.232  12.092
44435W        W 8192   0.391  27.962   0.929
44436W        W 8193  30.570  32.600   3.165
44437W        W 8194  43.961  21.231   4.823
44438W        W 8195  44.930  24.070   4.123
44439W        W 8196  21.187   1.852  10.994
44440W        W 8197   7.387  22.632   0.921
44441W        W 8198  28.536  39.937   2.864
44442W        W 8199  33.380  11.659   4.354
44443W        W 8200  44.350   4.252  13.868
44444W        W 8201  14.220  19.570   3.270
44445W        W 8202  38.950  41.337   3.791
44446W        W 8203  40.011  25.532   2.826
44447W        W 8204  18.090  37.348  12.516
44448W        W 8205  11.313   3.253   2.280
44449W        W 8206  26.658  23.088  11.874
44450W        W 8207  37.408  18.602  11.003
44451W        W 8208  14.755  44.411  14.008
44452W        W 8209  22.593   8.691   2.793
44453W        W 8210  27.079  40.471   4.756
44454W        W 8211  44.425  24.664   0.460
44455W        W 8212  42.396   3.358  13.432
44456W        W 8213  17.638  43.821  11.011
44457W        W 8214  11.336  17.573   9.971
44458W        W 8215   9.689   3.951  11.544
44459W        W 8216  38.948  10.283  13.951
44460W        W 8217   0.409  33.061   4.148
44461W        W 8218  38.424  35.070   0.888
44462W        W 8219  18.204  12.116   4.662
44463W        W 8220  44.454  20.033   2.846
44464W        W 8221   4.819  38.390   3.372
44465W        W 8222  28.468  21.526  13.420
44466W        W 8223  22.056   5.891  11.556
44467W        W 8224  35.517  21.078   2.776
44468W        W 8225  25.557   7.190   4.666
44469W        W 8226  37.537  26.675  10.990
44470W        W 8227  25.710  13.844  10.599
44471W        W 8228  34.913  33.069   2.855
44472W        W 8229  13.677  37.849  14.819
44473W        W 8230   3.422  22.520  13.440
44474W        W 8231   0.919  26.478  13.886
44475W        W 8232  36.054  35.944   2.193
44476W        W 8233  18.756  38.329  12.416
44477W        W 8234  15.687  27.968   9.949
44478W        W 8235  10.809  38.822  10.449
44479W        W 8236  22.024   5.276   4.736
44480W        W 8237  35.375  38.505  12.565
44481W        W 8238   5.246  27.526  11.549
44482W        W 8239  29.996  24.724  14.421
44483W        W 8240  33.966  33.499   0.293
44484W        W 8241  31.963  27.549  14.422
44485W        W 8242  17.712  31.142  14.024
44486W        W 8243  43.318  40.508   4.254
44487W        W 8244   5.242  10.200  14.907
44488W        W 8245  28.483  30.470   2.810
44489W        W 8246  40.322  15.138   1.862
44490W        W 8247  34.917  30.586  13.541
44491W        W 8248   1.478   1.384  10.937
44492W        W 8249   6.194  13.764   1.899
44493W        W 8250  25.979  19.747   1.935
44494W        W 8251  18.660  19.059  13.885
44495W        W 8252  23.532  10.259  14.947
44496W        W 8253  36.568  17.211  14.417
44497W        W 8254  23.545  27.100  14.479
44498W        W 8255  30.072  19.241   0.787
44499W        W 8256   4.801  28.003  14.429
44500W        W 8257   5.256  39.935  12.904
44501W        W 8258  31.447  37.372   2.706
44502W        W 8259  20.590  43.339  12.961
44503W        W 8260  16.255  17.687   0.784
44504W        W 8261  18.063  25.185  11.580
44505W        W 8262   8.880  16.703  12.972
44506W        W 8263   7.730  30.557   9.941
44507W        W 8264  11.175   7.242  11.395
44508W        W 8265  40.901  20.119   2.740
44509W        W 8266  23.039   8.884   2.220
44510W        W 8267  28.680  40.339  12.838
44511W        W 8268   1.449   9.304  14.762
44512W        W 8269  36.541  21.526   3.194
44513W        W 8270  15.228  24.109   0.777
44514W        W 8271  39.995  28.544  14.915
44515W        W 8272  29.595  15.718  10.981
44516W        W 8273  38.391  27.472  13.867
44517W        W 8274  16.587  17.703   3.374
44518W        W 8275  38.939  33.061   9.948
44519W        W 8276   9.257  28.579  12.509
44520W        W 8277  44.977   7.353  12.356
44521W        W 8278  22.659  40.523  12.463
44522W        W 8279  34.040  23.635   1.847
44523W        W 8280  40.015  33.901  10.405
44524W        W 8281  30.960  15.729  10.622
44525W        W 8282  19.683  37.453  12.372
44526W        W 8283  26.152  18.062  13.034
44527W        W 8284  39.969  16.173   0.461
44528W        W 8285  13.726  22.065   1.897
44529W        W 8286  38.408  16.567  14.335
44530W        W 8287  27.119  34.885   2.202
44531W        W 8288  18.129   6.824   1.883
44532W        W 8289  27.659   1.455   3.727
44533W        W 8290  13.682  16.659   2.206
44534W        W 8291  18.609  27.067  11.593
44535W        W 8292  38.857  43.856   4.642
44536W        W 8293  39.525  43.851   4.316
44537W        W 8294  37.037  40.526  14.008
44538W        W 8295  21.566  19.690  12.071
44539W        W 8296  35.066  18.774  12.372
44540W        W 8297  36.021  39.854  13.484
44541W        W 8298  29.984  40.874   1.230
44542W        W 8299  35.069  40.343   4.161
44543W        W 8300  41.535  29.561  12.072
44544W        W 8301  20.688  31.632  10.560
44545W        W 8302   1.252  30.525  14.327
44546W        W 8303   3.932   7.337  10.417
44547W        W 8304  15.147  29.013   2.193
44548W        W 8305  24.101  37.015  13.944
44549W        W 8306  13.274   4.753   3.302
44550W        W 8307  17.758  21.558  10.942
44551W        W 8308  17.242  23.126   3.320
44552W        W 8309  35.957  36.873   3.749
44553W        W 8310  20.218  38.870  10.601
44554W        W 8311  22.520   9.844  11.584
44555W        W 8312   8.320  28.468   0.785
44556W        W 8313  38.421  28.181  12.426
44557W        W 8314  17.080   2.835   3.696
44558W        W 8315  33.413   7.268  12.540
44559W        W 8316  16.299   3.814   4.166
44560W        W 8317  44.497   9.666  14.468
44561W        W 8318  11.335  44.429   0.793
44562W        W 8319  41.040  11.772  14.455
44563W        W 8320  21.751  13.185   1.400
44564W        W 8321  41.486   3.273  12.919
44565W        W 8322  16.273  44.848  14.955
44566W        W 8323  23.640  18.206   4.130
44567W        W 8324  13.724  19.270   2.291
44568W        W 8325  33.576  32.545   3.839
44569W        W 8326  12.129   2.755   0.855
44570W        W 8327   4.836  13.184  14.772
44571W        W 8328   3.721  44.852   3.715
44572W        W 8329  23.165  15.255  13.826
44573W        W 8330  18.740  44.432   4.609
44574W        W 8331   0.824  10.335   5.224
44575W        W 8332  31.121  41.968  13.421
44576W        W 8333  21.577  35.072   3.322
44577W        W 8334  31.130  21.222  11.901
44578W        W 8335  18.689  43.992  14.440
44579W        W 8336  25.691   0.932   4.738
44580W        W 8337   5.778  13.801   0.774
44581W        W 8338  18.274  30.571   1.368
44582W        W 8339  18.736  40.801  13.332
44583W        W 8340  17.701  28.520  14.943
44584W        W 8341  28.967   4.220  12.394
44585W        W 8342  17.202  19.636  14.912
44586W        W 8343  39.348   0.981  11.957
44587W        W 8344  31.086   7.392  14.453
44588W        W 8345  24.973  13.198   4.720
44589W        W 8346  43.996  21.218  12.898
44590W        W 8347  31.635   6.376  10.063
44591W        W 8348  22.123  29.612  12.921
44592W        W 8349  20.198   3.900   1.905
44593W        W 8350   4.450  43.857   0.322
44594W        W 8351   3.774  18.260  11.021
44595W        W 8352  38.494  39.862  12.838
44596W        W 8353  13.600  29.578   4.231
44597W        W 8354   6.360  12.821  11.539
44598W        W 8355  41.310  41.385   4.835
44599W        W 8356  12.722  24.581  12.430
44600W        W 8357  23.582  26.523  10.039
44601W        W 8358  28.099  34.112   2.389
44602W        W 8359   5.202  34.582  12.380
44603W        W 8360  27.619   4.421  12.457
44604W        W 8361  15.329  36.853  14.982
44605W        W 8362  10.685  35.423   1.402
44606W        W 8363   1.392  23.605  11.934
44607W        W 8364  22.655   5.406   1.807
44608W        W 8365  33.523  13.751  13.016
44609W        W 8366  29.073  11.786  13.541
44610W        W 8367  29.669   6.223  13.029
44611W        W 8368  44.824  29.007   0.730
44612W        W 8369  21.535   1.440  14.346
44613W        W 8370  18.263  18.681   0.454
44614W        W 8371  30.454  13.296  14.025
44615W        W 8372   3.846  28.020   0.726
44616W        W 8373  36.352   1.470   5.316
44617W        W 8374  39.470   1.252  13.848
44618W        W 8375  10.191  31.915  10.031
44619W        W 8376  22.006  25.165   2.327
44620W        W 8377   6.738  19.551  14.399
44621W        W 8378   2.732  16.193   4.245
44622W        W 8379   5.400   2.947  11.415
44623W        W 8380  12.782  29.076   2.189
44624W        W 8381  15.242   7.865   2.871
44625W        W 8382  25.970   4.316   1.701
44626W        W 8383  41.000  21.698   4.327
44627W        W 8384  30.464  12.719  11.568
44628W        W 8385  15.725  11.841  12.085
44629W        W 8386  33.419  35.564  13.857
44630W        W 8387   3.402  34.474  13.876
44631W        W 8388   0.318  43.516   0.755
44632W        W 8389  18.596   1.953   1.757
44633W        W 8390  23.717   5.294  12.071
44634W        W 8391  19.630  44.504   5.179
44635W        W 8392  25.708   6.285  13.351
44636W        W 8393  12.175  31.492   1.351
44637W        W 8394  11.864  34.949   0.780
44638W        W 8395  30.565  40.907   4.749
44639W        W 8396  16.597  37.062   1.716
44640W        W 8397  14.336  14.316  11.447
44641W        W 8398  20.123   8.187   3.799
44642W        W 8399  36.845  42.336  14.505
44643W        W 8400  36.849   4.220  11.038
44644W        W 8401  36.907  25.028  14.358
44645W        W 8402  40.321   1.426  13.380
44646W        W 8403  43.341  15.741  14.494
44647W        W 8404  26.496   7.746   4.814
44648W        W 8405  34.016  24.209  14.002
44649W        W 8406  21.145  22.243   0.266
44650W        W 8407   8.232   5.195   3.730
44651W        W 8408  25.004  21.034   0.323
44652W        W 8409  27.553   1.321  12.986
44653W        W 8410  27.130  43.767   4.779
44654W        W 8411  34.399  15.250   3.239
44655W        W 8412  37.505  28.567  11.481
44656W        W 8413  19.192   5.319  12.032
44657W        W 8414  15.264   9.754   1.241
44658W        W 8415  11.131  19.681  10.411
44659W        W 8416   6.422  33.592   1.912
44660W        W 8417  11.831  32.010   2.324
44661W        W 8418   2.926  13.817  12.973
44662W        W 8419  24.649  29.150  11.441
44663W        W 8420  39.006  37.450  12.040
44664W        W 8421   4.831   4.820   4.314
44665W        W 8422  29.643  15.712   3.175
44666W        W 8423  27.629  21.612  10.460
44667W        W 8424  28.451  28.996  13.319
44668W        W 8425  42.507   5.394   2.664
44669W        W 8426  12.244   9.673  11.910
44670W        W 8427  41.967  26.637   3.286
44671W        W 8428  27.646  34.949   3.320
44672W        W 8429  33.386  26.558   4.639
44673W        W 8430  39.879  15.725   4.667
44674W        W 8431  14.621  41.516  12.033
44675W        W 8432  39.465  43.320   4.749
44676W        W 8433  33.490  36.850  12.563
44677W        W 8434   9.324  42.389   5.131
44678W        W 8435  39.883   1.893   2.776
44679W        W 8436  23.004   8.895   3.772
44680W        W 8437   4.860   1.396  13.352
44681W        W 8438  38.017  18.598   2.390
44682W        W 8439   7.247  21.069   2.408
44683W        W 8440  23.194  34.984  12.534
44684W        W 8441  37.338  42.485   2.887
44685W        W 8442  30.999  15.247   3.641
44686W        W 8443   8.304   1.262   3.865
44687W        W 8444   1.925  14.599  10.949
44688W        W 8445  13.672  33.880   3.243
44689W        W 8446   2.939   9.780  12.521
44690W        W 8447  26.637  41.348   2.310
44691W        W 8448  42.017  31.596   4.114
44692W        W 8449  30.116  21.615   4.738
44693W        W 8450  44.769  23.131  13.541
44694W        W 8451  15.144  42.493  10.443
44695W        W 8452  17.729  40.489  14.803
44696W        W 8453   6.426  12.318   4.238
44697W        W 8454  30.955  17.090   1.427
44698W        W 8455  19.189  35.062   2.780
44699W        W 8456  19.249  43.473   4.714
44700W        W 8457  38.387   8.364  14.792
44701W        W 8458  11.822  33.518   3.775
44702W        W 8459  27.686  25.634   2.759
44703W        W 8460  43.996   9.200   3.835
44704W        W 8461  36.887  11.800   2.739
44705W        W 8462  37.487  41.326  11.392
44706W        W 8463  16.257  36.494   2.858
44707W        W 8464  17.767  36.054   3.368
44708W        W 8465   0.378   9.858  10.428
44709W        W 8466  33.953   8.848   3.362
44710W        W 8467  11.729   2.827  12.852
44711W        W 8468  27.650  28.035  13.946
44712W        W 8469  13.675  25.682   0.843
44713W        W 8470   5.334  16.678  11.021
44714W        W 8471   6.242  20.636   2.782
44715W        W 8472  11.708  26.959   3.672
44716W        W 8473  23.587  15.192   1.932
44717W        W 8474   9.759  12.257   0.854
44718W        W 8475  24.033  43.791  13.969
44719W        W 8476  15.786   0.905   0.869
44720W        W 8477  17.213  12.284   2.849
44721W        W 8478  40.452  12.348   2.199
44722W        W 8479   8.749   1.322  11.871
44723W        W 8480   4.822  15.808  11.583
44724W        W 8481  13.638  28.947   4.208
44725W        W 8482  19.233  22.194   2.853
44726W        W 8483  33.467  14.757   4.699
44727W        W 8484  35.373  21.619   4.123
44728W        W 8485  14.318   3.933   4.680
44729W        W 8486   9.870  31.058   2.227
44730W        W 8487  24.199   0.768  10.459
44731W        W 8488  32.118  16.236  10.475
44732W        W 8489  23.501  31.073   0.405
44733W        W 8490  16.724  40.354   0.379
44734W        W 8491   7.205   0.261   1.315
44735W        W 8492  43.430  13.744  14.005
44736W        W 8493  21.075   4.765   4.187
44737W        W 8494  38.350  43.406   1.702
44738W        W 8495  35.536  28.497   4.719
44739W        W 8496  44.440  11.824   1.418
44740W        W 8497  28.169  40.401   0.928
44741W        W 8498  42.518  24.128   4.226
44742W        W 8499  41.786  38.556   3.255
44743W        W 8500  12.729   1.304  10.955
44744W        W 8501  22.046  18.750   0.812
44745W        W 8502  40.447  31.496  13.064
44746W        W 8503   0.333   2.822  11.489
44747W        W 8504  28.644  21.624  12.884
44748W        W 8505  11.369  23.510  12.829
44749W        W 8506   8.169  37.382  10.947
44750W        W 8507  21.083  33.594   1.845
44751W        W 8508  20.111  11.164  13.874
44752W        W 8509  41.380  42.985  13.395
44753W        W 8510   2.949  10.375  10.920
44754W        W 8511  29.596   6.303   0.959
44755W        W 8512   7.837  19.726  12.512
44756W        W 8513  43.295  40.431  12.505
44757W        W 8514  38.328  14.186   1.320
44758W        W 8515   2.436   8.863   0.417
44759W        W 8516  29.123  19.106  12.468
44760W        W 8517  31.020  34.888   4.812
44761W        W 8518  31.410  31.953  10.429
44762W        W 8519  33.114  21.044  14.923
44763W        W 8520  41.915   0.259  13.341
44764W        W 8521  12.151  44.459  10.997
44765W        W 8522  43.954  21.548  13.968
44766W        W 8523  31.034   3.396   4.133
44767W        W 8524  27.472  21.037   2.874
44768W        W 8525  14.124   4.879   4.668
44769W        W 8526   2.358  42.994  12.517
44770W        W 8527  29.122   0.848   3.348
44771W        W 8528  11.833   0.438   5.151
44772W        W 8529  20.752   0.825   1.304
44773W        W 8530  43.864  32.602   2.218
44774W        W 8531   1.482  14.612  11.906
44775W        W 8532  33.504   0.773   0.836
44776W        W 8533  12.774   5.898   2.846
44777W        W 8534   2.821  34.455  13.044
44778W        W 8535  12.330  29.450  12.824
44779W        W 8536  39.813  10.338   4.661
44780W        W 8537   0.416  22.237  11.095
44781W        W 8538  14.277   3.768   2.368
44782W        W 8539   4.380  21.608   3.201
44783W        W 8540  17.216  31.589  12.390
44784W        W 8541  11.371  10.761   3.154
44785W        W 8542  20.127  29.022  10.530
44786W        W 8543  32.552  23.153   2.294
44787W        W 8544   3.444  32.074  13.478
44788W        W 8545  40.463  21.096  13.037
44789W        W 8546  16.791   8.348   4.313
44790W        W 8547  15.626  31.581  12.911
44791W        W 8548   3.722  32.013  11.533
44792W        W 8549  11.671  13.757   4.820
44793W        W 8550  36.923  22.529   0.484
44794W        W 8551  38.037  36.090  14.949
44795W        W 8552  41.361  22.017  11.487
44796W        W 8553  18.550  40.378   1.433
44797W        W 8554  20.680  34.596   4.678
44798W        W 8555   8.239  34.562   2.230
44799W        W 8556  38.905   7.907  14.981
44800W        W 8557   1.351  31.586   0.277
44801W        W 8558  44.809  15.315  13.024
44802W        W 8559  40.002  27.513  10.507
44803W        W 8560  17.121  13.714   3.297
44804W        W 8561  13.207   0.976   1.715
44805W        W 8562  15.679  11.831   4.204
44806W        W 8563  30.580  31.450  10.600
44807W        W 8564  37.524  13.340  11.416
44808W        W 8565  10.305  38.469  13.514
44809W        W 8566  39.423   6.197   5.212
44810W        W 8567  40.973  11.777  12.988
44811W        W 8568   4.384   6.239   3.825
44812W        W 8569   5.224   3.954   2.811
44813W        W 8570  22.245  14.202   3.265
44814W        W 8571  30.609  14.679   0.286
44815W        W 8572  19.053  10.726  10.500
44816W        W 8573  30.554  11.226  11.561
44817W        W 8574  30.521   0.757  10.934
44818W        W 8575   8.366  29.984   2.832
44819W        W 8576  30.919  17.764  13.512
44820W        W 8577  20.678   9.824   3.692
44821W        W 8578  11.787  19.741  12.368
44822W        W 8579  10.223  43.781   4.208
44823W        W 8580  21.203  14.614  10.543
44824W        W 8581   5.893  14.207  10.507
44825W        W 8582  37.359  28.134   5.272
44826W        W 8583   5.905  30.417   4.148
44827W        W 8584  37.977  31.977   0.310
44828W        W 8585  39.430  13.213   3.754
44829W        W 8586  21.735  17.643   1.825
44830W        W 8587  36.946  34.588  13.867
44831W        W 8588  35.560   1.930  14.834
44832W        W 8589   2.789  35.458  13.416
44833W        W 8590  30.935  17.274  11.557
44834W        W 8591  42.778  22.030   2.700
44835W        W 8592   1.924  43.780  12.048
44836W        W 8593   8.763  18.662   1.874
44837W        W 8594  44.424  17.567   0.404
44838W        W 8595   4.852  34.449  10.150
44839W        W 8596  24.137  33.900   5.153
44840W        W 8597  16.572  32.590   1.379
44841W        W 8598  26.017  19.605  14.309
44842W        W 8599  18.057  39.435   1.331
44843W        W 8600  39.498   0.414  10.443
44844W        W 8601  22.679  42.490  14.765
44845W        W 8602  15.686  35.056   2.703
44846W        W 8603  15.594  19.634  12.472
44847W        W 8604   0.307  35.543   4.297
44848W        W 8605  17.260  36.882   0.773
44849W        W 8606  27.483  10.834  13.372
44850W        W 8607  13.323  22.094  11.903
44851W        W 8608  38.417   9.252   1.227
44852W        W 8609  37.880  15.310   0.425
44853W        W 8610   1.955  15.133   4.800
44854W        W 8611  10.138  42.460  13.957
44855W        W 8612  14.245  10.342   2.850
44856W        W 8613  23.562  28.146  10.495
44857W        W 8614  32.485  39.812   0.886
44858W        W 8615  29.577  35.889   2.285
44859W        W 8616   5.718  19.041  12.368
44860W        W 8617   2.750  34.514   3.172
44861W        W 8618  18.599  16.110  14.922
44862W        W 8619   6.827  41.010  11.534
44863W        W 8620  35.034  15.733   2.811
44864W        W 8621   7.870  15.628  10.596
44865W        W 8622  16.120  12.337   2.390
44866W        W 8623  11.359  27.989  10.615
44867W        W 8624  18.255  29.122   1.798
44868W        W 8625   3.909  25.583  13.821
44869W        W 8626   7.296  26.134  14.985
44870W        W 8627  16.244  14.780   0.461
44871W        W 8628   8.654   6.681   0.288
44872W        W 8629  36.060  38.396   0.354
44873W        W 8630   0.849  40.823   4.605
44874W        W 8631  24.036  23.118   3.798
44875W        W 8632  41.423  33.438  11.114
44876W        W 8633   2.928   6.706  13.861
44877W        W 8634   2.286  27.078  10.975
44878W        W 8635  44.829  35.901  13.966
44879W        W 8636  30.459   3.220   0.396
44880W        W 8637  40.376   8.729  13.521
44881W        W 8638  24.519  31.493  11.531
44882W        W 8639   2.406   4.918  14.442
44883W        W 8640   0.931  36.852  12.978
44884W        W 8641   3.420  32.402  14.510
44885W        W 8642  14.219  19.673  14.760
44886W        W 8643  20.043   1.818   1.238
44887W        W 8644  13.829  11.251  14.846
44888W        W 8645   5.324   0.486  14.768
44889W        W 8646  23.214  34.537  14.934
44890W        W 8647  16.761  41.507  12.089
44891W        W 8648  28.613   2.272   4.837
44892W        W 8649  26.501  11.298  11.978
44893W        W 8650  44.313   7.230   3.285
44894W        W 8651   4.897  39.883   4.317
44895W        W 8652  22.636   4.900   1.818
44896W        W 8653   2.843  27.524  14.378
44897W        W 8654  30.064   7.316  10.447
44898W        W 8655  21.741   4.913   1.931
44899W        W 8656  23.575  44.790  13.458
44900W        W 8657  16.150  11.141  14.468
44901W        W 8658  15.710  25.555   3.737
44902W        W 8659  36.477  34.889  13.060
44903W        W 8660  39.458  18.266   3.668
44904W        W 8661  21.089  44.900  14.359
44905W        W 8662   0.762  17.116   1.694
44906W        W 8663  15.639  16.750   3.681
44907W        W 8664  32.895  21.131   0.263
44908W        W 8665  26.478   4.928   0.375
44909W        W 8666   3.363   3.393   2.232
44910W        W 8667  27.450  11.740  13.399
44911W        W 8668  23.667  18.775  14.971
44912W        W 8669  28.631  38.936  12.423
44913W        W 8670  25.658  28.078  13.836
44914W        W 8671  14.322  34.990   4.148
44915W        W 8672  23.058  32.411  11.878
44916W        W 8673  33.074   3.936   3.648
44917W        W 8674  33.520  37.860   0.912
44918W        W 8675  25.472  39.532  14.921
44919W        W 8676   1.271  32.942  14.489
44920W        W 8677  31.620   6.874   0.966
44921W        W 8678  21.189  35.534  12.421
44922W        W 8679  42.463   4.263  12.383
44923W        W 8680  27.572   2.374   4.118
44924W        W 8681  38.978  19.098  10.987
44925W        W 8682  36.578  32.407   0.891
44926W        W 8683  31.019  32.905  12.392
44927W        W 8684  26.095  27.145  14.930
44928W        W 8685  15.667  37.842  12.051
44929W        W 8686  32.424  18.275   0.912
44930W        W 8687  16.178  20.152  13.484
44931W        W 8688  37.540  38.367  12.393
44932W        W 8689  27.638  28.971  12.542
44933W        W 8690  17.209  20.223  14.000
44934W        W 8691  16.076  30.529   4.237
44935W        W 8692  41.968  15.584   2.795
44936W        W 8693  21.040   8.699   2.317
44937W        W 8694  42.504  34.109   4.827
44938W        W 8695  10.274   4.911  10.515
44939W        W 8696  20.721  41.432   1.766
44940W        W 8697  10.742   6.288   0.927
44941W        W 8698  21.620  33.892  14.973
44942W        W 8699  13.216   2.309   1.300
44943W        W 8700   6.800  13.115  10.412
44944W        W 8701   0.808  22.038   2.283
44945W        W 8702   5.394  42.017   2.758
44946W        W 8703   1.289  40.842   1.753
44947W        W 8704  17.624  40.797   0.367
44948W        W 8705  16.804  11.834   0.386
44949W        W 8706  31.038  18.618  10.958
44950W        W 8707  21.747  35.593   1.341
44951W        W 8708  29.926   4.750  11.564
44952W        W 8709   8.866  35.531   0.847
44953W        W 8710  35.934  15.085  13.459
44954W        W 8711  43.812  16.155  14.385
44955W        W 8712  22.197  43.283   0.245
44956W        W 8713  17.168  43.795   4.282
44957W        W 8714  35.094  11.146  13.394
44958W        W 8715  23.636  19.547   2.892
44959W        W 8716  22.746  14.162   4.770
44960W        W 8717   6.813  17.642  10.586
44961W        W 8718  13.706  29.083   1.827
44962W        W 8719  38.423  35.509   0.943
44963W        W 8720  42.981  37.995  10.481
44964W        W 8721  16.079  20.132   1.934
44965W        W 8722  18.085  21.742   1.294
44966W        W 8723  14.666  13.763   4.723
44967W        W 8724  38.486   3.218  14.816
44968W        W 8725   3.396  21.234  13.542
44969W        W 8726   8.710  30.614   3.712
44970W        W 8727  15.147  11.720  12.390
44971W        W 8728  44.919  16.614   3.747
44972W        W 8729  11.341   8.229   2.718
44973W        W 8730  19.152   3.878  13.800
44974W        W 8731   4.713  27.134   0.812
44975W        W 8732   5.227  20.236   3.363
44976W        W 8733  25.486  34.881  14.782
44977W        W 8734  38.501  16.118  11.562
44978W        W 8735  32.440  12.815  12.581
44979W        W 8736  16.118  23.663   2.277
44980W        W 8737  26.188  25.686   4.657
44981W        W 8738  23.112  30.994   1.323
44982W        W 8739  36.384  16.236   0.253
44983W        W 8740   2.312  20.208   3.783
44984W        W 8741  20.071  41.403  10.462
44985W        W 8742   7.174  12.151   0.888
44986W        W 8743  29.470  41.017  14.319
44987W        W 8744  24.000  35.091   4.819
44988W        W 8745  19.595   1.920   1.393
44989W        W 8746  30.945  39.850   3.836
44990W        W 8747  16.736  34.518   2.880
44991W        W 8748  38.548  39.057  14.277
44992W        W 8749  13.139  28.058  12.418
44993W        W 8750  35.366  18.241  11.965
44994W        W 8751  22.607  44.436   4.252
44995W        W 8752  10.255  24.066  10.895
44996W        W 8753  25.119  11.275  13.901
44997W        W 8754   9.294  22.006   3.240
44998W        W 8755  21.168   8.695  12.353
44999W        W 8756   0.962   7.180  10.940
45000W        W 8757  43.410  22.616   2.699
45001W        W 8758   3.925  36.054   0.304
45002W        W 8759  15.232   2.381   3.291
45003W        W 8760   1.343  43.428  10.497
45004W        W 8761  26.045  30.564  10.889
45005W        W 8762  17.716  23.128   2.884
45006W        W 8763  10.157  23.623   0.468
45007W        W 8764  34.028  19.563  12.554
45008W        W 8765  38.479  32.411   4.717
45009W        W 8766  38.562  32.077  13.512
45010W        W 8767  17.729   7.806   2.856
45011W        W 8768   6.756  44.794   4.144
45012W        W 8769  36.409  26.057  12.883
45013W        W 8770  22.186  26.985  11.407
45014W        W 8771  41.497  32.951  14.289
45015W        W 8772  20.644  13.167  12.938
45016W        W 8773  35.412  35.078   2.250
45017W        W 8774  41.795  39.893  13.424
45018W        W 8775  32.598  44.284  11.972
45019W        W 8776  12.340   1.921  13.976
45020W        W 8777  39.992  13.778   1.280
45021W        W 8778   6.904   4.727  11.393
45022W        W 8779  33.596  16.198  14.867
45023W        W 8780  44.933  17.646   1.856
45024W        W 8781  25.653  10.279   2.893
45025W        W 8782  38.434  13.777  11.007
45026W        W 8783  21.176   8.214   0.328
45027W        W 8784  26.486  12.610  11.082
45028W        W 8785  10.270   2.283  14.960
45029W        W 8786  20.581  18.764  10.552
45030W        W 8787  12.775  41.960   2.739
45031W        W 8788   7.781  43.946   4.232
45032W        W 8789   6.197  22.740   2.250
45033W        W 8790  43.802  26.491   5.094
45034W        W 8791   1.281  34.578   4.702
45035W        W 8792  31.582  33.389   4.118
45036W        W 8793  25.468  28.583   2.317
45037W        W 8794  12.231  30.468   3.748
45038W        W 8795   1.346  23.589  10.562
45039W        W 8796  34.469  12.748   1.748
45040W        W 8797  25.584  43.370   1.833
45041W        W 8798  13.636  18.271   0.890
45042W        W 8799  31.595  29.602   3.165
45043W        W 8800  12.656   3.377  13.497
45044W        W 8801  22.662  15.624   4.205
45045W        W 8802  41.970  36.942   3.779
45046W        W 8803  18.134   6.390   0.884
45047W        W 8804  20.550  23.126   0.870
45048W        W 8805  26.633  35.950   3.224
45049W        W 8806  33.054  31.046  10.491
45050W        W 8807  14.119   9.733  13.450
45051W        W 8808  13.639  28.980  13.913
45052W        W 8809  32.491  13.324   3.240
45053W        W 8810  43.938  39.953  11.969
45054W        W 8811  23.568   4.720  13.014
45055W        W 8812  40.497  25.050   4.126
45056W        W 8813  43.959  17.198  11.940
45057W        W 8814   4.860  28.681   1.763
45058W        W 8815   3.294   5.873   0.779
45059W        W 8816  35.425  25.110   0.864
45060W        W 8817  15.692  23.735  12.957
45061W        W 8818   4.441   5.777   2.775
45062W        W 8819  14.140  10.200   3.193
45063W        W 8820  37.898  27.127  10.428
45064W        W 8821  32.470  33.051   3.838
45065W        W 8822  25.485  12.624   4.292
45066W        W 8823  14.619  19.145   3.730
45067W        W 8824  40.900  24.177  13.397
45068W        W 8825  13.753  12.273  11.887
45069W        W 8826   0.486  27.053   1.254
45070W        W 8827  30.467  28.071  12.365
45071W        W 8828  20.170  27.124  11.879
45072W        W 8829  39.839   2.875   3.720
45073W        W 8830  19.212   6.767   0.256
45074W        W 8831  15.796  26.602  12.515
45075W        W 8832   4.286  38.048   0.257
45076W        W 8833  13.645  10.874   4.785
45077W        W 8834  22.657  22.661  12.348
45078W        W 8835  44.887  10.331   2.749
45079W        W 8836  18.608  42.776  12.498
45080W        W 8837  15.270  15.253   9.514
45081W        W 8838   8.315  36.902  12.020
45082W        W 8839  26.701  12.243   4.348
45083W        W 8840  35.071  27.045   1.318
45084W        W 8841   0.881  18.252   1.312
45085W        W 8842  22.740  17.636  12.031
45086W        W 8843  15.166  26.123  13.981
45087W        W 8844   0.460  31.546  12.505
45088W        W 8845  41.405  22.224   2.733
45089W        W 8846   1.885   7.771  14.803
45090W        W 8847   0.918   8.835   3.178
45091W        W 8848   8.881   0.398  14.883
45092W        W 8849   6.804  15.641   2.668
45093W        W 8850  11.356  18.766  10.957
45094W        W 8851  41.804  27.692   3.203
45095W        W 8852   9.205   6.688  11.386
45096W        W 8853  11.647  18.291   0.467
45097W        W 8854  25.489  17.063   0.945
45098W        W 8855  24.607  38.481   4.272
45099W        W 8856  14.294  24.184  11.974
45100W        W 8857  28.639  35.541   3.198
45101W        W 8858  24.123  28.580  10.600
45102W        W 8859  43.018   3.744  12.984
45103W        W 8860  43.337  27.593   1.840
45104W        W 8861  21.123  14.302   2.205
45105W        W 8862  35.946   7.179   0.956
45106W        W 8863   6.343   2.858   1.299
45107W        W 8864  32.462  14.753  12.933
45108W        W 8865  36.079  16.624   0.270
45109W        W 8866  34.601  42.491  14.983
45110W        W 8867  38.570  27.142  11.595
45111W        W 8868  35.482  16.286  13.813
45112W        W 8869  43.400  18.585   4.138
45113W        W 8870  40.357  25.703   3.632
45114W        W 8871   7.349  17.085   1.907
45115W        W 8872  29.527   9.282  13.001
45116W        W 8873  16.204  44.909   2.686
45117W        W 8874  11.718  44.439   3.232
45118W        W 8875   2.736  41.942  13.799
45119W        W 8876  14.323  12.242   0.838
45120W        W 8877  24.546  20.201   3.309
45121W        W 8878  10.769  43.890   1.759
45122W        W 8879   0.948  40.837   2.214
45123W        W 8880   2.391  11.772   2.730
45124W        W 8881  12.679  36.571  13.422
45125W        W 8882  24.524  12.244   2.215
45126W        W 8883  27.457  13.763   2.706
45127W        W 8884  12.125  11.829  14.822
45128W        W 8885  36.950  39.005   3.291
45129W        W 8886  44.262   5.828   9.994
45130W        W 8887   7.219  36.363   0.949
45131W        W 8888   6.687  39.365  10.552
45132W        W 8889  25.637  40.020   1.225
45133W        W 8890  37.083  41.330   2.334
45134W        W 8891   6.308   6.424  12.379
45135W        W 8892  29.113  24.531  10.639
45136W        W 8893  35.547   6.916  11.423
45137W        W 8894   7.898  38.947   3.681
45138W        W 8895  32.954  43.017  12.390
45139W        W 8896  28.987  26.500   1.362
45140W        W 8897   6.315  11.264  10.918
45141W        W 8898  22.045  20.715   1.229
45142W        W 8899  18.085  32.941   4.720
45143W        W 8900   6.820  28.473   3.308
45144W        W 8901   5.294  33.874   3.219
45145W        W 8902  11.214  40.809   0.245
45146W        W 8903  17.212  13.337   1.912
45147W        W 8904  41.927  28.579  14.967
45148W        W 8905  22.140  13.799  10.995
45149W        W 8906   8.674  11.274  14.278
45150W        W 8907  37.885  30.107  10.616
45151W        W 8908   3.793  11.301   0.845
45152W        W 8909  16.695  11.682   2.819
45153W        W 8910  31.050  17.306   0.746
45154W        W 8911  30.621  42.504  14.381
45155W        W 8912  20.761  30.433   1.901
45156W        W 8913   2.882  39.430   0.895
45157W        W 8914  26.626   9.700  10.145
45158W        W 8915  34.062   9.268   1.775
45159W        W 8916  36.569  39.825  14.881
45160W        W 8917  27.995   2.931  10.131
45161W        W 8918  10.806  34.969  10.498
45162W        W 8919  10.825  39.809  12.354
45163W        W 8920   0.350  42.336   0.247
45164W        W 8921  15.711  23.557   3.349
45165W        W 8922  41.823  13.753  14.315
45166W        W 8923  13.158  41.976   0.287
45167W        W 8924  28.073  18.715  11.067
45168W        W 8925   1.948  22.155  14.373
45169W        W 8926  12.725  29.039  12.040
45170W        W 8927   3.455  44.419   3.378
45171W        W 8928  42.371   1.360  14.406
45172W        W 8929  33.480   3.742   1.286
45173W        W 8930  25.986  35.574   2.787
45174W        W 8931  14.807   4.873   0.949
45175W        W 8932  30.984   4.748  14.386
45176W        W 8933  13.822   7.365  14.787
45177W        W 8934  37.498   0.290  10.091
45178W        W 8935  22.245   8.253   2.671
45179W        W 8936  44.897   3.290   3.345
45180W        W 8937  27.469  19.043   1.360
45181W        W 8938  13.228  19.602  14.847
45182W        W 8939  32.140  34.592   1.268
45183W        W 8940  39.349   1.744  13.829
45184W        W 8941  41.994  23.091  11.497
45185W        W 8942  17.750  21.722  12.435
45186W        W 8943  36.081  12.273  10.558
45187W        W 8944  26.584   4.787   4.733
45188W        W 8945   8.318  14.210   2.747
45189W        W 8946  19.119  33.925   0.782
45190W        W 8947  37.983  30.511   0.421
45191W        W 8948   9.707  24.216  13.436
45192W        W 8949  28.143   1.876   2.854
45193W        W 8950  13.745  12.339   4.249
45194W        W 8951  15.298  12.632   0.291
45195W        W 8952   9.697  18.674  10.592
45196W        W 8953   0.397   6.268   3.358
45197W        W 8954   2.878  43.306  12.494
45198W        W 8955  33.573  21.084  12.849
45199W        W 8956  20.711   4.317   4.598
45200W        W 8957  16.277  39.433   1.377
45201W        W 8958  25.008  13.187  10.419
45202W        W 8959  23.043  16.666   1.307
45203W        W 8960  17.146  17.708  14.919
45204W        W 8961   9.808  37.576   4.240
45205W        W 8962  29.442  44.394   9.985
45206W        W 8963  40.347  26.572   3.150
45207W        W 8964  21.246  44.811   4.319
45208W        W 8965  29.000   1.409  11.861
45209W        W 8966  22.166  26.673   0.313
45210W        W 8967  23.511  22.189  12.988
45211W        W 8968   8.739   6.413  11.081
45212W        W 8969  19.761  20.137  14.000
45213W        W 8970  40.924  15.261  14.903
45214W        W 8971  27.479  13.674   5.162
45215W        W 8972  15.798   6.781   1.347
45216W        W 8973  11.251  35.394   2.287
45217W        W 8974   6.757  42.513  14.024
45218W        W 8975  40.858   0.815   1.243
45219W        W 8976   5.216  24.665   1.846
45220W        W 8977  32.087  25.109   0.915
45221W        W 8978   9.736  21.094   1.866
45222W        W 8979   0.799   8.237  13.963
45223W        W 8980  16.583  32.004   4.808
45224W        W 8981  22.514  24.509  14.491
45225W        W 8982   4.765  28.040  11.127
45226W        W 8983  28.951  12.193   1.218
45227W        W 8984  12.634  16.702  10.605
45228W        W 8985  28.434   1.839  14.494
45229W        W 8986  39.341  10.346   9.962
45230W        W 8987   6.224  42.895  14.382
45231W        W 8988  29.081  34.901  12.517
45232W        W 8989  28.936  42.894  13.875
45233W        W 8990  41.470  28.666  12.966
45234W        W 8991   3.230  11.712  11.491
45235W        W 8992  31.562  35.572  11.886
45236W        W 8993  29.510  28.032   0.256
45237W        W 8994  13.301   5.735  12.966
45238W        W 8995   4.209  19.611   2.705
45239W        W 8996  16.599  41.938   3.284
45240W        W 8997  12.235  25.632   3.338
45241W        W 8998  10.373  24.633   0.926
45242W        W 8999  13.140  37.380  13.917
45243W        W 9000  36.021  28.062   3.696
45244W        W 9001  32.513  19.191   3.216
45245W        W 9002  33.917   3.770   3.258
45246W        W 9003  28.597   6.236  13.337
45247W        W 9004  21.518  19.047  11.470
45248W        W 9005  16.629  43.765  13.036
45249W        W 9006  24.545  18.287  14.425
45250W        W 9007  40.511   1.244   4.166
45251W        W 9008  15.234  42.425   0.398
45252W        W 9009  42.003   9.669   1.226
45253W        W 9010  11.368  15.089  10.525
45254W        W 9011   6.850   5.786  10.614
45255W        W 9012  25.990  32.399  11.875
45256W        W 9013  25.510  29.537  12.012
45257W        W 9014  21.683  41.981   2.733
45258W        W 9015  23.999  17.133   2.771
45259W        W 9016  28.440  23.107  13.049
45260W        W 9017   0.359  37.952   3.230
45261W        W 9018  22.107   8.748   2.876
45262W        W 9019  37.981   8.719  11.513
45263W        W 9020   4.339  29.928   0.311
45264W        W 9021  36.498   3.220   1.895
45265W        W 9022  42.282   2.238   2.876
45266W        W 9023   5.730  27.051   4.146
45267W        W 9024   1.301  22.235  14.309
45268W        W 9025  33.409  10.317  13.949
45269W        W 9026  19.635  32.402  11.565
45270W        W 9027   6.300  37.871  10.047
45271W        W 9028  23.665  34.450   0.401
45272W        W 9029  28.957   6.907   2.724
45273W        W 9030  19.260  17.606   3.171
45274W        W 9031  36.017  24.229  11.559
45275W        W 9032  33.462  42.811   3.755
45276W        W 9033  15.241  13.247   0.416
45277W        W 9034   8.741  42.413  10.495
45278W        W 9035  40.335  36.950  11.594
45279W        W 9036  19.194   1.807  13.986
45280W        W 9037  18.637  31.479   3.705
45281W        W 9038  25.496  44.753   3.212
45282W        W 9039  26.082   5.289   1.716
45283W        W 9040  14.140  34.581  14.472
45284W        W 9041  35.045  23.731   3.298
45285W        W 9042  15.251   5.379   0.896
45286W        W 9043  10.845  26.675   1.272
45287W        W 9044  16.647  35.424  12.576
45288W        W 9045   9.882   9.200  11.389
45289W        W 9046  30.151  11.354   4.157
45290W        W 9047   9.730  12.335  13.805
45291W        W 9048  31.574  28.452  12.019
45292W        W 9049  27.139   7.257  10.957
45293W        W 9050  14.313  42.914   3.735
45294W        W 9051  38.894  36.371  10.111
45295W        W 9052   1.893   2.947  14.921
45296W        W 9053  22.725  29.525   0.750
45297W        W 9054  21.135  21.168  11.959
45298W        W 9055  17.753   7.818  11.456
45299W        W 9056  28.067   3.768  12.427
45300W        W 9057  39.924   0.351   1.821
45301W        W 9058  39.987  30.011   2.863
45302W        W 9059  18.576  38.854  10.949
45303W        W 9060  21.589  36.546   2.256
45304W        W 9061  12.201  14.595   2.707
45305W        W 9062  20.266   9.663  14.405
45306W        W 9063  26.617   9.214  11.872
45307W        W 9064  32.101  39.416  12.441
45308W        W 9065  14.696   7.793   1.894
45309W        W 9066  18.555  26.028  11.508
45310W        W 9067  43.857  14.293  14.313
45311W        W 9068  13.687  30.917  14.346
45312W        W 9069  19.637  18.188  13.047
45313W        W 9070  23.115  43.429  13.537
45314W        W 9071  12.131  25.998  12.835
45315W        W 9072   2.842  43.499   1.358
45316W        W 9073  11.629  12.342   1.395
45317W        W 9074   1.932  37.447  13.457
45318W        W 9075  28.469  17.094  10.084
45319W        W 9076  24.070  10.139  14.887
45320W        W 9077  21.617  21.570  14.876
45321W        W 9078  39.809  19.582   4.730
45322W        W 9079  34.451   6.897  10.953
45323W        W 9080  15.805  42.890   2.413
45324W        W 9081  28.999  28.506  14.395
45325W        W 9082  31.054   4.898   2.876
45326W        W 9083  28.461   0.839   0.415
45327W        W 9084  39.903   8.886  14.341
45328W        W 9085  25.065  34.486   0.384
45329W        W 9086  44.788  43.313   1.307
45330W        W 9087  41.012  27.622  14.403
45331W        W 9088  15.683  13.139  10.027
45332W        W 9089   9.209  43.770  13.430
45333W        W 9090  28.938  16.635  13.895
45334W        W 9091   1.391   5.388   3.672
45335W        W 9092  41.432  31.537   1.742
45336W        W 9093   1.444   7.893  11.375
45337W        W 9094  13.782  35.882  12.567
45338W        W 9095  40.987  25.074  12.559
45339W        W 9096  44.505  27.458   0.960
45340W        W 9097  32.940  38.887  10.405
45341W        W 9098   0.930  15.241  13.980
45342W        W 9099  13.650   2.416  10.574
45343W        W 9100  34.920  21.028  10.413
45344W        W 9101  29.472  42.325   0.481
45345W        W 9102   4.699  12.791  13.911
45346W        W 9103   4.428   9.276   3.238
45347W        W 9104  32.024  42.909   3.699
45348W        W 9105  28.580  34.581   4.326
45349W        W 9106  18.079  28.154   1.272
45350W        W 9107  15.223  18.683   2.741
45351W        W 9108  24.495   5.702  10.602
45352W        W 9109  19.650  24.634  10.987
45353W        W 9110  40.502  31.968   2.682
45354W        W 9111  42.829  22.653  11.547
45355W        W 9112   3.365  38.989  12.862
45356W        W 9113  35.852  29.115  14.787
45357W        W 9114   1.807   8.872  10.889
45358W        W 9115  12.273  43.849   1.724
45359W        W 9116  27.946  44.897   4.217
45360W        W 9117   2.289  22.709  12.922
45361W        W 9118   5.346  34.374   5.290
45362W        W 9119  17.245  40.947  14.393
45363W        W 9120  20.605   1.869   1.304
45364W        W 9121  33.614  33.458  11.969
45365W        W 9122  25.620  13.789  13.314
45366W        W 9123   3.278  44.792  13.911
45367W        W 9124  14.775  12.180   4.261
45368W        W 9125  40.336  27.632  13.940
45369W        W 9126  36.024   3.398   2.730
45370W        W 9127  41.420  19.716   4.656
45371W        W 9128   9.303   0.359   2.770
45372W        W 9129  41.337  26.968   1.349
45373W        W 9130   8.258  22.242  14.017
45374W        W 9131   4.736   7.705  11.459
45375W        W 9132  15.303   1.792  11.535
45376W        W 9133  30.485   4.285   1.783
45377W        W 9134  16.192  17.571  14.849
45378W        W 9135   2.284  42.943   9.945
45379W        W 9136  20.074  37.872   1.238
45380W        W 9137  20.214  27.506  12.460
45381W        W 9138  33.116  15.313  14.455
45382W        W 9139  10.662  37.073  14.939
45383W        W 9140  23.171  34.875   4.801
45384W        W 9141  24.560  43.821  13.389
45385W        W 9142  23.675  39.370   4.609
45386W        W 9143  31.123  11.703  14.814
45387W        W 9144  28.488  25.509   0.732
45388W        W 9145  27.136  15.643  14.847
45389W        W 9146   6.302  34.065   3.199
45390W        W 9147  18.552  37.992   2.882
45391W        W 9148   5.406  15.721  13.924
45392W        W 9149  30.567  39.041   3.663
45393W        W 9150  39.837  16.677  13.342
45394W        W 9151  17.584  23.086   1.331
45395W        W 9152  16.306   2.818  14.446
45396W        W 9153  10.141  32.023  13.420
45397W        W 9154  28.635  21.517   4.335
45398W        W 9155  17.118  39.984   2.818
45399W        W 9156  30.495  33.527   3.306
45400W        W 9157  37.572  37.921   3.814
45401W        W 9158  17.703  23.035   2.248
45402W        W 9159  12.684  14.603   4.701
45403W        W 9160  22.206  42.926  10.978
45404W        W 9161  43.784  40.515  13.838
45405W        W 9162  34.029   1.758   0.452
45406W        W 9163  30.043  38.052  12.436
45407W        W 9164  34.864  41.043  14.320
45408W        W 9165  15.195  19.769  14.895
45409W        W 9166  44.279  11.754  11.928
45410W        W 9167  32.396  24.521  11.566
45411W        W 9168  37.069  40.929   2.309
45412W        W 9169  42.987  31.152  13.540
45413W        W 9170   9.230  38.051   1.738
45414W        W 9171  13.720  21.061   2.854
45415W        W 9172  13.838  42.794   5.207
45416W        W 9173  39.432  27.473  10.550
45417W        W 9174  18.737   1.418   3.826
45418W        W 9175  27.170  28.007   2.271
45419W        W 9176  17.213   3.810   3.177
45420W        W 9177  11.654  11.181   2.214
45421W        W 9178  11.197  24.025  12.463
45422W        W 9179   0.985  10.765  12.354
45423W        W 9180   0.312  14.254   0.849
45424W        W 9181   9.237  39.914   0.906
45425W        W 9182  27.966  19.742   3.293
45426W        W 9183  15.183  44.006   0.819
45427W        W 9184  17.249   4.832   0.940
45428W        W 9185  39.040   4.755   3.319
45429W        W 9186  21.650  34.903  12.448
45430W        W 9187  11.820  13.248   3.151
45431W        W 9188  19.727   5.303   2.824
45432W        W 9189   0.849   8.319  11.016
45433W        W 9190  30.443  29.451   2.359
45434W        W 9191   3.291   0.289  14.504
45435W        W 9192  41.939  34.052   1.403
45436W        W 9193  34.482  19.761   3.784
45437W        W 9194  23.019  14.284  13.924
45438W        W 9195  32.580  14.662  11.583
45439W        W 9196  11.787  44.495  12.511
45440W        W 9197  35.379  16.599  14.274
45441W        W 9198   6.255  44.976   0.936
45442W        W 9199  17.627  15.577   1.741
45443W        W 9200   1.812  29.014   2.353
45444W        W 9201  33.514  28.988   1.724
45445W        W 9202  28.056  22.071   0.799
45446W        W 9203   7.256  11.246   3.783
45447W        W 9204  42.342  13.222   0.318
45448W        W 9205  25.681  13.145   2.690
45449W        W 9206  32.623  44.993  11.958
45450W        W 9207  14.800  42.790   3.188
45451W        W 9208  29.154  23.706   2.315
45452W        W 9209  12.713   6.842  12.523
45453W        W 9210  20.229  44.488  10.505
45454W        W 9211  18.638  39.905   0.264
45455W        W 9212  16.767  32.508  12.831
45456W        W 9213  18.142  16.198   4.215
45457W        W 9214   1.451  40.514  12.471
45458W        W 9215  25.491   4.307  11.963
45459W        W 9216   9.653  38.348   4.261
45460W        W 9217  12.342   5.931  13.372
45461W        W 9218  30.967  42.493   2.680
45462W        W 9219  14.727  26.504   4.159
45463W        W 9220  33.039  12.825  14.868
45464W        W 9221  42.983  42.815   4.311
45465W        W 9222  37.854   1.973  13.879
45466W        W 9223   5.200  43.414   4.675
45467W        W 9224  17.274  24.582   2.331
45468W        W 9225  20.678  38.493   2.267
45469W        W 9226   2.422  44.427   2.393
45470W        W 9227  14.614   2.460  14.348
45471W        W 9228   4.447  42.360   3.764
45472W        W 9229  15.692  43.873  10.907
45473W        W 9230  14.690  25.616   2.196
45474W        W 9231  27.087   2.427   3.697
45475W        W 9232  22.518   2.893  12.488
45476W        W 9233  16.168   6.221   3.291
45477W        W 9234  32.046   0.872  13.387
45478W        W 9235  13.254  36.981   4.160
45479W        W 9236  18.159  13.297   1.399
45480W        W 9237  38.905  23.026   4.192
45481W        W 9238  37.400  35.598  12.006
45482W        W 9239  17.773  38.517  11.091
45483W        W 9240   7.358  14.599   3.869
45484W        W 9241  41.409  36.034   2.331
45485W        W 9242  32.940  14.225   2.211
45486W        W 9243  41.503  24.082   0.391
45487W        W 9244  24.658  19.577   4.754
45488W        W 9245  16.259  34.374  11.471
45489W        W 9246  32.499  37.057  13.414
45490W        W 9247  29.020   1.293   2.785
45491W        W 9248  28.045  27.093  13.426
45492W        W 9249  34.096  37.353   1.712
45493W        W 9250  26.152  11.793   4.643
45494W        W 9251  10.170   5.263  11.409
45495W        W 9252  35.960  39.405  13.869
45496W        W 9253   8.386   2.349  11.941
45497W        W 9254  18.604  11.267   0.755
45498W        W 9255  42.453  17.657   0.422
45499W        W 9256  40.839  38.008  14.778
45500W        W 9257  11.655   0.779  11.906
45501W        W 9258  44.870  42.908   3.238
45502W        W 9259   8.862  14.340   2.686
45503W        W 9260  31.028  22.103   0.403
45504W        W 9261  27.953   2.319  11.496
45505W        W 9262  25.652  21.594   3.186
45506W        W 9263  25.146   2.448  11.977
45507W        W 9264  34.981  21.675  10.534
45508W        W 9265  32.009  14.267  10.624
45509W        W 9266  32.561  31.431   1.449
45510W        W 9267  41.877   9.331  11.863
45511W        W 9268  17.581   5.781  14.369
45512W        W 9269   2.816  26.090   3.728
45513W        W 9270  34.370  35.550   4.149
45514W        W 9271  33.126   2.318  14.349
45515W        W 9272  24.036  23.222   0.923
45516W        W 9273  40.875  15.758   0.743
45517W        W 9274  27.039  39.325  11.126
45518W        W 9275  39.926  10.223  13.852
45519W        W 9276  15.757  18.633  13.847
45520W        W 9277  44.375  31.435  10.542
45521W        W 9278  22.502  29.465  13.012
45522W        W 9279  31.100  15.090  13.999
45523W        W 9280   8.745  23.682   2.346
45524W        W 9281  18.708  37.951   4.735
45525W        W 9282  24.558  33.937   0.434
45526W        W 9283  43.984  21.553  14.943
45527W        W 9284  23.012  43.011  11.470
45528W        W 9285  38.891  19.565  10.012
45529W        W 9286  14.248  30.961   2.416
45530W        W 9287  11.309  37.532  11.502
45531W        W 9288   3.328  11.308  11.881
45532W        W 9289  14.305   9.244   1.894
45533W        W 9290   3.945  12.280   2.384
45534W        W 9291  38.820  30.035  11.896
45535W        W 9292   2.314  44.338   2.666
45536W        W 9293  38.969  11.662   0.886
45537W        W 9294   5.731  37.446  12.415
45538W        W 9295   4.859   6.689  12.413
45539W        W 9296   2.885   4.856  12.977
45540W        W 9297   1.457  38.438   1.772
45541W        W 9298  39.441  31.144   2.878
45542W        W 9299   4.882  33.401  12.070
45543W        W 9300  29.629  31.493   3.337
45544W        W 9301  24.003  15.170  14.429
45545W        W 9302  33.112  12.700  11.407
45546W        W 9303   5.378  44.276  13.464
45547W        W 9304  32.401  18.257   4.291
45548W        W 9305  37.832  20.687  10.512
45549W        W 9306   8.832  21.096   3.851
45550W        W 9307   9.177  43.009  14.997
45551W        W 9308  27.152  38.036   2.663
45552W        W 9309  43.806   0.383   3.257
45553W        W 9310  35.479  22.020   3.271
45554W        W 9311  18.209  29.120   0.792
45555W        W 9312  32.995  25.181  14.373
45556W        W 9313  39.394  18.107   4.169
45557W        W 9314   8.217  37.553  10.637
45558W        W 9315  19.587   6.846   0.887
45559W        W 9316   9.828  14.163   1.446
45560W        W 9317  28.528  43.804  13.001
45561W        W 9318  11.759   7.240   2.866
45562W        W 9319  44.357  43.850  14.860
45563W        W 9320  17.609   2.808   4.321
45564W        W 9321  42.777   6.201   5.320
45565W        W 9322  14.656  33.991  13.022
45566W        W 9323  17.683  19.644  11.939
45567W        W 9324  30.552   7.810  14.414
45568W        W 9325  10.696   3.246   1.378
45569W        W 9326  34.050   8.811  10.613
45570W        W 9327   4.841  11.155  11.970
45571W        W 9328  20.035   6.788   1.769
45572W        W 9329  18.600  16.176   5.172
45573W        W 9330  25.525  38.559   1.800
45574W        W 9331  41.292  15.717  10.615
45575W        W 9332  34.018  35.950   5.151
45576W        W 9333  27.593   7.414  10.494
45577W        W 9334  42.782  15.091   1.444
45578W        W 9335   7.321   9.775  11.868
45579W        W 9336  31.577  14.635  12.491
45580W        W 9337  21.619  37.519  12.536
45581W        W 9338  37.442  42.316  11.562
45582W        W 9339  42.519  27.964   0.731
45583W        W 9340  24.103  35.881  14.010
45584W        W 9341   7.828   8.356  13.031
45585W        W 9342  10.354  27.159   4.138
45586W        W 9343   3.928   1.401  10.548
45587W        W 9344  34.888  13.704  12.450
45588W        W 9345  10.834   9.716   4.188
45589W        W 9346   6.892  23.694  13.817
45590W        W 9347  29.078  37.963  14.305
45591W        W 9348  19.254  33.421  10.116
45592W        W 9349  10.278  41.421   3.758
45593W        W 9350  13.846   9.217  14.341
45594W        W 9351  35.512  32.600   2.830
45595W        W 9352  34.392  15.720  13.941
45596W        W 9353  31.947  20.072   2.233
45597W        W 9354  11.691  29.095  10.993
45598W        W 9355   7.842   2.404   3.306
45599W        W 9356  15.599   7.207   0.840
45600W        W 9357   7.257  26.642   4.729
45601W        W 9358   2.467  39.822  12.050
45602W        W 9359  20.536  39.354   4.264
45603W        W 9360  20.222  14.234   5.163
45604W        W 9361   3.725   8.687  11.503
45605W        W 9362  21.106  18.550   1.427
45606W        W 9363   9.348   5.881   4.642
45607W        W 9364   9.218  42.857   9.460
45608W        W 9365   5.892   2.453  11.938
45609W        W 9366  26.507   1.389   2.394
45610W        W 9367  14.714  32.079   4.695
45611W        W 9368  40.924  25.705   3.383
45612W        W 9369  30.492   5.431  13.047
45613W        W 9370  18.603  26.681  11.541
45614W        W 9371  30.019  39.989  14.496
45615W        W 9372  28.565  19.284   3.321
45616W        W 9373  42.785  23.089   3.254
45617W        W 9374  10.286   8.310   0.326
45618W        W 9375  34.459  36.451   1.308
45619W        W 9376  40.989  37.352   4.619
45620W        W 9377   1.881   8.805  14.481
45621W        W 9378  11.228   7.235   3.766
45622W        W 9379   0.939  12.220  14.371
45623W        W 9380  14.236   8.173   4.241
45624W        W 9381  14.623  11.807   2.284
45625W        W 9382  40.800  35.526  11.031
45626W        W 9383  17.744  34.961   4.149
45627W        W 9384  26.533  26.109   2.847
45628W        W 9385  15.094  29.525  14.025
45629W        W 9386   4.303  16.085   2.873
45630W        W 9387  41.310   1.324  10.946
45631W        W 9388  26.027  23.700   2.413
45632W        W 9389  14.629   4.283   2.363
45633W        W 9390   2.956  12.801  11.958
45634W        W 9391  40.497  19.188   4.159
45635W        W 9392  15.720   7.321  10.063
45636W        W 9393  19.700  11.803  13.515
45637W        W 9394  42.886  14.673   1.720
45638W        W 9395  40.459  24.713  10.620
45639W        W 9396  35.096  28.478  11.993
45640W        W 9397  11.744  28.553  14.000
45641W        W 9398   0.425   9.263   3.291
45642W        W 9399  14.142   6.749   3.354
45643W        W 9400  14.203  14.163   2.877
45644W        W 9401  17.679  12.620   0.896
45645W        W 9402   8.353  26.675  12.885
45646W        W 9403  18.572  17.170  10.153
45647W        W 9404   3.320  44.326   4.758
45648W        W 9405  12.712  35.518   0.471
45649W        W 9406  33.019  43.767   1.210
45650W        W 9407  19.639  42.850  11.916
45651W        W 9408  26.575  15.326   0.899
45652W        W 9409   3.257  42.526  10.960
45653W        W 9410   8.176   7.345   2.705
45654W        W 9411   4.733  28.436  14.786
45655W        W 9412  22.636  16.227  13.047
45656W        W 9413  40.805  24.505  14.846
45657W        W 9414   6.790   3.904  12.431
45658W        W 9415  10.265   0.846   4.703
45659W        W 9416  44.412  13.214   2.772
45660W        W 9417  31.526  41.023  12.828
45661W        W 9418  27.600   8.706   0.300
45662W        W 9419  30.155  41.318  14.766
45663W        W 9420  28.099  37.989   1.358
45664W        W 9421   8.788  42.447   0.288
45665W        W 9422  33.541  19.611  12.376
45666W        W 9423  27.605  41.335  13.399
45667W        W 9424   6.338  28.555  11.459
45668W        W 9425  25.544  33.880   4.335
45669W        W 9426   7.245   4.346  14.939
45670W        W 9427  18.247   2.268   1.905
45671W        W 9428  25.626  17.736   2.834
45672W        W 9429  27.023  42.794   0.834
45673W        W 9430  31.965   3.810   0.275
45674W        W 9431   0.295  39.001   2.856
45675W        W 9432  24.039  16.772   4.233
45676W        W 9433  37.054   5.329  11.053
45677W        W 9434  37.492  10.229  13.462
45678W        W 9435  32.068   6.843   3.737
45679W        W 9436  20.741  26.051  13.376
45680W        W 9437  31.045   6.885   4.599
45681W        W 9438   7.252  21.650   1.228
45682W        W 9439  17.596  14.103  11.471
45683W        W 9440  22.240   0.870  11.591
45684W        W 9441   1.250  16.731   4.266
45685W        W 9442   3.846  12.306  13.950
45686W        W 9443  38.393  21.066   2.410
45687W        W 9444   2.927   8.299   4.309
45688W        W 9445  32.036  40.906  12.475
45689W        W 9446  23.671  33.095  14.290
45690W        W 9447  29.495  42.453  11.545
45691W        W 9448  31.922  30.485  14.353
45692W        W 9449  27.498  27.617   3.664
45693W        W 9450   9.341  24.991   3.835
45694W        W 9451  10.685  21.109   0.465
45695W        W 9452  11.675  33.095   0.727
45696W        W 9453  34.596  38.327   2.783
45697W        W 9454  19.714  16.306  12.969
45698W        W 9455  44.002  35.507  13.385
45699W        W 9456  30.555  35.439   3.267
45700W        W 9457   7.181   6.343  12.481
45701W        W 9458  15.301   2.296  10.517
45702W        W 9459  34.924   3.903   0.317
45703W        W 9460  39.345   0.283   0.246
45704W        W 9461  36.081  24.687   3.756
45705W        W 9462   7.395   8.290  14.331
45706W        W 9463  17.586  13.602  11.048
45707W        W 9464  33.561  25.634   9.991
45708W        W 9465  11.647  23.236  12.057
45709W        W 9466  42.402  16.594   1.739
45710W        W 9467  18.693  24.020   1.375
45711W        W 9468  16.173   0.486  13.459
45712W        W 9469  30.609  30.648   1.746
45713W        W 9470  39.995  40.421   4.243
45714W        W 9471  31.097  14.272  11.089
45715W        W 9472  10.163  36.043  12.483
45716W        W 9473  19.671  14.735  12.040
45717W        W 9474  10.734  18.280  11.564
45718W        W 9475  39.835  36.949  11.438
45719W        W 9476  15.757   0.416  12.937
45720W        W 9477  19.043  24.484   1.347
45721W        W 9478   1.269  29.668  10.540
45722W        W 9479  13.684  23.605   1.848
45723W        W 9480  17.236  32.104  10.001
45724W        W 9481  21.706  41.467  13.402
45725W        W 9482  39.858  20.130  12.944
45726W        W 9483  22.137  26.999  13.377
45727W        W 9484  20.267   6.331   3.789
45728W        W 9485   6.799  17.668   1.888
45729W        W 9486  18.695   8.230  14.489
45730W        W 9487   6.208  22.639   0.870
45731W        W 9488  18.223  30.483  13.028
45732W        W 9489  23.177   2.793  14.344
45733W        W 9490  17.782  13.735   2.749
45734W        W 9491  38.532  20.087   0.750
45735W        W 9492  44.468  36.903  13.361
45736W        W 9493  34.969  23.201   4.827
45737W        W 9494  14.629  27.983  14.296
45738W        W 9495  12.279  37.998  14.840
45739W        W 9496  44.790  10.150  13.478
45740W        W 9497  12.674  35.083   2.709
45741W        W 9498   3.901  31.063  14.913
45742W        W 9499  37.864  41.442   5.097
45743W        W 9500   2.422  13.797  13.524
45744W        W 9501  17.264  27.654  11.487
45745W        W 9502   7.315  22.537  11.017
45746W        W 9503  29.670   8.219   0.368
45747W        W 9504  14.208  18.257  10.976
45748W        W 9505  26.702  35.563  12.578
45749W        W 9506  36.903  23.598   3.179
45750W        W 9507  12.292  33.881   2.377
45751W        W 9508  13.260  20.245  13.346
45752W        W 9509  36.467  20.645  13.501
45753W        W 9510  13.608   7.722  13.519
45754W        W 9511  14.327  18.244   2.726
45755W        W 9512   0.249  26.974   2.184
45756W        W 9513  24.194   2.385   2.195
45757W        W 9514   4.814  15.302  11.513
45758W        W 9515   5.287  16.214   1.772
45759W        W 9516   9.296  38.993  13.451
45760W        W 9517   1.917  14.270  14.808
45761W        W 9518  33.485  16.134   4.808
45762W        W 9519  18.657   3.443  14.841
45763W        W 9520  24.501  44.876   2.337
45764W        W 9521  16.775  39.871   3.648
45765W        W 9522  22.735  16.147   4.777
45766W        W 9523  42.010  32.031  14.861
45767W        W 9524  10.247  38.926   3.216
45768W        W 9525  33.471  22.150  10.478
45769W        W 9526  25.693  26.468   2.210
45770W        W 9527  23.227  14.154  11.485
45771W        W 9528  32.434  17.676  11.938
45772W        W 9529  43.344  23.624  14.393
45773W        W 9530  44.280  27.185   0.863
45774W        W 9531  23.119  38.483   4.191
45775W        W 9532   7.394  38.075  14.929
45776W        W 9533   2.328   6.337  11.401
45777W        W 9534  13.771  16.296   1.311
45778W        W 9535  11.705   0.900  11.103
45779W        W 9536  30.051  26.984   4.634
45780W        W 9537  27.052  17.077  13.326
45781W        W 9538   8.212  43.841  12.350
45782W        W 9539  19.718  34.419   2.406
45783W        W 9540   7.414   5.346  13.880
45784W        W 9541  30.487  21.700  13.910
45785W        W 9542  36.524  28.458  14.950
45786W        W 9543  19.602  26.134   3.284
45787W        W 9544  16.207  27.614  12.945
45788W        W 9545  34.370  39.463   3.284
45789W        W 9546   4.821  30.968   2.277
45790W        W 9547  30.143  23.563   2.179
45791W        W 9548  22.580   5.233   0.844
45792W        W 9549  33.463  41.512  10.903
45793W        W 9550   3.221   5.194   0.337
45794W        W 9551  33.049  12.243  14.308
45795W        W 9552  31.593   4.899   3.784
45796W        W 9553  35.913  27.145  14.326
45797W        W 9554  26.476  38.473   9.979
45798W        W 9555  15.152   5.773   1.743
45799W        W 9556  36.507  18.230   1.924
45800W        W 9557  43.455  13.777  14.334
45801W        W 9558  19.633  18.609  11.118
45802W        W 9559  38.943  15.609   2.395
45803W        W 9560   3.796  23.084  14.513
45804W        W 9561  44.464  44.947  11.044
45805W        W 9562   6.234   3.736   2.772
45806W        W 9563  43.011  17.675   1.771
45807W        W 9564   6.242   7.800   3.805
45808W        W 9565  30.547   4.394   3.670
45809W        W 9566  43.802  23.553  10.980
45810W        W 9567  43.982  22.146   0.803
45811W        W 9568  16.726   0.857   2.207
45812W        W 9569  44.833  44.414   0.363
45813W        W 9570  22.115  42.936   3.278
45814W        W 9571  43.302   2.428   2.198
45815W        W 9572  32.552  34.399  13.027
45816W        W 9573   2.782  26.194  14.291
45817W        W 9574  28.565   3.436   3.316
45818W        W 9575  20.221   1.788   1.873
45819W        W 9576   3.320  14.834  13.372
45820W        W 9577  42.521  32.509  14.323
45821W        W 9578   6.787   1.426   2.261
45822W        W 9579   6.834   6.691   0.292
45823W        W 9580  28.512  17.187   3.234
45824W        W 9581  27.083  21.599   2.251
45825W        W 9582  21.553   3.400   1.830
45826W        W 9583   0.796  19.103  14.508
45827W        W 9584   7.749  21.704   2.853
45828W        W 9585  37.893  18.163   2.864
45829W        W 9586  19.175  15.750   3.367
45830W        W 9587   1.872  35.518  11.113
45831W        W 9588  30.070  35.051  12.925
45832W        W 9589  10.265  41.821  12.406
45833W        W 9590  25.145   9.334  14.319
45834W        W 9591  19.679  14.819   2.890
45835W        W 9592  34.000  36.563  14.310
45836W        W 9593  42.819  43.956  10.481
45837W        W 9594   8.330   3.368  14.429
45838W        W 9595  42.443   8.367  11.410
45839W        W 9596  25.640  39.926  11.380
45840W        W 9597  20.165  28.564   0.372
45841W        W 9598  28.173  36.928   3.739
45842W        W 9599  31.100   1.424   3.714
45843W        W 9600   1.291   7.725   0.307
45844W        W 9601  43.380  20.123   0.301
45845W        W 9602  13.705  36.387   3.851
45846W        W 9603  25.564  22.161   0.863
45847W        W 9604  27.196   0.379   2.745
45848W        W 9605  25.587  37.035   4.216
45849W        W 9606  41.910  19.202  13.793
45850W        W 9607   1.241  20.544  10.421
45851W        W 9608  20.119   3.921  10.633
45852W        W 9609  41.912  26.478  12.492
45853W        W 9610  44.966  20.704  12.535
45854W        W 9611  35.477   5.839   4.266
45855W        W 9612  19.579  12.662  14.997
45856W        W 9613  30.963  25.091   5.305
45857W        W 9614  17.768  42.949   3.644
45858W        W 9615   1.843  18.192   0.841
45859W        W 9616  11.215  21.168   1.849
45860W        W 9617  10.699   3.352  13.532
45861W        W 9618  37.525  11.161   1.294
45862W        W 9619  23.123  34.518   2.807
45863W        W 9620   5.196  37.935   1.415
45864W        W 9621  40.929   7.345   1.391
45865W        W 9622  12.720   2.250   1.392
45866W        W 9623  12.780  20.232  12.524
45867W        W 9624  10.670  13.184   0.799
45868W        W 9625  42.513  34.872  10.969
45869W        W 9626   8.666  32.942   0.244
45870W        W 9627  38.405  22.512   0.915
45871W        W 9628  22.520  16.716  12.978
45872W        W 9629  17.224  34.940  13.312
45873W        W 9630  41.008  24.516  14.381
45874W        W 9631   6.803  28.139  14.302
45875W        W 9632   4.426  40.033   0.244
45876W        W 9633  27.623  35.093   1.257
45877W        W 9634  28.619  21.070   1.858
45878W        W 9635  15.723  29.021  14.951
45879W        W 9636  29.526  24.632   3.220
45880W        W 9637  28.178   2.357  13.867
45881W        W 9638  34.863  27.989   0.425
45882W        W 9639  25.017  34.437   1.777
45883W        W 9640   5.733  43.014   4.702
45884W        W 9641   8.705  13.617   0.467
45885W        W 9642  30.047   1.767  14.968
45886W        W 9643   0.857   1.396   1.275
45887W        W 9644  35.576   2.282   1.407
45888W        W 9645  39.499  44.793  13.330
45889W        W 9646  20.191  25.113   3.242
45890W        W 9647   7.187  15.330   3.338
45891W        W 9648  10.374  12.161   2.790
45892W        W 9649  31.045  18.072   9.928
45893W        W 9650  28.650   8.742   3.206
45894W        W 9651  17.560  19.260  14.394
45895W        W 9652   2.328  35.554  14.329
45896W        W 9653  24.583   7.853   3.374
45897W        W 9654  17.746  31.075   1.914
45898W        W 9655  10.700  39.321   3.361
45899W        W 9656  26.594  35.497   3.219
45900W        W 9657  41.351  30.444   1.363
45901W        W 9658  17.635   1.453   3.678
45902W        W 9659  33.034  35.395  13.496
45903W        W 9660  16.129   5.422  12.456
45904W        W 9661  33.526  13.219  14.006
45905W        W 9662  22.140  42.324  12.963
45906W        W 9663  14.179   0.363   3.675
45907W        W 9664   0.873  36.476   1.845
45908W        W 9665  17.726  29.508  13.852
45909W        W 9666  31.465  31.482  10.435
45910W        W 9667   5.859  28.621  14.997
45911W        W 9668   8.372  10.811   2.214
45912W        W 9669  21.196  18.160   1.375
45913W        W 9670  16.654  12.123  10.627
45914W        W 9671   7.236  12.304   3.374
45915W        W 9672  28.085  19.759   2.801
45916W        W 9673  28.674  10.218   1.381
45917W        W 9674   7.291   8.759   2.836
45918W        W 9675   4.885  34.049   1.233
45919W        W 9676  20.706  24.564  10.513
45920W        W 9677  33.523  34.550  14.366
45921W        W 9678  12.187   6.361  14.393
45922W        W 9679   4.399  25.630   3.800
45923W        W 9680  28.172  22.706  10.135
45924W        W 9681  30.578  12.140  11.592
45925W        W 9682   6.423   5.387   0.442
45926W        W 9683  12.270   1.257  14.906
45927W        W 9684  20.114  12.693  14.886
45928W        W 9685   1.750  42.861  14.455
45929W        W 9686   5.854  24.064  13.036
45930W        W 9687   1.884  25.479  13.965
45931W        W 9688  26.139   4.850   2.248
45932W        W 9689   4.288  10.723   2.419
45933W        W 9690  15.293  37.985   0.766
45934W        W 9691   2.235   0.434  10.449
45935W        W 9692   0.367  12.821  12.933
45936W        W 9693   0.752  14.594   4.340
45937W        W 9694  24.676   6.260   3.843
45938W        W 9695   6.241   2.735  11.485
45939W        W 9696  18.144  37.001   0.910
45940W        W 9697  28.084  10.756  13.848
45941W        W 9698   4.821  17.211  13.457
45942W        W 9699  17.801  44.376   4.312
45943W        W 9700  28.571  13.304  10.536
45944W        W 9701  37.570  36.556   1.284
45945W        W 9702  29.547  23.126  10.531
45946W        W 9703  42.804  39.885  14.770
45947W        W 9704   3.914  25.171   1.722
45948W        W 9705  24.093  39.335  12.051
45949W        W 9706   6.198  30.613  14.892
45950W        W 9707  40.038   0.927  14.329
45951W        W 9708   0.905  37.892   2.311
45952W        W 9709   3.330  28.001   4.689
45953W        W 9710   3.880   6.221  12.547
45954W        W 9711  42.469  14.131   0.260
45955W        W 9712  22.121  38.324   1.383
45956W        W 9713   4.241  10.709  12.843
45957W        W 9714  11.296   9.707   3.221
45958W        W 9715   0.767  34.942  12.418
45959W        W 9716  34.955  40.811   4.140
45960W        W 9717   7.309  15.691  14.415
45961W        W 9718  20.549  40.043  10.518
45962W        W 9719  29.920  10.177  11.554
45963W        W 9720  31.013  17.715   1.777
45964W        W 9721  23.029  11.187   1.930
45965W        W 9722  15.196  19.282   2.801
45966W        W 9723   8.745  30.945   5.218
45967W        W 9724   4.312  43.962  12.477
45968W        W 9725  20.748  13.700   9.928
45969W        W 9726   5.226   6.775   4.749
45970W        W 9727  35.981  35.907  14.889
45971W        W 9728  42.301  30.123  11.114
45972W        W 9729  19.680  27.683   2.305
45973W        W 9730  34.065  40.429   2.209
45974W        W 9731  17.572  42.878   4.808
45975W        W 9732   4.226   1.735   0.302
45976W        W 9733  29.456  41.836   1.272
45977W        W 9734  33.403  40.392   1.803
45978W        W 9735  15.291  20.549  13.007
45979W        W 9736   9.773  33.573  14.019
45980W        W 9737  11.240  25.606  12.959
45981W        W 9738  15.580  14.312  14.858
45982W        W 9739  23.573  19.187  12.425
45983W        W 9740  36.028   4.230  12.488
45984W        W 9741  13.205   4.256  13.403
45985W        W 9742  27.127  18.115   1.902
45986W        W 9743   9.161   1.253  12.559
45987W        W 9744  43.795  44.448  10.412
45988W        W 9745  18.291  15.242   3.709
45989W        W 9746  35.417  34.966   0.253
45990W        W 9747  15.308  13.787   0.965
45991W        W 9748  10.204   9.244   3.353
45992W        W 9749  39.504  40.402  13.822
45993W        W 9750  24.067   6.312  14.507
45994W        W 9751  19.719  14.209   4.319
45995W        W 9752  20.534  36.014  12.978
45996W        W 9753  37.483  10.292   5.291
45997W        W 9754  42.879   0.286   3.259
45998W        W 9755  35.463   3.783   4.720
45999W        W 9756  35.481   2.795  14.777
46000W        W 9757  24.711  40.044   4.274
46001W        W 9758  12.772  33.981   1.874
46002W        W 9759  21.558  14.738  12.410
46003W        W 9760  26.665  15.115  14.287
46004W        W 9761  31.519  19.751   3.303
46005W        W 9762   0.880  35.083  10.427
46006W        W 9763  13.236   0.900   2.390
46007W        W 9764  13.258  40.442  10.601
46008W        W 9765  10.240  33.063  11.436
46009W        W 9766  43.785  33.435   3.180
46010W        W 9767  35.385  33.578   1.807
46011W        W 9768  44.843  10.646   2.745
46012W        W 9769  21.047  18.771  11.858
46013W        W 9770  37.425  12.790   1.908
46014W        W 9771  39.954  28.985   1.355
46015W        W 9772  42.292  21.635  14.844
46016W        W 9773  38.048   3.352   3.783
46017W        W 9774  21.138   5.343   0.801
46018W        W 9775  27.502  39.053   3.855
46019W        W 9776  21.711  37.513  13.858
46020W        W 9777  18.175  40.960  10.412
46021W        W 9778  32.890   5.221   3.268
46022W        W 9779  39.459  33.589   3.707
46023W        W 9780   2.724  23.553   4.250
46024W        W 9781  22.146  32.630   4.326
46025W        W 9782  22.190   6.866  11.539
46026W        W 9783  27.534  25.702  12.917
46027W        W 9784  42.286  27.631  11.862
46028W        W 9785  20.651  18.736   4.235
46029W        W 9786  15.589  30.911  14.775
46030W        W 9787   3.410  15.192  14.000
46031W        W 9788  25.686  26.128   2.698
46032W        W 9789  22.725  40.506  14.758
46033W        W 9790   4.228  38.918  11.897
46034W        W 9791  10.340  25.116  13.375
46035W        W 9792  19.255  31.419  10.958
46036W        W 9793  20.683  37.878  12.006
46037W        W 9794   3.720  31.424  10.482
46038W        W 9795   6.346  38.386  11.867
46039W        W 9796   8.845  14.751   5.224
46040W        W 9797  29.996  34.475   3.317
46041W        W 9798  35.875  26.007  13.482
46042W        W 9799  11.817  40.980   0.268
46043W        W 9800   1.963  21.215   0.308
46044W        W 9801  39.343   8.858   3.630
46045W        W 9802  23.104   2.235  12.521
46046W        W 9803  40.832  11.702  13.881
46047W        W 9804  35.091   5.890  14.758
46048W        W 9805  23.679  33.491   1.812
46049W        W 9806  19.106  38.051   3.272
46050W        W 9807   7.747  37.512  14.891
46051W        W 9808  43.873  23.659   4.297
46052W        W 9809  20.704  40.991   3.365
46053W        W 9810   2.351  35.581   0.334
46054W        W 9811  27.108   9.884   0.273
46055W        W 9812  43.506  13.351  10.627
46056W        W 9813  23.623  42.008   2.858
46057W        W 9814  25.195  24.679  12.048
46058W        W 9815  31.577  41.361   2.239
46059W        W 9816  17.639   0.904   3.766
46060W        W 9817  26.630  43.330  10.975
46061W        W 9818  34.525  32.481  11.913
46062W        W 9819  27.586  12.268  14.975
46063W        W 9820  43.462  29.140  13.015
46064W        W 9821   4.827  41.883  12.367
46065W        W 9822  21.122  43.447   3.763
46066W        W 9823   2.247  21.751   2.240
46067W        W 9824  16.796   4.883  13.821
46068W        W 9825   5.281  25.513   1.916
46069W        W 9826  36.914  32.988   4.667
46070W        W 9827  37.846  10.787  11.528
46071W        W 9828   1.264  36.966   4.196
46072W        W 9829   8.360  25.021   3.722
46073W        W 9830  39.893   5.870  10.992
46074W        W 9831  15.194  23.133  12.536
46075W        W 9832  18.733  42.412  11.477
46076W        W 9833   6.735   6.367  11.926
46077W        W 9834  32.538  42.484   1.785
46078W        W 9835  14.217  43.513   5.631
46079W        W 9836  35.427   0.833  12.365
46080W        W 9837  23.563  40.361   3.742
46081W        W 9838  36.385  27.490  13.508
46082W        W 9839  15.678  30.527  11.995
46083W        W 9840  11.848  17.286   0.458
46084W        W 9841  16.648  30.535   2.850
46085W        W 9842   0.837  27.563  11.930
46086W        W 9843  14.637  34.393   4.155
46087W        W 9844  26.636  35.983  12.020
46088W        W 9845  19.642  36.989  13.850
46089W        W 9846  27.603   7.677  14.887
46090W        W 9847   4.790  23.113   4.310
46091W        W 9848  22.072   2.268   1.919
46092W        W 9849  37.373  20.035   4.671
46093W        W 9850  23.047  33.023  11.120
46094W        W 9851  17.260   0.867  14.005
46095W        W 9852  27.950  18.111   2.837
46096W        W 9853  35.466   6.306  12.962
46097W        W 9854  19.239  40.947  13.457
46098W        W 9855   4.723  20.658  14.915
46099W        W 9856  17.171   1.344  12.516
46100W        W 9857   6.340  11.710  14.331
46101W        W 9858  35.501  33.881   3.843
46102W        W 9859  15.324  17.728   0.408
46103W        W 9860   6.329  43.981  12.454
46104W        W 9861  37.367  39.528  14.932
46105W        W 9862  37.411  41.847  14.883
46106W        W 9863  40.511   3.339  13.974
46107W        W 9864   2.226   9.787   0.855
46108W        W 9865   9.371   3.310  11.942
46109W        W 9866  44.992   7.413  10.644
46110W        W 9867  37.051  12.354   3.336
46111W        W 9868  42.356  27.606   4.138
46112W        W 9869  38.426  40.339   1.853
46113W        W 9870   9.205  13.713   0.860
46114W        W 9871   6.378  23.603   1.361
46115W        W 9872  10.378   1.347   0.892
46116W        W 9873  44.441  35.445   1.803
46117W        W 9874  42.900  29.649   0.443
46118W        W 9875   8.400  44.284   0.415
46119W        W 9876  11.242  41.978   0.350
46120W        W 9877  40.023  44.470  13.381
46121W        W 9878  39.963  11.148  10.519
46122W        W 9879  33.494  14.193  11.484
46123W        W 9880  37.083  12.171   4.266
46124W        W 9881   7.775   7.410   0.866
46125W        W 9882  27.972  22.668  14.484
46126W        W 9883  41.998  22.223   2.722
46127W        W 9884  15.206  12.748   2.699
46128W        W 9885  43.345  41.792   3.647
46129W        W 9886  38.563  42.406   2.765
46130W        W 9887  26.695  31.979  12.832
46131W        W 9888  17.105  26.148  11.612
46132W        W 9889  16.162  38.330  11.961
46133W        W 9890  34.433   2.808   4.628
46134W        W 9891  22.168  43.316  11.902
46135W        W 9892  38.964  32.898   4.193
46136W        W 9893   2.284   4.918   3.309
46137W        W 9894   2.796  24.714  12.966
46138W        W 9895  41.961  11.179   4.769
46139W        W 9896  41.529  43.449   0.299
46140W        W 9897  22.559  34.558   0.338
46141W        W 9898  31.088  18.737   0.333
46142W        W 9899  13.696  42.848  13.322
46143W        W 9900   5.879  43.785   9.993
46144W        W 9901  14.728  10.163   2.756
46145W        W 9902   6.828  27.146   1.835
46146W        W 9903  42.837   1.311  11.859
46147W        W 9904   8.790  12.856   4.268
46148W        W 9905  12.202  31.139   3.682
46149W        W 9906  29.426   6.895   3.724
46150W        W 9907  22.230  39.955   0.837
46151W        W 9908  21.662  34.402  13.017
46152W        W 9909  28.107  35.106   1.352
46153W        W 9910  31.063   6.821  10.414
46154W        W 9911  35.011   8.215  14.424
46155W        W 9912  40.025  16.125   4.289
46156W        W 9913  32.560  10.642  12.050
46157W        W 9914  23.712  29.945   1.270
46158W        W 9915   4.887  40.868  12.467
46159W        W 9916  10.826  33.908   0.921
46160W        W 9917  37.836  27.513  14.935
46161W        W 9918   1.278   0.355  14.409
46162W        W 9919  13.206  35.041   5.222
46163W        W 9920   3.876  25.119   3.346
46164W        W 9921  30.090  34.056  11.061
46165W        W 9922  10.225  27.652  10.068
46166W        W 9923   9.878  42.351   4.319
46167W        W 9924  35.569  39.815   0.929
46168W        W 9925  35.582  22.128   1.895
46169W        W 9926   2.820  15.704  10.900
46170W        W 9927  33.005  39.328  11.443
46171W        W 9928  37.060  19.075  13.892
46172W        W 9929  42.812  30.605   4.116
46173W        W 9930  24.001  14.818  12.054
46174W        W 9931   6.388  24.181  11.856
46175W        W 9932  15.209   6.199   3.758
46176W        W 9933  42.313  25.472  14.027
46177W        W 9934  34.993  21.022   1.445
46178W        W 9935  44.939  43.443  10.542
46179W        W 9936   5.724   3.873   2.874
46180W        W 9937   3.260  37.878  11.086
46181W        W 9938   1.379  30.603  12.974
46182W        W 9939  38.399  32.019   0.924
46183W        W 9940  38.550  27.181  13.852
46184W        W 9941  25.585   7.220   2.388
46185W        W 9942   1.973   8.288  14.479
46186W        W 9943   8.717  14.153  10.035
46187W        W 9944  33.422  36.372   0.351
46188W        W 9945  43.818  22.644  11.418
46189W        W 9946  10.699  24.491   4.771
46190W        W 9947  35.433  44.815   2.302
46191W        W 9948  32.432  39.043  11.970
46192W        W 9949  14.814  22.719  14.933
46193W        W 9950   0.408   9.288  11.399
46194W        W 9951  42.011   0.903  10.962
46195W        W 9952  27.488   7.282   1.451
46196W        W 9953   5.802  37.389   4.237
46197W        W 9954  33.411  18.063  13.982
46198W        W 9955   9.371  39.414   4.686
46199W        W 9956  44.957   9.384  12.935
46200W        W 9957  43.937  30.910  13.324
46201W        W 9958  16.297  20.127  11.081
46202W        W 9959   9.168  28.090  14.025
46203W        W 9960  39.488   1.346  10.592
46204W        W 9961  40.984  27.118  14.935
46205W        W 9962  14.699  10.639  12.490
46206W        W 9963  24.211  29.659   1.815
46207W        W 9964   4.831   6.782  12.912
46208W        W 9965  38.031  23.598   2.368
46209W        W 9966  18.146  42.867  12.823
46210W        W 9967  23.210  30.492   4.217
46211W        W 9968  23.120   0.842   0.742
46212W        W 9969  37.084  44.376  12.383
46213W        W 9970  34.889   3.906   4.807
46214W        W 9971  20.098   1.755  12.031
46215W        W 9972  41.417  22.545  11.890
46216W        W 9973  44.348   1.938   4.729
46217W        W 9974   5.861   9.778   3.177
46218W        W 9975  38.391  37.450  11.036
46219W        W 9976  32.543   9.700   4.341
46220W        W 9977  29.941  15.696  14.467
46221W        W 9978  10.319   4.714  13.053
46222W        W 9979   8.772   8.763   5.232
46223W        W 9980  18.764  42.463  13.949
46224W        W 9981   4.304  32.089  12.570
46225W        W 9982  25.179  37.337   4.696
46226W        W 9983   6.219  35.976  12.857
46227W        W 9984   3.219  18.218   4.201
46228W        W 9985   2.393  32.620  13.041
46229W        W 9986  27.487  43.416   3.230
46230W        W 9987  37.413  20.229  13.802
46231W        W 9988   6.726  30.027  12.031
46232W        W 9989  33.588  33.383   4.275
46233W        W 9990  21.602  20.239  14.942
46234W        W 9991  20.527  20.591  14.816
46235W        W 9992   2.774   5.693   4.247
46236W        W 9993  37.543  22.067   1.895
46237W        W 9994   9.676  23.513   3.164
46238W        W 9995  10.301  33.112  10.436
46239W        W 9996  30.116   3.742  12.550
46240W        W 9997  18.174  15.133   4.235
46241W        W 9998  15.163  14.154   2.386
46242W        W 9999  11.837  21.136   3.712
46243W        W10000  38.992  43.923  11.483
46244W        W10001   3.824  18.640   0.929
46245W        W10002  43.359  22.517   4.320
46246W        W10003  19.683  31.605   3.254
46247W        W10004  43.937  11.320   3.314
46248W        W10005  26.514  42.512   0.872
46249W        W10006  40.546  25.499  14.812
46250W        W10007   1.890   2.229  11.429
46251W        W10008  36.866  36.394   0.934
46252W        W10009   4.795   9.287  13.908
46253W        W10010  26.987  44.795   4.738
46254W        W10011   7.411   8.387   1.705
46255W        W10012  19.652   3.911  13.433
46256W        W10013  35.380  44.889  13.534
46257W        W10014  41.341  43.946   2.234
46258W        W10015   0.895  11.658  14.410
46259W        W10016  23.109  14.607  11.526
46260W        W10017  44.831   2.887  12.405
46261W        W10018  24.090  16.755   1.746
46262W        W10019   3.918   8.188  13.929
46263W        W10020  10.248   5.908  10.578
46264W        W10021   4.392   3.382   0.933
46265W        W10022  37.393  20.679   3.816
46266W        W10023  31.146  38.978   0.428
46267W        W10024  29.972   7.244  13.877
46268W        W10025  36.398   9.716  13.791
46269W        W10026  43.421  39.813  12.032
46270W        W10027  38.974  44.791  13.429
46271W        W10028  12.849  25.628  12.040
46272W        W10029  11.638  35.440  12.913
46273W        W10030  24.053  31.596   1.917
46274W        W10031   9.832  20.103  13.053
46275W        W10032  20.674  26.662  13.035
46276W        W10033  23.207  17.754   2.785
46277W        W10034  41.807   3.358  10.051
46278W        W10035  41.519  26.499  12.423
46279W        W10036   3.837   3.748  12.864
46280W        W10037  28.461  40.968   3.727
46281W        W10038  39.551  43.819   4.765
46282W        W10039  33.522  44.325  11.494
46283W        W10040  21.078   4.224  13.313
46284W        W10041  20.076  38.898   1.721
46285W        W10042  26.105  28.527  12.852
46286W        W10043  28.072  16.205   5.627
46287W        W10044  30.054  12.675  10.919
46288W        W10045  28.574  24.195   0.752
46289W        W10046  41.882  37.531   2.865
46290W        W10047  30.138  24.629   4.175
46291W        W10048   6.361  43.971   9.482
46292W        W10049  43.287  12.347   1.846
46293W        W10050  28.654  34.868   2.275
46294W        W10051  36.912  18.190  11.901
46295W        W10052  11.737  34.969  11.537
46296W        W10053  31.495   8.336   3.152
46297W        W10054   7.313  18.670  11.075
46298W        W10055  29.044  31.409   4.262
46299W        W10056  28.532  15.652  11.565
46300W        W10057   4.855  43.008   0.258
46301W        W10058  11.219  31.008   0.861
46302W        W10059  26.575  36.358   5.200
46303W        W10060   8.273  16.194  12.359
46304W        W10061  22.185  25.513   1.341
46305W        W10062   3.736  42.401   5.714
46306W        W10063  41.387  15.115  13.516
46307W        W10064  32.096  14.163   4.703
46308W        W10065  28.629  26.037   1.905
46309W        W10066  18.270   2.826  14.770
46310W        W10067  13.844  41.976   1.274
46311W        W10068  34.408  17.144   3.744
46312W        W10069   1.946  17.597   0.884
46313W        W10070  44.985   7.849   3.209
46314W        W10071  20.552  28.107   4.828
46315W        W10072  14.244   2.347   4.153
46316W        W10073   5.323  22.600   1.904
46317W        W10074  38.535   2.341  12.450
46318W        W10075  27.989  13.273  11.414
46319W        W10076  40.448  14.299   5.097
46320W        W10077   4.332  11.867  10.912
46321W        W10078  29.573  24.138   0.418
46322W        W10079  10.665  22.248  11.605
46323W        W10080  23.050  38.054   3.250
46324W        W10081  42.944  35.413  13.468
46325W        W10082  21.022  43.928  14.878
46326W        W10083  22.072  31.096  14.341
46327W        W10084  26.648  28.540  11.983
46328W        W10085  23.588  14.124  12.008
46329W        W10086  23.210   8.840   1.434
46330W        W10087  12.241  29.526  12.464
46331W        W10088  18.605  14.683  12.900
46332W        W10089   0.871  29.432   2.766
46333W        W10090   1.761  24.699   2.708
46334W        W10091  19.135  12.326  12.869
46335W        W10092  16.742  12.355   3.323
46336W        W10093   0.401   1.238   4.184
46337W        W10094  34.484   5.890  10.901
46338W        W10095  20.113   5.425   3.348
46339W        W10096  23.664   3.914   0.420
46340W        W10097  28.619  33.051   0.739
46341W        W10098  14.762   6.381  12.407
46342W        W10099  21.107  15.258   0.451
46343W        W10100  27.047  36.847   0.320
46344W        W10101  14.644   7.300   0.253
46345W        W10102  20.112  12.235  13.882
46346W        W10103  26.089  22.691   4.235
46347W        W10104  43.306  10.167  10.514
46348W        W10105  32.037   6.183  13.449
46349W        W10106  39.505   0.481  13.044
46350W        W10107  37.461  12.230   3.807
46351W        W10108  18.635  43.397   0.924
46352W        W10109  42.514  26.605   4.261
46353W        W10110  31.614  44.338   3.291
46354W        W10111  14.618  24.626  12.932
46355W        W10112  15.738  41.297   0.450
46356W        W10113  42.363  29.990   0.466
46357W        W10114  21.219  24.626   5.299
46358W        W10115   4.312  39.349   1.900
46359W        W10116  21.721  28.506  10.908
46360W        W10117   4.340  18.214   0.296
46361W        W10118  12.324  32.955  12.974
46362W        W10119  30.915  35.004  11.410
46363W        W10120  26.656   6.193   4.631
46364W        W10121  30.005  17.089  14.383
46365W        W10122   6.782   2.792  13.434
46366W        W10123  15.605  11.801   1.746
46367W        W10124   5.741  26.609   1.301
46368W        W10125  16.179  37.076  13.409
46369W        W10126   9.791   5.314   0.827
46370W        W10127  13.602  43.277   3.778
46371W        W10128  16.086  31.578   1.921
46372W        W10129  15.793  30.154  13.433
46373W        W10130   4.256  34.867   4.269
46374W        W10131  37.383  16.723  13.823
46375W        W10132  32.014  20.057  12.877
46376W        W10133  40.867  30.035   1.758
46377W        W10134  41.383   5.320   2.261
46378W        W10135  17.782   9.150   4.709
46379W        W10136   9.156  14.709  12.580
46380W        W10137   5.746   3.454   4.243
46381W        W10138  32.068  11.293   0.268
46382W        W10139  26.127  31.535   0.304
46383W        W10140  35.895  12.171  14.914
46384W        W10141  19.089  20.234  12.569
46385W        W10142   7.810  27.961   5.140
46386W        W10143  26.551  25.055   9.594
46387W        W10144   4.938   4.284   1.774
46388W        W10145  18.098   4.708  14.343
46389W        W10146  20.272  19.561  10.032
46390W        W10147  25.641  14.239  14.002
46391W        W10148  43.298  13.645   2.856
46392W        W10149  13.787  22.125  13.915
46393W        W10150  44.447  25.615   0.425
46394W        W10151  17.283  12.183  13.476
46395W        W10152  19.631   0.944   1.767
46396W        W10153   7.844  25.541  11.416
46397W        W10154  19.245  35.037  11.915
46398W        W10155  28.048  28.611  11.056
46399W        W10156  20.682  37.338  11.899
46400W        W10157  23.001  32.087   1.754
46401W        W10158  42.782  12.759  14.396
46402W        W10159  34.983  36.357   1.696
46403W        W10160   6.228   9.337  10.565
46404W        W10161  24.992  19.058   1.843
46405W        W10162  17.243  38.941   3.201
46406W        W10163  28.498   2.778   0.766
46407W        W10164  20.537  16.084   0.412
46408W        W10165  35.515   2.324  12.531
46409W        W10166  29.151  17.800   2.296
46410W        W10167  23.024   6.191   3.220
46411W        W10168  35.062   2.333  12.416
46412W        W10169   1.764  14.760   0.928
46413W        W10170  27.689  36.889  12.573
46414W        W10171   9.200  36.489   4.781
46415W        W10172   9.695  35.564  10.923
46416W        W10173   1.887   2.904  12.571
46417W        W10174  36.426  43.369  11.021
46418W        W10175  31.545  37.048   1.834
46419W        W10176  39.995  10.748   1.364
46420W        W10177  27.061  33.481   2.775
46421W        W10178  19.284  25.978  13.798
46422W        W10179   5.248  28.449   2.223
46423W        W10180  20.555  37.503  13.920
46424W        W10181  20.598  21.180  11.407
46425W        W10182   0.779  26.582  14.802
46426W        W10183  44.761   5.921   3.786
46427W        W10184  31.969  33.624   5.163
46428W        W10185  44.966  16.195  11.913
46429W        W10186  41.330  20.099  13.812
46430W        W10187  31.505   6.319   1.852
46431W        W10188  25.183  21.062   5.168
46432W        W10189   0.294  10.645   4.192
46433W        W10190  29.500  34.079   4.247
46434W        W10191  10.210  24.561  10.549
46435W        W10192  38.388  30.462   0.458
46436W        W10193  35.098   7.377   4.258
46437W        W10194   9.812  25.191  13.873
46438W        W10195   7.857  10.750   0.766
46439W        W10196  40.928   7.779   0.833
46440W        W10197  16.118   4.251   2.363
46441W        W10198  38.857  37.033  12.429
46442W        W10199  21.185  32.969   5.158
46443W        W10200  40.877   8.788  13.353
46444W        W10201   0.903  23.654   4.744
46445W        W10202  39.970  29.975   1.421
46446W        W10203  35.980  40.529  13.514
46447W        W10204  16.256  27.656   3.343
46448W        W10205   5.408   2.830   3.692
46449W        W10206   3.749  20.613  11.586
46450W        W10207  41.864   6.685  12.097
46451W        W10208  19.219  22.645   1.768
46452W        W10209   4.339   9.198  12.371
46453W        W10210   5.922  43.325  11.040
46454W        W10211   3.810  30.998   2.234
46455W        W10212  23.225  35.862  13.823
46456W        W10213  33.428  10.705  12.573
46457W        W10214  22.044  32.069   0.380
46458W        W10215  11.163   6.401  10.560
46459W        W10216  32.549  32.560  10.939
46460W        W10217  30.146   8.253   1.347
46461W        W10218   7.811   9.693   2.677
46462W        W10219  10.153  19.576  12.833
46463W        W10220   7.391   9.847   1.725
46464W        W10221  30.039  41.398  13.448
46465W        W10222  44.922   1.268   3.295
46466W        W10223  41.373  40.993  10.566
46467W        W10224   7.330  26.011  12.576
46468W        W10225  20.713  18.210   1.302
46469W        W10226  13.671  38.511  13.873
46470W        W10227  23.090  37.055   2.392
46471W        W10228  17.790  43.848   1.836
46472W        W10229  16.633  15.135  10.903
46473W        W10230  25.198   0.785   4.152
46474W        W10231   3.460   1.952  11.957
46475W        W10232   5.212  15.234  14.978
46476W        W10233  15.645  19.252  14.460
46477W        W10234  37.883  33.407   0.772
46478W        W10235  13.663  29.429   2.699
46479W        W10236  28.980   3.796  14.514
46480W        W10237  12.704  17.161   0.456
46481W        W10238  12.833   9.865   1.743
46482W        W10239   8.374  33.041  11.024
46483W        W10240  42.972  20.134  14.870
46484W        W10241  18.654  33.530  12.562
46485W        W10242  18.204   9.225  11.507
46486W        W10243  17.691  18.547   1.223
46487W        W10244  44.342  17.718  10.598
46488W        W10245  15.301  14.631  10.965
46489W        W10246  11.774   9.805  11.961
46490W        W10247  38.913  28.110  13.929
46491W        W10248  18.075  44.885  14.942
46492W        W10249  40.462  21.671  13.476
46493W        W10250  39.064  18.189  12.442
46494W        W10251   4.451  31.961   3.670
46495W        W10252   5.732   5.246   2.678
46496W        W10253  17.756  36.079  13.524
46497W        W10254  21.200  24.580   1.398
46498W        W10255  24.004  40.514   3.660
46499W        W10256  43.315  11.235   1.778
46500W        W10257  15.776  13.698   1.234
46501W        W10258   7.176  23.056   2.775
46502W        W10259  14.242  17.586  10.407
46503W        W10260  18.763  22.634  13.022
46504W        W10261  29.063  13.684  12.898
46505W        W10262  11.163  20.133  11.008
46506W        W10263   3.388  14.236   2.860
46507W        W10264  25.042   6.709  12.024
46508W        W10265  26.496  31.050   0.244
46509W        W10266  38.453  19.170  10.499
46510W        W10267  11.823  12.794  10.973
46511W        W10268  30.113   5.430  13.891
46512W        W10269  19.069  13.832  13.481
46513W        W10270  31.092  40.934  10.556
46514W        W10271  21.571  19.582   2.675
46515W        W10272  23.082  27.156   0.892
46516W        W10273  30.083  41.829   4.621
46517W        W10274  43.427  17.722   1.216
46518W        W10275  25.021  22.086   4.212
46519W        W10276  43.451  16.317   2.318
46520W        W10277  41.382  32.506   2.816
46521W        W10278  41.537  31.531  12.918
46522W        W10279   6.741  24.565   1.907
46523W        W10280  20.586  31.565   5.741
46524W        W10281  25.620  31.016   4.628
46525W        W10282   9.294  26.958   3.260
46526W        W10283   7.398  40.544   4.637
46527W        W10284   2.354  10.220   4.327
46528W        W10285  11.181  38.378  12.879
46529W        W10286  43.947   7.377   2.711
46530W        W10287  11.207  26.622   1.848
46531W        W10288   8.694  31.980   3.255
46532W        W10289  36.882  14.795  12.367
46533W        W10290  42.521  26.594  12.439
46534W        W10291   0.303   1.857  14.508
46535W        W10292  15.097  42.429   1.737
46536W        W10293  19.707   5.798  14.401
46537W        W10294  10.331  29.521   0.942
46538W        W10295  20.724   7.338  12.041
46539W        W10296  39.506   0.451  13.366
46540W        W10297  37.057  14.625  10.561
46541W        W10298  13.281   3.905   0.880
46542W        W10299  29.048  19.187  12.024
46543W        W10300  44.408  10.174   0.265
46544W        W10301  32.437  42.803   3.641
46545W        W10302  35.541  22.576  14.500
46546W        W10303  31.919  16.679   2.195
46547W        W10304  32.477  26.973  11.444
46548W        W10305  28.451   4.748  11.121
46549W        W10306  41.478   9.711  14.987
46550W        W10307  41.492  16.722  14.014
46551W        W10308  36.944  23.042  11.035
46552W        W10309   7.174  13.347   3.244
46553W        W10310  44.391  38.974  12.956
46554W        W10311   1.354   4.255  14.906
46555W        W10312  41.923  41.840   2.743
46556W        W10313  30.605  21.611   2.386
46557W        W10314  40.903  26.491  12.441
46558W        W10315   4.321  12.199  12.550
46559W        W10316  11.188  41.317  13.343
46560W        W10317  19.669  34.489  12.882
46561W        W10318  12.247  25.085  12.418
46562W        W10319  19.247   3.916   0.424
46563W        W10320  32.133   3.223   3.217
46564W        W10321  25.126   4.255  12.866
46565W        W10322  11.360  22.191  10.455
46566W        W10323  18.286  40.391  13.959
46567W        W10324  13.211  44.851  13.406
46568W        W10325   3.404  28.453   0.363
46569W        W10326  44.996  27.504   0.454
46570W        W10327  13.114  43.816  14.993
46571W        W10328  37.448  22.580   0.316
46572W        W10329  24.177  31.904  13.383
46573W        W10330  32.393   4.270  14.927
46574W        W10331  42.894  19.082   2.196
46575W        W10332  22.107   3.821   2.871
46576W        W10333  42.453   1.291  14.949
46577W        W10334   7.371  10.324   1.397
46578W        W10335  14.271  33.593  10.450
46579W        W10336  19.654  17.166   3.721
46580W        W10337  36.406   1.962  14.920
46581W        W10338   0.915  37.017  11.922
46582W        W10339  35.363  28.108  11.096
46583W        W10340  29.011  23.602   4.619
46584W        W10341  28.638  23.995   3.632
46585W        W10342  11.730  32.029   9.923
46586W        W10343  39.846  14.797   1.249
46587W        W10344  12.196  12.333  12.981
46588W        W10345  42.898  40.417   5.090
46589W        W10346  12.360  41.884   4.161
46590W        W10347  38.523   1.469  11.887
46591W        W10348  25.556  34.989   1.871
46592W        W10349  36.011  16.211   3.264
46593W        W10350  19.659  36.841  10.478
46594W        W10351   9.783  30.144   4.809
46595W        W10352  39.463  11.371  11.463
46596W        W10353   0.913  43.866   0.873
46597W        W10354  42.337  11.720   2.291
46598W        W10355  31.560  18.754   4.654
46599W        W10356   1.387  27.578   4.819
46600W        W10357  43.500  20.556   0.748
46601W        W10358  15.100   2.721   0.387
46602W        W10359   7.187  38.489  13.399
46603W        W10360   1.841   3.304   1.738
46604W        W10361  20.650   4.343  12.452
46605W        W10362  27.077   4.796   1.805
46606W        W10363  34.569  36.448  14.020
46607W        W10364  36.407  18.212  14.782
46608W        W10365   3.293  36.449   1.789
46609W        W10366  35.472  26.479   0.245
46610W        W10367  22.077   4.273  12.895
46611W        W10368   8.677  21.057   1.330
46612W        W10369   5.732  27.195  13.028
46613W        W10370   5.769  38.430  14.929
46614W        W10371  31.573  39.332   4.800
46615W        W10372   5.804   0.358  12.459
46616W        W10373  29.162  17.157  12.339
46617W        W10374  37.074  15.633   0.257
46618W        W10375  31.473   3.956  10.578
46619W        W10376   3.920  16.756   2.342
46620W        W10377  12.755  25.522  12.888
46621W        W10378   8.893  32.397  11.466
46622W        W10379   9.877  20.546   3.865
46623W        W10380   8.812  37.004   1.235
46624W        W10381  43.832  24.688   3.753
46625W        W10382   0.815  41.913  12.960
46626W        W10383  14.192  29.533  10.630
46627W        W10384  10.854  14.230   2.756
46628W        W10385   6.727  19.672  12.351
46629W        W10386  33.954   8.172   1.913
46630W        W10387  29.625  43.830  13.814
46631W        W10388   5.338  17.075  14.929
46632W        W10389  34.941  14.812   1.893
46633W        W10390  12.217  40.529   0.823
46634W        W10391   5.765  25.143  10.999
46635W        W10392  10.383  13.734   1.331
46636W        W10393   2.271   6.865  10.568
46637W        W10394  28.931  34.474  12.038
46638W        W10395  38.065  20.734  14.789
46639W        W10396  40.981   4.907  10.593
46640W        W10397  15.753  44.791   1.848
46641W        W10398  41.968  11.799  10.623
46642W        W10399  18.570  24.124  13.379
46643W        W10400   4.448  24.518   4.657
46644W        W10401  18.576  24.196   4.818
46645W        W10402  17.282  10.174   1.727
46646W        W10403  30.979  33.474  12.870
46647W        W10404  27.034  38.424   4.697
46648W        W10405  29.921  38.072  13.838
46649W        W10406  40.419  36.030   0.453
46650W        W10407  10.820  28.954   3.802
46651W        W10408  14.611   9.218   1.797
46652W        W10409   9.722   9.881   4.733
46653W        W10410  22.054  36.484   3.269
46654W        W10411   8.777  43.948   0.918
46655W        W10412  28.934  11.192  11.104
46656W        W10413  40.469  35.883   3.708
46657W        W10414  15.766  20.228   1.847
46658W        W10415  22.249  42.966  10.517
46659W        W10416   0.900  43.490   3.307
46660W        W10417   0.883  19.277   2.832
46661W        W10418  18.080  35.568  12.870
46662W        W10419  36.987  43.428   2.264
46663W        W10420  39.560  31.024   1.253
46664W        W10421  10.383  10.274   4.131
46665W        W10422  44.334  28.041   0.922
46666W        W10423  14.622   2.917  12.847
46667W        W10424  20.073   4.247  10.917
46668W        W10425   7.850  39.898  14.293
46669W        W10426   2.773  41.980   1.872
46670W        W10427  32.563  17.248   2.867
46671W        W10428  13.770   1.270  14.921
46672W        W10429   2.873  44.400  13.367
46673W        W10430  32.982  39.552   0.902
46674W        W10431  22.729  31.443  14.928
46675W        W10432   3.459   3.871   3.313
46676W        W10433  40.963  21.186  14.921
46677W        W10434   1.820  19.740  13.949
46678W        W10435  32.577  39.964  11.990
46679W        W10436  38.836  21.595   2.770
46680W        W10437  15.782  40.901  10.406
46681W        W10438  14.163  19.706   1.424
46682W        W10439  29.623  15.179   0.278
46683W        W10440  13.215  25.077  11.436
46684W        W10441  30.645  14.804   3.285
46685W        W10442  11.759  26.112  12.531
46686W        W10443   4.349   4.443   0.303
46687W        W10444  27.523  11.337   4.156
46688W        W10445  37.364  26.951   0.864
46689W        W10446   2.318   4.857   1.247
46690W        W10447  27.584  22.245   4.116
46691W        W10448  22.698  21.047  13.518
46692W        W10449  43.003  22.675   4.756
46693W        W10450  42.468  43.380   1.706
46694W        W10451  43.329  33.029   1.277
46695W        W10452   7.353  17.765   3.286
46696W        W10453  37.073  40.418  12.502
46697W        W10454  10.718  42.912  11.882
46698W        W10455   9.235  30.541   2.306
46699W        W10456  12.246  35.947  14.350
46700W        W10457  43.832   8.730  13.943
46701W        W10458   7.823  39.366   3.292
46702W        W10459  15.128  15.124   4.142
46703W        W10460   8.832   7.832  11.446
46704W        W10461  18.179  30.531  12.022
46705W        W10462   9.328  20.706  12.839
46706W        W10463  34.372  44.341   1.382
46707W        W10464  43.314  30.163   1.755
46708W        W10465  10.688  13.645  12.908
46709W        W10466  22.121  27.672   4.637
46710W        W10467  36.964   6.189   1.899
46711W        W10468  34.890  44.822  11.952
46712W        W10469   7.741  39.910  11.458
46713W        W10470   2.949  11.753  12.978
46714W        W10471  31.028  35.081  12.907
46715W        W10472  21.734   2.381   3.177
46716W        W10473  26.998  19.064  12.556
46717W        W10474  24.604  32.592   0.253
46718W        W10475  35.018  10.369  13.370
46719W        W10476   5.770  10.635   2.675
46720W        W10477  18.570  16.308  11.888
46721W        W10478  23.523  28.638   0.277
46722W        W10479  17.784  24.650   0.901
46723W        W10480  27.638  42.868  12.950
46724W        W10481  33.950  21.169  14.837
46725W        W10482   7.227  38.465   1.892
46726W        W10483   8.671  21.066   2.762
46727W        W10484  17.575   7.258  11.968
46728W        W10485   8.859   0.387   4.763
46729W        W10486  34.029   2.267  13.310
46730W        W10487  42.499  38.486   1.241
46731W        W10488  10.234  24.051   0.891
46732W        W10489  21.066  16.295  14.949
46733W        W10490  44.311  30.984  14.313
46734W        W10491  26.959  43.421   1.780
46735W        W10492   8.334  15.162  14.781
46736W        W10493  42.016   3.923   3.367
46737W        W10494  35.490  26.971   2.356
46738W        W10495   4.408  17.095  13.350
46739W        W10496  12.761  29.955  14.343
46740W        W10497  43.498  39.989   1.816
46741W        W10498  44.396  10.636   4.349
46742W        W10499  17.116   5.414   3.866
46743W        W10500  21.674  22.706   3.833
46744W        W10501  20.723  29.125   1.725
46745W        W10502  16.234  19.238  14.827
46746W        W10503  44.343  35.091  13.905
46747W        W10504  24.719  19.070  14.415
46748W        W10505   5.323   4.749   3.358
46749W        W10506  25.634  39.483  12.377
46750W        W10507  10.363   7.677  11.884
46751W        W10508  17.280  19.669   1.708
46752W        W10509  12.123   4.755   4.765
46753W        W10510  14.290   9.798   2.690
46754W        W10511  39.550  18.589  12.387
46755W        W10512  16.725  13.715   0.447
46756W        W10513  18.729  44.883   0.962
46757W        W10514  41.835  31.546  12.931
46758W        W10515  42.998  23.589   2.238
46759W        W10516   4.250  21.157  11.912
46760W        W10517  15.802  15.672   1.429
46761W        W10518  17.164  12.799   0.778
46762W        W10519  21.023   0.359  10.542
46763W        W10520  13.127  37.542   1.809
46764W        W10521  23.198  13.778   1.897
46765W        W10522   1.391  30.985   1.704
46766W        W10523  26.468   4.917  11.940
46767W        W10524   6.349  30.640   5.163
46768W        W10525   0.966  20.084  12.834
46769W        W10526  43.839   7.226  10.438
46770W        W10527  39.875  38.963   2.675
46771W        W10528  30.573  22.563   2.680
46772W        W10529  14.207  28.544  14.335
46773W        W10530  38.982  26.537  13.468
46774W        W10531   4.424  14.835  12.026
46775W        W10532  22.029  33.905  14.398
46776W        W10533  15.199  12.154  11.548
46777W        W10534  33.047  42.775   0.477
46778W        W10535   0.936  23.176   1.835
46779W        W10536  11.291   6.826  10.464
46780W        W10537  16.792  13.184   3.774
46781W        W10538  10.839  13.702  10.469
46782W        W10539  37.424  44.894   0.761
46783W        W10540  28.680  35.486  12.346
46784W        W10541  14.289  40.026   4.817
46785W        W10542   1.375  16.757  11.005
46786W        W10543  37.456  30.055   4.334
46787W        W10544  27.645  10.830   4.129
46788W        W10545  44.945  38.958  10.589
46789W        W10546   1.419  14.118  14.840
46790W        W10547  16.786  11.836   2.247
46791W        W10548  39.331  17.569   1.837
46792W        W10549   8.267  20.052   5.669
46793W        W10550   8.386  16.635   2.868
46794W        W10551  19.607  11.201  10.540
46795W        W10552  15.128   8.809   2.837
46796W        W10553  17.595  33.510   0.892
46797W        W10554  40.944  20.214  12.969
46798W        W10555   0.416  11.721  10.560
46799W        W10556  12.206   3.837  12.531
46800W        W10557  26.151  17.166   4.730
46801W        W10558  12.849  40.354  11.452
46802W        W10559  29.473   2.740   2.348
46803W        W10560  27.953  38.064   0.830
46804W        W10561  40.351   6.843   1.223
46805W        W10562   4.740   4.292  11.053
46806W        W10563  30.591  13.822   1.723
46807W        W10564   7.801   2.883  14.858
46808W        W10565  20.242  40.333  10.558
46809W        W10566  40.467  37.378   0.949
46810W        W10567  18.688  16.138  11.592
46811W        W10568  16.592  39.524  14.335
46812W        W10569  44.362  43.835   0.787
46813W        W10570   9.723   9.333  13.370
46814W        W10571  39.503  26.969  13.843
46815W        W10572  38.571  44.895   1.330
46816W        W10573  21.732   4.339  12.346
46817W        W10574  30.026  24.512   4.679
46818W        W10575  29.076  42.404   4.677
46819W        W10576   0.376   0.782   2.707
46820W        W10577  15.172  25.010  13.428
46821W        W10578  33.899  28.567  10.952
46822W        W10579   6.893  42.837  13.438
46823W        W10580  38.961  35.862   5.178
46824W        W10581  41.364   7.271   3.848
46825W        W10582  14.279  13.759  12.377
46826W        W10583  11.844  13.727  14.760
46827W        W10584  16.279  34.867   2.389
46828W        W10585  39.846  19.127  14.498
46829W        W10586   6.258  20.646  14.301
46830W        W10587  34.591  39.886  10.589
46831W        W10588  20.238   8.321  13.524
46832W        W10589  16.316   3.248  14.329
46833W        W10590  14.707  44.968  14.992
46834W        W10591  20.202  22.031   2.867
46835W        W10592  19.139  28.502   1.857
46836W        W10593   9.862   4.229   0.300
46837W        W10594  40.392  27.162  10.910
46838W        W10595   9.208  28.103  13.406
46839W        W10596  34.413  25.092  11.378
46840W        W10597  36.958  37.986   2.703
46841W        W10598  31.522  22.599   4.814
46842W        W10599   2.303  16.700  14.782
46843W        W10600  41.403   2.452   0.812
46844W        W10601  29.507  44.905  10.639
46845W        W10602  35.530  30.449   2.692
46846W        W10603  29.103  23.133  11.552
46847W        W10604   1.852  14.633   4.682
46848W        W10605  19.572  31.093   2.776
46849W        W10606  26.012  18.554  11.922
46850W        W10607  31.090  14.240   2.787
46851W        W10608   4.785  33.389  13.022
46852W        W10609  25.477  16.146  12.878
46853W        W10610  24.662  43.782   1.772
46854W        W10611  23.560  34.897  10.624
46855W        W10612  20.200  25.143   0.354
46856W        W10613   4.424  29.598  12.544
46857W        W10614  12.791  39.377   3.862
46858W        W10615  29.117  37.877  12.972
46859W        W10616  35.896   8.874  14.314
46860W        W10617  30.996   8.405  11.527
46861W        W10618  26.978   6.338  14.818
46862W        W10619   0.457   6.306   2.300
46863W        W10620  34.931  44.836  14.293
46864W        W10621  38.065  32.468   4.200
46865W        W10622  27.579  44.480  11.049
46866W        W10623  17.707  41.028  11.490
46867W        W10624  28.480  41.410  13.891
46868W        W10625  28.113  40.351  11.012
46869W        W10626  24.040  37.007  14.411
46870W        W10627   3.805  14.643   2.710
46871W        W10628  36.876  35.417   1.702
46872W        W10629   8.737  20.753   2.388
46873W        W10630  36.528  40.518  13.390
46874W        W10631  31.902  13.759   4.698
46875W        W10632   9.261  31.102  10.953
46876W        W10633  16.765  22.020  10.423
46877W        W10634   6.222  25.639  11.093
46878W        W10635   4.855   3.883  14.021
46879W        W10636   4.418  40.976  14.413
46880W        W10637  28.933  23.149   1.355
46881W        W10638  19.216  12.727  13.443
46882W        W10639  12.334  32.011  10.941
46883W        W10640  36.507  23.536  10.894
46884W        W10641  34.496  16.245   0.465
46885W        W10642  19.056   2.385   3.675
46886W        W10643   3.453  31.640   2.229
46887W        W10644   4.896  18.765  12.987
46888W        W10645  12.145  20.764   3.244
46889W        W10646  30.107   5.763  12.934
46890W        W10647  21.599  16.094  12.457
46891W        W10648  10.177  34.584  12.049
46892W        W10649   1.323   4.403   1.349
46893W        W10650  44.967  23.526   3.792
46894W        W10651   5.908   6.197  13.545
46895W        W10652  16.235  14.598  10.978
46896W        W10653  37.440  15.103  11.395
46897W        W10654   9.169  42.349   0.473
46898W        W10655  21.611  19.737  10.903
46899W        W10656  38.046  17.669   1.866
46900W        W10657  36.912  43.794   1.369
46901W        W10658  10.324  33.017   3.751
46902W        W10659  37.862  30.658   3.853
46903W        W10660  15.114   2.238  10.930
46904W        W10661  28.439  25.180  14.295
46905W        W10662   8.315  14.246  11.604
46906W        W10663  35.921   0.309   2.270
46907W        W10664  21.656  14.154  14.405
46908W        W10665  25.011   7.760  13.521
46909W        W10666   2.415  26.549   4.328
46910W        W10667  12.684  15.709  13.017
46911W        W10668  30.148  39.038   3.360
46912W        W10669  30.936  38.883  11.012
46913W        W10670   4.281   8.217  14.490
46914W        W10671  28.563   2.726  12.563
46915W        W10672  42.777  11.709  11.981
46916W        W10673  33.411  38.530   0.895
46917W        W10674   4.204  34.473  12.501
46918W        W10675   0.781  24.056   2.842
46919W        W10676  10.266  42.521  14.417
46920W        W10677  39.460  29.084  11.929
46921W        W10678  32.440  13.821   0.453
46922W        W10679  10.159   4.446   2.868
46923W        W10680  28.532  10.255   3.759
46924W        W10681  19.264  12.758  14.448
46925W        W10682  36.989  21.072  13.460
46926W        W10683  23.633  37.038   3.242
46927W        W10684   0.377  25.670   2.403
46928W        W10685  17.206  37.544   4.202
46929W        W10686   0.903   8.295   0.912
46930W        W10687  24.215  40.025   4.662
46931W        W10688  26.699  41.340  14.979
46932W        W10689  26.179  32.503   3.373
46933W        W10690  30.034  14.292  11.983
46934W        W10691  28.581   4.925  10.428
46935W        W10692  41.801   3.788   5.624
46936W        W10693  39.472   0.784   0.262
46937W        W10694  44.426   2.294  11.113
46938W        W10695  30.114  26.642   5.281
46939W        W10696  27.993  23.530  12.505
46940W        W10697  25.996   0.283  10.907
46941W        W10698  37.442  13.167  12.377
46942W        W10699  28.453  27.097   4.316
46943W        W10700  23.994  40.372  14.844
46944W        W10701  32.427   6.324  11.570
46945W        W10702   2.358  27.057  13.848
46946W        W10703  43.004  24.142  10.543
46947W        W10704  18.067  38.532  10.988
46948W        W10705   6.745  26.991  11.054
46949W        W10706  10.660   2.967   1.724
46950W        W10707  36.953  40.467   4.783
46951W        W10708  11.208  36.876  13.448
46952W        W10709  39.329  22.032  12.824
46953W        W10710  34.001   8.398   2.201
46954W        W10711  22.595  28.984  12.848
46955W        W10712  41.380  36.446   0.437
46956W        W10713  19.659  42.499  10.962
46957W        W10714  35.054  28.057   3.184
46958W        W10715   2.371  34.965  11.876
46959W        W10716   2.443  23.098   0.948
46960W        W10717  17.560  30.137   4.664
46961W        W10718   2.879  26.019   1.321
46962W        W10719  41.886  19.543  10.116
46963W        W10720  15.798  18.058   0.261
46964W        W10721  34.475  21.557   3.284
46965W        W10722  43.309  38.824   0.733
46966W        W10723  27.179  25.138   0.370
46967W        W10724   5.741  13.840  13.884
46968W        W10725   4.899  38.564   3.728
46969W        W10726  11.672  22.655  12.442
46970W        W10727  19.140  22.501   3.813
46971W        W10728  15.635  24.141  12.423
46972W        W10729  29.654  21.695   0.730
46973W        W10730  30.922  17.632   1.362
46974W        W10731   5.919  13.180   3.383
46975W        W10732  20.140  39.327  14.905
46976W        W10733  18.704   3.715   2.748
46977W        W10734  22.746  38.897   2.893
46978W        W10735  36.441   2.391   3.695
46979W        W10736  28.981  25.622  12.016
46980W        W10737  35.863  16.760  12.472
46981W        W10738  24.137   5.366  11.575
46982W        W10739  34.444  34.982   1.794
46983W        W10740  26.169  16.111   2.872
46984W        W10741  33.110  30.996  12.909
46985W        W10742  10.291   3.429   4.301
46986W        W10743  39.339   5.866   4.294
46987W        W10744  38.034  20.109   3.183
46988W        W10745  10.186  17.594  11.883
46989W        W10746  16.673   4.436  14.289
46990W        W10747  10.335  31.127  12.384
46991W        W10748  31.898  19.066  12.926
46992W        W10749  35.587  18.175  13.454
46993W        W10750  11.848  14.724  14.490
46994W        W10751  35.395  32.604   2.226
46995W        W10752   9.647  13.659  11.880
46996W        W10753  16.161  13.643   0.960
46997W        W10754  27.149  17.179  10.588
46998W        W10755   8.220  14.337  10.480
46999W        W10756  26.178   6.830   4.827
47000W        W10757  15.255   1.965   2.725
47001W        W10758  43.464  33.383  12.839
47002W        W10759  16.076  21.558   4.201
47003W        W10760  23.519  13.713  10.556
47004W        W10761  39.966  27.526   2.343
47005W        W10762  18.712  31.518  11.048
47006W        W10763  14.673   2.937  10.482
47007W        W10764  25.140  10.804  11.945
47008W        W10765  21.523  24.496  13.807
47009W        W10766  23.541  29.636  10.568
47010W        W10767  38.532   2.869   0.390
47011W        W10768  20.082   3.292   2.737
47012W        W10769  17.095  39.366   4.719
47013W        W10770  37.959  21.572   4.823
47014W        W10771  28.020   8.769  12.875
47015W        W10772  19.744  38.342   0.742
47016W        W10773  16.685  19.749  14.397
47017W        W10774  14.609   0.446  11.556
47018W        W10775  11.190  27.015  12.506
47019W        W10776  36.569  16.142   3.308
47020W        W10777   0.272  10.235  13.808
47021W        W10778  17.679  33.878  10.519
47022W        W10779  30.613  32.540  11.902
47023W        W10780  23.703   0.454  11.969
47024W        W10781  28.081  40.390   3.299
47025W        W10782  19.538   0.290   4.138
47026W        W10783  31.124   8.336   1.238
47027W        W10784  40.439  40.363   3.284
47028W        W10785  29.975  14.186  11.458
47029W        W10786  35.952   9.220  14.393
47030W        W10787  16.712  43.404  13.426
47031W        W10788  20.538  21.084  12.859
47032W        W10789  26.517  38.868   1.778
47033W        W10790  16.728  36.870  12.021
47034W        W10791  36.406  44.963  14.427
47035W        W10792  23.622  41.502  14.910
47036W        W10793  28.668  25.595   2.390
47037W        W10794  16.792  23.509  12.523
47038W        W10795  29.514  16.228  14.412
47039W        W10796   2.395  36.572  10.926
47040W        W10797  42.822  24.530  11.452
47041W        W10798   8.225   2.789   2.378
47042W        W10799  32.911  35.424   1.222
47043W        W10800   1.775  27.056  13.039
47044W        W10801  38.907  21.559   3.765
47045W        W10802  25.622  26.141   0.963
47046W        W10803  42.525  14.250   0.859
47047W        W10804  24.568  32.110   2.377
47048W        W10805  22.655  12.360   2.363
47049W        W10806  31.151   1.381  13.411
47050W        W10807  15.692  18.785  11.525
47051W        W10808  31.597  32.434  11.387
47052W        W10809   3.442   6.910   4.328
47053W        W10810  33.043  11.759   3.854
47054W        W10811  31.146  42.439   4.207
47055W        W10812   4.300   5.700   1.445
47056W        W10813  23.066   0.982  11.066
47057W        W10814  23.682  44.831  12.027
47058W        W10815  26.151  26.018  12.534
47059W        W10816  39.415  37.452   4.220
47060W        W10817  32.414  15.747  13.429
47061W        W10818  19.724  22.119  12.518
47062W        W10819  11.706  34.889  14.380
47063W        W10820  24.002  28.593   2.898
47064W        W10821  23.666  22.061   3.808
47065W        W10822  29.458  43.989  11.013
47066W        W10823  24.987  25.515  10.635
47067W        W10824  20.038  43.805  13.969
47068W        W10825  23.137  30.632  12.444
47069W        W10826  22.720  23.568  13.350
47070W        W10827   0.371  23.694  11.374
47071W        W10828  31.903  31.033  12.444
47072W        W10829  25.616   8.789   3.285
47073W        W10830   1.253  17.100   1.839
47074W        W10831  27.484  14.813  12.343
47075W        W10832  34.935  21.592   0.729
47076W        W10833  36.090  37.988  13.887
47077W        W10834  42.944  17.275   0.921
47078W        W10835  12.682  38.007   1.429
47079W        W10836  29.590   5.868  12.522
47080W        W10837  39.998  24.183  11.461
47081W        W10838  36.449  23.601  12.915
47082W        W10839  18.636  16.206  14.305
47083W        W10840  23.604  29.641   0.310
47084W        W10841  21.193   6.375  13.060
47085W        W10842  30.126   2.869  10.939
47086W        W10843  43.439  28.555   4.705
47087W        W10844  24.001  21.632  14.478
47088W        W10845  19.553  18.078  13.946
47089W        W10846  44.407  24.226  11.864
47090W        W10847  24.038  17.134  12.492
47091W        W10848  19.284  10.715  14.931
47092W        W10849  12.763  13.169  11.504
47093W        W10850   0.356  12.265  10.963
47094W        W10851  23.669  27.577  12.076
47095W        W10852  44.850  21.139   3.176
47096W        W10853   5.331  14.201   2.719
47097W        W10854  27.482  14.591   3.743
47098W        W10855  25.662   7.834  12.073
47099W        W10856  22.659  12.137   3.780
47100W        W10857  35.420  12.809  14.023
47101W        W10858   2.916  12.752  14.809
47102W        W10859  14.125  21.044   2.767
47103W        W10860  30.529   9.264   3.826
47104W        W10861  15.126  41.812   9.969
47105W        W10862  41.352  11.749  13.798
47106W        W10863   3.890  21.151   4.217
47107W        W10864  19.660   5.897  12.378
47108W        W10865  16.217  30.974  12.082
47109W        W10866   3.398  34.512   2.731
47110W        W10867  12.623  34.416  11.098
47111W        W10868  16.158  32.983   0.802
47112W        W10869  15.275  19.771  13.416
47113W        W10870  34.466  19.644  13.369
47114W        W10871  37.570  24.536  14.941
47115W        W10872  44.925  12.794   4.300
47116W        W10873  35.926   7.199   1.384
47117W        W10874  26.605   9.196   1.897
47118W        W10875  23.214  44.291  14.793
47119W        W10876   8.687  17.587   0.371
47120W        W10877   6.854  19.241   4.788
47121W        W10878  15.148  31.479   4.114
47122W        W10879  42.459  38.419   1.823
47123W        W10880  24.186   7.744   3.781
47124W        W10881   7.203  38.427   2.357
47125W        W10882  37.066  32.022   3.238
47126W        W10883  30.615  27.660   9.947
47127W        W10884  12.658  10.166   4.207
47128W        W10885  27.177   0.307  10.610
47129W        W10886  35.387   9.749   0.476
47130W        W10887  16.689  14.227  14.315
47131W        W10888  17.260  16.626  14.498
47132W        W10889  30.073  44.846   2.221
47133W        W10890   7.892  20.045  11.467
47134W        W10891  33.602  31.931   1.359
47135W        W10892   0.415  31.006  11.869
47136W        W10893  19.647  15.256  13.355
47137W        W10894  41.787  23.640   1.243
47138W        W10895  20.655  15.649   2.392
47139W        W10896  27.034  31.476  12.884
47140W        W10897  26.531  24.535   5.200
47141W        W10898  16.624  33.497  14.969
47142W        W10899   8.275   9.378   2.849
47143W        W10900  27.005  30.908  14.437
47144W        W10901  39.466  38.857   4.316
47145W        W10902  40.368  37.872  13.354
47146W        W10903  14.316  12.670  14.892
47147W        W10904   9.260   8.196  14.458
47148W        W10905  19.153  25.652  14.403
47149W        W10906  28.672  33.383  14.398
47150W        W10907   8.224  41.459  14.436
47151W        W10908  12.650  36.972   0.380
47152W        W10909  34.011   3.929  12.453
47153W        W10910   4.888   8.336   3.796
47154W        W10911   7.300  36.923   0.844
47155W        W10912  22.022  41.334   2.854
47156W        W10913  40.526  37.073  14.448
47157W        W10914  30.450  14.281   5.130
47158W        W10915  31.416  16.778  14.447
47159W        W10916  37.460  30.658  14.928
47160W        W10917   4.278  39.905  11.599
47161W        W10918  19.631  16.249  12.541
47162W        W10919  27.156  19.167   3.732
47163W        W10920  11.202   9.330  14.959
47164W        W10921  29.962   0.315   1.308
47165W        W10922   7.386   4.825   4.164
47166W        W10923  41.327  33.103   2.746
47167W        W10924  39.051   0.884   3.371
47168W        W10925   5.410  31.131  11.044
47169W        W10926  32.492   2.841   9.972
47170W        W10927  19.537  33.101   1.324
47171W        W10928  34.910  23.218  14.878
47172W        W10929  42.337   2.959  11.487
47173W        W10930  15.295  42.983   4.717
47174W        W10931  38.444   8.217  13.416
47175W        W10932   5.369  16.224   2.316
47176W        W10933  33.460  15.272  13.480
47177W        W10934   2.918  15.099   2.846
47178W        W10935   2.773   9.361   2.782
47179W        W10936  37.516   7.305  14.489
47180W        W10937  23.183   5.930  14.764
47181W        W10938  35.077   7.217  14.786
47182W        W10939   3.915  41.898   3.701
47183W        W10940  13.612  10.799   3.174
47184W        W10941  12.151  21.104  10.467
47185W        W10942  11.807  34.954  11.071
47186W        W10943  29.144   5.333   0.291
47187W        W10944  33.386   3.860   2.418
47188W        W10945  27.646  14.233  11.548
47189W        W10946  29.051   1.292  12.991
47190W        W10947  21.076  40.344   0.295
47191W        W10948   2.268  16.187   1.711
47192W        W10949  13.203  41.512   3.175
47193W        W10950  21.084  14.157  13.546
47194W        W10951  40.307   7.761  14.898
47195W        W10952  13.125  32.104   9.925
47196W        W10953  32.496  22.657   4.203
47197W        W10954  10.853  29.466  10.581
47198W        W10955  30.045  44.916  12.550
47199W        W10956  29.027  38.958  10.895
47200W        W10957   4.843  21.185  11.528
47201W        W10958  30.129  20.750  13.467
47202W        W10959  11.301  43.331   2.367
47203W        W10960  38.395  13.270   3.339
47204W        W10961  30.479  24.719  14.464
47205W        W10962  31.570  16.644   3.191
47206W        W10963  44.437  36.593   0.264
47207W        W10964   4.908   8.656   1.410
47208W        W10965  31.065  31.909  13.316
47209W        W10966  28.939   8.844  12.920
47210W        W10967  25.009   7.731  11.905
47211W        W10968  10.708  19.584   4.764
47212W        W10969  19.598   8.695  13.474
47213W        W10970   2.954  27.523   2.319
47214W        W10971  22.521  37.047   4.190
47215W        W10972  13.826  44.350   0.966
47216W        W10973  24.055  19.603  10.462
47217W        W10974  32.446  17.239  12.405
47218W        W10975  27.000  17.713  10.487
47219W        W10976  34.565  24.136   4.716
47220W        W10977  30.420   1.294  14.760
47221W        W10978  31.495  42.777   2.341
47222W        W10979  39.811   3.242  14.866
47223W        W10980   3.387  44.322   2.778
47224W        W10981   8.787  37.020   4.698
47225W        W10982  41.373  31.967   2.758
47226W        W10983  24.533   3.319  11.002
47227W        W10984  16.177  15.701   0.963
47228W        W10985  16.575  10.307   2.671
47229W        W10986  18.250  28.980   4.627
47230W        W10987  16.690  17.185  11.883
47231W        W10988  32.957  33.941   1.900
47232W        W10989  19.225  14.788  12.377
47233W        W10990   8.836   5.842   2.792
47234W        W10991   6.679  22.727   0.926
47235W        W10992   2.905  27.139   0.327
47236W        W10993  40.025  12.294   1.835
47237W        W10994  24.182  35.099   0.387
47238W        W10995  15.241  20.632   3.865
47239W        W10996  29.527  43.349  14.297
47240W        W10997  31.036  39.338   3.757
47241W        W10998  37.846  31.461   4.205
47242W        W10999  13.817  38.033   1.303
47243W        W11000  32.453  35.400   3.168
47244W        W11001  33.597  34.059   2.372
47245W        W11002  40.856   4.244   2.257
47246W        W11003  10.252  20.569   2.672
47247W        W11004  27.054   6.372  14.310
47248W        W11005  40.343  13.225   1.738
47249W        W11006  26.465   4.887   2.213
47250W        W11007   5.864  18.174  10.940
47251W        W11008  14.802   0.290  12.021
47252W        W11009  38.974   3.425   4.113
47253W        W11010  22.025  43.967   4.767
47254W        W11011  17.199   4.415  12.567
47255W        W11012  41.936   4.736   4.780
47256W        W11013  21.144  12.648  12.436
47257W        W11014   5.750  35.451  11.570
47258W        W11015   7.360  43.333  14.369
47259W        W11016  35.065   0.889  14.021
47260W        W11017  15.643  10.340  14.487
47261W        W11018   2.776  12.672   4.834
47262W        W11019  40.835  20.529  11.967
47263W        W11020  39.001  13.225   4.268
47264W        W11021  40.458  30.022   1.231
47265W        W11022  13.700  11.802   2.373
47266W        W11023  29.985  10.736  13.498
47267W        W11024  36.085  23.714   3.799
47268W        W11025   3.276   2.871   1.221
47269W        W11026  19.060  41.029  11.032
47270W        W11027  28.615  35.977  14.013
47271W        W11028   8.206  44.503   4.668
47272W        W11029  23.005  30.586   3.734
47273W        W11030  44.420   1.275  12.567
47274W        W11031  41.481  11.855  13.309
47275W        W11032   2.762  27.522  14.029
47276W        W11033  43.952  28.596  12.359
47277W        W11034  29.551  23.065  11.893
47278W        W11035   8.322  12.718  13.450
47279W        W11036   3.853  37.995   2.676
47280W        W11037  41.800  22.085   3.385
47281W        W11038  25.598   6.787   2.351
47282W        W11039  43.827   3.340   3.715
47283W        W11040  37.009  44.940   3.174
47284W        W11041  24.210   1.333  13.925
47285W        W11042  44.955  18.673  13.896
47286W        W11043   6.872   9.201   1.450
47287W        W11044  24.598  17.670   1.290
47288W        W11045  20.198   4.351   2.847
47289W        W11046  14.677  35.517  13.864
47290W        W11047  39.993  36.005   3.182
47291W        W11048  25.566  12.780  12.377
47292W        W11049  22.119  17.585   2.230
47293W        W11050  10.851  13.664   2.250
47294W        W11051  15.228  26.051  10.461
47295W        W11052  32.054   5.317  13.003
47296W        W11053  40.480  20.076   3.772
47297W        W11054  31.597  17.262  14.435
47298W        W11055  26.519  20.151  10.490
47299W        W11056  44.992  25.039  13.007
47300W        W11057  18.721  20.589   3.150
47301W        W11058  35.531  41.927  11.006
47302W        W11059  41.788   0.838  14.372
47303W        W11060  17.242   2.811  14.378
47304W        W11061  34.965   9.293   0.954
47305W        W11062  13.679  42.958  12.486
47306W        W11063  44.357  10.818  11.486
47307W        W11064  14.598   6.805   1.263
47308W        W11065  31.596  24.703   3.351
47309W        W11066   8.870  12.236  12.421
47310W        W11067  35.905  29.667  14.447
47311W        W11068  37.927  33.478   3.665
47312W        W11069  25.987  34.529  11.961
47313W        W11070  21.102  36.948   2.692
47314W        W11071  26.067  35.465  10.514
47315W        W11072  34.999  25.660  10.516
47316W        W11073  40.022  38.843  13.837
47317W        W11074  15.097  44.834  12.899
47318W        W11075   0.320  33.024  13.343
47319W        W11076  23.603  21.544  13.477
47320W        W11077  10.207  40.816  10.993
47321W        W11078   8.180  37.546   4.178
47322W        W11079  34.063  20.575  10.444
47323W        W11080  15.118  40.327   0.480
47324W        W11081   0.306   7.734  11.868
47325W        W11082  17.593  25.580   4.289
47326W        W11083  22.046  27.662  13.544
47327W        W11084  29.167   1.951   5.310
47328W        W11085  15.586   6.255   4.220
47329W        W11086  44.492  38.020   3.706
47330W        W11087  15.259  34.915  13.390
47331W        W11088  17.234   5.252   0.733
47332W        W11089   8.223  30.612  12.579
47333W        W11090   2.258  43.983  12.483
47334W        W11091  22.237  34.891  11.578
47335W        W11092  37.990  41.940  10.526
47336W        W11093  13.346  13.181   4.182
47337W        W11094  13.106   8.868  14.824
47338W        W11095  16.218  16.092   1.698
47339W        W11096  24.004  33.452  11.087
47340W        W11097  10.851  24.528  14.812
47341W        W11098   5.785  11.275  12.096
47342W        W11099  13.186  12.792   1.896
47343W        W11100  20.584  44.996   0.866
47344W        W11101  33.454  37.902   1.827
47345W        W11102  11.313  21.682   1.717
47346W        W11103   7.227   9.192   1.326
47347W        W11104  36.935  25.648   3.770
47348W        W11105  20.127   9.736  10.618
47349W        W11106  43.889  27.001   2.797
47350W        W11107   0.957  37.961   3.290
47351W        W11108  20.701  25.044  11.500
47352W        W11109  16.163  32.462   3.300
47353W        W11110  14.298  18.683   0.735
47354W        W11111  35.885  14.236  14.507
47355W        W11112  29.087  14.602  13.984
47356W        W11113  10.277  39.052   4.320
47357W        W11114  44.010  23.092  11.424
47358W        W11115   0.917   5.835   4.640
47359W        W11116  31.467  37.047   4.699
47360W        W11117  22.660  16.300   1.911
47361W        W11118   0.763  29.026   2.760
47362W        W11119  10.278  20.075  10.991
47363W        W11120  40.463  24.133  10.631
47364W        W11121   3.439  27.554  14.011
47365W        W11122  31.524  27.071   4.186
47366W        W11123  43.299   1.963   3.363
47367W        W11124  25.115  43.892  11.971
47368W        W11125  29.649  35.577  10.601
47369W        W11126   0.379  32.560  11.965
47370W        W11127  20.609   4.327   0.405
47371W        W11128  33.047  21.254  12.937
47372W        W11129   8.661  40.797   2.767
47373W        W11130   8.694  40.046  12.003
47374W        W11131  41.817  37.842   3.169
47375W        W11132  18.149  32.616  10.492
47376W        W11133  29.632   7.325  12.947
47377W        W11134   9.201  14.146  11.468
47378W        W11135  23.123  36.408   0.433
47379W        W11136  22.589  23.561   1.441
47380W        W11137  33.544  32.065   3.217
47381W        W11138   8.877   0.473  11.481
47382W        W11139  16.224  42.967   3.829
47383W        W11140  40.460  32.934  11.947
47384W        W11141  40.801  25.483   0.859
47385W        W11142   7.705  39.357  12.012
47386W        W11143   9.287  37.949   1.450
47387W        W11144  16.088   4.898  10.632
47388W        W11145  10.261  44.848   1.356
47389W        W11146   3.934  38.880   1.771
47390W        W11147   1.975  28.616   3.332
47391W        W11148   4.416  35.026  11.107
47392W        W11149   7.344  10.696  13.351
47393W        W11150  22.997   9.838   3.385
47394W        W11151  11.276  18.215   4.268
47395W        W11152  17.143  29.668   0.840
47396W        W11153  41.870  43.775   1.430
47397W        W11154  19.732  33.414   3.186
47398W        W11155  25.709   9.692  11.591
47399W        W11156  44.817  26.457  12.410
47400W        W11157  17.087  33.040  14.363
47401W        W11158  33.608  10.280  10.070
47402W        W11159  22.649   7.402   0.813
47403W        W11160  43.282  38.477  11.476
47404W        W11161   8.899  28.550   0.319
47405W        W11162  16.211  40.959  13.913
47406W        W11163  18.244  23.657   1.718
47407W        W11164   4.708  34.095  10.593
47408W        W11165   5.920  40.029  10.018
47409W        W11166  44.265  10.195   3.160
47410W        W11167  15.192  37.539   2.209
47411W        W11168  19.077  13.652  12.483
47412W        W11169   7.707  14.303   0.392
47413W        W11170  19.765  14.735  13.888
47414W        W11171  19.133  29.517   2.833
47415W        W11172  18.730  24.642   1.232
47416W        W11173   6.911  44.818   1.696
47417W        W11174  40.866   9.346   0.371
47418W        W11175  20.080  39.813  12.504
47419W        W11176  12.782  35.515   3.193
47420W        W11177  20.644  37.568  14.813
47421W        W11178  35.079  12.644  12.077
47422W        W11179   8.731   2.918  11.597
47423W        W11180  44.442  28.588  13.023
47424W        W11181  26.978  39.966  12.029
47425W        W11182  16.628  24.693   1.845
47426W        W11183   6.275  28.655  13.911
47427W        W11184   2.300  40.320   4.349
47428W        W11185  40.322  17.779  13.328
47429W        W11186  24.083  26.179   4.297
47430W        W11187  28.530  22.072   1.845
47431W        W11188  19.678  39.484  14.376
47432W        W11189  25.614  17.254  13.983
47433W        W11190  43.390  35.457  11.955
47434W        W11191  33.007   3.954  14.514
47435W        W11192  16.618  28.168  11.498
47436W        W11193  17.653   8.229  13.445
47437W        W11194  31.508   8.273  14.905
47438W        W11195  26.079   7.414   1.739
47439W        W11196  33.472  26.058  14.957
47440W        W11197  38.878   4.448  14.383
47441W        W11198  16.093  37.008   2.290
47442W        W11199  35.944   6.863   1.911
47443W        W11200  31.502  17.796  14.825
47444W        W11201   3.251  35.552   1.435
47445W        W11202  29.482   5.782   3.314
47446W        W11203  38.919   4.916   9.925
47447W        W11204  36.501  27.562   0.299
47448W        W11205  24.693  10.808  13.350
47449W        W11206  20.059  32.620   3.728
47450W        W11207  26.640  33.619  13.343
47451W        W11208   5.327   0.272   4.720
47452W        W11209  32.068   8.690   1.742
47453W        W11210  24.520  21.233   4.716
47454W        W11211  25.061  38.876  13.792
47455W        W11212  28.574  29.077   0.368
47456W        W11213  20.099   7.323  14.495
47457W        W11214  39.545  43.909  13.538
47458W        W11215  19.276  32.001   4.615
47459W        W11216  43.314  41.306  14.948
47460W        W11217  12.840  16.089  13.924
47461W        W11218  39.533  36.841  13.863
47462W        W11219   4.807  25.087  10.446
47463W        W11220  24.609  14.806  11.875
47464W        W11221  31.557   3.830  12.400
47465W        W11222  19.622   1.266  12.082
47466W        W11223  44.416  43.487  10.417
47467W        W11224  33.007   1.755   1.898
47468W        W11225  29.933  14.823   4.352
47469W        W11226  36.986  16.213  13.398
47470W        W11227   8.283  41.313   3.723
47471W        W11228  16.756   3.458  10.990
47472W        W11229  26.989  26.625   3.748
47473W        W11230  17.601   5.810   4.653
47474W        W11231  18.726  12.351  11.557
47475W        W11232   6.199  17.245   2.688
47476W        W11233   5.430   1.741  13.381
47477W        W11234   4.861  36.350  14.491
47478W        W11235  22.215  25.510   2.734
47479W        W11236  35.368   2.763   2.348
47480W        W11237  35.900  31.948   3.842
47481W        W11238  36.040  23.569   4.673
47482W        W11239  34.496  19.239  13.394
47483W        W11240  23.725  33.061   1.784
47484W        W11241  43.011   3.732  10.923
47485W        W11242  34.472  21.031   0.368
47486W        W11243   5.779  28.601   3.178
47487W        W11244  31.987  27.191   1.769
47488W        W11245   7.666  15.294   3.838
47489W        W11246  39.941  18.638  12.992
47490W        W11247  10.696  25.652   3.260
47491W        W11248   3.355  27.946  11.946
47492W        W11249  40.834  36.973  12.426
47493W        W11250  41.004   8.719   1.727
47494W        W11251  30.567  24.620   2.312
47495W        W11252  42.442  11.362  12.552
47496W        W11253  42.468  22.556  11.404
47497W        W11254   7.888  38.420   3.270
47498W        W11255  32.043  26.132   0.382
47499W        W11256   5.321  43.943   1.907
47500W        W11257  23.518   0.397   0.814
47501W        W11258  22.685  42.314   3.694
47502W        W11259   5.265   5.435  13.938
47503W        W11260  22.688  35.426   2.229
47504W        W11261  24.064   4.944  13.957
47505W        W11262  21.164  36.522   9.940
47506W        W11263  27.620   6.831   0.276
47507W        W11264  35.486  22.719   2.886
47508W        W11265  12.627   5.251  13.022
47509W        W11266  33.430  28.035   9.995
47510W        W11267  12.326  44.975  12.089
47511W        W11268  22.619  11.720  14.942
47512W        W11269  23.034  22.159  14.513
47513W        W11270  42.912  22.695  13.025
47514W        W11271  21.677   0.926  14.913
47515W        W11272   5.396  11.205   4.692
47516W        W11273  32.967   5.873   3.300
47517W        W11274   4.285   8.857  13.895
47518W        W11275  38.417  16.162  11.003
47519W        W11276  35.387   3.743   9.631
47520W        W11277  30.046  13.696  10.445
47521W        W11278   2.369  43.777  14.917
47522W        W11279  28.180  14.290   4.713
47523W        W11280   1.754  44.947   4.336
47524W        W11281  17.294  23.591   1.710
47525W        W11282   3.952  27.532  11.872
47526W        W11283  20.134  32.511  11.108
47527W        W11284  12.723  14.651  11.598
47528W        W11285  37.470   6.772  13.974
47529W        W11286   4.441   8.667  13.358
47530W        W11287  25.656  32.990   2.691
47531W        W11288  41.383   6.347   1.443
47532W        W11289  42.322  29.565   2.698
47533W        W11290  11.194  17.307   1.836
47534W        W11291  23.619  14.151   4.145
47535W        W11292  31.961   5.435  14.933
47536W        W11293  11.229  25.664  11.520
47537W        W11294   9.736   7.875   3.232
47538W        W11295  40.530  39.846   4.125
47539W        W11296   7.883  10.647   4.679
47540W        W11297  11.771  10.298   0.892
47541W        W11298  21.651  40.861   4.638
47542W        W11299  35.941   0.768  13.049
47543W        W11300  39.980  26.494   1.240
47544W        W11301  14.600   6.354  11.075
47545W        W11302   4.907  10.786  11.028
47546W        W11303  26.516  30.581  12.973
47547W        W11304  20.761   0.758  10.947
47548W        W11305   5.345   8.901   2.410
47549W        W11306  25.593  22.049   4.233
47550W        W11307  24.580  32.592  14.514
47551W        W11308  42.391  23.039  13.928
47552W        W11309  33.470  36.451  12.410
47553W        W11310   3.240  14.680   1.740
47554W        W11311  29.520  26.576   2.350
47555W        W11312  20.222  16.746  11.581
47556W        W11313  36.520  12.827  11.113
47557W        W11314  37.993  30.538  12.094
47558W        W11315  10.819  28.600   4.272
47559W        W11316   4.904  14.661  14.476
47560W        W11317  32.556  12.685  13.984
47561W        W11318  22.705  26.509   3.221
47562W        W11319  27.662  21.150   0.856
47563W        W11320  13.293   6.899  14.324
47564W        W11321  42.424  44.373   2.291
47565W        W11322  13.234  43.510   2.885
47566W        W11323  33.606   2.957   0.410
47567W        W11324  30.581  16.676   4.641
47568W        W11325  27.033   8.318   4.149
47569W        W11326  24.098   2.849   3.699
47570W        W11327  37.897  40.852  14.488
47571W        W11328  15.689   2.269   3.241
47572W        W11329  40.964   4.442   3.858
47573W        W11330  33.437  39.502  14.440
47574W        W11331  41.877   0.921  10.015
47575W        W11332  18.202  25.001   2.810
47576W        W11333  22.505  14.674   1.830
47577W        W11334  11.290   7.745   3.304
47578W        W11335  39.525  10.332  10.472
47579W        W11336  34.035  19.630  11.875
47580W        W11337  20.065  42.831  12.457
47581W        W11338  19.226  29.528  10.417
47582W        W11339   1.269   7.728   4.724
47583W        W11340   1.419  20.214   4.198
47584W        W11341  39.002   8.401   3.794
47585W        W11342  19.229  40.866   1.442
47586W        W11343   7.751  26.595  13.803
47587W        W11344  38.356   1.892  10.910
47588W        W11345  31.149  38.986   1.746
47589W        W11346  43.396   5.921  12.470
47590W        W11347  37.502  11.277   2.842
47591W        W11348  31.405  30.488  12.387
47592W        W11349  25.004  32.575  13.058
47593W        W11350  22.689  33.990   1.921
47594W        W11351   1.747   4.334  11.588
47595W        W11352  32.567  22.563   0.372
47596W        W11353  34.511  23.232   1.694
47597W        W11354   7.264  14.175   3.275
47598W        W11355  33.962   0.762  12.971
47599W        W11356  25.143   9.222  12.499
47600W        W11357   7.808  12.208   4.688
47601W        W11358   2.265  33.514  14.761
47602W        W11359  28.140   3.850   1.921
47603W        W11360  10.764  19.186  12.519
47604W        W11361  38.829  39.061  12.923
47605W        W11362   2.465  34.001  12.404
47606W        W11363  23.535  10.736   4.263
47607W        W11364  15.746  17.800  12.467
47608W        W11365  10.270  19.077   3.769
47609W        W11366  36.049  38.325   4.137
47610W        W11367  24.036  26.665   4.266
47611W        W11368  44.963  39.004  13.311
47612W        W11369   8.671  21.577  10.587
47613W        W11370   0.427  12.852  11.890
47614W        W11371  26.037  39.494  11.068
47615W        W11372  32.108  21.749  14.819
47616W        W11373   5.431  15.093  11.959
47617W        W11374  38.879  38.546  14.973
47618W        W11375   3.400  36.055  13.957
47619W        W11376   8.243  39.879   0.798
47620W        W11377   2.839  34.468   1.253
47621W        W11378  20.623   4.860  11.561
47622W        W11379  29.501  42.791  11.923
47623W        W11380  44.289  20.690  14.969
47624W        W11381  13.736  28.164  11.557
47625W        W11382  16.804  28.117   0.478
47626W        W11383  36.528  28.616   4.652
47627W        W11384  16.293  41.858  12.972
47628W        W11385  33.520  29.152  12.933
47629W        W11386  28.598   2.949  13.315
47630W        W11387  35.468  11.816  12.902
47631W        W11388  13.155  22.022   0.826
47632W        W11389   2.333  29.430   4.241
47633W        W11390  42.336  42.942  12.017
47634W        W11391   2.929   7.791   2.228
47635W        W11392  11.195  37.863  12.016
47636W        W11393   8.195   2.723   3.784
47637W        W11394  18.702  18.658   2.246
47638W        W11395  35.557  26.600  12.580
47639W        W11396   7.193  33.068   2.392
47640W        W11397  28.051   4.759  11.085
47641W        W11398  27.135  37.978  12.936
47642W        W11399  24.686  23.609   0.396
47643W        W11400  10.211  25.590   1.898
47644W        W11401  25.082  22.585   1.395
47645W        W11402  14.257   3.362   0.777
47646W        W11403  29.540  15.696   0.400
47647W        W11404   7.357  26.658   1.435
47648W        W11405   5.921  12.617  13.865
47649W        W11406  18.783   6.862  14.909
47650W        W11407  28.958   3.367  12.498
47651W        W11408  36.513  43.817  14.419
47652W        W11409  32.482  29.575   1.280
47653W        W11410  15.755  36.018  10.629
47654W        W11411  33.431  24.618   1.789
47655W        W11412  40.017   7.879  14.950
47656W        W11413  43.866  42.486  12.982
47657W        W11414   0.297   8.293  10.600
47658W        W11415  17.801   2.317   4.333
47659W        W11416   9.676  37.401  14.795
47660W        W11417   4.411  33.919   1.791
47661W        W11418  41.807  28.945   0.835
47662W        W11419   7.322  36.015  12.976
47663W        W11420  29.601  44.481  11.575
47664W        W11421  39.342  28.984  11.036
47665W        W11422  33.893  34.109  10.499
47666W        W11423  39.538  33.990  14.765
47667W        W11424  15.697   8.269  11.377
47668W        W11425   1.336   4.237  11.033
47669W        W11426   8.895  35.923   1.791
47670W        W11427  23.090  40.824   3.659
47671W        W11428   2.832  31.550   1.317
47672W        W11429  20.646  42.975   3.203
47673W        W11430   4.751  32.532   3.760
47674W        W11431  43.971  41.013   2.727
47675W        W11432  30.438  37.384   0.437
47676W        W11433  16.207  20.240  10.643
47677W        W11434  37.893  10.845   2.402
47678W        W11435  17.253  44.394   0.851
47679W        W11436  37.557  35.537   3.281
47680W        W11437  33.513  12.611  11.101
47681W        W11438  13.775  17.739   3.223
47682W        W11439   9.190  43.779   4.338
47683W        W11440  29.021  41.296   0.938
47684W        W11441  23.704  32.481  12.877
47685W        W11442  33.564  31.627   2.397
47686W        W11443  34.904  23.077   3.146
47687W        W11444  23.193  10.207   0.438
47688W        W11445  37.436  24.052  11.483
47689W        W11446  14.796  25.510   3.250
47690W        W11447  22.221  24.178   1.228
47691W        W11448  37.944  19.222   4.167
47692W        W11449  10.748  30.068  13.328
47693W        W11450   7.816  24.497  11.054
47694W        W11451  25.703   9.291  11.562
47695W        W11452   3.729  20.187  14.355
47696W        W11453   3.910  39.316  13.940
47697W        W11454  21.576  22.082  12.879
47698W        W11455  21.021   1.748  11.894
47699W        W11456  13.143  13.801   0.828
47700W        W11457  17.798  16.273   4.241
47701W        W11458  26.970  24.600   4.679
47702W        W11459  15.579  18.788   1.382
47703W        W11460  40.818   2.376   2.318
47704W        W11461  39.453   3.879   4.282
47705W        W11462   1.285  22.527  12.905
47706W        W11463  10.669  32.396   2.834
47707W        W11464  23.225  21.217   0.401
47708W        W11465  36.856  17.090  13.369
47709W        W11466  19.672  12.334   1.445
47710W        W11467  32.142   6.358  13.826
47711W        W11468  10.323  10.821   2.730
47712W        W11469  20.678  13.274  11.098
47713W        W11470  43.434   0.374   2.254
47714W        W11471  18.273  28.465   4.755
47715W        W11472  10.220  14.126  14.883
47716W        W11473  15.696  15.197  12.862
47717W        W11474  34.497  22.596   0.366
47718W        W11475  13.740  38.043  13.001
47719W        W11476   9.383  32.907   3.712
47720W        W11477  38.055  15.225   1.341
47721W        W11478  23.697  11.856  12.830
47722W        W11479  33.610  28.152   5.225
47723W        W11480  36.907  39.021   4.235
47724W        W11481  26.521   8.328   0.409
47725W        W11482  12.748  12.646  11.454
47726W        W11483   5.849  37.523  10.101
47727W        W11484  34.416   6.289   1.745
47728W        W11485  36.993  30.132  12.940
47729W        W11486  37.421   3.931  10.476
47730W        W11487  11.238  21.708   3.735
47731W        W11488  33.054  37.968   3.756
47732W        W11489  18.595  23.529  13.966
47733W        W11490   2.298  14.802   2.730
47734W        W11491  24.695  35.046   4.625
47735W        W11492  26.099  17.306  11.017
47736W        W11493  22.661  23.133  14.969
47737W        W11494  20.725  38.426  11.056
47738W        W11495  16.717  39.525  14.784
47739W        W11496  13.628  11.736  11.953
47740W        W11497  13.738  18.565  12.020
47741W        W11498  13.205   7.325   2.844
47742W        W11499  15.292  15.229  10.642
47743W        W11500  26.641  34.027   2.274
47744W        W11501  32.022  36.494   3.277
47745W        W11502  16.199   4.362   1.700
47746W        W11503   3.763  39.862  12.359
47747W        W11504  19.537  35.416   4.737
47748W        W11505  12.648  21.675   3.366
47749W        W11506  13.279   9.738  12.508
47750W        W11507  44.796  12.227   2.352
47751W        W11508  39.984  27.024  12.513
47752W        W11509  39.909   1.922   1.815
47753W        W11510  29.996   8.720   4.163
47754W        W11511   7.191  33.525  13.390
47755W        W11512   3.394  26.459  13.510
47756W        W11513  22.597   9.844   3.248
47757W        W11514  21.741  38.385  11.090
47758W        W11515  18.104  11.742  11.019
47759W        W11516  27.677  38.342  14.300
47760W        W11517  19.715   2.383   2.740
47761W        W11518   6.198  19.703  11.609
47762W        W11519  38.856   6.235  11.001
47763W        W11520  20.113   7.298   4.228
47764W        W11521  32.044  28.656  10.538
47765W        W11522  37.977  24.616   1.322
47766W        W11523  38.516   4.339   0.775
47767W        W11524  37.997   5.763  10.622
47768W        W11525  28.531  12.849   0.271
47769W        W11526   3.844  23.591   2.251
47770W        W11527  41.993   0.250  10.610
47771W        W11528   1.882  23.492  13.517
47772W        W11529  15.823  26.112  10.434
47773W        W11530  23.519   9.865   2.234
47774W        W11531  33.896  43.904   3.830
47775W        W11532  23.178  23.513  14.436
47776W        W11533  43.783  24.172  10.456
47777W        W11534  44.411  19.731  14.278
47778W        W11535  40.326  30.065  12.057
47779W        W11536  32.115  25.111  14.925
47780W        W11537  37.905  22.210  14.314
47781W        W11538  44.334  16.304  11.903
47782W        W11539  36.479  38.388   0.468
47783W        W11540   6.418  30.982  12.340
47784W        W11541  36.373  22.123   0.868
47785W        W11542  27.494  21.133  13.966
47786W        W11543  14.600  32.634   2.746
47787W        W11544  29.971   8.830  10.525
47788W        W11545   3.764  12.262  12.500
47789W        W11546  11.361  41.331  11.072
47790W        W11547  15.774   3.869   0.275
47791W        W11548  33.050  41.812   4.744
47792W        W11549  21.189   3.216   2.859
47793W        W11550   6.234   4.204   3.666
47794W        W11551  28.673  42.879   3.851
47795W        W11552  42.870   0.491  12.458
47796W        W11553  42.921  23.092   3.673
47797W        W11554  28.495  39.459  10.585
47798W        W11555  13.674  31.959   5.229
47799W        W11556  37.899  20.600   3.728
47800W        W11557  10.205   8.715   5.173
47801W        W11558  33.086  32.971   4.627
47802W        W11559   6.424  38.331  10.502
47803W        W11560  39.535  18.053   4.733
47804W        W11561  25.131  18.195  11.014
47805W        W11562  35.021   2.816   0.314
47806W        W11563  44.816  23.699   2.251
47807W        W11564  43.825  13.651   4.307
47808W        W11565  42.983  26.645   4.651
47809W        W11566  38.012   3.853   1.262
47810W        W11567  43.925  30.527  12.483
47811W        W11568  44.382  42.489  13.829
47812W        W11569  31.527  36.047  13.548
47813W        W11570  10.196   5.716   3.349
47814W        W11571  22.570   7.842   0.245
47815W        W11572  29.439  42.851  14.299
47816W        W11573  34.085  14.661   1.891
47817W        W11574  33.894   9.663   2.901
47818W        W11575  23.599  38.065   3.757
47819W        W11576  15.304   6.918   3.236
47820W        W11577  42.475  36.470   3.286
47821W        W11578  13.673  29.147   4.650
47822W        W11579  14.163  29.528  12.983
47823W        W11580  22.559  31.587  14.298
47824W        W11581  39.039  14.133   3.815
47825W        W11582  30.600  41.315   4.622
47826W        W11583   0.420   2.254  13.855
47827W        W11584  19.050  41.347   1.900
47828W        W11585  35.422  28.480  10.110
47829W        W11586  31.587  21.675  10.579
47830W        W11587  15.114   5.795   3.339
47831W        W11588   6.895   4.706   2.716
47832W        W11589  41.426  44.924  13.005
47833W        W11590  27.468   8.699   0.729
47834W        W11591  23.632  27.692  12.909
47835W        W11592  14.145   6.371   4.775
47836W        W11593  25.067   3.886  12.514
47837W        W11594  44.492   6.756  12.065
47838W        W11595   5.195  14.718  12.560
47839W        W11596  37.905  23.035  11.451
47840W        W11597  16.644  40.376   1.249
47841W        W11598   9.739  38.485   3.351
47842W        W11599  36.468  33.034   1.411
47843W        W11600  20.636  39.949  12.922
47844W        W11601  32.916  16.105   2.855
47845W        W11602  29.438  34.432  13.386
47846W        W11603  42.803  27.575  11.949
47847W        W11604   8.319   0.856   2.221
47848W        W11605  45.000  22.605   0.433
47849W        W11606  24.205   4.274  11.419
47850W        W11607  31.641  10.671   3.762
47851W        W11608   4.762  33.442  10.915
47852W        W11609  35.030  24.033   4.133
47853W        W11610  36.558  30.046   1.860
47854W        W11611  22.019  16.618  11.392
47855W        W11612  29.498  44.764  14.304
47856W        W11613   2.461  10.287   1.710
47857W        W11614   9.186  21.626   2.315
47858W        W11615  19.247  11.190  12.434
47859W        W11616  28.113  38.064   4.833
47860W        W11617  23.040  42.796  12.433
47861W        W11618   6.915  30.630  12.442
47862W        W11619   6.282   3.377   1.803
47863W        W11620  30.621  29.492  10.508
47864W        W11621  25.620  26.538  13.358
47865W        W11622  18.216  26.138   3.364
47866W        W11623  27.169   7.874   0.736
47867W        W11624  34.611  30.553  11.125
47868W        W11625  40.330  32.457   3.316
47869W        W11626   5.369  29.660   0.893
47870W        W11627   5.764  36.367   0.927
47871W        W11628   4.313   1.896  13.458
47872W        W11629  32.413  32.926  10.529
47873W        W11630  40.896  37.549   2.663
47874W        W11631  31.541   0.263   1.288
47875W        W11632  41.307  14.339   3.752
47876W        W11633   2.792   1.751  13.859
47877W        W11634   6.895   1.775  11.025
47878W        W11635  26.471   3.943   0.910
47879W        W11636  17.674  28.574   0.356
47880W        W11637  30.100  37.862  12.862
47881W        W11638  35.450  22.080   0.329
47882W        W11639  27.953  14.168   5.591
47883W        W11640  41.033  11.352   0.841
47884W        W11641  43.873   2.769  10.560
47885W        W11642  33.999  43.840   1.326
47886W        W11643  26.025  18.059  14.502
47887W        W11644   9.204  31.112  11.537
47888W        W11645  22.158  18.756   0.248
47889W        W11646  34.582   0.479  10.410
47890W        W11647   3.270   3.759  12.400
47891W        W11648  38.374   7.322  10.445
47892W        W11649  33.910   1.278  13.468
47893W        W11650   5.337   7.333   0.790
47894W        W11651  29.045  44.493  14.954
47895W        W11652  26.478  33.552   4.189
47896W        W11653   9.149   3.445   3.313
47897W        W11654  17.142  37.368   0.433
47898W        W11655  12.187   9.303   4.826
47899W        W11656  25.599  10.248   1.922
47900W        W11657  18.136  42.401   0.355
47901W        W11658  42.904  35.362  12.022
47902W        W11659   9.198  22.049   1.815
47903W        W11660  18.564  16.708   3.724
47904W        W11661  38.331  21.672   1.392
47905W        W11662  21.061   3.245   4.833
47906W        W11663  33.944  15.714  12.841
47907W        W11664  25.688  28.575  12.434
47908W        W11665  37.520  14.807   3.158
47909W        W11666  30.023  31.624   1.391
47910W        W11667  31.104  28.130  14.463
47911W        W11668  37.885   6.719  14.786
47912W        W11669  35.436   0.300  13.840
47913W        W11670   1.951  14.623   3.160
47914W        W11671  32.516  24.060   1.407
47915W        W11672   5.754  29.053   2.338
47916W        W11673  30.658  10.836   2.853
47917W        W11674  35.887  23.119  11.949
47918W        W11675  19.578  37.049  14.358
47919W        W11676  42.800   0.442  11.479
47920W        W11677  30.604  22.250  13.873
47921W        W11678  19.765  27.451  10.608
47922W        W11679   0.871  26.581   4.608
47923W        W11680  14.229  23.576   0.407
47924W        W11681  35.867  20.033  14.806
47925W        W11682  44.814  23.535  12.969
47926W        W11683  11.768  38.357  14.330
47927W        W11684  41.999   2.831  12.880
47928W        W11685   3.849  18.114   1.347
47929W        W11686  37.916  39.379   1.217
47930W        W11687  24.022  23.542  12.398
47931W        W11688  19.556   0.950   4.698
47932W        W11689  33.462  12.251   0.846
47933W        W11690  35.466   1.340   2.795
47934W        W11691  43.296  40.032   3.690
47935W        W11692  11.264  14.770   2.392
47936W        W11693  27.104   7.209  14.850
47937W        W11694  19.137  33.520  10.500
47938W        W11695  44.889  43.500   2.769
47939W        W11696  14.190   2.332  11.917
47940W        W11697   4.887  21.086   2.672
47941W        W11698  32.543  15.252   4.624
47942W        W11699  20.197  11.666   3.658
47943W        W11700   8.697  40.001  13.982
47944W        W11701  10.359   0.909   3.814
47945W        W11702   0.326  21.062   1.337
47946W        W11703  18.634  23.650   3.152
47947W        W11704  11.236  23.704   4.229
47948W        W11705  23.193  33.589   1.820
47949W        W11706  15.214  15.593  12.918
47950W        W11707  31.128  40.415   0.901
47951W        W11708  15.763   0.746   4.250
47952W        W11709  30.595   8.779  14.827
47953W        W11710  29.101   2.870   3.238
47954W        W11711  28.956  28.179  13.010
47955W        W11712  14.285  42.842  10.439
47956W        W11713  37.368  17.141   2.715
47957W        W11714  43.427  21.032   3.717
47958W        W11715  15.262  16.760   3.341
47959W        W11716  44.795  30.002  12.016
47960W        W11717  24.178  29.107   2.186
47961W        W11718  27.637  37.537   1.417
47962W        W11719  19.086  36.473   1.214
47963W        W11720  23.229  19.653  12.036
47964W        W11721  32.508  17.745  13.402
47965W        W11722  28.972   4.771  11.543
47966W        W11723  21.250  36.433  14.294
47967W        W11724  18.712  23.608   1.926
47968W        W11725  15.701  21.111   4.350
47969W        W11726  19.176  34.513   1.878
47970W        W11727  17.204  35.889   2.188
47971W        W11728   0.840  39.412  14.495
47972W        W11729  37.379  12.180   0.933
47973W        W11730  15.210  39.433  10.566
47974W        W11731  24.113   7.176  14.507
47975W        W11732  30.420  26.510  14.275
47976W        W11733  36.081  33.424  13.457
47977W        W11734  43.937  44.307  12.567
47978W        W11735  41.933  25.995   3.792
47979W        W11736  11.776  43.452  11.940
47980W        W11737  10.654  31.981   5.274
47981W        W11738  30.626  24.493  11.581
47982W        W11739  38.491  30.118  10.944
47983W        W11740  39.431  11.218   4.160
47984W        W11741  44.806  33.495   0.291
47985W        W11742   9.290   2.858  12.981
47986W        W11743  42.431  31.600  12.033
47987W        W11744  36.074  38.394   1.728
47988W        W11745   1.911   9.857  12.539
47989W        W11746   2.890  36.079   4.334
47990W        W11747  29.006  42.394  11.520
47991W        W11748  19.558  35.472   0.868
47992W        W11749  39.810  31.091   4.271
47993W        W11750  22.693  27.044  10.906
47994W        W11751  23.579  40.995   1.754
47995W        W11752  11.177  37.488  12.902
47996W        W11753  27.053   5.255   4.674
47997W        W11754  28.479   4.391  13.054
47998W        W11755  36.467  19.272  14.446
47999W        W11756  22.137  13.784  13.030
48000W        W11757  41.453  37.427   1.813
48001W        W11758  30.622   4.943  12.070
48002W        W11759   1.812  21.543  11.954
48003W        W11760  18.602   7.238   4.279
48004W        W11761  32.139  18.736   1.266
48005W        W11762  10.187  22.199  11.099
48006W        W11763  29.457  40.465  12.006
48007W        W11764   7.200  15.636   5.127
48008W        W11765  13.702   0.899  11.045
48009W        W11766   0.354   8.347  11.987
48010W        W11767  34.387  27.602  12.396
48011W        W11768  24.146  31.013  10.614
48012W        W11769  39.013   0.283   2.709
48013W        W11770   5.790  28.158  13.837
48014W        W11771  24.555   3.809  13.880
48015W        W11772  17.608  34.445   0.918
48016W        W11773  15.128   0.900   1.873
48017W        W11774  37.434   6.791   4.661
48018W        W11775  14.735  23.678  12.455
48019W        W11776  20.709  32.142  10.634
48020W        W11777  22.588  43.993  11.515
48021W        W11778  39.498  11.348   0.879
48022W        W11779  44.339  30.018  14.360
48023W        W11780   0.250  32.575   4.164
48024W        W11781  15.685  36.006  10.115
48025W        W11782  25.506   1.255  14.949
48026W        W11783   5.279   7.747  13.918
48027W        W11784   7.759  19.720   0.882
48028W        W11785  20.094   4.916  13.420
48029W        W11786  23.706   2.295  12.410
48030W        W11787   7.866  25.963   3.836
48031W        W11788   4.795   0.894  14.810
48032W        W11789  12.258  23.596   1.271
48033W        W11790  37.920  17.273  13.031
48034W        W11791  31.449   7.321   4.344
48035W        W11792   7.777  41.423   2.399
48036W        W11793  37.437  38.897  11.432
48037W        W11794  44.991  16.683   4.682
48038W        W11795  10.750  30.071  11.512
48039W        W11796  36.888  15.147   4.619
48040W        W11797  15.111  11.736   3.845
48041W        W11798   7.669  15.268  12.557
48042W        W11799  11.213  20.244  14.353
48043W        W11800  31.552  14.656  11.873
48044W        W11801  29.958  15.085  14.970
48045W        W11802  12.352  23.578  13.457
48046W        W11803  23.701  28.598   2.774
48047W        W11804  34.048  18.207   1.697
48048W        W11805  20.748   4.422   1.746
48049W        W11806  32.957  36.989  11.046
48050W        W11807  17.560  36.392  10.968
48051W        W11808  20.741  20.677   1.410
48052W        W11809  12.246  17.103  14.824
48053W        W11810  14.307  28.641  14.003
48054W        W11811   7.223  28.028   2.803
48055W        W11812  13.177  42.953   1.383
48056W        W11813  25.081   7.762   0.313
48057W        W11814   9.277  38.001  14.400
48058W        W11815  36.522   1.751  10.938
48059W        W11816  33.934   2.332  10.527
48060W        W11817   5.384   0.814  13.389
48061W        W11818  41.325  30.064   1.447
48062W        W11819  29.025  17.074   5.667
48063W        W11820  33.588   8.857   4.698
48064W        W11821  14.687  38.046   3.276
48065W        W11822  40.928  25.993   0.746
48066W        W11823  28.538  44.821  10.581
48067W        W11824  22.076  20.220  14.399
48068W        W11825  42.402   3.780   4.599
48069W        W11826  28.969  21.582   0.474
48070W        W11827  31.615  13.164  12.948
48071W        W11828   1.241  26.994  13.460
48072W        W11829  35.600  34.480  12.001
48073W        W11830   8.396  25.620  13.408
48074W        W11831  32.439  19.041   2.331
48075W        W11832   6.200   7.293   2.727
48076W        W11833  19.267  29.166   0.933
48077W        W11834  34.016  32.901  11.045
48078W        W11835   1.450  44.360  14.024
48079W        W11836  25.058  37.906  10.409
48080W        W11837  26.114  22.177  14.003
48081W        W11838   2.724  21.232  11.091
48082W        W11839   9.661   4.328  13.311
48083W        W11840  18.237   5.426  11.597
48084W        W11841  34.574  25.607   2.389
48085W        W11842   8.291  41.040  14.949
48086W        W11843  42.940  14.815  11.394
48087W        W11844  41.535  24.695   4.831
48088W        W11845  31.898  32.626  13.390
48089W        W11846  11.335  24.062  14.301
48090W        W11847  19.060  42.339  11.535
48091W        W11848  34.015  42.422   2.341
48092W        W11849  11.333  36.520   2.386
48093W        W11850  34.915  30.939  13.885
48094W        W11851   7.382  40.924  14.415
48095W        W11852  18.758  25.528   0.482
48096W        W11853  18.628   7.285   1.822
48097W        W11854  23.082  38.924   1.746
48098W        W11855   9.779  36.368  11.060
48099W        W11856  17.606   9.323  11.097
48100W        W11857  23.522   1.856  12.513
48101W        W11858  39.513  39.929   4.299
48102W        W11859  37.892  32.100  12.383
48103W        W11860  23.512  34.877  14.515
48104W        W11861  31.928  27.980  12.912
48105W        W11862   7.848   2.279  13.038
48106W        W11863  31.125  42.370   0.272
48107W        W11864  36.524  44.500  12.083
48108W        W11865   3.862  39.957  13.025
48109W        W11866  38.959   5.255   3.647
48110W        W11867   4.431  12.636   3.837
48111W        W11868  20.630   5.847   1.242
48112W        W11869  21.629  32.577  11.882
48113W        W11870  35.854  36.934  11.893
48114W        W11871  36.512  19.730  11.896
48115W        W11872  10.751  40.830   4.781
48116W        W11873  31.039   7.707   1.316
48117W        W11874  44.914  41.928  12.906
48118W        W11875   1.822  31.088   0.368
48119W        W11876  37.896  29.007   3.826
48120W        W11877  39.882  20.058   4.299
48121W        W11878   8.281  39.855  11.421
48122W        W11879  32.630   7.888  10.996
48123W        W11880  42.288  17.140   0.876
48124W        W11881   1.427   8.844  13.949
48125W        W11882  36.901  37.965  12.437
48126W        W11883  17.662  32.923  11.487
48127W        W11884  22.206  42.343   1.293
48128W        W11885   4.309  37.357  12.351
48129W        W11886  23.525   7.251   4.832
48130W        W11887  34.868  20.727  13.319
48131W        W11888  24.160  15.204   2.886
48132W        W11889  36.564  25.712   0.453
48133W        W11890  28.065  13.160  11.004
48134W        W11891  32.971  44.296  10.958
48135W        W11892  42.527  42.353  11.039
48136W        W11893  38.436   2.444   5.125
48137W        W11894  27.641  23.045   0.444
48138W        W11895   5.234  36.512   0.744
48139W        W11896  41.038  39.316  12.943
48140W        W11897  16.239  39.409  11.057
48141W        W11898  10.337  14.224   3.841
48142W        W11899  15.230  10.358  13.924
48143W        W11900  20.201  28.956   3.290
48144W        W11901   1.302   3.905   4.121
48145W        W11902   4.746  35.513   4.283
48146W        W11903  17.594  38.502  10.481
48147W        W11904  36.087  28.060  11.380
48148W        W11905  11.309   9.878  14.286
48149W        W11906  25.524   0.764  10.041
48150W        W11907  28.011  23.516   4.328
48151W        W11908  43.400  14.641  14.815
48152W        W11909  41.960  18.263  13.848
48153W        W11910   3.377   0.837  14.399
48154W        W11911  19.707  43.797   4.701
48155W        W11912  19.557  30.058   1.800
48156W        W11913  30.107  20.244  11.481
48157W        W11914  36.536  22.732  11.421
48158W        W11915  15.249  27.482   4.705
48159W        W11916  33.626  43.343  14.999
48160W        W11917  31.491  38.403  12.878
48161W        W11918  26.193  42.820   0.787
48162W        W11919  31.576  21.172   1.729
48163W        W11920  29.174  31.516  12.369
48164W        W11921   4.826  42.321  14.769
48165W        W11922  20.162  32.127  13.984
48166W        W11923  17.571  38.944  14.359
48167W        W11924  10.312  21.583   2.279
48168W        W11925  44.884  26.606   1.907
48169W        W11926   5.934   3.278   3.175
48170W        W11927   8.196   3.224   2.279
48171W        W11928  22.677  22.132   2.399
48172W        W11929   8.720  36.880   2.716
48173W        W11930   5.784  32.078   5.274
48174W        W11931  41.822  31.502  12.356
48175W        W11932  28.681  25.982   1.308
48176W        W11933  39.928  13.111   3.325
48177W        W11934   0.836  14.619   2.338
48178W        W11935  44.941  32.099   0.370
48179W        W11936  17.721  21.110  12.094
48180W        W11937  12.661  12.328   4.757
48181W        W11938  17.175   1.478  12.864
48182W        W11939  12.349   7.910   0.299
48183W        W11940  28.084  21.671  12.971
48184W        W11941  34.433  29.928  13.820
48185W        W11942  38.840  29.614  10.490
48186W        W11943  31.126   2.871   0.351
48187W        W11944  44.929  40.549  13.499
48188W        W11945  38.536  22.010   4.288
48189W        W11946  12.769   0.767   0.796
48190W        W11947  13.619  10.803  14.428
48191W        W11948   4.205   2.848   0.468
48192W        W11949  15.179   1.380   0.260
48193W        W11950  13.318   3.758   4.624
48194W        W11951  35.912  12.676   0.283
48195W        W11952  42.886  28.464  13.795
48196W        W11953  12.683  24.622  12.028
48197W        W11954  20.150   5.212  10.579
48198W        W11955  21.021  27.197   3.658
48199W        W11956  32.920  28.009  13.387
48200W        W11957  38.928   4.774   2.377
48201W        W11958  35.993  15.607   2.669
48202W        W11959  41.391  21.084   1.874
48203W        W11960   4.403   8.214  13.002
48204W        W11961  31.124  34.016   3.270
48205W        W11962  10.791   2.292   4.224
48206W        W11963  17.296  15.593  11.466
48207W        W11964  14.693   6.683   4.612
48208W        W11965  16.099  39.924   1.333
48209W        W11966   7.227  23.667   1.364
48210W        W11967  16.197  11.183  11.066
48211W        W11968  11.334  19.611   4.129
48212W        W11969  21.105  41.327   0.310
48213W        W11970  20.260  21.751  13.407
48214W        W11971  15.105  17.214  11.013
48215W        W11972  40.323  21.049   5.195
48216W        W11973  13.659   2.933   1.815
48217W        W11974   9.851  21.704  11.970
48218W        W11975  10.655   5.220   1.759
48219W        W11976  29.156  27.571   4.641
48220W        W11977  31.518  21.169  12.897
48221W        W11978  14.771  16.249   3.728
48222W        W11979  40.876  29.937  14.024
48223W        W11980  36.992  42.356   0.752
48224W        W11981  22.523  40.962  14.794
48225W        W11982  23.674  11.693  13.926
48226W        W11983  22.178   8.769   5.311
48227W        W11984  19.722  41.488  13.962
48228W        W11985  19.110  32.007   2.807
48229W        W11986  23.115   0.802  13.062
48230W        W11987  43.410  14.265   0.911
48231W        W11988  24.185  29.495   1.366
48232W        W11989  33.524  19.161  12.942
48233W        W11990  16.141  14.793   4.719
48234W        W11991  21.103   7.418   5.297
48235W        W11992  14.120   0.761  14.472
48236W        W11993  32.925  38.993   0.889
48237W        W11994  31.423  32.627   0.841
48238W        W11995  29.156  15.160   3.318
48239W        W11996  44.345  21.180   4.658
48240W        W11997  40.528  37.853  11.005
48241W        W11998  27.961  32.552   3.252
48242W        W11999   9.683   2.416  10.532
48243W        W12000  41.834  38.485  13.984
48244W        W12001  38.391  43.814  12.398
48245W        W12002   4.921   6.710   3.845
48246W        W12003  43.962  11.338  12.458
48247W        W12004   4.706  24.583  11.954
48248W        W12005  38.962  41.491   3.290
48249W        W12006  37.974   1.439   4.705
48250W        W12007   7.402  32.038  12.346
48251W        W12008  13.810  42.475  14.296
48252W        W12009   5.846  29.924   4.702
48253W        W12010  44.838  31.578   0.276
48254W        W12011  37.931  12.613  14.508
48255W        W12012  30.416  27.102   1.709
48256W        W12013   3.444  11.715  14.805
48257W        W12014  38.504  38.997   4.232
48258W        W12015   5.764   7.832   1.862
48259W        W12016  30.942  11.206   2.283
48260W        W12017  30.148  24.603   3.326
48261W        W12018  38.847  38.955   3.719
48262W        W12019  31.111  33.013   1.917
48263W        W12020  19.056  42.993   0.411
48264W        W12021  37.852  29.041  11.476
48265W        W12022   5.385   8.341  12.426
48266W        W12023   4.442  25.185   3.764
48267W        W12024  10.819  11.188   0.313
48268W        W12025   6.686  44.452   4.736
48269W        W12026  43.829  34.492   3.678
48270W        W12027   9.324  15.797   4.673
48271W        W12028  22.223  18.747   3.780
48272W        W12029   2.269   7.307   4.308
48273W        W12030  18.238  11.773  11.981
48274W        W12031  12.217  36.884  11.503
48275W        W12032  22.639  39.891  13.487
48276W        W12033  24.553  32.054   3.680
48277W        W12034  28.458  33.903   2.771
48278W        W12035   8.369  32.000  14.006
48279W        W12036  25.182  39.846   1.874
48280W        W12037  27.493  32.603  10.983
48281W        W12038  32.973  24.719   2.803
48282W        W12039  13.325  38.060  11.945
48283W        W12040  25.498  34.514   0.476
48284W        W12041  13.286  16.186   1.441
48285W        W12042  24.209  23.204   2.383
48286W        W12043  12.709  29.609   3.737
48287W        W12044  30.549  41.400  12.484
48288W        W12045  27.172  34.483   2.194
48289W        W12046   9.692  43.462   0.947
48290W        W12047   4.930  39.469  12.857
48291W        W12048   5.750  44.415  12.373
48292W        W12049  31.952   2.446   2.789
48293W        W12050   6.764  42.527   1.810
48294W        W12051   6.855  42.920   5.612
48295W        W12052   8.300  25.008  12.944
48296W        W12053  35.054  38.925  11.033
48297W        W12054   0.291   5.866  13.408
48298W        W12055  14.299  42.790  13.801
48299W        W12056  32.104   2.450   5.226
48300W        W12057  28.125  24.195  11.011
48301W        W12058  29.432  11.637  14.469
48302W        W12059  10.673  17.606  12.385
48303W        W12060  31.988   5.339   0.958
48304W        W12061  42.297  40.436   4.185
48305W        W12062  32.477   6.289   1.224
48306W        W12063  14.593  26.467   3.642
48307W        W12064   0.786  15.202   3.785
48308W        W12065  23.507  38.903   1.888
48309W        W12066   3.231  39.915  13.800
48310W        W12067  29.143  25.583   2.248
48311W        W12068   4.326   9.320   2.187
48312W        W12069  16.268  25.185  11.567
48313W        W12070  19.684  42.928   1.904
48314W        W12071   6.301  25.046   3.846
48315W        W12072  21.122   6.803  12.423
48316W        W12073  34.922  24.485  10.958
48317W        W12074  14.818  33.916   2.662
48318W        W12075  23.131  26.637  11.122
48319W        W12076  11.344  17.274   0.843
48320W        W12077  37.842  35.373  11.912
48321W        W12078   6.882  36.415   1.782
48322W        W12079  14.173   0.779   2.903
48323W        W12080  32.552  35.360   3.860
48324W        W12081  13.265  31.443   2.672
48325W        W12082   0.252  41.910   3.213
48326W        W12083  43.955  24.187  10.972
48327W        W12084  38.965   1.303  14.869
48328W        W12085  28.127   3.363  14.381
48329W        W12086  16.200  11.308   0.383
48330W        W12087  30.114   6.921  10.449
48331W        W12088  13.170  34.927  10.479
48332W        W12089  41.456  23.189   2.690
48333W        W12090  15.104  32.054   4.265
48334W        W12091  29.058   5.787   1.752
48335W        W12092  30.933  17.115  13.339
48336W        W12093   3.945   0.835   0.816
48337W        W12094  25.168  16.713  14.786
48338W        W12095  44.768  17.286   3.180
48339W        W12096   9.675  33.565  11.378
48340W        W12097  42.823  43.383   4.769
48341W        W12098  33.942  35.085   3.794
48342W        W12099  35.551  21.038  10.958
48343W        W12100   6.261  29.059  10.971
48344W        W12101  34.993  20.031  14.472
48345W        W12102  35.492  28.617  11.520
48346W        W12103  24.101   3.745   2.698
48347W        W12104  18.764  44.317   0.302
48348W        W12105   2.301  34.387  10.976
48349W        W12106  10.715  20.065  14.797
48350W        W12107  26.667  34.455  14.329
48351W        W12108  35.950  18.106   3.341
48352W        W12109  21.215   7.387   4.629
48353W        W12110  42.966   3.829  11.421
48354W        W12111  10.333  11.322   3.205
48355W        W12112  20.131   3.385   1.337
48356W        W12113  19.534   7.345  12.955
48357W        W12114  44.955   4.302  14.433
48358W        W12115  34.610  17.214  13.878
48359W        W12116  36.964  27.546  14.025
48360W        W12117   7.412  15.595  11.885
48361W        W12118   3.335  42.402   2.226
48362W        W12119  41.938  39.492  12.048
48363W        W12120  21.707  22.644   2.701
48364W        W12121  32.971  39.373  12.580
48365W        W12122  42.437  32.426   2.742
48366W        W12123  35.471  16.599   2.260
48367W        W12124  43.780  30.124  13.792
48368W        W12125  13.619   4.902   2.198
48369W        W12126  17.091  28.534   3.764
48370W        W12127  11.259  23.636   0.812
48371W        W12128  24.670   6.191   4.670
48372W        W12129  38.331  21.171  13.861
48373W        W12130   0.289  15.686   1.212
48374W        W12131  19.779   7.280  10.455
48375W        W12132  21.527  38.902  11.526
48376W        W12133  10.171  40.316  12.965
48377W        W12134  11.669  16.118   5.309
48378W        W12135   8.842  19.777  14.448
48379W        W12136  12.613  16.095   0.392
48380W        W12137  15.322  15.699   3.376
48381W        W12138  31.579  19.162   0.369
48382W        W12139  21.035  14.674   0.908
48383W        W12140  39.967  18.104   3.793
48384W        W12141  16.664  12.673  12.948
48385W        W12142  21.554  23.515   1.338
48386W        W12143  15.281   1.877   0.815
48387W        W12144  22.048  39.835  11.873
48388W        W12145  35.930   7.768  10.891
48389W        W12146  35.414  32.896   2.207
48390W        W12147  31.914  28.567   2.720
48391W        W12148  28.139  40.990  11.883
48392W        W12149  13.713  31.540   4.610
48393W        W12150  19.665  22.081   3.821
48394W        W12151   3.296  21.725   4.757
48395W        W12152  17.650  38.005   2.798
48396W        W12153  41.401   9.211   4.676
48397W        W12154  20.601  39.882   3.820
48398W        W12155  29.134   1.758   3.373
48399W        W12156   0.276  28.080  14.326
48400W        W12157  34.601  10.865   1.719
48401W        W12158  14.173  30.918   4.733
48402W        W12159  15.754  33.409   2.195
48403W        W12160  35.501   3.752   0.441
48404W        W12161  30.516   6.770  14.888
48405W        W12162   1.429  26.484   3.165
48406W        W12163  19.111  18.760   1.824
48407W        W12164  19.557  40.022  12.009
48408W        W12165  20.680  33.572  10.426
48409W        W12166   4.369  44.380  12.878
48410W        W12167  36.005  37.376  12.457
48411W        W12168  31.493  13.266   3.380
48412W        W12169  35.073  14.226  11.859
48413W        W12170   7.253  23.732  12.378
48414W        W12171  36.401   3.722   2.756
48415W        W12172  38.070   2.871   4.125
48416W        W12173  35.934  16.300   3.856
48417W        W12174  27.650  30.998  12.832
48418W        W12175  42.905  38.832   2.282
48419W        W12176   3.783   7.875  11.575
48420W        W12177  38.422   8.878   4.195
48421W        W12178   0.880  44.785  11.915
48422W        W12179  27.171  42.408   1.741
48423W        W12180  11.286  12.717  14.435
48424W        W12181  42.911  19.106  14.022
48425W        W12182  24.587   7.701   2.314
48426W        W12183  37.535  41.981  10.613
48427W        W12184  10.313  31.586   1.813
48428W        W12185  14.825  30.537  13.978
48429W        W12186  32.486  24.999   3.380
48430W        W12187   1.889  37.937   0.291
48431W        W12188  28.435  35.961  11.006
48432W        W12189   4.748  41.349  13.049
48433W        W12190  41.359   5.782   2.864
48434W        W12191  18.551   8.333   2.662
48435W        W12192  10.277  15.702   1.818
48436W        W12193   9.758   7.366   4.651
48437W        W12194  36.361  36.985  11.504
48438W        W12195  35.914  44.406   2.761
48439W        W12196  25.189   1.959  14.854
48440W        W12197  10.823  10.319   1.290
48441W        W12198  29.958  27.057  14.935
48442W        W12199  42.781  43.331   3.213
48443W        W12200  28.102   1.960  12.909
48444W        W12201  19.718  19.161  14.025
48445W        W12202  16.772  44.792  10.603
48446W        W12203  11.354  15.617   1.440
48447W        W12204  30.952   0.806  13.830
48448W        W12205  11.818  16.653  13.850
48449W        W12206  42.399  17.209  10.450
48450W        W12207  22.666  13.211   3.260
48451W        W12208  40.339  44.001   1.836
48452W        W12209  29.010  21.620  10.645
48453W        W12210  27.540  32.054   2.872
48454W        W12211  39.850   3.291  10.533
48455W        W12212   0.989  16.575  10.967
48456W        W12213  17.089  39.350  13.547
48457W        W12214  22.032  34.461  14.309
48458W        W12215  37.964  26.159   4.776
48459W        W12216   0.939  31.605  13.030
48460W        W12217  32.578  27.473  11.936
48461W        W12218  40.006  14.325   0.331
48462W        W12219   1.899  22.581   4.198
48463W        W12220  14.168   0.450  11.112
48464W        W12221  26.505   1.812  11.610
48465W        W12222  38.924   0.426  14.355
48466W        W12223   6.395  31.413  13.815
48467W        W12224  31.581  39.926  11.393
48468W        W12225  38.335  43.298   1.434
48469W        W12226  13.327  37.034   1.438
48470W        W12227   0.959  43.789  11.384
48471W        W12228  31.081  27.081  11.417
48472W        W12229  19.183  39.874   2.284
48473W        W12230  38.466  26.142  14.285
48474W        W12231  11.844  37.868  11.060
48475W        W12232  43.881  34.091  14.826
48476W        W12233  21.036  19.133   4.262
48477W        W12234  15.121   1.745   9.546
48478W        W12235   4.864  30.010   0.897
48479W        W12236  40.387  18.602  11.936
48480W        W12237  10.792  29.072  14.854
48481W        W12238  10.676   4.804  12.499
48482W        W12239  34.013  23.091   1.732
48483W        W12240  34.976  15.604   0.256
48484W        W12241   2.776  13.709  13.327
48485W        W12242   9.875  34.092   3.350
48486W        W12243   0.843   0.944   2.320
48487W        W12244  12.705  32.019   3.262
48488W        W12245  10.208  43.497   4.687
48489W        W12246   0.904  31.966   3.198
48490W        W12247   8.687   2.727  10.520
48491W        W12248   3.749  35.922  11.554
48492W        W12249   3.247  23.197   4.829
48493W        W12250  42.910   1.290   0.756
48494W        W12251  40.050  24.099  11.864
48495W        W12252  35.888   3.313   0.893
48496W        W12253   4.218  15.806   2.698
48497W        W12254  12.707  43.817  11.559
48498W        W12255  11.663  44.005  12.483
48499W        W12256  43.876  18.185   3.795
48500W        W12257   9.203   3.392  14.285
48501W        W12258  28.650   5.351   9.557
48502W        W12259  31.907  26.141  13.848
48503W        W12260  41.860  43.934  14.002
48504W        W12261  13.216  18.663   1.822
48505W        W12262  38.877  32.066  14.962
48506W        W12263  33.614  36.546   2.222
48507W        W12264  22.016  24.542  13.969
48508W        W12265  43.349  28.106   0.913
48509W        W12266  17.209  27.110  14.808
48510W        W12267  26.613  25.043  12.966
48511W        W12268   0.984  13.266  10.062
48512W        W12269  32.416   0.758   0.938
48513W        W12270  17.209  28.186  10.888
48514W        W12271   1.441  29.558  14.425
48515W        W12272  32.471   9.268   4.800
48516W        W12273   4.205   5.315  11.037
48517W        W12274   2.284  36.461  11.432
48518W        W12275  26.178  34.052  12.492
48519W        W12276  35.924   6.844   4.751
48520W        W12277  43.469   0.264  14.933
48521W        W12278  36.455  40.423  10.468
48522W        W12279  19.572  23.007  14.797
48523W        W12280  16.581  10.770  11.011
48524W        W12281   5.222  35.400  14.854
48525W        W12282  11.621  23.556  11.039
48526W        W12283  27.676  27.192   1.439
48527W        W12284  19.681  11.228  14.846
48528W        W12285  20.201   3.955  11.426
48529W        W12286  17.558  37.378   2.398
48530W        W12287   7.252   8.727  14.905
48531W        W12288  26.465  24.221   3.313
48532W        W12289  39.869  17.649  13.797
48533W        W12290  32.117  32.571  12.023
48534W        W12291  19.759   5.325   3.718
48535W        W12292  12.648  41.337   1.924
48536W        W12293  40.052  38.853  14.493
48537W        W12294  26.488   0.808  10.518
48538W        W12295  32.543  16.203  12.021
48539W        W12296  36.490  38.955   3.308
48540W        W12297   7.370  18.182   2.208
48541W        W12298  22.525  25.051   0.837
48542W        W12299  13.256  36.845  12.864
48543W        W12300  40.483  24.527   0.303
48544W        W12301   0.461  12.772   2.877
48545W        W12302  14.155  17.189  14.912
48546W        W12303   8.366  38.401   2.786
48547W        W12304  18.215   2.317   3.765
48548W        W12305  16.671   2.226   0.465
48549W        W12306  43.375  27.987  14.411
48550W        W12307  21.259  10.259   4.174
48551W        W12308  40.866  38.332  11.079
48552W        W12309  31.460  38.393  14.986
48553W        W12310  18.706  11.308   2.312
48554W        W12311  13.678  30.469  12.574
48555W        W12312   8.342  28.147   4.293
48556W        W12313  36.579  25.697   3.806
48557W        W12314   9.788   8.802  13.438
48558W        W12315  27.104   6.274  12.853
48559W        W12316  34.586  36.539   1.791
48560W        W12317  17.249   7.320  10.004
48561W        W12318  12.293  18.683  11.515
48562W        W12319   5.738   2.720   0.386
48563W        W12320  19.194  41.858  10.526
48564W        W12321  36.502  30.931  14.891
48565W        W12322   9.865   5.865  13.962
48566W        W12323  31.499  29.008   3.667
48567W        W12324   2.344  42.300  12.029
48568W        W12325   3.750  27.625   4.835
48569W        W12326  21.656  43.920  10.975
48570W        W12327  31.477   5.714   3.789
48571W        W12328   8.831   4.345   0.785
48572W        W12329  12.781   6.240  14.792
48573W        W12330  19.605  18.254   0.392
48574W        W12331  34.080  20.766  13.997
48575W        W12332  32.531   7.365   3.741
48576W        W12333  31.464  13.801   1.319
48577W        W12334  37.981  18.191  13.461
48578W        W12335  31.922  42.353  14.922
48579W        W12336  11.623  30.059   4.306
48580W        W12337  36.417  13.635  11.479
48581W        W12338  12.308  11.272  11.988
48582W        W12339   2.837  37.372   1.275
48583W        W12340   2.385  15.142  11.963
48584W        W12341  14.765  39.354  10.615
48585W        W12342  16.577  31.545  13.864
48586W        W12343   0.834   9.820   1.359
48587W        W12344  19.558  35.906   3.252
48588W        W12345  31.531   0.398  13.958
48589W        W12346   3.758  21.113   1.324
48590W        W12347   7.279  34.564  12.031
48591W        W12348  11.192  26.138   2.663
48592W        W12349  21.020  28.102  11.501
48593W        W12350   7.303   2.232  10.479
48594W        W12351  25.707  35.603  13.436
48595W        W12352   3.868  44.000   3.343
48596W        W12353  18.611  26.012   1.893
48597W        W12354   4.410  40.318  11.857
48598W        W12355   9.873  20.110   2.887
48599W        W12356   4.304  27.520  10.936
48600W        W12357  28.162  21.122   5.176
48601W        W12358   9.800  42.787   1.312
48602W        W12359  25.628  12.283  10.609
48603W        W12360  11.622  34.883  10.586
48604W        W12361   3.360  39.978  10.461
48605W        W12362  19.665  32.942  11.124
48606W        W12363  28.955  39.820  13.936
48607W        W12364  31.559  41.357   4.122
48608W        W12365  43.837  31.607   0.731
48609W        W12366  38.922  13.808   2.791
48610W        W12367  20.683  21.210   4.759
48611W        W12368   9.229  42.297   2.287
48612W        W12369  13.289  40.860   1.234
48613W        W12370  22.139  19.154   4.814
48614W        W12371  21.242  13.687  11.035
48615W        W12372  19.180  20.129   0.937
48616W        W12373   6.427  29.958   0.925
48617W        W12374  42.794  24.587  14.397
48618W        W12375   5.832  40.925   4.307
48619W        W12376   7.223  27.146  11.595
48620W        W12377  38.865  27.489   4.283
48621W        W12378  20.660   8.769   1.864
48622W        W12379  29.459  12.132  14.784
48623W        W12380  40.019  15.798   1.288
48624W        W12381  26.011  10.246   1.872
48625W        W12382  22.571   2.789  11.454
48626W        W12383  43.514  16.719  11.910
48627W        W12384  41.439  21.641  10.945
48628W        W12385  33.535   6.710  10.515
48629W        W12386  12.360  15.781   0.767
48630W        W12387  11.193  17.701   3.302
48631W        W12388  22.142   3.758   0.287
48632W        W12389  21.627  22.118  12.481
48633W        W12390  20.174  39.819   0.245
48634W        W12391  13.153  35.485   1.321
48635W        W12392  35.992  29.922   2.681
48636W        W12393  23.704  35.367  14.008
48637W        W12394  24.606  26.206   2.354
48638W        W12395  17.180  19.565  11.427
48639W        W12396   7.822  31.599   0.411
48640W        W12397  40.327  41.330   1.828
48641W        W12398  33.917   7.810   0.279
48642W        W12399   9.772  42.991  14.489
48643W        W12400  24.062  22.529   4.823
48644W        W12401  31.121   5.911  10.434
48645W        W12402  28.614  36.880  13.995
48646W        W12403  41.797  42.861  12.095
48647W        W12404  25.158   9.186  12.062
48648W        W12405  16.147  44.902   2.236
48649W        W12406  26.470   6.400  12.511
48650W        W12407   2.322  29.977  11.541
48651W        W12408  34.961  34.980  14.446
48652W        W12409  12.782  35.904   4.210
48653W        W12410  23.992  23.054  10.642
48654W        W12411  39.375  16.739  11.919
48655W        W12412  36.552  40.010  11.950
48656W        W12413   2.922  19.275   0.857
48657W        W12414   7.903  23.620  13.425
48658W        W12415  14.733  14.295   2.862
48659W        W12416  31.623  17.078  14.021
48660W        W12417  39.934   8.291  11.045
48661W        W12418  13.147   1.377   2.682
48662W        W12419  19.740   8.723  11.385
48663W        W12420  15.097  26.172   0.898
48664W        W12421  41.426  17.084   3.787
48665W        W12422  18.554  14.262  14.423
48666W        W12423   7.179   2.857   2.895
48667W        W12424  38.546  41.846  11.920
48668W        W12425  42.884   2.873   3.323
48669W        W12426  30.423  34.614  11.399
48670W        W12427  24.499   1.275  13.932
48671W        W12428  36.528   9.227   0.838
48672W        W12429   4.774   2.729  12.473
48673W        W12430  39.926  43.319  11.992
48674W        W12431  21.025  33.007  14.275
48675W        W12432  17.296  28.943  13.999
48676W        W12433   5.255  36.495   4.598
48677W        W12434  38.507   9.787  13.923
48678W        W12435  14.645  35.476  12.452
48679W        W12436  21.747   9.286   3.697
48680W        W12437  41.860   0.286  12.462
48681W        W12438   6.325  42.383   2.237
48682W        W12439  37.971  21.698  10.495
48683W        W12440  39.540   5.324  13.428
48684W        W12441  39.996  42.837  11.460
48685W        W12442  28.115  31.019   1.449
48686W        W12443  26.972  35.886  12.400
48687W        W12444  28.935  35.921  11.567
48688W        W12445  13.632   0.972   4.226
48689W        W12446  32.527  27.542  13.930
48690W        W12447  38.952  21.237  10.529
48691W        W12448   1.263   2.861   2.833
48692W        W12449  16.639   8.341  13.370
48693W        W12450  40.342  28.456   3.818
48694W        W12451   9.312  39.958  10.504
48695W        W12452   6.204  10.838   2.818
48696W        W12453  43.013  32.129  10.120
48697W        W12454   6.318   7.402  10.482
48698W        W12455  18.126  27.042  10.525
48699W        W12456  17.124   2.330  14.278
48700W        W12457  41.886  40.461  11.580
48701W        W12458  34.419  11.731  12.880
48702W        W12459   9.691  35.547   3.368
48703W        W12460  14.798  37.846  10.489
48704W        W12461  33.919  19.773  10.430
48705W        W12462  24.175  23.984   0.870
48706W        W12463  34.056  10.302   2.707
48707W        W12464  18.615  11.341  10.108
48708W        W12465  25.082   3.903  10.891
48709W        W12466  14.798  14.646   2.259
48710W        W12467  24.642  43.441   0.944
48711W        W12468  16.276  25.551   2.876
48712W        W12469  27.541  20.118   1.756
48713W        W12470   1.379  27.174   4.672
48714W        W12471  26.703  40.046   0.894
48715W        W12472  11.282  32.049  11.489
48716W        W12473  43.986  13.735  14.510
48717W        W12474  39.003  41.519   0.788
48718W        W12475   8.663  18.691   5.648
48719W        W12476  38.496  29.084   2.206
48720W        W12477  35.375  11.253   3.182
48721W        W12478  32.009   8.816   4.649
48722W        W12479  32.052  35.892   2.784
48723W        W12480   7.780  40.414  12.089
48724W        W12481  40.812  17.308  14.359
48725W        W12482  16.613  24.571   4.649
48726W        W12483  42.326  10.332   0.358
48727W        W12484   5.739  42.463  12.074
48728W        W12485  41.538  12.661   0.334
48729W        W12486  12.226   5.817   0.339
48730W        W12487  29.514  30.600   0.852
48731W        W12488  22.158  36.468  10.943
48732W        W12489  30.446  20.618  14.360
48733W        W12490  25.000  18.124   3.385
48734W        W12491  21.031   4.940  11.897
48735W        W12492  17.659  41.022  12.380
48736W        W12493  33.529  34.529  13.008
48737W        W12494  18.570  10.850   4.754
48738W        W12495   1.869  38.548  14.413
48739W        W12496  13.271  15.138  13.479
48740W        W12497  12.725  12.745   2.858
48741W        W12498   2.943  21.110  13.404
48742W        W12499  40.816  40.367  12.415
48743W        W12500  32.484  25.171  11.114
48744W        W12501  28.463  31.933   4.247
48745W        W12502   9.302  24.077   0.329
48746W        W12503   2.771  35.923   4.612
48747W        W12504   2.744  20.598  11.572
48748W        W12505  34.369  29.531   3.280
48749W        W12506  16.182  32.057  12.573
48750W        W12507  33.559  39.021   3.740
48751W        W12508  44.264  27.047  12.553
48752W        W12509  22.012  33.564   4.253
48753W        W12510  20.216   5.220   4.319
48754W        W12511  17.639  27.062  13.049
48755W        W12512   3.229  40.369   5.231
48756W        W12513   1.910   5.436  12.970
48757W        W12514  35.987  31.504   1.815
48758W        W12515   9.769  19.160  14.430
48759W        W12516  17.097  11.274   4.662
48760W        W12517  36.906  39.402  13.927
48761W        W12518  15.599  30.024   2.342
48762W        W12519   1.824   9.776  11.900
48763W        W12520  43.473  35.917  13.857
48764W        W12521  26.501  41.325  12.536
48765W        W12522  23.127  26.568  13.908
48766W        W12523  11.623  17.573   4.706
48767W        W12524  35.486  24.205   0.278
48768W        W12525  28.446  35.518  10.477
48769W        W12526   4.242  24.525   1.452
48770W        W12527   3.802  13.203  14.500
48771W        W12528  24.520  42.381  13.846
48772W        W12529  26.577  23.194  12.343
48773W        W12530  32.959  19.572   4.768
48774W        W12531  22.132  27.509  10.498
48775W        W12532  24.049  38.535  10.902
48776W        W12533  39.375  27.102  11.400
48777W        W12534   0.358  20.183  12.901
48778W        W12535  26.072   5.812   4.119
48779W        W12536  35.576   8.756  12.069
48780W        W12537  37.859  11.171  13.535
48781W        W12538  32.047  22.626   1.752
48782W        W12539  40.053  35.012  11.566
48783W        W12540  44.944  34.914  11.588
48784W        W12541  22.715  23.640   2.662
48785W        W12542  29.040   2.943  14.922
48786W        W12543   4.414  15.274  13.830
48787W        W12544  27.530   7.758   1.820
48788W        W12545  10.633  27.585   3.185
48789W        W12546  20.570  33.890   0.447
48790W        W12547  29.429  19.662   3.198
48791W        W12548  12.759  13.163   2.810
48792W        W12549   2.356   6.697  11.955
48793W        W12550  23.678  20.119  12.414
48794W        W12551  16.597  16.206  11.113
48795W        W12552  13.237   6.332   4.806
48796W        W12553   7.909  43.325  11.598
48797W        W12554   6.184  27.118   3.817
48798W        W12555   8.689  11.352   0.380
48799W        W12556  42.344  13.747   1.418
48800W        W12557  44.408  23.712   4.159
48801W        W12558  16.592  16.076   3.746
48802W        W12559   2.748  31.452   0.853
48803W        W12560   9.236  21.039  13.888
48804W        W12561  13.150  42.967  12.382
48805W        W12562  18.109  22.524   2.286
48806W        W12563  42.918  40.460  12.997
48807W        W12564  17.565  41.302   3.747
48808W        W12565   9.289  21.182   4.292
48809W        W12566  18.639  33.473  14.338
48810W        W12567  37.087  10.378   0.442
48811W        W12568   5.780  35.556  14.017
48812W        W12569  31.075  22.047  14.943
48813W        W12570  39.429  26.566   3.826
48814W        W12571  35.589  37.833   3.209
48815W        W12572  23.727  19.173   0.777
48816W        W12573  17.748  20.230   4.291
48817W        W12574   7.273  40.386  14.976
48818W        W12575  22.540  20.148  12.351
48819W        W12576  13.695  21.232  11.109
48820W        W12577  29.604  42.863   5.234
48821W        W12578  39.064  16.316  10.531
48822W        W12579   2.346  20.244   1.333
48823W        W12580  19.163  36.537   1.698
48824W        W12581   4.874  36.973   2.200
48825W        W12582  39.371  30.450   0.416
48826W        W12583   2.785  37.831  12.339
48827W        W12584   8.886  40.372   3.295
48828W        W12585  33.970   3.880  10.062
48829W        W12586  37.482  22.109   2.416
48830W        W12587   5.753  19.718  14.014
48831W        W12588  25.977  21.084  13.395
48832W        W12589  41.312   1.879   3.813
48833W        W12590   1.881  24.159   5.294
48834W        W12591  41.390   7.204   4.313
48835W        W12592  37.420   7.820   4.156
48836W        W12593  14.135   1.919   4.600
48837W        W12594  14.304  25.518  12.994
48838W        W12595  39.467  41.948  14.469
48839W        W12596  42.410  31.532  13.927
48840W        W12597  29.088  41.517  12.075
48841W        W12598  20.662  30.103  10.929
48842W        W12599  28.965  12.803  14.456
48843W        W12600   1.237   7.383  12.507
48844W        W12601  28.976  26.957  14.453
48845W        W12602  20.581  12.287   0.802
48846W        W12603  35.940  36.857   0.904
48847W        W12604  38.551  12.185   1.353
48848W        W12605  43.960  17.691   4.183
48849W        W12606  36.055  26.026  10.159
48850W        W12607   1.788  43.961  14.894
48851W        W12608  23.499   9.151   2.818
48852W        W12609  17.628   9.830  10.485
48853W        W12610  14.305  34.913  11.418
48854W        W12611  13.783  32.033  12.907
48855W        W12612  30.983  32.556   2.878
48856W        W12613  15.155   3.955   2.368
48857W        W12614  16.179   2.399   2.219
48858W        W12615  33.613  30.658  10.541
48859W        W12616  12.838  32.431  14.428
48860W        W12617  13.247  20.060  12.567
48861W        W12618  21.617   7.881   2.336
48862W        W12619  18.563  17.600   0.914
48863W        W12620  16.149  13.301  10.608
48864W        W12621  11.737  13.606   4.328
48865W        W12622  15.599  17.097   5.224
48866W        W12623  42.419  29.135   0.805
48867W        W12624  38.838  30.626  14.881
48868W        W12625  13.723  26.125   3.773
48869W        W12626  22.008  27.655  13.861
48870W        W12627  17.737  43.359   1.737
48871W        W12628  33.428  24.544   4.655
48872W        W12629  13.225  11.295  10.532
48873W        W12630  22.030  32.570  10.624
48874W        W12631  42.350  40.985   3.720
48875W        W12632  29.949  36.953  13.979
48876W        W12633  16.781  40.354  11.117
48877W        W12634  34.459  11.720   4.656
48878W        W12635   5.752   9.216   1.828
48879W        W12636  35.084   3.808  10.572
48880W        W12637  19.177  39.473   3.373
48881W        W12638  28.665   5.245  14.462
48882W        W12639  36.524  36.462   1.415
48883W        W12640  34.093   7.394  11.602
48884W        W12641  12.767  18.549  12.383
48885W        W12642   7.372  24.562   3.155
48886W        W12643  42.907  28.949   4.342
48887W        W12644  35.983  10.842  11.560
48888W        W12645  20.061   9.284  11.990
48889W        W12646  19.122  14.701   2.286
48890W        W12647  31.520  38.412  10.616
48891W        W12648  26.180   3.944  11.933
48892W        W12649  11.692  20.658  13.527
48893W        W12650  20.188  36.530   1.816
48894W        W12651   4.747  37.370   1.362
48895W        W12652  26.077  41.324   0.400
48896W        W12653  43.313   6.795  14.326
48897W        W12654  30.987  40.538   3.695
48898W        W12655  38.388  43.953  13.939
48899W        W12656  11.192  20.139  14.008
48900W        W12657  43.411  30.516  11.098
48901W        W12658  14.776   8.671  14.333
48902W        W12659  42.432   0.975  13.891
48903W        W12660  40.873   4.257  12.359
48904W        W12661  34.012  31.926   4.828
48905W        W12662  28.985  28.534  14.770
48906W        W12663  40.929  21.538   0.773
48907W        W12664  21.243  20.704  14.391
48908W        W12665  29.584  15.098  14.476
48909W        W12666  41.453  28.510  10.582
48910W        W12667  28.165  36.491   0.454
48911W        W12668  28.994  40.526   4.115
48912W        W12669  34.573  39.525   1.800
48913W        W12670  30.619  13.762  10.574
48914W        W12671  12.666  16.090  14.821
48915W        W12672  12.132   9.319   1.854
48916W        W12673   1.788  23.729   3.184
48917W        W12674  26.520  10.699   4.350
48918W        W12675   6.305  26.139   4.183
48919W        W12676  29.477  22.208   1.734
48920W        W12677   0.836  31.490  11.563
48921W        W12678   7.307   0.295   0.394
48922W        W12679  38.468   0.797   9.596
48923W        W12680   9.209  14.114   0.331
48924W        W12681  27.512  31.405  12.935
48925W        W12682  26.965   5.329   4.314
48926W        W12683  40.877  34.052  11.032
48927W        W12684  19.264  38.346  13.323
48928W        W12685  15.606  20.666   1.821
48929W        W12686   7.414  18.098  10.973
48930W        W12687  32.579   1.373   1.900
48931W        W12688   8.878  15.327   2.321
48932W        W12689  12.203  11.808   0.932
48933W        W12690  31.469  34.990   3.749
48934W        W12691  27.459  19.568  10.461
48935W        W12692  27.566  29.922   4.316
48936W        W12693  30.065  27.606   4.336
48937W        W12694   8.226  36.451  12.061
48938W        W12695  17.106  18.763  11.512
48939W        W12696  15.726  15.591   4.237
48940W        W12697  32.084  28.947   1.875
48941W        W12698   7.411  35.008  14.381
48942W        W12699   8.290  41.314  14.809
48943W        W12700  17.173  44.771  11.935
48944W        W12701  26.588  37.394   1.437
48945W        W12702   8.748  37.907   4.204
48946W        W12703  32.482  24.715   3.321
48947W        W12704  32.029   2.349  12.064
48948W        W12705  26.195  23.101  12.391
48949W        W12706  41.405  40.369  14.831
48950W        W12707   0.920  10.382  14.011
48951W        W12708  32.408  33.088   2.180
48952W        W12709  27.542  22.999   2.791
48953W        W12710  21.719  24.107   4.123
48954W        W12711  16.667  43.286  10.452
48955W        W12712  18.123  32.999  13.904
48956W        W12713  26.194  17.601   2.830
48957W        W12714  15.749  44.339   1.816
48958W        W12715   2.448  32.616   0.388
48959W        W12716  38.986  25.540   2.666
48960W        W12717   5.840  28.939  13.853
48961W        W12718  27.108  21.710   3.183
48962W        W12719  32.423  19.768   3.792
48963W        W12720   9.226   1.733  13.986
48964W        W12721  34.579  40.052   4.321
48965W        W12722  23.187   2.862  12.837
48966W        W12723  23.029  22.202   4.344
48967W        W12724   5.286  37.347   0.396
48968W        W12725  44.947   0.294  11.065
48969W        W12726  32.066  26.674  10.131
48970W        W12727  23.671  10.168  10.137
48971W        W12728  33.052  36.541   3.808
48972W        W12729   7.721  29.455   4.127
48973W        W12730  13.223  10.151   2.316
48974W        W12731  23.052  11.685  13.940
48975W        W12732  12.145  32.461   2.835
48976W        W12733  13.193  16.087  11.381
48977W        W12734  10.663  44.974   4.721
48978W        W12735   5.224  24.657  14.821
48979W        W12736  27.105  40.519  14.018
48980W        W12737  28.456  28.180   0.791
48981W        W12738  42.397   5.844  11.045
48982W        W12739  30.968  19.686  11.423
48983W        W12740  24.537  25.713  12.984
48984W        W12741   3.218  23.130  12.928
48985W        W12742  19.612  42.374   1.755
48986W        W12743  13.316   0.474   9.977
48987W        W12744   7.671  29.618   2.289
48988W        W12745  29.128  30.982   2.712
48989W        W12746   4.799  42.304  12.866
48990W        W12747  19.085  10.305   3.311
48991W        W12748  22.033  10.664  13.804
48992W        W12749   5.697  23.519  11.608
48993W        W12750  17.141   6.362  13.449
48994W        W12751   7.208  21.074  12.881
48995W        W12752   8.777  14.173   5.095
48996W        W12753   5.703  19.243  11.438
48997W        W12754   9.233  16.688   2.356
48998W        W12755  34.941   2.294  13.359
48999W        W12756  22.662  26.610   1.923
49000W        W12757  19.633  22.683   0.475
49001W        W12758   4.412  40.996   3.842
49002W        W12759  42.947  42.443   1.898
49003W        W12760  25.657   9.791   3.655
49004W        W12761   0.795  10.157  11.886
49005W        W12762  41.961  14.769  14.974
49006W        W12763  37.468  23.995  12.444
49007W        W12764  43.278   2.928   0.938
49008W        W12765  25.036  34.014  12.996
49009W        W12766  40.346   8.806  10.490
49010W        W12767   9.156  14.220  10.098
49011W        W12768  37.029  41.371  11.396
49012W        W12769  38.467  32.488   2.292
49013W        W12770  37.465  38.929  10.908
49014W        W12771  21.732  37.009  11.494
49015W        W12772  38.428  35.878   1.901
49016W        W12773  40.341  12.178  10.547
49017W        W12774  12.171   3.780   4.762
49018W        W12775   2.439  30.135   4.202
49019W        W12776  11.752  26.521   2.822
49020W        W12777  11.228  23.690  14.375
49021W        W12778   6.874   8.674   3.377
49022W        W12779  11.184   4.848  12.539
49023W        W12780  28.075   4.752   2.724
49024W        W12781  42.411   8.287   2.294
49025W        W12782   1.273   2.459   1.763
49026W        W12783  14.617  34.498   2.781
49027W        W12784  14.134   0.431   2.862
49028W        W12785  33.936  17.270   3.691
49029W        W12786   0.817  34.536  11.382
49030W        W12787   1.289  44.929   3.280
49031W        W12788  16.604  44.971   0.886
49032W        W12789  42.461   7.345   2.679
49033W        W12790  13.227   3.447   1.802
49034W        W12791  15.298   4.361  14.893
49035W        W12792  40.395  38.325   0.343
49036W        W12793  39.320  10.680  13.868
49037W        W12794  36.924  19.754  13.813
49038W        W12795   6.690  35.926  12.469
49039W        W12796  35.528  15.643  10.488
49040W        W12797  10.645  17.106  10.919
49041W        W12798  11.290   7.701   2.293
49042W        W12799   5.236  12.644  14.384
49043W        W12800   4.359  23.706  12.410
49044W        W12801  34.883   0.301   1.312
49045W        W12802  29.924  16.085   2.230
49046W        W12803  42.318  23.710   2.763
49047W        W12804  11.826   6.202   0.963
49048W        W12805  39.415   5.271   2.400
49049W        W12806  40.386  33.388  14.799
49050W        W12807  43.915  17.093  12.428
49051W        W12808   6.704   2.433   0.278
49052W        W12809  18.573  29.067  13.507
49053W        W12810   0.370  31.109   1.888
49054W        W12811  34.428  29.168  11.091
49055W        W12812  42.008  27.612  13.457
49056W        W12813  21.617   6.367   4.242
49057W        W12814  32.962  32.418  10.986
49058W        W12815  21.021  19.661   3.319
49059W        W12816  42.290  32.534  14.827
49060W        W12817  26.014  36.081  13.353
49061W        W12818  40.986  24.645  12.434
49062W        W12819  11.738  24.039  11.445
49063W        W12820   5.863  10.837  13.038
49064W        W12821  23.233  15.240   3.751
49065W        W12822  18.752  31.583  13.879
49066W        W12823   0.880  18.143   0.814
49067W        W12824  17.790  17.732  13.359
49068W        W12825  44.782   5.734  14.384
49069W        W12826  17.277  37.540  14.852
49070W        W12827   8.723  14.745   4.181
49071W        W12828  11.731  34.453   0.349
49072W        W12829  32.634  41.478  13.426
49073W        W12830  31.036  12.658  11.403
49074W        W12831  33.979  33.078  12.851
49075W        W12832  14.807  41.536   3.850
49076W        W12833   0.418  12.326   4.666
49077W        W12834   2.824  26.964  13.463
49078W        W12835  41.528  24.587   2.883
49079W        W12836   8.768   6.736  12.056
49080W        W12837  20.091   2.235  14.421
49081W        W12838  41.902  43.469   4.802
49082W        W12839  24.713  13.307   2.191
49083W        W12840  24.577   5.727  11.521
49084W        W12841  10.185   1.801   9.990
49085W        W12842  18.221  25.703   0.350
49086W        W12843  37.429   5.430   0.387
49087W        W12844  29.656  28.600  12.552
49088W        W12845  14.150  15.102  14.298
49089W        W12846  18.725   5.207  10.494
49090W        W12847  38.920  31.964   0.806
49091W        W12848  26.994  16.280   4.213
49092W        W12849   0.967  20.765  13.919
49093W        W12850  43.845  31.582  12.347
49094W        W12851  21.648  36.968  11.109
49095W        W12852  23.205  32.068   0.910
49096W        W12853  41.512  29.960  14.891
49097W        W12854   3.921   2.367   3.758
49098W        W12855  36.897  37.565  14.316
49099W        W12856   9.339   6.375  12.873
49100W        W12857  40.017  44.385  13.851
49101W        W12858   2.236  37.902  13.364
49102W        W12859   5.827  22.130  14.461
49103W        W12860  42.798  19.183   0.832
49104W        W12861  44.372  15.314   3.666
49105W        W12862  15.762  21.571   3.316
49106W        W12863  40.524  22.705  13.866
49107W        W12864  21.189   0.464   4.687
49108W        W12865  32.618  21.676  14.342
49109W        W12866  30.059   9.342   3.228
49110W        W12867  34.944  29.531   1.305
49111W        W12868  28.003  19.102  12.079
49112W        W12869  31.411  34.398   4.180
49113W        W12870   9.761  24.165  12.889
49114W        W12871  42.826  18.267   2.180
49115W        W12872  25.533  10.838   0.954
49116W        W12873  17.736  35.853   0.797
49117W        W12874  41.014   4.829   3.343
49118W        W12875  14.114  29.101  13.499
49119W        W12876  11.649  19.186   4.765
49120W        W12877   6.290  16.724   2.192
49121W        W12878  10.282  35.492   2.242
49122W        W12879  32.099  31.443  13.368
49123W        W12880   2.838  14.244  12.572
49124W        W12881  14.684  17.213   0.459
49125W        W12882  28.929  11.637   4.170
49126W        W12883   5.787  43.343   4.163
49127W        W12884  25.140   7.259  11.561
49128W        W12885  40.012  18.248  10.625
49129W        W12886  23.562  26.667  11.063
49130W        W12887  11.332  38.015  13.537
49131W        W12888  17.269  13.643  14.419
49132W        W12889  23.630  41.975   1.711
49133W        W12890  34.998   5.306   1.726
49134W        W12891  25.526  41.824   0.734
49135W        W12892  15.250  43.857   1.344
49136W        W12893  17.587  25.065  10.477
49137W        W12894  16.139  12.197   4.824
49138W        W12895  27.689   0.304   1.890
49139W        W12896  17.121  27.064  12.344
49140W        W12897   3.806  34.458   4.638
49141W        W12898  16.130  44.410   1.400
49142W        W12899  31.064  11.784  14.429
49143W        W12900  16.619  40.459  13.411
49144W        W12901  20.130   9.770  11.069
49145W        W12902   3.753  39.055  14.873
49146W        W12903  10.730   9.221  14.992
49147W        W12904  18.736  16.121   5.791
49148W        W12905  10.644  36.503  13.014
49149W        W12906   0.375  42.467   1.892
49150W        W12907   5.270  29.561  13.356
49151W        W12908  33.987   1.455   1.738
49152W        W12909  22.568  40.963   1.398
49153W        W12910  13.602  31.094  12.884
49154W        W12911  25.007   6.831  10.512
49155W        W12912   7.238  20.198  12.424
49156W        W12913  44.326   3.759  13.923
49157W        W12914  42.894   8.242   4.785
49158W        W12915  32.963  19.094  11.521
49159W        W12916  41.294  39.415   3.637
49160W        W12917  22.043  39.835  13.025
49161W        W12918  10.674  36.580   1.403
49162W        W12919  19.255   5.305   2.786
49163W        W12920  39.978  30.435  14.865
49164W        W12921  19.127  34.480  14.902
49165W        W12922  26.480  36.500   3.791
49166W        W12923  43.382  12.347   2.821
49167W        W12924  43.945  18.289  13.394
49168W        W12925  30.437  10.780  10.565
49169W        W12926   8.769  20.271  10.538
49170W        W12927  28.681  18.637  10.571
49171W        W12928  29.052  44.288   2.356
49172W        W12929  16.203   4.700   2.764
49173W        W12930  38.459  11.635   0.889
49174W        W12931  26.999  10.179   0.464
49175W        W12932  40.941   0.883   4.776
49176W        W12933  20.676  31.966  11.997
49177W        W12934   3.865  12.708   0.750
49178W        W12935  32.079  16.305   2.738
49179W        W12936   5.352  34.060  14.318
49180W        W12937  10.820   7.333  14.394
49181W        W12938   3.242   3.813  13.016
49182W        W12939  21.172  13.124   1.929
49183W        W12940  11.735  19.678   4.277
49184W        W12941   2.964  10.633  12.925
49185W        W12942  12.831  13.222  14.506
49186W        W12943  43.000  36.001  11.931
49187W        W12944   4.433   4.345   4.644
49188W        W12945  39.064  39.420  12.425
49189W        W12946  35.366  36.353   1.312
49190W        W12947  42.463  33.021   2.895
49191W        W12948  21.074  40.467   5.148
49192W        W12949  36.438  42.790   0.794
49193W        W12950  28.621   3.382   1.740
49194W        W12951  23.617  23.048  13.322
49195W        W12952  19.164   7.286   0.300
49196W        W12953  18.258   0.286   0.329
49197W        W12954  34.554  20.094   3.692
49198W        W12955   1.364  27.007  14.513
49199W        W12956   6.761  34.114   0.286
49200W        W12957  38.417  43.284  11.611
49201W        W12958   0.372  32.908   0.940
49202W        W12959   8.174  33.928   2.333
49203W        W12960  13.661  32.970  11.535
49204W        W12961   5.271  31.488   3.370
49205W        W12962   6.893  37.905  13.359
49206W        W12963  17.590  14.256   4.328
49207W        W12964  15.094  27.688  13.797
49208W        W12965  33.472  41.487   2.353
49209W        W12966  20.690  36.847   0.961
49210W        W12967  42.504   4.427   0.319
49211W        W12968  33.571  41.912  14.768
49212W        W12969   9.846  33.502  12.999
49213W        W12970  41.857  27.069   4.720
49214W        W12971   5.299  11.635   0.432
49215W        W12972  42.025  32.942  14.415
49216W        W12973  30.138   5.385   3.252
49217W        W12974  28.681  40.895   2.799
49218W        W12975  31.537  21.665  11.478
49219W        W12976  11.300  27.691  14.328
49220W        W12977   4.303   4.752  14.851
49221W        W12978  19.175  41.789  13.400
49222W        W12979   6.200  21.162  11.097
49223W        W12980   3.347  17.092  11.065
49224W        W12981  11.258  13.174  14.325
49225W        W12982  38.551   8.260  12.925
49226W        W12983  17.801  38.464   1.318
49227W        W12984   9.309   1.280  10.930
49228W        W12985  28.527  34.388  14.461
49229W        W12986  25.518  15.202   3.712
49230W        W12987  26.188  26.173   0.840
49231W        W12988  28.132  12.344   3.349
49232W        W12989  17.579  44.267  13.349
49233W        W12990  10.644   4.881   3.320
49234W        W12991   7.696  25.579  14.864
49235W        W12992  43.443  37.077   0.771
49236W        W12993  28.078  34.497   2.749
49237W        W12994  37.439  30.139   1.731
49238W        W12995  44.930  12.745   0.806
49239W        W12996  44.964  32.631   1.224
49240W        W12997  21.225  40.988   4.204
49241W        W12998  24.001  22.700  12.062
49242W        W12999  23.600  29.144  12.849
49243W        W13000  21.033  37.410  13.884
49244W        W13001  44.928  17.202  10.520
49245W        W13002  14.776  44.298  10.141
49246W        W13003  39.937   6.396  11.906
49247W        W13004  17.616   6.219  11.540
49248W        W13005  39.371  44.904   4.114
49249W        W13006  17.218   9.253  10.446
49250W        W13007  15.706   5.934  11.939
49251W        W13008   9.254  44.844   1.363
49252W        W13009  17.164   2.281   4.251
49253W        W13010  12.775  36.901  14.979
49254W        W13011   4.230  43.376   3.177
49255W        W13012  36.894  43.011   4.719
49256W        W13013  33.492  19.621   9.942
49257W        W13014  11.192   3.847   4.220
49258W        W13015  18.163  16.152   1.228
49259W        W13016   7.671  36.006  10.455
49260W        W13017  42.456  12.664  11.070
49261W        W13018  10.189  37.886   0.764
49262W        W13019  36.565   6.304   4.805
49263W        W13020  34.600  27.135   2.757
49264W        W13021  20.268  24.687  14.359
49265W        W13022  30.509  17.680   1.843
49266W        W13023   7.730  27.474  11.528
49267W        W13024  14.248   0.465  11.435
49268W        W13025  13.222  16.698  11.597
49269W        W13026  22.132   8.655   1.857
49270W        W13027  16.750  34.990  11.390
49271W        W13028  21.657  23.638  14.835
49272W        W13029  30.071  16.219   0.731
49273W        W13030  25.064  15.735   2.719
49274W        W13031  25.016  22.216   1.904
49275W        W13032  39.063  31.956   1.279
49276W        W13033  42.809   0.479  10.597
49277W        W13034  31.991  35.057   5.224
49278W        W13035  10.664  25.031  13.038
49279W        W13036  25.477  18.691  13.857
49280W        W13037  15.693   7.766   3.294
49281W        W13038  20.193  21.576   0.343
49282W        W13039  23.539   9.294  10.593
49283W        W13040   6.894  31.593  12.079
49284W        W13041   0.459  24.991   3.855
49285W        W13042  37.488  22.747   1.293
49286W        W13043  43.361  43.447   2.890
49287W        W13044  13.174  31.072   2.178
49288W        W13045   3.361  37.082   3.739
49289W        W13046  36.437  27.677   3.174
49290W        W13047  23.177   6.802   4.210
49291W        W13048  12.635  11.830   4.759
49292W        W13049  27.986  35.040   2.851
49293W        W13050  37.545   6.302   4.191
49294W        W13051   2.467   8.231   2.704
49295W        W13052  41.038  22.700  14.414
49296W        W13053  15.749  20.636  14.461
49297W        W13054  42.901  27.066   0.478
49298W        W13055  32.532  29.141   2.271
49299W        W13056  16.731   6.898  13.883
49300W        W13057   6.416  20.073  11.877
49301W        W13058  17.608  20.764   0.858
49302W        W13059  35.104  22.739  12.503
49303W        W13060  29.585   9.239   0.389
49304W        W13061   2.281  23.146   1.367
49305W        W13062  38.519   8.340  14.329
49306W        W13063  21.151   2.423  14.803
49307W        W13064  10.793  27.991   4.776
49308W        W13065  27.626  35.106   3.742
49309W        W13066  30.035  40.324  12.570
49310W        W13067  13.754  44.382  13.951
49311W        W13068  38.504  26.525   5.152
49312W        W13069  12.137  29.923   4.685
49313W        W13070  13.180  24.983  14.010
49314W        W13071  14.828  41.788  13.808
49315W        W13072  43.441  23.735  12.092
49316W        W13073  32.052  32.522   2.312
49317W        W13074  12.337  31.914  10.596
49318W        W13075  39.400  41.977   3.656
49319W        W13076  40.041  18.145  12.081
49320W        W13077  20.259  43.338  13.842
49321W        W13078  30.017  38.957  14.448
49322W        W13079  42.867  18.585   4.313
49323W        W13080  41.526   8.804  14.403
49324W        W13081  23.545  34.552  14.000
49325W        W13082  15.285  32.424   3.256
49326W        W13083   8.713  13.789  11.400
49327W        W13084  26.171  30.916   2.863
49328W        W13085   1.733  23.229   3.772
49329W        W13086  33.598  32.406  12.078
49330W        W13087  16.603   2.875   0.445
49331W        W13088  39.952   1.748   4.752
49332W        W13089  43.287  22.587   3.379
49333W        W13090  22.114   7.820  13.873
49334W        W13091  44.454   5.796   2.313
49335W        W13092  27.063  31.462  13.470
49336W        W13093  28.181  18.290  13.028
49337W        W13094  24.507  22.735   1.334
49338W        W13095  41.962  29.025   1.920
49339W        W13096   2.788   4.446   1.440
49340W        W13097  23.625   8.334  13.378
49341W        W13098  23.135  27.125  11.064
49342W        W13099  40.442  24.608   3.662
49343W        W13100  26.517  32.000   2.860
49344W        W13101  19.747   7.268   0.841
49345W        W13102   6.258  20.608   0.822
49346W        W13103   0.865  16.768   1.823
49347W        W13104  37.494  42.350  14.297
49348W        W13105   3.262  32.518  12.864
49349W        W13106  35.567  41.470  12.978
49350W        W13107  42.825  38.873  13.333
49351W        W13108  23.078   5.730   1.925
49352W        W13109  33.959   3.917   1.341
49353W        W13110  16.568   2.239   1.734
49354W        W13111  41.321  18.196   0.319
49355W        W13112  13.708   8.251  14.383
49356W        W13113   7.196   4.352  13.388
49357W        W13114  12.352  35.382  13.805
49358W        W13115   3.301   6.327  10.494
49359W        W13116   0.778  12.617  14.458
49360W        W13117   2.777  11.845   2.249
49361W        W13118  19.690  23.671  11.382
49362W        W13119  43.440  44.320  12.352
49363W        W13120  35.552  16.095   3.242
49364W        W13121  20.265  21.224  13.848
49365W        W13122  16.660   4.834   0.269
49366W        W13123   9.811  12.800   3.279
49367W        W13124  32.404  14.208  11.458
49368W        W13125  26.653  24.003  13.391
49369W        W13126   6.702  35.394  14.031
49370W        W13127  37.072  15.769   2.414
49371W        W13128  43.284  22.231   1.296
49372W        W13129  18.587  21.619  12.042
49373W        W13130   6.865   0.860   2.836
49374W        W13131   9.346  41.374   1.899
49375W        W13132  34.887   4.855   0.745
49376W        W13133  25.710  36.516  11.054
49377W        W13134  11.843  13.756   3.251
49378W        W13135  14.771  32.424  12.951
49379W        W13136  28.090   1.946  14.846
49380W        W13137  12.725  31.934  12.443
49381W        W13138  31.001  41.325  13.945
49382W        W13139  30.603  38.892   2.797
49383W        W13140   6.789   6.243   1.752
49384W        W13141  24.214  32.033  12.845
49385W        W13142  18.737  42.356   3.637
49386W        W13143   7.872  31.972   2.713
49387W        W13144   5.820  19.267   1.389
49388W        W13145   6.741  35.034   0.797
49389W        W13146  35.591  28.986  13.396
49390W        W13147  37.357  30.012  10.549
49391W        W13148  32.049   0.968   1.694
49392W        W13149  32.502  33.120  12.486
49393W        W13150  28.936  37.421   4.730
49394W        W13151   4.709   1.821  11.404
49395W        W13152   2.782  41.893   3.753
49396W        W13153  16.570  24.597  12.890
49397W        W13154   1.752  15.702  14.772
49398W        W13155   6.327  22.046   2.744
49399W        W13156  11.340  36.381   2.893
49400W        W13157  30.148  37.365   3.683
49401W        W13158  17.782  12.785   4.808
49402W        W13159   9.360   5.363  14.943
49403W        W13160  13.683  38.969  11.503
49404W        W13161  24.976  26.192   1.224
49405W        W13162  10.660  29.924   2.332
49406W        W13163  30.951  10.312   4.766
49407W        W13164  15.248  36.498   2.396
49408W        W13165  14.828  10.162   1.440
49409W        W13166   8.284   4.918   2.192
49410W        W13167   9.765   5.355   1.761
49411W        W13168   1.425  40.850   4.676
49412W        W13169  38.437   4.887   1.335
49413W        W13170  39.822  27.115  12.011
49414W        W13171  23.626  40.909   0.387
49415W        W13172  10.176  28.656  14.321
49416W        W13173  26.101   3.815  14.480
49417W        W13174  33.561  38.907   4.701
49418W        W13175   8.303  27.553   1.769
49419W        W13176  23.716  27.073  11.049
49420W        W13177  12.825   1.977  10.037
49421W        W13178  18.716  29.633   5.237
49422W        W13179  25.198   0.488  14.293
49423W        W13180   2.777   6.883   1.249
49424W        W13181  33.527  23.510  12.909
49425W        W13182  28.516  30.581   3.230
49426W        W13183   8.679   3.910   0.333
49427W        W13184  18.291  24.213   3.311
49428W        W13185  39.059  29.146  12.563
49429W        W13186  16.758  23.134   4.192
49430W        W13187   5.303  23.166   0.956
49431W        W13188  36.404  21.230   0.295
49432W        W13189   3.339  26.144   1.432
49433W        W13190  14.622  20.186   3.749
49434W        W13191  11.221  15.636  11.473
49435W        W13192  14.307  41.311   2.286
49436W        W13193  32.959   1.817   4.818
49437W        W13194   3.879   5.340  13.817
49438W        W13195  20.536  35.060  14.814
49439W        W13196   6.200   6.758   3.717
49440W        W13197  38.487  28.500   2.357
49441W        W13198  32.124   6.326   2.737
49442W        W13199   9.357  25.120  14.474
49443W        W13200  24.978  19.113   4.656
49444W        W13201  37.932   4.428   2.271
49445W        W13202  24.533  27.020   1.339
49446W        W13203  33.394   5.428   3.665
49447W        W13204  42.378  43.437  13.987
49448W        W13205  37.081  39.318   4.278
49449W        W13206  16.194  37.443  10.432
49450W        W13207  16.595  24.683   0.897
49451W        W13208  27.135  42.305  10.520
49452W        W13209  20.720  16.200  11.598
49453W        W13210  24.569  14.217   4.117
49454W        W13211  44.952  35.984   1.785
49455W        W13212  38.520  10.364   3.785
49456W        W13213  44.325  40.931  11.965
49457W        W13214  29.998  22.219   0.751
49458W        W13215  41.850  33.403  13.998
49459W        W13216   4.915   8.824   0.373
49460W        W13217  22.207   9.344  12.005
49461W        W13218  24.515   1.306  11.884
49462W        W13219  17.215  31.410  14.951
49463W        W13220   2.235   5.836   4.809
49464W        W13221  34.091  39.059   4.334
49465W        W13222  21.670  26.602   2.337
49466W        W13223  34.560  21.665  13.019
49467W        W13224  26.613  22.108   9.596
49468W        W13225   4.814   4.358  14.276
49469W        W13226  32.596  17.306  13.346
49470W        W13227   8.250   9.888   4.226
49471W        W13228  12.148  36.885  11.068
49472W        W13229  22.619  31.509  12.979
49473W        W13230  40.507  32.929   3.362
49474W        W13231  28.542  21.731  11.487
49475W        W13232  14.203   9.335  11.120
49476W        W13233  35.873  19.678   1.924
49477W        W13234  30.614  37.027   4.215
49478W        W13235   7.399  19.060  10.502
49479W        W13236   4.739   3.772   1.257
49480W        W13237  28.996   4.867   0.780
49481W        W13238  24.681  14.305   3.764
49482W        W13239   9.698  35.925   3.224
49483W        W13240  22.690  29.958   3.665
49484W        W13241  17.704  10.801   4.636
49485W        W13242  29.561   3.917   4.240
49486W        W13243  20.617   8.664   3.834
49487W        W13244  24.611  18.783   3.341
49488W        W13245  39.899  21.227   4.662
49489W        W13246  25.561  42.927  10.044
49490W        W13247  30.552  18.617   1.708
49491W        W13248  42.952  25.668   0.242
49492W        W13249  22.547  33.473  13.934
49493W        W13250  10.364  34.938  13.956
49494W        W13251  29.981   0.878  10.911
49495W        W13252   9.167  44.317   2.846
49496W        W13253  34.390   0.932  13.522
49497W        W13254  37.352  40.920  10.577
49498W        W13255  10.804  28.063  14.323
49499W        W13256  12.739   3.222   5.316
49500W        W13257  21.241   7.821  11.576
49501W        W13258  24.195  35.466  12.492
49502W        W13259  11.301  28.652   0.728
49503W        W13260  23.137  12.305  14.844
49504W        W13261  20.267   3.249  10.948
49505W        W13262  17.742   5.236   1.810
49506W        W13263  37.390  36.381  12.391
49507W        W13264  16.272   1.891  14.778
49508W        W13265  12.167   8.897   4.837
49509W        W13266  28.614  35.947   3.712
49510W        W13267  20.531  20.238  11.115
49511W        W13268  15.676  37.571  10.957
49512W        W13269  15.099  25.074   2.223
49513W        W13270  27.635  24.101  11.123
49514W        W13271  12.717   4.265  11.081
49515W        W13272  20.041  29.042   4.648
49516W        W13273   0.818  32.003  12.824
49517W        W13274  34.089   0.375   1.341
49518W        W13275  39.470  22.996   1.701
49519W        W13276  34.931  38.515  13.512
49520W        W13277  34.419   8.661   0.380
49521W        W13278  43.428  10.334  12.851
49522W        W13279   8.709  31.088   2.369
49523W        W13280  16.237   7.881   3.674
49524W        W13281  30.641  12.719  12.425
49525W        W13282   2.898  36.518   4.732
49526W        W13283   4.721  34.058  11.508
49527W        W13284  33.551  28.089  12.468
49528W        W13285  30.160  32.935   1.355
49529W        W13286   4.257  40.542  12.408
49530W        W13287  39.864  24.170   4.122
49531W        W13288  40.429  30.106  14.990
49532W        W13289  26.570  26.033   1.253
49533W        W13290  20.699  44.444  11.496
49534W        W13291  30.950  25.599   4.794
49535W        W13292  20.603  16.296   1.775
49536W        W13293  36.392   4.736   3.310
49537W        W13294  32.529  44.753  14.401
49538W        W13295   2.959  37.564   3.178
49539W        W13296   9.797  28.064  13.400
49540W        W13297  10.708  21.732  10.583
49541W        W13298   4.859  20.564  13.016
49542W        W13299  34.411   2.771  14.829
49543W        W13300  43.347  22.119  12.539
49544W        W13301  11.807  32.009   2.711
49545W        W13302  19.092   3.778   0.755
49546W        W13303  20.739   1.362  14.300
49547W        W13304  13.225  19.742   0.949
49548W        W13305  24.210  36.849   1.241
49549W        W13306   3.772  24.514   3.207
49550W        W13307  29.159  10.797   0.908
49551W        W13308  41.798  25.982  12.575
49552W        W13309  17.572  39.865  14.930
49553W        W13310  13.650  42.477  12.089
49554W        W13311   5.324  36.005   2.320
49555W        W13312  41.840  13.608  13.541
49556W        W13313  12.739  42.422  10.409
49557W        W13314  17.089  35.981   4.805
49558W        W13315  34.413  16.173  14.879
49559W        W13316  33.566  32.514  12.965
49560W        W13317  34.117  14.294  12.499
49561W        W13318  39.030  31.150  12.089
49562W        W13319  22.693  18.700   4.319
49563W        W13320  26.112  15.725   3.271
49564W        W13321  23.561  23.197  11.997
49565W        W13322  15.109  37.013  13.848
49566W        W13323  14.179  31.966  12.567
49567W        W13324  11.308  19.059   1.769
49568W        W13325  23.724  37.494  12.527
49569W        W13326  36.076   5.870   0.447
49570W        W13327   1.749  34.458   0.911
49571W        W13328  21.057  20.674  11.409
49572W        W13329  11.176  33.084   3.687
49573W        W13330  25.103   5.827   0.354
49574W        W13331  15.188  41.519   0.451
49575W        W13332   9.387  44.259   3.325
49576W        W13333  36.003  10.711   1.868
49577W        W13334   1.479   8.195  11.430
49578W        W13335  18.063  33.445   1.264
49579W        W13336  14.226  39.995  11.387
49580W        W13337   1.748  12.234  14.367
49581W        W13338   6.210  34.098  10.450
49582W        W13339  27.101   4.223  13.318
49583W        W13340  12.299   0.447  13.317
49584W        W13341  17.250  11.206   0.383
49585W        W13342  25.583  26.985  10.505
49586W        W13343   5.256  12.185   3.289
49587W        W13344  12.182  28.557  11.126
49588W        W13345  13.308  28.128  13.312
49589W        W13346  44.927   1.258   4.773
49590W        W13347  29.986   8.332   1.771
49591W        W13348  24.520   2.280  10.979
49592W        W13349   6.837  35.359   4.680
49593W        W13350   1.930  24.096   3.801
49594W        W13351  12.178  20.656   0.805
49595W        W13352  24.671   5.724  13.328
49596W        W13353  39.059  39.469   0.408
49597W        W13354  25.118  14.273   4.833
49598W        W13355   0.440  40.030   2.291
49599W        W13356  22.125  41.441   3.870
49600W        W13357  32.497  12.193   3.360
49601W        W13358  11.662  31.128   4.718
49602W        W13359  37.050  44.780  11.961
49603W        W13360  31.918  18.747  14.013
49604W        W13361  34.556  19.591   1.914
49605W        W13362   8.712   3.431  10.967
49606W        W13363   3.839  28.158  11.921
49607W        W13364  19.647  18.560   5.169
49608W        W13365   2.961  40.798   3.327
49609W        W13366  41.953  11.855  11.109
49610W        W13367  43.822  30.087  14.961
49611W        W13368   2.405   2.802  14.391
49612W        W13369  37.341  13.195  14.305
49613W        W13370  39.884  41.378   3.304
49614W        W13371  15.591  37.414   2.817
49615W        W13372  19.756  44.910   3.292
49616W        W13373  26.525   3.808   1.321
49617W        W13374  14.602  30.501  10.446
49618W        W13375  44.384  38.838   5.204
49619W        W13376  28.026   7.246   4.675
49620W        W13377   6.683  42.965  12.485
49621W        W13378   0.824   2.457  13.027
49622W        W13379  40.330  44.918  11.963
49623W        W13380  23.219   7.819  11.944
49624W        W13381  16.183  17.217   3.282
49625W        W13382  27.125   0.815  14.335
49626W        W13383  43.976  21.126   0.300
49627W        W13384  21.601  43.473  11.947
49628W        W13385  11.862  11.808  10.956
49629W        W13386  38.373   5.736   4.249
49630W        W13387  27.094  20.260   1.890
49631W        W13388  35.928  29.580   1.788
49632W        W13389  37.425  22.106   0.363
49633W        W13390  29.622   3.267   2.413
49634W        W13391   1.264  35.069  12.022
49635W        W13392  41.396  42.499   3.385
49636W        W13393  40.834   6.425  14.463
49637W        W13394  35.053  18.791  10.499
49638W        W13395  23.566  39.919   0.382
49639W        W13396   3.835   9.708  10.437
49640W        W13397   0.914   4.364  14.026
49641W        W13398  17.066  39.400  12.559
49642W        W13399   3.863  30.618   2.365
49643W        W13400  37.930  22.058  11.926
49644W        W13401  26.078  27.578   0.327
49645W        W13402  42.786  25.029  11.602
49646W        W13403  25.994  44.261   3.154
49647W        W13404  37.386   4.338   0.741
49648W        W13405  27.610  10.864  14.912
49649W        W13406   9.842  37.070   1.235
49650W        W13407  28.052  19.082  14.006
49651W        W13408  25.164  30.063   2.764
49652W        W13409  16.153  42.418   1.423
49653W        W13410  14.743   6.342   0.420
49654W        W13411  33.527  23.170  11.071
49655W        W13412  25.543   3.746   3.248
49656W        W13413  22.696  17.720   4.284
49657W        W13414  33.579   8.896  14.513
49658W        W13415  18.175  44.423   4.168
49659W        W13416  37.353  38.981   3.750
49660W        W13417  33.554  34.896  13.486
49661W        W13418  15.686  40.545   4.647
49662W        W13419   1.447  12.798  11.478
49663W        W13420  14.696  23.041   0.821
49664W        W13421   4.334  42.027  14.788
49665W        W13422  22.152   3.253  12.534
49666W        W13423   7.264  20.125  11.523
49667W        W13424   1.901   1.465  12.383
49668W        W13425  13.716  18.547  13.416
49669W        W13426  25.702  43.341   4.220
49670W        W13427  18.590  22.230  14.900
49671W        W13428  18.673   9.199   4.153
49672W        W13429  35.986  35.990   3.155
49673W        W13430  33.924  16.750   0.761
49674W        W13431  18.247  13.134  11.499
49675W        W13432  14.787  40.799   1.302
49676W        W13433  28.137  32.122   1.422
49677W        W13434   3.867  22.537  13.454
49678W        W13435  38.466  39.538  13.547
49679W        W13436   3.457  39.551  12.068
49680W        W13437  12.276  12.207   3.283
49681W        W13438  35.487  38.500   3.381
49682W        W13439  26.174  31.000   4.785
49683W        W13440  40.337  25.674  12.065
49684W        W13441   0.276  36.978   3.307
49685W        W13442  10.305  16.567   2.355
49686W        W13443  34.962  13.790   2.840
49687W        W13444  20.144   4.794  11.451
49688W        W13445   6.867   6.779  10.894
49689W        W13446  11.215  13.710  14.319
49690W        W13447  22.105  41.972   0.256
49691W        W13448  29.063  20.144   4.775
49692W        W13449  22.564  12.675   5.251
49693W        W13450  41.967  39.500  13.536
49694W        W13451  28.045   9.149  12.385
49695W        W13452  26.628   6.234  13.950
49696W        W13453  35.403   3.795   3.817
49697W        W13454  41.300  27.574   4.134
49698W        W13455  10.282  28.665  11.125
49699W        W13456  30.063  16.166   5.112
49700W        W13457  19.064  22.225  14.814
49701W        W13458  30.983   7.820   4.658
49702W        W13459   6.247  33.592   3.701
49703W        W13460   6.749   2.344  11.124
49704W        W13461  20.570  22.019   2.238
49705W        W13462  36.550  27.037  10.458
49706W        W13463  30.955  35.415   1.355
49707W        W13464  39.404  43.901  14.941
49708W        W13465   7.366  14.224   0.831
49709W        W13466  27.183  26.971  12.430
49710W        W13467  31.001  38.912  13.008
49711W        W13468  37.838  35.566   0.326
49712W        W13469  10.642   2.382  12.930
49713W        W13470  26.502  10.349   2.197
49714W        W13471  24.606   0.419   3.174
49715W        W13472   9.710  40.950  12.430
49716W        W13473  43.312   0.288   3.341
49717W        W13474   1.937  25.046   1.855
49718W        W13475  16.755  33.919  10.627
49719W        W13476  33.118  30.593   4.599
49720W        W13477  42.920  10.772  12.443
49721W        W13478  35.088  27.993  12.073
49722W        W13479  35.386  35.579  12.487
49723W        W13480  43.441  44.505  14.337
49724W        W13481   5.213   7.796   0.279
49725W        W13482  35.018  12.265   0.851
49726W        W13483  41.815  26.058  10.949
49727W        W13484  28.172  28.561  11.536
49728W        W13485   2.369  10.248   3.726
49729W        W13486  40.019  33.894   3.801
49730W        W13487  16.702  44.484   0.325
49731W        W13488  39.377   5.856   0.736
49732W        W13489   4.900   2.734  11.464
49733W        W13490   0.836  33.125   4.678
49734W        W13491   6.806  26.644   1.794
49735W        W13492   4.932  21.604   9.968
49736W        W13493  40.820  35.864  12.434
49737W        W13494  18.557  24.665   0.822
49738W        W13495   5.722  22.021   2.278
49739W        W13496   9.752  24.189   4.306
49740W        W13497  19.627  11.727  10.933
49741W        W13498  23.200  11.788  10.474
49742W        W13499  40.880  32.601  11.977
49743W        W13500   5.723  19.702   1.845
49744W        W13501  36.562  44.404  12.559
49745W        W13502  19.611  35.376  10.952
49746W        W13503  29.652   9.339  11.941
49747W        W13504  29.153   8.353   3.741
49748W        W13505  30.132  16.082  13.539
49749W        W13506  17.275  13.342  12.053
49750W        W13507   3.344  29.933  10.406
49751W        W13508  24.990  39.431   4.126
49752W        W13509   7.359   5.300   2.733
49753W        W13510   9.194  15.290   4.833
49754W        W13511  33.615  23.984   1.723
49755W        W13512  38.019  39.041   4.784
49756W        W13513  23.113  14.299   4.671
49757W        W13514  22.508  22.142  13.319
49758W        W13515  35.047  26.563   4.320
49759W        W13516  14.117  21.694  13.432
49760W        W13517  26.570  25.146   4.167
49761W        W13518   2.462  27.570  14.776
49762W        W13519   1.253   8.394   3.205
49763W        W13520  23.986   6.346   4.697
49764W        W13521  40.940  33.951  12.478
49765W        W13522  21.050  17.735  13.979
49766W        W13523   4.742  20.577  12.055
49767W        W13524  11.302  21.098  12.466
49768W        W13525  17.065  35.024   0.793
49769W        W13526   3.922   2.845   1.365
49770W        W13527  14.239  29.446   5.157
49771W        W13528   7.251  26.522  14.307
49772W        W13529  39.410  42.883  12.519
49773W        W13530  10.312  24.704   2.731
49774W        W13531  11.854  41.477   1.312
49775W        W13532  24.056  20.250   4.347
49776W        W13533   6.395  44.442   5.322
49777W        W13534  38.030  28.033  12.032
49778W        W13535  41.422  38.379   3.306
49779W        W13536  12.685  24.167  12.983
49780W        W13537  34.954  11.709  10.580
49781W        W13538   5.765   6.315  11.915
49782W        W13539  39.540  38.464   0.915
49783W        W13540  11.812  31.932  14.822
49784W        W13541   0.867  19.269   0.963
49785W        W13542  14.683   2.447   2.733
49786W        W13543  37.866  14.633  11.057
49787W        W13544  15.816  14.210   3.853
49788W        W13545  25.154  42.799  10.467
49789W        W13546  32.623  27.961  11.527
49790W        W13547  31.142  27.024   3.829
49791W        W13548   8.354  26.045  12.526
49792W        W13549   1.910  28.062  11.049
49793W        W13550  27.455  17.205   1.791
49794W        W13551  25.689  20.764  13.399
49795W        W13552  32.483  29.116   0.439
49796W        W13553   6.194   2.747   2.371
49797W        W13554  25.041  29.665   1.387
49798W        W13555  12.247  39.953   2.317
49799W        W13556   1.864  41.886  12.952
49800W        W13557  18.638  30.559  14.466
49801W        W13558  33.893  16.792  12.514
49802W        W13559   9.732   3.751   1.323
49803W        W13560  22.617   4.354   4.342
49804W        W13561  11.226   4.293   0.271
49805W        W13562  19.263  36.543   0.245
49806W        W13563  32.593  36.385   3.754
49807W        W13564  19.756  27.582  12.026
49808W        W13565   0.850  17.647   0.463
49809W        W13566  10.344  40.895  12.068
49810W        W13567  19.285  32.636  13.801
49811W        W13568  17.281  26.599  12.480
49812W        W13569  28.181   8.381   3.164
49813W        W13570  21.575  22.142  10.439
49814W        W13571  14.691  38.050  11.897
49815W        W13572  24.700  25.605  10.918
49816W        W13573   2.469  35.935  11.888
49817W        W13574  37.975   2.249  11.555
49818W        W13575  19.591  41.824  13.840
49819W        W13576  41.013  32.634  12.476
49820W        W13577   6.249  12.183   2.684
49821W        W13578  13.727  10.688  13.807
49822W        W13579  29.497  21.203   3.236
49823W        W13580   2.940  43.283   3.290
49824W        W13581  22.716   3.360   5.164
49825W        W13582  44.005  24.574  11.892
49826W        W13583  28.019  35.383   3.226
49827W        W13584  38.425   4.392   0.324
49828W        W13585   6.835  30.584  11.407
49829W        W13586   3.841  18.646  13.899
49830W        W13587  29.922  33.124   4.787
49831W        W13588  34.897  12.700   4.191
49832W        W13589  21.213  43.441  12.870
49833W        W13590   5.724  33.579   4.710
49834W        W13591  41.006  32.905  11.425
49835W        W13592  25.967  10.839  12.463
49836W        W13593  39.396  10.841   3.717
49837W        W13594  41.475   0.849   1.440
49838W        W13595  39.893   3.219   0.931
49839W        W13596  19.733  24.677   1.792
49840W        W13597  33.055  26.163  13.528
49841W        W13598  43.386  43.848   3.232
49842W        W13599  43.794  18.609  14.403
49843W        W13600  33.515   6.359   4.120
49844W        W13601  28.595   6.702   2.824
49845W        W13602  16.174  43.429   4.145
49846W        W13603  25.531  40.464  14.454
49847W        W13604  32.476  25.616   4.201
49848W        W13605  11.303  27.562  10.614
49849W        W13606  13.714  41.794  10.601
49850W        W13607  32.481   0.835   3.357
49851W        W13608   0.854  14.213   5.239
49852W        W13609  20.635  28.661   4.126
49853W        W13610  26.494  25.647   3.745
49854W        W13611  13.624  22.075  10.545
49855W        W13612  21.062  28.442   3.148
49856W        W13613  44.782  44.337   2.769
49857W        W13614  13.189  13.305  13.395
49858W        W13615  19.697  17.141   0.749
49859W        W13616  29.547  39.862  11.403
49860W        W13617   6.749  30.051  12.400
49861W        W13618  15.328  31.523   3.175
49862W        W13619   4.312  41.387  13.379
49863W        W13620  11.802   4.715   4.191
49864W        W13621   3.889  24.184  13.414
49865W        W13622  18.606  33.445  11.079
49866W        W13623  17.180   1.787  11.377
49867W        W13624  15.249  19.191   2.407
49868W        W13625  19.144  36.965  11.379
49869W        W13626  18.243   6.212  13.981
49870W        W13627  25.095  29.980  13.942
49871W        W13628  20.121   1.292  14.303
49872W        W13629  44.357  40.988   4.824
49873W        W13630   1.908  36.580  13.900
49874W        W13631  35.528  29.947  12.517
49875W        W13632  36.573   8.673  14.821
49876W        W13633  34.914   9.197   2.802
49877W        W13634  14.235  18.765   3.229
49878W        W13635  17.272  26.554   1.755
49879W        W13636   4.345  33.463   0.334
49880W        W13637  35.957   7.277   3.185
49881W        W13638  39.012  28.580   2.836
49882W        W13639  43.438  21.678  13.432
49883W        W13640  14.254  33.528  12.529
49884W        W13641  13.292  35.873  11.982
49885W        W13642  43.451  23.103  14.450
49886W        W13643  44.264  30.000   3.305
49887W        W13644  43.958  33.517   1.860
49888W        W13645  26.625  22.652   2.744
49889W        W13646  11.263  31.008   1.849
49890W        W13647  36.565  42.011   2.837
49891W        W13648  37.960  25.044  14.278
49892W        W13649  19.051  32.438  14.391
49893W        W13650  37.338   0.865  10.076
49894W        W13651  13.204   1.978   1.311
49895W        W13652  11.140  32.515   0.445
49896W        W13653  41.836  14.714  14.408
49897W        W13654  33.997   6.843   2.670
49898W        W13655  15.694  10.632  10.610
49899W        W13656  16.574  23.996  11.906
49900W        W13657  23.185   4.756  10.585
49901W        W13658  30.534  16.769  12.984
49902W        W13659   8.374  18.218  10.542
49903W        W13660  13.813   9.163   3.868
49904W        W13661  21.212  36.998  13.485
49905W        W13662  19.130   3.754  12.369
49906W        W13663  11.680  10.822  13.905
49907W        W13664  37.900  22.523   3.679
49908W        W13665   1.958  32.037   4.127
49909W        W13666   2.327  32.576  10.618
49910W        W13667  16.581  15.590   1.350
49911W        W13668   0.950  28.665   3.764
49912W        W13669  21.136  28.527  13.479
49913W        W13670  22.055   6.684   0.392
49914W        W13671  16.208  15.598   4.189
49915W        W13672  10.763  23.080   1.428
49916W        W13673  41.304  13.206  11.547
49917W        W13674  39.039  36.913   1.897
49918W        W13675  31.069   4.402  14.978
49919W        W13676  44.957  36.085  11.499
49920W        W13677  22.185  36.520   4.311
49921W        W13678   6.759   9.746  11.464
49922W        W13679   2.449  30.026  12.023
49923W        W13680  36.845  25.043  11.573
49924W        W13681  35.932   4.263  11.540
49925W        W13682  29.581  38.868  10.443
49926W        W13683  44.410   2.866   1.898
49927W        W13684  25.632  15.641  13.851
49928W        W13685  42.985  11.656  14.812
49929W        W13686  28.113  36.892  14.834
49930W        W13687  29.950  24.048  12.448
49931W        W13688   7.407   1.271  14.781
49932W        W13689  41.965  43.963   1.911
49933W        W13690  21.638   6.733  12.412
49934W        W13691  22.594  14.663  12.441
49935W        W13692  32.938  35.382   4.296
49936W        W13693  28.502  21.256   0.924
49937W        W13694  39.895  39.406  14.973
49938W        W13695   4.879  36.914   1.373
49939W        W13696   3.232  25.590   5.316
49940W        W13697  44.935  34.481   3.279
49941W        W13698  39.864  33.922   2.706
49942W        W13699  17.596  16.275  11.054
49943W        W13700  36.999   8.188  10.516
49944W        W13701  20.165  33.515   1.772
49945W        W13702  24.656  10.191  10.970
49946W        W13703  17.620  11.806  10.581
49947W        W13704  13.332  20.196   4.669
49948W        W13705  39.415  18.227  10.640
49949W        W13706  27.107  39.034   1.325
49950W        W13707   1.908  28.514  13.063
49951W        W13708   2.341   3.807   4.802
49952W        W13709  34.600  35.413  11.119
49953W        W13710  26.022  39.537   1.327
49954W        W13711  36.368  18.140   3.849
49955W        W13712  19.124  22.154   1.881
49956W        W13713  28.655   5.856   1.795
49957W        W13714  33.414  25.974   3.863
49958W        W13715  44.949  23.684  11.469
49959W        W13716   1.414  29.000   2.402
49960W        W13717  38.006  26.973  14.814
49961W        W13718  11.834  16.174  10.115
49962W        W13719  37.436  24.563  11.513
49963W        W13720  36.846  24.661  11.984
49964W        W13721   0.800  26.502   5.102
49965W        W13722   9.884   6.414  14.982
49966W        W13723  26.106  12.264   0.330
49967W        W13724  35.432  40.925   3.714
49968W        W13725   4.327  21.247  14.916
49969W        W13726  22.037  34.867  13.470
49970W        W13727  16.701  43.910   1.723
49971W        W13728   4.341   5.248  13.384
49972W        W13729  20.553  41.318   3.266
49973W        W13730   0.743  11.230   0.340
49974W        W13731  39.533   2.329   2.769
49975W        W13732  18.779  44.298  14.918
49976W        W13733  25.150  10.836  13.405
49977W        W13734   1.956  42.347  11.594
49978W        W13735  15.090  29.453  14.398
49979W        W13736   6.856  30.578   4.119
49980W        W13737  37.019  20.678   2.401
49981W        W13738   6.760  14.336  10.491
49982W        W13739   4.724  25.490   1.909
49983W        W13740  39.366   7.788   4.194
49984W        W13741  40.390  11.342   2.729
49985W        W13742  27.170  40.547   2.320
49986W        W13743  23.146  13.236  10.970
49987W        W13744  28.974   9.812  13.387
49988W        W13745   9.675  33.976   3.727
49989W        W13746  26.071  22.198  10.134
49990W        W13747  22.707   4.830  10.970
49991W        W13748  23.601  33.511   9.973
49992W        W13749  21.227  19.559   2.183
49993W        W13750  33.983  20.229   3.157
49994W        W13751   6.205  32.545   1.232
49995W        W13752   5.420  39.488   4.289
49996W        W13753  24.162   5.934   2.259
49997W        W13754  14.753   1.413   4.745
49998W        W13755   1.286  10.353   3.808
49999W        W13756  42.832  18.678   3.763
50000W        W13757  27.996  33.448  11.471
50001W        W13758  18.180  11.835  11.585
50002W        W13759   2.302  43.781   3.780
50003W        W13760  13.622  27.117   3.227
50004W        W13761  15.150  23.586  11.372
50005W        W13762  35.540  42.380  13.481
50006W        W13763   5.258  12.298  10.904
50007W        W13764  41.996  22.697  10.041
50008W        W13765  41.916   5.797   0.870
50009W        W13766  14.334  40.038  12.915
50010W        W13767   9.701   7.707  13.531
50011W        W13768   1.767  32.951   3.215
50012W        W13769  43.399  30.962   0.360
50013W        W13770  27.155  16.223   0.792
50014W        W13771  14.185  38.482  12.865
50015W        W13772  35.089  43.315   2.742
50016W        W13773  35.446  16.599   1.343
50017W        W13774  12.348  29.112   2.898
50018W        W13775   4.369  29.549  12.932
50019W        W13776   0.336  25.008   1.743
50020W        W13777  29.077  28.179   4.725
50021W        W13778   2.843   4.883  12.038
50022W        W13779  21.050  44.364  10.962
50023W        W13780  33.419  24.644  11.516
50024W        W13781  19.167  34.058   3.650
50025W        W13782  41.809  41.291  12.425
50026W        W13783   7.175  28.043  14.459
50027W        W13784  22.137  26.178   4.785
50028W        W13785  18.570  30.939   2.211
50029W        W13786  19.728   0.801   0.900
50030W        W13787  33.383  29.071  14.844
50031W        W13788  29.551   4.879  11.005
50032W        W13789  18.225  41.829   2.207
50033W        W13790  14.170   5.285  11.127
50034W        W13791  13.644  30.623   4.689
50035W        W13792  10.742   1.360   4.164
50036W        W13793  14.261   4.435  11.389
50037W        W13794  41.908  21.257  11.527
50038W        W13795  19.710  44.861   0.808
50039W        W13796  25.618  24.515  11.073
50040W        W13797  35.088  13.685   0.844
50041W        W13798   9.776   7.344  11.101
50042W        W13799  44.895  26.484  13.450
50043W        W13800  37.370  43.872   2.818
50044W        W13801  27.042   2.867  13.825
50045W        W13802  24.066  42.447   0.362
50046W        W13803  32.040   2.237  11.417
50047W        W13804  33.093  37.962  12.937
50048W        W13805  23.984  14.625   4.780
50049W        W13806   2.935  23.119   4.220
50050W        W13807   9.836  30.640  11.496
50051W        W13808  24.547  43.958   3.704
50052W        W13809  14.235  22.150   1.260
50053W        W13810  38.443  35.886   2.833
50054W        W13811  19.166  41.425   0.340
50055W        W13812  15.794  15.139   1.895
50056W        W13813   1.417   4.916   0.405
50057W        W13814  28.013   2.431   1.884
50058W        W13815  17.103  41.915   2.382
50059W        W13816  39.503  32.585   2.205
50060W        W13817   0.813  37.440  10.979
50061W        W13818  21.683  13.630   2.390
50062W        W13819  33.101  22.550   2.401
50063W        W13820  14.652  23.533  14.421
50064W        W13821   1.463  20.714   1.298
50065W        W13822   1.965  16.125  11.069
50066W        W13823  29.101  22.586  14.932
50067W        W13824  41.848  27.068   1.887
50068W        W13825  32.614  39.327   1.749
50069W        W13826  11.246  14.725   3.679
50070W        W13827  34.101  36.841  10.516
50071W        W13828   1.753   3.449  12.918
50072W        W13829  15.313  11.298  13.332
50073W        W13830  16.214   5.735  10.505
50074W        W13831  11.627   1.956   2.702
50075W        W13832  18.612   8.894  10.991
50076W        W13833  26.649   9.848   1.432
50077W        W13834  40.045   8.269   3.682
50078W        W13835  16.755   4.783   1.869
50079W        W13836  33.606  16.585  12.967
50080W        W13837  31.098   5.394  14.404
50081W        W13838  17.699  13.311  14.431
50082W        W13839   2.282  24.145  11.918
50083W        W13840  40.005  17.239   1.790
50084W        W13841  11.324   0.261   5.174
50085W        W13842  20.216   2.316   0.355
50086W        W13843  43.951  14.131   4.761
50087W        W13844  15.716  17.068  11.381
50088W        W13845  23.121   5.787  12.508
50089W        W13846  26.068  10.822   0.741
50090W        W13847   4.328  26.579  11.433
50091W        W13848  39.976  16.096  14.774
50092W        W13849  40.824   9.884  14.016
50093W        W13850  11.669  25.095  10.563
50094W        W13851  44.921   8.308  11.601
50095W        W13852   5.438  38.339  14.910
50096W        W13853  11.281  34.403   3.665
50097W        W13854   1.964   5.212  11.948
50098W        W13855  39.886  38.446  10.470
50099W        W13856  20.134  21.230   0.340
50100W        W13857   9.363  36.087   4.283
50101W        W13858  14.172   0.983  11.436
50102W        W13859  23.066  39.428  12.845
50103W        W13860   0.469  17.681  14.386
50104W        W13861  26.518  15.254  10.887
50105W        W13862  39.457  15.124   3.348
50106W        W13863  40.044  27.044  14.390
50107W        W13864  18.679   9.829  13.815
50108W        W13865  35.992  12.172  13.422
50109W        W13866  40.344  43.406   1.441
50110W        W13867  18.639   7.678  11.081
50111W        W13868  12.342  31.538  14.445
50112W        W13869  43.863  16.149  13.944
50113W        W13870  12.345  15.672  13.898
50114W        W13871  34.967   9.212  10.579
50115W        W13872  23.586  19.206  12.980
50116W        W13873  19.671  20.269  12.092
50117W        W13874  13.196  28.643  12.504
50118W        W13875  43.402  16.673  13.830
50119W        W13876  33.070  16.766   1.434
50120W        W13877  33.981  31.470  10.537
50121W        W13878  11.855  18.557   1.786
50122W        W13879  11.230  22.064  13.795
50123W        W13880   9.216  35.494  13.028
50124W        W13881   3.249  33.620   1.815
50125W        W13882  38.029  19.229  12.346
50126W        W13883  38.553  31.127   1.428
50127W        W13884   5.355  39.383   1.875
50128W        W13885  12.243  28.133  10.583
50129W        W13886  41.508  31.634   2.237
50130W        W13887  12.168  39.023  11.933
50131W        W13888  28.974   3.766  11.125
50132W        W13889  34.423  23.135   0.430
50133W        W13890  25.592  23.164   4.189
50134W        W13891   1.265  41.900   1.806
50135W        W13892  26.485  10.735   1.858
50136W        W13893   8.285  13.174   2.268
50137W        W13894  27.081  36.085  13.450
50138W        W13895  10.717   0.917   4.166
50139W        W13896  34.043  34.904  14.782
50140W        W13897   9.165  32.909  13.314
50141W        W13898   2.827  16.086  11.106
50142W        W13899  30.947   8.246   4.127
50143W        W13900  22.543  37.871  11.433
50144W        W13901  39.834  14.324  10.413
50145W        W13902  28.094  18.098  10.440
50146W        W13903  41.416   6.910  10.405
50147W        W13904  14.306  33.455  10.917
50148W        W13905  40.842  35.074  12.481
50149W        W13906  36.069  25.038   2.380
50150W        W13907  35.584  41.970   2.275
50151W        W13908  29.570  26.524  12.890
50152W        W13909   7.205  43.787   9.962
50153W        W13910  26.472  33.023   4.282
50154W        W13911  11.217  38.934   4.648
50155W        W13912  22.118  20.522  10.912
50156W        W13913  21.589  32.550   3.642
50157W        W13914  35.526   3.731  13.869
50158W        W13915  18.719  18.751  14.332
50159W        W13916   8.237   9.771  14.853
50160W        W13917  33.398  22.635   4.248
50161W        W13918  11.301  12.291  14.876
50162W        W13919  26.180  29.081  11.592
50163W        W13920  30.065  36.486  12.545
50164W        W13921  17.219  25.572  14.474
50165W        W13922  36.422  25.143  12.517
50166W        W13923  34.966  23.186   1.929
50167W        W13924  12.734   6.729   1.839
50168W        W13925  14.804   7.706   3.361
50169W        W13926  28.554   1.911   0.815
50170W        W13927  41.344  39.025   4.726
50171W        W13928   8.870  41.430  10.563
50172W        W13929  27.123  17.708  14.290
50173W        W13930  43.948  25.194  11.912
50174W        W13931  14.785  33.510  11.508
50175W        W13932  39.901  14.100   1.245
50176W        W13933   1.389  16.127   1.917
50177W        W13934  11.299  32.111  12.364
50178W        W13935  14.146  19.554  14.305
50179W        W13936   3.901  21.566   1.858
50180W        W13937  35.067  24.523   2.319
50181W        W13938  12.668   2.960   4.807
50182W        W13939  24.036  36.521   1.823
50183W        W13940  40.859  42.824   0.383
50184W        W13941  13.608  42.028  11.075
50185W        W13942  22.598  41.814  12.490
50186W        W13943  21.026   1.855   2.774
50187W        W13944   7.907  35.869   0.344
50188W        W13945  20.745  27.579  11.050
50189W        W13946  27.953  16.074   4.145
50190W        W13947  39.515   7.685   2.374
50191W        W13948  43.808  15.787  14.850
50192W        W13949  19.572  29.087   3.298
50193W        W13950   3.762  35.945  12.872
50194W        W13951  24.986  38.822  12.505
50195W        W13952  24.616  23.604   3.729
50196W        W13953   6.327  44.836   5.112
50197W        W13954  31.476  30.039  13.333
50198W        W13955  21.189  17.706   0.290
50199W        W13956   5.763  21.100   2.299
50200W        W13957  20.156  14.719   5.587
50201W        W13958   4.215   5.781  13.473
50202W        W13959  35.057  31.038   1.711
50203W        W13960  26.007   2.408  14.482
50204W        W13961  44.894   7.346  12.847
50205W        W13962  29.630  18.174  13.884
50206W        W13963   9.345  28.562   3.710
50207W        W13964   4.242  11.184   2.700
50208W        W13965  23.489  21.700   3.657
50209W        W13966  17.701  28.945   1.901
50210W        W13967  15.609  20.649  13.007
50211W        W13968   8.678   8.898   3.837
50212W        W13969   0.960  33.414   2.375
50213W        W13970  18.759  35.019   2.731
50214W        W13971  33.927  10.815   2.807
50215W        W13972  26.482  35.451   3.854
50216W        W13973  37.990  22.069   2.888
50217W        W13974  35.496   9.225   3.200
50218W        W13975   3.391   7.748   2.855
50219W        W13976   1.918   2.342  10.463
50220W        W13977   9.289  32.004   2.300
50221W        W13978   8.795   4.369   2.846
50222W        W13979  13.156  13.657   3.679
50223W        W13980  15.199   4.761  11.041
50224W        W13981  37.360   6.902  12.507
50225W        W13982  13.670   6.235   3.165
50226W        W13983  41.916  43.291  12.383
50227W        W13984  13.237  20.031  14.774
50228W        W13985   6.352  22.630  12.019
50229W        W13986  17.224  19.202  12.937
50230W        W13987  10.802  38.331  12.398
50231W        W13988   9.390  24.579  11.929
50232W        W13989  29.980  34.085  11.472
50233W        W13990  41.809  25.691  11.444
50234W        W13991  24.642  39.319  10.606
50235W        W13992  37.084  10.867  12.078
50236W        W13993  17.066  35.584   1.862
50237W        W13994  10.229  35.039   1.820
50238W        W13995   1.412  30.564   2.232
50239W        W13996  44.975  21.689  13.859
50240W        W13997  19.061  23.705  11.028
50241W        W13998  20.037  21.101  12.907
50242W        W13999  18.183  34.590  12.576
50243W        W14000   5.805  31.503   0.941
50244W        W14001   7.882  10.842   4.343
50245W        W14002   7.260  17.277  11.447
50246W        W14003  14.306  34.574  11.881
50247W        W14004  38.965   0.254   3.236
50248W        W14005  34.402   2.273  11.595
50249W        W14006   2.724   4.809  14.387
50250W        W14007  44.363  44.502  10.888
50251W        W14008  22.591  11.191   3.386
50252W        W14009  22.155  14.682  12.036
50253W        W14010   3.747  13.311  12.061
50254W        W14011  20.070  38.001   4.826
50255W        W14012  34.032  33.402  12.015
50256W        W14013  27.127  27.078   2.337
50257W        W14014  20.695   3.723  14.865
50258W        W14015  36.089  34.965  11.457
50259W        W14016  26.057  14.796   0.479
50260W        W14017   1.393   3.397   1.770
50261W        W14018   2.301   3.725   0.890
50262W        W14019  40.372  44.326   4.674
50263W        W14020  22.660   3.427  11.528
50264W        W14021  25.174  26.621  14.296
50265W        W14022  38.939   3.336   0.287
50266W        W14023  38.378  36.888  13.861
50267W        W14024  23.238   0.282   2.818
50268W        W14025   3.887  25.213  10.145
50269W        W14026  22.088   1.836  13.355
50270W        W14027   7.181  12.819   3.365
50271W        W14028  39.818  24.985   0.948
50272W        W14029  11.706   8.163  13.943
50273W        W14030  18.627  23.217  12.474
50274W        W14031  24.116  35.914   3.647
50275W        W14032   2.243  38.999   1.760
50276W        W14033  41.817  31.502  11.941
50277W        W14034  13.806  27.510  10.499
50278W        W14035  12.307  30.470   1.707
50279W        W14036  40.013  15.610  13.505
50280W        W14037  15.176  28.496  12.541
50281W        W14038  18.622  21.612   0.953
50282W        W14039  30.651  30.002  11.120
50283W        W14040  17.149  28.025   3.740
50284W        W14041   2.228  20.138  11.487
50285W        W14042  37.350   6.317  11.945
50286W        W14043  20.173  24.103   1.789
50287W        W14044   2.749  40.353  14.360
50288W        W14045  11.254   0.938   0.325
50289W        W14046  20.596  31.413   2.768
50290W        W14047  32.938  25.962  11.017
50291W        W14048  23.535  10.341  14.303
50292W        W14049  39.323   5.428   2.750
50293W        W14050  40.968  29.156   0.900
50294W        W14051  18.166  16.162  13.011
50295W        W14052  30.510  11.272  13.431
50296W        W14053  34.509  24.721  10.562
50297W        W14054   1.949  39.472   2.880
50298W        W14055  15.251  18.085  12.044
50299W        W14056  42.814  12.290   4.145
50300W        W14057  36.392  21.054   4.685
50301W        W14058  17.716  21.619  11.526
50302W        W14059  12.300  37.495  12.444
50303W        W14060  37.494  23.222  12.052
50304W        W14061  36.347  38.946  14.922
50305W        W14062   0.986  34.981   0.360
50306W        W14063  22.024  15.747  14.863
50307W        W14064  34.085   5.231  11.941
50308W        W14065  13.108  29.144  11.928
50309W        W14066  26.087  21.735  12.498
50310W        W14067  22.055  21.256  12.012
50311W        W14068  16.767  37.972  11.054
50312W        W14069  43.490  35.991   0.252
50313W        W14070  18.260  34.928  12.421
50314W        W14071   0.357  13.636   0.288
50315W        W14072   5.787  14.106  14.457
50316W        W14073  33.574  37.557  11.963
50317W        W14074  16.090  38.931  14.814
50318W        W14075   2.866  29.507   2.722
50319W        W14076  39.417   6.755   0.949
50320W        W14077  18.223  40.308   1.875
50321W        W14078  43.981   7.673  13.984
50322W        W14079  35.088   8.192  11.412
50323W        W14080  23.620   9.372   4.731
50324W        W14081  27.000  40.978   4.632
50325W        W14082  11.670  35.359   0.257
50326W        W14083   0.839  35.857  12.912
50327W        W14084  23.623  41.824  14.815
50328W        W14085  24.619  12.358  14.878
50329W        W14086  28.642  17.280   0.268
50330W        W14087  25.169  15.810   1.316
50331W        W14088   5.399  30.543   4.175
50332W        W14089  40.850  28.180  14.358
50333W        W14090   0.833  25.967  10.493
50334W        W14091  24.981  18.265  14.859
50335W        W14092   5.759  14.172  13.883
50336W        W14093  29.478  18.277   3.645
50337W        W14094  39.350  34.015   3.676
50338W        W14095   3.224  14.607  12.956
50339W        W14096   4.945   6.809   3.269
50340W        W14097  16.072  42.954  11.506
50341W        W14098  14.143  22.596  12.901
50342W        W14099  31.459   7.321   2.346
50343W        W14100   0.790  39.420   2.861
50344W        W14101  17.591  21.527  10.405
50345W        W14102  27.153  37.447   5.294
50346W        W14103  40.005   8.405   3.155
50347W        W14104   0.951  21.570   4.733
50348W        W14105  32.972  13.707   4.729
50349W        W14106   5.288   0.932   0.368
50350W        W14107  40.999  21.744  12.094
50351W        W14108  27.159  39.344  12.880
50352W        W14109  11.789  24.117   3.157
50353W        W14110  27.006  36.006  11.561
50354W        W14111  19.086  37.041   1.904
50355W        W14112  39.031  37.028  11.423
50356W        W14113  30.947  32.524   0.889
50357W        W14114  40.826  17.747   2.687
50358W        W14115  40.808  28.484  14.915
50359W        W14116  30.961  35.914   2.863
50360W        W14117  40.853  23.716   2.892
50361W        W14118   1.318   2.811  11.506
50362W        W14119  27.690  25.576  11.869
50363W        W14120  23.602  14.805   2.293
50364W        W14121  39.380  18.268  14.792
50365W        W14122  37.443   5.811   2.408
50366W        W14123  33.930  16.192   3.679
50367W        W14124  26.501  12.706  12.907
50368W        W14125  23.104  35.893   2.373
50369W        W14126   0.911  24.660  14.515
50370W        W14127   3.251  11.664   1.261
50371W        W14128  41.008  24.059   1.320
50372W        W14129  32.488  33.403  11.076
50373W        W14130   5.694  10.782   1.794
50374W        W14131  13.643  36.587   2.663
50375W        W14132  30.586  22.169   0.335
50376W        W14133  16.104  22.122   0.939
50377W        W14134  14.790  31.501   3.306
50378W        W14135  20.113  13.257   1.853
50379W        W14136  32.928   3.445   5.202
50380W        W14137  35.094  40.880  12.000
50381W        W14138  15.660  19.558  14.991
50382W        W14139  33.440  33.533   2.828
50383W        W14140  38.391  44.896  10.582
50384W        W14141   0.366  43.416  12.033
50385W        W14142  32.129   0.434  10.558
50386W        W14143  11.837  43.862   5.585
50387W        W14144   3.236  25.593   3.149
50388W        W14145  31.896  23.723  11.104
50389W        W14146   8.303  41.389  13.964
50390W        W14147   7.813  18.208  12.345
50391W        W14148  31.629  28.127   9.602
50392W        W14149  33.592  10.217  12.846
50393W        W14150  18.779  16.300  10.022
50394W        W14151  11.839   2.320  14.349
50395W        W14152  41.428  32.007  14.774
50396W        W14153  16.588   9.233  14.908
50397W        W14154  44.913   3.368  11.445
50398W        W14155   9.201  17.183  11.947
50399W        W14156  17.683  42.496  13.026
50400W        W14157  26.181   6.235  13.378
50401W        W14158  13.609  36.378  12.884
50402W        W14159   2.472  19.240   1.225
50403W        W14160  17.648  32.008   0.289
50404W        W14161   7.386  13.209   1.240
50405W        W14162  39.384   0.431   1.397
50406W        W14163  33.506  29.425  13.498
50407W        W14164  14.749  44.472  13.032
50408W        W14165  30.446  41.907  14.417
50409W        W14166  25.531  37.959  14.374
50410W        W14167  42.519   1.845  10.639
50411W        W14168  44.424  37.393  11.040
50412W        W14169  10.231  39.505  11.949
50413W        W14170  32.115  21.137  13.011
50414W        W14171  44.931  37.002  12.554
50415W        W14172   7.905  14.333  12.550
50416W        W14173  17.177  42.836  13.508
50417W        W14174  19.774   3.457  13.856
50418W        W14175   2.747  20.758   2.357
50419W        W14176  11.325  33.008  11.126
50420W        W14177  22.655  38.555   3.319
50421W        W14178   9.870  10.172   0.339
50422W        W14179   8.183  25.542  10.470
50423W        W14180  33.074  20.232   2.301
50424W        W14181  36.026  12.829   4.223
50425W        W14182  26.196  43.366   4.171
50426W        W14183   3.403   4.811  14.509
50427W        W14184   7.837   5.203   1.213
50428W        W14185  43.386  44.951  11.952
50429W        W14186  11.129  19.735  12.568
50430W        W14187  30.483   6.768   0.832
50431W        W14188  18.099   8.317  12.553
50432W        W14189  16.237   2.456  14.769
50433W        W14190  34.490   8.344   2.684
50434W        W14191  10.876  39.005  12.955
50435W        W14192  27.080  13.145   3.679
50436W        W14193  13.826  44.879   1.446
50437W        W14194  22.227  44.398   3.165
50438W        W14195  27.998  19.572   1.375
50439W        W14196  14.694  37.393   2.824
50440W        W14197  21.094  36.997  14.804
50441W        W14198  24.087  14.276   5.157
50442W        W14199   1.454  35.879  14.378
50443W        W14200   7.788  26.682  11.521
50444W        W14201  15.682  27.970  12.932
50445W        W14202   9.327  33.043  10.513
50446W        W14203  31.483   3.372  13.539
50447W        W14204   5.206  18.561  14.276
50448W        W14205  14.644  19.747   9.958
50449W        W14206  39.372  34.414  10.943
50450W        W14207  27.116  32.562  11.935
50451W        W14208   5.370  31.642  10.442
50452W        W14209  21.636   5.764  12.877
50453W        W14210  22.624   9.787   1.743
50454W        W14211  27.144  30.128   1.237
50455W        W14212   5.312  32.627   3.257
50456W        W14213   9.692  12.221   4.744
50457W        W14214  34.418  24.672  11.580
50458W        W14215  26.579  15.110   4.293
50459W        W14216   9.350  27.154  12.025
50460W        W14217  35.068  16.293   2.768
50461W        W14218  21.162   1.419  12.426
50462W        W14219  27.991  24.575   1.298
50463W        W14220  31.901  11.224  11.914
50464W        W14221  40.906  40.856   1.257
50465W        W14222   0.742  42.291   2.739
50466W        W14223  22.738  38.830   1.352
50467W        W14224  28.447  14.746  13.464
50468W        W14225  41.806  13.344  14.820
50469W        W14226  41.852  12.136  12.406
50470W        W14227  21.581  40.369  12.968
50471W        W14228  25.175  37.929  12.021
50472W        W14229   3.409  37.480   1.858
50473W        W14230  25.038  39.493  11.035
50474W        W14231  12.299  15.170  12.042
50475W        W14232   0.444   2.938   2.837
50476W        W14233  33.115  29.056   1.274
50477W        W14234  17.264  43.337   1.317
50478W        W14235  36.528  22.252  13.481
50479W        W14236  36.385  13.281  10.489
50480W        W14237   5.305  34.034   0.430
50481W        W14238  31.019  26.172   3.643
50482W        W14239  10.686  42.426  11.925
50483W        W14240   3.754   8.788  13.852
50484W        W14241  21.088   0.385   2.302
50485W        W14242   3.457   1.454   2.783
50486W        W14243  21.730  10.217   1.414
50487W        W14244  20.262  15.169   2.411
50488W        W14245   3.221   2.810   4.659
50489W        W14246  17.116  21.604   4.703
50490W        W14247  28.673  23.621  12.570
50491W        W14248  26.170  27.036   1.220
50492W        W14249  24.974   3.339   3.745
50493W        W14250   1.785  26.474  14.289
50494W        W14251  42.023  42.471  12.530
50495W        W14252  30.949  31.439  14.012
50496W        W14253  18.234  25.981  11.027
50497W        W14254  12.238  38.374   2.393
50498W        W14255  26.653  31.928   2.317
50499W        W14256   9.650  39.331   4.739
50500W        W14257   6.336  12.301   2.317
50501W        W14258  41.914   6.706   3.774
50502W        W14259   3.866  39.510   1.327
50503W        W14260  24.191  17.680  13.346
50504W        W14261  16.194  20.582  12.426
50505W        W14262  23.157   4.706   4.284
50506W        W14263  20.602   4.423  13.917
50507W        W14264  16.811  36.003   0.841
50508W        W14265  43.317  27.189  13.370
50509W        W14266  18.672  17.158  11.985
50510W        W14267   3.927  37.423   3.775
50511W        W14268  35.545  23.200   3.266
50512W        W14269  22.614  26.664   2.318
50513W        W14270   6.755  35.419   0.932
50514W        W14271  24.219  11.845  12.395
50515W        W14272  30.053  25.140   0.313
50516W        W14273  34.509  26.527  13.850
50517W        W14274  21.159  38.841   1.263
50518W        W14275  27.030  38.508   1.887
50519W        W14276  33.521   3.455   0.383
50520W        W14277   8.805  15.120  10.988
50521W        W14278  28.081  13.140   5.163
50522W        W14279   0.467  21.740   2.192
50523W        W14280   7.345  39.458   2.348
50524W        W14281  14.094  11.238  13.498
50525W        W14282   3.950   4.827  13.855
50526W        W14283  39.949  30.460   1.816
50527W        W14284  17.639  35.593  12.472
50528W        W14285  27.578  30.435  11.866
50529W        W14286  14.112  15.248  13.376
50530W        W14287  11.645  16.096   2.308
50531W        W14288  41.320  23.996  13.416
50532W        W14289  32.583   6.307   2.837
50533W        W14290  13.105  13.701   2.291
50534W        W14291  13.681  41.031  14.844
50535W        W14292  29.600  39.363  14.929
50536W        W14293  13.782  38.383  10.954
50537W        W14294  30.158  14.194   0.276
50538W        W14295  35.459  28.117   2.884
50539W        W14296  17.174  33.473   4.748
50540W        W14297  24.078  28.652  14.379
50541W        W14298  19.615  11.281   4.732
50542W        W14299  15.608  34.965   1.778
50543W        W14300  39.408   2.914   4.176
50544W        W14301   5.894  20.681  11.101
50545W        W14302   3.846  44.009   2.781
50546W        W14303  34.024  29.063  12.488
50547W        W14304   7.780   9.200   2.373
50548W        W14305  25.639   7.203   5.314
50549W        W14306  33.085   3.331  14.855
50550W        W14307  44.313  16.072   2.668
50551W        W14308  28.150  10.330   3.705
50552W        W14309  21.590  21.619  14.282
50553W        W14310  23.510  23.634   4.247
50554W        W14311  16.692  39.471  11.020
50555W        W14312  40.537  21.183   4.835
50556W        W14313  13.279  29.935   3.270
50557W        W14314  42.527  14.773  12.498
50558W        W14315   4.395   0.285   1.278
50559W        W14316  22.521   1.955  10.542
50560W        W14317  31.031  36.515   2.307
50561W        W14318  34.478   1.815  13.363
50562W        W14319  21.231  13.204   3.370
50563W        W14320   0.978  30.955  11.947
50564W        W14321  42.375  11.829   2.684
50565W        W14322  28.963  33.902   0.887
50566W        W14323  37.046  31.476   0.818
50567W        W14324  27.549  39.971  11.395
50568W        W14325  21.017  37.870  11.434
50569W        W14326  19.718   8.836  12.357
50570W        W14327  23.492   2.278  12.067
50571W        W14328  22.694  15.208   4.302
50572W        W14329  20.078  28.620   3.728
50573W        W14330  34.907  11.319  12.567
50574W        W14331  43.481  38.567  11.004
50575W        W14332  21.189   9.739  11.024
50576W        W14333  31.596   1.463  11.018
50577W        W14334   2.285  31.126   1.236
50578W        W14335  33.001  18.137   2.840
50579W        W14336  23.062  33.126   3.279
50580W        W14337   2.241  37.070  10.927
50581W        W14338  21.681  32.452   4.680
50582W        W14339   3.314  43.898  14.401
50583W        W14340  36.049   6.813   2.711
50584W        W14341   5.376  17.743  11.973
50585W        W14342  21.587  22.680  12.366
50586W        W14343  42.312  44.310  12.911
50587W        W14344  31.010  35.393  12.563
50588W        W14345  40.955  39.389   3.763
50589W        W14346  25.070  37.858  14.438
50590W        W14347   7.906  44.904   2.285
50591W        W14348  13.781   2.755   4.202
50592W        W14349  10.744  23.998  12.401
50593W        W14350  15.219  33.972  13.437
50594W        W14351  17.154   6.330   0.880
50595W        W14352  16.625  17.708   0.247
50596W        W14353  19.703   3.242  11.975
50597W        W14354  14.132  36.043  13.879
50598W        W14355   3.793  18.140  12.881
50599W        W14356  38.464   8.842   4.642
50600W        W14357   1.357  12.118  10.972
50601W        W14358  11.745   4.431   1.334
50602W        W14359   2.781  33.547  11.941
50603W        W14360  14.321   2.465  14.287
50604W        W14361  18.193   9.858  13.867
50605W        W14362  36.970   9.677   0.408
50606W        W14363  23.622   8.314  12.381
50607W        W14364  21.693   9.888  13.849
50608W        W14365  35.437  27.471  14.765
50609W        W14366  41.846  33.123   2.717
50610W        W14367  19.611  24.601  12.052
50611W        W14368  39.008   1.887  11.469
50612W        W14369   5.405  33.389   3.737
50613W        W14370   7.349  25.103  12.493
50614W        W14371  41.375  41.982  11.590
50615W        W14372  31.468  28.996   0.267
50616W        W14373  40.400  33.586  13.832
50617W        W14374  31.474   1.936  10.429
50618W        W14375  41.413  25.541  14.786
50619W        W14376  43.857  32.925   1.250
50620W        W14377  19.664  23.520  11.041
50621W        W14378  11.817  43.774   3.186
50622W        W14379  41.382  38.919  10.487
50623W        W14380  10.815  10.773  12.525
50624W        W14381  15.819  19.576  10.110
50625W        W14382  30.932  14.335   5.248
50626W        W14383  39.990  16.219  14.477
50627W        W14384   7.832  13.795  11.424
50628W        W14385  26.167  10.644  10.449
50629W        W14386  41.423  14.787   2.248
50630W        W14387   0.377   7.753  10.526
50631W        W14388  10.263  21.141  13.818
50632W        W14389  33.113   8.251   0.939
50633W        W14390  11.159  24.201   3.785
50634W        W14391  41.858  23.196   0.327
50635W        W14392  31.630  18.121  10.417
50636W        W14393  36.482  15.763   4.690
50637W        W14394  35.861  43.498   3.382
50638W        W14395  15.230  27.145   3.657
50639W        W14396  36.459  36.887   1.893
50640W        W14397  29.522  44.892  13.519
50641W        W14398  29.938   5.233  12.966
50642W        W14399  23.581  36.045   1.263
50643W        W14400  36.446   3.727  12.434
50644W        W14401   5.415  37.007   4.641
50645W        W14402   1.797  22.252  14.932
50646W        W14403  27.657   7.238  12.954
50647W        W14404  27.470  44.007  10.887
50648W        W14405  17.561  18.710  10.895
50649W        W14406  35.870  26.665  11.886
50650W        W14407  23.192  14.151  12.511
50651W        W14408  39.831  41.883  11.087
50652W        W14409  30.656  22.106   1.789
50653W        W14410  39.861  38.962  12.974
50654W        W14411  36.438  10.366  10.904
50655W        W14412   0.860  14.175  13.522
50656W        W14413  37.928  34.470  10.557
50657W        W14414  12.244   9.770   1.322
50658W        W14415  35.496  38.510  11.998
50659W        W14416  25.987  17.101  11.459
50660W        W14417   1.426  19.682  14.829
50661W        W14418   0.790  10.871   2.796
50662W        W14419   0.826   0.395  10.129
50663W        W14420  19.646  19.245  12.560
50664W        W14421   9.761  32.589  13.803
50665W        W14422  20.527   5.754   4.730
50666W        W14423  11.267  32.621   4.807
50667W        W14424  20.522  14.675  13.039
50668W        W14425  27.667  31.099  12.013
50669W        W14426  16.715  37.875  11.381
50670W        W14427  24.976  40.905   3.823
50671W        W14428  35.922  20.728  13.998
50672W        W14429  37.860  12.246   3.241
50673W        W14430  34.920  29.093  10.630
50674W        W14431  43.803  22.058  13.931
50675W        W14432  24.665  28.590  11.031
50676W        W14433  21.032  33.389   0.456
50677W        W14434  26.605   9.350  10.440
50678W        W14435  38.448  40.016  14.999
50679W        W14436  15.729   7.322   1.745
50680W        W14437  21.554  33.018   0.385
50681W        W14438  15.150  19.561   2.318
50682W        W14439  18.555  44.361   4.296
50683W        W14440  18.676  18.266   3.812
50684W        W14441  26.184  29.622   1.897
50685W        W14442  44.274   3.242   4.316
50686W        W14443  41.953  39.904  10.521
50687W        W14444  11.237   4.237   4.633
50688W        W14445   7.833  26.615  12.917
50689W        W14446  25.026  35.006  14.935
50690W        W14447  27.505   5.211   3.341
50691W        W14448  10.771  21.249  12.985
50692W        W14449  31.140  31.137   4.266
50693W        W14450   8.709   3.820   3.782
50694W        W14451   8.179  11.799   1.386
50695W        W14452   9.868  30.566   4.823
50696W        W14453  43.862  19.184  10.961
50697W        W14454  39.982   4.917  12.889
50698W        W14455  43.993  34.068   2.317
50699W        W14456  44.948  29.659   2.889
50700W        W14457  20.655  13.737   1.710
50701W        W14458   5.275  25.610   4.146
50702W        W14459  16.164  17.270   4.139
50703W        W14460  32.579  23.075  12.006
50704W        W14461  14.219   7.241  12.953
50705W        W14462  31.445   7.288  14.894
50706W        W14463  44.777  43.010  11.410
50707W        W14464  19.192   3.785   2.330
50708W        W14465   2.922  44.007   3.694
50709W        W14466  42.914  23.083  13.044
50710W        W14467  25.495  21.201  13.348
50711W        W14468   1.363  15.763  11.871
50712W        W14469   0.944  43.276   4.214
50713W        W14470  24.606  20.572  13.809
50714W        W14471  35.959   3.289   9.943
50715W        W14472   6.811  39.810   1.273
50716W        W14473   8.298  17.248  10.628
50717W        W14474  18.739  10.252  14.030
50718W        W14475  40.984   2.941   5.712
50719W        W14476  15.158   3.779  10.922
50720W        W14477   8.381  39.523   3.708
50721W        W14478  12.201   7.220  10.905
50722W        W14479  13.117  30.032  10.572
50723W        W14480  13.138  34.978   2.264
50724W        W14481  36.964  36.514   4.242
50725W        W14482  16.133   0.886  13.852
50726W        W14483   3.739  31.553   2.269
50727W        W14484  35.021  16.609  10.638
50728W        W14485  12.311  42.431   3.286
50729W        W14486   7.894  41.819  12.093
50730W        W14487  41.018  17.136  11.035
50731W        W14488  37.352  27.534  12.931
50732W        W14489  43.348  44.304  10.900
50733W        W14490   8.666  28.570  10.577
50734W        W14491  20.198  19.599  13.334
50735W        W14492  33.604   7.839  10.424
50736W        W14493  26.635   0.764   4.288
50737W        W14494  40.522  42.851   3.741
50738W        W14495  19.066  15.155  12.942
50739W        W14496  28.025  43.816  12.049
50740W        W14497  23.523  28.986  13.375
50741W        W14498  14.819  42.990  10.463
50742W        W14499  10.842  38.929  11.915
50743W        W14500  37.024   9.342   3.169
50744W        W14501  36.091  38.395  12.096
50745W        W14502   8.179  37.417  14.990
50746W        W14503  13.620   1.907   0.760
50747W        W14504  21.603  16.089  13.051
50748W        W14505   4.316   8.752   2.337
50749W        W14506  21.561  43.870   1.824
50750W        W14507  38.521   3.710  12.420
50751W        W14508  19.597  27.560  12.854
50752W        W14509  43.384   4.289  10.987
50753W        W14510   2.896  23.708  14.447
50754W        W14511  40.536  21.084   1.293
50755W        W14512   7.842  13.236  11.050
50756W        W14513  26.645   3.247   4.309
50757W        W14514  27.553  13.121  14.815
50758W        W14515  22.529   2.726   3.765
50759W        W14516  33.419   9.826  11.446
50760W        W14517  43.990  31.593   0.429
50761W        W14518  30.582  12.663   2.417
50762W        W14519  14.782  38.399   3.386
50763W        W14520   1.376  10.368   2.371
50764W        W14521   3.354  20.122  14.005
50765W        W14522   9.154   7.202   4.314
50766W        W14523  14.248  14.621  12.418
50767W        W14524  33.450  42.804   2.178
50768W        W14525  31.511  12.173   2.415
50769W        W14526   2.819  26.462   0.311
50770W        W14527  24.706  40.952  12.912
50771W        W14528  40.414   7.731  10.929
50772W        W14529  30.458  42.501   4.634
50773W        W14530  30.508   9.350  12.887
50774W        W14531  21.154  14.722  13.310
50775W        W14532  10.646  15.608  11.932
50776W        W14533   6.304  37.351   0.875
50777W        W14534  35.870  22.676  14.818
50778W        W14535   5.281   6.920   0.465
50779W        W14536   4.867  31.490   1.324
50780W        W14537  29.974  33.887   3.246
50781W        W14538  35.393  37.482  13.983
50782W        W14539  21.641  16.229   4.770
50783W        W14540   8.384   9.228   4.737
50784W        W14541  33.979   2.814  11.523
50785W        W14542  43.832  27.038   2.397
50786W        W14543  41.959   0.339   4.255
50787W        W14544  13.744  40.500  11.595
50788W        W14545   5.934  39.953  12.377
50789W        W14546  43.844   7.260  13.524
50790W        W14547   8.815   4.755  13.009
50791W        W14548  31.086   4.245   1.920
50792W        W14549   6.312   6.312  13.467
50793W        W14550  19.043   7.290   4.291
50794W        W14551   1.373  25.125  12.997
50795W        W14552  23.731  22.250  12.357
50796W        W14553  43.951  38.361  11.504
50797W        W14554  11.676   7.692  13.526
50798W        W14555  24.229  34.946   1.395
50799W        W14556  35.547  38.542  10.421
50800W        W14557   7.717  27.191  10.897
50801W        W14558  16.088  40.042  12.917
50802W        W14559  42.520  10.694   2.671
50803W        W14560  10.734  13.737   3.365
50804W        W14561  27.663   0.435  11.858
50805W        W14562  24.514   8.235  11.012
50806W        W14563  36.917   8.798   1.819
50807W        W14564  37.988   3.812   2.688
50808W        W14565  24.205  41.862  13.906
50809W        W14566  44.756  42.973   2.291
50810W        W14567  41.877  25.130  10.428
50811W        W14568  25.545  31.906   0.346
50812W        W14569  44.321  36.953  11.944
50813W        W14570  16.310  14.130  10.958
50814W        W14571  44.361  15.757   0.934
50815W        W14572   6.413  25.021  12.392
50816W        W14573  14.098  30.149   0.246
50817W        W14574  27.062  42.940  11.386
50818W        W14575  30.052  22.104  10.480
50819W        W14576  40.869  29.111  10.942
50820W        W14577  17.286  11.219  10.934
50821W        W14578  15.726  28.649   2.268
50822W        W14579  28.466  34.949   3.828
50823W        W14580  12.353  44.364  10.109
50824W        W14581  39.063  33.913  10.618
50825W        W14582   8.232   6.788  13.437
50826W        W14583  32.501  38.937  11.555
50827W        W14584  34.064  31.622  12.826
50828W        W14585  27.189  43.916   4.131
50829W        W14586  19.078  13.667   0.470
50830W        W14587  15.746  15.628   2.881
50831W        W14588  40.540  22.603  14.346
50832W        W14589  38.384   4.887   0.261
50833W        W14590   6.853  23.221   0.952
50834W        W14591  42.816  29.468   4.603
50835W        W14592  38.912  40.820  12.369
50836W        W14593   2.319  35.377  13.475
50837W        W14594  42.881  39.419  13.528
50838W        W14595   1.238   4.921   1.268
50839W        W14596  21.175  28.471   1.249
50840W        W14597  43.285  27.451  13.464
50841W        W14598  24.551  40.001   1.904
50842W        W14599  28.168  21.257   1.424
50843W        W14600  12.217  44.489   3.245
50844W        W14601  35.014  29.104  12.983
50845W        W14602  40.999   5.404   0.900
50846W        W14603  35.984  19.270  12.935
50847W        W14604   3.314   5.393  11.409
50848W        W14605   4.351  11.308   2.360
50849W        W14606  17.276   0.250   2.192
50850W        W14607   8.188   5.738   4.210
50851W        W14608   9.883  27.020  11.067
50852W        W14609  31.631  38.916   3.282
50853W        W14610   6.335   1.948   1.213
50854W        W14611  17.079  27.484  12.575
50855W        W14612  29.648  36.081  10.603
50856W        W14613  28.610   3.325  11.576
50857W        W14614  31.980  35.041  11.874
50858W        W14615  16.075   3.435  13.934
50859W        W14616   1.461  10.836  14.312
50860W        W14617  19.577  27.600   4.792
50861W        W14618   1.926  27.475   2.668
50862W        W14619  15.086  13.834   0.422
50863W        W14620   7.395  35.973   1.785
50864W        W14621  43.920   6.891  13.828
50865W        W14622  11.235  28.599  11.419
50866W        W14623  24.720  29.571   0.430
50867W        W14624  25.617  37.043  11.857
50868W        W14625  17.206  17.226   3.366
50869W        W14626  44.463  31.070  12.463
50870W        W14627  38.974  10.810   4.224
50871W        W14628   2.413  16.606  11.896
50872W        W14629   6.278   7.297  12.399
50873W        W14630  25.630  36.064  14.841
50874W        W14631  37.370  27.190  13.463
50875W        W14632   0.332  43.320   4.201
50876W        W14633  32.905   2.909   2.374
50877W        W14634  28.497  19.162  12.952
50878W        W14635   8.895   0.291  10.558
50879W        W14636  17.740  26.665   4.607
50880W        W14637  44.827  41.519   4.309
50881W        W14638  44.380  13.803  13.971
50882W        W14639  32.581   1.853   2.834
50883W        W14640  37.009  29.559   3.193
50884W        W14641   7.825  35.453   2.666
50885W        W14642  20.666  31.503  14.464
50886W        W14643  26.526   4.286  14.277
50887W        W14644  10.779  34.448  10.406
50888W        W14645  28.501  33.506   0.963
50889W        W14646   1.452  37.433  10.639
50890W        W14647  30.467  22.701   3.725
50891W        W14648  23.613   6.392  14.906
50892W        W14649  16.282  13.817   2.749
50893W        W14650  29.157  30.036  11.486
50894W        W14651   0.465   4.843  11.925
50895W        W14652   7.895  16.299  14.798
50896W        W14653  30.526   2.754   4.621
50897W        W14654  35.513   5.268  13.488
50898W        W14655  33.394  26.059   1.250
50899W        W14656   9.317  18.288   1.374
50900W        W14657  13.153  27.963  11.957
50901W        W14658  15.168   1.391  13.399
50902W        W14659  38.023  21.118  13.319
50903W        W14660   4.308  12.783  14.353
50904W        W14661  20.720  24.505  13.970
50905W        W14662  20.710  33.005   0.885
50906W        W14663  41.921  20.655  12.503
50907W        W14664  19.602  10.263   4.758
50908W        W14665  36.888   3.259  10.028
50909W        W14666  30.162  27.518  11.971
50910W        W14667   5.232  27.042  11.879
50911W        W14668   4.261   7.181   1.323
50912W        W14669  29.086  25.002  13.381
50913W        W14670  37.970  35.950  11.594
50914W        W14671   2.460  22.124  13.864
50915W        W14672  44.445  22.691  13.983
50916W        W14673  28.167  42.393   2.362
50917W        W14674   3.215  44.426  10.625
50918W        W14675  14.762  24.554   0.968
50919W        W14676  36.421  37.347  12.945
50920W        W14677  20.251  44.941  14.386
50921W        W14678  15.218  38.043  10.526
50922W        W14679   3.365  41.447   2.233
50923W        W14680  25.615  29.427  11.588
50924W        W14681  33.529  18.148   4.696
50925W        W14682   4.274  21.570   1.258
50926W        W14683  35.940  26.017   1.927
50927W        W14684  42.305   8.866  13.329
50928W        W14685   2.923  37.840  10.642
50929W        W14686  42.364  27.613   2.219
50930W        W14687   6.349  23.556   3.715
50931W        W14688  24.206  33.563   4.818
50932W        W14689   7.685  10.773  10.480
50933W        W14690   8.294  21.078  14.497
50934W        W14691  15.182  34.531   1.910
50935W        W14692  38.945   2.723  14.511
50936W        W14693  35.029  12.758   4.635
50937W        W14694   4.742  26.536  10.623
50938W        W14695  37.022  19.742   0.428
50939W        W14696  34.094  43.300   4.228
50940W        W14697   9.798   9.246  10.566
50941W        W14698  27.653  35.450   2.196
50942W        W14699  25.473  39.539   4.807
50943W        W14700  21.611  38.449   2.298
50944W        W14701  25.591  29.154   3.819
50945W        W14702   4.890   0.379  10.942
50946W        W14703  41.961  39.456  11.577
50947W        W14704  35.022  29.049  14.857
50948W        W14705  36.918  37.999   3.816
50949W        W14706  29.997  22.737  11.993
50950W        W14707  10.234  33.489   2.901
50951W        W14708   1.349  23.707   1.911
50952W        W14709  17.297  26.056  11.920
50953W        W14710  36.572  38.909  10.918
50954W        W14711  37.358   4.716   3.816
50955W        W14712  13.153  21.754   1.886
50956W        W14713  26.612  34.506   5.282
50957W        W14714  29.571  25.002   3.275
50958W        W14715  12.623  24.067   3.201
50959W        W14716  15.705   7.331  14.918
50960W        W14717  35.431   6.863  13.396
50961W        W14718  35.906   0.266  10.479
50962W        W14719  32.411  39.338   1.289
50963W        W14720  41.383   4.243  10.593
50964W        W14721  16.772  24.204  11.575
50965W        W14722   1.239  31.643  13.470
50966W        W14723  10.750  11.807   2.407
50967W        W14724   8.788  26.115   1.298
50968W        W14725  40.368  25.548  13.805
50969W        W14726  44.267   3.851   1.909
50970W        W14727  37.941  20.042   2.397
50971W        W14728  17.156   6.389   2.405
50972W        W14729   3.852  31.044   4.311
50973W        W14730  29.469  40.889   4.125
50974W        W14731   0.351  19.730   3.779
50975W        W14732   5.764  24.175  14.403
50976W        W14733   6.684  40.548   4.838
50977W        W14734   5.209  27.642  11.105
50978W        W14735  41.042  14.757  11.592
50979W        W14736  42.333  38.945  10.991
50980W        W14737  32.524  43.439   3.277
50981W        W14738   7.349   2.885  11.006
50982W        W14739   9.154   1.408  13.966
50983W        W14740  30.540  25.093   1.225
50984W        W14741   9.739   4.756  11.417
50985W        W14742  25.154  24.662  10.478
50986W        W14743  20.252   3.383  10.524
50987W        W14744  42.440  19.110   2.837
50988W        W14745  11.297  38.482   0.859
50989W        W14746   1.474   8.870   0.398
50990W        W14747  14.629   6.916   3.805
50991W        W14748  38.480  41.028  14.864
50992W        W14749   6.301   2.270   3.790
50993W        W14750  28.993  44.407  12.010
50994W        W14751  27.177  31.455  10.532
50995W        W14752  24.674   0.436  14.300
50996W        W14753  31.504  33.579   3.790
50997W        W14754  37.000  38.457  10.501
50998W        W14755  41.329  35.052   1.364
50999W        W14756  29.154  19.629   1.378
51000W        W14757   5.734  27.991  10.627
51001W        W14758  20.743  30.149   3.867
51002W        W14759   2.344  28.082  14.968
51003W        W14760  41.878  36.399   1.416
51004W        W14761  41.933  34.877  10.139
51005W        W14762   0.320  33.610   4.332
51006W        W14763  14.141   0.377  13.530
51007W        W14764  16.143  11.856  14.453
51008W        W14765  25.132  26.553   0.385
51009W        W14766  38.065   5.244   0.738
51010W        W14767  44.933  22.169  13.919
51011W        W14768  40.419  12.140  14.825
51012W        W14769  34.371  34.888   3.159
51013W        W14770   7.243  11.842   1.934
51014W        W14771   9.787   9.809   2.298
51015W        W14772  26.001  12.339  12.838
51016W        W14773   6.903  44.418   3.817
51017W        W14774  31.628   0.843   4.115
51018W        W14775  17.776   9.696  13.404
51019W        W14776  11.262  37.883   1.933
51020W        W14777   4.394   8.831   2.688
51021W        W14778  13.790  24.044   0.266
51022W        W14779   2.920  20.059  14.894
51023W        W14780  43.906   0.892  11.915
51024W        W14781  34.074  44.382  12.405
51025W        W14782   6.370  34.992  10.567
51026W        W14783  39.335  19.541  11.057
51027W        W14784   6.413  31.975  14.844
51028W        W14785  32.995  39.345  14.862
51029W        W14786  41.370  31.506  12.493
51030W        W14787   0.912   0.747   0.934
51031W        W14788  21.522  13.774   0.378
51032W        W14789   0.267  39.559   1.286
51033W        W14790  31.117  19.048  14.870
51034W        W14791   6.270  44.388   3.643
51035W        W14792  40.457   8.694   3.195
51036W        W14793   6.182  32.134  14.431
51037W        W14794  14.779   5.805   4.262
51038W        W14795  22.663  36.988  11.041
51039W        W14796  13.762  24.633  10.408
51040W        W14797  30.151  15.591   2.308
51041W        W14798   9.166  33.962  12.960
51042W        W14799  35.058  36.952  14.394
51043W        W14800  20.688  36.967  13.332
51044W        W14801   2.784  26.666  14.509
51045W        W14802  22.172  41.309  12.944
51046W        W14803  12.300   4.204   4.737
51047W        W14804  34.443  37.343   0.812
51048W        W14805  11.626  16.703   3.805
51049W        W14806  28.010   4.704   5.290
51050W        W14807  44.478  13.648  11.972
51051W        W14808  12.219  32.490   4.288
51052W        W14809   8.826  28.953  10.623
51053W        W14810  37.862  26.168   0.765
51054W        W14811  26.497  11.343   2.214
51055W        W14812  32.934  22.166   1.785
51056W        W14813  39.345  20.616   4.787
51057W        W14814  15.687  25.171  11.999
51058W        W14815  19.232  33.431  11.510
51059W        W14816  32.594  30.120  12.931
51060W        W14817   7.384  12.669   4.178
51061W        W14818  38.407  25.180   0.851
51062W        W14819  20.121  25.119  14.407
51063W        W14820  16.277  12.821   0.967
51064W        W14821  24.212   3.760   2.338
51065W        W14822  14.306   5.332   2.407
51066W        W14823  40.050   9.249   2.713
51067W        W14824  20.698  33.982  12.354
51068W        W14825  17.068  15.112   5.105
51069W        W14826   2.455  20.581   1.250
51070W        W14827  25.654   9.812  12.836
51071W        W14828  24.646  17.254  10.552
51072W        W14829  28.000  17.261   5.116
51073W        W14830  28.543  36.033  13.475
51074W        W14831  11.318  32.920  11.990
51075W        W14832  34.471  44.330  14.851
51076W        W14833  27.168   3.855   2.370
51077W        W14834  36.481  12.332  13.466
51078W        W14835   0.882   3.236  14.025
51079W        W14836  18.743  13.781   1.270
51080W        W14837  42.025  20.042   4.274
51081W        W14838  25.139  10.878  10.929
51082W        W14839  17.560  42.372  14.449
51083W        W14840   9.867   5.399  13.983
51084W        W14841  19.227  20.636   1.707
51085W        W14842  44.427   7.172  11.062
51086W        W14843  18.690   4.364   4.618
51087W        W14844  44.485   1.749  11.424
51088W        W14845  32.889  42.499  13.835
51089W        W14846  11.828  18.747  14.314
51090W        W14847  36.498  12.612   3.712
51091W        W14848  10.701  12.291  11.973
51092W        W14849  10.171  11.154  11.504
51093W        W14850   4.879  29.661   3.764
51094W        W14851   2.285   0.297   0.855
51095W        W14852  10.366  12.254   0.741
51096W        W14853  36.921  19.774  10.476
51097W        W14854  22.130  22.077   2.850
51098W        W14855   5.397  28.504   1.412
51099W        W14856  27.621  22.252  13.451
51100W        W14857  21.646  34.407  10.912
51101W        W14858  18.076  10.789   0.394
51102W        W14859  20.553  30.456  11.876
51103W        W14860  26.630   2.353   2.690
51104W        W14861  29.947  20.570  14.894
51105W        W14862  39.983  40.998   3.179
51106W        W14863   2.892  30.059   2.730
51107W        W14864  30.979  44.827  10.442
51108W        W14865  20.266  38.969  14.429
51109W        W14866   9.278   0.438   3.837
51110W        W14867  16.801  38.872  12.019
51111W        W14868   1.785   4.305   1.932
51112W        W14869  28.609  13.113   1.922
51113W        W14870  22.051  15.200   4.717
51114W        W14871  41.461  19.594   3.745
51115W        W14872   3.775  19.756   1.718
51116W        W14873  44.393  38.072  14.791
51117W        W14874  35.589   6.256  14.767
51118W        W14875  24.048  44.964   3.808
51119W        W14876  44.912  13.836  11.932
51120W        W14877  37.536   6.391   1.379
51121W        W14878  20.100  31.053   1.723
51122W        W14879  38.921   1.941   0.821
51123W        W14880  22.078  27.448   0.435
51124W        W14881  40.477   4.328   0.895
51125W        W14882  38.954  28.652   4.330
51126W        W14883  27.080  44.343   2.210
51127W        W14884  39.998   6.725  11.486
51128W        W14885  29.956  15.749  13.821
51129W        W14886  13.839  42.914  11.466
51130W        W14887  20.139   7.837  14.454
51131W        W14888  36.905  31.423  14.992
51132W        W14889  37.364  23.504  14.849
51133W        W14890   4.317  43.821   1.843
51134W        W14891  28.984  39.855  13.400
51135W        W14892  35.464   4.276  10.467
51136W        W14893  19.241  37.952  13.506
51137W        W14894  36.468  29.586   1.278
51138W        W14895  38.074   4.771   2.809
51139W        W14896  31.607   8.876   1.828
51140W        W14897  32.111  19.249   0.452
51141W        W14898  11.213   4.884  13.307
51142W        W14899  43.343   7.217  13.928
51143W        W14900  21.143  30.560  11.939
51144W        W14901  20.202  38.551  14.896
51145W        W14902   1.415  34.455   2.821
51146W        W14903  25.088  17.775  12.885
51147W        W14904  13.831   3.399  14.443
51148W        W14905  32.476   7.277   1.249
51149W        W14906  24.671   1.466   0.397
51150W        W14907  19.089  42.313   4.316
51151W        W14908  33.382   1.281  10.969
51152W        W14909   5.906  23.138  10.530
51153W        W14910  18.564  38.970  14.476
51154W        W14911  41.823   0.443   0.332
51155W        W14912   9.733  42.859  10.471
51156W        W14913  41.438  10.337  14.323
51157W        W14914  15.695  13.815  13.044
51158W        W14915  38.530  10.736  11.126
51159W        W14916  25.998  11.853  14.503
51160W        W14917  14.253  35.008  12.916
51161W        W14918  30.608   9.743  10.565
51162W        W14919  36.877   4.220  14.968
51163W        W14920  19.136  34.927   0.272
51164W        W14921  39.051  12.685  13.501
51165W        W14922  11.356  24.579   4.767
51166W        W14923  21.225  11.767   5.090
51167W        W14924  43.482  30.650   1.330
51168W        W14925  14.698   7.772   0.405
51169W        W14926  29.095  23.568  12.569
51170W        W14927  10.246  21.072  11.478
51171W        W14928  28.051  26.624  13.002
51172W        W14929  21.033   4.272  14.851
51173W        W14930   5.926  38.518  13.472
51174W        W14931  21.180  31.125   4.837
51175W        W14932  20.149  37.517   4.818
51176W        W14933  12.750   7.735   4.183
51177W        W14934  13.641   5.261  13.948
51178W        W14935  40.322  31.512  14.412
51179W        W14936  27.571   1.954   0.288
51180W        W14937  26.989  25.615  14.990
51181W        W14938  27.629  15.251  14.319
51182W        W14939   1.939   5.413   1.301
51183W        W14940  44.396   4.860   0.915
51184W        W14941  30.123  39.812   2.311
51185W        W14942  25.533  12.819  10.121
51186W        W14943   9.309  30.607  14.029
51187W        W14944   5.925   7.304  12.036
51188W        W14945  19.136  19.256  11.604
51189W        W14946  11.785  42.809  14.909
51190W        W14947  37.570   5.418   3.289
51191W        W14948  36.457  27.084   5.762
51192W        W14949   0.901  26.100   0.367
51193W        W14950   2.727  33.006   2.780
51194W        W14951  35.515  24.064   0.887
51195W        W14952  31.915   7.796   1.933
51196W        W14953   0.468  16.272  10.891
51197W        W14954   9.792  23.698   1.708
51198W        W14955   5.698  13.120  14.970
51199W        W14956  23.587  43.768   1.858
51200W        W14957  31.646   6.383  11.437
51201W        W14958  22.011   6.785   1.310
51202W        W14959  43.381  33.521  14.925
51203W        W14960   4.219  43.285  10.954
51204W        W14961   1.355   9.683   3.215
51205W        W14962  43.363  36.004  13.530
51206W        W14963  42.927   9.828  11.465
51207W        W14964  37.952  42.867   1.327
51208W        W14965   6.784  40.996   1.339
51209W        W14966   1.350   6.835   2.832
51210W        W14967   0.451  12.789   2.184
51211W        W14968  43.824  12.186  13.474
51212W        W14969  38.825  35.102   1.353
51213W        W14970  20.669  36.357  13.001
51214W        W14971   9.222  43.829   3.814
51215W        W14972  42.010  42.415  11.071
51216W        W14973   2.356  24.059  14.869
51217W        W14974  20.268   0.847  10.613
51218W        W14975  30.090  40.944  12.091
51219W        W14976  30.542  41.905  14.032
51220W        W14977  35.099  27.162  10.055
51221W        W14978   6.219   7.322  13.520
51222W        W14979  29.968   7.311  13.443
51223W        W14980   2.422  42.292   4.672
51224W        W14981  32.136  38.897  10.533
51225W        W14982  31.986  25.034   4.597
51226W        W14983  13.797  25.654   2.803
51227W        W14984  22.675   8.875  10.935
51228W        W14985  32.100  35.599  14.903
51229W        W14986  27.058  38.961   3.318
51230W        W14987  12.622  15.795   2.871
51231W        W14988  24.138  12.728  11.544
51232W        W14989   2.965   8.163  13.312
51233W        W14990  23.697  15.671   0.927
51234W        W14991  20.252  13.813   5.744
51235W        W14992   6.395  28.584  14.842
51236W        W14993  37.947  29.462  12.848
51237W        W14994  31.619  11.772  11.012
51238W        W14995  22.552  41.033   3.678
51239W        W14996  35.535   9.869  11.448
51240W        W14997   7.343  23.152  11.962
51241W        W14998  26.170  20.756  14.459
51242W        W14999  13.191  38.892  12.047
51243W        W15000  19.741  12.638   0.934
51244W        W15001  15.184  33.476  14.934
51245W        W15002  40.797   1.383  12.394
51246W        W15003   2.437  20.170  12.081
51247W        W15004  19.732  41.906  14.510
51248W        W15005  16.641   7.781   4.731
51249W        W15006  26.637  13.832   2.901
51250W        W15007  17.188  29.056  10.477
51251W        W15008   4.900  39.879  14.323
51252W        W15009   2.436  35.531   3.675
51253W        W15010  19.258  15.157  10.052
51254W        W15011   7.198  34.509   1.746
51255W        W15012  15.813  34.424   1.819
51256W        W15013   7.674  17.762   3.319
51257W        W15014  21.243  30.527  12.357
51258W        W15015  32.605  25.979   0.914
51259W        W15016   3.896  14.123  14.817
51260W        W15017  26.516   7.839  13.801
51261W        W15018  31.510  14.802   1.789
51262W        W15019  21.037  44.906   3.803
51263W        W15020  24.026  35.068  14.397
51264W        W15021   5.818  10.754   0.767
51265W        W15022  24.527   3.359   2.391
51266W        W15023  28.605  14.208  12.547
51267W        W15024   1.287  17.159   3.252
51268W        W15025   6.868   6.732   4.816
51269W        W15026   7.383  11.233  12.545
51270W        W15027  29.009   5.301  10.571
51271W        W15028  30.155  14.596  10.615
51272W        W15029  26.686  36.052   4.828
51273W        W15030  35.956  31.050  14.963
51274W        W15031  44.798  42.923  11.924
51275W        W15032  42.321   9.344  12.469
51276W        W15033  40.463   7.703  14.324
51277W        W15034  31.040  18.626  14.483
51278W        W15035  43.013  15.739  10.492
51279W        W15036  22.508  32.587   3.794
51280W        W15037  16.607   3.275  13.320
51281W        W15038  23.147  30.523  13.418
51282W        W15039  17.297  28.500  14.854
51283W        W15040  27.639  22.573  13.942
51284W        W15041  10.742  13.129  14.799
51285W        W15042  17.175   8.386  14.288
51286W        W15043  38.897  20.574   3.375
51287W        W15044  28.565  27.665   0.271
51288W        W15045   4.766  13.300   0.907
51289W        W15046  20.608  19.543   2.251
51290W        W15047  37.030   7.890  12.385
51291W        W15048  43.293   1.976  10.600
51292W        W15049   7.414  17.783  11.866
51293W        W15050  21.019  43.366  14.413
51294W        W15051  42.468  39.470   2.826
51295W        W15052  40.457  14.271  14.310
51296W        W15053  30.599  28.619  11.882
51297W        W15054   8.813   2.873  13.465
51298W        W15055  22.605  38.051  11.073
51299W        W15056  31.001   6.709  11.963
51300W        W15057  24.488  25.704   5.251
51301W        W15058  26.683  41.973  13.878
51302W        W15059  21.140   7.788   2.372
51303W        W15060  35.381  18.743   1.718
51304W        W15061  11.753  27.151  14.776
51305W        W15062  21.709  13.271   2.319
51306W        W15063  22.075   4.225   2.816
51307W        W15064  16.151  24.080  14.007
51308W        W15065  43.506   6.824  11.916
51309W        W15066  19.619  28.025  11.954
51310W        W15067  23.594  41.343   0.787
51311W        W15068  43.831   0.425  11.527
51312W        W15069  39.047  17.119  10.975
51313W        W15070  43.797  41.969   4.220
51314W        W15071  27.615  42.800   3.315
51315W        W15072  23.502  20.245   3.715
51316W        W15073  26.961   1.943   4.735
51317W        W15074  28.146  18.275  14.977
51318W        W15075  43.971  22.150   1.231
51319W        W15076  31.032  12.237   3.255
51320W        W15077  22.520  44.371   1.849
51321W        W15078  24.157  11.687  10.897
51322W        W15079   1.405   7.412   1.896
51323W        W15080  40.030  31.412   0.773
51324W        W15081  42.318  19.217   0.284
51325W        W15082  33.448  28.957  10.136
51326W        W15083   8.796  34.955   2.320
51327W        W15084  33.549  36.997   2.895
51328W        W15085  39.327  25.552  12.000
51329W        W15086   8.690  23.710  14.826
51330W        W15087  27.146  31.634  12.412
51331W        W15088   9.343   6.678  12.041
51332W        W15089  12.361   6.920  13.972
51333W        W15090  25.709   3.447  10.138
51334W        W15091  16.807  32.556   4.141
51335W        W15092  30.624  33.108  14.981
51336W        W15093  34.911  11.848  13.455
51337W        W15094  26.497   8.301   4.141
51338W        W15095  24.017  18.619  11.509
51339W        W15096  42.357  31.927   4.165
51340W        W15097  14.303  44.472   3.692
51341W        W15098  38.051  38.983   0.379
51342W        W15099  14.228   2.956  13.897
51343W        W15100  43.285  25.207   0.822
51344W        W15101  21.249  19.047  13.366
51345W        W15102  10.269  16.159  10.964
51346W        W15103   4.913   9.741  14.912
51347W        W15104  31.107  40.355   1.277
51348W        W15105  28.977  30.415   4.352
51349W        W15106  33.549  10.845   2.773
51350W        W15107  27.165  39.373  12.344
51351W        W15108  30.499  29.148   3.832
51352W        W15109   7.218  20.636  14.949
51353W        W15110  33.419  25.189   1.847
51354W        W15111  20.688  25.990  12.072
51355W        W15112  27.190  17.148  12.977
51356W        W15113  27.529  14.636  13.474
51357W        W15114  39.343  39.558  14.029
51358W        W15115  17.146   9.741   1.823
51359W        W15116   4.275  12.267  14.286
51360W        W15117  25.689  33.984   2.775
51361W        W15118  37.855  36.480   1.400
51362W        W15119  14.689  37.507  14.030
51363W        W15120  17.237   5.269   3.291
51364W        W15121  19.044  21.544   2.757
51365W        W15122  33.380   3.358   2.199
51366W        W15123  20.159  35.052  12.046
51367W        W15124   6.227  32.987   2.325
51368W        W15125  43.883  12.254  13.916
51369W        W15126  18.561  35.508  12.936
51370W        W15127   9.252   6.206  12.414
51371W        W15128  33.123   4.719   1.918
51372W        W15129  32.046   9.310  12.039
51373W        W15130   5.251  30.909  12.426
51374W        W15131  15.312  14.771   1.400
51375W        W15132  43.481  27.452  13.828
51376W        W15133  19.591  37.040  13.397
51377W        W15134   6.888  13.841  14.827
51378W        W15135  44.340  32.065   1.778
51379W        W15136  24.554  40.957   1.308
51380W        W15137  38.931  38.428   0.302
51381W        W15138   7.697  36.416   0.751
51382W        W15139  28.049  32.050  10.951
51383W        W15140  11.804  25.040   5.153
51384W        W15141  11.849  40.547   2.315
51385W        W15142  36.451   2.773  14.471
51386W        W15143   3.227   9.228  14.334
51387W        W15144  20.608  34.444   2.304
51388W        W15145  33.943  26.137  13.427
51389W        W15146   1.335  11.177  10.950
51390W        W15147  12.740  30.491   0.463
51391W        W15148   3.893  28.987  13.956
51392W        W15149  43.946  25.656  10.945
51393W        W15150   6.856  10.816   0.331
51394W        W15151  34.959  33.496   0.895
51395W        W15152  44.801  11.310   1.741
51396W        W15153  43.494  15.137   3.645
51397W        W15154  25.179   8.741  14.762
51398W        W15155  34.514   8.276   3.754
51399W        W15156  31.004  25.627  11.406
51400W        W15157  15.638   0.349   0.769
51401W        W15158  12.682  37.036  12.531
51402W        W15159   8.781  44.906   4.812
51403W        W15160  16.703  10.755  12.951
51404W        W15161  12.311   6.771   4.141
51405W        W15162  35.409  30.623   0.816
51406W        W15163  13.618  28.574   3.354
51407W        W15164  41.345  20.218   1.934
51408W        W15165   2.379   7.787   2.304
51409W        W15166  41.042  34.606  13.502
51410W        W15167  35.366  35.003   4.653
51411W        W15168  34.522  34.021   4.182
51412W        W15169  42.790  16.801  12.877
51413W        W15170  16.587  10.705   4.277
51414W        W15171  17.260  41.325   3.184
51415W        W15172  34.414   4.898   0.336
51416W        W15173  40.463  42.375  11.066
51417W        W15174  26.085  34.118   1.700
51418W        W15175  12.211  29.658   0.883
51419W        W15176  24.534  38.823  13.462
51420W        W15177  37.903  39.006   1.218
51421W        W15178  40.530   7.390   0.472
51422W        W15179   1.846  25.546   1.450
51423W        W15180  12.190  12.655  14.431
51424W        W15181  30.143  21.642   1.824
51425W        W15182   9.270   6.880   4.224
51426W        W15183  20.232  33.027  12.091
51427W        W15184   3.421  40.033   4.786
51428W        W15185   2.432  28.111   1.410
51429W        W15186  12.836  38.973  14.781
51430W        W15187   4.729  10.324   0.322
51431W        W15188  13.156  29.030  10.580
51432W        W15189  27.680   4.777   0.473
51433W        W15190  18.180  39.858  13.913
51434W        W15191  41.532  16.749  11.860
51435W        W15192  37.430  41.004  10.969
51436W        W15193   2.843  16.226  13.044
51437W        W15194  38.870  28.569  13.869
51438W        W15195  30.110   4.223   3.819
51439W        W15196  27.967  41.022  11.550
51440W        W15197  24.007  27.545  12.970
51441W        W15198  37.981  10.669  11.044
51442W        W15199  23.641  42.410  11.052
51443W        W15200  31.041  41.001   3.812
51444W        W15201   4.736  20.122  13.851
51445W        W15202  42.408  37.853   1.336
51446W        W15203  41.402  41.332   2.361
51447W        W15204   0.977   3.899   0.358
51448W        W15205   2.875  20.543  14.429
51449W        W15206   4.896  14.794   4.324
51450W        W15207  21.206  42.961  14.939
51451W        W15208  41.958  43.300  14.311
51452W        W15209  40.370  43.341   4.129
51453W        W15210  43.469  42.283   0.356
51454W        W15211  12.756   8.325  13.818
51455W        W15212  21.218  26.521   2.860
51456W        W15213   3.355  31.525   1.857
51457W        W15214  17.088  42.375   1.864
51458W        W15215   7.349  13.673  12.081
51459W        W15216  23.149  41.999  13.328
51460W        W15217  15.106  22.570  11.046
51461W        W15218  43.958  36.482   2.825
51462W        W15219  17.600   1.921   1.352
51463W        W15220  26.072  40.436   0.306
51464W        W15221  30.574   7.342   2.292
51465W        W15222  38.377  29.128   3.383
51466W        W15223  26.485   9.387  14.762
51467W        W15224  34.919  37.564   2.772
51468W        W15225  11.144  18.161   1.831
51469W        W15226  38.915  13.690   0.473
51470W        W15227  20.102   4.234  13.483
51471W        W15228  44.929  19.155   4.707
51472W        W15229  26.618  31.086   5.139
51473W        W15230   5.240  29.948  12.080
51474W        W15231  44.921  33.613   4.151
51475W        W15232  11.178  39.517   4.125
51476W        W15233  12.250   8.787   4.312
51477W        W15234  17.671   5.285   3.289
51478W        W15235  15.211  35.102  14.446
51479W        W15236   1.742   4.426  10.415
51480W        W15237  14.203  24.584  12.371
51481W        W15238   3.784   6.818  13.059
51482W        W15239  43.502  21.667   4.797
51483W        W15240   1.885  24.191  13.515
51484W        W15241   8.245  19.228  14.788
51485W        W15242  23.147  43.969   3.642
51486W        W15243  19.772  34.066  11.499
51487W        W15244  20.601   2.928  13.054
51488W        W15245  35.888  10.741  11.982
51489W        W15246   9.287   9.714   3.813
51490W        W15247  16.761  29.456  10.612
51491W        W15248   8.198   0.316  13.318
51492W        W15249  35.515  36.379   4.289
51493W        W15250   2.932   6.361  14.863
51494W        W15251  25.546  37.455   2.281
51495W        W15252  27.029  26.145  13.982
51496W        W15253  14.683  22.593   3.631
51497W        W15254  32.539  17.249   3.227
51498W        W15255  16.742  26.073   3.661
51499W        W15256   9.203  30.460   3.222
51500W        W15257  30.139  31.425  11.964
51501W        W15258  12.627  35.498   1.765
51502W        W15259  33.432  20.554   2.873
51503W        W15260  37.929  28.106   0.375
51504W        W15261  33.105  27.198   0.283
51505W        W15262  25.998  27.195   1.788
51506W        W15263  22.119  15.214  13.792
51507W        W15264   8.698  27.004  13.025
51508W        W15265  20.630  33.006  11.004
51509W        W15266  39.356   1.292  12.549
51510W        W15267  14.748   2.424  13.932
51511W        W15268  22.151  37.548   0.772
51512W        W15269  12.793  23.144  10.496
51513W        W15270   9.868  19.183   2.228
51514W        W15271  25.710  38.871  14.510
51515W        W15272   6.713  26.165  11.911
51516W        W15273   1.781   6.378  11.597
51517W        W15274  24.978   1.866  11.415
51518W        W15275  33.477  44.432   4.148
51519W        W15276  12.612   5.783  14.948
51520W        W15277  42.799   3.258  14.412
51521W        W15278  42.426  42.343   0.841
51522W        W15279   2.388  19.626  12.412
51523W        W15280  33.073  43.005  14.938
51524W        W15281  13.679  42.831   0.796
51525W        W15282  27.006  13.232  11.122
51526W        W15283   8.857  43.298  10.499
51527W        W15284  19.166   2.293  10.509
51528W        W15285  29.017  18.635  13.055
51529W        W15286  32.888  15.796  13.961
51530W        W15287  12.680  40.376   2.714
51531W        W15288   6.300  34.114  11.073
51532W        W15289   6.806   1.443   1.224
51533W        W15290  11.797  26.159  11.452
51534W        W15291  30.625  29.538   3.375
51535W        W15292  12.121  27.195  12.541
51536W        W15293  35.074  25.611   4.782
51537W        W15294  25.184  19.067   3.232
51538W        W15295   6.920  25.567  12.480
51539W        W15296  41.000  37.416  11.578
51540W        W15297  44.336  26.204   2.691
51541W        W15298  16.586  35.378  14.905
51542W        W15299  14.651  32.537   2.327
51543W        W15300  35.025  38.552   0.745
51544W        W15301  23.526   5.439  10.629
51545W        W15302   4.302  24.183   1.245
51546W        W15303  21.171  34.556  13.520
51547W        W15304  26.134   4.261   0.246
51548W        W15305  25.193  16.287   3.828
51549W        W15306  12.799  36.417  12.514
51550W        W15307  33.954   4.398  12.899
51551W        W15308  31.551  39.034   3.784
51552W        W15309  30.075  18.072   3.725
51553W        W15310  37.388  25.519   2.787
51554W        W15311  44.868   6.367   3.635
51555W        W15312   0.417  20.536   1.397
51556W        W15313  34.582  16.752  12.460
51557W        W15314  13.114  39.474   4.261
51558W        W15315  25.680  37.482   3.218
51559W        W15316  12.737  24.026  13.347
51560W        W15317  35.010   0.326  12.399
51561W        W15318  22.232  19.587   4.238
51562W        W15319  26.643   1.344   1.923
51563W        W15320  31.526  37.352  12.058
51564W        W15321  22.179  25.017  11.975
51565W        W15322   9.314  21.577   1.228
51566W        W15323  37.371  15.646   1.756
51567W        W15324  43.320  36.969   4.278
51568W        W15325   6.251   6.833  10.943
51569W        W15326  34.467  11.263   2.326
51570W        W15327  12.747  43.379  13.946
51571W        W15328  41.808  26.966  11.540
51572W        W15329  35.965  11.339  11.906
51573W        W15330   3.763   0.464  11.424
51574W        W15331  42.509  44.309  14.390
51575W        W15332  32.946   3.277  11.526
51576W        W15333   2.278  26.194   3.365
51577W        W15334  15.645  31.013   0.453
51578W        W15335  33.564   9.256  10.482
51579W        W15336  31.623  13.638  11.471
51580W        W15337  34.508   8.773   4.621
51581W        W15338  42.964  35.378   1.735
51582W        W15339  38.828   7.817  10.101
51583W        W15340  27.177  22.167  11.578
51584W        W15341  13.745   5.413   4.611
51585W        W15342  38.883  14.121   2.871
51586W        W15343   5.300  44.447  10.143
51587W        W15344  23.238  18.779  10.537
51588W        W15345   8.863   6.718   0.934
51589W        W15346  16.107   6.878  12.557
51590W        W15347  41.480  24.070  10.484
51591W        W15348   0.826   3.372  11.380
51592W        W15349  26.985  18.676   3.859
51593W        W15350   0.889  12.281   2.781
51594W        W15351   4.370  36.915   4.673
51595W        W15352  10.380  44.886   3.303
51596W        W15353   6.237  21.017  14.500
51597W        W15354  43.902   3.312  14.362
51598W        W15355  17.746  43.921  12.028
51599W        W15356   2.375   3.355   4.209
51600W        W15357  26.567  30.953  14.811
51601W        W15358  43.351   2.317  13.373
51602W        W15359  34.369  17.663  14.849
51603W        W15360  39.315   0.774  14.394
51604W        W15361  12.803   5.911  13.380
51605W        W15362   9.236  25.027  10.510
51606W        W15363   3.306  25.181  14.332
51607W        W15364  38.879  34.930   2.759
51608W        W15365   2.957  43.980   1.398
51609W        W15366   2.258  11.858   0.342
51610W        W15367  18.774  35.482  13.840
51611W        W15368  14.606  44.374   0.320
51612W        W15369  26.116  13.115  11.000
51613W        W15370  29.107  34.402   2.812
51614W        W15371  21.516  27.533  14.917
51615W        W15372  13.764  35.944  11.868
51616W        W15373   4.736  43.976  12.907
51617W        W15374  11.177  12.323  10.456
51618W        W15375  22.713  35.402   4.217
51619W        W15376  29.151  19.135  10.554
51620W        W15377  36.470  15.239   0.332
51621W        W15378  24.703  40.870  11.026
51622W        W15379  38.996  18.623   4.266
51623W        W15380  36.006  23.591  14.932
51624W        W15381  26.146  27.986  11.063
51625W        W15382  38.451  18.102  13.915
51626W        W15383  17.286  35.963   4.351
51627W        W15384  25.561   5.326  13.522
51628W        W15385  22.691  44.407  12.525
51629W        W15386  44.933  39.835   1.727
51630W        W15387  21.228   9.222  10.944
51631W        W15388  24.985  39.560   3.165
51632W        W15389   7.871  23.509   3.731
51633W        W15390  35.556   2.831   3.636
51634W        W15391  44.451  21.718  12.049
51635W        W15392  30.130   6.338   2.325
51636W        W15393  31.529  24.019  10.558
51637W        W15394   8.187   7.234  13.966
51638W        W15395  26.520  11.210  14.358
51639W        W15396  11.248  23.537  12.544
51640W        W15397  37.947   0.372   0.790
51641W        W15398  30.030  23.575  10.487
51642W        W15399  28.941  27.171  14.893
51643W        W15400   1.878  24.053  14.965
51644W        W15401  12.346  18.212  11.462
51645W        W15402   5.274  30.054   4.798
51646W        W15403  26.488  33.418  11.049
51647W        W15404  11.202  37.050   4.192
51648W        W15405  37.353  15.328  14.510
51649W        W15406  38.543  34.889   2.713
51650W        W15407  13.656  36.406   2.236
51651W        W15408  19.041  40.036  10.463
51652W        W15409   6.879  38.516   4.200
51653W        W15410  38.954  35.405  14.875
51654W        W15411  25.609  27.185   4.252
51655W        W15412  11.837   9.790  10.915
51656W        W15413   9.176  40.535  14.920
51657W        W15414  13.244  34.077  12.946
51658W        W15415  12.148  29.076  12.567
51659W        W15416  38.844   0.788  13.529
51660W        W15417   9.838  33.581   4.146
51661W        W15418  35.021   5.900   1.844
51662W        W15419  39.452  40.475   2.669
51663W        W15420  12.353   4.908  10.891
51664W        W15421  21.094  37.047   4.668
51665W        W15422   7.777  30.055  13.952
51666W        W15423  34.905  39.934   4.701
51667W        W15424  34.583  29.605   0.437
51668W        W15425  41.489   8.810  11.396
51669W        W15426  29.107   8.286  11.950
51670W        W15427  35.071  37.968   2.332
51671W        W15428  21.225  34.079  12.357
51672W        W15429  12.116  18.788   0.328
51673W        W15430  10.854   0.883   3.252
51674W        W15431  17.280   6.849  10.891
51675W        W15432  19.059  34.891   4.680
51676W        W15433  36.433  26.504  11.935
51677W        W15434  16.093  14.112   2.676
51678W        W15435  10.181  18.135   9.977
51679W        W15436  38.484  30.913   3.759
51680W        W15437  15.248  36.470   4.791
51681W        W15438   2.235  28.974  12.359
51682W        W15439  14.327  32.952   1.841
51683W        W15440   7.835  25.669  14.317
51684W        W15441   1.737   1.399  14.876
51685W        W15442  24.980  31.590  14.320
51686W        W15443  22.235  14.737  10.615
51687W        W15444  43.477  13.739  13.508
51688W        W15445  30.953  27.490   1.284
51689W        W15446  42.364   1.741   4.181
51690W        W15447   7.416  22.234   4.804
51691W        W15448  15.821  24.144   3.748
51692W        W15449  43.788  28.108  13.488
51693W        W15450   6.801  17.577  10.942
51694W        W15451  23.094  34.100  13.503
51695W        W15452  14.618  33.623  14.365
51696W        W15453  33.611  42.472   1.802
51697W        W15454  16.704  20.263  12.454
51698W        W15455   6.703   6.686  11.400
51699W        W15456  28.604   6.328  11.915
51700W        W15457  36.501  34.386   1.773
51701W        W15458  18.288  25.676  12.931
51702W        W15459  11.804  38.477   0.963
51703W        W15460   0.430  16.110  11.537
51704W        W15461  11.130   8.376  10.417
51705W        W15462  41.028  37.429  13.026
51706W        W15463  14.704  32.397   0.743
51707W        W15464   0.812   3.762  10.524
51708W        W15465  17.269   5.349  10.956
51709W        W15466   7.371  39.972   1.797
51710W        W15467  13.837   2.734  10.436
51711W        W15468  32.103  12.696  13.510
51712W        W15469  22.584   7.396   2.682
51713W        W15470   1.930  34.951  10.407
51714W        W15471  27.150  32.128   3.782
51715W        W15472   3.853  12.262   0.378
51716W        W15473  18.178  34.394  13.791
51717W        W15474  13.798  44.801  13.007
51718W        W15475   0.812  39.951  14.492
51719W        W15476  26.472  40.017   2.321
51720W        W15477  27.660  33.416  12.553
51721W        W15478  40.874  38.952   1.392
51722W        W15479  17.107  10.724   1.389
51723W        W15480  17.230  33.884   2.831
51724W        W15481  39.872   7.362  12.965
51725W        W15482   0.250  23.653  14.964
51726W        W15483  25.582   3.220   0.903
51727W        W15484  14.599  11.817  11.033
51728W        W15485  18.777   6.677  11.402
51729W        W15486  14.774  21.241   2.803
51730W        W15487  15.693  28.657  12.386
51731W        W15488  29.427   9.864   0.891
51732W        W15489   2.469   2.325   2.752
51733W        W15490  26.463  23.015   1.753
51734W        W15491   3.749  24.171  14.341
51735W        W15492  32.579  44.899   1.847
51736W        W15493  24.643   3.894   1.362
51737W        W15494  33.011  16.100  14.923
51738W        W15495  10.292   3.260  11.493
51739W        W15496   5.903  17.236  13.457
51740W        W15497  10.873   3.305  14.373
51741W        W15498   3.440  35.438   4.683
51742W        W15499  39.908  24.220  12.954
51743W        W15500  18.207  24.609   0.348
51744W        W15501  27.058  36.489  12.868
51745W        W15502  40.486  38.842  11.105
51746W        W15503  12.360  40.987  11.999
51747W        W15504  25.131  32.460  10.639
51748W        W15505   4.263   4.322  14.983
51749W        W15506   5.194  28.967  10.552
51750W        W15507  25.001  19.087   0.324
51751W        W15508  37.423  11.834   1.263
51752W        W15509  33.027  29.927   5.120
51753W        W15510  16.575   4.800  10.551
51754W        W15511   9.702   4.372  14.878
51755W        W15512   9.734  12.819  13.470
51756W        W15513  38.563  17.199   4.161
51757W        W15514  31.118  27.969  12.352
51758W        W15515  29.464  29.071   2.902
51759W        W15516   5.895   0.872   0.362
51760W        W15517   2.467  14.112   0.440
51761W        W15518  30.127  35.407   3.754
51762W        W15519  11.829  27.989  10.106
51763W        W15520  15.118  33.562  12.010
51764W        W15521  23.147  26.601   3.671
51765W        W15522  21.647  41.861   0.786
51766W        W15523  42.896  43.005  13.045
51767W        W15524   7.855  40.324   1.789
51768W        W15525  23.153  24.042   3.680
51769W        W15526  14.097  21.045   4.674
51770W        W15527   5.907  20.101  13.878
51771W        W15528  10.661  19.761  13.416
51772W        W15529  40.535  31.015  12.073
51773W        W15530   7.830  31.527  12.914
51774W        W15531  26.152   3.360   3.665
51775W        W15532  13.325  21.047   5.251
51776W        W15533  12.749  29.447  14.810
51777W        W15534  27.461  28.959  14.925
51778W        W15535  29.930   9.301  13.824
51779W        W15536  34.554   8.668  11.015
51780W        W15537  20.574  10.722  14.936
51781W        W15538  25.561  40.013   1.787
51782W        W15539  14.309  16.771   1.437
51783W        W15540  25.647  17.570  14.918
51784W        W15541  36.964  13.629   0.830
51785W        W15542  24.584   0.929  10.426
51786W        W15543  38.861  24.526  14.950
51787W        W15544  29.431  21.545   4.279
51788W        W15545  25.096  14.652   0.351
51789W        W15546  31.580   0.746  14.933
51790W        W15547  44.766  20.043  12.871
51791W        W15548  19.640  24.699  14.763
51792W        W15549  37.441  20.745   0.479
51793W        W15550  18.765  10.236  14.776
51794W        W15551  39.945   7.176  10.486
51795W        W15552   7.672   7.191   2.233
51796W        W15553  21.233  34.052  14.327
51797W        W15554   4.862  22.623   3.329
51798W        W15555   6.879  37.029  11.872
51799W        W15556   6.854  13.266  13.881
51800W        W15557   2.347  36.932  13.871
51801W        W15558   4.357  15.598  14.814
51802W        W15559   8.227  23.543  12.828
51803W        W15560  21.057  32.490   2.732
51804W        W15561  36.967  32.089  14.031
51805W        W15562  32.139  42.850  12.871
51806W        W15563  17.210  16.138  10.443
51807W        W15564  44.826  36.564   4.624
51808W        W15565  25.968  35.016   4.700
51809W        W15566   7.844  21.079   0.341
51810W        W15567  40.902  23.156  11.546
51811W        W15568   9.845   5.418  12.492
51812W        W15569  19.121  42.396   0.385
51813W        W15570  26.194  33.519   2.277
51814W        W15571  24.522  30.126  14.474
51815W        W15572  39.960  24.151  13.875
51816W        W15573  34.465  11.660  10.464
51817W        W15574  40.037  14.186  14.880
51818W        W15575   8.207  19.745  10.557
51819W        W15576   3.359  40.359  12.883
51820W        W15577  12.814   3.402  12.875
51821W        W15578  22.165  24.032  14.838
51822W        W15579  30.935  34.916  14.510
51823W        W15580  28.168   3.829   3.337
51824W        W15581  18.147  36.346  12.831
51825W        W15582  29.964  23.518  13.915
51826W        W15583  29.514  14.794   4.137
51827W        W15584  12.270  35.369  12.358
51828W        W15585  18.574  25.026   3.804
51829W        W15586   8.211  31.560  13.490
51830W        W15587   2.460   3.371   0.249
51831W        W15588  44.470   2.432  12.062
51832W        W15589   9.382  32.000  12.029
51833W        W15590  26.150  41.296  14.931
51834W        W15591   7.897  11.338  13.539
51835W        W15592  39.371  37.957   3.243
51836W        W15593   6.268  22.523   3.801
51837W        W15594  29.141  24.669  14.775
51838W        W15595  26.097  12.303   3.704
51839W        W15596  40.008  11.286   4.640
51840W        W15597   6.259  22.701  14.497
51841W        W15598  34.121  39.364  13.932
51842W        W15599  44.921  32.011  12.961
51843W        W15600   6.413  28.945  14.947
51844W        W15601   2.907  41.974   0.339
51845W        W15602  25.054  15.650  13.003
51846W        W15603  23.221  18.285   3.221
51847W        W15604   6.201   5.917  12.369
51848W        W15605  18.286  44.423  11.928
51849W        W15606  38.474  17.161  12.070
51850W        W15607  15.622  23.159   1.348
51851W        W15608  31.584  22.047   0.340
51852W        W15609  40.812  44.935   0.283
51853W        W15610  19.672   9.299   1.390
51854W        W15611  26.202  14.211  12.504
51855W        W15612  13.285  22.577  10.451
51856W        W15613   7.378  15.205   0.419
51857W        W15614  36.590  27.559  14.455
51858W        W15615  21.177  21.688   4.707
51859W        W15616  38.476  32.469  14.773
51860W        W15617  33.935  29.053   2.798
51861W        W15618  23.590  21.048   4.713
51862W        W15619  44.777   5.302  14.509
51863W        W15620  32.583  35.004   3.741
51864W        W15621  37.931   3.955   0.767
51865W        W15622  24.484  32.441  11.606
51866W        W15623   6.873   3.862   2.697
51867W        W15624  14.139  21.522   4.275
51868W        W15625  14.174  23.568   4.171
51869W        W15626  23.038  31.007  12.935
51870W        W15627  33.470  21.604  10.951
51871W        W15628  43.277  36.451  10.972
51872W        W15629  21.036  19.757  12.339
51873W        W15630  35.071  28.941   3.678
51874W        W15631  35.404  31.126  13.365
51875W        W15632  22.997  34.406   4.623
51876W        W15633  28.090   4.802  13.395
51877W        W15634  21.687  38.556  14.979
51878W        W15635   6.743  23.655   3.149
51879W        W15636  15.670  23.126  11.118
51880W        W15637  19.737  28.141   4.699
51881W        W15638  42.464  35.457  14.293
51882W        W15639  17.209  24.596  10.608
51883W        W15640  11.801   8.322   1.263
51884W        W15641  29.119   7.811  14.360
51885W        W15642  31.495  20.568  14.898
51886W        W15643  37.387   0.851   3.148
51887W        W15644  30.971  17.640   4.837
51888W        W15645   1.281   5.195  11.898
51889W        W15646   5.376  25.215  11.911
51890W        W15647  27.566  26.652   2.351
51891W        W15648   4.271   6.376  11.440
51892W        W15649  17.685  36.399  14.847
51893W        W15650  29.581   5.329   0.769
51894W        W15651  16.735  37.543  11.447
51895W        W15652  11.778  43.981  12.988
51896W        W15653  14.217  16.607   2.768
51897W        W15654  41.848   4.409  12.437
51898W        W15655  36.420  41.305  10.412
51899W        W15656  24.719  19.597  13.533
51900W        W15657  40.016  29.145   3.701
51901W        W15658  34.912  24.114  11.582
51902W        W15659  37.350  26.692   2.198
51903W        W15660  31.947  42.381  12.998
51904W        W15661  35.919  37.972   4.639
51905W        W15662  29.969   9.722   0.868
51906W        W15663  22.636  20.114  12.068
51907W        W15664  32.467  18.270  11.095
51908W        W15665  12.151   8.354  14.805
51909W        W15666  21.747  23.058   3.302
51910W        W15667  31.636   6.708  14.770
51911W        W15668  20.220  36.567  10.506
51912W        W15669  42.899  32.037   0.919
51913W        W15670  26.520  32.507  13.545
51914W        W15671  19.082  36.375  13.394
51915W        W15672  21.683   2.369   0.405
51916W        W15673  41.503  11.643  11.518
51917W        W15674  26.077  35.914   0.945
51918W        W15675   4.280  21.242   1.843
51919W        W15676  11.778  13.199   1.821
51920W        W15677  40.845  40.922   2.735
51921W        W15678  42.986  36.971   4.179
51922W        W15679  41.973   9.685  10.417
51923W        W15680  40.049  24.725  12.345
51924W        W15681   7.804  25.487   3.376
51925W        W15682  25.649  26.165   4.672
51926W        W15683  36.583   0.965   4.194
51927W        W15684   9.290  34.505  14.512
51928W        W15685   8.383  21.158   0.322
51929W        W15686   7.198  25.978  14.503
51930W        W15687  42.378  23.683  10.630
51931W        W15688  35.053   7.851   1.724
51932W        W15689   7.704   5.345  13.051
51933W        W15690  40.908  23.735  12.983
51934W        W15691  16.287   1.929   2.368
51935W        W15692  20.070  39.440   4.642
51936W        W15693  16.135  13.673   1.244
51937W        W15694  42.825  17.789   3.328
51938W        W15695  31.449   7.842   3.221
51939W        W15696  28.565   2.407   4.249
51940W        W15697  33.061  30.576   1.914
51941W        W15698  26.979  22.645  14.348
51942W        W15699  30.592   7.787  14.904
51943W        W15700  15.279   5.209   0.441
51944W        W15701  39.049  18.204   3.782
51945W        W15702   6.851  23.591  14.488
51946W        W15703   7.409  22.221  10.486
51947W        W15704   6.285   6.793   1.366
51948W        W15705  17.075  26.029  14.780
51949W        W15706  11.302   7.381   2.195
51950W        W15707   5.280  33.108   0.278
51951W        W15708  32.971  38.362   4.240
51952W        W15709  35.069  22.745  14.812
51953W        W15710  15.691  23.527   4.169
51954W        W15711  16.680  19.724   0.739
51955W        W15712  24.624  14.803   0.370
51956W        W15713   8.252  18.765  12.834
51957W        W15714   9.351  29.043  13.349
51958W        W15715  12.241  38.936   2.789
51959W        W15716   7.710  25.131   4.233
51960W        W15717  35.553  27.577  13.439
51961W        W15718  38.430   2.377   3.753
51962W        W15719   4.431  13.238   1.926
51963W        W15720  29.617   0.364  12.413
51964W        W15721   0.466  17.285   2.384
51965W        W15722  12.818  28.674  13.854
51966W        W15723  39.422  34.522   3.280
51967W        W15724  18.052  38.549   4.152
51968W        W15725   6.362   1.254  11.547
51969W        W15726  36.887  21.056  11.553
51970W        W15727  43.816  20.563  11.513
51971W        W15728   8.310  22.159   1.845
51972W        W15729   4.399   9.216   3.827
51973W        W15730   1.349  37.947  14.955
51974W        W15731  42.902  11.652  14.490
51975W        W15732  41.403  20.747  14.331
51976W        W15733  34.494   1.851   1.436
51977W        W15734  43.919  12.673   3.686
51978W        W15735  32.090  43.513   1.446
51979W        W15736   3.745  19.654  12.481
51980W        W15737  12.789  16.123  11.576
51981W        W15738   1.313  18.646   4.202
51982W        W15739   2.752  20.158  11.906
51983W        W15740   0.405  37.060  11.023
51984W        W15741  14.636  26.105   2.664
51985W        W15742  16.663  21.076  11.075
51986W        W15743  23.231  43.311  12.903
51987W        W15744   0.814  17.132  13.317
51988W        W15745   1.765   4.869  14.946
51989W        W15746  19.050  11.368   0.927
51990W        W15747  24.049  33.965  12.569
51991W        W15748  29.483  10.210  12.543
51992W        W15749  42.397  11.224  14.808
51993W        W15750   3.811   7.413   2.770
51994W        W15751   3.456   1.772   4.212
51995W        W15752  14.210  36.987  14.782
51996W        W15753   2.239  35.871  12.550
51997W        W15754  17.616  34.918  13.326
51998W        W15755   0.789  18.101  12.343
51999W        W15756  14.194   7.176   1.262
52000W        W15757  12.679   8.388  14.882
52001W        W15758  25.124  22.042  14.475
52002W        W15759  30.925  33.106  12.020
52003W        W15760   5.696  26.057   2.360
52004W        W15761  42.496  18.296   3.291
52005W        W15762  44.791   9.847  12.544
52006W        W15763  42.978  35.085   1.378
52007W        W15764  35.974   2.240   2.368
52008W        W15765  22.501  32.459  13.058
52009W        W15766  28.555   4.443   1.299
52010W        W15767  44.799  14.267   2.192
52011W        W15768  33.603   0.939  10.625
52012W        W15769  19.095  38.511   4.323
52013W        W15770  35.090  25.534  12.980
52014W        W15771   3.382  24.076  12.529
52015W        W15772  19.643  40.422   5.151
52016W        W15773  29.026  42.494   2.855
52017W        W15774  37.937  25.128  12.453
52018W        W15775  22.192   0.756   2.851
52019W        W15776  20.648  35.960  14.945
52020W        W15777  35.591  15.088  14.889
52021W        W15778  39.035  20.187   4.689
52022W        W15779  11.306  10.297   1.750
52023W        W15780   8.214  13.723  12.925
52024W        W15781   1.469  31.509   3.245
52025W        W15782  36.072  40.808   4.740
52026W        W15783  21.747  19.617   1.707
52027W        W15784  31.505   4.793   1.438
52028W        W15785  40.905   2.336  14.935
52029W        W15786  32.126  13.328  11.044
52030W        W15787  39.495   5.790  11.974
52031W        W15788  12.150  25.556  13.529
52032W        W15789  43.795  24.043   4.240
52033W        W15790  21.712  21.633  11.912
52034W        W15791  39.402   8.674   1.427
52035W        W15792  13.606  35.530  10.500
52036W        W15793   2.418  27.986  10.890
52037W        W15794  40.490   7.686   0.778
52038W        W15795   1.933   6.372   3.313
52039W        W15796   5.349  18.667   3.327
52040W        W15797  28.168   8.273   2.388
52041W        W15798  37.003  14.715  12.036
52042W        W15799  16.631   3.272   4.832
52043W        W15800  33.890  38.035  11.105
52044W        W15801  40.477  12.776   4.244
52045W        W15802   1.385  30.127   2.213
52046W        W15803  15.271   8.352  11.372
52047W        W15804  15.173  22.529  13.047
52048W        W15805   1.281  17.639  11.594
52049W        W15806  13.157  25.572  11.879
52050W        W15807   4.851  43.789   0.377
52051W        W15808  29.468  28.536   2.296
52052W        W15809  10.318   8.789   0.280
52053W        W15810   5.749  37.961  14.446
52054W        W15811  40.454   9.704   4.133
52055W        W15812  42.854  30.471  12.576
52056W        W15813  34.968  23.705   0.308
52057W        W15814  43.328  18.248   1.912
52058W        W15815  43.278  29.006   1.715
52059W        W15816  32.552   6.879  11.093
52060W        W15817  40.951  15.777  10.428
52061W        W15818  34.088  34.547  14.866
52062W        W15819  39.066   2.833  11.950
52063W        W15820  11.791   8.293   2.242
52064W        W15821  33.970  28.112   1.873
52065W        W15822   2.869  44.944  12.401
52066W        W15823  20.092  32.565  11.954
52067W        W15824  44.843  32.540   4.322
52068W        W15825  25.637  13.788  11.856
52069W        W15826  39.406   3.766  14.984
52070W        W15827  19.739   9.763   3.172
52071W        W15828  20.190   4.366  14.988
52072W        W15829  32.540   3.945   1.850
52073W        W15830  26.520   5.816   3.774
52074W        W15831   8.321  43.958  11.050
52075W        W15832  24.166  17.061  10.126
52076W        W15833  36.967  19.683   3.861
52077W        W15834  31.003  39.808  12.434
52078W        W15835  26.615  33.908  12.988
52079W        W15836  26.020  44.299   0.421
52080W        W15837  29.045   3.410  14.446
52081W        W15838  43.770  19.227  12.836
52082W        W15839   1.241  20.740   3.365
52083W        W15840  33.105  14.619  14.487
52084W        W15841  28.070  11.207  11.583
52085W        W15842  12.642  43.500   3.189
52086W        W15843  40.890  12.727   1.436
52087W        W15844  38.899   3.824   2.399
52088W        W15845  30.931   2.365   3.275
52089W        W15846   5.707  40.954  13.898
52090W        W15847  15.737   3.372   0.265
52091W        W15848  10.145  36.403  12.493
52092W        W15849  14.191  25.655   3.857
52093W        W15850  14.702   9.354  10.623
52094W        W15851   3.771  18.102   3.237
52095W        W15852  11.645  31.576  14.011
52096W        W15853   8.165  44.449   4.191
52097W        W15854  20.124  38.947   0.840
52098W        W15855  24.702  42.869   1.418
52099W        W15856  26.525  33.115   2.873
52100W        W15857  14.248  42.356   1.226
52101W        W15858  15.202  32.979  14.886
52102W        W15859  19.545   9.304  14.787
52103W        W15860  39.326  28.589   0.395
52104W        W15861  30.648  31.998  11.012
52105W        W15862  18.166   8.690  11.103
52106W        W15863   3.863  40.900   2.856
52107W        W15864   1.748  28.959   3.221
52108W        W15865  42.290  41.378   3.219
52109W        W15866  41.016  20.653  14.386
52110W        W15867  38.515  26.475   1.439
52111W        W15868  44.419   1.349   4.598
52112W        W15869  41.965  28.025   1.861
52113W        W15870   3.294   8.815   4.147
52114W        W15871  21.512   1.848   4.735
52115W        W15872  24.620  34.957   3.728
52116W        W15873  14.593  14.107   4.239
52117W        W15874   0.966   1.851   3.271
52118W        W15875  43.944   5.381  14.781
52119W        W15876  17.675  30.591   0.869
52120W        W15877   4.405  32.536   1.356
52121W        W15878  16.605  22.081   4.144
52122W        W15879   6.253   2.388  14.989
52123W        W15880  22.018   1.337   2.803
52124W        W15881  43.949  12.305  14.909
52125W        W15882  19.233  20.700  11.049
52126W        W15883   4.288   8.829   4.771
52127W        W15884  24.084  23.733   3.344
52128W        W15885  19.260  37.862   0.905
52129W        W15886  40.482  23.629   1.720
52130W        W15887   3.385  21.170  10.501
52131W        W15888  20.066   8.707   3.801
52132W        W15889  30.609  15.592  12.936
52133W        W15890  13.163  29.090   0.397
52134W        W15891   0.833  39.921  10.026
52135W        W15892   8.847  33.383  10.945
52136W        W15893  17.188  15.763  14.791
52137W        W15894   1.900  29.605  11.392
52138W        W15895  21.745  36.038  14.843
52139W        W15896  31.646   2.905  11.534
52140W        W15897   6.791  20.238   3.729
52141W        W15898  39.326   5.736  10.050
52142W        W15899  41.402   4.804  12.045
52143W        W15900   0.946  42.513  12.974
52144W        W15901  12.696  15.216  13.843
52145W        W15902  40.329  32.607  14.423
52146W        W15903  30.152  27.196   0.343
52147W        W15904   7.372  39.468  10.939
52148W        W15905   3.943  24.719   0.329
52149W        W15906  13.782   5.923  13.442
52150W        W15907  29.144  13.106  11.060
52151W        W15908   2.469   6.870   4.756
52152W        W15909  14.770   5.299  12.836
52153W        W15910   8.195  28.980   0.812
52154W        W15911  23.557  16.608  11.605
52155W        W15912  35.997  40.489   2.190
52156W        W15913  12.310  37.953  10.450
52157W        W15914  20.599  37.998  13.935
52158W        W15915   1.469  28.510   2.876
52159W        W15916  15.762   1.268   1.838
52160W        W15917  16.260  34.915  12.840
52161W        W15918  32.957  36.902  10.539
52162W        W15919  16.735  17.799  12.347
52163W        W15920   5.284  27.594  12.054
52164W        W15921  28.545  33.024  14.809
52165W        W15922   9.652  32.557   0.270
52166W        W15923  30.924   5.796   4.251
52167W        W15924   2.723  42.304   2.726
52168W        W15925   3.829   7.178   1.739
52169W        W15926   8.316  44.330  13.976
52170W        W15927   3.262  30.598  14.372
52171W        W15928  16.253  15.228  10.151
52172W        W15929  39.023  22.087   4.656
52173W        W15930  19.723   5.828  14.878
52174W        W15931  10.215  31.458   0.795
52175W        W15932  10.342  10.335  13.796
52176W        W15933  14.704   3.952  10.975
52177W        W15934  28.546  44.887   4.665
52178W        W15935  34.412  29.996   2.881
52179W        W15936  12.277  43.397   1.739
52180W        W15937  22.096  21.177   3.315
52181W        W15938  43.958  18.140   3.202
52182W        W15939  11.364  36.029  14.970
52183W        W15940   1.239  22.190  14.767
52184W        W15941  20.230  26.964   1.775
52185W        W15942  43.899  19.133   0.728
52186W        W15943  10.638   2.437  11.074
52187W        W15944  13.252  16.106   4.155
52188W        W15945  40.842  29.480   1.236
52189W        W15946  40.468   7.314   4.217
52190W        W15947   7.287   0.810  14.808
52191W        W15948  34.386  37.018   4.627
52192W        W15949  42.517  25.512  13.548
52193W        W15950  19.047  41.362   0.807
52194W        W15951  26.654  19.063   4.672
52195W        W15952  41.973  15.273  12.893
52196W        W15953  29.036  24.135   5.764
52197W        W15954  18.163  32.475   4.685
52198W        W15955  13.673  37.569  11.560
52199W        W15956  15.233  21.157  12.551
52200W        W15957  18.294   1.237   4.798
52201W        W15958  26.154  42.428   3.786
52202W        W15959   6.899  41.372   0.402
52203W        W15960   9.698  24.208  10.948
52204W        W15961   3.393  44.881  11.938
52205W        W15962   1.816  41.396   1.258
52206W        W15963  30.926   0.826  14.335
52207W        W15964  33.062  29.976  10.990
52208W        W15965   8.359  36.518   2.762
52209W        W15966  41.348  37.884  12.422
52210W        W15967  33.468  44.976   4.310
52211W        W15968  37.466   6.216   3.206
52212W        W15969  25.545   8.678  13.323
52213W        W15970  13.624  10.678  13.442
52214W        W15971  14.643  17.614  11.010
52215W        W15972   9.165   4.859  14.992
52216W        W15973  23.568   1.294  12.997
52217W        W15974   1.259  14.719   0.840
52218W        W15975   3.830  16.303  12.868
52219W        W15976  37.359  15.730   5.081
52220W        W15977   7.684  21.128  11.476
52221W        W15978  14.176  39.903   1.402
52222W        W15979  38.567   1.443  13.401
52223W        W15980  13.732  32.136   1.321
52224W        W15981  41.886  26.993  10.554
52225W        W15982  41.872  21.109   3.218
52226W        W15983  33.092  21.640  11.938
52227W        W15984  44.272   5.244  14.771
52228W        W15985  24.491  22.011   4.604
52229W        W15986  36.425  10.767   1.754
52230W        W15987  25.671  28.648   1.925
52231W        W15988  11.348   2.943  10.595
52232W        W15989   6.851  36.550  12.078
52233W        W15990   5.754   6.895  10.465
52234W        W15991  42.853  16.775  11.443
52235W        W15992  19.122  11.823  11.071
52236W        W15993   6.782  41.421  12.440
52237W        W15994  35.081  22.193  10.561
52238W        W15995  39.978  24.174  10.594
52239W        W15996   2.946  36.532  10.451
52240W        W15997  12.742   4.428   2.707
52241W        W15998  22.608  43.407   2.331
52242W        W15999   2.460  18.774  10.455
52243W        W16000  14.818  44.010  11.476
52244W        W16001  33.513  32.078   4.165
52245W        W16002   1.944  38.832   0.736
52246W        W16003  13.289   4.275   1.387
52247W        W16004  23.177  41.009  12.451
52248W        W16005   9.736  32.446  12.859
52249W        W16006  12.157   9.183  12.047
52250W        W16007  27.616  29.584  14.460
52251W        W16008  26.116  17.229  10.607
52252W        W16009  41.043  37.462   1.234
52253W        W16010  30.596   3.291  11.953
52254W        W16011   4.379  41.333   4.616
52255W        W16012   7.797   5.326   1.869
52256W        W16013   5.857  41.382   3.299
52257W        W16014  32.498  39.450  14.506
52258W        W16015  18.261  31.584  12.381
52259W        W16016  42.978  32.020   5.207
52260W        W16017  11.787  39.964  10.979
52261W        W16018  42.811   8.754  13.803
52262W        W16019  26.953  21.542   0.932
52263W        W16020   9.680  37.893  13.882
52264W        W16021   5.298   1.312  13.339
52265W        W16022  17.206  27.057  13.436
52266W        W16023  18.658  19.592   0.444
52267W        W16024  31.583  26.204   5.209
52268W        W16025  29.467  34.919  14.977
52269W        W16026  28.448  27.536  12.388
52270W        W16027   6.741  28.561  12.549
52271W        W16028  16.731   0.479  13.824
52272W        W16029  29.975  40.824  11.594
52273W        W16030   1.803  34.957  11.544
52274W        W16031   5.849  21.039   0.893
52275W        W16032  29.638  11.206  14.375
52276W        W16033  21.165  43.955  12.843
52277W        W16034  31.570   3.305  11.499
52278W        W16035  12.288  37.948   2.322
52279W        W16036  18.661  21.221   4.296
52280W        W16037   4.893  32.577   1.882
52281W        W16038  21.178  30.630   2.389
52282W        W16039  29.131  28.993   1.795
52283W        W16040   9.801   2.392  13.894
52284W        W16041  28.149   7.892   2.237
52285W        W16042   2.353  27.602   3.772
52286W        W16043  15.097  13.683  14.437
52287W        W16044   1.969  41.362  13.875
52288W        W16045  35.507  44.492  13.887
52289W        W16046  38.916  21.671   0.246
52290W        W16047  18.116  20.221   3.315
52291W        W16048  44.900  34.993   0.270
52292W        W16049  25.565   7.864   1.878
52293W        W16050   2.962  32.425  10.940
52294W        W16051  44.845  21.094   1.441
52295W        W16052  27.952  10.335   2.846
52296W        W16053  39.851  27.013  11.114
52297W        W16054   4.244  16.732   0.468
52298W        W16055  36.365  33.023   4.761
52299W        W16056  16.076  31.950   5.260
52300W        W16057  26.625  36.348  12.851
52301W        W16058  15.738   5.381   0.944
52302W        W16059  36.475  38.826   4.236
52303W        W16060  26.013  36.920   0.843
52304W        W16061  11.696  26.171   1.817
52305W        W16062  39.809  10.856   0.438
52306W        W16063  42.000  28.075   4.340
52307W        W16064  44.280   9.319  12.371
52308W        W16065   9.239  19.650  10.921
52309W        W16066  29.567  28.014  12.863
52310W        W16067  30.912  17.167   1.697
52311W        W16068   5.869   0.911  14.897
52312W        W16069   4.916  13.730  12.488
52313W        W16070  33.926  22.644  14.973
52314W        W16071  38.517  43.963  11.082
52315W        W16072  18.639   1.359   0.285
52316W        W16073  16.288  23.133   1.231
52317W        W16074  22.027  27.032  12.498
52318W        W16075  40.870  44.932  11.535
52319W        W16076  15.770  22.544   5.280
52320W        W16077  36.867  34.979   1.336
52321W        W16078   6.339  41.406   3.777
52322W        W16079   8.793  17.152  10.019
52323W        W16080   7.300  12.706  11.479
52324W        W16081  35.998  43.984   3.685
52325W        W16082  44.778  34.433   2.782
52326W        W16083  34.445  37.362  11.923
52327W        W16084  10.803  12.358   1.890
52328W        W16085  29.489  16.252  10.000
52329W        W16086  21.655   7.673   2.889
52330W        W16087  37.555  25.608   0.807
52331W        W16088  34.574  11.700  13.376
52332W        W16089  23.122  13.236  10.633
52333W        W16090   6.678  18.072  10.609
52334W        W16091  40.033  15.144   3.383
52335W        W16092   2.271  38.976   3.287
52336W        W16093  26.040  20.253  12.377
52337W        W16094  10.798  25.024   3.167
52338W        W16095  24.002  31.065   0.469
52339W        W16096  26.470  29.460   4.262
52340W        W16097   5.264  24.095   0.800
52341W        W16098  24.558  28.587  14.317
52342W        W16099  34.596  21.125  11.945
52343W        W16100  33.926  33.884   3.642
52344W        W16101  14.640   3.923   0.813
52345W        W16102  38.076  23.080  12.384
52346W        W16103  22.191  27.520  12.457
52347W        W16104  34.544  27.582   1.795
52348W        W16105  23.699  35.403   4.644
52349W        W16106  15.291  25.061  12.497
52350W        W16107  40.334   8.221   2.307
52351W        W16108  14.145  37.538  12.024
52352W        W16109  19.547   2.250  10.907
52353W        W16110  20.683  33.618   5.318
52354W        W16111  15.264  10.207  14.882
52355W        W16112  42.924   0.763   5.125
52356W        W16113  33.995  11.794  11.964
52357W        W16114  17.757   1.285  10.509
52358W        W16115  19.707  42.787  14.998
52359W        W16116  32.547  23.146  12.990
52360W        W16117  14.703  44.789   1.302
52361W        W16118  24.668  32.890  11.458
52362W        W16119  29.667  41.424   0.360
52363W        W16120  24.039  29.580  13.485
52364W        W16121  16.767  37.433   3.863
52365W        W16122  24.032   1.433   2.722
52366W        W16123   3.832   4.334  14.415
52367W        W16124  19.657  18.160   2.280
52368W        W16125  23.120  32.966   2.713
52369W        W16126  25.589  18.246  10.923
52370W        W16127  12.823  18.219  11.100
52371W        W16128  38.902  20.166  10.477
52372W        W16129  32.431  28.474   3.727
52373W        W16130  21.091  44.907   2.289
52374W        W16131  20.195   8.690   2.311
52375W        W16132  43.486  10.796  13.914
52376W        W16133  30.004  32.085   2.403
52377W        W16134  39.865  38.351   1.331
52378W        W16135  36.912   0.249  14.497
52379W        W16136  24.556   9.213  14.012
52380W        W16137  32.033  40.851  14.811
52381W        W16138   8.773  40.383  10.577
52382W        W16139  25.067  24.124   4.719
52383W        W16140   1.308  35.883   3.375
52384W        W16141  15.606  35.097   1.401
52385W        W16142  10.241   6.888  10.468
52386W        W16143  22.675  21.062   3.356
52387W        W16144  26.553  43.784  13.540
52388W        W16145  23.072   1.264   2.302
52389W        W16146  34.072  44.424   3.637
52390W        W16147   6.701  11.274  12.901
52391W        W16148   7.205   0.918   0.375
52392W        W16149  44.293  40.039   3.346
52393W        W16150  16.191  10.327   0.482
52394W        W16151  33.523  23.502  10.448
52395W        W16152  22.105  40.902   4.637
52396W        W16153   1.923   2.923   1.745
52397W        W16154   9.774  14.631   1.270
52398W        W16155  10.637  20.124   2.696
52399W        W16156  39.841  10.780  12.835
52400W        W16157   5.390  34.979   1.733
52401W        W16158   2.376   0.420   4.826
52402W        W16159  13.196  29.976  11.039
52403W        W16160   1.429  21.564   4.222
52404W        W16161  35.904  26.670   1.360
52405W        W16162  16.128   3.868   3.629
52406W        W16163  10.839  24.497   1.785
52407W        W16164  39.353  31.033   3.181
52408W        W16165   6.874  18.660  13.054
52409W        W16166  26.996  37.483   3.801
52410W        W16167  44.783  18.571   4.770
52411W        W16168   8.223  33.094   0.948
52412W        W16169  28.943   6.871  14.360
52413W        W16170  14.608  40.441   0.436
52414W        W16171   3.290   7.229   3.145
52415W        W16172  38.977  32.106   3.243
52416W        W16173  20.548  14.600   2.341
52417W        W16174  40.365  19.070  12.034
52418W        W16175   6.353  12.282   4.710
52419W        W16176   7.854  13.348  11.458
52420W        W16177  38.012   1.757   2.295
52421W        W16178  19.649  42.348   3.728
52422W        W16179  20.204   0.923  13.824
52423W        W16180  31.918  32.513   2.843
52424W        W16181  44.817  11.721   2.388
52425W        W16182   7.242  39.315   4.829
52426W        W16183  26.468  14.748   1.888
52427W        W16184  24.529  10.152  14.838
52428W        W16185  29.120   3.436   0.458
52429W        W16186  20.199  43.922  14.924
52430W        W16187  24.146   8.796  11.029
52431W        W16188  38.335   6.274  11.557
52432W        W16189  14.826  35.088   0.843
52433W        W16190   8.224   3.295  12.947
52434W        W16191   9.158  25.968   2.274
52435W        W16192  22.153   3.279   0.815
52436W        W16193  12.777  37.087  13.001
52437W        W16194  13.255  28.487  12.092
52438W        W16195  44.420  30.427  10.980
52439W        W16196   5.313  27.993  12.863
52440W        W16197  35.511  33.506  12.400
52441W        W16198   4.707   2.852  13.374
52442W        W16199  43.455  42.411  10.450
52443W        W16200  40.977   0.471  12.896
52444W        W16201  32.534   3.796   2.362
52445W        W16202   3.241   1.276  13.517
52446W        W16203  27.180   1.896  13.920
52447W        W16204  15.760   3.908   4.602
52448W        W16205  29.448  43.428   0.913
52449W        W16206  18.257   2.726   0.266
52450W        W16207  24.140  39.391   0.311
52451W        W16208  35.534  27.064   4.692
52452W        W16209  38.855  12.327   0.355
52453W        W16210  13.294  41.457   2.235
52454W        W16211  34.095   4.719   1.771
52455W        W16212   9.788   4.887  14.479
52456W        W16213  11.206  27.135  13.503
52457W        W16214  34.591  25.560   4.722
52458W        W16215  32.409  40.023   2.874
52459W        W16216  43.903  33.047   0.372
52460W        W16217  31.085   7.417   3.808
52461W        W16218  36.936  26.666  12.432
52462W        W16219  19.592  15.172   4.163
52463W        W16220  43.830   3.309   4.711
52464W        W16221  23.541   5.192   0.325
52465W        W16222  44.982   0.295   0.775
52466W        W16223   8.233  39.411   4.602
52467W        W16224   5.310   5.888  10.622
52468W        W16225  15.133  30.512   4.824
52469W        W16226   0.391   6.205  10.428
52470W        W16227  11.327  18.753   1.890
52471W        W16228  32.461  24.158  10.461
52472W        W16229  16.745  21.178  14.014
52473W        W16230  21.183  15.316  11.982
52474W        W16231   4.415  14.231   1.366
52475W        W16232  37.488  19.230   3.802
52476W        W16233  17.100  33.387   2.272
52477W        W16234   5.868  34.999  12.443
52478W        W16235  21.051  22.079   2.754
52479W        W16236   7.325  32.423   2.808
52480W        W16237   0.415  33.934  14.487
52481W        W16238  29.980   6.304  11.891
52482W        W16239  23.672   7.868  13.332
52483W        W16240  16.682   3.221  14.930
52484W        W16241   2.396  30.462   3.793
52485W        W16242  42.387  37.963  14.369
52486W        W16243  25.140  10.650  12.556
52487W        W16244  12.198  14.280   5.211
52488W        W16245  42.320  15.248   4.803
52489W        W16246  32.633  30.952   4.694
52490W        W16247  43.806  39.849   3.177
52491W        W16248  36.096  25.064  13.039
52492W        W16249  40.814  10.265   2.888
52493W        W16250  12.690  31.897  11.121
52494W        W16251  16.768   0.793   4.345
52495W        W16252  27.071  42.442  14.903
52496W        W16253   1.407  12.287  14.437
52497W        W16254  38.076  27.069  12.966
52498W        W16255  19.647   8.657   2.197
52499W        W16256  31.066  21.026  14.933
52500W        W16257  38.820  19.707   5.217
52501W        W16258  12.613  38.418  10.951
52502W        W16259  37.443  31.093  14.338
52503W        W16260  27.014  33.026   4.265
52504W        W16261   2.820  29.946  11.612
52505W        W16262   8.319  10.286   2.860
52506W        W16263   7.671  32.056  11.432
52507W        W16264  42.872   3.884  11.910
52508W        W16265  23.502  11.762   2.898
52509W        W16266  39.054   3.411  11.044
52510W        W16267  14.794  12.794   4.218
52511W        W16268  27.129  21.653   2.866
52512W        W16269  37.086  27.034  13.920
52513W        W16270  35.367  33.421   2.380
52514W        W16271   2.912  41.299  11.487
52515W        W16272   3.903  22.999   3.637
52516W        W16273  21.529  26.527   0.422
52517W        W16274  23.203   3.256  10.613
52518W        W16275  10.823  31.610   0.900
52519W        W16276   0.288  20.031   4.141
52520W        W16277  27.167  24.700  11.569
52521W        W16278  30.964   1.841  10.459
52522W        W16279  16.787  31.024  11.480
52523W        W16280  16.207  39.488   4.322
52524W        W16281  41.359  32.613   0.371
52525W        W16282  43.500  33.520  11.380
52526W        W16283  20.665  21.599  13.024
52527W        W16284  18.689  18.260   0.925
52528W        W16285  27.962  39.515  14.456
52529W        W16286  43.293  20.272   1.211
52530W        W16287  30.014   2.430  14.478
52531W        W16288  11.683  26.698   1.364
52532W        W16289  44.389  29.645   2.788
52533W        W16290  29.464  14.230   5.222
52534W        W16291  20.672  42.457  11.530
52535W        W16292  27.548  24.619  14.358
52536W        W16293  11.704   2.244   3.840
52537W        W16294  43.478  14.249   4.177
52538W        W16295   9.267  42.911  11.893
52539W        W16296  40.339   4.748  11.504
52540W        W16297   1.249  26.971  13.914
52541W        W16298  26.519  34.897   1.776
52542W        W16299  41.787  21.049   1.266
52543W        W16300   8.891  37.061   3.222
52544W        W16301  38.005   2.467   0.829
52545W        W16302  28.437  33.447  13.825
52546W        W16303  42.988  13.608   3.185
52547W        W16304   8.367   2.807   1.426
52548W        W16305  26.547   3.725   5.300
52549W        W16306  11.302   6.915  13.473
52550W        W16307  23.641   5.420   3.230
52551W        W16308  42.346  33.922   1.363
52552W        W16309  28.959   6.890  10.504
52553W        W16310  15.723  20.664   3.666
52554W        W16311   4.348  41.469  10.151
52555W        W16312  38.460   3.238   4.788
52556W        W16313  27.671  27.118  12.418
52557W        W16314  11.204  17.731   4.224
52558W        W16315  16.275   2.907  10.482
52559W        W16316   9.384  19.243  10.908
52560W        W16317  38.435  20.758  11.911
52561W        W16318  38.904  19.671  10.911
52562W        W16319  28.614   6.278  10.556
52563W        W16320  22.157  28.992  13.419
52564W        W16321   3.776   7.209  12.425
52565W        W16322  31.402  23.561  12.854
52566W        W16323   8.710  20.050   3.168
52567W        W16324  14.233  24.204  10.611
52568W        W16325  15.764  13.187   3.814
52569W        W16326   6.816  28.483  10.422
52570W        W16327  24.639  26.663   1.922
52571W        W16328  14.096  20.141  10.408
52572W        W16329  11.836  15.698   1.436
52573W        W16330  34.062  13.721   0.442
52574W        W16331  30.486  10.851  12.450
52575W        W16332  43.991  34.899   1.227
52576W        W16333  13.832  19.679  11.886
52577W        W16334  37.420  29.958  13.521
52578W        W16335  27.994  39.942  13.818
52579W        W16336  42.467  41.501  14.387
52580W        W16337   7.216  32.485  12.875
52581W        W16338   1.385  23.007   0.248
52582W        W16339  43.996   8.253   2.200
52583W        W16340  17.740  37.390   3.169
52584W        W16341  33.554  26.982  12.400
52585W        W16342   8.781   3.910   3.377
52586W        W16343  24.536  39.840   2.854
52587W        W16344   9.746  13.331   1.843
52588W        W16345  16.214   9.845  12.083
52589W        W16346  33.020  27.620   1.245
52590W        W16347  36.515  32.575  10.973
52591W        W16348  37.880  44.946   3.700
52592W        W16349  31.918  32.076   1.729
52593W        W16350  14.202  18.698   2.399
52594W        W16351  11.161  41.812   4.807
52595W        W16352  14.781  20.122   1.304
52596W        W16353  27.051  43.845   2.362
52597W        W16354  15.216  33.973  11.426
52598W        W16355  36.060  19.169   3.188
52599W        W16356  43.008   6.747   3.777
52600W        W16357  25.619  43.317   0.785
52601W        W16358  21.680  37.429  11.097
52602W        W16359   2.784  14.590   4.257
52603W        W16360   6.217  20.629  11.594
52604W        W16361  43.481  34.458  10.046
52605W        W16362  15.161  42.525  13.904
52606W        W16363   4.228  22.614   1.264
52607W        W16364  22.732  25.006  13.452
52608W        W16365   2.826   8.788  14.902
52609W        W16366  28.109  42.864   1.906
52610W        W16367  26.969  10.257  13.509
52611W        W16368  36.991  23.987   2.416
52612W        W16369  17.618  31.016   2.739
52613W        W16370  26.666  41.498   1.415
52614W        W16371  11.143  15.167  14.985
52615W        W16372  13.228   8.371   1.727
52616W        W16373  10.237  25.493  11.088
52617W        W16374   6.760  24.990   2.239
52618W        W16375  24.679  26.612  12.433
52619W        W16376  24.637  36.524  10.442
52620W        W16377  28.026  28.514  12.830
52621W        W16378   2.822  15.114  13.025
52622W        W16379  31.625  13.829  12.027
52623W        W16380  41.888   0.469   1.232
52624W        W16381   6.916  35.960   2.896
52625W        W16382  27.579  34.436  10.510
52626W        W16383  14.167   5.352   3.237
52627W        W16384  35.579   1.873   9.999
52628W        W16385  12.676   1.974   3.849
52629W        W16386  40.924  36.981   1.712
52630W        W16387  30.100   2.928  14.479
52631W        W16388   9.341  13.674   2.306
52632W        W16389  15.671  38.827  11.373
52633W        W16390  44.343  32.562  11.598
52634W        W16391  34.377  43.330   3.714
52635W        W16392  15.110  15.696   3.669
52636W        W16393  33.541  14.104   2.294
52637W        W16394  29.030  37.349   0.250
52638W        W16395  24.094  43.380   3.655
52639W        W16396  35.891  31.514  13.484
52640W        W16397  31.554  30.465   0.822
52641W        W16398  14.593  17.084   1.725
52642W        W16399  29.974  18.723   3.200
52643W        W16400  20.176  19.222  14.993
52644W        W16401   0.407  18.608  12.480
52645W        W16402  35.518  19.059   1.265
52646W        W16403  34.509  13.193   1.391
52647W        W16404  22.514  24.080  11.017
52648W        W16405  28.024  15.757   1.321
52649W        W16406   5.849  12.631  12.023
52650W        W16407  35.083  18.635   0.290
52651W        W16408  14.309   7.849   3.202
52652W        W16409  20.701   4.942  12.027
52653W        W16410   3.346  37.526  10.889
52654W        W16411  30.607  27.103  10.605
52655W        W16412  31.070  18.666  11.610
52656W        W16413  10.200  10.866   1.895
52657W        W16414   6.279  33.981   4.291
52658W        W16415  25.984  14.752  14.398
52659W        W16416  29.652  34.369   3.159
52660W        W16417  31.947  38.383   3.634
52661W        W16418  36.465  43.404   3.262
52662W        W16419  40.417   6.233   0.879
52663W        W16420  21.019  34.883   2.381
52664W        W16421  33.023  31.619  11.071
52665W        W16422  41.535   0.416  11.913
52666W        W16423  36.421   4.936  11.491
52667W        W16424  25.690  12.206  13.841
52668W        W16425  13.673  25.660  13.056
52669W        W16426  27.607  19.164   4.118
52670W        W16427  27.024  14.241   3.341
52671W        W16428  16.684  10.171  10.505
52672W        W16429   4.350  41.954  12.379
52673W        W16430  25.586   2.263  11.918
52674W        W16431  31.036   8.164   1.863
52675W        W16432   7.770  15.772   0.739
52676W        W16433  20.537  24.184   4.767
52677W        W16434  30.618  40.884   2.281
52678W        W16435   8.657  39.001  11.578
52679W        W16436  36.523  12.792  11.877
52680W        W16437  44.287  18.763   0.946
52681W        W16438  20.708   8.250  13.055
52682W        W16439   8.369  33.124   2.701
52683W        W16440  27.542   9.763   3.220
52684W        W16441  21.704  34.061   0.353
52685W        W16442  35.888  40.824   3.328
52686W        W16443  25.491  27.571   3.306
52687W        W16444  42.391  27.477  13.850
52688W        W16445  29.947  33.117   0.250
52689W        W16446  10.372  21.154  10.987
52690W        W16447   2.891  19.112  14.425
52691W        W16448   5.401  30.653   2.334
52692W        W16449  17.228  38.986   5.169
52693W        W16450  24.627   5.284  11.026
52694W        W16451  12.309  19.749   2.246
52695W        W16452  25.706  34.016  10.480
52696W        W16453  26.611   1.350  11.378
52697W        W16454  42.416  27.679  12.557
52698W        W16455  30.099   7.190  14.376
52699W        W16456  34.893  24.668   0.796
52700W        W16457   0.353   0.420   3.710
52701W        W16458  34.943  14.717  11.528
52702W        W16459  30.512  10.342   3.834
52703W        W16460   9.383  10.804  12.930
52704W        W16461  39.507  38.465   0.429
52705W        W16462   8.170  36.452   1.827
52706W        W16463  41.516   6.317  10.968
52707W        W16464  37.366  30.014  12.431
52708W        W16465  28.936  34.396  13.328
52709W        W16466  23.519  19.591  10.594
52710W        W16467  23.608   8.828   1.408
52711W        W16468   1.247  15.789   4.224
52712W        W16469   7.250  30.512  12.387
52713W        W16470   7.280  24.550  11.969
52714W        W16471  32.570  42.814  12.420
52715W        W16472  14.656  26.573  12.389
52716W        W16473  30.058  23.035   2.736
52717W        W16474   2.264   2.261  14.873
52718W        W16475  38.003  14.645   0.950
52719W        W16476  26.681  24.226  11.424
52720W        W16477   6.764  28.054  12.453
52721W        W16478  44.779  23.606  10.474
52722W        W16479  13.169   5.865  11.985
52723W        W16480  24.633  30.118   2.771
52724W        W16481   6.340  21.663   4.695
52725W        W16482  16.709  13.647   3.695
52726W        W16483   8.258  28.510   1.708
52727W        W16484  12.834  26.609   1.761
52728W        W16485  15.697  34.864   0.771
52729W        W16486  23.214  30.652   4.776
52730W        W16487  20.540  14.111   9.952
52731W        W16488  14.735  40.540  12.882
52732W        W16489  14.645  11.368  13.431
52733W        W16490   2.277  44.310   9.941
52734W        W16491  17.639  16.629   9.993
52735W        W16492  35.508   9.213   1.304
52736W        W16493  23.513  11.363  14.391
52737W        W16494  34.461  36.575   0.964
52738W        W16495  43.308  27.188  11.990
52739W        W16496   3.919  27.585  14.827
52740W        W16497  23.226  33.453  13.910
52741W        W16498  35.046  32.585   2.193
52742W        W16499   0.367  25.613   4.342
52743W        W16500  40.496  42.427  14.020
52744W        W16501  27.656  12.731   0.803
52745W        W16502  37.486  38.924   2.887
52746W        W16503  42.998   6.869   0.908
52747W        W16504  34.867   3.254  10.109
52748W        W16505  16.691   8.763  13.011
52749W        W16506   9.787  12.777   2.728
52750W        W16507  43.900  17.224  14.953
52751W        W16508  31.639  25.619  14.469
52752W        W16509  30.488  12.686  11.889
52753W        W16510  41.845  23.495   0.791
52754W        W16511  36.866   5.798   0.259
52755W        W16512  40.499  44.783  13.993
52756W        W16513  43.814  35.083  10.473
52757W        W16514  15.588  35.887  14.852
52758W        W16515  18.768  43.884  13.389
52759W        W16516  24.705   3.380   4.693
52760W        W16517  30.108   8.868  12.489
52761W        W16518   3.336  41.800   3.159
52762W        W16519  12.755  21.715   3.799
52763W        W16520  26.546  17.727  13.965
52764W        W16521  10.648   8.807  11.122
52765W        W16522  40.853   1.784   2.215
52766W        W16523   3.339  26.990   4.162
52767W        W16524  33.403  39.898   2.892
52768W        W16525   6.801   7.882   4.142
52769W        W16526  21.067   8.345  10.526
52770W        W16527  17.162  35.966   0.864
52771W        W16528  21.171   3.949   2.359
52772W        W16529  19.708  40.814   0.368
52773W        W16530  43.898  36.932  14.961
52774W        W16531  38.491  13.644  11.598
52775W        W16532  28.536  43.449  12.974
52776W        W16533  28.024  39.823   0.934
52777W        W16534  36.884  42.326   2.726
52778W        W16535  10.139   7.689  14.972
52779W        W16536   2.762  33.622  14.925
52780W        W16537  21.607  14.127   0.334
52781W        W16538  11.647   9.833   0.397
52782W        W16539  14.157  21.049   1.934
52783W        W16540   6.692  22.042  12.867
52784W        W16541   3.899  40.304  11.008
52785W        W16542  32.591  40.366  14.866
52786W        W16543  17.287  10.361  12.940
52787W        W16544   0.330  32.072   2.326
52788W        W16545  22.211  44.008  13.794
52789W        W16546   7.902  19.051  10.616
52790W        W16547   8.821  21.529  11.054
52791W        W16548  40.503   6.405   2.332
52792W        W16549  18.712  40.894   3.647
52793W        W16550  14.728  38.347  11.589
52794W        W16551   6.294   4.906   3.777
52795W        W16552  44.753   1.475  13.977
52796W        W16553  23.998   3.244   3.659
52797W        W16554  25.975  26.672   0.287
52798W        W16555  14.798  43.325   9.564
52799W        W16556  40.812  10.178  10.063
52800W        W16557  15.114  23.630  13.312
52801W        W16558  14.823  25.521  14.424
52802W        W16559  20.643  22.240   3.268
52803W        W16560  41.463  43.858  14.507
52804W        W16561  22.562  19.179   0.312
52805W        W16562   1.319  19.264  11.948
52806W        W16563  22.012  44.322  12.930
52807W        W16564  11.826  21.025   3.239
52808W        W16565  26.088  18.767  12.930
52809W        W16566  24.635  34.022  12.026
52810W        W16567   5.892  19.074  14.423
52811W        W16568  23.142  34.497  10.004
52812W        W16569  34.914   3.233   2.738
52813W        W16570  32.558  12.276   4.226
52814W        W16571  35.525  32.625  10.491
52815W        W16572  44.911  14.136  11.029
52816W        W16573  14.666  21.752  14.425
52817W        W16574   0.957  25.969  12.005
52818W        W16575   1.945  15.773   1.931
52819W        W16576   1.871  44.411   2.353
52820W        W16577  21.740  33.087  13.452
52821W        W16578  34.879  41.467  13.501
52822W        W16579  40.382  29.985   3.271
52823W        W16580  27.651  24.164   0.943
52824W        W16581  29.631  21.244   0.831
52825W        W16582  10.675  35.998  11.051
52826W        W16583  31.001  11.194  10.630
52827W        W16584  44.413   8.345  13.050
52828W        W16585  32.503  22.043   4.333
52829W        W16586   8.778  30.909   2.760
52830W        W16587   4.437  24.631   2.225
52831W        W16588  18.686  32.568  10.474
52832W        W16589  21.725  35.028  11.600
52833W        W16590  16.602   3.731  14.345
52834W        W16591  12.785  11.654   0.390
52835W        W16592  36.364  30.030   3.229
52836W        W16593  17.127  22.100  13.363
52837W        W16594  13.843  43.795   2.667
52838W        W16595  41.005  44.413   1.902
52839W        W16596  44.980  23.640   0.338
52840W        W16597   8.691  44.268   1.790
52841W        W16598  36.085   4.700  12.835
52842W        W16599  36.348  17.272   0.855
52843W        W16600  33.440  21.750   3.755
52844W        W16601  11.786  20.226  12.002
52845W        W16602   3.819  31.612  11.013
52846W        W16603   7.203   5.929  11.402
52847W        W16604  41.889  27.957   3.680
52848W        W16605  12.225  30.586  12.887
52849W        W16606  38.822  28.125   2.267
52850W        W16607   0.253  30.489  11.414
52851W        W16608   1.315  31.122  14.924
52852W        W16609  44.324   8.760  13.387
52853W        W16610   1.760  18.158  14.848
52854W        W16611   4.389  30.138   4.734
52855W        W16612  12.738   0.302  13.383
52856W        W16613  25.028  44.471  11.374
52857W        W16614  41.808  22.618   2.417
52858W        W16615  26.085  10.875   2.294
52859W        W16616  38.436  29.456   3.646
52860W        W16617  37.072  29.433  11.017
52861W        W16618   6.349  38.035  13.051
52862W        W16619   6.796  22.705  13.992
52863W        W16620   0.362  10.375  10.545
52864W        W16621   9.374  33.098  12.965
52865W        W16622  22.082  18.052   3.660
52866W        W16623  14.277  13.649   3.694
52867W        W16624  18.294  37.994  14.786
52868W        W16625  38.537  29.030  12.403
52869W        W16626  35.919  24.043   0.389
52870W        W16627  11.780  22.572   3.651
52871W        W16628  27.616  17.094   3.174
52872W        W16629  41.341   8.314  14.878
52873W        W16630  26.461  37.861   2.838
52874W        W16631  25.550  29.602  10.564
52875W        W16632   9.394  29.967  14.400
52876W        W16633  12.328  38.467  10.943
52877W        W16634  17.143   5.929   0.770
52878W        W16635  30.600  21.697   0.477
52879W        W16636  44.010  22.733   1.211
52880W        W16637  43.017  32.141   4.788
52881W        W16638  21.197   5.425  13.354
52882W        W16639   0.867   7.728   0.430
52883W        W16640  18.296  38.540  10.645
52884W        W16641   3.760  21.149  14.924
52885W        W16642  19.733  38.016  11.423
52886W        W16643  28.988  26.583  12.846
52887W        W16644  15.686  40.495   0.433
52888W        W16645  26.601  13.665  11.460
52889W        W16646  34.880  20.738   0.808
52890W        W16647  14.813   6.723  13.031
52891W        W16648  13.351  13.830  13.904
52892W        W16649  10.276   2.847  13.338
52893W        W16650  39.015   5.240  10.911
52894W        W16651  39.904  31.536   4.335
52895W        W16652  21.716  44.850   3.331
52896W        W16653  13.264  29.001  12.890
52897W        W16654   0.942  17.292   0.954
52898W        W16655   9.248  23.690  13.972
52899W        W16656  13.622  28.055  10.560
52900W        W16657   1.934  40.908   0.958
52901W        W16658   2.772  42.308  14.444
52902W        W16659  33.476   8.723  10.996
52903W        W16660  43.486  26.666  13.427
52904W        W16661  27.134  23.673   3.698
52905W        W16662  15.141  14.148  10.430
52906W        W16663  44.440  42.902  10.053
52907W        W16664  31.625  40.968   3.833
52908W        W16665  19.769  12.855   1.880
52909W        W16666   4.921  26.572  10.984
52910W        W16667  33.401  33.961  12.981
52911W        W16668  44.792   8.390   4.807
52912W        W16669  42.465  24.177  14.498
52913W        W16670  27.987  19.733   4.813
52914W        W16671  14.778  27.605   1.802
52915W        W16672  12.315  31.044   0.871
52916W        W16673  18.756  19.112   1.215
52917W        W16674  17.118  11.300   2.705
52918W        W16675   9.717  44.268  14.439
52919W        W16676  40.472  25.010  12.940
52920W        W16677  12.151  24.192  10.439
52921W        W16678  44.968  17.725  12.508
52922W        W16679  39.016   8.294   4.207
52923W        W16680  29.597  26.464  10.067
52924W        W16681  42.793  29.175  12.832
52925W        W16682  38.955  42.870  10.481
52926W        W16683  12.747  11.788  10.600
52927W        W16684  34.028  27.037  14.333
52928W        W16685   0.282  10.232   2.730
52929W        W16686   6.812  11.635  11.563
52930W        W16687  40.320  19.779  11.941
52931W        W16688  12.341  10.172  11.859
52932W        W16689  36.360  13.685   0.307
52933W        W16690   6.256  29.561   5.212
52934W        W16691  24.982  23.120  12.959
52935W        W16692   2.784  35.488  14.364
52936W        W16693  14.128  40.956  12.562
52937W        W16694  26.992   7.742  12.876
52938W        W16695   3.788   0.837  14.445
52939W        W16696  23.024  26.116   0.338
52940W        W16697  30.003  19.103  14.500
52941W        W16698  17.638   1.440   0.872
52942W        W16699   4.240  12.297   2.295
52943W        W16700  21.563   6.387  12.509
52944W        W16701  32.459  13.671  10.997
52945W        W16702  30.933   5.691   0.321
52946W        W16703  11.205  16.613  14.448
52947W        W16704  33.614  42.458   1.313
52948W        W16705  43.000  11.203   0.362
52949W        W16706  11.717  43.832   0.427
52950W        W16707  39.555   2.849  14.514
52951W        W16708  11.328  43.002  13.456
52952W        W16709  38.982   7.693  13.430
52953W        W16710   6.848  42.328   4.183
52954W        W16711  44.999  37.582   3.286
52955W        W16712  28.179  13.690  11.916
52956W        W16713  25.517  12.247   4.713
52957W        W16714  21.089   1.947  13.837
52958W        W16715  15.269   2.856  13.948
52959W        W16716  17.234  20.167   3.268
52960W        W16717  36.498  16.210  11.007
52961W        W16718  14.212  21.176   1.414
52962W        W16719  35.506  30.454  14.492
52963W        W16720  16.731  25.170  14.875
52964W        W16721  33.581  24.001  11.530
52965W        W16722  32.022  42.411   1.288
52966W        W16723   0.289   2.964   4.200
52967W        W16724  22.650  36.447   2.894
52968W        W16725  30.576  34.495   0.281
52969W        W16726  15.607  44.479  14.836
52970W        W16727  35.075  39.445  10.626
52971W        W16728  43.342  15.126  14.468
52972W        W16729  26.188  34.484  10.436
52973W        W16730  33.044   5.880  12.898
52974W        W16731   8.727  28.477  14.957
52975W        W16732  18.150   9.658   4.669
52976W        W16733   8.276  30.032   0.435
52977W        W16734  26.957  14.312  13.540
52978W        W16735  38.888  30.055  13.947
52979W        W16736  26.124  28.982  14.326
52980W        W16737  40.335  26.981   3.163
52981W        W16738  34.023  14.239  11.496
52982W        W16739   3.267   3.711   0.369
52983W        W16740  14.732  22.626   1.251
52984W        W16741  18.661  44.503  14.440
52985W        W16742   6.840  41.998   1.402
52986W        W16743  41.378  10.633   0.373
52987W        W16744  11.840  36.956   2.831
52988W        W16745   4.216   3.790  14.510
52989W        W16746  27.513  24.010   2.836
52990W        W16747   2.871  37.020  13.501
52991W        W16748   1.845   8.257  10.415
52992W        W16749  21.164  39.553   3.688
52993W        W16750  21.189   4.327   0.249
52994W        W16751  25.681   5.893   2.837
52995W        W16752  12.618  26.974  13.547
52996W        W16753  37.575  29.004  14.335
52997W        W16754   0.752  37.582  13.416
52998W        W16755  16.775  38.893  12.411
52999W        W16756  26.179  27.956   1.720
53000W        W16757   0.475  15.717   2.845
53001W        W16758   2.233  25.191  10.536
53002W        W16759   6.248  27.064  14.855
53003W        W16760  44.418  32.556  11.111
53004W        W16761  17.782  12.711   2.219
53005W        W16762  21.626   9.205   3.219
53006W        W16763   5.851  39.359  11.436
53007W        W16764  22.244  33.987  13.862
53008W        W16765  35.563  24.609   0.838
53009W        W16766  15.295  34.418  11.923
53010W        W16767  44.481  20.662   4.182
53011W        W16768  37.372  17.683  14.491
53012W        W16769  31.522  11.836  10.615
53013W        W16770  42.792   2.414  11.563
53014W        W16771   0.968  30.096  14.845
53015W        W16772  38.470  39.402   2.244
53016W        W16773  29.069   2.372  11.091
53017W        W16774  14.636  44.345   2.317
53018W        W16775  21.121  38.373  11.480
53019W        W16776   2.728  32.606  14.382
53020W        W16777  42.925  39.358  14.397
53021W        W16778  15.627  16.575  14.490
53022W        W16779  43.302  38.054  11.863
53023W        W16780  11.657  20.076  15.000
53024W        W16781  24.529  19.608   2.667
53025W        W16782  26.196  24.583   2.265
53026W        W16783  10.150  23.710   3.667
53027W        W16784  15.145  35.083  11.505
53028W        W16785   0.393  28.145  10.567
53029W        W16786  11.164  22.504  13.319
53030W        W16787  17.260  11.801  13.353
53031W        W16788   4.337  25.594   0.876
53032W        W16789  38.390  40.893  10.416
53033W        W16790  44.398  34.987  11.387
53034W        W16791  13.790  24.123   1.894
53035W        W16792  18.779  26.099   1.392
53036W        W16793  40.842  40.052  14.481
53037W        W16794  33.425   5.750   4.282
53038W        W16795  18.232  16.156   3.715
53039W        W16796  43.393  40.513  13.806
53040W        W16797   0.453  37.944   2.353
53041W        W16798  41.859   1.810  13.386
53042W        W16799   7.804  38.023  10.441
53043W        W16800  43.825  39.550  12.521
53044W        W16801   6.708  33.400  14.462
53045W        W16802  28.632  11.158   1.396
53046W        W16803  43.382  29.131  14.326
53047W        W16804  24.485  19.582   0.789
53048W        W16805  31.073   2.281   3.842
53049W        W16806  36.511  24.574   2.844
53050W        W16807  34.963  30.586   3.635
53051W        W16808  40.965   5.875  12.364
53052W        W16809   6.260  16.110  11.503
53053W        W16810  20.116  38.523   4.175
53054W        W16811   6.718  32.133   4.341
53055W        W16812  21.533  20.637  14.507
53056W        W16813   9.730  30.962  11.897
53057W        W16814  15.165  40.919  10.945
53058W        W16815  30.088   5.850   3.289
53059W        W16816  27.102  18.124  13.007
53060W        W16817  35.435  29.100  11.378
53061W        W16818  32.574  24.010   2.380
53062W        W16819  40.413  28.643  14.973
53063W        W16820  32.044  44.317  10.890
53064W        W16821  17.281   4.737  14.512
53065W        W16822  10.203  38.950   3.690
53066W        W16823  15.158  40.485  12.094
53067W        W16824   3.894  15.773  11.373
53068W        W16825   7.270  25.117   3.358
53069W        W16826  12.856  26.045   4.606
53070W        W16827   7.374  14.286   0.445
53071W        W16828  10.301  31.997   2.701
53072W        W16829   8.205  19.232  11.886
53073W        W16830  17.128  38.348   2.393
53074W        W16831  19.072  42.422   1.397
53075W        W16832   7.685  41.381  14.286
53076W        W16833   8.325   2.447  12.464
53077W        W16834  12.625  38.350  14.474
53078W        W16835  33.416   5.726  10.950
53079W        W16836  12.293  33.561  11.017
53080W        W16837  21.101  24.717   1.912
53081W        W16838  18.102  33.565  13.321
53082W        W16839  25.611   3.914  12.360
53083W        W16840  40.816  18.253  11.544
53084W        W16841  28.438   9.353   4.318
53085W        W16842  43.972   0.411  10.555
53086W        W16843   9.739  26.065   4.690
53087W        W16844  35.078  28.602  13.323
53088W        W16845   2.823  20.169   4.752
53089W        W16846  31.452  13.626   1.912
53090W        W16847  23.495  15.810   2.842
53091W        W16848  23.643  20.654  12.032
53092W        W16849  29.121  43.958  10.530
53093W        W16850  25.984  17.094   2.773
53094W        W16851  30.060  41.841   0.427
53095W        W16852  17.192  11.775  14.954
53096W        W16853  43.366  14.833   0.312
53097W        W16854  25.087   9.827   1.310
53098W        W16855  23.561   7.803   4.319
53099W        W16856  20.065  43.931  11.116
53100W        W16857  15.715  10.364  11.429
53101W        W16858  36.001  36.007   2.877
53102W        W16859  20.616  43.844  14.813
53103W        W16860  27.126  26.207  10.899
53104W        W16861  41.366  23.617   2.757
53105W        W16862  19.117  33.393   1.899
53106W        W16863  43.868  22.020  14.452
53107W        W16864  22.533  39.380   3.686
53108W        W16865  19.060  22.515  13.546
53109W        W16866  21.074   6.399   4.709
53110W        W16867  33.913  23.515  11.484
53111W        W16868  17.687  24.494  12.997
53112W        W16869  19.569  13.835   2.400
53113W        W16870  40.968   8.850   2.395
53114W        W16871  35.011  27.455  13.900
53115W        W16872  40.376   4.257  10.417
53116W        W16873  33.948  17.130   2.315
53117W        W16874  33.561  11.734   3.702
53118W        W16875  41.829  29.111   4.248
53119W        W16876  37.471  13.777   1.386
53120W        W16877  16.641  10.756   3.662
53121W        W16878  32.563   2.845   2.183
53122W        W16879   5.809  43.952   0.469
53123W        W16880  34.051  17.726  12.889
53124W        W16881  14.275  23.717  14.420
53125W        W16882  32.081  23.538   0.776
53126W        W16883  10.824  25.129  12.379
53127W        W16884  22.043  37.857  12.990
53128W        W16885  35.379  29.441  14.997
53129W        W16886  12.213   1.248  11.372
53130W        W16887  39.819  34.113  14.378
53131W        W16888   5.306  11.245   2.813
53132W        W16889  27.095  32.447  13.799
53133W        W16890   2.724  27.465  11.857
53134W        W16891  38.445  17.646  12.009
53135W        W16892  21.145  33.110  10.430
53136W        W16893   6.209  26.535  13.791
53137W        W16894   3.278  29.963   2.813
53138W        W16895  12.688  34.587   1.396
53139W        W16896  14.197  15.669   5.183
53140W        W16897  19.083  18.063  13.044
53141W        W16898  40.433  33.556  11.076
53142W        W16899  23.699  32.123   3.216
53143W        W16900  21.609  36.421   5.711
53144W        W16901   3.384  43.965   0.453
53145W        W16902  17.151  44.324  11.916
53146W        W16903  42.021  42.843   1.422
53147W        W16904  32.023  10.177  14.797
53148W        W16905  27.949  22.128   1.769
53149W        W16906  31.460  22.721  11.588
53150W        W16907  43.910  32.022  11.913
53151W        W16908   8.242  36.424  13.792
53152W        W16909  16.167  36.578   3.645
53153W        W16910  35.893  32.139  14.003
53154W        W16911  20.686  29.139  11.051
53155W        W16912  40.363  42.431   2.733
53156W        W16913   0.380  30.998  13.960
53157W        W16914   3.440  22.218  11.998
53158W        W16915  18.666  37.402   0.922
53159W        W16916  30.641  30.505   0.789
53160W        W16917  14.596  33.046  14.024
53161W        W16918  33.527  11.798   0.278
53162W        W16919  33.028  43.508   3.349
53163W        W16920  36.860   7.197  11.586
53164W        W16921  15.664  15.105  10.933
53165W        W16922  16.694  43.345   3.771
53166W        W16923   1.755  22.142  13.800
53167W        W16924  27.451  10.316  11.507
53168W        W16925  41.509  38.980   0.902
53169W        W16926  37.413  10.754  12.388
53170W        W16927  41.384   3.361  10.542
53171W        W16928  36.940  44.450  10.465
53172W        W16929  39.960  20.660  12.908
53173W        W16930  25.095  13.302   0.803
53174W        W16931   0.254  41.505   0.895
53175W        W16932  22.685  20.114   3.715
53176W        W16933  22.220   5.777   3.299
53177W        W16934  19.612   6.378   4.646
53178W        W16935  29.924  27.550   1.933
53179W        W16936  20.187   8.883   1.405
53180W        W16937  27.470  33.088  11.113
53181W        W16938  24.183  33.040   9.944
53182W        W16939   4.710  44.459  11.045
53183W        W16940  15.779  41.304   9.967
53184W        W16941  22.732  15.242   0.460
53185W        W16942   0.399   6.313   0.442
53186W        W16943   5.904  36.403  13.906
53187W        W16944  43.354  29.957  14.418
53188W        W16945  24.204  41.888   0.272
53189W        W16946  40.853  19.189   4.819
53190W        W16947   0.785  17.096  11.044
53191W        W16948   4.880  44.874  13.948
53192W        W16949   6.366  26.465  10.023
53193W        W16950  19.225  15.104  12.578
53194W        W16951  25.710  22.146   2.271
53195W        W16952   8.266  37.958  13.329
53196W        W16953  27.046  36.528  14.281
53197W        W16954  44.904  31.031  11.087
53198W        W16955  41.994   7.224   3.228
53199W        W16956  21.081  12.715   3.346
53200W        W16957   5.294  24.171  11.036
53201W        W16958   8.354  31.906  12.865
53202W        W16959   7.322  19.759  13.943
53203W        W16960  25.592  24.978  11.113
53204W        W16961   2.322  42.970   4.828
53205W        W16962  10.687   0.864  13.794
53206W        W16963   6.213  32.433   4.816
53207W        W16964  10.735   8.756  12.047
53208W        W16965  39.054  15.256  13.822
53209W        W16966  42.895   2.414   1.743
53210W        W16967  12.219  13.792  14.341
53211W        W16968   5.902  28.105   4.235
53212W        W16969  43.347  21.600   0.733
53213W        W16970  13.802   3.441  10.506
53214W        W16971  30.006  18.733   1.790
53215W        W16972  10.177  34.614   4.712
53216W        W16973   8.322  21.647   0.426
53217W        W16974  21.228  32.014   5.185
53218W        W16975  29.044  28.672   2.288
53219W        W16976   5.307  43.905   3.363
53220W        W16977  30.164   8.324   2.748
53221W        W16978  39.495  14.164   0.350
53222W        W16979  28.614  17.290  13.436
53223W        W16980  17.206  25.070  14.770
53224W        W16981   1.378  14.140  14.468
53225W        W16982  44.766  38.445   4.204
53226W        W16983   1.429  16.695  12.859
53227W        W16984  28.573  18.778   0.427
53228W        W16985  33.903  33.982  10.946
53229W        W16986   7.373  18.066  12.468
53230W        W16987  35.891  24.187   3.308
53231W        W16988   2.331  12.349   1.844
53232W        W16989  35.600  34.103  10.546
53233W        W16990  23.574  21.616   4.294
53234W        W16991  33.595  24.688   0.759
53235W        W16992  11.662  37.526  13.983
53236W        W16993  22.195  31.521  13.812
53237W        W16994  26.573   8.212   0.934
53238W        W16995   0.971   7.900   3.696
53239W        W16996  23.224  41.938  10.429
53240W        W16997  33.429  30.419   9.975
53241W        W16998  33.017  12.703   0.337
53242W        W16999  41.921  33.955   0.809
53243W        W17000  40.470   5.733  13.940
53244W        W17001  14.136  43.387   3.838
53245W        W17002  41.832   9.752   1.697
53246W        W17003  37.855   9.871   0.835
53247W        W17004   1.756  43.301   3.693
53248W        W17005  14.247   3.899   1.265
53249W        W17006   7.373  10.152  12.886
53250W        W17007  17.174  11.622  12.415
53251W        W17008  28.082  15.308   4.355
53252W        W17009  39.881  22.712   3.224
53253W        W17010  20.271  41.437  14.490
53254W        W17011   7.179  40.368   0.913
53255W        W17012  21.615  28.001   3.246
53256W        W17013  19.134  14.808   5.738
53257W        W17014  10.876  41.413   4.658
53258W        W17015  34.570   4.703  11.610
53259W        W17016  29.568   0.787  14.910
53260W        W17017  23.997   5.199  14.387
53261W        W17018   0.905  17.764  10.621
53262W        W17019   8.379  11.634   1.766
53263W        W17020  38.327   5.392   4.291
53264W        W17021  27.069  40.386   0.478
53265W        W17022   4.235  15.738  13.389
53266W        W17023  33.035  29.652   3.164
53267W        W17024  18.569   6.401   5.113
53268W        W17025  11.177  30.467  10.988
53269W        W17026  14.745   4.738   1.820
53270W        W17027  32.558  14.777   3.178
53271W        W17028  36.385   9.779   1.267
53272W        W17029  25.491   8.793  12.088
53273W        W17030  27.980  41.350  10.553
53274W        W17031  18.074  35.565   1.887
53275W        W17032   7.281  30.604   2.741
53276W        W17033  42.313   3.253   3.698
53277W        W17034   2.470  25.065   4.718
53278W        W17035   8.362  33.893  10.442
53279W        W17036  20.604  38.033   0.255
53280W        W17037  36.060  38.883   4.672
53281W        W17038   4.280  36.986  10.964
53282W        W17039  42.298  22.152  13.431
53283W        W17040  15.321  29.110   1.348
53284W        W17041  12.687  17.798   4.175
53285W        W17042   7.215  23.504   1.701
53286W        W17043  15.315   6.417   3.365
53287W        W17044   5.741   5.401   4.133
53288W        W17045  22.653  14.106  11.597
53289W        W17046  21.647  38.926  14.799
53290W        W17047  22.603  30.041  10.955
53291W        W17048  31.594  11.263  13.823
53292W        W17049   2.889   4.357  11.550
53293W        W17050  28.073  44.492  11.536
53294W        W17051  16.248   5.348   1.329
53295W        W17052  36.047   5.217   3.795
53296W        W17053  44.991  43.011   1.792
53297W        W17054  14.232  15.211  12.890
53298W        W17055   1.427   5.760   2.872
53299W        W17056  27.459  13.657   2.232
53300W        W17057  22.245  20.221   2.787
53301W        W17058   2.269  14.626  14.771
53302W        W17059  33.452  12.658   2.237
53303W        W17060  21.050  28.509   0.780
53304W        W17061  11.354   6.201  11.924
53305W        W17062  43.880  11.830  11.989
53306W        W17063  12.249  41.359  13.355
53307W        W17064  40.811  36.987  11.417
53308W        W17065  15.669  14.700   4.785
53309W        W17066  14.761  39.496   2.865
53310W        W17067   2.271  41.394   0.925
53311W        W17068   6.422  40.453  12.374
53312W        W17069   4.205  16.187   4.315
53313W        W17070  17.635  11.622  13.973
53314W        W17071  38.405  40.326  10.983
53315W        W17072  44.863  15.688   2.245
53316W        W17073   3.329  34.431  13.546
53317W        W17074  25.109  11.784   3.708
53318W        W17075   0.412  14.223  12.987
53319W        W17076  17.252  43.851  14.837
53320W        W17077   3.709  34.427  14.878
53321W        W17078  27.451   8.829   2.378
53322W        W17079   6.794  44.979   1.417
53323W        W17080  27.983  20.687   0.364
53324W        W17081  11.809  22.658   4.308
53325W        W17082  41.357   3.338   3.790
53326W        W17083   4.414  11.187   3.702
53327W        W17084  17.147  28.099   0.919
53328W        W17085  25.136  28.931   0.861
53329W        W17086  11.671   5.200  14.348
53330W        W17087  43.884  12.178   1.868
53331W        W17088  38.894  30.080  12.836
53332W        W17089  25.624   2.324  12.443
53333W        W17090   3.389  23.512  12.509
53334W        W17091  39.994  24.635  14.927
53335W        W17092  16.281  29.112   4.730
53336W        W17093  27.022  44.280  10.457
53337W        W17094   4.903  20.600   2.727
53338W        W17095  41.938  44.316   2.384
53339W        W17096  33.435  42.012   3.255
53340W        W17097  35.551   0.959  11.573
53341W        W17098   2.899  33.930  11.556
53342W        W17099  35.943  28.054   2.340
53343W        W17100  27.666  30.135   3.718
53344W        W17101  41.307   9.855  10.942
53345W        W17102  24.644  11.807  13.896
53346W        W17103  17.176  40.903  10.471
53347W        W17104  26.969   8.783   3.288
53348W        W17105  29.926   2.848  12.832
53349W        W17106  24.131  42.444  11.054
53350W        W17107  20.676   7.214   1.338
53351W        W17108  26.675  35.898   2.749
53352W        W17109  11.217  19.583   3.177
53353W        W17110  30.002  35.104   1.811
53354W        W17111  21.026  40.329  12.834
53355W        W17112  18.245  13.650  11.969
53356W        W17113  30.956   6.788  13.382
53357W        W17114   8.196  43.892   1.804
53358W        W17115  37.396   1.372  10.936
53359W        W17116  23.163  16.668  13.818
53360W        W17117  37.009  19.203   1.254
53361W        W17118   2.365  21.239  12.970
53362W        W17119  26.014  29.969  12.931
53363W        W17120  38.921  36.371   3.639
53364W        W17121  20.227  43.418  12.372
53365W        W17122   8.187  36.855  12.513
53366W        W17123  12.194   9.378  12.538
53367W        W17124  40.915  24.230   4.176
53368W        W17125  19.630  13.672   2.748
53369W        W17126  13.698  39.390   4.259
53370W        W17127  27.108   5.357   2.892
53371W        W17128  14.714  39.015  10.061
53372W        W17129  31.075  14.664  11.094
53373W        W17130  28.120  21.523  12.063
53374W        W17131   6.769   4.853   1.268
53375W        W17132   8.188  28.588   2.250
53376W        W17133  16.773  36.040   3.284
53377W        W17134   9.345   5.693  13.402
53378W        W17135  42.985  38.053   3.699
53379W        W17136   4.827  16.205   4.679
53380W        W17137  43.513   7.255   0.922
53381W        W17138  15.221   2.385  12.089
53382W        W17139  35.481  17.791  13.884
53383W        W17140   7.170   0.813  11.512
53384W        W17141  25.600   4.913   2.895
53385W        W17142  14.598  27.023   1.299
53386W        W17143  19.772   2.731  13.820
53387W        W17144  15.603  15.787   2.222
53388W        W17145  18.071   7.272  13.832
53389W        W17146   3.428  35.460   4.344
53390W        W17147  33.921  38.474  10.426
53391W        W17148  42.422  20.045  13.843
53392W        W17149  44.911  38.475  12.390
53393W        W17150  34.898  21.758   2.183
53394W        W17151  16.114  27.943   0.467
53395W        W17152   0.400  39.316  13.805
53396W        W17153  42.451  41.910   2.320
53397W        W17154  40.906  20.215   3.773
53398W        W17155   0.758  24.189  14.338
53399W        W17156  17.572  43.847   9.497
53400W        W17157  11.735  12.635   1.366
53401W        W17158   4.405   3.766  10.525
53402W        W17159  13.273  27.008  13.891
53403W        W17160  32.917  19.053  10.439
53404W        W17161  14.213  11.224   2.231
53405W        W17162  18.148  38.039   1.768
53406W        W17163   5.337   3.441  11.121
53407W        W17164   5.758   1.764  13.321
53408W        W17165  37.950  19.585   4.270
53409W        W17166   7.854  11.658   1.867
53410W        W17167  16.248  44.410  10.975
53411W        W17168  41.793  32.056  11.543
53412W        W17169  39.906  13.744  12.360
53413W        W17170  44.464  20.268   4.261
53414W        W17171  13.186  22.666  11.472
53415W        W17172  43.337  14.831   2.415
53416W        W17173  30.079  13.226  13.926
53417W        W17174  15.644  32.415   2.806
53418W        W17175  12.842   6.807   3.644
53419W        W17176  14.123  37.913   3.330
53420W        W17177  18.579  36.091  12.394
53421W        W17178  37.894  11.221  11.388
53422W        W17179  43.331  28.185  10.414
53423W        W17180  43.958  40.311   3.384
53424W        W17181   5.690   3.938   3.199
53425W        W17182  40.378  13.300   0.959
53426W        W17183  34.498  14.808  12.087
53427W        W17184  24.013  15.631   0.418
53428W        W17185  16.574  39.490   4.609
53429W        W17186  33.491  17.176  14.403
53430W        W17187  24.010  25.096   0.868
53431W        W17188  33.055  19.187  12.891
53432W        W17189  16.204  39.053  13.927
53433W        W17190  29.640   2.819   1.299
53434W        W17191  20.103  13.334  13.917
53435W        W17192  28.072   9.739   0.250
53436W        W17193   0.401   3.461  10.641
53437W        W17194   9.154  40.036  14.333
53438W        W17195   1.442  20.070  13.033
53439W        W17196  37.844  26.479   4.296
53440W        W17197   6.714  12.320  12.352
53441W        W17198  27.029  19.647  14.814
53442W        W17199  12.200  41.005   2.773
53443W        W17200  44.806  16.755   1.294
53444W        W17201  42.842  44.987   1.255
53445W        W17202   6.189  14.107  14.439
53446W        W17203  27.656   3.243   4.120
53447W        W17204  25.982   5.423  12.462
53448W        W17205  30.050  43.805  11.081
53449W        W17206  17.620   7.262  12.454
53450W        W17207  24.141  25.566   2.722
53451W        W17208  16.296  16.770   4.172
53452W        W17209  27.453  34.091   0.483
53453W        W17210   9.677  22.027   1.837
53454W        W17211  24.118  27.078  14.938
53455W        W17212  40.464   9.303   2.336
53456W        W17213   0.837  16.755  10.468
53457W        W17214   0.873  31.967  13.546
53458W        W17215   9.717  28.527  12.421
53459W        W17216  41.331  16.636   4.232
53460W        W17217  14.821   2.917   3.769
53461W        W17218  17.238   7.675  14.322
53462W        W17219  12.791   4.711  12.493
53463W        W17220  27.524  24.627   0.853
53464W        W17221  23.127  24.093  13.357
53465W        W17222   6.782  42.997   2.771
53466W        W17223  23.054   8.322   1.434
53467W        W17224  22.646  38.061  14.918
53468W        W17225   1.769  25.004  11.947
53469W        W17226  40.532  29.642  10.943
53470W        W17227  10.850   2.419  14.970
53471W        W17228  17.791  30.072  14.348
53472W        W17229  22.611   0.831  11.881
53473W        W17230   0.812  31.611   1.844
53474W        W17231  36.009   3.894  13.391
53475W        W17232   3.232   0.384   0.375
53476W        W17233  16.784  19.692  11.023
53477W        W17234   3.370  39.016   4.609
53478W        W17235  34.931  27.971  14.009
53479W        W17236   6.339   1.903  12.540
53480W        W17237  22.247  18.726  13.506
53481W        W17238  41.473  37.988   3.643
53482W        W17239  44.389  42.494   3.704
53483W        W17240  39.853  24.098  10.943
53484W        W17241  37.353   7.836  13.371
53485W        W17242  13.706  13.785   4.130
53486W        W17243  14.258   8.753   0.243
53487W        W17244  15.316  28.174   4.609
53488W        W17245  44.329   6.234   4.259
53489W        W17246  23.552  10.871  11.476
53490W        W17247  24.022  35.044   2.224
53491W        W17248  35.480   2.776   4.689
53492W        W17249  38.340  17.734   0.377
53493W        W17250  18.121   0.313  11.111
53494W        W17251  12.812   7.723   3.680
53495W        W17252  44.277  17.178  11.398
53496W        W17253  22.680   1.262   1.425
53497W        W17254  17.660  12.169   9.937
53498W        W17255   6.856  23.542  13.353
53499W        W17256  43.920  32.897  14.474
53500W        W17257  11.642   2.278  12.899
53501W        W17258  12.187   2.726   2.877
53502W        W17259   2.751   3.936  11.025
53503W        W17260   1.273  22.210   3.381
53504W        W17261  34.460  34.886  13.802
53505W        W17262   9.728  30.423   4.349
53506W        W17263   3.230  26.522  13.030
53507W        W17264  19.643  11.236  12.512
53508W        W17265  10.213  14.225   4.649
53509W        W17266  42.799  44.776  13.048
53510W        W17267  32.537  39.419   2.757
53511W        W17268  32.117  40.344  11.556
53512W        W17269   9.252   0.452  14.293
53513W        W17270  13.637  41.853  12.899
53514W        W17271  43.316  22.658  13.544
53515W        W17272  28.601  22.200  12.382
53516W        W17273  11.208   1.415   3.836
53517W        W17274   2.273  12.148   3.289
53518W        W17275  19.211   4.882  13.471
53519W        W17276  37.064  32.978   4.214
53520W        W17277   9.824  16.219  13.884
53521W        W17278  43.835   0.976   4.659
53522W        W17279  15.191  31.982   5.155
53523W        W17280  10.383  38.334  14.904
53524W        W17281  18.084  35.105  11.860
53525W        W17282  11.174   6.263   2.179
53526W        W17283  42.943   7.253   0.304
53527W        W17284   6.848  32.468  13.443
53528W        W17285  32.423  24.524  14.971
53529W        W17286  10.773  17.120  14.504
53530W        W17287  42.859  33.394  13.514
53531W        W17288  15.776  41.523   1.409
53532W        W17289  13.205  39.033  10.907
53533W        W17290  36.592  30.996   3.384
53534W        W17291  14.664   9.750  11.552
53535W        W17292  39.422   4.380  13.010
53536W        W17293  10.646  28.044   2.834
53537W        W17294  13.677  35.383  12.518
53538W        W17295  36.096  10.798   4.237
53539W        W17296  35.038   8.829   0.483
53540W        W17297  25.482  16.192   5.591
53541W        W17298  30.111  35.054   3.843
53542W        W17299  31.960  40.427   1.708
53543W        W17300  29.933  14.237   3.234
53544W        W17301   1.769  27.683   1.373
53545W        W17302  11.807  18.114  11.560
53546W        W17303  39.501  31.905  13.863
53547W        W17304  14.781  44.777   5.167
53548W        W17305  15.228  35.903  14.449
53549W        W17306  18.677  17.630  11.935
53550W        W17307  19.073  17.245   0.469
53551W        W17308  17.797   1.348   1.746
53552W        W17309  17.119   9.674  12.003
53553W        W17310  38.832   1.733   1.449
53554W        W17311  30.942  38.930   0.951
53555W        W17312  16.679  34.118   1.718
53556W        W17313  14.296   8.899   1.701
53557W        W17314   7.414  24.218  14.382
53558W        W17315  33.439  18.789   3.148
53559W        W17316  30.021  14.095  12.933
53560W        W17317   3.711  39.897   2.307
53561W        W17318  38.033  42.283   1.295
53562W        W17319  35.364  28.975  10.066
53563W        W17320   7.832  11.738   2.221
53564W        W17321  38.946  11.646   1.314
53565W        W17322   7.248   6.241  12.960
53566W        W17323  11.349  44.464  12.371
53567W        W17324  15.644   4.392  14.355
53568W        W17325  22.646  28.482   0.923
53569W        W17326  19.610  38.400   0.462
53570W        W17327  16.610   0.800   4.767
53571W        W17328   3.278  21.695  12.391
53572W        W17329   6.277   7.673   0.372
53573W        W17330  41.350  30.982   0.731
53574W        W17331  39.017  29.155  13.039
53575W        W17332  12.752   1.763  11.503
53576W        W17333   4.352   7.391  12.086
53577W        W17334   6.299  25.025   4.241
53578W        W17335  39.942   3.901  12.894
53579W        W17336  44.349  32.611  13.498
53580W        W17337  35.989  40.493  14.794
53581W        W17338   1.961  19.566  13.337
53582W        W17339  12.820  21.588  14.824
53583W        W17340  43.782  17.289   1.897
53584W        W17341  26.568   8.284  11.492
53585W        W17342   2.789  41.430  13.955
53586W        W17343  21.590  11.729   3.349
53587W        W17344  34.097  41.317   2.679
53588W        W17345  11.146   0.880  11.546
53589W        W17346  14.824  21.214   3.149
53590W        W17347  18.089  12.238  11.905
53591W        W17348  15.136  26.081  12.451
53592W        W17349  14.649  29.608   4.194
53593W        W17350  33.625  26.605   3.308
53594W        W17351  32.615  21.152  10.464
53595W        W17352   0.356  42.437  10.490
53596W        W17353  44.302  31.532   1.228
53597W        W17354  32.892  34.875   4.680
53598W        W17355  20.226  44.957   0.741
53599W        W17356   5.214  32.120   4.642
53600W        W17357  24.046  24.103   2.305
53601W        W17358  27.504  39.994   4.299
53602W        W17359  13.745  42.333  12.909
53603W        W17360  26.648  26.488   2.766
53604W        W17361  25.998  18.633   4.658
53605W        W17362   9.693  17.099   2.362
53606W        W17363  26.180  37.471  12.387
53607W        W17364  14.765  33.054  13.383
53608W        W17365   4.382  12.802   1.846
53609W        W17366  17.786   1.415  14.289
53610W        W17367  21.723  18.617  13.023
53611W        W17368  28.941  44.938   1.353
53612W        W17369  41.922  37.470  11.126
53613W        W17370  44.467  19.060  13.380
53614W        W17371  16.095  21.239  10.569
53615W        W17372  20.696  31.028   2.198
53616W        W17373  15.623  37.941  11.128
53617W        W17374  40.510  35.579   2.234
53618W        W17375  10.194  41.021   1.398
53619W        W17376   5.877   0.968   2.278
53620W        W17377  21.130  15.601   1.378
53621W        W17378  36.044  17.292   4.608
53622W        W17379  36.923  35.357   4.288
53623W        W17380  25.709  29.471   3.381
53624W        W17381  18.094  11.683  13.415
53625W        W17382  25.149   2.928   0.378
53626W        W17383  33.036  38.569  13.876
53627W        W17384  21.248  40.041  11.058
53628W        W17385  12.804  11.734   3.315
53629W        W17386  29.136  24.143   5.160
53630W        W17387   2.769  31.419  14.497
53631W        W17388   4.872   8.727  10.938
53632W        W17389   9.807  15.301   3.787
53633W        W17390  21.739   3.444   4.290
53634W        W17391  44.442  29.139  14.871
53635W        W17392  31.469  33.483  12.058
53636W        W17393  29.436  12.218   3.216
53637W        W17394  11.707  37.510   3.309
53638W        W17395   3.875  43.829  14.303
53639W        W17396  26.044  21.528   3.189
53640W        W17397  33.484  38.566   2.415
53641W        W17398  20.667  40.864   4.714
53642W        W17399  33.975  25.026  14.965
53643W        W17400  25.555  17.608  11.877
53644W        W17401  30.969  11.833   1.331
53645W        W17402   7.191   6.374   3.347
53646W        W17403  40.846  18.234   0.896
53647W        W17404  39.855  13.152   4.296
53648W        W17405  38.346  14.106   0.944
53649W        W17406  24.185  31.537  13.881
53650W        W17407  40.941  33.091   4.651
53651W        W17408  17.771  20.121   3.158
53652W        W17409  33.583  30.138  13.370
53653W        W17410  15.768  35.108   3.724
53654W        W17411  10.358  28.979  12.366
53655W        W17412  15.322  20.560   0.930
53656W        W17413  29.991  40.364  13.798
53657W        W17414  13.333  26.099  11.450
53658W        W17415  17.799  15.127   2.677
53659W        W17416   5.396   7.669   0.826
53660W        W17417  29.588  14.179  14.407
53661W        W17418  11.244   0.470   2.291
53662W        W17419   0.258  28.622  12.369
53663W        W17420  10.743  42.409   4.727
53664W        W17421   4.337  12.616  12.062
53665W        W17422  11.667  10.323   5.285
53666W        W17423  33.023   0.845  10.992
53667W        W17424  27.040  39.947   0.395
53668W        W17425  19.773  29.098  13.816
53669W        W17426  20.657  12.350   2.200
53670W        W17427  41.537  13.809  14.486
53671W        W17428  40.452  40.480   2.766
53672W        W17429  25.552  25.166   1.308
53673W        W17430   1.945  14.814   3.797
53674W        W17431   9.758  29.465   0.779
53675W        W17432  10.303  19.088   1.346
53676W        W17433  29.146  35.955  11.898
53677W        W17434   5.395  14.725  11.956
53678W        W17435   9.681   2.899   1.827
53679W        W17436  21.124  22.549   1.821
53680W        W17437  25.091  21.647   1.382
53681W        W17438  34.988  44.903  10.551
53682W        W17439  30.491  40.855  11.459
53683W        W17440   0.280  17.760  11.567
53684W        W17441  20.090  33.951   1.818
53685W        W17442  20.193   0.288   1.322
53686W        W17443  14.140  18.676  14.945
53687W        W17444  42.866  33.024  10.118
53688W        W17445  41.529  21.225  11.392
53689W        W17446  20.209  16.676   1.430
53690W        W17447  10.310  28.167   4.657
53691W        W17448  20.700  10.211  13.893
53692W        W17449  15.769   4.388   0.268
53693W        W17450   1.967  39.898   1.236
53694W        W17451   2.787  18.563   2.269
53695W        W17452  28.640  12.729  14.889
53696W        W17453   0.260  43.999  11.912
53697W        W17454  16.763  36.467   0.910
53698W        W17455  39.469  38.552   4.688
53699W        W17456  25.608   2.300  12.845
53700W        W17457   0.831  32.428   1.300
53701W        W17458  35.886  37.939   3.684
53702W        W17459  10.703  26.139  14.874
53703W        W17460  32.453  29.035  12.451
53704W        W17461  19.592   2.746   2.702
53705W        W17462  23.035  13.160  11.373
53706W        W17463  30.001   3.335  13.000
53707W        W17464   6.204   3.215  14.021
53708W        W17465  31.005  23.704   3.796
53709W        W17466  25.057   9.666  11.396
53710W        W17467  12.317  10.688   2.282
53711W        W17468  13.214  33.529  12.977
53712W        W17469   3.398  39.474   0.851
53713W        W17470  43.840  20.264  14.009
53714W        W17471  17.231   2.903  11.507
53715W        W17472  14.177  28.567   3.372
53716W        W17473  33.921  24.200  10.563
53717W        W17474  15.671  35.570  11.913
53718W        W17475  37.016  14.097  10.510
53719W        W17476  21.621  16.620   0.343
53720W        W17477   5.928  36.570   3.694
53721W        W17478  34.943   5.368  14.767
53722W        W17479  20.198  14.138  11.926
53723W        W17480   6.231  11.218   3.687
53724W        W17481  33.453  33.468   4.610
53725W        W17482   0.433  24.724   2.841
53726W        W17483  12.172  21.556   0.941
53727W        W17484  20.242   2.814   4.737
53728W        W17485  15.709  34.082   0.837
53729W        W17486  19.600  39.902  14.442
53730W        W17487  21.533  42.026  11.438
53731W        W17488  13.634  13.335  10.586
53732W        W17489   9.871  11.666  14.892
53733W        W17490   1.880   0.281   3.753
53734W        W17491  38.993  33.394  13.427
53735W        W17492  43.937  10.673   1.877
53736W        W17493  13.795  20.230  12.911
53737W        W17494  35.573   3.802   1.211
53738W        W17495  30.102  26.570  14.915
53739W        W17496  25.491  23.105   2.258
53740W        W17497   8.699  38.051  13.466
53741W        W17498  37.492  39.025   5.101
53742W        W17499  40.458  30.486   1.427
53743W        W17500   1.451  19.280  14.431
53744W        W17501   5.222  32.405  12.420
53745W        W17502   5.690  24.015  13.331
53746W        W17503  11.695  28.484   2.210
53747W        W17504  32.508  37.086   3.685
53748W        W17505  30.515  18.573   2.237
53749W        W17506  28.439  24.549   4.710
53750W        W17507  43.484  42.988   1.440
53751W        W17508  14.176  10.869   1.264
53752W        W17509  34.963  44.360   5.157
53753W        W17510  34.399  41.881  12.925
53754W        W17511   9.273  41.349   5.128
53755W        W17512  30.917  44.444   0.932
53756W        W17513   8.782  37.579  11.105
53757W        W17514  35.413  22.155  12.572
53758W        W17515   4.887  30.010   2.762
53759W        W17516  12.159  11.257  13.375
53760W        W17517  22.506   8.240  13.983
53761W        W17518  43.015   4.345   2.378
53762W        W17519  40.983  14.111  14.882
53763W        W17520   9.367  28.565  11.418
53764W        W17521  40.377  29.651   1.723
53765W        W17522  32.984  37.492  12.895
53766W        W17523  24.650  35.427  10.597
53767W        W17524  24.586   5.779   1.930
53768W        W17525  32.594  26.667   0.966
53769W        W17526  27.485  31.902  14.994
53770W        W17527   6.888  14.665  13.974
53771W        W17528  39.392  12.630   1.849
53772W        W17529  12.355  32.610   3.258
53773W        W17530  32.469  10.258   4.703
53774W        W17531  38.340  43.401  10.426
53775W        W17532  41.501  35.005  14.417
53776W        W17533   2.303  37.893   1.791
53777W        W17534  34.396  35.444  13.027
53778W        W17535  24.117  12.244   0.344
53779W        W17536  26.117  40.450  12.415
53780W        W17537   3.219  16.761  10.990
53781W        W17538   5.288  14.325   1.717
53782W        W17539   7.841  24.597   2.327
53783W        W17540  25.511  24.004  12.508
53784W        W17541   6.187   3.765  14.802
53785W        W17542  17.579  30.506   0.405
53786W        W17543  26.039  37.378   4.309
53787W        W17544  21.212  35.985   0.784
53788W        W17545  28.960  13.838   3.852
53789W        W17546  40.325  24.609   1.355
53790W        W17547  35.060  39.972   1.904
53791W        W17548  19.223  13.652  11.899
53792W        W17549   4.742  13.804  11.541
53793W        W17550  19.612  22.598  14.361
53794W        W17551  24.637  29.042  13.407
53795W        W17552   7.690  26.591   4.217
53796W        W17553   8.334   3.255   2.851
53797W        W17554  29.627   9.278   3.641
53798W        W17555  36.065  34.608   1.415
53799W        W17556   5.837  44.924   4.763
53800W        W17557  30.613  13.726   9.936
53801W        W17558  29.561  26.644   0.405
53802W        W17559  42.289  22.663  12.041
53803W        W17560  40.526   4.945  11.108
53804W        W17561   7.396   0.796  10.494
53805W        W17562  41.538  23.135   1.794
53806W        W17563   0.971  31.087  14.301
53807W        W17564  27.982  41.013   1.398
53808W        W17565  26.965  36.437  13.484
53809W        W17566  20.712  25.663   0.750
53810W        W17567  31.637  44.926   3.768
53811W        W17568  10.252  44.499   2.406
53812W        W17569   8.173  34.456  12.988
53813W        W17570  42.392  41.427   4.621
53814W        W17571  29.552  26.585  10.632
53815W        W17572  28.078   6.742  10.539
53816W        W17573  15.673   5.302  10.482
53817W        W17574  43.885   4.771   2.761
53818W        W17575  27.159  43.783  11.033
53819W        W17576  13.649   7.365   1.928
53820W        W17577   2.811   5.427   3.278
53821W        W17578  24.031  24.718  14.983
53822W        W17579  33.014  38.055  14.420
53823W        W17580   2.893  28.055  13.034
53824W        W17581  40.985  39.534   4.790
53825W        W17582  13.265  43.405  13.043
53826W        W17583   8.227  23.042   0.374
53827W        W17584   9.239   3.935   0.451
53828W        W17585  31.406  44.805  12.497
53829W        W17586   5.316  29.096   1.908
53830W        W17587  41.977   8.702   2.754
53831W        W17588  35.531  18.272   0.773
53832W        W17589  26.647  14.828  11.964
53833W        W17590  16.235  11.794  11.948
53834W        W17591  17.109  14.640   2.693
53835W        W17592  37.883  35.888  11.959
53836W        W17593  44.442  35.389  14.386
53837W        W17594  17.227  18.547  10.956
53838W        W17595  39.932  36.972  12.500
53839W        W17596  12.162  18.550  12.854
53840W        W17597   7.359  18.257   3.762
53841W        W17598  41.969   1.857  11.040
53842W        W17599   7.182   6.303   0.378
53843W        W17600   5.365  36.874  14.808
53844W        W17601  26.680   1.973  11.973
53845W        W17602  21.712  15.598   1.723
53846W        W17603  30.110  43.442   0.354
53847W        W17604  11.290   4.900   4.817
53848W        W17605  35.047  22.169   1.930
53849W        W17606   2.448   6.290   4.652
53850W        W17607  22.626  34.956  14.848
53851W        W17608  30.126  10.311  13.007
53852W        W17609  15.276  22.658   1.804
53853W        W17610  17.566  17.218   9.966
53854W        W17611  24.998  14.593   5.243
53855W        W17612  31.559  18.634  11.003
53856W        W17613  24.651  43.474   0.402
53857W        W17614   6.721  22.731  12.553
53858W        W17615  40.521  18.214  12.059
53859W        W17616  24.553  17.182   4.118
53860W        W17617  39.344   3.938  13.890
53861W        W17618  17.711  43.445  11.985
53862W        W17619  12.664  37.072   1.392
53863W        W17620  19.212  23.993  14.944
53864W        W17621   2.260  12.259  12.021
53865W        W17622  27.116  35.969   5.299
53866W        W17623  40.990  32.467  14.878
53867W        W17624  34.054  21.242   4.239
53868W        W17625  23.505   6.326   3.672
53869W        W17626  33.917   3.379  12.436
53870W        W17627  15.689   3.922  13.974
53871W        W17628  22.508  25.656   1.232
53872W        W17629  40.028  12.740   0.267
53873W        W17630  24.112  29.663   2.759
53874W        W17631  30.551  40.798  10.450
53875W        W17632  32.083  15.744   3.674
53876W        W17633  24.536   2.929   3.273
53877W        W17634   0.294  14.248  12.434
53878W        W17635  10.245  20.136  11.606
53879W        W17636   1.251   9.190  10.936
53880W        W17637  41.887  23.025  14.317
53881W        W17638  38.532  35.905  10.611
53882W        W17639  15.804  40.981   3.215
53883W        W17640   6.733  12.623  13.977
53884W        W17641  26.056  28.968   0.471
53885W        W17642  14.770  13.836   2.812
53886W        W17643  34.381   8.236  13.395
53887W        W17644  40.527  13.131   3.852
53888W        W17645  31.006  30.963  14.963
53889W        W17646  39.495  13.148  12.443
53890W        W17647  20.697  33.426  12.885
53891W        W17648  35.577  10.719  14.500
53892W        W17649  43.287  14.625  11.930
53893W        W17650   4.401   1.902   2.234
53894W        W17651   7.824  16.285  14.019
53895W        W17652  39.398   1.363  14.407
53896W        W17653  33.458  35.971  10.042
53897W        W17654   5.257  36.055  14.907
53898W        W17655  37.396  41.428   1.313
53899W        W17656  23.053  24.701  11.020
53900W        W17657  16.627  34.614  11.507
53901W        W17658  16.092  11.811  14.869
53902W        W17659  26.471  21.143   2.888
53903W        W17660  40.391  36.914  14.012
53904W        W17661  34.046   8.193  13.511
53905W        W17662  11.372   7.262  12.033
53906W        W17663  30.460  29.130   0.820
53907W        W17664  18.099  15.729   3.182
53908W        W17665  35.092   2.274  11.900
53909W        W17666  12.146   7.745  14.863
53910W        W17667  23.056  37.360   3.792
53911W        W17668   3.722   3.750   0.328
53912W        W17669   6.418  34.490   0.260
53913W        W17670  36.065  37.455   4.632
53914W        W17671  31.938  28.464  12.445
53915W        W17672  13.129  42.488  12.345
53916W        W17673  24.485  23.581  14.452
53917W        W17674   3.320   2.389   0.477
53918W        W17675  34.970  17.680  14.798
53919W        W17676  18.590  33.545   5.255
53920W        W17677  40.970  13.183  10.902
53921W        W17678  25.605  22.504  12.380
53922W        W17679  21.534  21.212   2.699
53923W        W17680   8.225  43.462  13.800
53924W        W17681  17.209   9.663  11.533
53925W        W17682  28.105  19.644   0.446
53926W        W17683  33.939   7.406   1.866
53927W        W17684  18.767  25.555   0.963
53928W        W17685  23.023  18.281  12.912
53929W        W17686  43.006  38.451  12.924
53930W        W17687  27.135  36.364  11.879
53931W        W17688  38.417  15.793  11.474
53932W        W17689  18.172   8.201   1.324
53933W        W17690  39.992  39.988  10.416
53934W        W17691  13.844   7.686   2.265
53935W        W17692  29.154  42.837   0.470
53936W        W17693   3.282  36.050  11.081
53937W        W17694   6.880  41.461  13.821
53938W        W17695  23.107   7.336   1.703
53939W        W17696  10.646  42.459  10.633
53940W        W17697  39.046  32.014  10.415
53941W        W17698   3.919  25.010  12.373
53942W        W17699  32.998  37.852   1.854
53943W        W17700  33.082   6.874  12.015
53944W        W17701  26.512  43.951  14.500
53945W        W17702  43.332  26.139  14.409
53946W        W17703  17.594  10.678  12.858
53947W        W17704  23.118  27.588   3.655
53948W        W17705  21.658   9.172   2.819
53949W        W17706   0.906  44.991   0.945
53950W        W17707  39.816   8.184  14.396
53951W        W17708  18.213   9.660  11.859
53952W        W17709  26.503  43.360  13.819
53953W        W17710  19.042  30.465   2.805
53954W        W17711  14.285  15.173   0.453
53955W        W17712  19.620  36.358   2.816
53956W        W17713  22.050  38.562   4.764
53957W        W17714  39.818  31.929   2.742
53958W        W17715  37.042  24.573   3.823
53959W        W17716   7.893   9.352   3.746
53960W        W17717  30.460  20.181   2.702
53961W        W17718  23.723  10.280   4.355
53962W        W17719  11.724  19.118   3.863
53963W        W17720   2.412  10.765  11.406
53964W        W17721  13.807  13.785  13.794
53965W        W17722  25.497  16.253  10.510
53966W        W17723  15.824  40.013  13.506
53967W        W17724   7.685  16.172  14.393
53968W        W17725   4.278  44.279   0.774
53969W        W17726  40.950  40.359  14.507
53970W        W17727  30.003  32.046  10.963
53971W        W17728  24.556  41.829  11.607
53972W        W17729  35.462  43.362  13.054
53973W        W17730  30.979   3.929  14.380
53974W        W17731  30.022  38.013  10.443
53975W        W17732   5.331  25.099   1.747
53976W        W17733   4.725  28.981   1.916
53977W        W17734   9.373  31.628  14.877
53978W        W17735  35.972   6.384  14.962
53979W        W17736  19.121  41.934   1.746
53980W        W17737  13.621  36.883   0.376
53981W        W17738  41.416  41.962  14.373
53982W        W17739  30.909  25.124   1.837
53983W        W17740  22.035  18.202  12.039
53984W        W17741  10.842   1.295  13.952
53985W        W17742  19.576   6.349   3.630
53986W        W17743  40.944  31.974   3.233
53987W        W17744   6.348  32.889  12.039
53988W        W17745  22.595  16.231  13.842
53989W        W17746   7.722   5.703   1.874
53990W        W17747  17.069  22.024  12.543
53991W        W17748   0.278  17.703   3.779
53992W        W17749  35.955   3.400  10.614
53993W        W17750   6.370  28.035   0.792
53994W        W17751  32.554  22.565  14.288
53995W        W17752  18.604   9.215   2.732
53996W        W17753  10.776  19.590   5.286
53997W        W17754  31.462  30.548   4.712
53998W        W17755  26.181   2.720   1.779
53999W        W17756   9.298  38.996  12.519
54000W        W17757   4.389  43.487  13.928
54001W        W17758  10.232   9.741  12.005
54002W        W17759  41.931  42.825  11.371
54003W        W17760  13.191   7.695   3.238
54004W        W17761  10.787  31.983  14.389
54005W        W17762  29.061  10.700  12.086
54006W        W17763  30.098  19.203   3.161
54007W        W17764  15.274   4.236   1.766
54008W        W17765  35.419  10.680  12.966
54009W        W17766  19.769  34.588   1.324
54010W        W17767  40.956  25.679  11.087
54011W        W17768  17.192  24.614   1.257
54012W        W17769  19.684  40.985   1.372
54013W        W17770  33.535  17.768  14.019
54014W        W17771   6.773  41.994   3.767
54015W        W17772  21.521  20.188  10.488
54016W        W17773  18.150  14.158  13.061
54017W        W17774  12.220   1.394   0.404
54018W        W17775  21.636  10.373  14.383
54019W        W17776  41.951  34.963  12.964
54020W        W17777  21.062  11.270   0.378
54021W        W17778  38.362   5.872  10.510
54022W        W17779  37.546  39.353  11.527
54023W        W17780  14.251  34.903   2.203
54024W        W17781   0.886  29.471  12.534
54025W        W17782  29.465   6.861  14.868
54026W        W17783   3.259  11.269  12.422
54027W        W17784  15.242  35.591  11.450
54028W        W17785  22.570  18.610   1.223
54029W        W17786  17.761   7.199   4.811
54030W        W17787  23.566  14.181   0.897
54031W        W17788  38.962   6.311   2.834
54032W        W17789  30.621   6.827   0.387
54033W        W17790  30.652  14.180  12.898
54034W        W17791  29.960  16.122   3.649
54035W        W17792  39.948   7.881   3.280
54036W        W17793  15.621  18.240   0.789
54037W        W17794  25.126  24.589   0.349
54038W        W17795  38.359  33.029  14.008
54039W        W17796  11.763  32.565  10.611
54040W        W17797  10.865   8.184  14.450
54041W        W17798  21.603  35.423   0.438
54042W        W17799  10.176  22.514   1.723
54043W        W17800  20.046  23.193  11.074
54044W        W17801  32.018  11.658   5.255
54045W        W17802  34.375  35.478  10.579
54046W        W17803   4.309   8.242  13.900
54047W        W17804  43.426  39.004   3.288
54048W        W17805  15.680  38.420   3.183
54049W        W17806  36.396  26.092   4.784
54050W        W17807  15.223  44.303   3.841
54051W        W17808  23.045  19.761   0.403
54052W        W17809   1.780  34.374  13.854
54053W        W17810  11.316  35.042   4.818
54054W        W17811  24.526   8.863  11.461
54055W        W17812  43.431   3.326  12.882
54056W        W17813  32.989   1.478  12.964
54057W        W17814  18.134  24.147  11.043
54058W        W17815  16.569  43.322  14.439
54059W        W17816  16.583  37.365   2.271
54060W        W17817   7.859  17.165   1.227
54061W        W17818  39.348  23.694  14.439
54062W        W17819  44.783  21.553   4.747
54063W        W17820  39.358  44.927   2.690
54064W        W17821  31.595  21.520  12.348
54065W        W17822  15.247   2.458   2.737
54066W        W17823  37.455  44.803  14.890
54067W        W17824  40.390  28.931  13.031
54068W        W17825   4.749  19.751   1.353
54069W        W17826  25.587  13.160  11.535
54070W        W17827  23.515  20.090  10.406
54071W        W17828  17.126  29.155   0.446
54072W        W17829  30.488  22.063  14.424
54073W        W17830  38.974  25.533   2.335
54074W        W17831   9.695  36.388  14.422
54075W        W17832   8.321   0.980  11.406
54076W        W17833  14.657   8.293   4.763
54077W        W17834  19.128  21.111  14.938
54078W        W17835   5.804   4.334   3.288
54079W        W17836  22.673   7.830   4.205
54080W        W17837   1.774  35.497   4.607
54081W        W17838  14.146  13.839  11.610
54082W        W17839   8.361  30.943   1.239
54083W        W17840   5.866  13.311  14.412
54084W        W17841   5.724  25.130  10.601
54085W        W17842  15.765  28.638   0.270
54086W        W17843   5.309   4.211   0.940
54087W        W17844  33.995  14.675   4.710
54088W        W17845  42.419  21.229   1.830
54089W        W17846  22.536   2.236   3.708
54090W        W17847  40.519  43.951   4.760
54091W        W17848  15.700  42.325  11.128
54092W        W17849  11.331  24.603   0.910
54093W        W17850  34.447  41.969  10.935
54094W        W17851  14.206  16.241  13.317
54095W        W17852  14.100  14.796  13.984
54096W        W17853  20.170  29.610   1.400
54097W        W17854  35.421  41.834   3.720
54098W        W17855  14.308   2.885  10.058
54099W        W17856   8.296  37.021  13.342
54100W        W17857   1.249  37.567   4.247
54101W        W17858   1.871  41.423   1.835
54102W        W17859  23.630  22.039  10.499
54103W        W17860   3.918  25.529  14.516
54104W        W17861  38.044  16.786   0.754
54105W        W17862  43.307  20.085   0.814
54106W        W17863   0.446  27.457  14.503
54107W        W17864  19.087  30.967  11.555
54108W        W17865  14.724  34.605  14.897
54109W        W17866  30.416  30.026  13.494
54110W        W17867  26.641  29.940   3.740
54111W        W17868  35.444  17.707  10.613
54112W        W17869  25.034  43.343   1.814
54113W        W17870  38.541   4.801   3.311
54114W        W17871  15.088  10.222  11.468
54115W        W17872  22.014  43.314   1.210
54116W        W17873  32.500  16.578  12.426
54117W        W17874  43.331  20.134  13.883
54118W        W17875  25.967  36.910  12.979
54119W        W17876  14.731   1.330  10.019
54120W        W17877  39.014  39.383  13.806
54121W        W17878   2.350   6.427   4.188
54122W        W17879   1.957  33.055   0.942
54123W        W17880  32.911  28.095  11.524
54124W        W17881  14.721  21.706   0.885
54125W        W17882  12.164  40.942   1.812
54126W        W17883  17.249  10.326   4.161
54127W        W17884  24.663   4.853   1.365
54128W        W17885  21.178  40.905   1.325
54129W        W17886  39.829  22.674   0.468
54130W        W17887   8.792  15.668  11.572
54131W        W17888  11.739  18.586   2.279
54132W        W17889  42.330  11.754  14.302
54133W        W17890  36.435  37.032  13.434
54134W        W17891  32.912  30.652   2.703
54135W        W17892  38.354  29.928   0.778
54136W        W17893  39.969  11.338   3.833
54137W        W17894  26.189   9.226   0.933
54138W        W17895  34.034  18.158  14.401
54139W        W17896  30.146  34.415   1.404
54140W        W17897  36.927  20.197  11.580
54141W        W17898  42.945  19.214   2.836
54142W        W17899  36.378  22.586  12.833
54143W        W17900  16.278  32.523   2.405
54144W        W17901  41.424  34.893   4.246
54145W        W17902  30.080  33.586  14.779
54146W        W17903  39.896  16.746  12.489
54147W        W17904  14.300   9.814   3.344
54148W        W17905  41.339   4.243   2.767
54149W        W17906  23.506  27.032  12.473
54150W        W17907  35.554  15.692   3.237
54151W        W17908  16.810   9.649  14.771
54152W        W17909   0.886   4.894   3.849
54153W        W17910   5.731   7.741   4.152
54154W        W17911  22.239  27.052   3.752
54155W        W17912   9.225  20.710  14.307
54156W        W17913  19.551  31.922   3.240
54157W        W17914  31.507   4.299  14.956
54158W        W17915  34.995  43.476   4.349
54159W        W17916  22.063  27.628   3.194
54160W        W17917  41.835  42.436   0.320
54161W        W17918  11.809  37.877   0.890
54162W        W17919  35.571  10.710  11.543
54163W        W17920  15.651  32.538  13.805
54164W        W17921  39.930  43.988  10.489
54165W        W17922   2.784  22.604  11.992
54166W        W17923  37.837  19.244  10.413
54167W        W17924  39.425  12.342  13.417
54168W        W17925  18.764   5.732   1.289
54169W        W17926  33.948  21.180   2.415
54170W        W17927  37.458  20.135   1.220
54171W        W17928  14.652   4.209  10.896
54172W        W17929  29.112  31.628  14.384
54173W        W17930  24.086  14.202  10.448
54174W        W17931  14.208  28.531  11.119
54175W        W17932   7.833   3.782  11.396
54176W        W17933  27.506   8.206   4.768
54177W        W17934   1.277   1.433   4.309
54178W        W17935  15.086  41.981   0.747
54179W        W17936  31.425  38.520  11.932
54180W        W17937  14.609  17.254  11.459
54181W        W17938   6.275  29.624  10.959
54182W        W17939  18.133  15.823   2.700
54183W        W17940   7.176  39.525  10.430
54184W        W17941  20.698  44.817   3.724
54185W        W17942  37.990  33.620   4.668
54186W        W17943   1.279  25.033   3.856
54187W        W17944  28.064  35.495  12.940
54188W        W17945   3.350  13.227  14.857
54189W        W17946  20.594  39.559  12.559
54190W        W17947   5.859  21.245   2.886
54191W        W17948   5.417  19.154  10.906
54192W        W17949  21.563   2.840  14.794
54193W        W17950  20.527  38.387  11.434
54194W        W17951  21.241   6.341   3.793
54195W        W17952  16.712  35.052  13.971
54196W        W17953  40.501  21.226   1.725
54197W        W17954  16.283  27.671  10.564
54198W        W17955  34.574  36.983   3.358
54199W        W17956   1.411   4.839  14.798
54200W        W17957  15.199  12.766   3.332
54201W        W17958  18.551  26.015  10.632
54202W        W17959  16.619  29.539   2.412
54203W        W17960  27.564  19.730  13.481
54204W        W17961   8.882   1.849  12.941
54205W        W17962  37.925  19.663  11.872
54206W        W17963  20.259  41.509   5.151
54207W        W17964  28.625  10.866   4.314
54208W        W17965   6.205  30.621  11.067
54209W        W17966  40.527  17.163  10.634
54210W        W17967   6.203  32.932   3.848
54211W        W17968  34.382  33.539  10.980
54212W        W17969   2.946   4.295   4.717
54213W        W17970  35.594  26.568  12.958
54214W        W17971   4.447  20.171   0.269
54215W        W17972   8.234  23.170  11.587
54216W        W17973   3.437  29.082   9.941
54217W        W17974  11.366  26.194   4.251
54218W        W17975  32.522  25.590  12.064
54219W        W17976  34.035  34.563  10.414
54220W        W17977  37.394  37.377   1.750
54221W        W17978   1.766  25.644   2.892
54222W        W17979  35.064  24.209  11.855
54223W        W17980  23.701  11.722  11.923
54224W        W17981  29.586   5.213   3.358
54225W        W17982   7.807   3.953  14.862
54226W        W17983  15.120  18.589   3.819
54227W        W17984  17.797  33.398   0.334
54228W        W17985  12.704  10.335   5.275
54229W        W17986   2.435  29.641  11.074
54230W        W17987  12.774  33.435  11.889
54231W        W17988  44.820  26.146  11.070
54232W        W17989  41.456  40.939   4.801
54233W        W17990  42.524   9.761   4.630
54234W        W17991  30.585  16.163   0.804
54235W        W17992  18.206   7.899  12.517
54236W        W17993  12.711   9.361  12.846
54237W        W17994  18.777  11.644   9.947
54238W        W17995  20.132  19.129  13.528
54239W        W17996  22.208  29.513  11.062
54240W        W17997  25.558  33.454  11.409
54241W        W17998  26.692  30.639  11.604
54242W        W17999  40.031  18.568  10.522
54243W        W18000  29.918  25.970  10.554
54244W        W18001  42.352  14.257  14.429
54245W        W18002   9.211  36.015   0.759
54246W        W18003   2.247  43.855   1.301
54247W        W18004   0.305  19.706  10.905
54248W        W18005  17.140   5.934  13.846
54249W        W18006  35.382  27.106  11.449
54250W        W18007   8.778  21.534   4.192
54251W        W18008  23.122  28.133  14.880
54252W        W18009   2.827  39.938  14.827
54253W        W18010  14.597   4.366   3.747
54254W        W18011  11.779   5.808   2.227
54255W        W18012  19.271  13.149   2.330
54256W        W18013  38.483  30.422   3.824
54257W        W18014  42.982   7.207  14.817
54258W        W18015  29.929  44.409  10.635
54259W        W18016  44.815  33.519  11.016
54260W        W18017   7.409  15.712  12.848
54261W        W18018  33.992  32.996  11.394
54262W        W18019  19.191   1.760   3.650
54263W        W18020  33.559  12.616   4.196
54264W        W18021  16.137  15.306  12.507
54265W        W18022  41.406  19.576   3.301
54266W        W18023   8.214  25.119  11.969
54267W        W18024  36.464  12.638  10.604
54268W        W18025  31.084  28.110  14.793
54269W        W18026  15.108  42.984   0.959
54270W        W18027  10.747   6.346   4.289
54271W        W18028  26.186  36.012  12.037
54272W        W18029  36.388  35.568   2.380
54273W        W18030   0.807  24.021   1.698
54274W        W18031  41.798  10.696   4.691
54275W        W18032  27.186   9.383   0.856
54276W        W18033  16.106  26.977  13.930
54277W        W18034  22.501   0.337  11.866
54278W        W18035  15.229  39.439   1.863
54279W        W18036  11.370   4.919   0.866
54280W        W18037  17.285  12.237   1.257
54281W        W18038  38.071  25.999  13.446
54282W        W18039  36.561  44.855  12.388
54283W        W18040  22.518   3.303  11.962
54284W        W18041  44.796  37.371  13.396
54285W        W18042   3.918  43.305   4.340
54286W        W18043  37.988  24.507  11.912
54287W        W18044   8.265  14.224  10.983
54288W        W18045   9.668  11.795   2.277
54289W        W18046  25.517  38.917   4.342
54290W        W18047   5.268  21.603   4.683
54291W        W18048  30.128  32.967   3.732
54292W        W18049  35.418   2.338  14.843
54293W        W18050  28.496   5.702  10.561
54294W        W18051  21.121  23.708   3.199
54295W        W18052  33.620   9.218   4.813
54296W        W18053  42.798   0.382   4.691
54297W        W18054  39.934   5.903   0.887
54298W        W18055  41.331   3.348   4.761
54299W        W18056   5.297  36.541  11.013
54300W        W18057  15.675  42.789   4.330
54301W        W18058  27.950  41.353   3.631
54302W        W18059  16.102  20.716   0.253
54303W        W18060  15.148   8.682   3.659
54304W        W18061  24.032   3.923   1.378
54305W        W18062  10.842  28.030  14.924
54306W        W18063  19.049  31.026   2.190
54307W        W18064  42.819   3.432  13.037
54308W        W18065  29.167   5.867   0.900
54309W        W18066  43.395  22.119   3.808
54310W        W18067  42.507  36.380  13.361
54311W        W18068  10.637   4.253  11.042
54312W        W18069  25.214  35.091  10.985
54313W        W18070  20.673  25.145  14.326
54314W        W18071  14.598   3.402   4.753
54315W        W18072  11.723  31.428  14.817
54316W        W18073  37.408  28.027   4.312
54317W        W18074  29.165  38.365  13.427
54318W        W18075   7.865  38.412  10.591
54319W        W18076  42.796  38.904   1.247
54320W        W18077  33.010  12.745   3.757
54321W        W18078  13.613  25.051  14.917
54322W        W18079  11.695  27.050   0.860
54323W        W18080  32.574  34.112   3.198
54324W        W18081  36.372   2.962  11.453
54325W        W18082  43.820  42.446   1.895
54326W        W18083   2.359  39.351   1.359
54327W        W18084   0.860   3.413   5.182
54328W        W18085  42.882   9.363  12.842
54329W        W18086  18.733   8.755   4.774
54330W        W18087  30.471  19.150  13.811
54331W        W18088  41.506  16.091  11.117
54332W        W18089  26.623   2.754   0.414
54333W        W18090  16.663  31.984  11.102
54334W        W18091   0.343  37.535  12.550
54335W        W18092  25.667  11.748  12.402
54336W        W18093  29.063  27.479   3.326
54337W        W18094  41.451  13.138   0.828
54338W        W18095  43.382  35.472  14.377
54339W        W18096  15.757   6.229   1.383
54340W        W18097   9.296  23.612  10.617
54341W        W18098  27.167   2.804  10.939
54342W        W18099   2.894  44.851  14.767
54343W        W18100  14.285  27.568  10.017
54344W        W18101  19.534  13.313   1.834
54345W        W18102  31.445  27.476   9.611
54346W        W18103  41.298  42.890   1.382
54347W        W18104   8.818  20.662   0.942
54348W        W18105  42.977  13.711   2.235
54349W        W18106  17.073  28.633  14.310
54350W        W18107  27.458  10.372  13.440
54351W        W18108  41.299  11.153  12.936
54352W        W18109  12.152  41.315  10.579
54353W        W18110  30.946  28.005  10.444
54354W        W18111  21.107  22.026  11.014
54355W        W18112   6.366   2.806   4.645
54356W        W18113  12.361   3.738   3.713
54357W        W18114  22.671  31.918   1.345
54358W        W18115   4.930  39.529   1.913
54359W        W18116  12.824  32.429  10.460
54360W        W18117  35.094   7.893  13.009
54361W        W18118  43.485  10.314   5.170
54362W        W18119  17.582  22.184   4.341
54363W        W18120  18.223  17.072  10.484
54364W        W18121  33.982  12.126  13.843
54365W        W18122  29.503  28.633   3.813
54366W        W18123  25.972   4.865  10.550
54367W        W18124  38.930   4.808  14.798
54368W        W18125  12.798  37.546   2.803
54369W        W18126  10.825  15.122   9.578
54370W        W18127   0.773  20.135   3.386
54371W        W18128  22.060  40.437  14.298
54372W        W18129  10.671  26.544  12.066
54373W        W18130  19.743   2.257   2.363
54374W        W18131  27.553   0.273   3.175
54375W        W18132  26.572  41.356   4.750
54376W        W18133  15.148  27.056  10.407
54377W        W18134  12.826   1.840   5.216
54378W        W18135  19.601  28.491  11.050
54379W        W18136   7.778  14.733  10.938
54380W        W18137  20.103  17.702  11.406
54381W        W18138  34.477  23.206   2.282
54382W        W18139  32.030  42.870  13.983
54383W        W18140  28.621   0.980   1.213
54384W        W18141  41.821   2.398  12.071
54385W        W18142  35.521   3.316   1.726
54386W        W18143  19.175  42.322   0.967
54387W        W18144  22.073   1.846   2.219
54388W        W18145  27.629  26.483   3.217
54389W        W18146  42.457  43.808   4.688
54390W        W18147  24.512  36.001   1.383
54391W        W18148  16.123  20.089  12.967
54392W        W18149  42.353   6.414   4.128
54393W        W18150  29.068  36.377   2.191
54394W        W18151  25.579  40.877   1.419
54395W        W18152  35.523  25.694   4.284
54396W        W18153  41.323  24.991  12.385
54397W        W18154  12.682  13.109   0.310
54398W        W18155   8.734   3.338   0.372
54399W        W18156  22.529  43.344  10.447
54400W        W18157  30.950  16.636   0.391
54401W        W18158  24.651  25.054   3.758
54402W        W18159  29.528  30.585   2.321
54403W        W18160  26.014  24.560  11.579
54404W        W18161  42.407  42.482   4.297
54405W        W18162  31.575  33.899  14.826
54406W        W18163  37.978  21.081   4.734
54407W        W18164  36.482  38.973  13.937
54408W        W18165  32.495   6.893  13.313
54409W        W18166  23.016  15.305   2.789
54410W        W18167   6.188  39.513  13.010
54411W        W18168   6.189   0.309  14.496
54412W        W18169  31.499  34.455   2.764
54413W        W18170  10.647  22.180  12.842
54414W        W18171  26.049  23.201  14.396
54415W        W18172   9.704  35.003   0.369
54416W        W18173  33.415   4.304  14.408
54417W        W18174  37.846  28.170  13.483
54418W        W18175  30.012  10.701  11.581
54419W        W18176   5.312  40.024  12.463
54420W        W18177   6.217  24.503  12.959
54421W        W18178  43.924  16.104  12.492
54422W        W18179  32.419  33.084  11.945
54423W        W18180  22.135  18.645   4.805
54424W        W18181  37.889   1.374  14.797
54425W        W18182  16.185   8.172  12.366
54426W        W18183  17.750  24.982   0.809
54427W        W18184   1.909  37.387   3.288
54428W        W18185  17.068   1.859  12.982
54429W        W18186  35.362  31.151  12.981
54430W        W18187  29.435  41.813   4.168
54431W        W18188   4.320  30.940   3.834
54432W        W18189  36.482   6.831  12.037
54433W        W18190  29.536  40.875   3.708
54434W        W18191  21.652  16.287  12.023
54435W        W18192   3.812  39.974   4.615
54436W        W18193   5.425  15.749   4.611
54437W        W18194  11.265  39.842   2.701
54438W        W18195   9.706  12.616  13.035
54439W        W18196  42.016  44.368  14.801
54440W        W18197  44.792   9.740   1.291
54441W        W18198  35.988  25.621  11.116
54442W        W18199   2.929  10.686   0.453
54443W        W18200  38.556  32.004   3.705
54444W        W18201   2.945  14.180   1.925
54445W        W18202  10.142   2.444  11.990
54446W        W18203  22.580   7.902  14.935
54447W        W18204  11.694  10.658   1.234
54448W        W18205   9.270   5.234  13.448
54449W        W18206  13.790  28.602  11.611
54450W        W18207  14.651  10.310  14.332
54451W        W18208  39.851  35.399   0.930
54452W        W18209  27.497  28.996   2.856
54453W        W18210  31.990  10.646   1.861
54454W        W18211  12.748  16.797  14.831
54455W        W18212   3.362  44.878   3.670
54456W        W18213  20.095  43.777   2.795
54457W        W18214  25.089   7.399   4.273
54458W        W18215  27.640  22.619   0.311
54459W        W18216  16.110  30.504  10.592
54460W        W18217  29.069  36.402   0.961
54461W        W18218  39.064  18.222   2.684
54462W        W18219  12.226  42.943   2.381
54463W        W18220   7.205  28.562  13.406
54464W        W18221  32.471  15.592  12.492
54465W        W18222  39.553  33.914  10.956
54466W        W18223  21.693   7.330  11.544
54467W        W18224   8.324  36.426   2.292
54468W        W18225  13.157  25.197   1.228
54469W        W18226  43.957  41.919  12.354
54470W        W18227  28.152  28.560   4.203
54471W        W18228  22.687  38.066   0.265
54472W        W18229  42.908   1.793   0.346
54473W        W18230  27.478   3.936   3.382
54474W        W18231  43.399   9.760   3.198
54475W        W18232  41.941  12.663   4.117
54476W        W18233  41.027   1.807   4.775
54477W        W18234  22.129  26.018  13.430
54478W        W18235  18.257   9.330  13.394
54479W        W18236  22.234  14.263   3.646
54480W        W18237  11.305  42.503   4.253
54481W        W18238  42.831  32.453   2.803
54482W        W18239  33.985  14.736  11.930
54483W        W18240  19.158  43.951   2.850
54484W        W18241  25.214  34.393   2.275
54485W        W18242  35.949  22.607  13.341
54486W        W18243  30.640   7.750  11.873
54487W        W18244  29.578   3.373   1.424
54488W        W18245  12.278  21.233   5.159
54489W        W18246  35.359  35.965  13.424
54490W        W18247  41.912   2.374   1.328
54491W        W18248   6.307   4.938   3.155
54492W        W18249  38.913  31.570   0.434
54493W        W18250  30.608  15.300  11.077
54494W        W18251  36.423  28.668   0.783
54495W        W18252  32.888   2.846  14.337
54496W        W18253   2.884  14.166   3.634
54497W        W18254  37.075  39.512   3.247
54498W        W18255   4.327  38.009   3.666
54499W        W18256  40.503  42.525   3.666
54500W        W18257  38.981  21.242   0.809
54501W        W18258  10.324  22.170   2.780
54502W        W18259  12.247   0.742  14.387
54503W        W18260  40.508  26.643   4.606
54504W        W18261   9.307  14.654   9.604
54505W        W18262  11.344  30.603  11.887
54506W        W18263  29.666   7.774  13.376
54507W        W18264   5.832  29.593   2.717
54508W        W18265  16.136  23.988   1.360
54509W        W18266  38.052  43.307   0.791
54510W        W18267  40.327  24.038  14.884
54511W        W18268   2.370  35.938   2.348
54512W        W18269  38.850  22.547  10.895
54513W        W18270  21.651   4.365  14.477
54514W        W18271  21.018  36.471   0.352
54515W        W18272   7.887  33.962  11.390
54516W        W18273  40.353   6.677   2.716
54517W        W18274  43.805  21.231   2.217
54518W        W18275  43.428  36.864  11.954
54519W        W18276   1.932  26.992   4.243
54520W        W18277  25.468  31.136  13.890
54521W        W18278   6.721  21.577  11.072
54522W        W18279  19.565   3.360  14.793
54523W        W18280  34.506   0.813  14.793
54524W        W18281  27.633  39.912  10.524
54525W        W18282   0.853  40.841   3.844
54526W        W18283  37.404  34.374  13.310
54527W        W18284  44.407  24.527  10.545
54528W        W18285  43.361  34.913  10.938
54529W        W18286  44.895  36.041   0.476
54530W        W18287  28.572   9.285  13.328
54531W        W18288  41.932  41.811  13.887
54532W        W18289  44.414  29.038   1.396
54533W        W18290  41.788  12.848  12.009
54534W        W18291  39.396  42.347  13.879
54535W        W18292  44.486  23.183  10.507
54536W        W18293  18.282  33.394   0.864
54537W        W18294  16.123  42.466  12.463
54538W        W18295  17.628  12.748   3.853
54539W        W18296  22.692  24.014  14.786
54540W        W18297  34.883  15.818  12.431
54541W        W18298  42.016   1.351  14.480
54542W        W18299  32.916   8.854  11.052
54543W        W18300  14.626   3.277   2.821
54544W        W18301  22.162   6.764  10.525
54545W        W18302  22.636   5.409  11.039
54546W        W18303  14.233  15.296   3.159
54547W        W18304  26.967  35.479  13.418
54548W        W18305   6.691  17.233  12.938
54549W        W18306   9.269  28.517  13.521
54550W        W18307   8.329  19.109   1.316
54551W        W18308  38.847  24.123  14.363
54552W        W18309  37.990   9.718  10.548
54553W        W18310  33.587  37.498  13.495
54554W        W18311   3.872  21.212  13.378
54555W        W18312  10.667  38.401  14.476
54556W        W18313  22.733  27.448   2.700
54557W        W18314   1.323  20.210  12.354
54558W        W18315  11.293  31.518  10.995
54559W        W18316  19.711  36.922   4.678
54560W        W18317   8.878  32.968   3.199
54561W        W18318  19.640   8.694  14.479
54562W        W18319  13.126  33.398  13.340
54563W        W18320   9.853  26.514  12.525
54564W        W18321  30.547  39.379  13.319
54565W        W18322   9.222  36.393   0.333
54566W        W18323  20.178  38.324  14.473
54567W        W18324  18.680   8.708  13.997
54568W        W18325   3.860  20.067  10.495
54569W        W18326  16.764  37.037   0.353
54570W        W18327  24.060  32.073   2.248
54571W        W18328  17.620   9.691   3.744
54572W        W18329  31.527   5.203  13.962
54573W        W18330  38.403  43.497  13.889
54574W        W18331  38.536  12.660   4.599
54575W        W18332  39.967  16.662   0.338
54576W        W18333   7.704  12.636  14.913
54577W        W18334  28.078   8.801  10.489
54578W        W18335   1.864  29.621  14.798
54579W        W18336  16.278  31.623   2.316
54580W        W18337   3.266  41.352  10.982
54581W        W18338  31.411  14.312  14.767
54582W        W18339  24.106   1.462   3.668
54583W        W18340  27.966  26.557  12.354
54584W        W18341  11.773  19.043  11.095
54585W        W18342  39.397  36.537   3.640
54586W        W18343  43.819   3.423   1.377
54587W        W18344  42.514  42.928  12.577
54588W        W18345  22.637   8.350   1.393
54589W        W18346  28.948  16.571  12.847
54590W        W18347   0.441  25.075   2.227
54591W        W18348  36.024   4.789   4.323
54592W        W18349  22.131  40.330   1.914
54593W        W18350  17.111   7.265  12.824
54594W        W18351  22.539  29.605  12.400
54595W        W18352  42.925   5.818   4.258
54596W        W18353  38.878  27.541  13.346
54597W        W18354  16.159   0.905   5.252
54598W        W18355  13.764  36.008   2.375
54599W        W18356  25.472  14.292  12.086
54600W        W18357  41.885  35.000   2.897
54601W        W18358  11.861   8.242  10.536
54602W        W18359  13.162  31.953  13.974
54603W        W18360   2.956  22.046   4.241
54604W        W18361   6.910  11.795   3.851
54605W        W18362  14.738  19.735  13.311
54606W        W18363  34.953  27.038   2.770
54607W        W18364   1.379  16.706   3.836
54608W        W18365  18.696  26.526   1.912
54609W        W18366  42.029   5.767  11.124
54610W        W18367   4.721  23.235  11.021
54611W        W18368  39.947  42.324   0.847
54612W        W18369  25.039  12.782   4.288
54613W        W18370  20.118  13.254  12.430
54614W        W18371   0.279   5.351   0.284
54615W        W18372  37.997  41.833  10.935
54616W        W18373   6.705  29.504   4.687
54617W        W18374  43.515  31.102   0.842
54618W        W18375  35.870   1.806  12.893
54619W        W18376   8.865  15.753   3.648
54620W        W18377  31.513  12.658  12.908
54621W        W18378   8.206   7.329   4.193
54622W        W18379  17.666  32.476   4.665
54623W        W18380  34.967  12.738  11.403
54624W        W18381  37.930  43.461  11.007
54625W        W18382  27.940  17.568  10.949
54626W        W18383  40.503   6.186  13.525
54627W        W18384  33.916  38.544   4.769
54628W        W18385  10.364   8.771   3.708
54629W        W18386   2.388  17.617  12.443
54630W        W18387   7.792  44.436   1.877
54631W        W18388   4.894  34.418   0.751
54632W        W18389  13.753   6.763   3.810
54633W        W18390  18.106  14.127   4.184
54634W        W18391  44.860  14.712  10.519
54635W        W18392  40.887  20.233   2.299
54636W        W18393  34.544  20.231  14.806
54637W        W18394  33.395  15.157   0.430
54638W        W18395  44.845   8.807  13.496
54639W        W18396  25.698  20.060   1.702
54640W        W18397  43.512  27.488   3.155
54641W        W18398  41.789  36.370  11.538
54642W        W18399  16.801  28.006  11.998
54643W        W18400  11.353  15.329  11.427
54644W        W18401  24.500  37.011   1.718
54645W        W18402  14.308  44.765   1.218
54646W        W18403   1.298   1.350  14.787
54647W        W18404  16.688  16.238  12.364
54648W        W18405  17.580   7.397  14.364
54649W        W18406  12.221  24.694   2.219
54650W        W18407  19.163   5.795   3.200
54651W        W18408  15.110  21.709   2.702
54652W        W18409  36.550  34.026  13.309
54653W        W18410   3.343  34.531  10.992
54654W        W18411   9.752  11.128  11.904
54655W        W18412  14.204  20.622   3.278
54656W        W18413  26.485   7.850   1.871
54657W        W18414  10.787  26.523   5.121
54658W        W18415   9.730  27.563   1.324
54659W        W18416  29.635  37.398  14.827
54660W        W18417  33.992   1.737  10.934
54661W        W18418   9.657  26.966   1.731
54662W        W18419  42.369  21.159  14.877
54663W        W18420  34.089  22.690   1.701
54664W        W18421  30.516  21.151   2.710
54665W        W18422  22.160  37.487  13.409
54666W        W18423  34.885  32.439   0.769
54667W        W18424  19.595  16.173   1.829
54668W        W18425  38.500  11.289   4.350
54669W        W18426  11.767   4.368   4.180
54670W        W18427  22.245  17.716  13.458
54671W        W18428  41.939  30.541   1.846
54672W        W18429  24.975  38.922   2.325
54673W        W18430   1.468  39.912  12.042
54674W        W18431  15.657   1.437  13.054
54675W        W18432  22.744   1.396   4.602
54676W        W18433   9.191  10.271   1.821
54677W        W18434   2.897  12.338  14.915
54678W        W18435   2.262   9.777   2.305
54679W        W18436  15.110  31.083   3.652
54680W        W18437   0.301  20.751  14.505
54681W        W18438  10.744   7.294   1.834
54682W        W18439   8.793  38.863   0.747
54683W        W18440  36.491  35.007  10.965
54684W        W18441  28.495  27.954  11.938
54685W        W18442  40.405  28.518  13.821
54686W        W18443  29.156  10.234  10.445
54687W        W18444  19.592   0.874  11.465
54688W        W18445   3.803  43.987  11.537
54689W        W18446  39.353  43.492   4.266
54690W        W18447   1.793  12.831  13.354
54691W        W18448  11.147  35.955  13.058
54692W        W18449   0.839  19.080   4.294
54693W        W18450   9.692  31.154   3.692
54694W        W18451  37.525   4.787  13.982
54695W        W18452  37.843  37.577  12.935
54696W        W18453   5.847   5.417   0.376
54697W        W18454  35.510  44.994   3.701
54698W        W18455  31.458  21.112  10.157
54699W        W18456   6.275  34.008   1.792
54700W        W18457  33.446  34.955   5.318
54701W        W18458   2.944  12.846  10.950
54702W        W18459  35.387  18.732  12.556
54703W        W18460  13.314  20.199  14.513
54704W        W18461  33.483   5.283  14.901
54705W        W18462  44.902  16.150  13.389
54706W        W18463  31.494   4.744   0.430
54707W        W18464  30.155  28.952   1.268
54708W        W18465   5.723  21.076  11.118
54709W        W18466  37.504   4.236   3.641
54710W        W18467  16.247  11.625   4.785
54711W        W18468  41.794  36.920   4.185
54712W        W18469  24.218  25.703   0.793
54713W        W18470  35.420  11.234  13.412
54714W        W18471  43.839  14.149   4.191
54715W        W18472  32.987  39.493   4.333
54716W        W18473  40.547  33.380  12.094
54717W        W18474   6.424   2.236  13.362
54718W        W18475  18.079   5.216   1.404
54719W        W18476  17.205  30.937  13.936
54720W        W18477  42.985  28.073  14.799
54721W        W18478   3.751  12.612   4.698
54722W        W18479   4.334  35.089   4.724
54723W        W18480   2.418  14.690   3.794
54724W        W18481  25.497  18.561  11.095
54725W        W18482  43.934   9.661   4.722
54726W        W18483  40.014  32.929  13.385
54727W        W18484   7.763  12.726   0.309
54728W        W18485  16.170   6.403  10.964
54729W        W18486  32.050  14.695  13.337
54730W        W18487  36.947   6.780   2.185
54731W        W18488  24.567  13.814  12.951
54732W        W18489  38.854  20.622   2.774
54733W        W18490   0.385   8.212  11.591
54734W        W18491   4.352  22.008  10.415
54735W        W18492  10.778  42.895   2.787
54736W        W18493  26.079  32.416   0.362
54737W        W18494   8.314  13.828  11.582
54738W        W18495  29.151  13.266   4.192
54739W        W18496  32.983  43.295  12.021
54740W        W18497  41.873  36.982   1.933
54741W        W18498  11.359  34.108  12.054
54742W        W18499  30.469  41.978  12.833
54743W        W18500  11.800  13.226  14.507
54744W        W18501  32.961   0.927   2.272
54745W        W18502  34.886  40.819   2.369
54746W        W18503  27.964  19.733  12.907
54747W        W18504  33.617  28.463   4.695
54748W        W18505  26.512  32.939  10.041
54749W        W18506  41.327  36.506   1.813
54750W        W18507  25.185  44.764  13.851
54751W        W18508   2.410  24.579   4.713
54752W        W18509   9.226  29.436  12.345
54753W        W18510  20.242  16.633   0.330
54754W        W18511  10.831  16.765   2.682
54755W        W18512  22.132  44.388   4.333
54756W        W18513   4.293  36.580  12.893
54757W        W18514  29.065  36.067   3.157
54758W        W18515   9.356  39.444   4.278
54759W        W18516   8.799  28.625   2.266
54760W        W18517  32.004   1.414   2.182
54761W        W18518  39.371  33.391   1.823
54762W        W18519  29.049  17.661   4.279
54763W        W18520  24.990  12.143  11.030
54764W        W18521  44.449  25.096   0.765
54765W        W18522  18.222  42.973   4.318
54766W        W18523  20.680  22.706   4.683
54767W        W18524  35.441   9.245   1.878
54768W        W18525  16.755  27.464   2.376
54769W        W18526  36.013   3.355   4.663
54770W        W18527  23.213  38.065  10.619
54771W        W18528  39.043  29.596  12.889
54772W        W18529  32.606   6.245   4.200
54773W        W18530  39.512  29.122  14.320
54774W        W18531  11.688  30.491   4.641
54775W        W18532  34.863  15.251   1.768
54776W        W18533  39.973  28.056   3.186
54777W        W18534  18.661   4.218  14.433
54778W        W18535  34.077  12.270   0.475
54779W        W18536   2.455  31.629  10.442
54780W        W18537  21.679  21.242   1.218
54781W        W18538  34.376   0.475   0.264
54782W        W18539  20.546  28.677  12.522
54783W        W18540  24.695  27.998  11.966
54784W        W18541  33.384  29.609   9.618
54785W        W18542  23.163  14.266   2.879
54786W        W18543  26.047   0.913  14.973
54787W        W18544  26.020  43.956   2.797
54788W        W18545  11.638  39.335   4.167
54789W        W18546  27.997  36.458   1.702
54790W        W18547   5.349  30.019   3.156
54791W        W18548   3.799  28.963   1.369
54792W        W18549   3.717  29.996  12.995
54793W        W18550  26.004  33.942   4.334
54794W        W18551   9.219  39.439  10.516
54795W        W18552  44.912  39.861  11.416
54796W        W18553  44.438  18.258   1.731
54797W        W18554  23.662  25.096   3.262
54798W        W18555  40.955  13.219  13.052
54799W        W18556   9.230  32.957  14.765
54800W        W18557   6.407  40.453   4.142
54801W        W18558  18.268   9.808  12.878
54802W        W18559  37.920  19.261  12.045
54803W        W18560   5.288   1.931  13.024
54804W        W18561   1.770  30.097   0.306
54805W        W18562  16.132  11.674   4.336
54806W        W18563  27.591  12.817  12.947
54807W        W18564   6.247  10.772  13.439
54808W        W18565   4.829  30.624  11.511
54809W        W18566  16.099  18.148  13.896
54810W        W18567  33.501  29.654   0.726
54811W        W18568  30.549   6.361   1.779
54812W        W18569  14.825  40.431   4.257
54813W        W18570  11.838   1.298   2.191
54814W        W18571  21.236  14.302   1.757
54815W        W18572   1.307  43.913  12.986
54816W        W18573  28.631  25.207   1.758
54817W        W18574   9.370  39.022  11.999
54818W        W18575  14.160  42.326  12.035
54819W        W18576  34.514  17.789   4.812
54820W        W18577  36.025  12.721  13.531
54821W        W18578  18.741  18.683   2.832
54822W        W18579  20.064  31.015   3.672
54823W        W18580  33.505   7.675   4.805
54824W        W18581  24.125  39.395   4.711
54825W        W18582  27.686  35.372   0.771
54826W        W18583  38.836  17.199  12.532
54827W        W18584   2.965  20.554   1.238
54828W        W18585   3.855  14.326  14.432
54829W        W18586  10.235  23.209   1.884
54830W        W18587  13.281  44.922   3.697
54831W        W18588   0.309  25.617  13.990
54832W        W18589  11.641   0.299   1.348
54833W        W18590  40.475  36.526  10.593
54834W        W18591  16.628  29.536  14.939
54835W        W18592  41.924  35.479   1.332
54836W        W18593   7.863  41.850   0.359
54837W        W18594   3.917   4.845   3.836
54838W        W18595  27.033   1.949   0.478
54839W        W18596   9.783  25.508  13.352
54840W        W18597  16.759  44.426  13.544
54841W        W18598   0.969  24.062   1.322
54842W        W18599   9.262  16.247   3.297
54843W        W18600   9.805  38.851   1.816
54844W        W18601  44.313  38.982  13.921
54845W        W18602  15.632  39.973   0.365
54846W        W18603  28.183  21.094  10.997
54847W        W18604  12.798  42.892   0.449
54848W        W18605  28.580  13.119  10.048
54849W        W18606  15.730  18.167  13.384
54850W        W18607  18.565  28.108   4.287
54851W        W18608  38.900   5.874   4.154
54852W        W18609  13.144  27.528   2.416
54853W        W18610  31.471   8.238   0.285
54854W        W18611  20.578  43.868   1.780
54855W        W18612  44.382  36.468  13.795
54856W        W18613  34.072  12.631  11.876
54857W        W18614   8.655  32.979   4.228
54858W        W18615  32.481  18.265  14.317
54859W        W18616  26.697  20.092  12.067
54860W        W18617  42.816  41.445  12.354
54861W        W18618  34.535   7.294   2.336
54862W        W18619  25.527   4.425   0.441
54863W        W18620   9.778  25.134   1.297
54864W        W18621   9.664  19.049   2.824
54865W        W18622  25.122  21.151   3.818
54866W        W18623   6.284  32.618  10.427
54867W        W18624  34.523  31.418  13.374
54868W        W18625  38.465  39.959   2.387
54869W        W18626  34.035   5.718   2.295
54870W        W18627  23.088  22.626  14.962
54871W        W18628   6.743  26.480   2.793
54872W        W18629  36.493   1.894  13.048
54873W        W18630   1.399  13.836  13.372
54874W        W18631  20.754  42.031   4.191
54875W        W18632  19.056   1.893   4.321
54876W        W18633  27.591   2.405  10.640
54877W        W18634   1.319  28.084   2.354
54878W        W18635  14.162   9.274  11.484
54879W        W18636   0.275   7.868  14.508
54880W        W18637  13.283  35.999   1.255
54881W        W18638  28.518  25.107  13.058
54882W        W18639   9.681  19.206  13.533
54883W        W18640  31.107  21.550  14.838
54884W        W18641  22.558   5.919  12.922
54885W        W18642  37.423  29.452   2.800
54886W        W18643   0.883   4.862   1.288
54887W        W18644  26.627  22.716   3.760
54888W        W18645  10.675  44.480   1.292
54889W        W18646  18.107  34.991  10.469
54890W        W18647   3.431   9.752   2.775
54891W        W18648  28.599  21.045  14.486
54892W        W18649   2.917  41.004  11.025
54893W        W18650  26.033  11.210  14.422
54894W        W18651   9.251   0.776   1.354
54895W        W18652  36.861  35.565   4.633
54896W        W18653  26.558  21.155  10.623
54897W        W18654  12.199   1.324   0.751
54898W        W18655  34.615  39.530  12.344
54899W        W18656  25.971   7.337  10.466
54900W        W18657  40.872  10.761   1.780
54901W        W18658   7.706   0.969  10.404
54902W        W18659  30.641  16.684   1.316
54903W        W18660  38.416   0.769   4.191
54904W        W18661  36.455  32.029  10.512
54905W        W18662  40.403   3.247   3.358
54906W        W18663  32.058  29.066   4.174
54907W        W18664  41.516  35.911  10.898
54908W        W18665   6.828   7.353   3.716
54909W        W18666  22.061   0.766  14.415
54910W        W18667  43.427   4.382   0.249
54911W        W18668  14.805   1.253  14.001
54912W        W18669  14.605  35.471  14.896
54913W        W18670  38.515   1.248  14.423
54914W        W18671  32.618  44.462  10.139
54915W        W18672  25.142  16.785  13.467
54916W        W18673  43.357  40.874   4.660
54917W        W18674  39.873  41.446  11.568
54918W        W18675  31.411  31.452   0.765
54919W        W18676  10.844  17.627   5.257
54920W        W18677   5.835  32.021  11.113
54921W        W18678  13.788  32.511  13.358
54922W        W18679  35.414   2.264   0.452
54923W        W18680  40.337  24.617  14.954
54924W        W18681   1.771  35.098   0.913
54925W        W18682  29.470  26.184  13.805
54926W        W18683  41.939  34.097   4.609
54927W        W18684  24.092  41.445  10.955
54928W        W18685  37.394   9.304   0.376
54929W        W18686  31.494  32.926  14.932
54930W        W18687  43.327  14.135  12.976
54931W        W18688  21.121  13.170  11.019
54932W        W18689  32.595  42.973  14.322
54933W        W18690   2.955  30.047  14.858
54934W        W18691  13.310  37.943  11.470
54935W        W18692   1.805   0.344  11.573
54936W        W18693   3.772   1.963  14.859
54937W        W18694  15.730  10.739  14.284
54938W        W18695  21.237   0.781   1.882
54939W        W18696  38.946  15.168  14.348
54940W        W18697   7.208   0.947   3.174
54941W        W18698  37.035  11.669  14.789
54942W        W18699  30.514  44.782   0.313
54943W        W18700  13.154  28.125   2.415
54944W        W18701   7.748  35.888  11.582
54945W        W18702  38.401  13.190  10.445
54946W        W18703  39.847  41.831  11.566
54947W        W18704  31.957  16.665   1.369
54948W        W18705   8.710  32.506   4.232
54949W        W18706   8.268  19.105   2.301
54950W        W18707   0.487  28.443   3.215
54951W        W18708  43.286   3.847  14.371
54952W        W18709   5.302  22.997   4.280
54953W        W18710  11.828  31.101  10.567
54954W        W18711  35.992   8.837   0.427
54955W        W18712  12.224   4.758   3.680
54956W        W18713  37.902  26.639  10.581
54957W        W18714  35.485   5.385  10.548
54958W        W18715  41.013  22.609  13.909
54959W        W18716  25.495  23.106  14.992
54960W        W18717  27.483  27.572  10.503
54961W        W18718  34.939   0.868  12.885
54962W        W18719  18.154   9.879   1.306
54963W        W18720  42.805  24.153   1.254
54964W        W18721  14.237  11.213  11.966
54965W        W18722  34.373  12.232  11.519
54966W        W18723  14.795   5.783   1.861
54967W        W18724  33.002  13.223  14.323
54968W        W18725  12.157  10.643  14.871
54969W        W18726   2.926  12.116   4.145
54970W        W18727   9.724   6.871   3.243
54971W        W18728  16.113   4.302  12.026
54972W        W18729  25.024  31.044   3.706
54973W        W18730  27.986  20.130  13.897
54974W        W18731  25.479   6.300   5.219
54975W        W18732  17.746  18.624  14.446
54976W        W18733  23.606  20.523   0.750
54977W        W18734  27.627  12.241  12.982
54978W        W18735   7.346  27.521  14.408
54979W        W18736  38.488  15.744  12.576
54980W        W18737  12.853  20.251   1.426
54981W        W18738  38.386   0.874  13.326
54982W        W18739  41.388   1.804  12.927
54983W        W18740  18.721  41.318   2.698
54984W        W18741   4.353  31.552   0.756
54985W        W18742  34.091   2.742  13.913
54986W        W18743  42.950  10.146  14.452
54987W        W18744  10.859  24.582  11.919
54988W        W18745   3.372  26.055   4.350
54989W        W18746  42.896   4.925  11.572
54990W        W18747   4.907  29.997  11.445
54991W        W18748  42.000  34.584  10.435
54992W        W18749  39.061  20.115  11.593
54993W        W18750  33.119  28.450  11.611
54994W        W18751  37.046   7.305   3.678
54995W        W18752   3.222  44.358   3.670
54996W        W18753  10.342  12.251   2.309
54997W        W18754  43.987   4.446   4.267
54998W        W18755  39.432   5.779  13.804
54999W        W18756  35.937  36.588  13.461
55000W        W18757  21.546  25.066   4.796
55001W        W18758  22.529   5.422   4.704
55002W        W18759   0.477   3.813   2.673
55003W        W18760  16.781  23.014   2.203
55004W        W18761   8.228  37.550   2.690
55005W        W18762   8.212  44.867  11.027
55006W        W18763  44.934  17.748   2.178
55007W        W18764   5.698   3.422  11.438
55008W        W18765  15.802  38.328   0.916
55009W        W18766  15.702  41.909   2.767
55010W        W18767  34.427  44.827  14.406
55011W        W18768   0.477  35.460   2.216
55012W        W18769  26.555  40.475   3.226
55013W        W18770   7.760  41.293  12.070
55014W        W18771   7.362  17.596   3.723
55015W        W18772  18.062  34.527  10.464
55016W        W18773  21.660  36.431   4.261
55017W        W18774  13.115   6.264  10.993
55018W        W18775  44.436  17.113   1.358
55019W        W18776  23.037  35.549  11.856
55020W        W18777   8.876  25.699  14.361
55021W        W18778  10.249  42.473   0.328
55022W        W18779   9.739  28.614  11.539
55023W        W18780  10.173   9.286  11.498
55024W        W18781  11.141  43.307  14.782
55025W        W18782  13.221  31.128  12.471
55026W        W18783  17.147   7.206  13.934
55027W        W18784   0.268   6.335  14.462
55028W        W18785  28.452   6.426  12.552
55029W        W18786   8.184  23.513  13.347
55030W        W18787  25.585   1.952  13.310
55031W        W18788  14.141  28.995   4.664
55032W        W18789   3.317  22.561   3.683
55033W        W18790  40.319  44.359  11.930
55034W        W18791  16.699   7.705  11.998
55035W        W18792   9.804  18.267   5.184
55036W        W18793  43.309  34.871  13.897
55037W        W18794   2.327  38.540   0.267
55038W        W18795  32.072  11.169  13.397
55039W        W18796  22.026  41.930  13.352
55040W        W18797  21.235  37.930   4.754
55041W        W18798  23.668  42.304   0.320
55042W        W18799  15.206  21.168   0.404
55043W        W18800  33.601  16.263   2.322
55044W        W18801  31.591  25.060  13.385
55045W        W18802  22.190   2.897   1.757
55046W        W18803  33.953   8.857  11.556
55047W        W18804   4.212  21.565   2.404
55048W        W18805  38.905  11.735   5.312
55049W        W18806  39.813  42.306   4.114
55050W        W18807   6.356   3.949  11.375
55051W        W18808  16.719  15.699   3.384
55052W        W18809   2.940  41.521  14.906
55053W        W18810  20.133  22.513   9.975
55054W        W18811  32.118   7.712   2.319
55055W        W18812  36.017  37.072   1.390
55056W        W18813  13.224  44.366  12.521
55057W        W18814  31.459   5.876   9.523
55058W        W18815  38.886  37.873  11.548
55059W        W18816  40.478  33.986   2.379
55060W        W18817  24.158   3.304  14.329
55061W        W18818  35.935   4.334   4.654
55062W        W18819  16.761  38.425   2.741
55063W        W18820  44.875  32.897  13.533
55064W        W18821   2.838  38.412   3.850
55065W        W18822   0.802  11.160  10.587
55066W        W18823  31.630  29.965  14.840
55067W        W18824  37.964  16.610   0.343
55068W        W18825  37.570  28.991  12.543
55069W        W18826  10.841   6.707   4.711
55070W        W18827   7.309  25.147  14.939
55071W        W18828   5.838  38.341   1.887
55072W        W18829  34.910   3.782   2.354
55073W        W18830  34.507  44.920   1.355
55074W        W18831  25.623  31.015  14.483
55075W        W18832  22.071  34.063   2.243
55076W        W18833  31.462  29.122   2.698
55077W        W18834  34.561  37.337  12.487
55078W        W18835  22.737  29.496   0.268
55079W        W18836  26.171   9.758  13.417
55080W        W18837  33.982  44.764   4.809
55081W        W18838  24.106  27.100  13.470
55082W        W18839  42.335  33.576   2.210
55083W        W18840   5.325  27.036  13.054
55084W        W18841  38.363   4.798  11.384
55085W        W18842  44.277  35.373  13.924
55086W        W18843  14.734  34.476  13.991
55087W        W18844   4.391  31.939  14.813
55088W        W18845  34.420  23.104  10.431
55089W        W18846   9.164  29.476   4.226
55090W        W18847  13.788  33.087   2.368
55091W        W18848   6.273  30.523   2.361
55092W        W18849  17.742  28.447  11.965
55093W        W18850  35.002  33.964   4.177
55094W        W18851   9.794  22.162  11.935
55095W        W18852  19.196  19.211   2.721
55096W        W18853  15.231   3.377   5.181
55097W        W18854  36.443  35.561  13.982
55098W        W18855  42.396  42.841   3.282
55099W        W18856  19.705  35.443   3.232
55100W        W18857  42.992  26.513   1.287
55101W        W18858  26.659  28.551  11.482
55102W        W18859  33.090  16.602  12.080
55103W        W18860  44.373   8.754  11.422
55104W        W18861  27.029   5.738  10.416
55105W        W18862   5.367  33.037  11.422
55106W        W18863  37.857   1.349  13.914
55107W        W18864   1.276   0.918  12.346
55108W        W18865  29.113  39.883  14.923
55109W        W18866  33.923  10.651   4.693
55110W        W18867  24.536   2.893   4.634
55111W        W18868  29.588  20.536  13.047
55112W        W18869  14.309  10.263  13.821
55113W        W18870  24.186  44.505  12.518
55114W        W18871  29.581  19.062   1.741
55115W        W18872  17.673  19.615  13.813
55116W        W18873  28.050  21.033   2.275
55117W        W18874  39.495   4.762   4.830
55118W        W18875   0.457  36.014   0.387
55119W        W18876  31.904  15.186   0.420
55120W        W18877  32.454  26.654  14.457
55121W        W18878  20.646  20.650  13.935
55122W        W18879   8.692  18.074  12.090
55123W        W18880  33.935  39.383  11.094
55124W        W18881  40.935   2.292  13.515
55125W        W18882  17.259  42.933   5.303
55126W        W18883  11.151  28.057   0.786
55127W        W18884  35.869   0.377  12.345
55128W        W18885  12.792  33.086  14.404
55129W        W18886  20.116  44.404  13.064
55130W        W18887   5.816   0.252  13.404
55131W        W18888  30.971  17.658   0.878
55132W        W18889  43.824  33.525  11.555
55133W        W18890  36.471  37.545  10.901
55134W        W18891  17.585  37.427  10.435
55135W        W18892  25.204  10.758  13.871
55136W        W18893  22.615  29.500  10.999
55137W        W18894  37.885  10.155   3.216
55138W        W18895  32.601  44.793   4.313
55139W        W18896   5.706  39.937  13.497
55140W        W18897  21.606  41.040  10.908
55141W        W18898   2.430  19.688  10.911
55142W        W18899  17.654  25.151  10.896
55143W        W18900  23.192  42.960  13.797
55144W        W18901   0.781  22.006  11.101
55145W        W18902  15.224  31.573   0.386
55146W        W18903  41.787  42.343   3.672
55147W        W18904  35.917  30.913   4.206
55148W        W18905   4.713  27.457  10.076
55149W        W18906  15.717  37.077   0.381
55150W        W18907  39.390  18.143  13.005
55151W        W18908  27.513  10.757  10.534
55152W        W18909  40.389  19.062  13.395
55153W        W18910  38.421  33.514  14.329
55154W        W18911  32.101  12.710   2.890
55155W        W18912  33.500  42.784   0.471
55156W        W18913   3.741  36.090   4.276
55157W        W18914  37.975   0.276   2.897
55158W        W18915   4.790   2.437   1.809
55159W        W18916  39.000  32.463  12.849
55160W        W18917   7.192  23.090  11.038
55161W        W18918  26.530  36.545   2.348
55162W        W18919   1.844   6.721  11.571
55163W        W18920   3.948  41.384  14.892
55164W        W18921  12.251  16.757  10.893
55165W        W18922  35.393  30.053   2.385
55166W        W18923  10.182  25.994  11.604
55167W        W18924  35.559  10.222  12.062
55168W        W18925   5.257   0.407   2.214
55169W        W18926  36.401  42.980  12.032
55170W        W18927  41.455  15.311  12.062
55171W        W18928  35.507  21.668  10.907
55172W        W18929  10.690  27.009  11.397
55173W        W18930  34.612  26.666   4.199
55174W        W18931   2.751   1.900   0.884
55175W        W18932  33.926  20.173   4.302
55176W        W18933  15.661  24.178  13.315
55177W        W18934  34.115  40.422  12.982
55178W        W18935  12.845  21.631  10.526
55179W        W18936   9.322  36.436   2.304
55180W        W18937  43.887  15.285   1.308
55181W        W18938  23.136   2.291  13.460
55182W        W18939  28.018  22.241  11.582
55183W        W18940  19.062  10.749   0.335
55184W        W18941  31.055  34.087   4.686
55185W        W18942  14.199  42.359  10.046
55186W        W18943  36.573  39.436   3.264
55187W        W18944  39.973  35.928  13.498
55188W        W18945  40.498  23.065   1.774
55189W        W18946  15.173   0.470  11.907
55190W        W18947  31.145   1.330   2.406
55191W        W18948  17.576  22.057   2.839
55192W        W18949  14.749  21.125  14.994
55193W        W18950  22.147  19.686  11.400
55194W        W18951  27.172  26.592   0.397
55195W        W18952  39.377  26.988   1.334
55196W        W18953  41.795  17.091   1.863
55197W        W18954  38.526  42.394  14.328
55198W        W18955  42.434  35.053  12.485
55199W        W18956  31.410   3.779  13.541
55200W        W18957  31.491  15.198  13.378
55201W        W18958  40.870  25.469  10.445
55202W        W18959  10.145  31.959   3.223
55203W        W18960  31.605  43.272  13.490
55204W        W18961  30.532  32.436  14.926
55205W        W18962   2.753  37.887   2.874
55206W        W18963  42.509  35.883  14.980
55207W        W18964  13.247  31.022  13.929
55208W        W18965  11.792  44.459  13.832
55209W        W18966  25.020  33.436   0.836
55210W        W18967  39.035  13.288   3.677
55211W        W18968  25.065   6.759  10.959
55212W        W18969  11.207  11.220   3.653
55213W        W18970  34.066  38.955  14.851
55214W        W18971  40.969   0.797  13.523
55215W        W18972  25.712   2.792  13.843
55216W        W18973  17.192  33.467   3.256
55217W        W18974   3.286  41.492  11.992
55218W        W18975  29.014  14.188   2.756
55219W        W18976   5.300  22.114   1.303
55220W        W18977  38.492  39.876  14.336
55221W        W18978   7.793  31.570  13.847
55222W        W18979  21.631  43.508   2.371
55223W        W18980  25.106  44.498  13.802
55224W        W18981  37.444  38.850   2.301
55225W        W18982  24.514  42.385  12.534
55226W        W18983  18.564  34.425  12.504
55227W        W18984  25.131  14.677   4.747
55228W        W18985  27.613  28.061  13.376
55229W        W18986   9.799   7.262  12.380
55230W        W18987  12.233   1.382   1.866
55231W        W18988  20.738  40.987   0.756
55232W        W18989  40.536  39.425   0.248
55233W        W18990   9.208  40.887  14.809
55234W        W18991  11.644  28.554   3.688
55235W        W18992  31.119  22.711  13.015
55236W        W18993   4.743   6.304  12.949
55237W        W18994   0.478  41.496  10.612
55238W        W18995  33.992  29.967  14.857
55239W        W18996   6.401  16.285  12.828
55240W        W18997   4.344   9.271  10.946
55241W        W18998   2.804  40.819  14.862
55242W        W18999  43.278  21.226  11.979
55243W        W19000  41.305   6.806   3.849
55244W        W19001  18.095   8.818   0.858
55245W        W19002   7.271   7.220   0.944
55246W        W19003  17.248  39.436  13.812
55247W        W19004  13.228   0.301  14.910
55248W        W19005   4.924   0.266  11.605
55249W        W19006  33.106  29.944   2.345
55250W        W19007  23.006  41.383  11.018
55251W        W19008   1.373  15.260   1.239
55252W        W19009   4.421  37.055   4.293
55253W        W19010  40.500  34.091  12.928
55254W        W19011  33.543   9.305  11.524
55255W        W19012  27.600  31.526   3.699
55256W        W19013  40.916  44.503  11.947
55257W        W19014  14.149  34.430  10.444
55258W        W19015  15.585  14.170   2.877
55259W        W19016   7.697  36.506   1.818
55260W        W19017  28.567  33.895  12.976
55261W        W19018  12.750  22.606   3.783
55262W        W19019  30.046  20.030   4.834
55263W        W19020  34.475  41.888  13.467
55264W        W19021  20.524  26.670  10.978
55265W        W19022  18.292  34.037  10.112
55266W        W19023  17.195  32.612  11.997
55267W        W19024  32.035   8.740  12.077
55268W        W19025   5.362  16.242  13.410
55269W        W19026  40.862  35.108  12.056
55270W        W19027  33.475  22.720  11.435
55271W        W19028  17.153  12.855  10.622
55272W        W19029  25.627  27.965   0.362
55273W        W19030  41.498   4.282   4.142
55274W        W19031   2.962  21.060  14.006
55275W        W19032   5.795  34.943  11.087
55276W        W19033   1.435  17.177  12.422
55277W        W19034   8.710  44.368   0.786
55278W        W19035  15.313  13.211  10.912
55279W        W19036  29.609  32.920  11.902
55280W        W19037  42.306  35.572  10.484
55281W        W19038  18.071  15.803   5.278
55282W        W19039  42.842  21.147  13.543
55283W        W19040   4.888   4.903  10.535
55284W        W19041  39.465   0.854  13.312
55285W        W19042  14.315  33.405   5.290
55286W        W19043  24.671  26.464   0.856
55287W        W19044  36.062   3.767  10.597
55288W        W19045  15.278  25.524  12.572
55289W        W19046  20.567  12.829   1.395
55290W        W19047  16.623  29.446   4.605
55291W        W19048  34.596  29.459   1.876
55292W        W19049  25.217   1.413  11.015
55293W        W19050  26.644   0.485  10.917
55294W        W19051  26.567  24.626  12.422
55295W        W19052   8.345  43.458  11.040
55296W        W19053  40.853  18.280   0.274
55297W        W19054   5.261   5.312  12.976
55298W        W19055   9.266   4.835  11.039
55299W        W19056  31.409  32.050   2.768
55300W        W19057  33.423   7.198  10.984
55301W        W19058  43.364  30.454   0.456
55302W        W19059  14.652   3.404  12.485
55303W        W19060   7.268  15.786   2.273
55304W        W19061  26.621  27.581  11.877
55305W        W19062  18.584   0.340  12.442
55306W        W19063   8.258  39.880   3.859
55307W        W19064  19.776  36.446   0.365
55308W        W19065  44.881  26.501  11.084
55309W        W19066  33.516  42.385   2.353
55310W        W19067  36.869  37.395  12.958
55311W        W19068   3.855  19.105  14.353
55312W        W19069   6.682  32.494   4.773
55313W        W19070  40.303  20.064   2.787
55314W        W19071  13.800   6.812  13.548
55315W        W19072  33.991  23.222   2.298
55316W        W19073  33.475   8.266  14.984
55317W        W19074  43.504  33.543  12.070
55318W        W19075  42.451  44.359   2.744
55319W        W19076   6.253  20.079   2.189
55320W        W19077  11.371  36.491   1.817
55321W        W19078   9.728  26.131  12.573
55322W        W19079  21.051  24.212  14.775
55323W        W19080  36.454  40.470   2.255
55324W        W19081  31.001  31.444   2.902
55325W        W19082  44.364   7.750   3.175
55326W        W19083  36.545  12.726   1.910
55327W        W19084  22.721  35.580   1.240
55328W        W19085  24.076  13.106  11.078
55329W        W19086  16.595   2.426   0.831
55330W        W19087  13.819  26.193   2.301
55331W        W19088  17.666  27.566  14.899
55332W        W19089   8.823  18.762   4.220
55333W        W19090  43.276  20.119  14.468
55334W        W19091  36.451  42.779  11.428
55335W        W19092  31.536  43.441  13.842
55336W        W19093  26.108  20.737   0.354
55337W        W19094  29.137  12.779  12.005
55338W        W19095  21.069  10.778  11.393
55339W        W19096  16.760  23.577  10.967
55340W        W19097  20.081  12.316   4.280
55341W        W19098   9.345  11.330  13.016
55342W        W19099  43.002  13.135   3.320
55343W        W19100  22.694   2.236  13.400
55344W        W19101   5.795   8.317  13.332
55345W        W19102  32.565  36.537   2.806
55346W        W19103  35.537  11.636   3.660
55347W        W19104  15.797  36.972   4.812
55348W        W19105  10.780   1.420   0.742
55349W        W19106   6.384  35.358   4.353
55350W        W19107  40.319  35.383   3.341
55351W        W19108  34.604  14.823   0.329
55352W        W19109   4.774  25.605  13.851
55353W        W19110   1.424   4.915   4.167
55354W        W19111  13.746  30.963   0.419
55355W        W19112   1.313  20.646  14.403
55356W        W19113  34.381  22.192  14.792
55357W        W19114  43.774  15.110  13.960
55358W        W19115   5.731  18.677  13.815
55359W        W19116  20.564  30.048   2.801
55360W        W19117  24.212   8.775   3.325
55361W        W19118  10.728  41.850  12.909
55362W        W19119  13.798  20.230   1.745
55363W        W19120   4.848  44.823  10.425
55364W        W19121  32.020   9.354   3.794
55365W        W19122  38.425  42.465  12.377
55366W        W19123  31.597  23.635   2.241
55367W        W19124  30.573  34.537   2.238
55368W        W19125   0.450  43.957  13.858
55369W        W19126  12.128   1.920   1.877
55370W        W19127  28.587  16.604  12.440
55371W        W19128  21.689  22.212   4.339
55372W        W19129  41.486  28.113  11.873
55373W        W19130  34.081  19.099  12.047
55374W        W19131   2.356  25.022  11.444
55375W        W19132  42.320   8.699  12.387
55376W        W19133  37.437  31.910   2.189
55377W        W19134  44.991  29.527  11.423
55378W        W19135   4.216  30.552  14.844
55379W        W19136  18.164  10.725  10.426
55380W        W19137  39.006  21.587  14.371
55381W        W19138  29.970  31.103   4.810
55382W        W19139  20.603  11.155  13.926
55383W        W19140  22.067  17.749  11.032
55384W        W19141  36.574   6.374   9.993
55385W        W19142  10.272   4.849   2.280
55386W        W19143  41.976   9.800  11.462
55387W        W19144  22.198  38.897   1.337
55388W        W19145  38.924  33.571  11.059
55389W        W19146   2.466  11.775   5.306
55390W        W19147  43.919   5.431   4.814
55391W        W19148   5.329  39.025  14.512
55392W        W19149  32.091   2.840  11.390
55393W        W19150  35.964  33.539  11.501
55394W        W19151  34.077  19.765   1.320
55395W        W19152  13.642   2.443   1.210
55396W        W19153  24.650   7.806   1.292
55397W        W19154  17.696  34.491  14.471
55398W        W19155  26.693  14.799  12.407
55399W        W19156  26.604   8.824  14.432
55400W        W19157   4.702  13.172   2.832
55401W        W19158   8.377   3.749  13.478
55402W        W19159  42.341  36.968  14.993
55403W        W19160  38.875  42.985   3.789
55404W        W19161  17.136   0.353   2.846
55405W        W19162  32.531  23.082  10.438
55406W        W19163  23.527  30.624  11.456
55407W        W19164   8.363  32.090   2.682
55408W        W19165  13.629  22.043   0.469
55409W        W19166  32.906  43.274   1.451
55410W        W19167  14.648  22.582   2.293
55411W        W19168  12.190   0.874   2.776
55412W        W19169   8.767  25.588  12.015
55413W        W19170  37.495  16.090   3.792
55414W        W19171  25.023  38.359  11.061
55415W        W19172   5.779  16.583   3.658
55416W        W19173  10.264   9.663   2.347
55417W        W19174  15.625   5.258   3.162
55418W        W19175  17.670  39.941   2.397
55419W        W19176  25.203  43.783   4.125
55420W        W19177  23.660  33.896   3.259
55421W        W19178  13.218  34.996   3.268
55422W        W19179  34.933  16.240  14.913
55423W        W19180  35.971  38.384   0.893
55424W        W19181  36.037  41.361  13.424
55425W        W19182  33.075  17.253  12.456
55426W        W19183   7.345  40.505  11.066
55427W        W19184   2.394   5.926   0.471
55428W        W19185  44.815  11.330   3.319
55429W        W19186   6.256  15.318  14.780
55430W        W19187  30.651  17.216   2.256
55431W        W19188  30.004  25.671   4.260
55432W        W19189   4.299   8.232   3.375
55433W        W19190  22.718  22.140  14.831
55434W        W19191  32.637   9.771   1.307
55435W        W19192  12.630  15.693  13.494
55436W        W19193   8.308  18.189   3.263
55437W        W19194  20.572  25.169   4.329
55438W        W19195  21.615  44.485   0.245
55439W        W19196   1.272  20.110   0.267
55440W        W19197   7.234  42.477  11.386
55441W        W19198  18.249  39.403  12.044
55442W        W19199   9.791  24.716  13.893
55443W        W19200   6.183  26.682  13.037
55444W        W19201  29.920  19.622  11.422
55445W        W19202  20.677   1.455  12.011
55446W        W19203  16.145  29.119   3.829
55447W        W19204   5.893   5.760  13.813
55448W        W19205  18.559  33.553  10.595
55449W        W19206  19.132  26.683  11.472
55450W        W19207  26.518  35.060   0.859
55451W        W19208  13.346  34.115   1.816
55452W        W19209  37.442   7.756   5.136
55453W        W19210  42.880  40.350   4.838
55454W        W19211   7.683  23.519   0.329
55455W        W19212  38.533  41.328   0.874
55456W        W19213   8.247  37.956   2.732
55457W        W19214  20.119  42.919  14.793
55458W        W19215  12.296  25.657   4.114
55459W        W19216   2.813  24.649   1.905
55460W        W19217  43.392   8.832  14.013
55461W        W19218  32.568  16.602   4.616
55462W        W19219  24.591  34.919   3.203
55463W        W19220  17.232  41.451   4.213
55464W        W19221  30.566  43.401   2.733
55465W        W19222  42.827  16.111   1.255
55466W        W19223  37.984  15.612  10.518
55467W        W19224  34.870   5.737   0.841
55468W        W19225   1.861   0.924   4.600
55469W        W19226   5.329  32.042   3.798
55470W        W19227  34.963   6.770  12.471
55471W        W19228   8.778  30.524   1.894
55472W        W19229  39.055  40.480  11.509
55473W        W19230  25.689  42.974   3.813
55474W        W19231   0.467  34.106   0.368
55475W        W19232  14.713  15.791  13.992
55476W        W19233  39.545  35.872  13.538
55477W        W19234  36.535  23.125  13.035
55478W        W19235  27.494  10.639  11.008
55479W        W19236  24.693   7.901  12.418
55480W        W19237  44.992  32.031  11.583
55481W        W19238   3.748  28.006   1.813
55482W        W19239   3.909   5.716  11.485
55483W        W19240   9.197  15.622  11.857
55484W        W19241   9.310  15.620  12.351
55485W        W19242  23.085  35.088   1.226
55486W        W19243  23.110  11.175  13.043
55487W        W19244   4.315  41.796  10.930
55488W        W19245  11.673  19.126   1.447
55489W        W19246  26.509  44.501   1.869
55490W        W19247  21.660  36.083  13.421
55491W        W19248   1.277  37.070   1.788
55492W        W19249  42.372  12.720   3.319
55493W        W19250  40.924   3.895   3.637
55494W        W19251  10.633  22.570  10.546
55495W        W19252  38.981  36.983   3.750
55496W        W19253  34.477   3.718  12.895
55497W        W19254  19.060  17.688  13.438
55498W        W19255  30.463  41.350  10.617
55499W        W19256  25.064  24.506   2.332
55500W        W19257  12.292  29.457  14.938
55501W        W19258  36.028  11.146   1.404
55502W        W19259  36.057  38.012   0.870
55503W        W19260  27.497   5.429  12.428
55504W        W19261  41.798  26.625  14.413
55505W        W19262  15.797  36.351  13.360
55506W        W19263  36.522   1.470   4.314
55507W        W19264  41.418  14.280  11.074
55508W        W19265  14.783  18.581  11.083
55509W        W19266  39.326  43.948  13.814
55510W        W19267  18.668  32.456   1.820
55511W        W19268  13.723  26.962   4.330
55512W        W19269   8.682  32.078  13.042
55513W        W19270  16.178  33.454   3.235
55514W        W19271  20.051  33.549   2.764
55515W        W19272   5.222  39.409  12.422
55516W        W19273  25.186  18.768  11.070
55517W        W19274  17.719  38.368  12.431
55518W        W19275  18.063   7.337   3.253
55519W        W19276   1.343   6.205   1.904
55520W        W19277  18.294  22.096  10.564
55521W        W19278  39.981  31.447   1.863
55522W        W19279  22.028  11.816  12.016
55523W        W19280  12.710  22.173   2.845
55524W        W19281   3.911  26.192  13.386
55525W        W19282   8.795  12.733  11.378
55526W        W19283  34.388   4.288   2.186
55527W        W19284  38.563   5.299   2.836
55528W        W19285   7.873  36.533  14.788
55529W        W19286   9.222  13.321  13.938
55530W        W19287  31.502   7.800   1.907
55531W        W19288  31.469   8.242  13.891
55532W        W19289  19.620  38.852   2.212
55533W        W19290  24.556  42.417   1.307
55534W        W19291   4.437  29.512   4.798
55535W        W19292  15.673  44.899  12.341
55536W        W19293  36.040  24.134   2.301
55537W        W19294   3.316  26.576   1.795
55538W        W19295  34.586  43.438  14.445
55539W        W19296  20.036  40.342   3.158
55540W        W19297  20.130  43.314  12.898
55541W        W19298   1.460   2.821   2.348
55542W        W19299   5.750  37.520  10.427
55543W        W19300  35.909  24.531   0.949
55544W        W19301  43.310   7.356   4.656
55545W        W19302   7.724  18.760   4.795
55546W        W19303  37.348  41.027  14.767
55547W        W19304  13.299  34.383  14.409
55548W        W19305  23.666   1.800   2.701
55549W        W19306   4.221   2.252   2.833
55550W        W19307  42.825  11.677   0.327
55551W        W19308   3.804  16.661  14.304
55552W        W19309  42.440  23.048   0.344
55553W        W19310  10.776  17.134  12.476
55554W        W19311  32.570  29.065   5.180
55555W        W19312  11.147  22.035   1.914
55556W        W19313  43.436  31.477  13.905
55557W        W19314  14.177  41.395  13.308
55558W        W19315  42.979   1.771  11.044
55559W        W19316  29.485   3.793  12.901
55560W        W19317  10.782  36.504   4.190
55561W        W19318  33.039  29.481   1.763
55562W        W19319   6.801   5.818   2.266
55563W        W19320  38.435  37.870   3.764
55564W        W19321  44.834  13.142  11.936
55565W        W19322  41.304  36.369  11.462
55566W        W19323  29.081  41.834   1.926
55567W        W19324   4.253   9.781   2.332
55568W        W19325  22.523  10.728  10.474
55569W        W19326  18.754   5.344   4.350
55570W        W19327  32.896  10.696  13.453
55571W        W19328  35.969   0.356  14.942
55572W        W19329  10.742  12.628  13.344
55573W        W19330  21.672  26.077  12.393
55574W        W19331  43.477  12.666  10.977
55575W        W19332  14.685  15.178  11.085
55576W        W19333  26.141   6.377  10.624
55577W        W19334   1.300  36.047  11.473
55578W        W19335  13.211  41.928   4.158
55579W        W19336  42.409  30.444   1.855
55580W        W19337  37.986  33.495  14.355
55581W        W19338  25.129  19.661   0.470
55582W        W19339  43.422  11.728  13.348
55583W        W19340  36.554  24.082   1.238
55584W        W19341  29.025   0.436  13.945
55585W        W19342  18.674   0.949  10.063
55586W        W19343   4.838  32.902   1.232
55587W        W19344   2.727  27.069  12.482
55588W        W19345   6.774   8.209   0.460
55589W        W19346   5.820  30.493  12.075
55590W        W19347   0.456  40.970  11.106
55591W        W19348  19.560  24.609   3.702
55592W        W19349  14.304   7.761   2.373
55593W        W19350   6.734  15.769  13.014
55594W        W19351  39.469  39.317  12.353
55595W        W19352   6.421   9.690  12.463
55596W        W19353  29.952  11.714   4.172
55597W        W19354  19.634  22.159  14.353
55598W        W19355   2.807  14.099  12.012
55599W        W19356   2.385  16.788  14.012
55600W        W19357   9.369  20.577  12.008
55601W        W19358  44.859  36.871  13.876
55602W        W19359   5.381  16.159  14.391
55603W        W19360   4.241  18.767   4.175
55604W        W19361  32.922  32.622   3.258
55605W        W19362  18.078  42.952  11.609
55606W        W19363  40.524  44.767   1.723
55607W        W19364  29.520  39.921   0.449
55608W        W19365  12.136   4.843   2.665
55609W        W19366  26.682  16.192   2.758
55610W        W19367  29.978  39.826   2.883
55611W        W19368  10.296  19.279   9.987
55612W        W19369  31.569  20.645  14.373
55613W        W19370  10.305  24.670   1.733
55614W        W19371  16.662  34.091  11.573
55615W        W19372   3.249  25.653  10.505
55616W        W19373  30.573  24.547   0.735
55617W        W19374  30.072   7.222  11.580
55618W        W19375  32.514  31.504  14.996
55619W        W19376  16.137  17.682  12.549
55620W        W19377  20.527  40.437  13.331
55621W        W19378  42.781  40.854  10.548
55622W        W19379  40.316  30.611  12.386
55623W        W19380  30.561  23.027   2.250
55624W        W19381  32.024  35.480   1.285
55625W        W19382  24.650  39.445  12.925
55626W        W19383  17.668   5.878  12.500
55627W        W19384  24.208  36.517   2.252
55628W        W19385  34.484  29.577   1.300
55629W        W19386   7.314   5.415  14.513
55630W        W19387  20.759  24.632   3.650
55631W        W19388  25.195   7.402   1.423
55632W        W19389  35.378  41.470  13.440
55633W        W19390   0.432  41.494  11.941
55634W        W19391   1.367   3.405  14.389
55635W        W19392  14.766  19.080  10.913
55636W        W19393  35.558  14.223   3.650
55637W        W19394  29.082  12.116  14.429
55638W        W19395  10.878  39.900   0.348
55639W        W19396  43.380  30.472  14.414
55640W        W19397  43.930  36.359  13.397
55641W        W19398  14.745  38.053   1.751
55642W        W19399   6.261  33.413   0.451
55643W        W19400  25.206  18.052   2.836
55644W        W19401  25.970  16.694   5.148
55645W        W19402  27.576  30.463   0.756
55646W        W19403   8.741   2.882   0.260
55647W        W19404  22.021  15.788   4.661
55648W        W19405  19.602  31.922  13.878
55649W        W19406   3.772  17.198   1.366
55650W        W19407  28.933  14.332   3.180
55651W        W19408  37.415  40.477   2.779
55652W        W19409   4.808  16.142   1.252
55653W        W19410  43.410  11.666   0.277
55654W        W19411  11.278  38.448   4.712
55655W        W19412  19.688  30.115  13.881
55656W        W19413   9.210  14.182  10.952
55657W        W19414  13.733  14.147  10.997
55658W        W19415   1.448  24.139   3.655
55659W        W19416  17.716  37.507  11.507
55660W        W19417  34.606  32.599  13.797
55661W        W19418  43.403   0.855   3.745
55662W        W19419  11.180  22.151  14.992
55663W        W19420  28.621  29.656   0.435
55664W        W19421  32.565  43.481   1.281
55665W        W19422  26.152   9.154   3.369
55666W        W19423  12.641  10.665   2.346
55667W        W19424  29.972   1.850   0.453
55668W        W19425  15.667  21.144  12.840
55669W        W19426   4.856  40.821   4.608
55670W        W19427  28.956  24.611   2.754
55671W        W19428  10.256  28.592  14.890
55672W        W19429  18.682  30.162  14.468
55673W        W19430   1.468  24.000  12.413
55674W        W19431  29.963   8.348  13.985
55675W        W19432  31.960  25.539  13.382
55676W        W19433  40.051  33.436  12.881
55677W        W19434   9.694  32.011  14.304
55678W        W19435  42.429  12.757   0.861
55679W        W19436   7.302  36.013  12.578
55680W        W19437  29.509  37.530   1.712
55681W        W19438  35.435  33.058   3.211
55682W        W19439  22.723  26.606  11.537
55683W        W19440  14.198   7.229   2.364
55684W        W19441  40.967  26.131  11.613
55685W        W19442  36.044  14.277   0.794
55686W        W19443  14.829  19.729  10.473
55687W        W19444  41.025  38.013  10.473
55688W        W19445  38.375  28.451  12.006
55689W        W19446   8.273  38.936  13.974
55690W        W19447  31.999  26.660   4.296
55691W        W19448   9.284  14.282   1.860
55692W        W19449  44.931   2.252   1.271
55693W        W19450  32.114  10.243   4.249
55694W        W19451   4.846  10.283   3.713
55695W        W19452  17.732  30.104   3.674
55696W        W19453  35.452  13.303   1.772
55697W        W19454  43.778  41.322  12.913
55698W        W19455  12.769  33.383   3.268
55699W        W19456  20.059  24.640   2.397
55700W        W19457  44.843  21.741   4.278
55701W        W19458   7.332   5.262  10.544
55702W        W19459   7.803  14.733   0.805
55703W        W19460   6.282   9.766  11.050
55704W        W19461  37.844  14.711  14.478
55705W        W19462  43.964  12.780  10.930
55706W        W19463  13.828  28.627   0.739
55707W        W19464  14.318  13.107  14.939
55708W        W19465  24.097  12.805   0.744
55709W        W19466  36.984   4.729  12.414
55710W        W19467  42.980  14.326   2.409
55711W        W19468   3.427   3.914   1.298
55712W        W19469   1.298   0.442  14.769
55713W        W19470  10.794  14.759  10.485
55714W        W19471  23.226  15.604  13.896
55715W        W19472   8.289  42.784  12.456
55716W        W19473   0.385  13.646  14.768
55717W        W19474   1.939  28.451   4.324
55718W        W19475  30.984  42.001   2.259
55719W        W19476  32.529  40.330   2.663
55720W        W19477  15.612  25.520   1.712
55721W        W19478  16.192  36.541  12.499
55722W        W19479  37.453   1.450   9.949
55723W        W19480  25.080   4.779   1.743
55724W        W19481  16.751  19.569  13.517
55725W        W19482  29.657   1.943   9.554
55726W        W19483  35.575   2.409  13.366
55727W        W19484  28.077  44.830   4.625
55728W        W19485  33.943  41.983   0.853
55729W        W19486  17.663  34.899  12.433
55730W        W19487  41.832  22.242  12.424
55731W        W19488  31.509  30.558   1.365
55732W        W19489  16.796  43.446  10.971
55733W        W19490  29.524  41.320   4.837
55734W        W19491  30.433  39.845   1.749
55735W        W19492  12.854  18.282   2.896
55736W        W19493   4.718  31.538  12.067
55737W        W19494  12.654  23.103  11.412
55738W        W19495  31.562  36.443   2.784
55739W        W19496  12.639  31.095   4.600
55740W        W19497   1.964  10.382  11.036
55741W        W19498  40.975   5.255  11.024
55742W        W19499  19.144  42.811  14.845
55743W        W19500  22.024  31.580  11.884
55744W        W19501  42.464  19.164  11.855
55745W        W19502  22.607  24.080  13.014
55746W        W19503  42.991  12.259   2.387
55747W        W19504  10.788   4.267   2.868
55748W        W19505  20.761   4.917   2.346
55749W        W19506  11.291   9.174  13.016
55750W        W19507  36.535  40.387   0.910
55751W        W19508  25.484  21.262   2.256
55752W        W19509  31.099  18.570   4.598
55753W        W19510  15.083  44.289   3.238
55754W        W19511   2.738  28.023   3.789
55755W        W19512   5.700  33.902  12.424
55756W        W19513   8.788  37.080   0.442
55757W        W19514  15.580  40.400   0.906
55758W        W19515  41.511  25.604  11.911
55759W        W19516  30.052  20.105  10.634
55760W        W19517   6.760   2.335   4.688
55761W        W19518  42.937  26.079  13.392
55762W        W19519   5.786  30.489  11.420
55763W        W19520  39.956  41.367  11.073
55764W        W19521   2.423   3.221   4.617
55765W        W19522   4.831  33.937   3.841
55766W        W19523  32.486  14.147  14.834
55767W        W19524  41.814  27.017  13.979
55768W        W19525  31.639  34.499   4.661
55769W        W19526  20.078   8.864   3.195
55770W        W19527  42.920   8.696   0.329
55771W        W19528  42.349  17.625  13.960
55772W        W19529   1.890  37.542   0.322
55773W        W19530  15.615   7.859  14.798
55774W        W19531  31.072  39.399  14.767
55775W        W19532  43.016  22.694  14.369
55776W        W19533  12.706  35.921  12.940
55777W        W19534  14.718  11.833  11.971
55778W        W19535  14.252  32.398  12.899
55779W        W19536   6.790  39.540   4.680
55780W        W19537  18.084  16.145  14.419
55781W        W19538  12.180  10.194  10.520
55782W        W19539   4.701  23.665   2.262
55783W        W19540  25.213   6.791  13.403
55784W        W19541  27.129  14.237   2.682
55785W        W19542   7.330   6.761   0.791
55786W        W19543  21.201  43.387  10.406
55787W        W19544  44.953  19.555   1.759
55788W        W19545   1.821   7.831   0.331
55789W        W19546  16.130  30.511   3.743
55790W        W19547  34.873   2.906  14.031
55791W        W19548  18.691  20.244   3.762
55792W        W19549  27.616   5.930   4.620
55793W        W19550  22.673  37.488   2.900
55794W        W19551  39.977  23.539  12.058
55795W        W19552   8.751   4.943   1.279
55796W        W19553  41.011  34.070  11.538
55797W        W19554  41.476  29.052  10.433
55798W        W19555  20.729   4.362   0.909
55799W        W19556   4.331  31.439   3.737
55800W        W19557  10.257  18.769  14.820
55801W        W19558  11.831  34.455  13.037
55802W        W19559  11.301  28.101  12.022
55803W        W19560  25.116   2.888  13.838
55804W        W19561  25.648  15.194  12.544
55805W        W19562  17.682  17.760  12.968
55806W        W19563   0.374   9.844   2.808
55807W        W19564  38.998  34.958   2.224
55808W        W19565  11.695  38.959  14.944
55809W        W19566  15.143   1.761  10.064
55810W        W19567  33.984   0.966   3.666
55811W        W19568  20.171   0.332   0.442
55812W        W19569  28.176  44.820   0.733
55813W        W19570  39.041  30.493  10.073
55814W        W19571  39.948  26.159   1.313
55815W        W19572  22.714  10.814  11.435
55816W        W19573  32.596  41.346   4.682
55817W        W19574  12.638  35.989   0.843
55818W        W19575   7.390   1.472   4.242
55819W        W19576  17.296   3.802  12.914
55820W        W19577  35.099   8.305  11.971
55821W        W19578  38.369  39.043   2.328
55822W        W19579  39.478  35.109   3.219
55823W        W19580  23.006  23.087  12.470
55824W        W19581  42.421  34.089  14.485
55825W        W19582  35.433  35.447  13.461
55826W        W19583  37.903  25.556  12.022
55827W        W19584  29.939  19.220  11.567
55828W        W19585   4.924  10.222   4.228
55829W        W19586  44.346   9.818  10.998
55830W        W19587  13.680  37.946  13.446
55831W        W19588   7.326  24.510  10.437
55832W        W19589  20.759   9.307  13.339
55833W        W19590   4.698   7.790  14.993
55834W        W19591  33.394  10.847   4.649
55835W        W19592  18.732   6.401   0.856
55836W        W19593  39.345   3.757   3.633
55837W        W19594  30.638  18.258   3.691
55838W        W19595  32.106  39.549   4.762
55839W        W19596  10.743  31.445   1.334
55840W        W19597  13.191  34.519   4.228
55841W        W19598   8.764   2.361   2.744
55842W        W19599  16.134  30.927   2.875
55843W        W19600  37.042  38.835   1.913
55844W        W19601   5.285  24.055   4.768
55845W        W19602  33.491  17.635   3.295
55846W        W19603  17.300  10.259   2.673
55847W        W19604  22.084  43.408   2.378
55848W        W19605   9.781  42.515  13.806
55849W        W19606  19.285   4.248  14.811
55850W        W19607  14.728   6.306   3.691
55851W        W19608  44.501  25.040  12.495
55852W        W19609   9.283  42.901  11.591
55853W        W19610  28.049  30.009  11.889
55854W        W19611   7.183  40.935   1.239
55855W        W19612   2.920   7.856   4.689
55856W        W19613  35.358  20.726   1.291
55857W        W19614  38.530   1.293   1.821
55858W        W19615  17.139  27.143  14.492
55859W        W19616   6.880   6.748   1.890
55860W        W19617  26.978  25.000   2.349
55861W        W19618  10.872  31.946  13.516
55862W        W19619  13.166   5.923   1.444
55863W        W19620   6.912  12.665   3.838
55864W        W19621   3.868   6.335   4.321
55865W        W19622  19.110   2.272   2.672
55866W        W19623   5.315  43.367  14.393
55867W        W19624  18.589  39.063  13.863
55868W        W19625  18.094  42.841  14.799
55869W        W19626   4.718  36.352  10.406
55870W        W19627  25.547  44.272  13.034
55871W        W19628   4.757   1.760   4.169
55872W        W19629  44.334  33.131  10.404
55873W        W19630  43.314  24.667   3.198
55874W        W19631   1.256  13.658   2.304
55875W        W19632  42.503   6.315   1.334
55876W        W19633   5.235  30.089  10.573
55877W        W19634  13.123  44.972   0.791
55878W        W19635   7.711  13.295  13.482
55879W        W19636  43.013  13.239   2.241
55880W        W19637  22.100   2.937  11.992
55881W        W19638  18.199  24.034  14.765
55882W        W19639  38.476  25.070   2.872
55883W        W19640  27.952  28.613   2.226
55884W        W19641  40.538   3.925   1.440
55885W        W19642  20.207  19.698   5.148
55886W        W19643  38.032  30.163   1.844
55887W        W19644  12.717   3.776   4.721
55888W        W19645  15.182  16.666  11.007
55889W        W19646  37.444   8.330  12.578
55890W        W19647  15.177  14.160  11.073
55891W        W19648  10.839  40.378  11.460
55892W        W19649  40.518  35.440  12.525
55893W        W19650   2.278  35.911   1.714
55894W        W19651  30.429  12.117  12.829
55895W        W19652   6.289  42.933   4.190
55896W        W19653  24.623  35.958  13.955
55897W        W19654   2.410  14.590   0.922
55898W        W19655   4.819  40.441  12.081
55899W        W19656  31.917  42.961   3.166
55900W        W19657   9.345  16.593  12.829
55901W        W19658  11.750  31.417   0.853
55902W        W19659  21.249  10.702  13.887
55903W        W19660  10.666  26.568   3.736
55904W        W19661  31.639  31.410  11.438
55905W        W19662  39.367   0.792  10.498
55906W        W19663  39.439  28.166   3.190
55907W        W19664  19.777  39.985   0.832
55908W        W19665  10.671  34.512  14.393
55909W        W19666   6.799  31.934   3.753
55910W        W19667   4.384  18.285  14.315
55911W        W19668  11.318   5.853  14.888
55912W        W19669  19.537   9.727   0.312
55913W        W19670  26.139   4.413  13.029
55914W        W19671  29.040  24.195   2.767
55915W        W19672   4.889   4.350   3.228
55916W        W19673  44.002  14.150   2.705
55917W        W19674  13.116   9.219  12.937
55918W        W19675  25.171  39.840  14.443
55919W        W19676  32.059  38.886  13.952
55920W        W19677   8.890  15.815   1.922
55921W        W19678  20.539  36.093  13.466
55922W        W19679  23.604   0.769  14.456
55923W        W19680  19.681  20.731  12.532
55924W        W19681  26.149  25.565  11.046
55925W        W19682  11.850  31.620  12.348
55926W        W19683  42.389  35.437  13.832
55927W        W19684  12.289  36.986  12.351
55928W        W19685  28.501  42.982   4.255
55929W        W19686  34.416  26.189  14.396
55930W        W19687   8.271  28.626   0.312
55931W        W19688  27.015  30.047   2.274
55932W        W19689  10.317  36.577   2.892
55933W        W19690  29.017  39.918  10.463
55934W        W19691   6.748  26.125   4.726
55935W        W19692   8.205   9.736  12.358
55936W        W19693  23.525  13.171  12.546
55937W        W19694  29.050  36.980  10.634
55938W        W19695  34.579  24.529  11.954
55939W        W19696  13.179  31.466   2.376
55940W        W19697   8.210   0.881  12.561
55941W        W19698  31.616   2.931   5.222
55942W        W19699  22.168   0.473  14.480
55943W        W19700  34.867  17.169   1.737
55944W        W19701  26.056   0.332  13.819
55945W        W19702  37.042  28.091  11.073
55946W        W19703   9.327  22.561   2.213
55947W        W19704  14.615  44.005  13.332
55948W        W19705   2.297  10.773   2.878
55949W        W19706   1.371   4.931  13.437
55950W        W19707  34.590   2.352  12.423
55951W        W19708  32.470  40.851   2.221
55952W        W19709   3.798  21.574  14.378
55953W        W19710  36.488  35.580   4.347
55954W        W19711  16.318  41.837   2.228
55955W        W19712  33.068   2.471  12.001
55956W        W19713  28.008   0.752   0.420
55957W        W19714  38.001  32.982   0.860
55958W        W19715  22.099  15.316   2.285
55959W        W19716  15.685  23.022   4.235
55960W        W19717  24.036  22.640   0.341
55961W        W19718   8.884  41.999   2.255
55962W        W19719  39.818   4.222  12.489
55963W        W19720   4.405  18.766   0.386
55964W        W19721   0.358  20.720  11.889
55965W        W19722  10.847  42.980   4.782
55966W        W19723  16.607   4.389  12.460
55967W        W19724   3.819  36.405   2.829
55968W        W19725   3.268  22.113   3.790
55969W        W19726  35.509  23.650   0.932
55970W        W19727   8.325  34.371   2.736
55971W        W19728  35.861  44.304   0.453
55972W        W19729  39.546  32.980  11.568
55973W        W19730  29.963  16.802  11.406
55974W        W19731   7.888  21.756  12.564
55975W        W19732  28.937  32.141  12.415
55976W        W19733  11.291  13.739  12.883
55977W        W19734  18.117  17.131  12.511
55978W        W19735   4.906  40.913   5.213
55979W        W19736  44.450  23.239   0.757
55980W        W19737  40.873  12.233  11.509
55981W        W19738   4.354   8.266  10.605
55982W        W19739  19.177   3.726  14.864
55983W        W19740  35.359  10.795  11.045
55984W        W19741   3.259  21.630  11.553
55985W        W19742  24.665   9.171   4.230
55986W        W19743  44.998  16.732   0.404
55987W        W19744  14.706   5.774  12.010
55988W        W19745  43.281   0.882  13.803
55989W        W19746  34.990  17.249   2.674
55990W        W19747  28.486   6.748  14.453
55991W        W19748   7.347   1.788  14.891
55992W        W19749  44.786  40.382  11.409
55993W        W19750   6.210  43.818  10.595
55994W        W19751  14.274  43.926   0.913
55995W        W19752  37.475   5.887   1.884
55996W        W19753  22.126  42.310  14.887
55997W        W19754  24.524   1.809   0.384
55998W        W19755  24.031  24.014   4.713
55999W        W19756  13.278  42.804  11.971
56000W        W19757  33.421  13.663  13.398
56001W        W19758  23.695  37.413   0.857
56002W        W19759  30.622  34.865  13.518
56003W        W19760  10.807  35.420   0.732
56004W        W19761   7.352  39.470   4.330
56005W        W19762  39.560  19.659   1.933
56006W        W19763  35.072   3.431  12.074
56007W        W19764  23.635  23.995   2.300
56008W        W19765  11.209  25.482   0.405
56009W        W19766  41.852  31.470   0.291
56010W        W19767  41.790  24.483   1.293
56011W        W19768   7.365  43.997   1.242
56012W        W19769  28.957  28.494   3.708
56013W        W19770  11.840   7.901   2.292
56014W        W19771  11.251  24.067   1.862
56015W        W19772  25.156  29.580   2.754
56016W        W19773   2.459  20.621  13.516
56017W        W19774  39.058  16.715   1.256
56018W        W19775  24.723  36.988   2.899
56019W        W19776  43.447  33.921  12.459
56020W        W19777   7.671  32.575   0.907
56021W        W19778  26.558  35.908   4.180
56022W        W19779   9.742  33.922  10.919
56023W        W19780  43.011  29.441  12.554
56024W        W19781   8.875  41.866  13.858
56025W        W19782  40.435  28.149   1.861
56026W        W19783   6.757  10.159   0.352
56027W        W19784  40.422  22.198   2.853
56028W        W19785   8.183  15.722  10.578
56029W        W19786  16.648  23.151  14.343
56030W        W19787  24.209  23.519   0.843
56031W        W19788   0.407  10.832   3.744
56032W        W19789  40.001  18.162  14.955
56033W        W19790   0.912  20.213   1.325
56034W        W19791  39.436  40.519   2.339
56035W        W19792  27.125  10.758  10.573
56036W        W19793  10.345  10.857   3.190
56037W        W19794  42.874  44.949  12.015
56038W        W19795  22.567  27.168  12.497
56039W        W19796  33.881   0.909  11.024
56040W        W19797   3.839  44.842  12.864
56041W        W19798  35.439  24.634   3.822
56042W        W19799  22.547  30.001  14.978
56043W        W19800  16.603  35.010   4.789
56044W        W19801   5.362  23.118  11.961
56045W        W19802   1.976  44.939   4.790
56046W        W19803  29.056  11.685   0.279
56047W        W19804  40.823  17.726   0.728
56048W        W19805  37.511  32.924   1.335
56049W        W19806  23.579  28.103  13.505
56050W        W19807  28.974   1.376   4.324
56051W        W19808  19.114   0.433  10.887
56052W        W19809   5.333  34.015  13.804
56053W        W19810  23.568  42.909  13.311
56054W        W19811  33.603  31.592  12.375
56055W        W19812  33.551  27.624   3.161
56056W        W19813  34.090  12.815  11.409
56057W        W19814  44.865  14.642  10.959
56058W        W19815  29.027  21.229  10.628
56059W        W19816  41.857  34.050   3.373
56060W        W19817  36.967  23.188   4.335
56061W        W19818   1.771   6.367  14.975
56062W        W19819  12.137   8.234   2.368
56063W        W19820   4.794  16.584   2.667
56064W        W19821   6.907   3.375   0.736
56065W        W19822   5.861  31.928  12.946
56066W        W19823  30.614  10.670  14.788
56067W        W19824  38.982  31.966  10.938
56068W        W19825  28.647   5.921   3.330
56069W        W19826   2.843  19.040   4.147
56070W        W19827  43.350  38.845  12.868
56071W        W19828  22.600  11.186   4.769
56072W        W19829  14.723  11.282  14.914
56073W        W19830   4.743  37.860   1.227
56074W        W19831  44.284  15.625  11.538
56075W        W19832  41.976   3.263   5.122
56076W        W19833  13.169  16.242  12.974
56077W        W19834  29.670   1.272   4.275
56078W        W19835  44.762   6.817  11.873
56079W        W19836   3.833   9.655   4.826
56080W        W19837  19.674  42.508  14.010
56081W        W19838  11.249  36.967  14.439
56082W        W19839   5.389  15.328   1.868
56083W        W19840   0.853   7.307   2.880
56084W        W19841   4.944  25.164  11.408
56085W        W19842  37.083  39.473   2.178
56086W        W19843  10.716  33.907  11.387
56087W        W19844  26.649  13.163  14.479
56088W        W19845  24.187  30.521  10.044
56089W        W19846  15.301  42.916  11.528
56090W        W19847  21.582  31.427   1.230
56091W        W19848  18.187  37.453   1.325
56092W        W19849  24.609  20.095  11.874
56093W        W19850  23.541  42.783   3.677
56094W        W19851  30.479  22.119  10.428
56095W        W19852  34.483  18.616  13.815
56096W        W19853  31.432  29.653  13.975
56097W        W19854  43.944  38.058  11.570
56098W        W19855  27.188  33.566   4.234
56099W        W19856  10.322  35.376   0.875
56100W        W19857  35.935   3.728   5.312
56101W        W19858   0.890  40.420   0.386
56102W        W19859  30.136   6.859  11.959
56103W        W19860   3.803  15.699   3.363
56104W        W19861   6.843  12.321   1.732
56105W        W19862   5.811  43.449  12.372
56106W        W19863   2.789  43.893   2.201
56107W        W19864  15.203  35.887   4.159
56108W        W19865  15.091  14.639   4.201
56109W        W19866  33.078  17.623  13.009
56110W        W19867  26.640  41.422   9.977
56111W        W19868  35.951  20.206  11.581
56112W        W19869  30.952  28.102  11.038
56113W        W19870   6.856  15.212  10.978
56114W        W19871   4.780   1.877  12.467
56115W        W19872  31.041  21.665  12.836
56116W        W19873  32.035  31.914  12.968
56117W        W19874  25.557  13.330  14.008
56118W        W19875  26.654  34.891   0.399
56119W        W19876   0.759   6.874  12.580
56120W        W19877  39.363  44.819  14.924
56121W        W19878   2.848  12.287   1.865
56122W        W19879   2.802  19.693   3.745
56123W        W19880  21.516  32.000   1.414
56124W        W19881  31.591   5.924   4.214
56125W        W19882   3.262  30.531   3.735
56126W        W19883  26.637   9.219   0.337
56127W        W19884  17.214  13.270   3.154
56128W        W19885  18.684  13.147   0.450
56129W        W19886  39.051   4.751  11.437
56130W        W19887   6.291  43.017   1.893
56131W        W19888   1.292  23.685   2.303
56132W        W19889  26.473   0.979   3.191
56133W        W19890  34.374  10.179  12.563
56134W        W19891   2.876  35.009   1.236
56135W        W19892  15.618   8.785   1.214
56136W        W19893  22.680  27.518   4.731
56137W        W19894  14.761   7.720  10.963
56138W        W19895   9.352  12.269  11.049
56139W        W19896  14.671  23.567   2.236
56140W        W19897   5.386  26.986   2.200
56141W        W19898  25.211  11.721   0.865
56142W        W19899  12.311  35.409  11.551
56143W        W19900  21.604   6.902   3.740
56144W        W19901  11.215  18.601  14.869
56145W        W19902  21.522  25.596  12.574
56146W        W19903  44.924   4.795  10.977
56147W        W19904  15.594  44.008   1.443
56148W        W19905  29.068   5.324   2.385
56149W        W19906   8.206   6.694   1.452
56150W        W19907  44.402  38.469   1.743
56151W        W19908  39.948  32.464  12.459
56152W        W19909  38.936  16.252   2.225
56153W        W19910   0.951  12.805   3.698
56154W        W19911   4.246  10.867   0.414
56155W        W19912  16.597   8.884  10.434
56156W        W19913  36.843  30.649  13.054
56157W        W19914  10.139  28.505  10.466
56158W        W19915  43.823  20.141  14.913
56159W        W19916  20.667  10.710   1.750
56160W        W19917  12.712  41.801   4.209
56161W        W19918  32.636  29.150  10.629
56162W        W19919  35.866  31.561   3.772
56163W        W19920  31.455  38.050  10.591
56164W        W19921  22.508  21.744   2.842
56165W        W19922  37.947  19.051  12.894
56166W        W19923  19.695  35.579   2.699
56167W        W19924  12.802   1.446   3.181
56168W        W19925   5.732  37.874   1.240
56169W        W19926  25.583  16.753   2.877
56170W        W19927  11.865   2.739   9.961
56171W        W19928  14.774  26.996  12.865
56172W        W19929  24.006  40.452   4.671
56173W        W19930  40.379  24.006  13.315
56174W        W19931  37.924  10.208  10.984
56175W        W19932   2.248  42.318  11.461
56176W        W19933   3.800  23.226   0.299
56177W        W19934  41.829  13.129  10.490
56178W        W19935  13.152  11.166   3.642
56179W        W19936  19.087  29.941  12.023
56180W        W19937   0.805   4.944   9.961
56181W        W19938  29.940  32.904   1.732
56182W        W19939  44.502  18.552  12.350
56183W        W19940   3.338  40.370  11.063
56184W        W19941  21.063  36.454  13.973
56185W        W19942   7.910  36.018  14.784
56186W        W19943  21.680  24.633  11.385
56187W        W19944   6.731  27.520   1.428
56188W        W19945  10.800  16.624   4.804
56189W        W19946  25.127  34.891   2.412
56190W        W19947   2.772  30.510   2.672
56191W        W19948  27.000  20.250   2.742
56192W        W19949  15.220  32.112  14.993
56193W        W19950  11.860  42.801  10.946
56194W        W19951   3.333  17.578  11.545
56195W        W19952  13.778  26.618  12.563
56196W        W19953  13.607  10.657   1.353
56197W        W19954  33.514  35.405  14.320
56198W        W19955  32.118  12.262   4.328
56199W        W19956  14.700   4.238   4.166
56200W        W19957  42.852   6.399  14.483
56201W        W19958  43.796  16.789   3.860
56202W        W19959  40.853   5.809  11.379
56203W        W19960  34.022  26.471  13.449
56204W        W19961  24.565   8.738   1.227
56205W        W19962  32.581  10.856   2.714
56206W        W19963  29.126  27.167   4.234
56207W        W19964  23.007   9.868   1.401
56208W        W19965   4.419  11.831   0.472
56209W        W19966  16.708  42.499  12.371
56210W        W19967  34.461  11.260  11.597
56211W        W19968  42.481  35.068   4.169
56212W        W19969  39.880   1.960  11.066
56213W        W19970  28.563  26.009   2.874
56214W        W19971  21.148  20.749   0.428
56215W        W19972   5.392  42.397   5.778
56216W        W19973  19.641  33.459   4.663
56217W        W19974  37.526  33.091  12.991
56218W        W19975  20.731  21.076   3.231
56219W        W19976  24.031  36.042   2.215
56220W        W19977   2.797   7.204  12.014
56221W        W19978   7.267   5.785  14.508
56222W        W19979  16.253   6.853   4.695
56223W        W19980  15.671  19.558  11.470
56224W        W19981  42.446  14.117  12.971
56225W        W19982  16.729  14.770  13.041
56226W        W19983  43.857  39.403  14.844
56227W        W19984  28.064   4.941   3.718
56228W        W19985  16.783  44.480   4.237
56229W        W19986  41.393  24.083   3.778
56230W        W19987  35.993  42.412  14.769
56231W        W19988  26.951  16.597  12.916
56232W        W19989  42.388  16.717  11.031
56233W        W19990  22.228  12.340   3.298
56234W        W19991   0.836  10.840   3.752
56235W        W19992  40.499  34.969  12.509
56236W        W19993  32.128   1.249   0.826
56237W        W19994  21.137  16.573   3.864
56238W        W19995  12.683  28.520  12.072
56239W        W19996  35.011  41.425   4.154
56240W        W19997  32.085  18.082   1.319
56241W        W19998  22.040  40.375  12.487
56242W        W19999  13.270  40.916   1.810
56243W        W20000   2.423  39.372  13.339
56244W        W20001   5.229  19.107   3.347
56245W        W20002  33.430  19.231  10.955
56246W        W20003  38.377   8.762  13.880
56247W        W20004  13.225   3.312   2.793
56248W        W20005  11.776  36.081  10.610
56249W        W20006  38.357  12.346   3.278
56250W        W20007  36.392  20.243  12.078
56251W        W20008  10.778  34.388  11.398
56252W        W20009   1.898  44.467   2.675
56253W        W20010  42.833  20.600   1.824
56254W        W20011  10.786  13.233   4.609
56255W        W20012  38.560  30.968   0.830
56256W        W20013  34.967  12.321   4.631
56257W        W20014  35.404   5.215  13.909
56258W        W20015  32.562  23.138   2.871
56259W        W20016  28.044   5.357  13.002
56260W        W20017  35.489  13.638  13.399
56261W        W20018  12.336  34.603  13.863
56262W        W20019  33.616  18.135  14.978
56263W        W20020  12.653  37.902  10.432
56264W        W20021  31.491   0.798   0.852
56265W        W20022  42.512  44.408   3.824
56266W        W20023   3.300  19.727   1.419
56267W        W20024   3.728  30.973   2.840
56268W        W20025  35.955  19.110   3.853
56269W        W20026  23.701   0.452  13.830
56270W        W20027  21.221  25.636   1.745
56271W        W20028  15.160   2.928   4.632
56272W        W20029  26.619  28.947   0.812
56273W        W20030   9.382   4.370   3.666
56274W        W20031  20.711  25.218  10.413
56275W        W20032   3.749   6.256   1.915
56276W        W20033  34.968   0.366  10.535
56277W        W20034  32.921  12.202   3.297
56278W        W20035  25.974  34.868  11.570
56279W        W20036  32.510  17.599  14.461
56280W        W20037   3.321  33.509   2.842
56281W        W20038  19.083  17.063  14.780
56282W        W20039  29.468  10.283   1.806
56283W        W20040  21.163  17.079   2.246
56284W        W20041  40.046  29.534   3.776
56285W        W20042  18.720   7.312  14.988
56286W        W20043  10.810  14.599   4.252
56287W        W20044  34.551  10.190  12.968
56288W        W20045   7.853  38.912  11.003
56289W        W20046  38.402   2.780   4.118
56290W        W20047  27.048  31.899  11.484
56291W        W20048  13.633  34.017   1.222
56292W        W20049  11.802  39.931  11.997
56293W        W20050  33.618  43.453  10.523
56294W        W20051   7.706  43.955   1.359
56295W        W20052  26.175  27.678  12.537
56296W        W20053  20.741  23.143   3.691
56297W        W20054  37.392  31.414  14.019
56298W        W20055  27.543  22.089  12.468
56299W        W20056  42.365   6.420   2.354
56300W        W20057   5.925   9.291  11.078
56301W        W20058  44.473  30.654  11.496
56302W        W20059  39.005  43.423  13.439
56303W        W20060  41.399  17.568  10.525
56304W        W20061  31.501  15.651  14.384
56305W        W20062  35.858  32.090  13.406
56306W        W20063  36.544  44.417  14.936
56307W        W20064  38.366  20.106   1.270
56308W        W20065   0.287  40.033  12.857
56309W        W20066  18.096  17.082  10.043
56310W        W20067  20.730  29.957   0.804
56311W        W20068  31.461  18.232  13.406
56312W        W20069  44.799  30.652   1.269
56313W        W20070  32.511  18.249  11.539
56314W        W20071   8.705   5.409   0.242
56315W        W20072  15.325  18.694   0.875
56316W        W20073   3.750  44.979  14.396
56317W        W20074  28.026   9.385  10.990
56318W        W20075  22.683  38.471   3.863
56319W        W20076  19.252  44.260   2.312
56320W        W20077  38.478  34.566   2.733
56321W        W20078  42.942  33.124  11.918
56322W        W20079  26.573  33.548  13.002
56323W        W20080   8.315  19.728  11.570
56324W        W20081  30.414  35.073   0.928
56325W        W20082  13.749  19.536  10.522
56326W        W20083   7.344   2.465   3.661
56327W        W20084  12.741  25.699   2.860
56328W        W20085  22.123  43.896  12.022
56329W        W20086  13.242  37.459  12.483
56330W        W20087   7.319  11.320  14.348
56331W        W20088  33.540  39.860   3.651
56332W        W20089  35.907  44.285   3.226
56333W        W20090  22.036  13.304   0.863
56334W        W20091   8.812   9.871   1.892
56335W        W20092  28.645  21.542   5.104
56336W        W20093   8.722  32.525   4.766
56337W        W20094  37.922   6.340  10.936
56338W        W20095  36.547   7.233   0.817
56339W        W20096  35.580   7.413   4.646
56340W        W20097   0.333  35.544  13.471
56341W        W20098  30.036   3.872   1.801
56342W        W20099  41.930  15.208   1.412
56343W        W20100  10.845  44.286  11.946
56344W        W20101  13.813  21.078   0.289
56345W        W20102  44.295   9.262   0.874
56346W        W20103   1.931  38.983  10.426
56347W        W20104  23.644  20.736   4.708
56348W        W20105  18.100  39.843   3.265
56349W        W20106  29.937  22.183   4.682
56350W        W20107  44.956  17.257  14.873
56351W        W20108  27.024   1.475   0.468
56352W        W20109   2.936   5.784  14.773
56353W        W20110  20.718  23.140  10.542
56354W        W20111  17.298  34.059  13.856
56355W        W20112  12.779   2.741   0.275
56356W        W20113  13.276  19.693  12.483
56357W        W20114  10.783  33.426   1.858
56358W        W20115  41.356  14.236   0.309
56359W        W20116  17.777  16.604   2.246
56360W        W20117  37.949  19.095  13.394
56361W        W20118  20.760  27.164   2.346
56362W        W20119  21.588  12.353  10.455
56363W        W20120  16.714  22.149  13.522
56364W        W20121   3.227  16.107  13.861
56365W        W20122  32.994  32.616  12.555
56366W        W20123  19.566  44.948  14.331
56367W        W20124  27.582  24.593   1.700
56368W        W20125  25.622   3.398  14.895
56369W        W20126  33.966  11.814  14.781
56370W        W20127  37.464  24.133   5.191
56371W        W20128  44.476   7.702   4.615
56372W        W20129   6.413  14.751  14.911
56373W        W20130  40.943  18.095   1.829
56374W        W20131  44.504  37.862   4.281
56375W        W20132  27.087  36.091  12.092
56376W        W20133  21.637  22.711  11.900
56377W        W20134  35.856  41.499   1.423
56378W        W20135  23.121  27.120  14.331
56379W        W20136   7.177  19.174   2.720
56380W        W20137   5.313  13.720  10.415
56381W        W20138  20.122   0.888   4.114
56382W        W20139  12.782   6.252  12.057
56383W        W20140  38.937  30.083   0.803
56384W        W20141  34.911  23.673   1.727
56385W        W20142  42.286  39.933  10.432
56386W        W20143  37.473  39.939  13.907
56387W        W20144  28.593   1.827  13.955
56388W        W20145  37.880  14.788   0.418
56389W        W20146  34.099  34.561  13.905
56390W        W20147  28.477   3.928   1.216
56391W        W20148   0.311  28.482  10.467
56392W        W20149  15.172  31.615   2.741
56393W        W20150  13.302  40.851  11.026
56394W        W20151  32.055  23.150  12.414
56395W        W20152  23.043  41.334  14.892
56396W        W20153  22.227  16.582   2.225
56397W        W20154  41.353  41.332  13.811
56398W        W20155   1.412  17.253  13.331
56399W        W20156  26.667  30.449   1.268
56400W        W20157  34.987   9.223   0.392
56401W        W20158   8.799  28.053  11.049
56402W        W20159  41.409  19.670  12.481
56403W        W20160  24.067  26.571  12.481
56404W        W20161  22.691  15.286   3.823
56405W        W20162  44.831  25.604  11.095
56406W        W20163  33.495  32.468  12.521
56407W        W20164  38.515   7.772   1.268
56408W        W20165  12.851   0.342  12.489
56409W        W20166  10.796   4.864  11.016
56410W        W20167   3.864  35.361   2.318
56411W        W20168   0.282   0.319   3.383
56412W        W20169   8.686  42.959   3.350
56413W        W20170  38.875  42.001   4.753
56414W        W20171  20.171  35.510  10.020
56415W        W20172  25.190  16.170  12.442
56416W        W20173   5.352  40.497   2.784
56417W        W20174   5.828   1.870   3.261
56418W        W20175  27.033  35.996  13.024
56419W        W20176  35.592   3.828  11.405
56420W        W20177   7.225  16.156   1.249
56421W        W20178  19.630  26.479   1.895
56422W        W20179  21.741  13.738   2.679
56423W        W20180   4.806  44.353  14.992
56424W        W20181   1.871  37.499  13.797
56425W        W20182  40.415  24.544  11.494
56426W        W20183  42.812  38.441   0.380
56427W        W20184   7.674   2.721   0.421
56428W        W20185  37.909  34.099  11.953
56429W        W20186  24.191   8.331   1.272
56430W        W20187  12.197  35.418   3.836
56431W        W20188  33.611  30.997   5.779
56432W        W20189  18.669  31.614  13.459
56433W        W20190  39.340  18.058   3.249
56434W        W20191  22.198   4.415   4.138
56435W        W20192   1.289  25.520   1.878
56436W        W20193  42.013  15.793  12.368
56437W        W20194  30.106  26.669  12.555
56438W        W20195  39.475  37.565  12.092
56439W        W20196  40.484  28.590  12.905
56440W        W20197  25.215  32.081   5.122
56441W        W20198  35.960  43.341  13.442
56442W        W20199  28.465  21.076   2.308
56443W        W20200  38.836   4.813  13.475
56444W        W20201  31.500  38.548   0.915
56445W        W20202  24.118  22.116  10.442
56446W        W20203   7.363   5.923   3.145
56447W        W20204  43.314   6.234  14.279
56448W        W20205   3.775   6.733   2.674
56449W        W20206  27.449   6.224   3.789
56450W        W20207  20.142  30.474   3.665
56451W        W20208  29.108  22.519   0.475
56452W        W20209   5.807  29.448  14.764
56453W        W20210  14.304  28.962  11.942
56454W        W20211   0.482  21.551  12.061
56455W        W20212  32.976   5.757   0.363
56456W        W20213  35.572  36.899   4.793
56457W        W20214  26.680  32.929  12.347
56458W        W20215   2.814  15.221  13.804
56459W        W20216  41.906  12.304   0.263
56460W        W20217  16.597  34.865  12.025
56461W        W20218  12.262  17.130   4.683
56462W        W20219  33.907  31.553  14.513
56463W        W20220   6.787  16.227   4.147
56464W        W20221   9.164   7.210  14.347
56465W        W20222  23.597   9.769  13.486
56466W        W20223  35.936  36.433   3.631
56467W        W20224  19.071  32.407  10.114
56468W        W20225   0.742  41.457  11.101
56469W        W20226  21.583  29.992   0.881
56470W        W20227   5.913  43.769   5.634
56471W        W20228   8.348  13.816  14.408
56472W        W20229  30.157   1.770   4.168
56473W        W20230  20.073  26.693   3.839
56474W        W20231  40.419   3.454  10.043
56475W        W20232  11.128  42.918   3.638
56476W        W20233  31.899  42.838   4.178
56477W        W20234  27.146  36.393   0.272
56478W        W20235   2.842   7.417   0.465
56479W        W20236  27.999  43.924  14.486
56480W        W20237  28.075   2.890   1.325
56481W        W20238  20.056  30.163  11.413
56482W        W20239  43.912  14.198  12.916
56483W        W20240  30.010  15.682   0.936
56484W        W20241  26.668  23.193  13.496
56485W        W20242   8.192   3.945   0.792
56486W        W20243  42.032  37.568  10.529
56487W        W20244   2.839  39.422   3.227
56488W        W20245  38.536  19.161   1.363
56489W        W20246   8.195  36.945  11.043
56490W        W20247  41.988  18.211   3.802
56491W        W20248  18.211  11.228   2.378
56492W        W20249  30.137  11.341   4.652
56493W        W20250   8.852   2.926   3.798
56494W        W20251   0.342  17.251  13.403
56495W        W20252   5.404   1.345   1.855
56496W        W20253  17.696   0.964  10.905
56497W        W20254   7.404  35.531   2.361
56498W        W20255  39.423  32.009  12.532
56499W        W20256  43.914  29.493  10.408
56500W        W20257   4.305  12.743  14.799
56501W        W20258  37.522  12.805  14.020
56502W        W20259  25.658   1.740  14.294
56503W        W20260  37.389  23.695   4.168
56504W        W20261  25.081  35.556   1.239
56505W        W20262  41.405  39.462  11.390
56506W        W20263  12.760  15.821  13.899
56507W        W20264  34.952  19.576  14.335
56508W        W20265   6.917  21.057  13.960
56509W        W20266   3.789  37.891  12.967
56510W        W20267   5.715  34.090   0.282
56511W        W20268  32.596  10.179  10.572
56512W        W20269  27.567  37.430  13.061
56513W        W20270  11.667  43.310  10.633
56514W        W20271  38.851  27.023   1.793
56515W        W20272   9.693  15.171   1.741
56516W        W20273  22.057  42.814   4.836
56517W        W20274  23.237  23.103   3.737
56518W        W20275  35.908  32.527   4.723
56519W        W20276  41.475  43.957   1.776
56520W        W20277  11.750   7.852  12.471
56521W        W20278   2.426  23.151  14.414
56522W        W20279  10.732   1.897   2.777
56523W        W20280   2.774  19.155  12.974
56524W        W20281  17.086  42.371  14.407
56525W        W20282  14.608   2.936  14.299
56526W        W20283  18.087  27.514   4.639
56527W        W20284  27.492  34.391  14.904
56528W        W20285   1.352  13.769   0.408
56529W        W20286   7.225  41.900  10.595
56530W        W20287  13.751  19.606   4.310
56531W        W20288  30.922  29.107   1.770
56532W        W20289   7.826  10.256   2.203
56533W        W20290  25.631  18.602  12.905
56534W        W20291   4.237  13.623  14.434
56535W        W20292   0.964  38.385   4.832
56536W        W20293  27.124   5.927   2.208
56537W        W20294  16.761  30.918  14.782
56538W        W20295  32.915  41.438   3.382
56539W        W20296  13.203  30.588   4.186
56540W        W20297  41.919  17.787  11.549
56541W        W20298  15.126   6.375   4.341
56542W        W20299  23.674  28.661   0.959
56543W        W20300  20.091  26.637  12.996
56544W        W20301  15.749  12.812   2.816
56545W        W20302  35.049   3.296   2.366
56546W        W20303  26.960  13.159  10.420
56547W        W20304  35.390  11.750   3.210
56548W        W20305   2.297  19.050   3.778
56549W        W20306   5.248   5.863  14.815
56550W        W20307  22.573  23.074  14.495
56551W        W20308  19.089   3.299  13.045
56552W        W20309  19.774  19.182  13.000
56553W        W20310  24.018  22.687  11.587
56554W        W20311  43.496  11.326   0.483
56555W        W20312   4.900  20.081   4.831
56556W        W20313  13.198   3.902   2.728
56557W        W20314  38.866   7.208   3.248
56558W        W20315   0.801  35.379  13.425
56559W        W20316  26.028  33.081   3.217
56560W        W20317  29.110   1.443  12.542
56561W        W20318  32.975  17.574  14.486
56562W        W20319  34.514  22.109   3.217
56563W        W20320   5.813   9.391  11.560
56564W        W20321  18.176  36.419  13.859
56565W        W20322  28.629   2.935  11.558
56566W        W20323  14.178  12.811   3.742
56567W        W20324  29.440  19.662   2.226
56568W        W20325  25.110  37.512   0.444
56569W        W20326  10.320  31.522  12.567
56570W        W20327  21.536  31.463  11.943
56571W        W20328  24.619  33.481   4.183
56572W        W20329   1.946  31.896  12.459
56573W        W20330  40.019  20.724   0.315
56574W        W20331  13.701  40.864  13.031
56575W        W20332  20.146  31.031  11.081
56576W        W20333  31.058  21.145   2.324
56577W        W20334  38.329  12.240  13.866
56578W        W20335   9.155  15.629   1.705
56579W        W20336  34.010   2.894   4.223
56580W        W20337   8.251  22.997   2.419
56581W        W20338  25.206  19.121  10.510
56582W        W20339  13.194  21.223  13.415
56583W        W20340  36.852  16.747   3.366
56584W        W20341   0.868  37.416  13.815
56585W        W20342   5.259  29.640   3.248
56586W        W20343  36.390  20.051   1.932
56587W        W20344   5.302  41.358  14.011
56588W        W20345  12.642   6.183   3.671
56589W        W20346  40.489  40.360   0.912
56590W        W20347  33.482   6.706   1.242
56591W        W20348  15.312  20.631   1.222
56592W        W20349   6.763   3.866  10.579
56593W        W20350  18.119  11.723   4.626
56594W        W20351   1.272  31.430  14.881
56595W        W20352  33.475   5.862   5.300
56596W        W20353  22.028   2.772  11.459
56597W        W20354  22.746  13.113   0.271
56598W        W20355  31.497  10.377   1.777
56599W        W20356  10.275  40.413  12.579
56600W        W20357  35.389   4.876  12.468
56601W        W20358  36.511  42.348   2.683
56602W        W20359  31.606  34.888   0.341
56603W        W20360  27.138  28.588  11.869
56604W        W20361   5.376  18.630  14.925
56605W        W20362  27.066  18.708  12.975
56606W        W20363   3.748  23.060  14.783
56607W        W20364  11.637  19.085   9.949
56608W        W20365  38.851  32.554   1.888
56609W        W20366   2.727  28.173  14.767
56610W        W20367  13.825  44.439   4.223
56611W        W20368   0.487  12.342  11.461
56612W        W20369  22.125   1.426   0.461
56613W        W20370  13.599  18.173   4.176
56614W        W20371  33.591   7.667  11.116
56615W        W20372  44.445   5.738   0.867
56616W        W20373  41.520  30.587   4.632
56617W        W20374  31.058  23.588   1.439
56618W        W20375  41.370  18.600  14.498
56619W        W20376   9.208  43.272   9.528
56620W        W20377   5.398   3.750   1.815
56621W        W20378  12.273   9.743  12.507
56622W        W20379  27.563   3.868   1.760
56623W        W20380  44.808  35.992   2.685
56624W        W20381  40.522  31.441   1.743
56625W        W20382  27.641  37.998  12.063
56626W        W20383  27.518  42.926  14.488
56627W        W20384  25.602  28.047   5.153
56628W        W20385  35.860   1.366   4.774
56629W        W20386  21.190  41.992  12.826
56630W        W20387  24.012  17.563  11.553
56631W        W20388  36.977   8.709   0.355
56632W        W20389  24.205   2.275   1.277
56633W        W20390   2.243  31.075   2.689
56634W        W20391  44.310  30.429  13.968
56635W        W20392  24.577  18.140   4.706
56636W        W20393  27.967   4.387  12.498
56637W        W20394  20.646  32.517   0.389
56638W        W20395  16.176  41.862   2.688
56639W        W20396   7.252  37.473   3.354
56640W        W20397  17.724  25.538   1.870
56641W        W20398  41.021  21.621  11.530
56642W        W20399   8.221  34.526   4.720
56643W        W20400  21.243  22.998   1.793
56644W        W20401  24.658   4.301   0.400
56645W        W20402   5.699   8.388  12.995
56646W        W20403   4.399  44.441   3.171
56647W        W20404  16.183  16.761   0.737
56648W        W20405   4.344  23.061   0.368
56649W        W20406  44.930  20.247   4.298
56650W        W20407   4.714   1.380   1.359
56651W        W20408  13.762  25.472  11.441
56652W        W20409   3.851  11.699  11.586
56653W        W20410  16.282   1.457   0.404
56654W        W20411   6.274  39.998  14.348
56655W        W20412  43.455  23.669   1.248
56656W        W20413  24.185  44.977  14.406
56657W        W20414  12.695  17.656  13.493
56658W        W20415  29.927   0.354  13.451
56659W        W20416  28.938  42.356   3.857
56660W        W20417  35.914  30.652  12.339
56661W        W20418   8.176  35.418   4.644
56662W        W20419  31.936  33.556  14.510
56663W        W20420   8.247  35.541  14.470
56664W        W20421   6.203  13.612   2.868
56665W        W20422   6.252  41.966  12.449
56666W        W20423  14.704  17.715   0.837
56667W        W20424   7.894  37.468   5.115
56668W        W20425   9.849  33.901   2.289
56669W        W20426   5.435  38.429   2.265
56670W        W20427  17.229   2.868  13.985
56671W        W20428  25.048  29.934  10.558
56672W        W20429   2.886  23.492   3.169
56673W        W20430  26.516  29.132  14.460
56674W        W20431  10.331  27.149   3.374
56675W        W20432  21.042  38.460   0.481
56676W        W20433   0.982  27.540  10.543
56677W        W20434  21.030   0.779   2.323
56678W        W20435   3.358   2.444   2.728
56679W        W20436  36.379  35.473   3.642
56680W        W20437  27.098  42.917   2.368
56681W        W20438   8.826  36.495   0.425
56682W        W20439   1.749  25.203  14.338
56683W        W20440  10.773  21.639  14.509
56684W        W20441  28.015  26.482   3.315
56685W        W20442  16.639  17.218  11.399
56686W        W20443  31.045  23.075  12.948
56687W        W20444   0.410  39.824  12.513
56688W        W20445  23.203  21.745  13.051
56689W        W20446  25.171  24.637  14.292
56690W        W20447  28.980   8.872   4.614
56691W        W20448  25.073  21.757  13.434
56692W        W20449  20.226  30.098   4.835
56693W        W20450   2.247  10.156   5.257
56694W        W20451   3.794  30.960   0.938
56695W        W20452  36.088  39.548  10.627
56696W        W20453   8.385  17.258  12.407
56697W        W20454  40.423  13.309  13.863
56698W        W20455  43.814  32.518   0.885
56699W        W20456   3.393  41.851  11.030
56700W        W20457  16.276  35.590   3.790
56701W        W20458  43.846  31.016   2.328
56702W        W20459  25.108  29.618   0.289
56703W        W20460   7.712  27.040  12.931
56704W        W20461  25.631  22.121  14.928
56705W        W20462  18.265  39.342  14.990
56706W        W20463  22.115  16.618  10.455
56707W        W20464  14.151   8.293   3.199
56708W        W20465  39.438  33.913  11.523
56709W        W20466  43.422  28.506   3.785
56710W        W20467  12.144  24.214  12.011
56711W        W20468  42.473   3.776  11.093
56712W        W20469   4.764  15.186  13.538
56713W        W20470  37.403  37.431  12.979
56714W        W20471  35.390  38.545   0.916
56715W        W20472   6.920  27.080   0.905
56716W        W20473  32.137  23.511  12.549
56717W        W20474  28.067  22.541  12.886
56718W        W20475  24.060  28.136   3.379
56719W        W20476  34.875  38.513   0.387
56720W        W20477   7.391  20.107  11.962
56721W        W20478  44.788  38.457  13.861
56722W        W20479  34.974  26.459  10.123
56723W        W20480  20.200  40.469   2.405
56724W        W20481  24.186   3.853   1.871
56725W        W20482  32.999   6.257   2.817
56726W        W20483  13.208   8.364   3.729
56727W        W20484  22.668  23.179  13.837
56728W        W20485  17.091   3.899  10.567
56729W        W20486  27.978   8.272   1.862
56730W        W20487  26.619  43.342  10.405
56731W        W20488  18.074   1.343  11.091
56732W        W20489  29.006  18.700   1.715
56733W        W20490  22.074  38.531   3.765
56734W        W20491   5.299  25.468  10.618
56735W        W20492  18.683   9.384  14.329
56736W        W20493  26.644  42.030   1.318
56737W        W20494  12.702   0.812   4.831
56738W        W20495  40.965   4.817   0.404
56739W        W20496   7.388  33.091  14.764
56740W        W20497   2.244   3.842  14.016
56741W        W20498  42.885   4.399  11.549
56742W        W20499  14.158  20.054   1.858
56743W        W20500  32.395  21.243  11.959
56744W        W20501   3.225  11.284   1.327
56745W        W20502   9.266  44.923  14.868
56746W        W20503  22.087  35.908   2.733
56747W        W20504  11.222  10.158   2.772
56748W        W20505  19.775  12.353   0.963
56749W        W20506  18.122  31.002  12.041
56750W        W20507   7.754   7.384   4.262
56751W        W20508  11.131   4.831   1.299
56752W        W20509   7.236  21.615  13.382
56753W        W20510  18.144   7.748  14.824
56754W        W20511  39.455  21.023  13.060
56755W        W20512  27.175  32.963  12.009
56756W        W20513  36.437  28.089   0.754
56757W        W20514  40.328   9.827   4.713
56758W        W20515  34.043  40.421  11.871
56759W        W20516  15.599  18.643   0.785
56760W        W20517  23.633  13.144   4.354
56761W        W20518  33.478  28.038  12.945
56762W        W20519  30.152  17.633  12.548
56763W        W20520   6.279  38.007   0.250
56764W        W20521  15.137   5.823   3.854
56765W        W20522  39.449  39.864   0.798
56766W        W20523   7.765   9.745   4.700
56767W        W20524  35.087  22.527  14.479
56768W        W20525  21.757  16.278   3.264
56769W        W20526  37.019   3.953  13.793
56770W        W20527   7.222  33.970  14.332
56771W        W20528  29.599  31.014   0.463
56772W        W20529  37.038  11.128  12.844
56773W        W20530  25.043  32.519  13.388
56774W        W20531  26.102  36.934  11.080
56775W        W20532  43.991  35.909   0.332
56776W        W20533  12.211  31.994  11.881
56777W        W20534   9.715  22.693   1.799
56778W        W20535  10.678   3.348   3.735
56779W        W20536  22.079   9.656  13.846
56780W        W20537  25.081  33.497   4.837
56781W        W20538   9.783  16.807   3.726
56782W        W20539   5.692  13.242  12.988
56783W        W20540  43.424  23.541   4.167
56784W        W20541  27.045  14.733  14.882
56785W        W20542  38.851  32.406  13.808
56786W        W20543  38.354  28.520   1.253
56787W        W20544  12.268  15.741   3.701
56788W        W20545   1.396  44.336   3.756
56789W        W20546  25.493   8.816   2.247
56790W        W20547  32.933  33.409  11.082
56791W        W20548  26.133   6.226   1.876
56792W        W20549  16.754  20.206   2.277
56793W        W20550  26.001  40.313   4.173
56794W        W20551  38.440   2.853   3.791
56795W        W20552   9.267  28.434  11.104
56796W        W20553  39.470   3.928   4.762
56797W        W20554  26.083   9.214  10.946
56798W        W20555  27.643  24.041  13.392
56799W        W20556  38.519  19.281   2.870
56800W        W20557  18.244  15.631   3.632
56801W        W20558  36.482  30.497   1.356
56802W        W20559  38.392  31.109   4.320
56803W        W20560   5.902   2.893  10.894
56804W        W20561  33.877  22.109   3.858
56805W        W20562  40.497   5.889   4.775
56806W        W20563  40.507   1.927   4.137
56807W        W20564  27.572  38.559   1.384
56808W        W20565  31.423  34.904  14.324
56809W        W20566   5.237   8.276   1.829
56810W        W20567  43.484  43.883  14.888
56811W        W20568  16.606  34.427  13.397
56812W        W20569  34.517  34.877  14.973
56813W        W20570   4.804  11.222  14.415
56814W        W20571  11.302  28.051  13.059
56815W        W20572  33.912  43.301   3.341
56816W        W20573   0.774  12.680  11.372
56817W        W20574  20.595  12.822   2.721
56818W        W20575  23.512   5.308  13.432
56819W        W20576  19.159  42.932   0.954
56820W        W20577  44.359  10.357   2.230
56821W        W20578  17.158  29.453   4.139
56822W        W20579  41.531   7.792  12.879
56823W        W20580  31.571   9.239   4.641
56824W        W20581  12.611   4.289   2.273
56825W        W20582   4.218  10.182   1.852
56826W        W20583  38.966  23.558   2.375
56827W        W20584  43.883  30.027  14.332
56828W        W20585   8.183  20.728   0.472
56829W        W20586   9.156  12.291  13.519
56830W        W20587  11.355  44.293   1.861
56831W        W20588  33.049  13.758   1.711
56832W        W20589  15.225  41.529  10.949
56833W        W20590  16.586  39.848  12.509
56834W        W20591   7.312  26.586   0.901
56835W        W20592  35.526  30.587  11.517
56836W        W20593  35.878  30.036  11.385
56837W        W20594  30.134  32.972  14.480
56838W        W20595   7.374   9.808   2.782
56839W        W20596   8.396  26.078   0.839
56840W        W20597  39.521  13.673   1.714
56841W        W20598  28.635  38.031  10.895
56842W        W20599   1.320  36.004  13.421
56843W        W20600  31.016   5.309  13.952
56844W        W20601  40.959   2.862   4.139
56845W        W20602  33.482   1.421  13.488
56846W        W20603  18.591  21.701  14.485
56847W        W20604   7.757   5.411   3.856
56848W        W20605  17.173  33.898  12.005
56849W        W20606  41.995   6.750   4.307
56850W        W20607  34.584  33.504   1.802
56851W        W20608  32.618   8.163   2.295
56852W        W20609  17.590  42.357  14.900
56853W        W20610  28.162   0.360  13.913
56854W        W20611  22.666   1.977  12.024
56855W        W20612  33.111  19.200  12.528
56856W        W20613  18.266  19.673  11.089
56857W        W20614  36.384  30.614  12.423
56858W        W20615  25.121  31.982   4.836
56859W        W20616   9.667   2.432  11.989
56860W        W20617  23.511  36.433  14.921
56861W        W20618  29.468   2.792   4.275
56862W        W20619  27.083  32.138  10.008
56863W        W20620  35.491  23.644   4.695
56864W        W20621  23.684   7.271  11.033
56865W        W20622  38.466  24.034  12.994
56866W        W20623  15.176  41.456   5.247
56867W        W20624  38.870  33.077  13.951
56868W        W20625  23.731  30.080  10.509
56869W        W20626  35.484  37.466   2.712
56870W        W20627  11.864  19.176  13.382
56871W        W20628  21.212  27.556   3.776
56872W        W20629  42.406   9.833   2.202
56873W        W20630   5.931  40.518   5.735
56874W        W20631  23.242  39.385   0.928
56875W        W20632  15.161  10.653  10.639
56876W        W20633  41.369  34.453   0.459
56877W        W20634  20.631  27.174  12.524
56878W        W20635  44.821   3.807  14.012
56879W        W20636   3.436  44.485   9.921
56880W        W20637  41.461  24.576   1.808
56881W        W20638  41.372  26.595   1.411
56882W        W20639  19.186  21.686   0.293
56883W        W20640  35.882  25.584   2.242
56884W        W20641  13.133  13.616   0.318
56885W        W20642  31.913  38.447   4.678
56886W        W20643  14.157   0.799   4.238
56887W        W20644  11.765  43.932   3.637
56888W        W20645  22.669  16.138   0.920
56889W        W20646  21.692  36.986   5.081
56890W        W20647  13.798  37.955  10.894
56891W        W20648  29.038   8.225   4.741
56892W        W20649  12.771   7.350   1.713
56893W        W20650   5.209  22.544   4.177
56894W        W20651  29.149  23.546  12.089
56895W        W20652   2.918  24.483   2.229
56896W        W20653   3.277  25.553  11.573
56897W        W20654   3.839  39.321  12.426
56898W        W20655  26.482  14.684  14.858
56899W        W20656  35.856  29.173   3.823
56900W        W20657  38.050  27.687   0.788
56901W        W20658  15.088  35.028   2.295
56902W        W20659   4.737  43.841   3.338
56903W        W20660  34.980  27.501  12.381
56904W        W20661  24.196  33.006  12.916
56905W        W20662  17.691  15.194   3.344
56906W        W20663  18.210  39.337  11.494
56907W        W20664  32.114  33.930   4.135
56908W        W20665  43.374  17.148   3.814
56909W        W20666  11.860  43.940  13.896
56910W        W20667  21.024   6.746   1.393
56911W        W20668  31.012  42.931   2.903
56912W        W20669   6.209  21.541  10.974
56913W        W20670  20.076  34.469  11.416
56914W        W20671  37.860  21.187   3.870
56915W        W20672   1.883  18.755  12.479
56916W        W20673  17.794  38.056   0.272
56917W        W20674  26.153  22.239  12.935
56918W        W20675  20.224  20.765  14.333
56919W        W20676   8.328  31.025   3.861
56920W        W20677  33.959  21.548  13.513
56921W        W20678  19.105  27.533  12.018
56922W        W20679  42.358   2.944   0.943
56923W        W20680  40.003  19.647   0.280
56924W        W20681  15.255  21.204  13.823
56925W        W20682   9.323  15.183   0.957
56926W        W20683  13.323  37.891  11.066
56927W        W20684  38.991  36.359   0.771
56928W        W20685  39.919   3.744  13.452
56929W        W20686   7.216   8.300   3.283
56930W        W20687  33.095  31.914   2.249
56931W        W20688  19.534  29.569   4.286
56932W        W20689   3.448  18.183   4.740
56933W        W20690  37.440  10.717  10.465
56934W        W20691  24.705  27.664  12.426
56935W        W20692  18.741  18.652  14.941
56936W        W20693  26.529   5.719   5.122
56937W        W20694  15.251  42.936  10.474
56938W        W20695  27.119  42.315   4.802
56939W        W20696  20.102   8.840  14.480
56940W        W20697  37.433  19.620   2.887
56941W        W20698  11.309  40.535  12.062
56942W        W20699  26.640  24.152  11.857
56943W        W20700  36.943  17.590  12.986
56944W        W20701  12.707  18.180  10.447
56945W        W20702  22.066  22.009   3.294
56946W        W20703  35.020  36.951   4.637
56947W        W20704  27.593  11.192  12.510
56948W        W20705  26.189  29.507  14.841
56949W        W20706  41.835  26.466  10.987
56950W        W20707  31.149  44.942   1.290
56951W        W20708  32.406   0.767  13.540
56952W        W20709  37.007   1.436   2.317
56953W        W20710  13.766  42.941  10.523
56954W        W20711  21.116  34.881   3.275
56955W        W20712   7.774  37.571   4.708
56956W        W20713   6.780   4.728  14.005
56957W        W20714  35.592  28.980   0.369
56958W        W20715  43.473   9.392   0.477
56959W        W20716  35.886   7.779  13.837
56960W        W20717  39.015  11.719  12.953
56961W        W20718   6.387  11.289   0.753
56962W        W20719  40.490  11.863   4.275
56963W        W20720  24.198  19.669   0.409
56964W        W20721  36.578  39.380  13.400
56965W        W20722  44.898  18.621   1.762
56966W        W20723  25.469  27.620   4.156
56967W        W20724  32.963  33.460   4.717
56968W        W20725  43.866  29.156  12.877
56969W        W20726  10.373  33.465  12.491
56970W        W20727  19.614  44.470   1.764
56971W        W20728   4.795   2.267  10.453
56972W        W20729  15.615  37.542   3.154
56973W        W20730  13.201  43.810  11.556
56974W        W20731   7.379   3.749  11.896
56975W        W20732  40.965  18.759  10.481
56976W        W20733  33.894  18.133  12.530
56977W        W20734  27.606  43.855  11.450
56978W        W20735  22.227  16.137   1.719
56979W        W20736   5.927  27.589   2.802
56980W        W20737  17.715   0.295  11.398
56981W        W20738   4.863  36.891   0.421
56982W        W20739   1.429   6.833  12.067
56983W        W20740  15.625  24.651   4.191
56984W        W20741   9.163  33.107  11.479
56985W        W20742  35.975   3.824   4.763
56986W        W20743  37.086  23.612   4.228
56987W        W20744  10.663  36.529   1.830
56988W        W20745  32.468   6.330   3.789
56989W        W20746  32.034   4.446   1.789
56990W        W20747  13.719  20.087   0.842
56991W        W20748  30.585  33.984   2.738
56992W        W20749   5.430  13.274  11.925
56993W        W20750  43.997  41.337   2.866
56994W        W20751   2.301   9.666   4.646
56995W        W20752   8.793   2.304  12.395
56996W        W20753  37.533  26.110  12.873
56997W        W20754  31.066  21.579   2.282
56998W        W20755  19.193  19.156   3.181
56999W        W20756  32.923  32.548  13.936
57000W        W20757  24.143  43.404  10.478
57001W        W20758  12.132  26.058   0.965
57002W        W20759  27.192   7.741   4.709
57003W        W20760  17.628  36.045   0.359
57004W        W20761  33.624  28.582  13.461
57005W        W20762   0.879   0.485  11.611
57006W        W20763  35.077  25.143   0.363
57007W        W20764   8.869  38.863  12.539
57008W        W20765  36.087   1.844  14.769
57009W        W20766  37.948  44.451   9.923
57010W        W20767  14.290  38.509   3.333
57011W        W20768  40.898   1.423   1.847
57012W        W20769   7.672  24.570   0.342
57013W        W20770  35.999  44.895   2.748
57014W        W20771   5.248  40.307  11.949
57015W        W20772  34.912  28.154   1.269
57016W        W20773   7.212  20.053   1.283
57017W        W20774  20.744   8.779  11.105
57018W        W20775  23.615  15.241  13.464
57019W        W20776  23.590  14.132   2.813
57020W        W20777  10.138  34.574  13.935
57021W        W20778   2.262  20.594   4.766
57022W        W20779  34.426  16.593   4.173
57023W        W20780  39.966  39.859   2.893
57024W        W20781  37.378  38.062   4.680
57025W        W20782  35.038  10.845   0.935
57026W        W20783  29.153  34.575  14.844
57027W        W20784  26.104  19.563  13.435
57028W        W20785  27.505  31.072   3.867
57029W        W20786  39.338  28.045   4.154
57030W        W20787  40.035  27.142   4.608
57031W        W20788   1.284  43.295   3.257
57032W        W20789  13.301  37.512   2.320
57033W        W20790  30.543  30.148   0.370
57034W        W20791  21.748  32.468   4.350
57035W        W20792  27.059   3.781   1.300
57036W        W20793  28.976  30.968  12.839
57037W        W20794  41.040  13.713  12.477
57038W        W20795  21.656   6.367  12.881
57039W        W20796  20.536  40.546  12.986
57040W        W20797  24.615  32.472   3.326
57041W        W20798   0.825  38.821  14.915
57042W        W20799  40.408  26.652   4.310
57043W        W20800  29.000  13.718  13.913
57044W        W20801   6.676   9.351  14.796
57045W        W20802  21.633   3.935  12.919
57046W        W20803  27.072  28.624  13.989
57047W        W20804   4.726  17.563   2.714
57048W        W20805  18.617  18.706  11.500
57049W        W20806  33.906  38.343   2.668
57050W        W20807  18.167  18.691  10.898
57051W        W20808   4.428  17.101   3.341
57052W        W20809  14.685  31.605   2.729
57053W        W20810  23.542  39.875   2.385
57054W        W20811  25.174  25.648   0.815
57055W        W20812  29.132  22.062   2.256
57056W        W20813  39.923  44.982  13.475
57057W        W20814  11.660  37.016  12.472
57058W        W20815  25.646  43.832   1.786
57059W        W20816  32.571  34.919   0.413
57060W        W20817  35.450  20.134  14.940
57061W        W20818  15.793  19.690  11.128
57062W        W20819   1.248   8.766  12.499
57063W        W20820  11.860  32.394  11.045
57064W        W20821  29.464  35.524  14.988
57065W        W20822   3.294   9.354  11.481
57066W        W20823  32.633  35.590  10.515
57067W        W20824  18.284  37.423  11.046
57068W        W20825  26.145   5.817  12.419
57069W        W20826  30.499   4.742   2.209
57070W        W20827   4.437  37.381   2.723
57071W        W20828  18.713  31.937  12.576
57072W        W20829  17.249  30.919  12.431
57073W        W20830  19.776  27.090   2.358
57074W        W20831  24.725  35.501   3.791
57075W        W20832  11.639  30.649   1.711
57076W        W20833  23.170  10.828   3.655
57077W        W20834   7.352  33.996   4.697
57078W        W20835  13.739   6.385  14.952
57079W        W20836  40.924  14.224   0.271
57080W        W20837  14.134   1.427   2.279
57081W        W20838  22.121  38.477  13.005
57082W        W20839  16.777  38.036  13.448
57083W        W20840   4.366  34.577   1.874
57084W        W20841  44.309  10.727   4.634
57085W        W20842  12.654  21.574   1.911
57086W        W20843  20.529  40.014  11.596
57087W        W20844   0.965  28.136   4.309
57088W        W20845  28.486   6.221   4.767
57089W        W20846  26.516  28.583  13.403
57090W        W20847  15.744  20.528   3.330
57091W        W20848  31.052  30.021  11.013
57092W        W20849  20.045  39.421   4.233
57093W        W20850  27.690  24.556   2.263
57094W        W20851  38.545  23.176   0.755
57095W        W20852  34.019  20.251  11.878
57096W        W20853   7.873  18.778  13.840
57097W        W20854  40.966   3.930  11.562
57098W        W20855  37.019  20.534  11.474
57099W        W20856  22.516   5.912  14.290
57100W        W20857  38.518  40.391  12.544
57101W        W20858  34.952  22.555  10.134
57102W        W20859   6.213  20.239   4.329
57103W        W20860  13.156  14.203   3.288
57104W        W20861   7.868  28.936  13.929
57105W        W20862  24.230   7.242   4.299
57106W        W20863  37.527   8.675   3.243
57107W        W20864  15.216  30.026   3.840
57108W        W20865  34.531  40.435  14.808
57109W        W20866   9.290  35.892  14.010
57110W        W20867   3.371  29.477   3.656
57111W        W20868  27.611  44.453   4.709
57112W        W20869   1.460  21.626   1.843
57113W        W20870  15.192  20.726  11.124
57114W        W20871   1.348  34.935  13.313
57115W        W20872  10.717   8.223   3.232
57116W        W20873  18.236   9.762  11.532
57117W        W20874  34.983  25.700   2.894
57118W        W20875  13.772   3.845  14.916
57119W        W20876  40.817  12.185   2.208
57120W        W20877   0.463  35.992   2.853
57121W        W20878   1.930  30.425   0.734
57122W        W20879  20.238  41.410  12.994
57123W        W20880  11.820   1.958  12.397
57124W        W20881  14.155  17.692  13.313
57125W        W20882  20.059  20.660   1.390
57126W        W20883   3.926  41.303   1.792
57127W        W20884  30.573  29.610   0.760
57128W        W20885   4.237  26.113  10.575
57129W        W20886  28.127  41.876   3.204
57130W        W20887  33.939  35.878   0.765
57131W        W20888  26.579   5.711   1.786
57132W        W20889  12.339  20.677  13.361
57133W        W20890   9.796  20.561   0.766
57134W        W20891  41.886  22.064  10.990
57135W        W20892  16.254  29.081  13.396
57136W        W20893   4.716  20.727   0.365
57137W        W20894  40.402  27.148   4.675
57138W        W20895   4.757  31.070  11.952
57139W        W20896  42.313  12.729  12.427
57140W        W20897  18.546  15.256  13.006
57141W        W20898  26.030  13.295  14.779
57142W        W20899  18.703  15.590  11.856
57143W        W20900  19.760  42.013   4.643
57144W        W20901   3.877   2.888  11.539
57145W        W20902  44.437  19.145  12.538
57146W        W20903   6.357  34.966   5.173
57147W        W20904   3.313  15.615   4.203
57148W        W20905  31.471   2.722  14.421
57149W        W20906   2.344  17.126   1.858
57150W        W20907  43.988  27.549   4.257
57151W        W20908  13.702  40.313  12.384
57152W        W20909  16.179  20.194  14.852
57153W        W20910  11.647   7.175  13.951
57154W        W20911  20.152  13.622  12.032
57155W        W20912  35.866  32.567  13.064
57156W        W20913  35.991  36.005  13.461
57157W        W20914   8.261  43.944   2.229
57158W        W20915  37.865  22.729  12.560
57159W        W20916  27.468  41.894  14.312
57160W        W20917  14.188  30.599  10.634
57161W        W20918  30.606  33.000  13.985
57162W        W20919  30.080   6.313  11.478
57163W        W20920   0.918  33.077  13.365
57164W        W20921  43.859  44.904   4.203
57165W        W20922  23.116   1.404   1.251
57166W        W20923  15.691  31.958   3.865
57167W        W20924  12.639  20.649  11.496
57168W        W20925   7.666   0.801   4.698
57169W        W20926  11.345  10.695  14.891
57170W        W20927   6.314  21.656  14.762
57171W        W20928   2.758   2.229  13.475
57172W        W20929  28.583   4.444   4.202
57173W        W20930  17.657  39.327   4.611
57174W        W20931  36.430  30.140  10.926
57175W        W20932  26.087  24.494  14.927
57176W        W20933  19.619   7.176  13.318
57177W        W20934  27.473   9.151   4.836
57178W        W20935  30.146  36.413  11.374
57179W        W20936  29.929  31.116  10.595
57180W        W20937  15.666   1.368   0.819
57181W        W20938   1.847  15.709  13.022
57182W        W20939  24.176  40.330   0.368
57183W        W20940  24.649  19.224  13.997
57184W        W20941  23.664  32.573   3.650
57185W        W20942   0.462  16.647  11.417
57186W        W20943  21.251   7.403   3.155
57187W        W20944  40.333  35.962  13.869
57188W        W20945  11.294  44.828   2.698
57189W        W20946  24.022  19.618  11.512
57190W        W20947  18.719  26.181   2.724
57191W        W20948  43.988  25.503   1.304
57192W        W20949  13.216  25.542   1.236
57193W        W20950  23.609  14.730  12.375
57194W        W20951  29.469  39.863   1.298
57195W        W20952   8.714  22.129  12.967
57196W        W20953  29.487   2.391   3.259
57197W        W20954  42.981   7.872   4.645
57198W        W20955  31.904   7.201  12.838
57199W        W20956  39.997  33.468   3.182
57200W        W20957  29.072  26.626  13.896
57201W        W20958  23.539   8.776  14.777
57202W        W20959  36.501  24.070   3.763
57203W        W20960   2.788  26.562   4.156
57204W        W20961  21.618   9.205   4.699
57205W        W20962  18.115  34.557   4.284
57206W        W20963   3.391   8.752  10.533
57207W        W20964  27.558  16.132   0.482
57208W        W20965  30.567  27.941   4.118
57209W        W20966  21.691  43.291  11.501
57210W        W20967  41.865   3.947  11.035
57211W        W20968  18.195  35.034   2.299
57212W        W20969  35.924   3.445  13.007
57213W        W20970   5.318  20.094  13.934
57214W        W20971   7.901  31.130   3.353
57215W        W20972  44.968  24.225   2.403
57216W        W20973   8.202  19.571   1.852
57217W        W20974  23.606  41.933  12.015
57218W        W20975  25.558   2.391   1.764
57219W        W20976   4.942  39.362  14.446
57220W        W20977  30.929   4.329   0.792
57221W        W20978  44.492   6.733   1.890
57222W        W20979  21.087  32.420  12.933
57223W        W20980   5.250  37.997   0.384
57224W        W20981  19.098   4.714   0.268
57225W        W20982  17.767  14.805  11.409
57226W        W20983   7.732  36.548   0.252
57227W        W20984  17.601  37.341  11.122
57228W        W20985   1.408  28.010   2.852
57229W        W20986   4.430  32.920  13.986
57230W        W20987   6.313  27.013  12.578
57231W        W20988  19.534  17.577   3.372
57232W        W20989  21.680  35.989  11.974
57233W        W20990  27.503   0.395  13.428
57234W        W20991  19.636  33.470   9.963
57235W        W20992   0.274  40.548   1.837
57236W        W20993   9.181  38.028  14.873
57237W        W20994  11.679  26.674  14.468
57238W        W20995   8.170  19.245  14.430
57239W        W20996  38.071   7.212   2.818
57240W        W20997  26.956  38.861   1.745
57241W        W20998  26.569  21.052  14.819
57242W        W20999  26.691   2.911   5.226
57243W        W21000  17.722  22.615  11.591
57244W        W21001  44.456   9.315  10.450
57245W        W21002  18.160  35.539  11.593
57246W        W21003  32.113  38.382  14.410
57247W        W21004   2.901  14.257   4.783
57248W        W21005  17.563  42.800   0.860
57249W        W21006  14.760  13.653   0.858
57250W        W21007   8.314  37.933  14.292
57251W        W21008  44.852   3.724  14.290
57252W        W21009  14.313   2.764   4.789
57253W        W21010  24.481  40.023  12.482
57254W        W21011  37.074  31.990  12.441
57255W        W21012  21.726  17.289   4.714
57256W        W21013  21.085  25.158  13.455
57257W        W21014  21.718  38.427  11.437
57258W        W21015  36.357   7.797   2.664
57259W        W21016  38.896  38.332   1.307
57260W        W21017  21.166  30.111   3.221
57261W        W21018  14.809  41.420   0.408
57262W        W21019  26.129  41.949   4.156
57263W        W21020  19.758  28.504  14.369
57264W        W21021  42.993   7.797  12.568
57265W        W21022  35.098  19.618   1.834
57266W        W21023  44.951  34.099   1.378
57267W        W21024  43.339  29.610  12.938
57268W        W21025  43.467  13.334  12.428
57269W        W21026  38.066  41.013  13.826
57270W        W21027  20.607  16.753   0.731
57271W        W21028  21.700  12.173   3.752
57272W        W21029  32.979  33.929   2.399
57273W        W21030  31.404   7.782  11.391
57274W        W21031  10.823  39.408   3.716
57275W        W21032  13.792  36.885  12.344
57276W        W21033  25.078  25.686  14.770
57277W        W21034  30.010   1.433   1.828
57278W        W21035  36.027  40.046  13.020
57279W        W21036  16.631  17.251   3.755
57280W        W21037  15.631  32.943  10.935
57281W        W21038  24.082  39.313  14.979
57282W        W21039   0.783  36.492  13.385
57283W        W21040  17.248  33.486  12.451
57284W        W21041  43.968  13.761  10.426
57285W        W21042  11.748   5.835   4.142
57286W        W21043  16.131  34.562  10.486
57287W        W21044  31.914  31.131   3.243
57288W        W21045  19.153  30.565  12.565
57289W        W21046  10.655  40.869   4.246
57290W        W21047  20.173  30.027   1.255
57291W        W21048   8.694   8.656   4.156
57292W        W21049  35.371  34.468  12.892
57293W        W21050  39.996   3.316   1.887
57294W        W21051   2.318  21.594  12.488
57295W        W21052  37.520  31.556   4.216
57296W        W21053   7.393  40.950  13.366
57297W        W21054  32.112  18.193   2.765
57298W        W21055   3.268   6.284  11.123
57299W        W21056  12.633  30.942  12.371
57300W        W21057  26.125  12.729  12.093
57301W        W21058  12.717  10.294  10.957
57302W        W21059   5.794  16.309  14.904
57303W        W21060  15.273   0.787   0.421
57304W        W21061  29.075  31.116   0.791
57305W        W21062  43.275   6.706  10.978
57306W        W21063  36.482  21.036   1.242
57307W        W21064   6.785  13.844   1.934
57308W        W21065  42.345  18.751  11.390
57309W        W21066  28.670  36.988   0.389
57310W        W21067  35.868  39.528  14.983
57311W        W21068  31.148  26.132   1.702
57312W        W21069   2.248  33.571  11.590
57313W        W21070  14.100  35.863  12.095
57314W        W21071  25.003  28.040   1.256
57315W        W21072   7.221   5.716  13.847
57316W        W21073  42.886  31.035   0.777
57317W        W21074  15.589  43.984   1.748
57318W        W21075  29.974  16.741   4.340
57319W        W21076  42.322   3.246   0.833
57320W        W21077  35.440  26.661   0.779
57321W        W21078   8.706   0.756  11.556
57322W        W21079  38.536  11.693  13.855
57323W        W21080   3.816   5.349  11.398
57324W        W21081  13.843  10.322   4.139
57325W        W21082   0.353   0.383   1.389
57326W        W21083  25.106  12.771  11.087
57327W        W21084  33.927  19.050  10.925
57328W        W21085   0.853  42.376   1.904
57329W        W21086  31.430  12.697  10.987
57330W        W21087  13.189  30.423   1.772
57331W        W21088  12.340  21.741  14.866
57332W        W21089   9.697  43.969   1.430
57333W        W21090   7.263  34.017   3.332
57334W        W21091   9.379  22.085   1.236
57335W        W21092  26.495  16.133  13.030
57336W        W21093  41.389  35.084  12.991
57337W        W21094  36.977  19.175   4.159
57338W        W21095   8.787  20.666   4.121
57339W        W21096  39.532  39.515   2.290
57340W        W21097  42.304  28.554   1.353
57341W        W21098  35.043   8.229   0.806
57342W        W21099  23.183  36.922  10.031
57343W        W21100  29.626  43.440  12.029
57344W        W21101   6.884  25.141   1.383
57345W        W21102  13.306  39.922   9.966
57346W        W21103   8.363  26.124   0.475
57347W        W21104   1.469   7.807   3.818
57348W        W21105  20.195  35.915   2.228
57349W        W21106  14.777  19.626  12.024
57350W        W21107  24.006  22.250   0.894
57351W        W21108  17.757  39.937  11.465
57352W        W21109  39.962  37.525  13.844
57353W        W21110  23.693  25.517  13.436
57354W        W21111  39.854   0.302  10.571
57355W        W21112  23.994  40.422   3.239
57356W        W21113  21.752  30.993  10.904
57357W        W21114  40.317   9.277   1.369
57358W        W21115  23.684  25.166   0.967
57359W        W21116   8.897  44.443  14.295
57360W        W21117  44.499  40.458  12.465
57361W        W21118  21.719  31.970   1.814
57362W        W21119   8.790  25.015  12.403
57363W        W21120   1.296  29.032  14.926
57364W        W21121  32.925  18.711  10.488
57365W        W21122  32.104  44.851  13.028
57366W        W21123  33.882   3.823  13.061
57367W        W21124  26.529  17.287   3.649
57368W        W21125   2.802  18.663   4.331
57369W        W21126  29.003   3.865  13.450
57370W        W21127  37.554  22.556   1.878
57371W        W21128   5.408  32.109  12.984
57372W        W21129  14.617  25.154  10.416
57373W        W21130   4.393  34.864  13.841
57374W        W21131  38.029  17.148   4.744
57375W        W21132  39.849  35.966  14.833
57376W        W21133  34.385  37.386  14.032
57377W        W21134  37.437  25.476  14.469
57378W        W21135  38.509  32.546  14.006
57379W        W21136  14.224  43.483  14.954
57380W        W21137  40.815  38.352   1.219
57381W        W21138   0.486  29.645   2.226
57382W        W21139  25.639   6.337   2.832
57383W        W21140   3.376  37.831  11.464
57384W        W21141  16.220  43.360   0.757
57385W        W21142   6.311  27.506   0.928
57386W        W21143  13.772  41.000   0.758
57387W        W21144   1.365   6.199   0.870
57388W        W21145  32.973  17.580  13.357
57389W        W21146  27.160  33.485   2.279
57390W        W21147  23.175  44.917  14.851
57391W        W21148   9.210  36.963  12.868
57392W        W21149  16.658  25.001   5.227
57393W        W21150  35.585  28.044  13.340
57394W        W21151  22.123  17.693   1.311
57395W        W21152   0.331  22.612  12.914
57396W        W21153  22.030  37.370  11.013
57397W        W21154  33.896  43.004  11.063
57398W        W21155  32.022  15.729  11.593
57399W        W21156   7.844  28.007  12.555
57400W        W21157  17.255  24.531  11.491
57401W        W21158  29.927  41.925  12.900
57402W        W21159   4.248  23.553  14.285
57403W        W21160  15.748   1.271   4.114
57404W        W21161  32.602   5.373   2.347
57405W        W21162   0.793   5.209   4.718
57406W        W21163  34.865   2.769   0.748
57407W        W21164  19.776   4.352   2.366
57408W        W21165  22.177   1.823  13.891
57409W        W21166  36.986   7.327  12.531
57410W        W21167  19.146  28.048   0.284
57411W        W21168  34.106  12.662   3.714
57412W        W21169  10.327   5.758   0.373
57413W        W21170  39.555  20.633  12.028
57414W        W21171  34.054  39.328  12.367
57415W        W21172  28.095  14.339   0.480
57416W        W21173  20.710  29.066   0.791
57417W        W21174  29.173  38.009   1.821
57418W        W21175  37.401  12.336   1.828
57419W        W21176   6.380  26.655   5.234
57420W        W21177  27.581   5.768  13.436
57421W        W21178   3.220  10.375   4.231
57422W        W21179  16.088  29.985   1.311
57423W        W21180   7.246  36.415   2.883
57424W        W21181  13.728  16.692   1.900
57425W        W21182   3.400  16.651  14.455
57426W        W21183  31.418  44.329   0.442
57427W        W21184  22.008   3.274  11.409
57428W        W21185   1.932  32.063  13.879
57429W        W21186  17.160   8.667  13.458
57430W        W21187  39.814  11.686   1.264
57431W        W21188  28.968  22.554   4.286
57432W        W21189  30.645  34.929  10.614
57433W        W21190  44.328   5.339  12.987
57434W        W21191  40.881  20.628   1.737
57435W        W21192   1.400  18.112  12.375
57436W        W21193  11.220  41.808   1.349
57437W        W21194  39.853  21.546   2.712
57438W        W21195   1.304  11.685  14.977
57439W        W21196  15.771  34.006  11.392
57440W        W21197  21.233  43.009   1.321
57441W        W21198  44.864   4.718   1.333
57442W        W21199  18.101   1.922   2.718
57443W        W21200   5.794  42.310   1.900
57444W        W21201  36.398  15.294  13.527
57445W        W21202  23.123   5.889  10.943
57446W        W21203   8.343   1.949  13.000
57447W        W21204  26.057  11.174   1.425
57448W        W21205   3.788  10.254   4.132
57449W        W21206   0.848  43.897  10.472
57450W        W21207  28.436   2.432  12.413
57451W        W21208  17.257   0.768   1.837
57452W        W21209  28.981  17.151  10.531
57453W        W21210   3.951   6.269   2.345
57454W        W21211  26.080   6.296  12.536
57455W        W21212  19.285  42.923  10.478
57456W        W21213  16.716  31.920   2.415
57457W        W21214  10.241  30.509  14.407
57458W        W21215  11.694  29.013  11.451
57459W        W21216  35.999   1.278   2.343
57460W        W21217  41.980  43.331   1.275
57461W        W21218  13.236  19.273  14.424
57462W        W21219  38.554  42.940   4.682
57463W        W21220   2.344  16.207   2.229
57464W        W21221  34.532   3.283  14.326
57465W        W21222  28.123  20.533  13.799
57466W        W21223   8.776  28.531  13.804
57467W        W21224   3.769   8.312   0.442
57468W        W21225   6.896  44.290  12.851
57469W        W21226  19.211   1.892   1.243
57470W        W21227   4.450  10.366  14.021
57471W        W21228   6.859  33.042   2.265
57472W        W21229  11.685  11.705  12.953
57473W        W21230  17.282  33.929   4.784
57474W        W21231   6.782  24.690   4.793
57475W        W21232  38.500  10.874   1.831
57476W        W21233  28.639  42.998   2.347
57477W        W21234  25.048  19.175   0.769
57478W        W21235   3.423  28.063   2.765
57479W        W21236  34.565  29.578  11.901
57480W        W21237  11.729  15.280  14.774
57481W        W21238  18.126  40.510  11.565
57482W        W21239   0.456  33.125   3.804
57483W        W21240  21.135  39.342   0.730
57484W        W21241  38.927  32.988   3.768
57485W        W21242   5.194  11.282  12.358
57486W        W21243  17.096   6.269  14.432
57487W        W21244  27.551  12.665  13.499
57488W        W21245   8.690  28.527  14.369
57489W        W21246  15.721  27.630  13.309
57490W        W21247  18.563  26.998  12.429
57491W        W21248  35.994  21.564  12.842
57492W        W21249  37.500  26.157   3.312
57493W        W21250   0.796   0.321  13.996
57494W        W21251  19.655  24.203   4.150
57495W        W21252  43.927  41.009  13.865
57496W        W21253  38.559  28.457  14.016
57497W        W21254  12.182   0.258  10.970
57498W        W21255  10.358  38.498   4.203
57499W        W21256  36.003  23.600  10.548
57500W        W21257  26.667  44.799   0.830
57501W        W21258  30.112   8.718   2.852
57502W        W21259  37.083  32.889  12.560
57503W        W21260  11.664  36.587  11.405
57504W        W21261  35.412  20.132  13.460
57505W        W21262  34.108   2.747   9.494
57506W        W21263  26.054  31.047   0.288
57507W        W21264   3.874  15.139   3.168
57508W        W21265  42.949  30.039   3.256
57509W        W21266  35.495   7.725   4.171
57510W        W21267   1.800  18.681  10.629
57511W        W21268  22.155  19.193  14.513
57512W        W21269  22.616  30.656   0.919
57513W        W21270  16.696  23.150  12.968
57514W        W21271  36.911  30.935   2.806
57515W        W21272  44.860  29.107  12.897
57516W        W21273  41.888   6.676  11.058
57517W        W21274  16.291  12.215  13.965
57518W        W21275  35.397  27.656   0.408
57519W        W21276  20.070  43.456  12.007
57520W        W21277  39.025  11.716  13.809
57521W        W21278   0.988  17.645   2.733
57522W        W21279  37.345  29.067  10.031
57523W        W21280  37.405   6.326   0.339
57524W        W21281   9.169   9.829  12.437
57525W        W21282  19.672  37.844  11.033
57526W        W21283  27.677  32.502   2.239
57527W        W21284  39.542  10.865   2.796
57528W        W21285  17.726  14.713   2.412
57529W        W21286   8.353  25.658  12.429
57530W        W21287  33.992  42.414  11.478
57531W        W21288  41.005   5.718  13.049
57532W        W21289  28.007   6.736  14.463
57533W        W21290  35.433  15.614   1.445
57534W        W21291  17.111  35.603   2.222
57535W        W21292  37.932  35.445   1.416
57536W        W21293  12.260   6.395   0.851
57537W        W21294  20.612  20.624   2.764
57538W        W21295  10.247  16.802  11.475
57539W        W21296  16.596  35.859   4.657
57540W        W21297   6.684   6.806  13.917
57541W        W21298   3.265  15.261   0.276
57542W        W21299  33.558   6.374  10.501
57543W        W21300   2.364   8.182  12.993
57544W        W21301  39.815  25.075  12.884
57545W        W21302   1.779  21.722  11.418
57546W        W21303   3.735  12.785   1.281
57547W        W21304   8.870  28.559  12.389
57548W        W21305  38.848  37.474   1.854
57549W        W21306  20.589  17.242   1.894
57550W        W21307  26.021  44.901   3.251
57551W        W21308   0.982  29.590   5.227
57552W        W21309  19.179  27.642   1.433
57553W        W21310  22.743  16.120  11.075
57554W        W21311  28.047  10.139   2.274
57555W        W21312  20.040   7.358   3.277
57556W        W21313  38.359  14.672   4.724
57557W        W21314  44.770   4.929  11.873
57558W        W21315  28.561   7.218   4.248
57559W        W21316  39.435  28.954   3.306
57560W        W21317  42.381   6.729   3.859
57561W        W21318  41.503   8.228   3.775
57562W        W21319  29.941  30.455  11.900
57563W        W21320  28.534  41.855  12.406
57564W        W21321   8.384  44.475   3.367
57565W        W21322   9.194  29.432   2.851
57566W        W21323  41.970  27.470  12.927
57567W        W21324   4.945  29.499  12.086
57568W        W21325  32.944  29.666  10.586
57569W        W21326  20.219   0.478  14.329
57570W        W21327  37.990  14.309  13.368
57571W        W21328  30.095   5.316   2.234
57572W        W21329   9.889  26.125  10.633
57573W        W21330  18.624   3.780  11.119
57574W        W21331  10.821   6.382  12.435
57575W        W21332  14.643   6.421  10.456
57576W        W21333  44.898  14.759  12.527
57577W        W21334  17.600  36.548   4.710
57578W        W21335  14.743  15.722   4.806
57579W        W21336  11.721   3.728  14.030
57580W        W21337  18.058  13.187   0.369
57581W        W21338  17.250  34.074  12.417
57582W        W21339  34.907  20.169   3.192
57583W        W21340   4.241   1.975   4.703
57584W        W21341  36.058   7.783   1.430
57585W        W21342   8.303  35.027  14.972
57586W        W21343  23.587  20.229   2.247
57587W        W21344  12.684  10.258   0.738
57588W        W21345   9.826  10.366   1.697
57589W        W21346  36.468  44.499  14.415
57590W        W21347  11.254  17.661   4.768
57591W        W21348  30.643  37.845  13.042
57592W        W21349  21.637  30.474   1.432
57593W        W21350  41.936  41.316  11.910
57594W        W21351  15.785  36.864   3.374
57595W        W21352   5.820  17.727   3.320
57596W        W21353  44.991  35.990   3.850
57597W        W21354  39.884  39.058   1.337
57598W        W21355  17.226  20.060  13.367
57599W        W21356  16.156  28.571   1.317
57600W        W21357  12.729   4.334  13.527
57601W        W21358  19.224  38.417  13.994
57602W        W21359  12.358  43.324  14.838
57603W        W21360  20.165  32.608  13.543
57604W        W21361  42.832  42.411   4.321
57605W        W21362  15.801  29.431   4.828
57606W        W21363  38.032  18.194  11.078
57607W        W21364  17.758   3.374   3.730
57608W        W21365   7.210   5.817  12.374
57609W        W21366  26.040  20.180   4.766
57610W        W21367   7.814   0.475   4.207
57611W        W21368   5.791  18.096   3.172
57612W        W21369   0.876  14.701  10.902
57613W        W21370  37.845   8.752  10.500
57614W        W21371  14.288   2.745  13.041
57615W        W21372  21.248  25.703  10.549
57616W        W21373  34.960  18.223  12.372
57617W        W21374   9.243  30.475  12.434
57618W        W21375   7.345  15.757  11.123
57619W        W21376   6.231  20.737   0.420
57620W        W21377  31.611  28.589   2.337
57621W        W21378  12.358  13.824  14.904
57622W        W21379  39.560   9.824  14.283
57623W        W21380  43.825  24.994   1.428
57624W        W21381  20.212  31.547  14.410
57625W        W21382  20.613  17.282  14.836
57626W        W21383  10.169  35.530   3.268
57627W        W21384  44.322  34.490   3.191
57628W        W21385  31.912  35.086  12.562
57629W        W21386  12.128  39.954  12.981
57630W        W21387   9.291  31.478   3.233
57631W        W21388  30.021  28.569  11.577
57632W        W21389  31.411  12.265   4.678
57633W        W21390  12.740  18.289  14.424
57634W        W21391  15.817   2.799  13.402
57635W        W21392   0.307  28.993  14.323
57636W        W21393   1.465   7.215   4.599
57637W        W21394  28.053   2.798   0.939
57638W        W21395  28.937  19.657   0.312
57639W        W21396  22.104  26.132  12.922
57640W        W21397  23.698   5.811   3.205
57641W        W21398   5.238  23.490   0.327
57642W        W21399  26.972  30.033  13.490
57643W        W21400   9.148  40.449   3.211
57644W        W21401  25.626   4.210   3.306
57645W        W21402   9.360  34.016   0.310
57646W        W21403  11.797  10.713   3.382
57647W        W21404   4.311  32.482   0.889
57648W        W21405   3.324  21.126   1.355
57649W        W21406  35.964  22.602  12.973
57650W        W21407  20.613  44.479  10.945
57651W        W21408  18.206  20.691   2.274
57652W        W21409   8.222  38.912   3.750
57653W        W21410  42.797  17.602   3.822
57654W        W21411  38.432  43.797   0.812
57655W        W21412  24.631  39.038  13.839
57656W        W21413  10.719  11.220  14.806
57657W        W21414   2.271  28.133   4.798
57658W        W21415  22.570   3.348   2.898
57659W        W21416  20.219  23.540   0.247
57660W        W21417  22.549  12.251   1.355
57661W        W21418  11.828  36.056   2.414
57662W        W21419  36.000  41.822   4.153
57663W        W21420  20.708   6.852  10.564
57664W        W21421  23.731  29.435  12.942
57665W        W21422  18.610   0.405  12.074
57666W        W21423   0.266  42.842  10.549
57667W        W21424  14.300  10.170   4.828
57668W        W21425   3.933   9.692   2.293
57669W        W21426  14.209  27.477   2.252
57670W        W21427  40.013   6.303   3.288
57671W        W21428   8.823  36.515  12.562
57672W        W21429  41.397  21.537   0.246
57673W        W21430  24.007   0.761  11.535
57674W        W21431  36.545  44.975  11.439
57675W        W21432   0.768  19.698  10.519
57676W        W21433  10.347  41.328   0.262
57677W        W21434  15.719  23.577  11.547
57678W        W21435  25.982  29.656   3.870
57679W        W21436  30.069   1.865  10.127
57680W        W21437  11.719  14.614   0.397
57681W        W21438  22.039  24.127   3.203
57682W        W21439  26.068  38.038   2.282
57683W        W21440  28.516  22.637   1.264
57684W        W21441  31.079  25.016  10.448
57685W        W21442  39.035  25.489   1.402
57686W        W21443  19.780  22.106  13.056
57687W        W21444  20.050  20.134   1.386
57688W        W21445  34.047  28.593   3.790
57689W        W21446  17.665  13.317   0.286
57690W        W21447   5.764  28.488  13.791
57691W        W21448  10.866  43.852  12.071
57692W        W21449   5.758  20.675  14.011
57693W        W21450  26.108  12.671   3.308
57694W        W21451  44.382  27.602  11.452
57695W        W21452   9.279  36.089  10.028
57696W        W21453  32.423  24.105   3.721
57697W        W21454   3.237   7.742   4.670
57698W        W21455  22.065  10.355  12.861
57699W        W21456  39.445  21.530  11.446
57700W        W21457  35.413  29.565  13.316
57701W        W21458  36.912   3.932   2.278
57702W        W21459  33.988  22.997  10.590
57703W        W21460  23.555  12.664  11.486
57704W        W21461   5.905  15.645  13.860
57705W        W21462  40.540  11.326  10.521
57706W        W21463  15.641  23.542  14.026
57707W        W21464  16.740  22.682  13.419
57708W        W21465  36.535  13.824   2.219
57709W        W21466   2.795   4.882   0.881
57710W        W21467  18.105  29.616   1.731
57711W        W21468  33.459  16.796   0.260
57712W        W21469  15.295  16.157   4.325
57713W        W21470   8.269   3.856  13.856
57714W        W21471  29.062   4.289  12.091
57715W        W21472  42.020  38.410   2.351
57716W        W21473   4.917  21.576   4.155
57717W        W21474  34.503   6.377   0.266
57718W        W21475  40.825  15.245  13.861
57719W        W21476  31.028  27.486  13.898
57720W        W21477  29.999   3.340   9.648
57721W        W21478  29.574  15.152  12.390
57722W        W21479  19.730  10.185   2.215
57723W        W21480  30.653  34.580   1.846
57724W        W21481  37.573  30.976   2.670
57725W        W21482  44.939  33.388  13.369
57726W        W21483  41.028  43.296   4.216
57727W        W21484  38.058  27.656   1.929
57728W        W21485  30.141  16.704  12.514
57729W        W21486   0.961  30.913   3.328
57730W        W21487  23.514   9.802  14.392
57731W        W21488  43.770  32.067   3.638
57732W        W21489  30.032  35.072   0.801
57733W        W21490   2.766  18.283   2.318
57734W        W21491  23.492  28.960   3.707
57735W        W21492  39.421  34.950   4.130
57736W        W21493   5.915   2.868   3.306
57737W        W21494  21.036  26.131  13.801
57738W        W21495  35.041  30.417  14.771
57739W        W21496  32.502   9.734  12.093
57740W        W21497  13.790  37.554  10.571
57741W        W21498  37.045   3.797  12.897
57742W        W21499   9.192  36.884   0.346
57743W        W21500  13.798   9.310   0.842
57744W        W21501  21.136  14.757  12.341
57745W        W21502  40.479  27.945  14.384
57746W        W21503   7.195  15.612  12.363
57747W        W21504  17.136  37.463  14.514
57748W        W21505  38.034  27.570   2.402
57749W        W21506  42.988  32.413  11.906
57750W        W21507  21.240  11.682   0.426
57751W        W21508  30.066  16.736  10.091
57752W        W21509  17.307  21.693  11.056
57753W        W21510  38.417  17.782  10.988
57754W        W21511  39.386  16.597  13.327
57755W        W21512   9.203   5.874  10.513
57756W        W21513  33.573  21.108  10.617
57757W        W21514  34.408  20.674   2.775
57758W        W21515   6.725  20.153   4.178
57759W        W21516  13.758   7.732   3.320
57760W        W21517  24.558   9.829   1.360
57761W        W21518   2.905  12.118   1.359
57762W        W21519   6.755  44.909   4.819
57763W        W21520  27.599   3.768   1.371
57764W        W21521   8.388  11.343  14.882
57765W        W21522  39.436  42.845  14.407
57766W        W21523  30.949  19.577  10.417
57767W        W21524  23.200  26.111   2.249
57768W        W21525  27.027   4.731   0.342
57769W        W21526   2.869  31.980  12.538
57770W        W21527  42.369  22.658  10.615
57771W        W21528  22.567  44.275  14.983
57772W        W21529   7.889  26.966  14.280
57773W        W21530  38.522  34.929  10.525
57774W        W21531   1.240  22.646  14.013
57775W        W21532  27.654  25.016  11.986
57776W        W21533   8.325   6.817  14.383
57777W        W21534  20.720  32.887   4.215
57778W        W21535  40.422  36.972   1.332
57779W        W21536  41.303  22.229  12.983
57780W        W21537  28.445  42.495   0.794
57781W        W21538  15.646   6.374   0.789
57782W        W21539   9.659  37.931   0.937
57783W        W21540  15.181   9.382   3.856
57784W        W21541  43.946  43.825   3.387
57785W        W21542   7.819   4.244   2.292
57786W        W21543  12.318  32.125  13.952
57787W        W21544   8.215   4.737  14.838
57788W        W21545   7.674  10.246  14.902
57789W        W21546  26.191  15.141  14.860
57790W        W21547   5.413   1.832  11.009
57791W        W21548  43.846  31.954   2.240
57792W        W21549  11.185  24.158   2.833
57793W        W21550  32.491  24.488   3.753
57794W        W21551  21.182  22.040  11.976
57795W        W21552  36.589  20.577   1.253
57796W        W21553   6.878  40.980   0.356
57797W        W21554  36.506  32.954  14.929
57798W        W21555  18.642  28.963  12.954
57799W        W21556  44.297  14.684  13.346
57800W        W21557  26.681  31.122  10.991
57801W        W21558  25.531  34.565  10.632
57802W        W21559   3.265  29.073   1.732
57803W        W21560  11.720  33.382  10.070
57804W        W21561  41.528  33.519  10.554
57805W        W21562  14.323  21.594   3.719
57806W        W21563  22.614  37.952   1.270
57807W        W21564  30.623  35.057   2.250
57808W        W21565   1.887  33.412   0.811
57809W        W21566  22.155  42.929   1.431
57810W        W21567  21.027   4.252  10.500
57811W        W21568  12.197  35.877  13.516
57812W        W21569  40.367   5.778   4.151
57813W        W21570  35.956  31.929   0.749
57814W        W21571  20.679  15.083   3.762
57815W        W21572  29.432  11.858   1.705
57816W        W21573  15.216  29.492   1.222
57817W        W21574  43.782   5.232   0.457
57818W        W21575  26.095   4.291   0.787
57819W        W21576  22.176  42.353  11.090
57820W        W21577  22.646  33.624   1.281
57821W        W21578  31.465   7.298   3.292
57822W        W21579  22.661   3.247  13.311
57823W        W21580  13.817   8.685   3.154
57824W        W21581  19.617   7.804  14.429
57825W        W21582  37.078  31.579  12.887
57826W        W21583  21.242  19.696  14.885
57827W        W21584  24.488  40.844  11.986
57828W        W21585   7.416  21.532   4.312
57829W        W21586  32.493   9.159  10.452
57830W        W21587  21.751  44.783  10.976
57831W        W21588  31.477  12.312  12.075
57832W        W21589  37.441   2.240   0.833
57833W        W21590  36.035   2.805  13.458
57834W        W21591   8.271  12.263   0.406
57835W        W21592   9.866  24.664  12.009
57836W        W21593  22.213  35.923  14.315
57837W        W21594   7.210  22.553   2.263
57838W        W21595   5.332   3.925  12.046
57839W        W21596  16.770  22.039   1.261
57840W        W21597  19.102   6.256   2.895
57841W        W21598  42.330  42.861  11.552
57842W        W21599  13.833  40.520   1.792
57843W        W21600  39.401  11.769  11.982
57844W        W21601  41.987  34.020  14.810
57845W        W21602  17.653  43.352   2.813
57846W        W21603  30.434  20.544  12.448
57847W        W21604  32.494  42.977   4.739
57848W        W21605  12.841  13.703  14.851
57849W        W21606  34.866   5.806  13.059
57850W        W21607   4.725  40.956  10.977
57851W        W21608  43.896   8.897   2.867
57852W        W21609   6.245  35.555   0.428
57853W        W21610  28.650  14.104  10.901
57854W        W21611  13.787  27.119  10.949
57855W        W21612  41.865  31.985  10.587
57856W        W21613  36.082  29.073   9.927
57857W        W21614  25.545  43.805   2.901
57858W        W21615  42.404  36.911  13.840
57859W        W21616  16.621  24.975   4.792
57860W        W21617  33.942  14.719  13.355
57861W        W21618  32.555  43.987   4.746
57862W        W21619  39.380  15.679   1.314
57863W        W21620  27.045  27.670   4.635
57864W        W21621  23.155   9.741   2.342
57865W        W21622   6.685  24.575   3.329
57866W        W21623  16.098   5.251   0.807
57867W        W21624  40.397  37.576   1.450
57868W        W21625  14.103  31.138  14.463
57869W        W21626   3.713  15.815  11.116
57870W        W21627   6.831  39.971   5.167
57871W        W21628  14.640   3.237  14.510
57872W        W21629  39.914  26.177   2.254
57873W        W21630   5.410   7.714   3.293
57874W        W21631  35.997  20.541  11.068
57875W        W21632  20.745  25.679  10.981
57876W        W21633   5.355  16.119  12.356
57877W        W21634  21.514  18.728   2.756
57878W        W21635  30.054   3.401  13.438
57879W        W21636  37.424   3.267  12.366
57880W        W21637   7.827  29.175   1.880
57881W        W21638  27.504  36.081   1.230
57882W        W21639  32.119  14.708  12.425
57883W        W21640  37.035   1.914   1.342
57884W        W21641  13.320  43.978   5.572
57885W        W21642  16.294  10.207   2.690
57886W        W21643  39.030   7.840  14.499
57887W        W21644   5.390   8.341   2.817
57888W        W21645  29.051  25.691  10.159
57889W        W21646  29.468  24.120  10.530
57890W        W21647  22.130  35.885   3.810
57891W        W21648   9.697  26.594   4.727
57892W        W21649  17.100  11.158  11.871
57893W        W21650  10.722  26.115  11.975
57894W        W21651   0.868   7.234  13.401
57895W        W21652   0.869   5.901   4.322
57896W        W21653   4.445  44.384  11.519
57897W        W21654  17.684  44.449   3.171
57898W        W21655  18.058   2.353  10.920
57899W        W21656  17.573  20.064  13.333
57900W        W21657  17.793  23.188  12.878
57901W        W21658  38.955   3.387   3.376
57902W        W21659  14.756   5.372  12.007
57903W        W21660  14.330  42.401  12.421
57904W        W21661  29.608  15.730   4.118
57905W        W21662  24.115  26.959   1.341
57906W        W21663  38.869  37.471   3.279
57907W        W21664  25.061  34.535  11.072
57908W        W21665  43.467  21.037  10.572
57909W        W21666  28.624  33.450   3.639
57910W        W21667  19.277  11.751   4.243
57911W        W21668  38.060  29.101  11.997
57912W        W21669  44.281  27.051  10.086
57913W        W21670  40.475  14.823   2.376
57914W        W21671  26.124  39.456  10.601
57915W        W21672  26.976   9.393  10.463
57916W        W21673   4.751  40.304  13.468
57917W        W21674  22.702  42.490   4.617
57918W        W21675  28.568  21.708  11.043
57919W        W21676  16.710   8.827  13.324
57920W        W21677  35.056  25.174  13.056
57921W        W21678   2.235  17.632  13.010
57922W        W21679   9.222  10.243  14.280
57923W        W21680  28.072   0.258   4.742
57924W        W21681   3.366  32.082   2.772
57925W        W21682  43.011  15.214  10.964
57926W        W21683   4.320  13.126   0.372
57927W        W21684   2.278  10.865  11.932
57928W        W21685  17.165  18.654   2.181
57929W        W21686  16.624  13.268   5.797
57930W        W21687  19.771  16.771   3.180
57931W        W21688  39.842   1.268  10.104
57932W        W21689  13.754  13.641  14.807
57933W        W21690  31.111  44.380  10.087
57934W        W21691  44.378  33.950   5.147
57935W        W21692  42.010  38.035  12.076
57936W        W21693  37.863  16.807   4.333
57937W        W21694  27.680   1.468  11.916
57938W        W21695  19.076  19.125  12.885
57939W        W21696  41.889  39.495  12.916
57940W        W21697  26.119  41.308   4.655
57941W        W21698  24.033  23.542   1.268
57942W        W21699  20.153  21.632   1.345
57943W        W21700  42.983   3.900   1.313
57944W        W21701   9.787   3.318   3.693
57945W        W21702  13.698  27.604   0.769
57946W        W21703  41.500   3.228  13.342
57947W        W21704   0.461  30.580  10.478
57948W        W21705  11.745   1.290   2.814
57949W        W21706  14.156  29.491   4.197
57950W        W21707  14.594  29.099  12.360
57951W        W21708  34.424  13.327  11.494
57952W        W21709  14.215  14.181  10.529
57953W        W21710   1.340   5.305   2.889
57954W        W21711   5.766  44.267  11.103
57955W        W21712  17.306  36.579   3.169
57956W        W21713  37.454  33.104  11.006
57957W        W21714  33.625   3.244  10.949
57958W        W21715  11.170  16.786   1.718
57959W        W21716  18.599   9.849  11.007
57960W        W21717  44.971   5.406   3.169
57961W        W21718  12.636  20.243  10.933
57962W        W21719  17.292  18.575   4.173
57963W        W21720  22.225  23.713   0.887
57964W        W21721  39.422  39.863   1.916
57965W        W21722   4.839  43.841  12.455
57966W        W21723  20.136  39.044  11.419
57967W        W21724  29.940  31.441  12.558
57968W        W21725  37.424  28.989   0.259
57969W        W21726  10.163  22.139   9.945
57970W        W21727  37.474  34.974   1.921
57971W        W21728  22.642  36.059   4.298
57972W        W21729  11.625   0.466   4.807
57973W        W21730  19.660  39.369   4.649
57974W        W21731  36.449  44.868   4.777
57975W        W21732   8.842   6.188   4.235
57976W        W21733  11.843  19.164  12.048
57977W        W21734  25.544  12.747   1.396
57978W        W21735  11.811  25.962  12.069
57979W        W21736  40.002  41.345  14.020
57980W        W21737   8.897  44.386  13.827
57981W        W21738  19.653  38.411   1.769
57982W        W21739   4.740  34.453   2.342
57983W        W21740   6.233  21.061   4.308
57984W        W21741  13.171  28.592  14.980
57985W        W21742  41.354  10.283   4.719
57986W        W21743  28.058  16.149   3.717
57987W        W21744  29.433  23.040   4.154
57988W        W21745  37.504  28.475   3.310
57989W        W21746  29.601  40.014   4.600
57990W        W21747  41.366  27.495  14.483
57991W        W21748   5.356  42.357  10.929
57992W        W21749  21.116   2.838   1.326
57993W        W21750  30.503  30.059   0.820
57994W        W21751  27.593   6.824  11.914
57995W        W21752   0.900  14.237   3.711
57996W        W21753  21.026  35.525  13.052
57997W        W21754  28.099  13.206  10.584
57998W        W21755   7.315   2.253  12.390
57999W        W21756  21.228  24.119   2.879
58000W        W21757  34.424   5.711   2.261
58001W        W21758  18.746  33.032   4.233
58002W        W21759   4.221  33.596  13.985
58003W        W21760   9.865  14.729   4.744
58004W        W21761  34.937   9.302  13.312
58005W        W21762  35.905  30.080   3.228
58006W        W21763  44.983  10.203  12.039
58007W        W21764  39.862  24.538   2.840
58008W        W21765  44.997   0.817  10.461
58009W        W21766  22.056  44.311  14.376
58010W        W21767  38.561   8.658   3.381
58011W        W21768  33.089   1.828  14.304
58012W        W21769  37.336  40.932  11.971
58013W        W21770  32.068  41.880   1.345
58014W        W21771  25.671  21.055  14.902
58015W        W21772  38.858  41.526   4.791
58016W        W21773   1.426  32.994   0.366
58017W        W21774  19.637   2.828  11.473
58018W        W21775  41.868  31.570  14.485
58019W        W21776  26.004  42.449  10.640
58020W        W21777   0.438  32.141   4.246
58021W        W21778   0.372  11.737  12.865
58022W        W21779  18.755  41.835   3.272
58023W        W21780  24.538  20.569  10.519
58024W        W21781  38.501  25.624   2.220
58025W        W21782   3.767  24.109   0.441
58026W        W21783  27.055  12.273   2.380
58027W        W21784  24.995  11.712  10.482
58028W        W21785  25.130  37.020  13.057
58029W        W21786  19.258   1.328  10.528
58030W        W21787  12.651  14.133   3.176
58031W        W21788  21.081   7.834  12.927
58032W        W21789  17.601  10.794  13.854
58033W        W21790   6.739  31.096   1.329
58034W        W21791  19.068   9.739   0.867
58035W        W21792  15.781  22.554   1.344
58036W        W21793  34.389  42.993   4.755
58037W        W21794  21.631  40.331  11.963
58038W        W21795  10.376  44.782  13.908
58039W        W21796  11.162  27.148  12.946
58040W        W21797  31.026  33.964  14.902
58041W        W21798  12.297  28.007  13.851
58042W        W21799   2.883  21.538  13.980
58043W        W21800  21.740   2.336   1.226
58044W        W21801  20.040  39.014   3.318
58045W        W21802   6.393   5.896  10.013
58046W        W21803   3.345  30.981  14.021
58047W        W21804  30.530  30.552   0.253
58048W        W21805   9.216  37.055  14.309
58049W        W21806  26.631  17.073   4.691
58050W        W21807  10.750  23.224  10.604
58051W        W21808  44.478  33.960   4.810
58052W        W21809  30.571  15.213   4.252
58053W        W21810   4.843   6.818  13.976
58054W        W21811   7.723  15.160   0.330
58055W        W21812  24.663  34.048   0.827
58056W        W21813  12.672  27.601   1.762
58057W        W21814  17.160  35.439  10.577
58058W        W21815   6.396  16.658  12.915
58059W        W21816  33.066  18.670   4.652
58060W        W21817  36.975  26.498  11.870
58061W        W21818  20.559  31.985   0.331
58062W        W21819  20.214  28.500   1.898
58063W        W21820  24.006  34.563   3.644
58064W        W21821  36.858  30.498  11.406
58065W        W21822   1.281  43.274   1.726
58066W        W21823  42.949  27.098   2.889
58067W        W21824  36.072  33.571   1.737
58068W        W21825  35.371  39.400  12.913
58069W        W21826  29.490  16.135   1.263
58070W        W21827  33.577  38.418  13.829
58071W        W21828  25.515  37.405  11.530
58072W        W21829  29.019  21.028   3.153
58073W        W21830  16.264  17.301  12.531
58074W        W21831  23.021  39.983   1.805
58075W        W21832   9.320  39.839  12.830
58076W        W21833   0.909  38.937   1.375
58077W        W21834  24.511  43.478   2.730
58078W        W21835  20.647  27.148  14.345
58079W        W21836  35.469  36.561  12.563
58080W        W21837  11.252  29.642   3.372
58081W        W21838   6.834  36.937  12.575
58082W        W21839  38.505  37.931   4.319
58083W        W21840  30.594  27.059  14.335
58084W        W21841  24.551  34.370   0.835
58085W        W21842  35.864   4.220  10.590
58086W        W21843  17.757  38.895   0.760
58087W        W21844  28.556  37.404   3.379
58088W        W21845  24.180  12.688  13.419
58089W        W21846  42.498   8.194  14.359
58090W        W21847  41.515  24.566   1.282
58091W        W21848  39.912   2.833  12.082
58092W        W21849  25.474  24.535  14.506
58093W        W21850  17.590  30.114   0.329
58094W        W21851  20.578  13.130   0.754
58095W        W21852   3.875  29.447   1.233
58096W        W21853  31.540  32.101   2.396
58097W        W21854  37.406  32.110   4.599
58098W        W21855  37.456  16.621  12.404
58099W        W21856  40.468  29.046   0.471
58100W        W21857  17.197  11.178  12.828
58101W        W21858  42.342  16.608  14.906
58102W        W21859  32.458  41.787   4.193
58103W        W21860  34.916  37.028   0.930
58104W        W21861  14.129   0.270   4.163
58105W        W21862   8.170  34.487  13.432
58106W        W21863  34.409  25.706  12.043
58107W        W21864  24.139   4.388  13.336
58108W        W21865  32.497  19.780  14.973
58109W        W21866   5.926  21.631   2.717
58110W        W21867  36.574  13.337  10.936
58111W        W21868  24.598   7.676   4.673
58112W        W21869  24.228  27.548  14.471
58113W        W21870   2.758  41.985  12.580
58114W        W21871  30.987  20.733   3.348
58115W        W21872  29.431   5.422  14.965
58116W        W21873  12.189  42.827  13.506
58117W        W21874  24.086  10.813   3.242
58118W        W21875  33.534  16.676   4.830
58119W        W21876   1.943  14.705   2.811
58120W        W21877  34.589   7.824  14.388
58121W        W21878  42.799  21.638  14.283
58122W        W21879  36.996  26.096   0.339
58123W        W21880   9.750  18.591  12.554
58124W        W21881  35.390  12.344  13.476
58125W        W21882  11.741  23.565   0.842
58126W        W21883   2.737  14.758   2.179
58127W        W21884   3.287  14.339  14.854
58128W        W21885  11.843   2.787   4.330
58129W        W21886  23.238  15.789   4.310
58130W        W21887  29.642   8.788  12.533
58131W        W21888  36.563  35.890  13.339
58132W        W21889  41.500  26.649   1.730
58133W        W21890   6.308  23.157  11.004
58134W        W21891  30.578   5.881  10.472
58135W        W21892  35.484  19.553  12.079
58136W        W21893  33.906   2.347   2.187
58137W        W21894  39.423  30.514   4.678
58138W        W21895   9.207  23.693  10.945
58139W        W21896  36.355  15.157   4.239
58140W        W21897  24.701  26.647  14.990
58141W        W21898  20.594  37.854   3.154
58142W        W21899  42.915  18.087   4.826
58143W        W21900  41.490  35.453  11.428
58144W        W21901   1.756  10.689   2.665
58145W        W21902  35.085  30.965   1.435
58146W        W21903  40.888   6.708  10.463
58147W        W21904  12.261  43.484   0.797
58148W        W21905  27.586  15.740   2.320
58149W        W21906   2.726   8.746   0.309
58150W        W21907  30.479  39.986  14.478
58151W        W21908   1.243  19.566   3.729
58152W        W21909  29.104   6.341   4.764
58153W        W21910  21.177  36.027   1.799
58154W        W21911  40.990  34.001   0.897
58155W        W21912  24.622  17.128   0.933
58156W        W21913  14.736  15.714  11.537
58157W        W21914  28.055  43.821   4.215
58158W        W21915  14.769  30.425  12.461
58159W        W21916   4.764  32.054  11.876
58160W        W21917  31.500  16.074   5.318
58161W        W21918  40.531  12.294   2.893
58162W        W21919  38.825  27.602  12.935
58163W        W21920  17.623  33.533   3.801
58164W        W21921  32.010   7.800   1.225
58165W        W21922  40.941  17.272  10.462
58166W        W21923  24.513  37.849   1.412
58167W        W21924  10.640  13.788  14.843
58168W        W21925  42.929  22.156   4.712
58169W        W21926   4.350   4.263   1.377
58170W        W21927  40.822  31.431  12.351
58171W        W21928   2.443  18.719   2.357
58172W        W21929  25.544  27.468   2.902
58173W        W21930  32.582  30.635  13.508
58174W        W21931  28.093  29.590   5.305
58175W        W21932  23.723  25.514   3.246
58176W        W21933   2.764   1.333   0.813
58177W        W21934  43.419  35.470  11.578
58178W        W21935  11.682  10.339   1.836
58179W        W21936  21.744  43.491  13.972
58180W        W21937  33.387   4.741  11.033
58181W        W21938   1.843  24.604  13.450
58182W        W21939   9.394  35.430  12.369
58183W        W21940  25.176  24.602   3.834
58184W        W21941  17.561  13.185  11.088
58185W        W21942  42.445  12.171  10.574
58186W        W21943  16.231  24.224   2.293
58187W        W21944   3.220  44.804  12.853
58188W        W21945  38.963  38.475   3.868
58189W        W21946  16.622  24.587  10.638
58190W        W21947  40.353   3.303  10.922
58191W        W21948  35.871  28.640  12.505
58192W        W21949  18.163  22.596  11.475
58193W        W21950  38.047  20.692  11.067
58194W        W21951   5.373  33.488   3.253
58195W        W21952  23.091   3.331  11.554
58196W        W21953  14.315  43.462   2.679
58197W        W21954  35.961  35.046   3.742
58198W        W21955  41.346  24.182  11.581
58199W        W21956  35.103  20.219  12.092
58200W        W21957  15.775   0.476  13.923
58201W        W21958  31.951   2.350  10.057
58202W        W21959  40.519   9.695   0.909
58203W        W21960   9.877  19.182   3.778
58204W        W21961  15.261  13.652  13.445
58205W        W21962  12.117  18.209  13.547
58206W        W21963  11.770  18.171   2.862
58207W        W21964  13.155  16.681   4.743
58208W        W21965   8.701  34.868   0.437
58209W        W21966  43.433  26.984   4.289
58210W        W21967  36.584  39.888   2.810
58211W        W21968  30.930  40.477   2.722
58212W        W21969  31.506  27.604  13.324
58213W        W21970  14.588  31.002  13.959
58214W        W21971  22.592   2.765   4.767
58215W        W21972  33.913  37.037  12.949
58216W        W21973  25.623   8.265   4.829
58217W        W21974  19.090  25.640   3.759
58218W        W21975  23.178  16.227   4.633
58219W        W21976  20.722  17.122   1.277
58220W        W21977  34.538  15.123  12.827
58221W        W21978  27.071  10.193  13.946
58222W        W21979  36.424  14.127   3.705
58223W        W21980  10.660   4.924  14.773
58224W        W21981  35.556  14.224   4.214
58225W        W21982  41.331  25.161  11.560
58226W        W21983  31.062  30.428  14.919
58227W        W21984  42.821  27.669   0.883
58228W        W21985  31.899  16.250   3.825
58229W        W21986  25.167  43.787   0.913
58230W        W21987  18.567  20.029   2.272
58231W        W21988  26.074  39.433  13.328
58232W        W21989  30.527  28.980  10.597
58233W        W21990  29.570  36.468   0.421
58234W        W21991  36.000  36.473   1.230
58235W        W21992  16.145  18.754  14.440
58236W        W21993  34.053  36.048  10.643
58237W        W21994  15.619  14.631   1.445
58238W        W21995  29.553  13.292   3.751
58239W        W21996  33.462  12.653  10.582
58240W        W21997  10.183  30.610  10.523
58241W        W21998  24.538  23.145   4.783
58242W        W21999  15.285  29.104  10.997
58243W        W22000  32.589  26.462  10.601
58244W        W22001  30.975  37.949   0.438
58245W        W22002   3.725   0.360   4.652
58246W        W22003  11.356  43.516   2.822
58247W        W22004  36.091  11.770   1.361
58248W        W22005  37.885  31.437   4.775
58249W        W22006  29.433  40.394  13.921
58250W        W22007  10.650  44.829   0.450
58251W        W22008   6.374  12.360   3.273
58252W        W22009   8.695  27.114   1.854
58253W        W22010  35.993  10.780  13.424
58254W        W22011  44.449  28.111   3.860
58255W        W22012  44.303  38.848  14.883
58256W        W22013   2.798  24.026  12.502
58257W        W22014  32.086  36.569   1.827
58258W        W22015  13.339  32.003   4.818
58259W        W22016  33.903   0.869  14.355
58260W        W22017   0.345  31.139  12.909
58261W        W22018  22.039  31.638  10.601
58262W        W22019  39.041   4.810  10.551
58263W        W22020   2.453  15.280  10.447
58264W        W22021  21.625  31.944   5.154
58265W        W22022  36.377   1.451  12.928
58266W        W22023  13.679  42.966   1.442
58267W        W22024  44.907  20.756   3.701
58268W        W22025  40.348  24.169   0.802
58269W        W22026  43.391  11.368  11.407
58270W        W22027  32.564   3.766  10.904
58271W        W22028  21.248  27.560   3.190
58272W        W22029  17.658  31.998  12.954
58273W        W22030  17.701   0.896  10.479
58274W        W22031  14.169  29.044  14.940
58275W        W22032   4.449   1.338  11.536
58276W        W22033   4.280  29.480   2.198
58277W        W22034   2.385  10.772  13.426
58278W        W22035  26.029  13.144   3.166
58279W        W22036  29.431  18.650   4.236
58280W        W22037  18.642  21.207  10.506
58281W        W22038  13.759  23.062  12.846
58282W        W22039  10.346  44.942  12.875
58283W        W22040   1.417  24.041   1.865
58284W        W22041  29.537  26.204  12.374
58285W        W22042   7.384   3.266   4.736
58286W        W22043  30.080  10.662   2.789
58287W        W22044  25.584   7.318   3.811
58288W        W22045  27.599  41.899  13.523
58289W        W22046  34.925  39.007  11.570
58290W        W22047  41.504   9.859  10.641
58291W        W22048  20.611   0.300   0.313
58292W        W22049  39.489  21.617   1.302
58293W        W22050  44.465  27.457  11.973
58294W        W22051  18.563  29.660   4.260
58295W        W22052  22.711  38.496  13.541
58296W        W22053  31.928  33.002   3.666
58297W        W22054  43.271  10.755  10.410
58298W        W22055  17.640  42.299  12.081
58299W        W22056   1.282  14.733   3.726
58300W        W22057  41.870  44.330   1.896
58301W        W22058  22.076  15.707  13.981
58302W        W22059  21.750   0.422   3.345
58303W        W22060  23.114   3.274  14.968
58304W        W22061  21.216  22.667  11.512
58305W        W22062  40.548  16.093  13.473
58306W        W22063  40.867  34.927   1.842
58307W        W22064  10.345   7.261  11.506
58308W        W22065  24.103  24.181  10.486
58309W        W22066  19.591   0.259   1.448
58310W        W22067  33.491  42.329   0.373
58311W        W22068  31.500  32.019   0.406
58312W        W22069  13.756  22.597  11.108
58313W        W22070  14.312  36.996  13.866
58314W        W22071  24.548  32.491  12.964
58315W        W22072  11.358  23.145  14.999
58316W        W22073   4.743  40.419   0.448
58317W        W22074  43.916  17.071  10.523
58318W        W22075  35.898   8.764   1.220
58319W        W22076  33.421  24.687   2.863
58320W        W22077  44.333  13.638   1.245
58321W        W22078  27.677  22.126   3.279
58322W        W22079  36.090  36.489   3.219
58323W        W22080  30.997  27.623   3.808
58324W        W22081  18.234  42.844   2.839
58325W        W22082  15.773  38.903  10.562
58326W        W22083  21.640  18.140   4.218
58327W        W22084   2.782  39.039   4.266
58328W        W22085  39.375  28.103  10.423
58329W        W22086  27.994  38.424   4.146
58330W        W22087  14.628   0.360   1.925
58331W        W22088  18.071  27.524   3.331
58332W        W22089   7.770   5.266   2.881
58333W        W22090  23.729  37.835   1.278
58334W        W22091   7.842   3.926   1.821
58335W        W22092   9.843  11.839  11.565
58336W        W22093   4.924  32.887   0.826
58337W        W22094  31.142  15.714   1.827
58338W        W22095  15.728   3.738   3.857
58339W        W22096  28.561  21.021  12.090
58340W        W22097  20.138  23.072   2.668
58341W        W22098  27.028  13.800  12.506
58342W        W22099  25.155  27.991   1.709
58343W        W22100  25.495  39.040  11.502
58344W        W22101  32.091  43.439  12.567
58345W        W22102  20.187  14.105  12.962
58346W        W22103  16.165  11.243  13.934
58347W        W22104  10.841  29.645   0.479
58348W        W22105   8.210  11.779   3.305
58349W        W22106  16.759  10.320  13.927
58350W        W22107  14.592  23.195   4.336
58351W        W22108   5.934   8.882   0.329
58352W        W22109  15.257   2.421   0.279
58353W        W22110  22.150  36.041   1.930
58354W        W22111  43.400  27.043  13.045
58355W        W22112  19.049  10.755  13.541
58356W        W22113  27.683   5.306  14.854
58357W        W22114  22.041  33.478  13.992
58358W        W22115   5.195  38.850   2.179
58359W        W22116  25.580   9.875  12.537
58360W        W22117  16.140  10.312   2.336
58361W        W22118   0.357  25.589  11.426
58362W        W22119  17.578  26.008  13.906
58363W        W22120  38.484  30.434   2.315
58364W        W22121   1.838  39.542  12.069
58365W        W22122  26.180  44.419  12.483
58366W        W22123  37.847   1.433   1.731
58367W        W22124  26.986  25.973  12.831
58368W        W22125  38.416  37.353  11.865
58369W        W22126   5.839   9.732   3.752
58370W        W22127  10.652  23.698  10.571
58371W        W22128  12.275  10.636  11.002
58372W        W22129  13.189   0.791  10.120
58373W        W22130  42.972  16.790  11.045
58374W        W22131  29.100  19.701  12.999
58375W        W22132  10.309  19.055   0.406
58376W        W22133   0.973  31.610  13.540
58377W        W22134  44.368  24.212  14.300
58378W        W22135  40.019  36.860  10.466
58379W        W22136  27.510  11.145   0.302
58380W        W22137  26.185  25.517   3.287
58381W        W22138  19.565  25.170  10.432
58382W        W22139  24.084  38.382   4.211
58383W        W22140  33.122  33.479   3.223
58384W        W22141   0.494  41.505  10.944
58385W        W22142  21.754  36.448   1.853
58386W        W22143  11.643  12.631   0.258
58387W        W22144  18.555  13.168  12.935
58388W        W22145  19.560  36.880  14.762
58389W        W22146  13.843   0.899  13.544
58390W        W22147  36.898   8.360  14.906
58391W        W22148  25.030  29.602   2.296
58392W        W22149  39.508  24.106  13.936
58393W        W22150  16.793   2.244  13.541
58394W        W22151  41.332  41.341   1.382
58395W        W22152   9.735  21.241   3.379
58396W        W22153   2.266  19.744   1.324
58397W        W22154  27.155   7.887  13.872
58398W        W22155  30.087  15.114  12.009
58399W        W22156  44.369  26.668  14.981
58400W        W22157  11.712  23.537  14.856
58401W        W22158  28.115  13.839  12.859
58402W        W22159   2.402  21.090   1.924
58403W        W22160   8.751  25.551   2.889
58404W        W22161  27.028  44.917  14.923
58405W        W22162  39.846  12.723   4.762
58406W        W22163  21.741   1.407  11.099
58407W        W22164   8.201  16.095   5.296
58408W        W22165  33.127  22.716  14.827
58409W        W22166   7.795  33.592   1.917
58410W        W22167  15.817   5.253   4.632
58411W        W22168  16.666   8.724  14.409
58412W        W22169  39.839  22.593   0.948
58413W        W22170  41.981  10.804  10.987
58414W        W22171  24.992   1.741   4.344
58415W        W22172  22.567  22.142  14.359
58416W        W22173   8.698  39.475   0.810
58417W        W22174  32.578  19.639  14.469
58418W        W22175  29.658  40.354   4.131
58419W        W22176  30.583  19.655   0.416
58420W        W22177  44.875  38.031   3.862
58421W        W22178   4.715  22.664   0.446
58422W        W22179  20.537  39.043  13.360
58423W        W22180   2.466   5.755  10.562
58424W        W22181   0.786  13.753   2.692
58425W        W22182  27.182  34.002   1.339
58426W        W22183  17.212   3.258   4.800
58427W        W22184  35.968  30.449  13.469
58428W        W22185  39.953  32.995   2.322
58429W        W22186  13.707  13.327   2.340
58430W        W22187  30.152  39.817  12.039
58431W        W22188  17.225  16.263  11.885
58432W        W22189  27.084  31.640   4.146
58433W        W22190   1.326   8.755   1.352
58434W        W22191  42.809   5.305  11.530
58435W        W22192   1.898   7.269   3.689
58436W        W22193   0.463   4.917   2.681
58437W        W22194  41.887  12.736   3.642
58438W        W22195  36.060  43.374   2.187
58439W        W22196   6.253  26.569   4.643
58440W        W22197   5.257  41.029   3.672
58441W        W22198  21.195  28.979  12.458
58442W        W22199  14.094  34.501  13.054
58443W        W22200  20.721  44.489  13.022
58444W        W22201  36.405  31.930   0.735
58445W        W22202  20.079  19.087   0.903
58446W        W22203  24.149   1.279  12.067
58447W        W22204  10.163  27.476   3.859
58448W        W22205  14.688   0.849  10.560
58449W        W22206  27.102  27.553   1.770
58450W        W22207   0.785  17.613   3.184
58451W        W22208  27.159   1.955  11.445
58452W        W22209  27.541  31.552   1.425
58453W        W22210  19.052  43.340   1.257
58454W        W22211  15.605  33.108  10.087
58455W        W22212  25.181  12.329   1.700
58456W        W22213  12.802  30.103  12.421
58457W        W22214  32.598  18.249   4.675
58458W        W22215   0.906  19.218  13.494
58459W        W22216   9.279  39.463  12.945
58460W        W22217  28.552  35.059   1.740
58461W        W22218  16.720  24.143   4.199
58462W        W22219   9.667  29.583   2.243
58463W        W22220  15.250  26.021   2.791
58464W        W22221  25.626  23.996   2.751
58465W        W22222  36.540  33.123   0.943
58466W        W22223  36.572  16.656  12.907
58467W        W22224   0.810  11.169   1.834
58468W        W22225  20.650  41.008  11.061
58469W        W22226  17.726  26.094  11.900
58470W        W22227  23.489  41.390   4.738
58471W        W22228  10.777  37.543  14.395
58472W        W22229  10.282   7.860  14.028
58473W        W22230  39.050   8.295   2.844
58474W        W22231  22.671  17.559  13.349
58475W        W22232  29.010   7.702   0.425
58476W        W22233   0.982  21.151  12.576
58477W        W22234  33.051  42.505  12.899
58478W        W22235  33.896   5.422   3.758
58479W        W22236  38.499  38.868   4.762
58480W        W22237  25.478   5.252   1.318
58481W        W22238  31.010  18.183   2.285
58482W        W22239   2.467   4.244  10.514
58483W        W22240  43.333  14.131   5.112
58484W        W22241  44.487  10.735   3.375
58485W        W22242  18.280  15.591  14.760
58486W        W22243   4.738  16.775  12.922
58487W        W22244  40.314  38.393  14.321
58488W        W22245  17.768  24.652   1.324
58489W        W22246  43.269   7.276   2.231
58490W        W22247   9.669   3.342  11.860
58491W        W22248  21.025  18.171  11.435
58492W        W22249  30.160  18.097   1.930
58493W        W22250   1.241  16.794   2.722
58494W        W22251  24.572  36.850   4.798
58495W        W22252  25.644   8.692   3.668
58496W        W22253   1.329   5.870  14.839
58497W        W22254  36.421   6.198   1.340
58498W        W22255   9.888   8.754  14.421
58499W        W22256  15.775  38.518  10.470
58500W        W22257   6.404  26.128  11.061
58501W        W22258   7.815  14.679  14.798
58502W        W22259  21.168   8.722   1.295
58503W        W22260  23.217  32.523   0.947
58504W        W22261  32.066  34.591   0.259
58505W        W22262   7.400  10.377  13.452
58506W        W22263   5.355  42.983   4.789
58507W        W22264  24.709  17.247   1.763
58508W        W22265  15.766  21.706   1.752
58509W        W22266  43.860   0.873   2.283
58510W        W22267  40.543  41.356  14.004
58511W        W22268  23.671  16.186   1.417
58512W        W22269   5.875  18.731  10.104
58513W        W22270  43.789  23.140   4.316
58514W        W22271   3.731  40.384   0.805
58515W        W22272  42.872  37.078  14.851
58516W        W22273   0.341  17.611   4.261
58517W        W22274  18.253  24.005  12.990
58518W        W22275  39.890  13.275  11.507
58519W        W22276  42.406  17.593  11.935
58520W        W22277  39.508   6.390  12.846
58521W        W22278  15.792   4.247  12.909
58522W        W22279  43.914  25.048   0.778
58523W        W22280  22.134  35.931  12.504
58524W        W22281  44.849  28.658  10.480
58525W        W22282  32.523  11.825  12.571
58526W        W22283  29.097  25.051   0.779
58527W        W22284  22.148  22.185  13.885
58528W        W22285  38.420  24.001   3.704
58529W        W22286  31.500  16.187  13.837
58530W        W22287   0.790  16.243   3.320
58531W        W22288  40.383  39.396   3.676
58532W        W22289  14.331  27.958  14.348
58533W        W22290  42.351  30.601   4.162
58534W        W22291  11.793  15.270   4.160
58535W        W22292   0.430  17.065  13.046
58536W        W22293  26.971  12.340   1.380
58537W        W22294  40.035  31.407  14.991
58538W        W22295   6.859  21.102  14.833
58539W        W22296  23.530  22.524   1.900
58540W        W22297  19.543  13.665  11.546
58541W        W22298  34.988  11.157  12.991
58542W        W22299   7.300  18.702   0.842
58543W        W22300  25.649   1.354   2.351
58544W        W22301  25.688  36.898   0.456
58545W        W22302  21.629  10.791  11.940
58546W        W22303  20.174  16.260  12.042
58547W        W22304   9.738  44.270  12.349
58548W        W22305  37.085  12.639   2.392
58549W        W22306  37.012   0.436   0.826
58550W        W22307  38.495  38.369   2.179
58551W        W22308  34.882  39.039  11.914
58552W        W22309  29.495   9.190   1.840
58553W        W22310  15.172   1.421  10.087
58554W        W22311  16.639  21.157   4.229
58555W        W22312  22.091  18.545  11.065
58556W        W22313  29.457  42.437   1.715
58557W        W22314   3.263  16.313   4.176
58558W        W22315  23.018  25.070  11.059
58559W        W22316   1.331  11.735   3.239
58560W        W22317  14.129  28.172   0.852
58561W        W22318  43.449  31.533  10.930
58562W        W22319  32.515  32.492  14.761
58563W        W22320  16.708  28.478   3.840
58564W        W22321  43.315  23.631   1.739
58565W        W22322  17.169   9.776  10.924
58566W        W22323  11.241   6.901  10.954
58567W        W22324  24.062  42.778  14.425
58568W        W22325  19.592   5.333   0.306
58569W        W22326   3.766  22.220   3.150
58570W        W22327  15.238   2.874   2.261
58571W        W22328  36.919   9.210  12.575
58572W        W22329  19.225  12.733  10.978
58573W        W22330   5.396  11.663   4.725
58574W        W22331  16.772  28.479  11.605
58575W        W22332  43.289  16.707  12.456
58576W        W22333  10.638   7.331   0.821
58577W        W22334   2.434   0.333   1.399
58578W        W22335  22.688  19.718  12.461
58579W        W22336  31.906  38.405  13.963
58580W        W22337  11.299   5.351   0.776
58581W        W22338  41.298   5.340   2.708
58582W        W22339   9.755  18.127   4.732
58583W        W22340  19.753  42.961   3.210
58584W        W22341  24.678   4.833  10.948
58585W        W22342  31.617  12.784   1.245
58586W        W22343  26.461   6.237   1.264
58587W        W22344  27.061  29.661  13.390
58588W        W22345  35.554  32.139   2.726
58589W        W22346  43.936  38.417   3.226
58590W        W22347  24.176  43.350  14.948
58591W        W22348  39.525  37.926   0.277
58592W        W22349  29.497   5.385  11.409
58593W        W22350  32.614  14.239  13.377
58594W        W22351  25.687  15.812   2.764
58595W        W22352  43.945  25.098  13.346
58596W        W22353  10.373  44.363   2.832
58597W        W22354  36.961  33.382   4.293
58598W        W22355  34.925  30.105  13.877
58599W        W22356  35.358  35.020   3.663
58600W        W22357  24.478  34.382   2.897
58601W        W22358   5.217  20.561  14.988
58602W        W22359  37.945   6.740  12.096
58603W        W22360  36.851  23.083  11.983
58604W        W22361   4.940  14.109   3.647
58605W        W22362   1.380  13.666  14.512
58606W        W22363  42.325  43.990  12.456
58607W        W22364  12.214  11.184  14.296
58608W        W22365  10.340  36.056  12.985
58609W        W22366   6.289  44.498   3.326
58610W        W22367  11.742  27.593   4.156
58611W        W22368  22.033  15.815   1.281
58612W        W22369  29.631  36.851   1.409
58613W        W22370  29.102   9.680  12.565
58614W        W22371  25.022  29.620  11.581
58615W        W22372  21.256  26.527  13.924
58616W        W22373  19.575   3.724  11.916
58617W        W22374  25.569   5.229  10.442
58618W        W22375  31.525  24.567  11.537
58619W        W22376  43.441  40.977  10.508
58620W        W22377  41.383   7.373   1.253
58621W        W22378   1.450  24.709  14.859
58622W        W22379   2.435  21.729   3.785
58623W        W22380  33.912  24.199  14.312
58624W        W22381  40.055   1.754  13.455
58625W        W22382  38.997  11.184  12.020
58626W        W22383  41.363  15.145   3.645
58627W        W22384  23.033  18.257  10.567
58628W        W22385  16.263  14.734   3.743
58629W        W22386   6.885  13.721   1.389
58630W        W22387   7.714   7.911   4.661
58631W        W22388  28.938   1.257  14.835
58632W        W22389  26.457   9.195  12.981
58633W        W22390  31.033  25.475   2.262
58634W        W22391  35.039  11.745   1.278
58635W        W22392  29.654  14.678   3.844
58636W        W22393  42.464  27.132  12.866
58637W        W22394  26.553  21.103   0.935
58638W        W22395  21.181  19.759  13.040
58639W        W22396  16.708   5.912  10.545
58640W        W22397   1.299  15.601   2.858
58641W        W22398  16.744   8.194   4.620
58642W        W22399  28.562  35.034   1.333
58643W        W22400  41.022  36.093   4.183
58644W        W22401  14.108  33.518   1.403
58645W        W22402   9.743  40.354   3.347
58646W        W22403  11.731  29.621   2.415
58647W        W22404   9.157  23.658   0.252
58648W        W22405  26.495  15.814   4.297
58649W        W22406  23.077   9.385  12.007
58650W        W22407   4.708  22.048  12.551
58651W        W22408  22.530   6.192   3.843
58652W        W22409  23.116   5.274  14.869
58653W        W22410  40.979  18.250   3.345
58654W        W22411  39.336  29.604   3.169
58655W        W22412  42.376  37.882  10.627
58656W        W22413  32.948  42.363  14.501
58657W        W22414  42.779  26.136  11.551
58658W        W22415   5.279   4.824   2.294
58659W        W22416  29.600   5.267  12.384
58660W        W22417  17.729  10.345   3.673
58661W        W22418  28.011  13.316   1.884
58662W        W22419  29.642  21.577  12.357
58663W        W22420  28.001  43.873   0.282
58664W        W22421  17.659  20.660  14.851
58665W        W22422   4.754  26.616  11.399
58666W        W22423   0.979  21.731   1.892
58667W        W22424   1.288  20.720   0.791
58668W        W22425  15.140  11.317  14.014
58669W        W22426  23.538   4.930   0.329
58670W        W22427  18.654  15.181   1.752
58671W        W22428  18.547  13.127   3.714
58672W        W22429   2.728  35.941  10.446
58673W        W22430  17.149   6.211   3.195
58674W        W22431  28.044   1.817  11.509
58675W        W22432  43.428  14.629   1.797
58676W        W22433  30.101  18.652  10.443
58677W        W22434   4.914  35.910  11.068
58678W        W22435  12.227  33.462  11.428
58679W        W22436   9.382  31.021  13.060
58680W        W22437   3.460  27.548  12.036
58681W        W22438  15.753  30.520   2.234
58682W        W22439  14.119  17.304  14.490
58683W        W22440  41.446  15.290  10.626
58684W        W22441  44.863   6.418  10.028
58685W        W22442  23.539  34.373   3.869
58686W        W22443  19.256   8.313   3.825
58687W        W22444  10.273  19.678  10.418
58688W        W22445  31.954  22.602  11.444
58689W        W22446  24.004  16.754  14.394
58690W        W22447   5.705  32.423   3.777
58691W        W22448  43.829  13.799   0.370
58692W        W22449  31.953  26.654   5.229
58693W        W22450  37.384  15.241   2.836
58694W        W22451   0.965  28.980  14.317
58695W        W22452  29.617  40.304   4.780
58696W        W22453  17.125  10.157   3.685
58697W        W22454  22.686  42.300  10.081
58698W        W22455   0.331  30.141   4.819
58699W        W22456  28.553   4.222   3.341
58700W        W22457  21.261  18.720   0.418
58701W        W22458   5.276  12.640  11.856
58702W        W22459  40.932   2.832   0.888
58703W        W22460  29.477  29.015  12.556
58704W        W22461  25.127  24.117   5.157
58705W        W22462  35.442  22.025  11.480
58706W        W22463  19.729   8.777   2.888
58707W        W22464  11.781  34.958   2.836
58708W        W22465  32.904  22.170   0.419
58709W        W22466   8.847  17.228  12.947
58710W        W22467  38.491  21.064   3.709
58711W        W22468  29.571  36.003  12.390
58712W        W22469   2.280  13.224   4.601
58713W        W22470  28.632  15.632  10.451
58714W        W22471  43.406   6.332   0.965
58715W        W22472   5.836   1.929  10.609
58716W        W22473   2.399  24.481   1.821
58717W        W22474   9.826   0.961  10.491
58718W        W22475  21.056  27.038  13.059
58719W        W22476  25.096  44.269   2.266
58720W        W22477  22.052  12.313  14.825
58721W        W22478  10.756   0.274  14.914
58722W        W22479  40.052  43.510  13.365
58723W        W22480   4.701  36.075   9.977
58724W        W22481  20.048  19.133   2.198
58725W        W22482  11.157  16.285  13.837
58726W        W22483   5.735  35.018  10.451
58727W        W22484  15.274  32.393  11.438
58728W        W22485   0.452  18.764   3.868
58729W        W22486  36.031   4.796   2.406
58730W        W22487  27.640   5.700   3.145
58731W        W22488  27.114  25.096   1.312
58732W        W22489  27.950   0.813  14.480
58733W        W22490   2.465  32.108   1.246
58734W        W22491   5.431  40.495   0.816
58735W        W22492   0.491   9.785  11.584
58736W        W22493  12.664  21.559   2.242
58737W        W22494   1.785   7.780  13.542
58738W        W22495  37.030  21.694   0.823
58739W        W22496  30.018  14.772  12.879
58740W        W22497  13.743  21.139   1.697
58741W        W22498  28.975  30.118   0.849
58742W        W22499   1.875  19.679   0.828
58743W        W22500  23.593   5.809   4.622
58744W        W22501  20.670  26.618  14.931
58745W        W22502  20.727  17.764   4.122
58746W        W22503  41.928  27.190  14.442
58747W        W22504  35.980  31.139  12.969
58748W        W22505  19.665  34.568   0.266
58749W        W22506   5.705  10.770  13.487
58750W        W22507  31.081  10.651   0.916
58751W        W22508  34.370  39.841  11.952
58752W        W22509  29.010  27.064  12.385
58753W        W22510   5.212  14.700   4.602
58754W        W22511  42.455  29.084   0.468
58755W        W22512   6.706  41.388  13.423
58756W        W22513   7.207  31.541  10.528
58757W        W22514  38.467  33.537  12.457
58758W        W22515  24.214   8.842  11.896
58759W        W22516  34.995   1.247   1.447
58760W        W22517  33.522   6.289  10.952
58761W        W22518  34.404  11.231  13.343
58762W        W22519  33.908  13.608  13.992
58763W        W22520  27.670  38.464   0.779
58764W        W22521  42.917  38.022  11.377
58765W        W22522  37.534  36.439   2.373
58766W        W22523  11.782  21.585   4.663
58767W        W22524  25.975  16.248  14.283
58768W        W22525  24.029  33.120  11.452
58769W        W22526  42.404  10.365  11.976
58770W        W22527   8.792  24.988   0.909
58771W        W22528  40.475  32.600   2.321
58772W        W22529  28.068  27.056   4.351
58773W        W22530  30.488  10.260   3.147
58774W        W22531  24.667  12.332   1.820
58775W        W22532  20.086   0.921  11.997
58776W        W22533  33.072  17.669   0.278
58777W        W22534  11.172   2.432   4.663
58778W        W22535  25.180  20.729   1.719
58779W        W22536  24.054  18.620   1.758
58780W        W22537   0.828  34.426   3.328
58781W        W22538  13.783  33.962  14.772
58782W        W22539   0.337  31.525  12.970
58783W        W22540  24.997  39.496   4.829
58784W        W22541  32.013  29.426  11.447
58785W        W22542  37.466  19.231  14.419
58786W        W22543  13.679   4.835   0.457
58787W        W22544  13.214  20.131  11.956
58788W        W22545  24.596  34.871  13.977
58789W        W22546  19.043  25.081  11.004
58790W        W22547  32.124  22.589  13.874
58791W        W22548  10.320   4.797   4.208
58792W        W22549  20.182   7.856   1.782
58793W        W22550   5.828  31.630  12.482
58794W        W22551  21.637   6.426  11.118
58795W        W22552   6.900   8.826   1.437
58796W        W22553  13.285  12.736   3.818
58797W        W22554  15.224  16.603   4.351
58798W        W22555   6.754  16.661  12.507
58799W        W22556  28.113  11.825  14.283
58800W        W22557  15.137  42.315  14.344
58801W        W22558  32.459  26.129  12.912
58802W        W22559   0.832   1.811  14.921
58803W        W22560   1.863   5.794   1.429
58804W        W22561  23.613  39.014   3.856
58805W        W22562  12.241  24.582   4.301
58806W        W22563  19.225  15.199   2.731
58807W        W22564  20.042  40.853  14.514
58808W        W22565  22.662  44.449   3.346
58809W        W22566  13.196  41.793   3.819
58810W        W22567  18.768  12.173  14.773
58811W        W22568  26.694  32.921   0.847
58812W        W22569  16.106  19.537  14.402
58813W        W22570  35.061  38.939   4.239
58814W        W22571  42.397  31.127   3.304
58815W        W22572  44.470  18.775  13.400
58816W        W22573  18.080  12.229  13.028
58817W        W22574   0.957   2.333   0.373
58818W        W22575   6.915  37.954   3.177
58819W        W22576   9.375  37.485   0.817
58820W        W22577  29.061  40.811  11.983
58821W        W22578  28.935   0.473   4.175
58822W        W22579  26.177  20.208   1.356
58823W        W22580  18.141  18.239  10.559
58824W        W22581  39.500  10.298  14.874
58825W        W22582   6.246  30.136  10.564
58826W        W22583   7.788  13.673   3.802
58827W        W22584   2.835  35.081   3.754
58828W        W22585  31.414   3.345  10.963
58829W        W22586  34.425  17.779   1.877
58830W        W22587  31.046  37.042   2.183
58831W        W22588  28.947  36.394  11.012
58832W        W22589   0.453   8.677   1.811
58833W        W22590  25.113   4.811  13.998
58834W        W22591  27.967   0.307   2.864
58835W        W22592   5.743   3.826  14.925
58836W        W22593  13.735  26.957  11.553
58837W        W22594  14.709  40.939   0.275
58838W        W22595   7.805  38.447  11.510
58839W        W22596  18.285  33.074   0.767
58840W        W22597  39.980   7.376   3.670
58841W        W22598   7.318  21.710  11.489
58842W        W22599   0.344  10.872   0.822
58843W        W22600   9.721  37.068   3.859
58844W        W22601  25.193  11.194  14.304
58845W        W22602  26.207   6.826  11.532
58846W        W22603  16.708   3.329  11.945
58847W        W22604   2.383   5.810   3.728
58848W        W22605  40.869   9.310  12.983
58849W        W22606  41.026  12.122   0.746
58850W        W22607  35.926  43.512   3.665
58851W        W22608  23.077  21.606  11.927
58852W        W22609  39.948   1.847  14.363
58853W        W22610   4.822  15.728  13.874
58854W        W22611   8.194  16.722  11.944
58855W        W22612  25.592  32.007  13.995
58856W        W22613  16.618  11.249   3.812
58857W        W22614  25.195  33.048  12.068
58858W        W22615   8.400  31.459   3.273
58859W        W22616  17.154  41.004   4.789
58860W        W22617  33.976   2.291  14.777
58861W        W22618   3.859  13.723   1.715
58862W        W22619  44.842   3.795   0.348
58863W        W22620  40.964  34.541   3.242
58864W        W22621  32.596  43.449   0.383
58865W        W22622  43.005  15.206  10.437
58866W        W22623  19.198  38.058   2.711
58867W        W22624  10.683  10.225  12.912
58868W        W22625  30.647  31.948   2.280
58869W        W22626  32.085   8.212  14.506
58870W        W22627  21.183  17.675  14.974
58871W        W22628   4.875  12.257   0.364
58872W        W22629  40.934  12.226   1.275
58873W        W22630  17.726  43.407   3.370
58874W        W22631   5.826  10.207   0.752
58875W        W22632   2.247  31.600  14.903
58876W        W22633  34.094   8.741   1.406
58877W        W22634  26.505  21.610  10.965
58878W        W22635  32.556  21.075   1.859
58879W        W22636  29.611   4.895  12.870
58880W        W22637   7.753  17.795  13.897
58881W        W22638   1.905  20.664  10.452
58882W        W22639  42.432  24.207   4.820
58883W        W22640  29.153  25.522   0.782
58884W        W22641  42.526  43.503  13.419
58885W        W22642  44.311   1.969   2.228
58886W        W22643  17.161  24.007   1.418
58887W        W22644  36.420  28.641   3.314
58888W        W22645  43.803  11.315   4.619
58889W        W22646  23.524  27.619   4.603
58890W        W22647   1.434  12.125  13.869
58891W        W22648  14.821  20.037   4.650
58892W        W22649   3.929  26.664  11.521
58893W        W22650   8.858   5.916   1.323
58894W        W22651  19.181  32.106  13.875
58895W        W22652  26.018  10.364  12.545
58896W        W22653  27.993  44.775   2.723
58897W        W22654   0.334   0.860  12.478
58898W        W22655   7.415  12.136   1.791
58899W        W22656  28.612  39.536  12.997
58900W        W22657  23.521  36.451   3.701
58901W        W22658  21.131   4.936  10.634
58902W        W22659  31.448  23.106  12.379
58903W        W22660  34.943  33.625   2.408
58904W        W22661  23.628  26.565  12.015
58905W        W22662  14.110  24.651  13.793
58906W        W22663  36.437  22.153  10.612
58907W        W22664  31.612  13.160  12.486
58908W        W22665  25.174  36.985   2.868
58909W        W22666  30.978  19.162   0.883
58910W        W22667  26.978  42.999   5.086
58911W        W22668  39.440  31.647  10.409
58912W        W22669  12.742  24.632  14.829
58913W        W22670  23.167  27.066   3.661
58914W        W22671  41.953  29.481  12.488
58915W        W22672  31.956  23.181  11.894
58916W        W22673  28.490  12.350   0.836
58917W        W22674   6.360  14.193  13.833
58918W        W22675  44.992  38.934  12.353
58919W        W22676  26.074   2.402   2.322
58920W        W22677  10.300  36.541   1.322
58921W        W22678  26.029  23.490   2.687
58922W        W22679  28.183   6.267   2.418
58923W        W22680   4.733  13.278   9.995
58924W        W22681  16.810  19.285   3.320
58925W        W22682   7.340   7.893   4.164
58926W        W22683   1.952  13.334   1.906
58927W        W22684  25.697  19.598  12.017
58928W        W22685  12.786  31.034  10.492
58929W        W22686   0.375   1.778  12.980
58930W        W22687  30.081  24.977   3.169
58931W        W22688  13.818  25.190   0.387
58932W        W22689  11.700  32.085   3.805
58933W        W22690   6.421   6.701  13.979
58934W        W22691  19.642  31.115  12.456
58935W        W22692  42.941   1.825   2.896
58936W        W22693  39.505   9.746   0.320
58937W        W22694  15.092   1.269   4.781
58938W        W22695  30.121  32.078   3.680
58939W        W22696  23.215   1.892  10.434
58940W        W22697  40.042  16.744  13.938
58941W        W22698  10.247  14.173  11.092
58942W        W22699  11.724  29.093   3.380
58943W        W22700  27.512  35.433  11.417
58944W        W22701  38.028  24.483   2.307
58945W        W22702  10.820  31.989  12.371
58946W        W22703   5.754  35.459  14.951
58947W        W22704   8.265   6.375   2.681
58948W        W22705  24.033   1.932  11.106
58949W        W22706  38.379  19.200  13.825
58950W        W22707   5.401  26.149  12.052
58951W        W22708  15.717  27.022  11.533
58952W        W22709  20.597  13.209  14.006
58953W        W22710  16.179  40.502  12.889
58954W        W22711   6.687   5.229   3.205
58955W        W22712   4.741  19.258  14.897
58956W        W22713  35.432  36.891   2.271
58957W        W22714  34.994  12.352   0.448
58958W        W22715   4.736  29.508   0.762
58959W        W22716  34.380  18.786   2.892
58960W        W22717  18.131  26.169  10.466
58961W        W22718  40.019   4.209  10.928
58962W        W22719   2.329   8.771   2.695
58963W        W22720  31.022  28.944   1.436
58964W        W22721  13.770   3.382  11.119
58965W        W22722  15.642   4.245  11.405
58966W        W22723   6.800  40.011   9.664
58967W        W22724  20.540  20.710   0.355
58968W        W22725  18.630  10.380   0.859
58969W        W22726  44.862  20.256  10.598
58970W        W22727  27.962  13.769   4.829
58971W        W22728  42.849  19.676   1.827
58972W        W22729   1.877  31.127  14.347
58973W        W22730  21.691   3.952  13.878
58974W        W22731  41.407  38.073  10.903
58975W        W22732  14.788  25.618  12.394
58976W        W22733   2.868   9.269   3.221
58977W        W22734  11.191  24.685   1.297
58978W        W22735   5.907   9.361   0.826
58979W        W22736  24.200  44.481  10.586
58980W        W22737  12.272   6.224  11.405
58981W        W22738  12.143  41.008  11.038
58982W        W22739  36.563  11.864   0.739
58983W        W22740  17.695  20.046  12.403
58984W        W22741  28.031   0.403   1.256
58985W        W22742  22.611   4.222   1.304
58986W        W22743  13.680  28.635  14.022
58987W        W22744  38.847  13.157  14.764
58988W        W22745  44.967  37.964  11.459
58989W        W22746  44.413   1.398  13.539
58990W        W22747  41.957  20.218  12.470
58991W        W22748  30.106  30.992   1.428
58992W        W22749  10.839  32.610   2.398
58993W        W22750  25.063  21.702   3.770
58994W        W22751   6.737  11.646   2.679
58995W        W22752  19.761  16.743   0.434
58996W        W22753  13.194  36.528  13.508
58997W        W22754  19.076  28.091   3.763
58998W        W22755   1.383  10.658  12.892
58999W        W22756  37.951  25.591   4.243
59000W        W22757   2.762  28.176  11.126
59001W        W22758   4.256   7.240   4.675
59002W        W22759   5.294   6.765   1.331
59003W        W22760   0.877  18.679   4.818
59004W        W22761  13.728  43.485   1.229
59005W        W22762  17.073   8.361   1.253
59006W        W22763  19.280  17.657  14.463
59007W        W22764  35.480  29.103  11.016
59008W        W22765   3.288  35.084  14.021
59009W        W22766   3.425  36.570   1.283
59010W        W22767  38.909   6.851  12.403
59011W        W22768  33.537  11.743   2.193
59012W        W22769  20.269  11.251  10.556
59013W        W22770  34.014  29.547   5.713
59014W        W22771   2.885  13.309   2.182
59015W        W22772   5.239  20.552  12.430
59016W        W22773   9.383  12.697   4.158
59017W        W22774  25.040  14.741  12.086
59018W        W22775  13.107   1.255  13.349
59019W        W22776  34.965   7.369  13.940
59020W        W22777  14.269  15.747  11.969
59021W        W22778  35.947  11.643   1.814
59022W        W22779  34.369  19.557  11.897
59023W        W22780  16.317   2.439  14.499
59024W        W22781  10.800  20.766  10.470
59025W        W22782  12.123  43.800   4.696
59026W        W22783  37.885   3.277  12.008
59027W        W22784  39.005  14.627   0.844
59028W        W22785  12.294  44.843  12.554
59029W        W22786  28.985  28.119   0.430
59030W        W22787  17.589  12.300   1.278
59031W        W22788  34.499  38.047   4.291
59032W        W22789  19.588  27.489  14.818
59033W        W22790  19.618  32.908   1.912
59034W        W22791  18.252  27.120  12.011
59035W        W22792   0.912  29.037   3.653
59036W        W22793  37.437  21.672   0.317
59037W        W22794  32.057  25.010  10.644
59038W        W22795  30.496  21.583   0.762
59039W        W22796  25.028   6.371  13.433
59040W        W22797   1.889  20.151   4.636
59041W        W22798  42.018   2.721  14.290
59042W        W22799  35.583  15.609   4.225
59043W        W22800  42.937  23.714   1.366
59044W        W22801  33.502  11.852   0.801
59045W        W22802  30.448  31.596   0.276
59046W        W22803  11.835  26.195   0.348
59047W        W22804  31.575  29.499   5.307
59048W        W22805  21.541   2.797   3.378
59049W        W22806  22.242  12.676  11.461
59050W        W22807  16.802   4.338   1.383
59051W        W22808  22.721  33.382   0.803
59052W        W22809  42.997  22.158   1.765
59053W        W22810   7.204  39.459  13.846
59054W        W22811  10.665  38.887  13.454
59055W        W22812  20.708   2.253   1.287
59056W        W22813  28.464  31.525  11.921
59057W        W22814   1.934  34.973  14.951
59058W        W22815  26.091  38.551  14.397
59059W        W22816  40.478  34.378  10.619
59060W        W22817   3.840  35.572   3.631
59061W        W22818  12.842  20.666   4.705
59062W        W22819   6.401  32.440   2.185
59063W        W22820  31.625  38.895   2.312
59064W        W22821  22.664   4.709   0.397
59065W        W22822  29.529  16.568   2.268
59066W        W22823  19.260  21.231  12.394
59067W        W22824  18.739  39.875   2.892
59068W        W22825   9.309  14.753   2.273
59069W        W22826   3.892  34.453  11.980
59070W        W22827  42.457  44.780  14.888
59071W        W22828   5.721   0.476   2.394
59072W        W22829   6.885  32.634  12.415
59073W        W22830  41.860  11.667   2.197
59074W        W22831   3.230  15.794   0.841
59075W        W22832   0.986   0.486  12.953
59076W        W22833  40.023  42.526   3.296
59077W        W22834  25.214  10.200  10.567
59078W        W22835  19.151  22.500  14.013
59079W        W22836  43.399  23.041   2.843
59080W        W22837   5.728   5.373   3.727
59081W        W22838   1.257  26.656   1.775
59082W        W22839   0.848  28.056  13.498
59083W        W22840  11.863  42.308  13.817
59084W        W22841  19.283   6.228   4.670
59085W        W22842   6.779  31.482   2.251
59086W        W22843  12.843   6.719   0.323
59087W        W22844  23.084  36.504   1.802
59088W        W22845  32.436  33.992  10.469
59089W        W22846  22.020  25.187   0.929
59090W        W22847  27.477  44.010   3.193
59091W        W22848   6.184  43.788   4.313
59092W        W22849  24.714   8.337   4.150
59093W        W22850  19.594  38.958  12.455
59094W        W22851  25.653  41.005  14.325
59095W        W22852  40.438  30.500  14.934
59096W        W22853  42.368   4.750   4.319
59097W        W22854   7.677  26.546   2.778
59098W        W22855  33.003  39.905  13.538
59099W        W22856  16.176  15.759   2.727
59100W        W22857  31.559   0.362  11.942
59101W        W22858   9.314   3.318  10.960
59102W        W22859   0.443   0.430   4.718
59103W        W22860  40.371  16.768   0.287
59104W        W22861   4.251  40.455   2.725
59105W        W22862  23.655  29.976   4.311
59106W        W22863   7.309   3.274  13.350
59107W        W22864   5.257   2.331  12.378
59108W        W22865  44.430   8.658   3.776
59109W        W22866  23.608   2.930  14.384
59110W        W22867  40.425  29.154  13.463
59111W        W22868  34.488   9.732   0.309
59112W        W22869  33.606  30.655   2.243
59113W        W22870   5.314  22.221  14.927
59114W        W22871  10.200  29.124   3.252
59115W        W22872  41.340  39.906   0.942
59116W        W22873  12.800  26.103  11.910
59117W        W22874  41.948  41.396  10.580
59118W        W22875  11.784  44.880  11.894
59119W        W22876   0.862  43.836   4.311
59120W        W22877  36.859  43.931  12.426
59121W        W22878  36.097  15.601   4.731
59122W        W22879   8.269  41.401   0.826
59123W        W22880   5.254  28.486  14.395
59124W        W22881   6.785  40.972  10.901
59125W        W22882  16.103  11.346  13.533
59126W        W22883  43.792   2.754   1.251
59127W        W22884  37.984  34.438   1.235
59128W        W22885  18.076  42.361   0.779
59129W        W22886  18.114  17.196   2.312
59130W        W22887  18.117   5.834  11.414
59131W        W22888  25.512   8.739  11.558
59132W        W22889   1.836  39.371  11.550
59133W        W22890   7.685  24.143   4.251
59134W        W22891  38.880  37.898   1.249
59135W        W22892   4.335   0.253   4.319
59136W        W22893  18.145  39.025  12.879
59137W        W22894  32.126  26.512   1.887
59138W        W22895  29.482  22.060   3.855
59139W        W22896  41.390  38.002   2.698
59140W        W22897   4.754  37.386   0.363
59141W        W22898  40.799  18.786   3.385
59142W        W22899  28.986  23.070  13.936
59143W        W22900   9.158  31.152   1.722
59144W        W22901  16.739  22.714   4.678
59145W        W22902  19.730  26.112   3.770
59146W        W22903  11.352  21.090  11.025
59147W        W22904  23.192   6.787   3.365
59148W        W22905  15.114  36.089  11.883
59149W        W22906  19.236  41.308   1.355
59150W        W22907  32.107   8.702   0.835
59151W        W22908   2.269  41.500  11.919
59152W        W22909  18.664   5.294  14.496
59153W        W22910   4.911  15.234   0.787
59154W        W22911  21.222  40.002   3.719
59155W        W22912  32.930  29.498   5.104
59156W        W22913  14.132  11.736   2.903
59157W        W22914  14.244  35.482   4.237
59158W        W22915  41.420   9.156   0.282
59159W        W22916  21.190  36.388   4.347
59160W        W22917   3.404  41.356   0.835
59161W        W22918   3.236  24.093   0.313
59162W        W22919  38.480  13.615   4.683
59163W        W22920  44.798  35.056   0.757
59164W        W22921   5.860  18.546  11.612
59165W        W22922  27.455  24.989   3.376
59166W        W22923  38.044  26.179   2.814
59167W        W22924  29.648   8.868   9.929
59168W        W22925   4.901  26.654   5.127
59169W        W22926   5.688  13.697  11.990
59170W        W22927  30.976   4.876  14.951
59171W        W22928  24.653  20.692   3.362
59172W        W22929  11.839   3.747   2.220
59173W        W22930  34.963  39.926  14.381
59174W        W22931  30.920  33.083   0.743
59175W        W22932  30.958  41.460  10.528
59176W        W22933  43.399  22.556  10.909
59177W        W22934  15.320  13.744  13.864
59178W        W22935   3.239  31.597  12.997
59179W        W22936  40.485   2.847   3.714
59180W        W22937   5.901  38.978  10.551
59181W        W22938   7.734   8.686  14.419
59182W        W22939  34.595  30.417  12.827
59183W        W22940  32.033  22.737   5.320
59184W        W22941  35.455  25.543  11.065
59185W        W22942  15.652  28.175  13.358
59186W        W22943  27.189   6.789  11.099
59187W        W22944  14.599   8.692   3.802
59188W        W22945  30.995   3.768  11.984
59189W        W22946  27.590  38.431   4.354
59190W        W22947   1.775  16.577   3.642
59191W        W22948  39.380  35.093  13.967
59192W        W22949  43.920  18.743   0.381
59193W        W22950  37.434  27.641   4.746
59194W        W22951   1.274  26.175  14.908
59195W        W22952   0.830  18.576   1.932
59196W        W22953   3.859  35.039  14.450
59197W        W22954  28.070  43.018  10.505
59198W        W22955  41.842  23.597  12.353
59199W        W22956  34.108  27.553   2.291
59200W        W22957  27.486  10.703   4.673
59201W        W22958  13.718  12.833  13.896
59202W        W22959  40.437  44.485  13.860
59203W        W22960  40.870  26.540  13.860
59204W        W22961  20.701   1.855  13.918
59205W        W22962  14.120  25.678   0.308
59206W        W22963  27.637  32.474   0.400
59207W        W22964  42.876  37.489  13.999
59208W        W22965  19.249  30.435  10.890
59209W        W22966  27.551  29.176   3.761
59210W        W22967  29.102  11.137   0.930
59211W        W22968  11.148   9.358   2.366
59212W        W22969  11.211  27.091   1.829
59213W        W22970  24.561  19.112   0.387
59214W        W22971  13.337  31.144   1.367
59215W        W22972  36.041  38.520   1.275
59216W        W22973  15.229   7.774  14.463
59217W        W22974  21.608  28.493   0.302
59218W        W22975  42.331  12.761   4.168
59219W        W22976  38.873  17.584   4.345
59220W        W22977  24.082  18.653  10.910
59221W        W22978  12.728  16.729   1.727
59222W        W22979   3.809  26.672  14.860
59223W        W22980  35.476  37.572   1.897
59224W        W22981  19.747  24.598  14.429
59225W        W22982  34.964   2.291   2.345
59226W        W22983  22.230  31.001  10.540
59227W        W22984   0.808  21.115   3.345
59228W        W22985   0.357  23.527   4.309
59229W        W22986  17.228  19.741  12.506
59230W        W22987   5.799  32.940  10.508
59231W        W22988  40.017   2.938   0.334
59232W        W22989   9.168   3.250   0.244
59233W        W22990  18.736  26.189   3.700
59234W        W22991  23.051  35.448  14.957
59235W        W22992  14.604  26.004   4.259
59236W        W22993  27.961  40.515  11.868
59237W        W22994  14.129  42.900  13.324
59238W        W22995   2.954  32.418  12.868
59239W        W22996  17.264  12.847   9.673
59240W        W22997  23.707   3.236   3.843
59241W        W22998  18.296   3.350  11.584
59242W        W22999  15.751   3.252   9.975
59243W        W23000   0.267  18.195  14.856
59244W        W23001  30.118  29.605   4.119
59245W        W23002   1.473  40.967  14.449
59246W        W23003  21.754  26.052   4.183
59247W        W23004  42.349   2.343   2.224
59248W        W23005  19.535  25.105  12.008
59249W        W23006  12.286  31.497   0.471
59250W        W23007  27.456  22.237   9.965
59251W        W23008  13.200  11.700   0.830
59252W        W23009  15.165  23.631   4.605
59253W        W23010  36.431  26.195  13.482
59254W        W23011  37.449  26.584   4.245
59255W        W23012  12.634  33.581  13.366
59256W        W23013  40.470  39.360  14.929
59257W        W23014  33.437  44.380  14.885
59258W        W23015  14.289  44.844  11.111
59259W        W23016   8.799  37.858   3.702
59260W        W23017  23.584  16.626  14.858
59261W        W23018   5.782  31.016  13.034
59262W        W23019  40.403  19.046   0.788
59263W        W23020   4.845  33.588   5.232
59264W        W23021   6.204  40.346  14.439
59265W        W23022  32.105   9.213  12.876
59266W        W23023  21.117  32.893   2.386
59267W        W23024   3.297  24.114   4.651
59268W        W23025  22.092  13.161   1.905
59269W        W23026  33.470  15.195   0.915
59270W        W23027  41.940  20.540   0.816
59271W        W23028  15.202  19.723   0.952
59272W        W23029  30.616  23.645  12.845
59273W        W23030  18.718   8.337   0.932
59274W        W23031  15.784  30.469   4.217
59275W        W23032  18.111  37.088   4.684
59276W        W23033  11.278  41.818  10.916
59277W        W23034   7.710  15.745  11.606
59278W        W23035  10.778  38.447   2.406
59279W        W23036  39.838  25.195  11.444
59280W        W23037  13.762  30.948   0.766
59281W        W23038  44.501  29.033  13.528
59282W        W23039  18.779  15.594   2.707
59283W        W23040  10.674  30.604   5.109
59284W        W23041  21.715  15.794   0.783
59285W        W23042  24.218  12.289  10.629
59286W        W23043  40.003  37.054  13.318
59287W        W23044  38.967  14.203  10.608
59288W        W23045   6.295  25.672   1.297
59289W        W23046  44.292  14.779  12.527
59290W        W23047  16.721  13.654  12.446
59291W        W23048  13.801  26.076   1.903
59292W        W23049   1.972  27.131   4.769
59293W        W23050  23.544  31.109   2.250
59294W        W23051  41.448  27.044  11.406
59295W        W23052  41.922  32.112   1.854
59296W        W23053  23.160  42.961   3.788
59297W        W23054  37.991  24.107   1.806
59298W        W23055  12.744  15.797  14.952
59299W        W23056  19.256   2.849   0.472
59300W        W23057   4.745   1.356  13.041
59301W        W23058   9.800  37.061   2.334
59302W        W23059  34.977   9.871  10.907
59303W        W23060   1.912   4.893  10.550
59304W        W23061  42.941  44.259  11.993
59305W        W23062   1.281  21.584  14.332
59306W        W23063  42.974   9.229   2.696
59307W        W23064  22.654   4.298  13.332
59308W        W23065   7.382  16.225  12.870
59309W        W23066  25.688  24.499   5.182
59310W        W23067  41.879  44.427   5.201
59311W        W23068   7.191  17.257   3.837
59312W        W23069  34.874   0.343  13.358
59313W        W23070  30.986   1.734  10.969
59314W        W23071  24.503   1.848  12.872
59315W        W23072  30.159  14.814  14.895
59316W        W23073  28.523   5.296   0.895
59317W        W23074   7.381  24.989   4.822
59318W        W23075  39.858  27.458  12.419
59319W        W23076   8.772  23.011  12.851
59320W        W23077  21.106   0.252  10.903
59321W        W23078  30.422  24.030  10.978
59322W        W23079  42.829   3.866  14.451
59323W        W23080  13.206  28.445  10.893
59324W        W23081  39.366  13.730   2.396
59325W        W23082  32.042   1.947   5.719
59326W        W23083  23.236  21.236  13.375
59327W        W23084  30.432  36.414   0.465
59328W        W23085   7.895   2.292   1.746
59329W        W23086   3.423  20.686  10.498
59330W        W23087  19.691  36.999   2.341
59331W        W23088  39.423  34.411  11.894
59332W        W23089  27.616  26.530  13.014
59333W        W23090  26.030   6.778  10.930
59334W        W23091  28.160  23.141  14.937
59335W        W23092  39.031  18.097   0.832
59336W        W23093   9.888   8.691  13.961
59337W        W23094  30.084   0.766   2.851
59338W        W23095  21.691   4.925   2.706
59339W        W23096  32.425   8.732  11.998
59340W        W23097   1.775  28.170  13.427
59341W        W23098   5.357   4.378  11.039
59342W        W23099  42.827  33.509   2.724
59343W        W23100  25.610   6.810   1.762
59344W        W23101  29.175  31.930  10.550
59345W        W23102   3.928  40.020  11.533
59346W        W23103  42.809  35.454   2.885
59347W        W23104  27.171   2.807   0.405
59348W        W23105  23.166  39.039  14.308
59349W        W23106   8.336  41.024   5.084
59350W        W23107  19.653  18.259   1.843
59351W        W23108  21.253  27.454  13.848
59352W        W23109   3.231  10.674   2.670
59353W        W23110  31.023   7.283  10.944
59354W        W23111  15.236  23.009  11.119
59355W        W23112  44.499   5.838  10.965
59356W        W23113  17.082  10.757  13.545
59357W        W23114  41.456   0.342   1.718
59358W        W23115  16.601  28.929  13.409
59359W        W23116  41.989  26.970   3.663
59360W        W23117  38.369  41.875  10.544
59361W        W23118  21.717  30.123  14.287
59362W        W23119  42.888  43.336  14.770
59363W        W23120   5.927  16.216  13.061
59364W        W23121   9.703  42.839   4.281
59365W        W23122  13.154  10.208  14.852
59366W        W23123  36.410   7.226  12.010
59367W        W23124  40.837  28.169  12.050
59368W        W23125  41.477  35.505  14.969
59369W        W23126  17.737  41.851   1.352
59370W        W23127  35.377  43.317   4.709
59371W        W23128  32.576  24.700  10.484
59372W        W23129  27.144  26.966   3.290
59373W        W23130   0.872  43.399  14.807
59374W        W23131  29.467   2.423  13.372
59375W        W23132  35.042   3.798  14.003
59376W        W23133  14.318  40.953  10.971
59377W        W23134  32.425  34.974  12.063
59378W        W23135  33.574  30.535   0.395
59379W        W23136  24.629  29.597   0.824
59380W        W23137  17.084   8.797   4.812
59381W        W23138  39.468  33.577  13.930
59382W        W23139  33.487  19.245   0.299
59383W        W23140  16.734  16.090   4.238
59384W        W23141   6.799  41.421   1.833
59385W        W23142  13.622  40.515   4.177
59386W        W23143  25.535  23.542  12.343
59387W        W23144   2.838   2.446   3.151
59388W        W23145  24.501  27.968   4.623
59389W        W23146  34.524  17.305  11.979
59390W        W23147   8.812  15.265   5.222
59391W        W23148  42.893  44.998   3.147
59392W        W23149  25.492  16.257  13.965
59393W        W23150  27.070  10.293   2.190
59394W        W23151   9.350  42.848  13.859
59395W        W23152  41.806  21.215   0.431
59396W        W23153  34.378   1.879  11.044
59397W        W23154  23.124  14.292   0.475
59398W        W23155   8.342  36.389   1.439
59399W        W23156   7.278  13.184   5.105
59400W        W23157  14.279   6.377  10.890
59401W        W23158  14.632  40.481   1.847
59402W        W23159  43.854   6.278   2.794
59403W        W23160  15.682  24.012   0.386
59404W        W23161   0.405   9.204   3.729
59405W        W23162   4.750  32.116  10.615
59406W        W23163  27.141  11.738   2.385
59407W        W23164   7.403   4.901   0.463
59408W        W23165  28.520  27.657  11.919
59409W        W23166  24.196  33.617  11.472
59410W        W23167   6.249  26.014  12.956
59411W        W23168   6.719  28.625  13.459
59412W        W23169  27.449   6.911  13.394
59413W        W23170  26.179  39.010   0.815
59414W        W23171  19.726  12.709   2.877
59415W        W23172   9.265  44.276   0.780
59416W        W23173  43.458  38.902   4.671
59417W        W23174  34.427   7.171  11.856
59418W        W23175  11.754  25.089  12.943
59419W        W23176  32.978  23.135  10.440
59420W        W23177   7.784   8.883  11.508
59421W        W23178  40.512  30.044  10.544
59422W        W23179   5.248  22.021  14.448
59423W        W23180   6.310  23.103   0.272
59424W        W23181  43.764  18.266  10.485
59425W        W23182  22.730  36.435   4.214
59426W        W23183  15.727  32.536   4.721
59427W        W23184  35.604  26.011   2.275
59428W        W23185  12.849  38.941  12.353
59429W        W23186  36.399   5.416  10.895
59430W        W23187  14.773  38.513   0.758
59431W        W23188  34.452   0.284   2.342
59432W        W23189  37.562   6.304  10.541
59433W        W23190  10.344  38.406  10.950
59434W        W23191  24.501  13.121   0.875
59435W        W23192  14.173  41.926  10.551
59436W        W23193  37.390  16.160  10.955
59437W        W23194  28.571  13.672  14.891
59438W        W23195  32.027   7.172   4.122
59439W        W23196  31.553  24.974  13.013
59440W        W23197  37.479  36.586  11.033
59441W        W23198  34.092  36.448  10.940
59442W        W23199  14.818  35.901  14.316
59443W        W23200  41.851  28.120  13.996
59444W        W23201   8.899  18.142   2.891
59445W        W23202  23.113  13.236   3.837
59446W        W23203  36.553  19.204  12.934
59447W        W23204  19.251  20.049   2.721
59448W        W23205  26.623  29.069   1.303
59449W        W23206  31.610  14.611   0.257
59450W        W23207  20.559  36.535  14.906
59451W        W23208   2.361  13.312  13.309
59452W        W23209  36.025  33.983   3.672
59453W        W23210  31.012   1.742   1.304
59454W        W23211   5.871  41.516   3.799
59455W        W23212   5.254  18.054  13.906
59456W        W23213  35.379   3.247   2.794
59457W        W23214  36.361   5.398  12.426
59458W        W23215  35.862   9.149   0.758
59459W        W23216   3.942  34.031   0.952
59460W        W23217  22.675  13.182   2.407
59461W        W23218  26.643  33.500  13.969
59462W        W23219  28.160  31.926  14.954
59463W        W23220  28.675  11.669   2.784
59464W        W23221  16.204  35.379   0.917
59465W        W23222  25.482  14.819  10.516
59466W        W23223  31.453  43.824  14.865
59467W        W23224  38.863  22.012  14.868
59468W        W23225  30.504  11.295  14.904
59469W        W23226  22.030  37.553   1.855
59470W        W23227  30.012   6.799  14.493
59471W        W23228   0.950   4.261  11.982
59472W        W23229  20.154  12.258   3.155
59473W        W23230  39.555   9.757  11.594
59474W        W23231  43.382  41.490   4.701
59475W        W23232   0.962  32.087   2.775
59476W        W23233  23.565  42.307   1.239
59477W        W23234  23.692  23.623  11.899
59478W        W23235  27.659   6.266  13.988
59479W        W23236   5.859  33.036  11.553
59480W        W23237  24.587  30.429   0.259
59481W        W23238   0.939  21.581  13.996
59482W        W23239  29.977  33.497   0.384
59483W        W23240  15.220   4.346  11.964
59484W        W23241  20.130  34.901  14.461
59485W        W23242  30.998   9.830  11.387
59486W        W23243  31.009   6.291   0.318
59487W        W23244  38.014  34.955   0.422
59488W        W23245  20.222  39.867   2.338
59489W        W23246  33.048  19.553   2.402
59490W        W23247  25.487  31.003   3.772
59491W        W23248  22.995  15.740   3.161
59492W        W23249  30.940  30.965  11.071
59493W        W23250  24.715  26.548  11.005
59494W        W23251  15.155   8.671   0.426
59495W        W23252  12.664  30.447   0.825
59496W        W23253  10.241  43.823   1.253
59497W        W23254  44.284  27.105  12.003
59498W        W23255  34.548  37.005   2.858
59499W        W23256  10.315  21.728   2.809
59500W        W23257  27.015   6.713   3.842
59501W        W23258   2.251  40.474  11.483
59502W        W23259   3.788  38.368  11.470
59503W        W23260  37.910  29.003   2.821
59504W        W23261  38.448  36.550  11.566
59505W        W23262  16.259  30.511   0.726
59506W        W23263   4.864  31.504   4.614
59507W        W23264   6.730  17.135  13.352
59508W        W23265  32.528  33.400  10.412
59509W        W23266  16.151  35.061   2.720
59510W        W23267  15.799   9.191  14.933
59511W        W23268  41.848  18.107   2.288
59512W        W23269  29.162  18.088   2.713
59513W        W23270   5.756  30.995   4.303
59514W        W23271  39.051  13.623   1.821
59515W        W23272  34.528  24.580   0.326
59516W        W23273  15.147  36.892   3.782
59517W        W23274  43.299  15.105  11.106
59518W        W23275   9.244  43.000  12.876
59519W        W23276   3.870  34.903  13.308
59520W        W23277  32.919  13.176   3.265
59521W        W23278  38.922  40.938   1.333
59522W        W23279  29.958  22.184  12.914
59523W        W23280  35.879   5.367   1.351
59524W        W23281  18.782  12.651  11.488
59525W        W23282  20.600  26.155  14.918
59526W        W23283  15.273   1.760   3.802
59527W        W23284   9.798   0.925  13.507
59528W        W23285  32.902   3.419   5.755
59529W        W23286   1.477  35.574   3.786
59530W        W23287  34.884  12.323   2.366
59531W        W23288  34.548   2.229  11.975
59532W        W23289  11.365  16.263  11.894
59533W        W23290  38.050  10.747  12.506
59534W        W23291  32.043   9.866  10.008
59535W        W23292  33.962   6.818   4.648
59536W        W23293  23.666  41.939   3.147
59537W        W23294  22.598  30.509  11.027
59538W        W23295   5.434   6.845  13.954
59539W        W23296  33.443  13.107   0.824
59540W        W23297   6.805  16.193   5.195
59541W        W23298   9.217  41.377   2.336
59542W        W23299  24.548  44.829   1.305
59543W        W23300   1.733  41.893  13.881
59544W        W23301  26.485  21.227   2.362
59545W        W23302   1.316  26.191   4.653
59546W        W23303  25.665  30.146   0.297
59547W        W23304  11.324   6.766   1.718
59548W        W23305  28.182  17.671  13.418
59549W        W23306   0.345  38.548  12.040
59550W        W23307  12.686  15.240   0.928
59551W        W23308   1.469  32.478  10.510
59552W        W23309  14.744  10.178  11.855
59553W        W23310  40.006  26.566  11.116
59554W        W23311  25.533  28.002  14.817
59555W        W23312  40.803  27.575   3.210
59556W        W23313   9.174  41.821   4.257
59557W        W23314  19.533  33.441  14.279
59558W        W23315  22.610   7.282   2.390
59559W        W23316   6.747  10.742  14.889
59560W        W23317   3.848  35.602   1.771
59561W        W23318  34.968  38.025   0.256
59562W        W23319  17.744  24.181   0.840
59563W        W23320   9.200  17.692  14.347
59564W        W23321   5.337  28.606   1.873
59565W        W23322   8.900  40.994   4.710
59566W        W23323  29.609  11.704  10.095
59567W        W23324  10.260  10.666   4.678
59568W        W23325  21.523   5.334  14.419
59569W        W23326  14.223  33.999  10.597
59570W        W23327  35.103  21.100   2.717
59571W        W23328  10.763   4.278  14.914
59572W        W23329  16.733  31.641   0.855
59573W        W23330   3.220  17.601   0.434
59574W        W23331  14.221  32.579   0.791
59575W        W23332  11.770  29.478   0.440
59576W        W23333  43.404  37.508   2.212
59577W        W23334  20.255   3.891  13.379
59578W        W23335  30.950  40.809   1.389
59579W        W23336  30.508  17.677  10.616
59580W        W23337  36.953  17.134   0.480
59581W        W23338  10.643  14.825   0.937
59582W        W23339  16.739   1.401   3.809
59583W        W23340  24.151  39.987  12.054
59584W        W23341  44.349   6.288  14.764
59585W        W23342  14.652  35.505  10.963
59586W        W23343   6.761  13.291  12.466
59587W        W23344  15.302  27.523  13.477
59588W        W23345   8.722   9.182  13.872
59589W        W23346   1.974  35.604   2.389
59590W        W23347   4.784   5.918   1.305
59591W        W23348  35.477   5.225  12.381
59592W        W23349   3.229  44.371   1.357
59593W        W23350  37.976  44.891   1.339
59594W        W23351   4.781  28.671   3.648
59595W        W23352  38.508  12.660   0.313
59596W        W23353  39.995  21.570  11.566
59597W        W23354  24.106   9.729   0.756
59598W        W23355  20.641   8.766   0.423
59599W        W23356   1.271  28.088   1.322
59600W        W23357  29.966  20.202   2.198
59601W        W23358  15.795   5.820  12.476
59602W        W23359  43.284  34.031  14.314
59603W        W23360  40.336   7.177   3.259
59604W        W23361   8.764  38.520   4.204
59605W        W23362  33.992  19.202  13.377
59606W        W23363  44.309  23.111   1.716
59607W        W23364  14.140  44.927  13.488
59608W        W23365  33.996   6.909  12.533
59609W        W23366  26.683  35.507  13.020
59610W        W23367  40.351  22.037   4.291
59611W        W23368  33.063  36.577  12.348
59612W        W23369  18.744  22.236   2.671
59613W        W23370  15.327  34.474   1.224
59614W        W23371  23.606   6.748   0.390
59615W        W23372   5.729  21.740  12.415
59616W        W23373  25.595  10.220  11.406
59617W        W23374  44.312  29.434   4.742
59618W        W23375  11.208  39.019   3.156
59619W        W23376  23.529  15.783  14.835
59620W        W23377  13.115  41.843   4.655
59621W        W23378  24.517  28.533  10.634
59622W        W23379  28.175  20.152  11.411
59623W        W23380  19.705  16.648  14.760
59624W        W23381  26.697  35.436   0.453
59625W        W23382  31.988  27.480  12.566
59626W        W23383  21.205  42.952   0.251
59627W        W23384   5.916  27.596   0.286
59628W        W23385  22.043  25.566  13.509
59629W        W23386  44.827   0.794  11.939
59630W        W23387   3.254  24.020   2.673
59631W        W23388  11.357  24.708  14.503
59632W        W23389  39.007  12.170  13.929
59633W        W23390  36.410  29.555  12.447
59634W        W23391  16.769  40.963   4.647
59635W        W23392   3.727  32.910  13.383
59636W        W23393   3.323  33.408  12.985
59637W        W23394  36.475   0.432  11.947
59638W        W23395  11.259  13.262   4.213
59639W        W23396  31.005  20.527   3.704
59640W        W23397  33.417  15.795  14.786
59641W        W23398  34.017  21.639   1.316
59642W        W23399  32.947  37.502   3.815
59643W        W23400  33.460  35.064  12.383
59644W        W23401  19.716  23.105   2.292
59645W        W23402  11.331  20.034  11.884
59646W        W23403  14.303   4.401   3.712
59647W        W23404  24.608  29.598   3.178
59648W        W23405   9.257   1.369   3.277
59649W        W23406  43.332   1.354  11.887
59650W        W23407  36.873  13.257   0.415
59651W        W23408   6.782  13.726  12.461
59652W        W23409  19.667   8.827   3.286
59653W        W23410  25.065  32.541   1.279
59654W        W23411  30.936  27.946  13.392
59655W        W23412  17.590   2.816   1.703
59656W        W23413  10.702  40.820   1.818
59657W        W23414  39.926  32.097   4.784
59658W        W23415  28.509  16.704   9.494
59659W        W23416  14.244   4.291   0.470
59660W        W23417  21.176  18.102  10.567
59661W        W23418  18.737  22.574   0.813
59662W        W23419   8.802  40.855  13.041
59663W        W23420  13.605   1.315  12.981
59664W        W23421  14.796  26.997   0.741
59665W        W23422  12.764   8.225  10.906
59666W        W23423   1.442  18.611  13.821
59667W        W23424   0.457  39.942  11.007
59668W        W23425   4.260  39.444   2.676
59669W        W23426  14.603  44.397  11.581
59670W        W23427   3.905  11.226  10.899
59671W        W23428  23.521  26.570   0.475
59672W        W23429  34.479   9.787   2.375
59673W        W23430  30.976   0.261  14.363
59674W        W23431   2.468  36.583  13.876
59675W        W23432  13.835  28.998   3.219
59676W        W23433  15.754   9.795  12.406
59677W        W23434   1.809  28.068   0.843
59678W        W23435  37.049   9.166   4.205
59679W        W23436   7.341  21.568  14.391
59680W        W23437  24.635  19.051   3.214
59681W        W23438  20.069  16.756  13.507
59682W        W23439  17.642  13.666   4.295
59683W        W23440  42.434  22.188  14.940
59684W        W23441   6.762   5.692   2.710
59685W        W23442  19.060   1.750  11.855
59686W        W23443   5.791  11.207  10.417
59687W        W23444  33.462  21.133   3.643
59688W        W23445  37.416  44.455  11.553
59689W        W23446  14.617  11.208  10.929
59690W        W23447  38.464  31.995  11.982
59691W        W23448  32.049  43.772  14.373
59692W        W23449   8.805  19.641  14.958
59693W        W23450  23.036  24.638   4.206
59694W        W23451  12.646  33.050  14.872
59695W        W23452  24.992   5.873  13.970
59696W        W23453  28.000  43.903  11.468
59697W        W23454   8.232  21.633   1.231
59698W        W23455  31.568  28.621  11.070
59699W        W23456  40.990   3.717  12.918
59700W        W23457   2.300  35.012  14.387
59701W        W23458  35.917   4.712   3.166
59702W        W23459  28.669   2.307  14.829
59703W        W23460  43.367  12.211   4.759
59704W        W23461  22.056  33.961  13.342
59705W        W23462  34.106  31.449  11.558
59706W        W23463  10.281  34.949  11.103
59707W        W23464  36.954  28.102  10.622
59708W        W23465  39.404  35.091   0.356
59709W        W23466  25.653  11.746  13.904
59710W        W23467  24.663   7.288  10.425
59711W        W23468  29.175  41.037  12.910
59712W        W23469  28.633  40.839   0.806
59713W        W23470  14.603  14.720  14.486
59714W        W23471  25.008  11.338   0.374
59715W        W23472  22.155  39.451   2.259
59716W        W23473  17.714  17.760   0.789
59717W        W23474  10.191  12.831   1.858
59718W        W23475  17.294  39.002  12.361
59719W        W23476   9.379  40.882  12.400
59720W        W23477  13.765   8.852   4.229
59721W        W23478  33.875  20.115   1.252
59722W        W23479  30.558  29.664   0.269
59723W        W23480   8.174  12.772  11.573
59724W        W23481  39.839  20.631   4.765
59725W        W23482  33.045  10.350   4.302
59726W        W23483  30.139   4.725   0.376
59727W        W23484  12.284  42.980  10.001
59728W        W23485  15.754  31.998   3.325
59729W        W23486  13.140  30.541   3.217
59730W        W23487  41.012  35.579   2.865
59731W        W23488  18.654   0.762  14.785
59732W        W23489  41.826  26.649  13.893
59733W        W23490  34.067  32.538  12.845
59734W        W23491  32.886  16.267   0.757
59735W        W23492  42.859  43.802  13.857
59736W        W23493  15.605  44.353  13.816
59737W        W23494  19.065  28.127  12.879
59738W        W23495   6.313  31.926  12.965
59739W        W23496   2.366  12.686  10.441
59740W        W23497   5.434  19.616   4.660
59741W        W23498  43.953  26.513  14.799
59742W        W23499  30.921   7.700  13.980
59743W        W23500   5.722  43.365  11.543
59744W        W23501  30.093  25.484  10.521
59745W        W23502   8.303   0.348   1.439
59746W        W23503  41.345  11.332   2.222
59747W        W23504  19.225  41.358   3.313
59748W        W23505  21.061  20.544   4.686
59749W        W23506  12.331  23.098  12.580
59750W        W23507   4.889   0.294   1.297
59751W        W23508  22.102  33.409   0.444
59752W        W23509  32.942  25.127  14.961
59753W        W23510  39.978  12.826  11.459
59754W        W23511   9.855   0.423  14.388
59755W        W23512  13.704  35.947  13.435
59756W        W23513   1.269  40.322   1.272
59757W        W23514  25.123  12.132  14.923
59758W        W23515   9.645  20.225  12.447
59759W        W23516  28.937  23.020   0.828
59760W        W23517  20.074  15.789  12.978
59761W        W23518  16.668   1.834  12.940
59762W        W23519  44.397  12.166  14.765
59763W        W23520   3.737  25.127  11.008
59764W        W23521   0.937   0.372   2.251
59765W        W23522  33.437   2.291   2.366
59766W        W23523  41.530  38.560  13.324
59767W        W23524   9.833  19.634  13.947
59768W        W23525  30.049  17.740  10.451
59769W        W23526  22.658  37.868   2.264
59770W        W23527  31.643  28.024   4.318
59771W        W23528  40.320  43.372   1.773
59772W        W23529  27.068   0.759   4.337
59773W        W23530  21.680  38.018   1.863
59774W        W23531  43.319  35.450   1.240
59775W        W23532  39.489   3.335   5.718
59776W        W23533  32.907  30.999   9.513
59777W        W23534  35.952   0.769  13.430
59778W        W23535  38.431  23.664  14.365
59779W        W23536   9.384  30.026   0.413
59780W        W23537   9.349  29.482  13.406
59781W        W23538  10.169  42.888  13.518
59782W        W23539   3.443  38.014  14.949
59783W        W23540  31.645  43.983  10.539
59784W        W23541  36.461  12.672   1.375
59785W        W23542  36.864  28.497  14.854
59786W        W23543  35.022   6.859   4.166
59787W        W23544   1.741  35.014   4.783
59788W        W23545  30.965  42.353   4.752
59789W        W23546   2.444  11.848   1.746
59790W        W23547   2.313   6.368   1.836
59791W        W23548  16.293  18.734  14.014
59792W        W23549  31.124  34.524  13.476
59793W        W23550  44.754  21.717   3.274
59794W        W23551  13.268  23.694  14.911
59795W        W23552  44.832  19.636  12.056
59796W        W23553  43.300  19.680  12.440
59797W        W23554  41.998  14.716  12.422
59798W        W23555  16.157  31.537  14.345
59799W        W23556  44.900   0.801   0.443
59800W        W23557  11.141  33.945  13.385
59801W        W23558  31.898  20.073  11.566
59802W        W23559  20.204   1.420   4.606
59803W        W23560   3.405  13.729   4.600
59804W        W23561  42.425   6.777  13.494
59805W        W23562  26.546  23.138  10.948
59806W        W23563  24.704  29.172   2.821
59807W        W23564  23.545  27.960  12.058
59808W        W23565   6.327  19.678  13.405
59809W        W23566  23.538   5.771   3.717
59810W        W23567  18.153   1.411   1.268
59811W        W23568  39.418  26.632  14.411
59812W        W23569  43.276  28.501  12.058
59813W        W23570   6.386  32.094  10.472
59814W        W23571   3.937  10.140   4.812
59815W        W23572  24.002  15.164   1.723
59816W        W23573  31.093  41.426   2.183
59817W        W23574  42.832  12.271  14.299
59818W        W23575  25.620  28.440   4.816
59819W        W23576  27.112  16.110  14.487
59820W        W23577  39.843  18.100   1.247
59821W        W23578  40.354   6.293  13.839
59822W        W23579  30.932  39.341   3.200
59823W        W23580  17.692  27.096  14.779
59824W        W23581  15.813  39.438  12.967
59825W        W23582  15.243  25.555  13.969
59826W        W23583   1.813  19.744  11.986
59827W        W23584  30.459  39.866  12.544
59828W        W23585  44.348  43.349   0.835
59829W        W23586  22.574  28.056   3.351
59830W        W23587  29.427   6.296  10.088
59831W        W23588   4.414   4.251   1.705
59832W        W23589   4.394  15.103  12.081
59833W        W23590  43.016  30.103   0.860
59834W        W23591   3.776   9.702  11.884
59835W        W23592  43.988   8.874   1.818
59836W        W23593  18.607  36.911   4.144
59837W        W23594  41.528  19.141   3.204
59838W        W23595  17.612  12.758  13.413
59839W        W23596  38.076   5.820  12.878
59840W        W23597  32.015  34.609   4.601
59841W        W23598  34.893  22.249   0.736
59842W        W23599  31.081  42.403   3.359
59843W        W23600  44.504  35.924  10.602
59844W        W23601  19.112   2.388   0.254
59845W        W23602   9.742  41.308  12.566
59846W        W23603  24.193   8.682   4.657
59847W        W23604  17.238   1.919  10.951
59848W        W23605  23.109   6.358   0.769
59849W        W23606  21.567  39.335   0.252
59850W        W23607  33.000  25.004   1.247
59851W        W23608  14.296  35.974  13.472
59852W        W23609  29.108  36.497  12.007
59853W        W23610  18.252  27.953   4.765
59854W        W23611   0.797  44.906  12.919
59855W        W23612  18.219  14.332  10.501
59856W        W23613  11.741  16.663  13.316
59857W        W23614   9.200  26.571   3.846
59858W        W23615  14.618  44.781  11.085
59859W        W23616  21.221  44.349  10.484
59860W        W23617  14.793  24.138  11.520
59861W        W23618  17.669   1.337   0.301
59862W        W23619  24.203  20.247  14.424
59863W        W23620  28.026  19.756  11.438
59864W        W23621  43.453  10.733   2.418
59865W        W23622  34.874  26.197   2.350
59866W        W23623  36.573   3.834   3.361
59867W        W23624  40.821  14.243  11.471
59868W        W23625  30.125  24.116  14.417
59869W        W23626  34.999  26.003   1.905
59870W        W23627  38.462  12.234  12.391
59871W        W23628  34.088  16.669  14.024
59872W        W23629  21.602  37.526   2.825
59873W        W23630  23.604  37.013   0.258
59874W        W23631  18.692  42.814  14.371
59875W        W23632  26.635  38.395   1.881
59876W        W23633  35.888  11.712   0.332
59877W        W23634  16.585  38.326  14.324
59878W        W23635   3.388  22.510   2.794
59879W        W23636  38.972  28.062   5.208
59880W        W23637  40.373  32.967   2.851
59881W        W23638  20.137  19.587   0.769
59882W        W23639  29.605   7.769   1.383
59883W        W23640   8.837  21.075  10.462
59884W        W23641   8.166  33.446  13.887
59885W        W23642  30.575   1.738   9.936
59886W        W23643  37.848  31.029   3.718
59887W        W23644  23.093  44.376   2.320
59888W        W23645  15.683  43.854  12.988
59889W        W23646  43.994  15.310   4.277
59890W        W23647  37.484  44.269  12.386
59891W        W23648  16.591   9.270   4.332
59892W        W23649  15.220   2.841   4.266
59893W        W23650  39.029  23.018  11.104
59894W        W23651  42.292  31.428  14.960
59895W        W23652  23.106  25.480  14.991
59896W        W23653  34.072  41.401  11.503
59897W        W23654  21.074  13.293  12.546
59898W        W23655   9.333  34.095   3.161
59899W        W23656   6.323  44.959  12.050
59900W        W23657   0.248   6.807  14.386
59901W        W23658  41.435  18.163   4.139
59902W        W23659  19.658  20.064  14.998
59903W        W23660  13.313  11.218   0.448
59904W        W23661  34.033   7.847  13.316
59905W        W23662   7.240  32.983   0.802
59906W        W23663  25.158  40.053  11.570
59907W        W23664  26.675  19.649   3.215
59908W        W23665  17.127  28.566  11.526
59909W        W23666  12.218  22.548   4.142
59910W        W23667  13.156  16.094   2.392
59911W        W23668   6.796   9.393  11.094
59912W        W23669  21.225  27.616   1.254
59913W        W23670  11.272  28.953   1.777
59914W        W23671  18.665   7.242   3.266
59915W        W23672   0.331  44.820  11.566
59916W        W23673  27.476  18.182   1.324
59917W        W23674  25.656  40.420   3.686
59918W        W23675  37.852   1.826  12.557
59919W        W23676  21.681  11.144  12.030
59920W        W23677  17.254  38.983  10.895
59921W        W23678  31.436  10.850   1.241
59922W        W23679   1.317  24.586  14.438
59923W        W23680  21.693  32.087  14.304
59924W        W23681  23.560  16.118  12.025
59925W        W23682   6.245   2.406   0.439
59926W        W23683  28.497  33.480   2.416
59927W        W23684   9.734   8.813   2.678
59928W        W23685  36.518   6.774  12.570
59929W        W23686  23.169   8.255  13.870
59930W        W23687  11.239   6.728   2.195
59931W        W23688  32.903  22.541   1.847
59932W        W23689  15.284   2.962   9.576
59933W        W23690  40.462  20.535   4.227
59934W        W23691  12.354  25.571  14.333
59935W        W23692  18.229  17.204  13.495
59936W        W23693  28.479  39.056  12.882
59937W        W23694  35.520  35.958   3.718
59938W        W23695   5.388  37.888   3.788
59939W        W23696  22.539  15.213  12.964
59940W        W23697  35.555  27.155  11.996
59941W        W23698   2.893  19.675  13.992
59942W        W23699  21.047   8.860   3.716
59943W        W23700   3.397  42.455   5.179
59944W        W23701  32.914  42.970   1.791
59945W        W23702  21.074  43.852   3.211
59946W        W23703   0.276  12.767  13.892
59947W        W23704  11.162  11.204   1.923
59948W        W23705  20.172  20.057   2.200
59949W        W23706  38.459  16.799   1.262
59950W        W23707  20.088  34.577   2.720
59951W        W23708  36.988   9.835   3.208
59952W        W23709  17.586  20.243  11.006
59953W        W23710  23.592  33.399  10.480
59954W        W23711   6.241  40.965   3.778
59955W        W23712  15.798  39.361  11.060
59956W        W23713  30.131  37.984  13.475
59957W        W23714  35.539  32.896   3.685
59958W        W23715   6.415  33.397  12.866
59959W        W23716  37.863  22.245  12.383
59960W        W23717  18.152  13.273  11.093
59961W        W23718   9.655  40.962  14.987
59962W        W23719   5.199  41.951   4.131
59963W        W23720   9.682  21.194  14.461
59964W        W23721  30.140  38.566   0.356
59965W        W23722   9.354   6.198   0.838
59966W        W23723   8.761  31.430  13.422
59967W        W23724   0.880  22.072   4.760
59968W        W23725   5.310  14.665   0.775
59969W        W23726  43.823  30.459   4.320
59970W        W23727  38.490  38.075   1.324
59971W        W23728  41.826  40.424  12.902
59972W        W23729  37.412   6.193  11.477
59973W        W23730   3.867  14.735   4.824
59974W        W23731  30.091  26.027  12.444
59975W        W23732  37.085  12.329  13.852
59976W        W23733  41.425  36.911   2.295
59977W        W23734  25.684  17.714   1.701
59978W        W23735   6.288  24.095   4.615
59979W        W23736  24.100  44.443  11.870
59980W        W23737  36.010  15.138   3.254
59981W        W23738  37.043  31.028   4.829
59982W        W23739  38.533  20.612   1.875
59983W        W23740  22.552  21.022  10.126
59984W        W23741   7.396  24.714   2.700
59985W        W23742  12.737  18.072  14.997
59986W        W23743   4.877   9.313   3.244
59987W        W23744  38.555  24.096  14.285
59988W        W23745  38.826  26.593  13.033
59989W        W23746  36.853  34.541  12.433
59990W        W23747  13.229   8.803   3.855
59991W        W23748  32.466  25.980   9.960
59992W        W23749  29.091   9.395   0.396
59993W        W23750  23.090  35.487   4.790
59994W        W23751   5.902  20.767  10.568
59995W        W23752   0.402  24.107   4.660
59996W        W23753  44.273  10.654   0.818
59997W        W23754  33.112  23.525   3.297
59998W        W23755  15.729  27.070   2.239
59999W        W23756   0.902  23.676   0.368
60000W        W23757  12.350  40.399   1.825
60001W        W23758  12.283  31.533   2.681
60002W        W23759  12.847   0.879   3.712
60003W        W23760   2.424   4.910   3.672
60004W        W23761  20.198  11.828   0.461
60005W        W23762   1.242  16.304   4.292
60006W        W23763   9.771  20.117   3.651
60007W        W23764  42.936  31.576   4.788
60008W        W23765  42.829   8.879  11.410
60009W        W23766  18.614  35.532  10.041
60010W        W23767  27.120  28.586   1.696
60011W        W23768  44.263  44.268  13.057
60012W        W23769  25.516  12.186   2.787
60013W        W23770   9.285  42.390  10.062
60014W        W23771  33.593  28.015  13.990
60015W        W23772  35.030  10.665  12.493
60016W        W23773  32.479  12.723   1.824
60017W        W23774  29.534  34.426  12.556
60018W        W23775  44.942  23.727  11.993
60019W        W23776  16.693   2.226   1.305
60020W        W23777  44.994  25.130   2.709
60021W        W23778  35.461   9.688  14.299
60022W        W23779  29.467  38.890  14.994
60023W        W23780  30.072  32.506   1.387
60024W        W23781  43.359   4.790  14.759
60025W        W23782  41.034  12.160   0.357
60026W        W23783  20.723  27.024   1.768
60027W        W23784  19.173  16.810  10.559
60028W        W23785   7.867  15.311   5.241
60029W        W23786  30.118  10.767  14.000
60030W        W23787  28.109  40.330   5.109
60031W        W23788  33.937  41.337   1.224
60032W        W23789  23.506  22.121  10.047
60033W        W23790   4.731  16.770   0.276
60034W        W23791  26.134  18.090  11.509
60035W        W23792  41.462  24.611  14.472
60036W        W23793  17.706  22.719  13.806
60037W        W23794  24.014  35.939  10.612
60038W        W23795  16.128  32.475  14.288
60039W        W23796  36.994  40.842  14.874
60040W        W23797   9.166  15.181   0.372
60041W        W23798  19.152  22.744   3.363
60042W        W23799  11.201  21.702   2.359
60043W        W23800  27.003  31.149   1.288
60044W        W23801  38.403  27.580  14.945
60045W        W23802  20.178  16.200   1.346
60046W        W23803  29.042   1.303   1.341
60047W        W23804  22.563  35.990  12.878
60048W        W23805  13.711   0.267  13.445
60049W        W23806   3.945  22.527  10.024
60050W        W23807  14.774  15.269  10.592
60051W        W23808  23.665  35.906  14.315
60052W        W23809  34.530  30.544  12.528
60053W        W23810  20.273   7.838   0.882
60054W        W23811  40.337  37.833   2.744
60055W        W23812  26.617  16.675  11.964
60056W        W23813  21.208   1.809  12.473
60057W        W23814  35.432  12.163   0.420
60058W        W23815  30.441  16.207   4.276
60059W        W23816  34.506   6.241   3.203
60060W        W23817   2.424  44.473   0.336
60061W        W23818   6.676  31.563   0.920
60062W        W23819  34.055  13.161  13.489
60063W        W23820  18.284  38.012  14.331
60064W        W23821  34.029  10.207  12.434
60065W        W23822  29.532  25.668  14.459
60066W        W23823   2.373  24.584   0.449
60067W        W23824  16.628  40.424  13.015
60068W        W23825  20.092   3.859   2.892
60069W        W23826  16.122  16.576  13.973
60070W        W23827  25.004  39.936  12.846
60071W        W23828   7.852  27.027  11.475
60072W        W23829  32.434  12.350   2.250
60073W        W23830  21.628  32.993  11.376
60074W        W23831  35.532  33.421   0.887
60075W        W23832  18.591   2.416  13.317
60076W        W23833  26.700  42.924   1.866
60077W        W23834  34.907  44.847   1.277
60078W        W23835  38.896  28.038  13.417
60079W        W23836  17.123  10.179  11.950
60080W        W23837  32.062   0.791   3.840
60081W        W23838  13.782  44.923  13.527
60082W        W23839  28.041  40.397   4.294
60083W        W23840   7.380  39.918  10.042
60084W        W23841  24.712  25.602   0.858
60085W        W23842  22.581  43.848   3.231
60086W        W23843   8.289  33.910   2.697
60087W        W23844   1.460  17.115   1.362
60088W        W23845  25.132  10.702  14.902
60089W        W23846   6.223   8.691   3.284
60090W        W23847  39.038  39.966  12.900
60091W        W23848  15.303  13.170  14.009
60092W        W23849  34.527  30.082  10.576
60093W        W23850  37.974  30.448   4.173
60094W        W23851  33.414  44.280  10.959
60095W        W23852  39.323   4.417  13.845
60096W        W23853  38.021   0.871  12.533
60097W        W23854  19.697   6.796   1.313
60098W        W23855  41.026  23.204   3.798
60099W        W23856  23.071  21.638   0.740
60100W        W23857  30.164  27.622   0.477
60101W        W23858   8.759  29.511   3.368
60102W        W23859  25.580   0.975  12.416
60103W        W23860  18.608  33.939  12.441
60104W        W23861  12.749  24.032   4.148
60105W        W23862   0.848   2.415   4.176
60106W        W23863   7.346  30.933   2.189
60107W        W23864  10.667  39.352   2.712
60108W        W23865  17.162  22.656  12.428
60109W        W23866  18.737   9.669  12.988
60110W        W23867  40.499  14.272  10.075
60111W        W23868  30.096   3.381  12.027
60112W        W23869  18.158  22.529  10.424
60113W        W23870  42.999  36.849   0.824
60114W        W23871   9.228  25.146  13.996
60115W        W23872  11.776  40.833  14.295
60116W        W23873  18.553  31.510   2.306
60117W        W23874  16.580  42.972   3.280
60118W        W23875  19.128   8.692  11.971
60119W        W23876  38.934   4.733   0.338
60120W        W23877   3.296  18.251   1.315
60121W        W23878  41.022  12.628   3.327
60122W        W23879  38.332  44.457   3.334
60123W        W23880   2.427  29.648  13.847
60124W        W23881  39.869  41.383  12.873
60125W        W23882   9.683   6.205   0.956
60126W        W23883  35.039  16.238   4.296
60127W        W23884   3.361  31.068  10.526
60128W        W23885  29.594  19.670   2.821
60129W        W23886   4.798  32.912   4.830
60130W        W23887  10.837  18.103  12.364
60131W        W23888  35.496  14.120  12.977
60132W        W23889  39.922  35.447   0.335
60133W        W23890   8.901  36.433   1.771
60134W        W23891  39.445  24.592   1.713
60135W        W23892  28.458  31.051   0.259
60136W        W23893  26.204   6.415  13.873
60137W        W23894   7.745  42.308   4.126
60138W        W23895  33.438  43.002   5.083
60139W        W23896  27.950  42.907   3.816
60140W        W23897   3.902  10.304  10.613
60141W        W23898  43.508  10.215   0.426
60142W        W23899  16.240  13.259  13.501
60143W        W23900  29.934   6.410   0.312
60144W        W23901  31.116  23.148  11.919
60145W        W23902  31.526  27.107   1.383
60146W        W23903   1.831  11.723   4.126
60147W        W23904   9.278  24.059  14.279
60148W        W23905  19.157  33.561   2.193
60149W        W23906  43.285  13.735  14.958
60150W        W23907  15.590   3.381   5.236
60151W        W23908  23.607  10.810   2.268
60152W        W23909  40.438  36.403   3.725
60153W        W23910   8.752  26.612   0.305
60154W        W23911  11.647  16.189   4.316
60155W        W23912  18.649  20.270   4.226
60156W        W23913   0.862  29.019   1.897
60157W        W23914   3.269  16.274  14.938
60158W        W23915   7.795  17.100  12.078
60159W        W23916  32.563  35.007  14.853
60160W        W23917  18.068  16.271  10.893
60161W        W23918  27.094  42.291  12.012
60162W        W23919  12.352  19.690   3.267
60163W        W23920  42.928  40.811   2.247
60164W        W23921  13.302  31.981   4.124
60165W        W23922  16.793   7.705   3.247
60166W        W23923   7.326  28.493   1.730
60167W        W23924  27.588   3.838   2.669
60168W        W23925  22.682  22.147  11.983
60169W        W23926  16.239   4.889   9.949
60170W        W23927  44.880  44.444  11.463
60171W        W23928  22.692  33.979  11.446
60172W        W23929  38.076  19.162  13.844
60173W        W23930  15.099  31.026  13.033
60174W        W23931  10.735   4.289   1.359
60175W        W23932   2.231  15.137   0.821
60176W        W23933  32.574  36.028   3.163
60177W        W23934  38.383  11.253  12.477
60178W        W23935  41.484  19.161  12.444
60179W        W23936  30.939   6.401  13.361
60180W        W23937   6.319  20.678  10.027
60181W        W23938   7.365  36.905  13.984
60182W        W23939   3.945  14.259  13.332
60183W        W23940  42.942  12.652  14.758
60184W        W23941  17.104   1.785   0.432
60185W        W23942  18.276  43.421  11.928
60186W        W23943  28.545  41.808   2.830
60187W        W23944   9.740  18.148   4.129
60188W        W23945  29.137  14.273  11.929
60189W        W23946   9.746  29.662   0.264
60190W        W23947  14.271  34.990   4.747
60191W        W23948  17.210  16.295   3.650
60192W        W23949  38.492  24.090  13.942
60193W        W23950   8.888  25.126   1.423
60194W        W23951  41.849  29.578  14.366
60195W        W23952  15.191  16.136  11.894
60196W        W23953  36.382  33.981  12.558
60197W        W23954  22.553  42.950  12.418
60198W        W23955  26.667   1.899  13.429
60199W        W23956  27.968  39.014  11.423
60200W        W23957  44.310  39.557   3.720
60201W        W23958  23.235  33.890   3.857
60202W        W23959   4.711  15.697   4.729
60203W        W23960  26.650  15.684  13.987
60204W        W23961   8.749  34.395  13.934
60205W        W23962  21.069  31.009   3.777
60206W        W23963   1.779  13.814   0.386
60207W        W23964  24.092  17.174   1.234
60208W        W23965  41.905  20.575  10.518
60209W        W23966  21.247   2.434   5.207
60210W        W23967  29.455  15.640   3.732
60211W        W23968  20.579   4.920  13.387
60212W        W23969  15.173  11.229  14.852
60213W        W23970   7.710  30.009   0.895
60214W        W23971  40.408  28.051   2.203
60215W        W23972  33.880   0.297   2.673
60216W        W23973   1.381  23.192   4.129
60217W        W23974  32.109  34.441   2.682
60218W        W23975  41.359   3.338  11.020
60219W        W23976  34.404  26.953  12.076
60220W        W23977  42.960  28.086  12.940
60221W        W23978  21.684  35.963   1.218
60222W        W23979   0.876  12.720  13.975
60223W        W23980  38.987  22.137   3.838
60224W        W23981   1.750  10.277   1.423
60225W        W23982  16.219   8.168  12.881
60226W        W23983  11.774  35.944  11.907
60227W        W23984  11.275   8.384  11.999
60228W        W23985   0.342  30.990  14.899
60229W        W23986  26.020  10.805  11.018
60230W        W23987  24.000  26.554   1.230
60231W        W23988  31.588  22.017  14.445
60232W        W23989  24.067  21.634   1.769
60233W        W23990   1.969  20.265   4.312
60234W        W23991  12.306  42.959  14.355
60235W        W23992  25.215   6.712   1.815
60236W        W23993  26.164  15.632  12.044
60237W        W23994   3.215   7.406  14.915
60238W        W23995   1.398  29.599   0.435
60239W        W23996  25.078   6.678   3.823
60240W        W23997   5.887  13.711  11.554
60241W        W23998  33.035  29.583  13.336
60242W        W23999  19.117  15.675   1.220
60243W        W24000  14.138  20.134  13.800
60244W        W24001  16.092  16.160   1.255
60245W        W24002  33.396  28.447   2.824
60246W        W24003  12.674  40.527   4.727
60247W        W24004  44.881  39.406  11.534
60248W        W24005  29.139  24.703   2.398
60249W        W24006  21.729  37.557   2.302
60250W        W24007  40.528  40.993  13.313
60251W        W24008  27.064  23.728   1.772
60252W        W24009  34.081   9.699  11.595
60253W        W24010  32.098  44.481   4.796
60254W        W24011   3.930  44.282  13.320
60255W        W24012   1.851  11.664  12.021
60256W        W24013   4.343  14.613   1.284
60257W        W24014  24.217  11.263  10.611
60258W        W24015  19.730   4.260  12.848
60259W        W24016   5.814   7.194  14.940
60260W        W24017  26.044  26.063  11.403
60261W        W24018   3.300  26.179   0.377
60262W        W24019  38.988  10.716   0.788
60263W        W24020  35.554  44.766   0.818
60264W        W24021  24.630  41.839   2.843
60265W        W24022  42.943  17.277   1.878
60266W        W24023   0.372  18.095   0.396
60267W        W24024  11.186  33.514  13.442
60268W        W24025  14.746  39.536  12.934
60269W        W24026   5.787  10.643   2.410
60270W        W24027  37.581  34.921  13.419
60271W        W24028  43.826   0.399  13.393
60272W        W24029  25.177  11.748   2.400
60273W        W24030  34.908  23.558  10.408
60274W        W24031  21.058  21.040  10.630
60275W        W24032  32.533  11.222   0.913
60276W        W24033  17.169   4.765  12.534
60277W        W24034  10.203  37.053  12.409
60278W        W24035  38.430  21.550  11.068
60279W        W24036  44.268  15.654  14.921
60280W        W24037  26.515  24.982  10.137
60281W        W24038  12.683  12.224  10.595
60282W        W24039  25.101  41.968   2.280
60283W        W24040  36.497  14.111  13.820
60284W        W24041  40.518  36.582   2.263
60285W        W24042  14.723  23.523   0.392
60286W        W24043  40.851  31.146   4.823
60287W        W24044   5.877  35.439   3.797
60288W        W24045  20.261  38.072   3.298
60289W        W24046  32.544  21.090  13.482
60290W        W24047  28.492   7.396  14.499
60291W        W24048  12.709   0.947  12.536
60292W        W24049   9.304  35.103   1.362
60293W        W24050  36.578   7.198  14.778
60294W        W24051  43.452  30.626   4.134
60295W        W24052  32.559   7.863   2.337
60296W        W24053  14.672  25.587  13.318
60297W        W24054   9.198  23.039  13.052
60298W        W24055  28.676  33.052   4.188
60299W        W24056  26.956  37.374  10.490
60300W        W24057  39.991  36.386  10.416
60301W        W24058   8.812   0.971   1.255
60302W        W24059  13.844  30.059  10.485
60303W        W24060  14.748  16.587  13.050
60304W        W24061  33.086  41.348  10.431
60305W        W24062  11.730  23.221   2.684
60306W        W24063  43.274   1.469   0.462
60307W        W24064  28.083  14.172   0.801
60308W        W24065  40.455   5.867   1.452
60309W        W24066  35.395  32.015  10.487
60310W        W24067  40.505  19.690   3.176
60311W        W24068   5.301  44.481   1.912
60312W        W24069   2.830  27.456   0.839
60313W        W24070  18.606   2.427   4.249
60314W        W24071  18.085  33.600  12.876
60315W        W24072  42.928  39.845   3.854
60316W        W24073  32.973  23.719  12.379
60317W        W24074  42.790  24.219   2.683
60318W        W24075   3.343  42.846  10.623
60319W        W24076  18.226   6.916   3.218
60320W        W24077  42.416  24.719  12.479
60321W        W24078   8.390  30.625   2.217
60322W        W24079  22.037   7.373  14.026
60323W        W24080  44.463  18.696   3.812
60324W        W24081  33.450  17.607   1.786
60325W        W24082  33.076  43.419   3.639
60326W        W24083   7.717   5.197  14.396
60327W        W24084  17.559  25.997   4.280
60328W        W24085   9.270  13.237  11.463
60329W        W24086   4.915  31.513   0.760
60330W        W24087  33.000  15.223  13.364
60331W        W24088   9.864  24.170  11.965
60332W        W24089  14.642  29.032  14.935
60333W        W24090   0.431  36.405   2.756
60334W        W24091  28.479  17.249   3.630
60335W        W24092  17.584  16.224   1.211
60336W        W24093  41.402  28.956   2.699
60337W        W24094   6.811  43.012   0.389
60338W        W24095  39.427   3.796   3.337
60339W        W24096  17.588   1.429  11.874
60340W        W24097   6.846  18.601  12.549
60341W        W24098   8.305  15.186   0.895
60342W        W24099  32.435  37.035   1.323
60343W        W24100  38.349  22.530  12.009
60344W        W24101  37.377  19.746  10.994
60345W        W24102  23.143   7.371  13.523
60346W        W24103   5.875  19.285   4.685
60347W        W24104  29.023   8.820   2.349
60348W        W24105  36.935   1.824   9.445
60349W        W24106  25.583   7.293  11.936
60350W        W24107  35.982  19.566   5.306
60351W        W24108  41.880  25.576   0.782
60352W        W24109  38.834  41.021   1.740
60353W        W24110  39.933  36.366  14.946
60354W        W24111  22.675  30.101   1.241
60355W        W24112  23.651  36.090  12.563
60356W        W24113   3.326  28.039   1.326
60357W        W24114   2.327  36.034  13.388
60358W        W24115  35.440  18.200  14.956
60359W        W24116  16.140  35.892   3.379
60360W        W24117  12.829  34.936  14.286
60361W        W24118  33.409   7.880   2.310
60362W        W24119  31.120  38.895  12.421
60363W        W24120  41.418   7.679   3.729
60364W        W24121  38.895  37.887  14.313
60365W        W24122  32.950  25.601  11.935
60366W        W24123  23.690  27.143  11.986
60367W        W24124  18.578   6.334   4.180
60368W        W24125  19.096  11.669  11.481
60369W        W24126  12.731  27.476   2.360
60370W        W24127  28.536  31.506   1.701
60371W        W24128  17.140   8.359   3.821
60372W        W24129  11.291  20.744   4.335
60373W        W24130  16.146  32.106   2.687
60374W        W24131  35.976   2.966   2.760
60375W        W24132   2.285  25.147  12.075
60376W        W24133   1.920  33.399  14.449
60377W        W24134  31.405  37.021   0.745
60378W        W24135   7.410   9.373   0.442
60379W        W24136  31.614  23.546  13.330
60380W        W24137  13.723  12.674  10.430
60381W        W24138  40.538   2.471   2.662
60382W        W24139  42.802  17.799   0.884
60383W        W24140  34.403  33.017   0.915
60384W        W24141  10.300  40.544   4.212
60385W        W24142  28.488  19.753  14.993
60386W        W24143  24.185  12.682  12.826
60387W        W24144  16.659  14.206  13.931
60388W        W24145  39.344  43.364   0.275
60389W        W24146  34.928  13.704   3.824
60390W        W24147  44.797   8.891   2.808
60391W        W24148  32.900  24.573  10.928
60392W        W24149  35.089  23.987   3.677
60393W        W24150  39.545  30.102  11.546
60394W        W24151   8.255  17.783   1.221
60395W        W24152  43.011  40.352  10.529
60396W        W24153  15.103   9.854   0.286
60397W        W24154  31.917  21.148   4.234
60398W        W24155  36.407  26.968   9.945
60399W        W24156   7.777  24.641   1.910
60400W        W24157  32.493  40.451   0.445
60401W        W24158  43.876  43.935   0.286
60402W        W24159  41.960   4.746   0.857
60403W        W24160   9.753   6.197   3.205
60404W        W24161  44.823   2.402   0.257
60405W        W24162   7.693   8.662  12.848
60406W        W24163  42.308  38.445  13.322
60407W        W24164  15.124  17.562  11.052
60408W        W24165  36.492  37.339   2.887
60409W        W24166  33.458   3.754   2.819
60410W        W24167  14.723  17.299  14.917
60411W        W24168  28.568  11.714  10.536
60412W        W24169   3.446  24.001   3.681
60413W        W24170   3.450  32.124   5.176
60414W        W24171   8.402  14.293  14.287
60415W        W24172  10.772  26.519  14.344
60416W        W24173  22.247  38.074   4.347
60417W        W24174  41.984  23.115  13.403
60418W        W24175  18.584   4.221   2.768
60419W        W24176  28.598  32.567   4.231
60420W        W24177  36.955  11.223  11.088
60421W        W24178  11.168  30.489  12.469
60422W        W24179  41.790  25.127  12.526
60423W        W24180  37.535  43.928   4.629
60424W        W24181   5.359  31.036   0.302
60425W        W24182  28.150  25.695   4.252
60426W        W24183   4.855  23.521   2.809
60427W        W24184  42.811  31.088  11.069
60428W        W24185   4.264  27.581  11.559
60429W        W24186  17.642  40.319   3.777
60430W        W24187  15.703  18.561   4.622
60431W        W24188  18.195  31.014  11.122
60432W        W24189  25.149  14.751   1.792
60433W        W24190  22.522   7.895   0.901
60434W        W24191   4.318  21.591   1.762
60435W        W24192  15.647  37.508   0.433
60436W        W24193  24.535  14.289   0.828
60437W        W24194  25.031  12.656   3.828
60438W        W24195  13.220   7.232   4.295
60439W        W24196  39.043  22.536   3.830
60440W        W24197   2.936  43.855   3.309
60441W        W24198  36.533  36.347  14.972
60442W        W24199  42.920  12.742  12.996
60443W        W24200  10.785  39.445  14.511
60444W        W24201  34.084   9.245  12.558
60445W        W24202  12.303  30.996  14.816
60446W        W24203  42.030  19.208   3.825
60447W        W24204   0.804  36.507  14.466
60448W        W24205   1.776   9.763   2.768
60449W        W24206  23.597  12.354  13.949
60450W        W24207  10.251  40.384  13.820
60451W        W24208   4.351   0.439  10.540
60452W        W24209  37.971  43.388  13.012
60453W        W24210   5.410   8.828   4.313
60454W        W24211  28.133  40.976  13.946
60455W        W24212  30.968  17.293  12.039
60456W        W24213  39.905  29.572  11.999
60457W        W24214  20.101   6.292  12.573
60458W        W24215  21.554  13.712   4.251
60459W        W24216  14.665  38.909   0.730
60460W        W24217  32.495  18.554   1.841
60461W        W24218   0.944  40.980  12.895
60462W        W24219  24.153  13.624  13.376
60463W        W24220  26.483   7.836  11.947
60464W        W24221  30.647   4.795  13.052
60465W        W24222   4.722  24.573  14.871
60466W        W24223  12.726  38.953   0.815
60467W        W24224   0.879  42.502   3.171
60468W        W24225  44.788  26.572   4.639
60469W        W24226  14.171  27.983  10.554
60470W        W24227  18.236   6.864  11.065
60471W        W24228  14.698   9.373   1.440
60472W        W24229  36.930  21.720   3.781
60473W        W24230  41.041   4.354  11.859
60474W        W24231   6.774  12.689  14.295
60475W        W24232  29.465   9.805  14.893
60476W        W24233  22.043  20.175  13.814
60477W        W24234   9.679   2.829   4.644
60478W        W24235  28.134  13.846  10.068
60479W        W24236  31.538  14.288   3.668
60480W        W24237  26.549  29.431  14.287
60481W        W24238   7.808  18.291   5.154
60482W        W24239   4.728  28.584  11.410
60483W        W24240   3.382  25.680   1.786
60484W        W24241  28.094  33.598  12.557
60485W        W24242  34.415  22.688  13.842
60486W        W24243  26.980  35.486  10.977
60487W        W24244  39.344   7.692   1.272
60488W        W24245  26.631  28.674  14.333
60489W        W24246  27.599  37.056   1.400
60490W        W24247  11.756  24.691  12.862
60491W        W24248  43.469  38.477   4.303
60492W        W24249  26.093  29.162  13.796
60493W        W24250  30.114  43.418  13.916
60494W        W24251  24.024  18.118   0.398
60495W        W24252  19.722  16.745  11.383
60496W        W24253   4.356   9.386  13.317
60497W        W24254   3.396  25.037   2.265
60498W        W24255  37.006   3.401   2.339
60499W        W24256   7.399  40.411   2.318
60500W        W24257   0.482  27.948   1.253
60501W        W24258  25.148  43.335  10.630
60502W        W24259  37.014  32.587  13.019
60503W        W24260  35.372  33.046  13.976
60504W        W24261  17.619   3.942   1.865
60505W        W24262  42.002   4.858  13.816
60506W        W24263  41.941  18.157   2.695
60507W        W24264  25.049  20.171  13.308
60508W        W24265  13.162  14.592   1.439
60509W        W24266   4.271  28.105  13.046
60510W        W24267  35.504  41.406  11.126
60511W        W24268  23.175  36.408   4.177
60512W        W24269   9.182  40.477   3.634
60513W        W24270  22.176  10.872   1.377
60514W        W24271  37.506  13.777   4.160
60515W        W24272  37.081  29.134  13.509
60516W        W24273  29.921  25.133   4.311
60517W        W24274  41.327   5.229  13.903
60518W        W24275  43.289   3.730   0.853
60519W        W24276  19.045  16.272  14.928
60520W        W24277  12.693  10.823   2.806
60521W        W24278  16.780  31.559   4.736
60522W        W24279  23.651  40.422  13.453
60523W        W24280  38.871  38.870   9.941
60524W        W24281  13.143   3.914  14.931
60525W        W24282  21.084   0.868   0.395
60526W        W24283  13.177   0.773   3.147
60527W        W24284  42.862  17.169   3.221
60528W        W24285  29.923  13.236  10.483
60529W        W24286  44.483  26.699   4.715
60530W        W24287  11.220  41.489  14.958
60531W        W24288   7.301  39.906   3.785
60532W        W24289   2.344  38.462  10.581
60533W        W24290   5.420  26.472   0.946
60534W        W24291  26.675   5.790   0.397
60535W        W24292   3.839  10.830  12.877
60536W        W24293  24.158  35.877  14.930
60537W        W24294  15.627   0.927   3.314
60538W        W24295  18.292  22.081   4.186
60539W        W24296  13.130  32.609  10.422
60540W        W24297  15.184   4.218  11.551
60541W        W24298  15.105  32.427  10.455
60542W        W24299  25.195  36.930   0.403
60543W        W24300  41.926  30.649  10.949
60544W        W24301   4.940  37.980  12.347
60545W        W24302  28.481  19.168   1.728
60546W        W24303  22.611  41.504  10.466
60547W        W24304  27.045  24.016  11.978
60548W        W24305  15.091   9.757  14.761
60549W        W24306  37.568   8.854  13.051
60550W        W24307  28.956   4.792   4.682
60551W        W24308  29.636  37.957  12.389
60552W        W24309  43.996  44.472  10.950
60553W        W24310  31.604  31.606  11.127
60554W        W24311  32.046  13.717  13.311
60555W        W24312  22.123  16.228   0.396
60556W        W24313  41.976  26.480   4.310
60557W        W24314  36.884  15.312  10.565
60558W        W24315  34.107  13.671   2.211
60559W        W24316  10.254  38.382   1.432
60560W        W24317  16.161  32.432  12.844
60561W        W24318  34.380  30.909   3.292
60562W        W24319  11.791   0.287   1.811
60563W        W24320  20.753  40.809   3.861
60564W        W24321  30.936  38.485   2.372
60565W        W24322  44.300  13.746  10.097
60566W        W24323  25.614   6.381   0.404
60567W        W24324  13.229  24.140   0.892
60568W        W24325  31.552   1.328   4.211
60569W        W24326  18.126  32.615   2.298
60570W        W24327   1.253  22.189  10.622
60571W        W24328   3.431  32.030   4.655
60572W        W24329  23.672  32.564  13.828
60573W        W24330  21.520  17.682  12.863
60574W        W24331   0.808  30.935   1.299
60575W        W24332  20.118  19.601   2.782
60576W        W24333  24.114  18.579  14.509
60577W        W24334   8.274  23.502  13.878
60578W        W24335  34.971  14.667  13.461
60579W        W24336  36.352   9.757  14.474
60580W        W24337  19.234   7.198  13.910
60581W        W24338  15.727   8.768   2.896
60582W        W24339   8.329  22.576  13.933
60583W        W24340  23.180  37.017   4.815
60584W        W24341   6.754  28.152   4.194
60585W        W24342  14.603  38.466   4.289
60586W        W24343  31.527   1.893  14.333
60587W        W24344  20.056  21.029  14.977
60588W        W24345  17.757  13.156   4.306
60589W        W24346   0.331  13.600  13.542
60590W        W24347  36.891  18.783   1.709
60591W        W24348  26.637  17.668   4.710
60592W        W24349   1.841  28.147  10.609
60593W        W24350   7.258  38.928   2.339
60594W        W24351  11.710  10.193   3.800
60595W        W24352  12.754  40.388   0.324
60596W        W24353  30.444  13.673  11.374
60597W        W24354  43.457  24.649  11.895
60598W        W24355  26.050  23.518  11.125
60599W        W24356   0.368   7.322  12.354
60600W        W24357  33.397  42.815  11.020
60601W        W24358  38.351   8.327   3.754
60602W        W24359  43.931  35.531   4.698
60603W        W24360  26.151  25.209   5.224
60604W        W24361  32.952   6.740  14.775
60605W        W24362  26.553   1.791   4.193
60606W        W24363   7.243   9.815   3.145
60607W        W24364  39.000   5.318  13.361
60608W        W24365  21.203  31.072   0.398
60609W        W24366  35.083  43.016   3.733
60610W        W24367  25.655  20.712  12.373
60611W        W24368  12.162  34.028  11.037
60612W        W24369  22.191  10.341  14.881
60613W        W24370  25.564  23.715  12.883
60614W        W24371  35.533  31.060  13.915
60615W        W24372  32.109   5.756   0.322
60616W        W24373   3.913  41.926   2.366
60617W        W24374  20.728  18.223  12.046
60618W        W24375   6.810  12.193   4.786
60619W        W24376   6.377  19.118   9.488
60620W        W24377  21.181   5.706   0.409
60621W        W24378  22.634  18.174   4.209
60622W        W24379  38.034   0.297   5.705
60623W        W24380  10.812  21.089  12.405
60624W        W24381  24.196  23.169   1.329
60625W        W24382  36.504  14.202   0.956
60626W        W24383  37.896  36.026  12.915
60627W        W24384  33.114   6.246  11.024
60628W        W24385  26.139   8.181  14.342
60629W        W24386  39.855  28.179   0.748
60630W        W24387   7.373   6.834   2.274
60631W        W24388  41.398  39.499  14.761
60632W        W24389  26.970   2.875   2.807
60633W        W24390  30.576  31.421  11.988
60634W        W24391  13.706   1.447   4.294
60635W        W24392  40.947   6.388   4.166
60636W        W24393  17.061  37.575  12.438
60637W        W24394  29.626  19.557  13.809
60638W        W24395  31.922   7.773   3.844
60639W        W24396   9.848  19.583  12.884
60640W        W24397   8.211   8.746   3.816
60641W        W24398  30.985  36.928  13.522
60642W        W24399  28.937  44.328   4.181
60643W        W24400  41.868   3.754   2.183
60644W        W24401  16.771  42.885   5.151
60645W        W24402  41.027   2.834  14.914
60646W        W24403   1.935  25.690   5.298
60647W        W24404  34.437  13.334   0.886
60648W        W24405   8.382  26.055  10.602
60649W        W24406  22.709   6.857   2.797
60650W        W24407  29.528  19.734  10.622
60651W        W24408  18.181   7.732   1.313
60652W        W24409   9.661   7.286  12.032
60653W        W24410  37.939   1.962  12.092
60654W        W24411  14.203  29.468  14.940
60655W        W24412  34.936  31.950  11.466
60656W        W24413  23.168  20.130   3.359
60657W        W24414  29.635  35.064   0.767
60658W        W24415  24.700   7.804   0.800
60659W        W24416  31.529  23.496   3.708
60660W        W24417  23.573  17.248   2.690
60661W        W24418  29.665  41.845  10.508
60662W        W24419  30.038  41.029   0.454
60663W        W24420  11.330  16.768  12.404
60664W        W24421   5.780  31.113  10.509
60665W        W24422  14.786  43.954  13.833
60666W        W24423  11.240   3.768   1.805
60667W        W24424   3.757   7.248  11.545
60668W        W24425   7.695  40.951   3.242
60669W        W24426  11.293   0.454   2.827
60670W        W24427  20.084   9.225   1.428
60671W        W24428  31.521  10.270   3.172
60672W        W24429  40.903  31.493   0.801
60673W        W24430   9.348  37.433  10.159
60674W        W24431  21.121  32.542   4.769
60675W        W24432  14.680  40.461  12.072
60676W        W24433   7.816  31.147  11.072
60677W        W24434  44.329   6.753  13.339
60678W        W24435  28.516  14.251  11.452
60679W        W24436  42.286  43.974   0.767
60680W        W24437  16.295  28.182   3.307
60681W        W24438  28.677  41.883  11.881
60682W        W24439  43.338  27.665  11.123
60683W        W24440  29.932  40.841   0.781
60684W        W24441  11.278  23.523  13.468
60685W        W24442  30.116   5.232  10.537
60686W        W24443  39.492  30.155  14.502
60687W        W24444  28.564   8.807  11.600
60688W        W24445  43.317   8.183   2.187
60689W        W24446   4.237  39.936  12.973
60690W        W24447  32.512   3.815  12.556
60691W        W24448   3.449  22.522   1.883
60692W        W24449  31.076  14.317  12.422
60693W        W24450  43.490  41.915  12.084
60694W        W24451  29.442  19.564   0.319
60695W        W24452   2.926   1.389  14.001
60696W        W24453   3.860  22.616  10.599
60697W        W24454  42.421  19.147   4.740
60698W        W24455  28.067  18.598   1.705
60699W        W24456  28.997  19.279   0.434
60700W        W24457   7.667  23.543  12.969
60701W        W24458  36.560  27.096   2.239
60702W        W24459  33.463  37.452  14.485
60703W        W24460   6.376   3.853  11.974
60704W        W24461  21.248  37.512  10.563
60705W        W24462  31.976  21.017  14.812
60706W        W24463  41.346  27.481  11.930
60707W        W24464   3.952  23.561   0.839
60708W        W24465   0.269  23.216  14.784
60709W        W24466  12.756  19.045  10.460
60710W        W24467  34.548  26.492   1.727
60711W        W24468  43.019  14.177  10.052
60712W        W24469  36.584  15.311  11.977
60713W        W24470  10.721  25.217  14.939
60714W        W24471  25.543  27.470  12.826
60715W        W24472  32.051  19.633  10.890
60716W        W24473  42.897  31.413   3.352
60717W        W24474  36.517   3.370  14.296
60718W        W24475   8.254  32.469   3.268
60719W        W24476   1.370   3.951  14.290
60720W        W24477  39.410  35.556  11.465
60721W        W24478   0.340  26.467  13.330
60722W        W24479  44.755  38.960  10.913
60723W        W24480   5.304  31.465  11.607
60724W        W24481  15.628   2.414   4.667
60725W        W24482   3.904   2.747   2.250
60726W        W24483   1.455  34.598  14.362
60727W        W24484  27.110  12.208   0.292
60728W        W24485  25.603   6.792  11.981
60729W        W24486  41.406  31.093   3.231
60730W        W24487   4.332  38.345  12.047
60731W        W24488  15.725  36.410   3.724
60732W        W24489  18.164   3.389   5.273
60733W        W24490   7.302   1.472  11.861
60734W        W24491   2.744  40.912   2.371
60735W        W24492  26.093  30.587  11.450
60736W        W24493  10.873  17.218  12.982
60737W        W24494  30.635  43.009  13.925
60738W        W24495  21.043  36.960   0.849
60739W        W24496  37.935  36.906  10.510
60740W        W24497   5.718   1.434   1.765
60741W        W24498   3.259  11.146  10.916
60742W        W24499  15.656  32.886   3.315
60743W        W24500  23.642  17.126   3.147
60744W        W24501   2.430  39.981   4.205
60745W        W24502  42.874  37.504   3.783
60746W        W24503  26.986  44.917   4.157
60747W        W24504  15.819  36.018  12.559
60748W        W24505  26.648   9.365   2.407
60749W        W24506  10.816  44.302   4.259
60750W        W24507  34.888  10.327  11.570
60751W        W24508   3.258   7.275  10.540
60752W        W24509   5.904   1.342  13.486
60753W        W24510  19.101   0.905   0.928
60754W        W24511   4.941   3.316  12.090
60755W        W24512  20.565   6.831   0.409
60756W        W24513   8.734  37.370   4.756
60757W        W24514   0.811  23.670  12.504
60758W        W24515  13.244   2.256  13.517
60759W        W24516   3.941   7.350  12.020
60760W        W24517  43.434   5.356   2.842
60761W        W24518  27.974  44.925   0.388
60762W        W24519  33.962  37.980  14.022
60763W        W24520  17.087  18.105  12.410
60764W        W24521  25.504  39.045   2.878
60765W        W24522  18.557  21.236  14.921
60766W        W24523  14.612   7.409   0.884
60767W        W24524  19.712   2.341  14.484
60768W        W24525   5.711   6.740  13.322
60769W        W24526  23.521   8.179   3.243
60770W        W24527   3.459  18.218   1.912
60771W        W24528  11.697  14.759  11.976
60772W        W24529  26.509   1.748  12.845
60773W        W24530  38.863  20.527  13.986
60774W        W24531  36.465   7.709  11.937
60775W        W24532  11.188  24.514  14.845
60776W        W24533   6.265  33.896   2.207
60777W        W24534  28.097  38.823   1.921
60778W        W24535  25.195  20.044   1.739
60779W        W24536  25.507  32.985  11.477
60780W        W24537   5.739   7.861  14.904
60781W        W24538  12.287   5.912   3.251
60782W        W24539  43.778  20.075  10.483
60783W        W24540  39.341  16.664   0.440
60784W        W24541  31.154  19.068   1.362
60785W        W24542  31.614  28.040  13.830
60786W        W24543   8.837  24.563   3.827
60787W        W24544  32.429   9.201  13.355
60788W        W24545  24.653   3.354  10.445
60789W        W24546  10.355   7.787   0.271
60790W        W24547  36.592  11.203  11.423
60791W        W24548   2.446  22.737   2.809
60792W        W24549  34.581  24.584  13.836
60793W        W24550  11.339  24.992   1.737
60794W        W24551  17.211   0.801   1.353
60795W        W24552  11.809  14.665  12.442
60796W        W24553  43.876  29.026  11.016
60797W        W24554  41.467  37.487  11.039
60798W        W24555   2.741  17.766  12.071
60799W        W24556  27.598  17.624   1.881
60800W        W24557  31.612  25.216  14.323
60801W        W24558  33.518   0.346   3.644
60802W        W24559  12.812  37.582   4.697
60803W        W24560  43.008  34.519   3.384
60804W        W24561   0.964  12.845   1.340
60805W        W24562  26.078  10.705   1.422
60806W        W24563  12.856  20.096   2.691
60807W        W24564   4.848  15.633  13.010
60808W        W24565  16.602   1.912  11.901
60809W        W24566  43.994   4.940  11.098
60810W        W24567  24.181   5.337  14.994
60811W        W24568  15.141  10.665   4.659
60812W        W24569  44.911  26.109   0.894
60813W        W24570   5.818  32.127  11.588
60814W        W24571  38.020   9.392   0.366
60815W        W24572  33.488  25.493  12.356
60816W        W24573   3.372  10.149  14.995
60817W        W24574  15.150   5.268   3.368
60818W        W24575  32.453  19.770  13.380
60819W        W24576   3.781  29.604  14.028
60820W        W24577  30.549  25.710  14.480
60821W        W24578  44.380  44.317  11.988
60822W        W24579  33.593  44.851   1.254
60823W        W24580  43.507  37.505  10.492
60824W        W24581  19.182  34.448  14.345
60825W        W24582  26.654  40.464  13.058
60826W        W24583  42.290  37.876  12.498
60827W        W24584  14.680   0.410  10.595
60828W        W24585  19.188  25.004   1.344
60829W        W24586  25.620  14.315  10.483
60830W        W24587  29.098  36.386   1.252
60831W        W24588  42.367  24.724   2.719
60832W        W24589  24.565  16.751  11.526
60833W        W24590  25.521  41.495   1.343
60834W        W24591   8.296  24.100   1.834
60835W        W24592  27.136  22.731   3.724
60836W        W24593   7.212  40.962  11.388
60837W        W24594  24.101  23.114   9.628
60838W        W24595  19.114   5.224   3.178
60839W        W24596  21.529   9.692   3.863
60840W        W24597  12.354  30.112   0.927
60841W        W24598  30.649   8.212  13.932
60842W        W24599  36.408  32.135  10.099
60843W        W24600  25.186  34.586  13.544
60844W        W24601  34.414  32.922  10.637
60845W        W24602   0.314  12.271  12.415
60846W        W24603  26.664  38.385   1.389
60847W        W24604   1.482  34.940  13.806
60848W        W24605   9.169  28.091   4.694
60849W        W24606  19.610   2.731   4.622
60850W        W24607  42.408  12.285  14.476
60851W        W24608  22.612   1.246   0.772
60852W        W24609  35.005  14.302  14.438
60853W        W24610  24.679  10.754   4.756
60854W        W24611  34.041  36.520   3.765
60855W        W24612   4.219  30.968  10.508
60856W        W24613  23.694  29.570   4.785
60857W        W24614  43.488  24.578  11.571
60858W        W24615  12.616   7.178  10.972
60859W        W24616  39.555  39.467   0.776
60860W        W24617  25.524  14.720   5.136
60861W        W24618  12.801  13.303  12.449
60862W        W24619   2.810  21.746   4.139
60863W        W24620  26.143   2.354  11.024
60864W        W24621  19.770   9.738  13.058
60865W        W24622  41.499  25.528  13.896
60866W        W24623  23.685  37.030   0.895
60867W        W24624  13.122  44.469  11.515
60868W        W24625  34.546  11.297  10.461
60869W        W24626   4.851  25.632   1.323
60870W        W24627   4.809  29.522  12.372
60871W        W24628   6.410   9.194   1.362
60872W        W24629   0.286  16.668   3.168
60873W        W24630  13.134  32.097   0.806
60874W        W24631  42.362  43.827  14.953
60875W        W24632  43.975  12.266   4.685
60876W        W24633   3.228  40.318  13.934
60877W        W24634  23.561  31.562   2.212
60878W        W24635  20.270  15.584  13.413
60879W        W24636  35.567  11.786  10.607
60880W        W24637   4.782   0.962  14.449
60881W        W24638  37.492  11.301   4.135
60882W        W24639  21.681  10.867   2.300
60883W        W24640  11.140  16.086  14.315
60884W        W24641  20.267  22.524   4.669
60885W        W24642  37.849  29.611   4.297
60886W        W24643  13.300  29.565  11.451
60887W        W24644  33.584  32.115   4.776
60888W        W24645  38.996  39.520   3.351
60889W        W24646  26.557  23.116  12.894
60890W        W24647   6.411  38.898  13.368
60891W        W24648   1.976  19.152   2.716
60892W        W24649  11.653  23.168   3.223
60893W        W24650  12.233  11.643   0.471
60894W        W24651   4.410  23.606   3.280
60895W        W24652  44.009   3.247  12.488
60896W        W24653  43.006  14.214   4.831
60897W        W24654  32.456  13.142   4.796
60898W        W24655  32.103  13.209   1.342
60899W        W24656  23.547  35.452   5.214
60900W        W24657  19.048  23.628   3.332
60901W        W24658  20.117  12.787  13.998
60902W        W24659  28.545  26.137  11.552
60903W        W24660  16.094  15.754   3.835
60904W        W24661  41.845  15.632  10.004
60905W        W24662  19.635  19.109  14.424
60906W        W24663  24.106   7.301   0.372
60907W        W24664  42.017  32.500   3.333
60908W        W24665   0.411  21.610   0.302
60909W        W24666   8.266  14.103  12.064
60910W        W24667   7.858  32.536  12.841
60911W        W24668  17.694  22.588   0.872
60912W        W24669  37.565  18.252   1.437
60913W        W24670  10.271  20.186  12.039
60914W        W24671  34.502   5.430   4.340
60915W        W24672  36.529  39.865   1.928
60916W        W24673   3.948  34.427   1.879
60917W        W24674  33.409  41.985  13.952
60918W        W24675  40.018   2.407   1.351
60919W        W24676  14.718  27.628  10.603
60920W        W24677  30.444  44.908   4.821
60921W        W24678  41.974  39.888  12.530
60922W        W24679  19.708   8.321  10.961
60923W        W24680  34.905   4.250   3.769
60924W        W24681  20.088  15.264   0.251
60925W        W24682  27.494  28.516  12.840
60926W        W24683  17.612  18.192   2.377
60927W        W24684  30.914  17.118   2.856
60928W        W24685  27.459  39.847  12.884
60929W        W24686  26.547  18.623  10.644
60930W        W24687   2.773  30.477   2.417
60931W        W24688  43.279  15.788  13.352
60932W        W24689  43.348  14.124   2.293
60933W        W24690   9.252  17.136  11.559
60934W        W24691   3.277  34.924  11.039
60935W        W24692   1.756  12.203  11.543
60936W        W24693  29.098   9.733  11.530
60937W        W24694  44.879  20.227  12.091
60938W        W24695  35.394  35.951   0.363
60939W        W24696   8.780  35.953   3.719
60940W        W24697  27.478  23.531  14.346
60941W        W24698  42.472  43.479  11.372
60942W        W24699   4.808  32.010  12.467
60943W        W24700  28.524   9.800  14.763
60944W        W24701  37.532  10.248   0.339
60945W        W24702  36.472  23.606   1.266
60946W        W24703   2.926   5.912  12.471
60947W        W24704  16.166  33.533   4.786
60948W        W24705   5.310  35.580  13.348
60949W        W24706  14.795  11.136   3.237
60950W        W24707  25.108  31.556  13.885
60951W        W24708  24.612  14.334  10.904
60952W        W24709  28.505  15.582  10.965
60953W        W24710  13.772  28.526  14.473
60954W        W24711   2.928  33.599  14.015
60955W        W24712   3.402  39.450   1.284
60956W        W24713   9.390  26.662  10.966
60957W        W24714   1.954  15.099   2.294
60958W        W24715   9.243  29.649   1.354
60959W        W24716   7.173  35.905   3.674
60960W        W24717  32.083  16.606  10.446
60961W        W24718  21.578  29.138  10.509
60962W        W24719  40.904   9.650  12.431
60963W        W24720  43.454  41.456   3.793
60964W        W24721   6.687   6.868  10.568
60965W        W24722  25.627  22.163   5.089
60966W        W24723   3.302  38.823   2.292
60967W        W24724  23.086  33.900  12.542
60968W        W24725  20.752  32.922   1.336
60969W        W24726   0.971  33.096  10.403
60970W        W24727   4.277  30.561   2.336
60971W        W24728   1.889   6.794   2.860
60972W        W24729  12.135   8.701  10.626
60973W        W24730  29.470  36.398   1.401
60974W        W24731  32.449  36.512  12.956
60975W        W24732   6.195  13.735   0.943
60976W        W24733  44.351  39.339   0.423
60977W        W24734  24.213  34.884   3.712
60978W        W24735  24.033   4.407  10.623
60979W        W24736   6.825  31.987  11.882
60980W        W24737   2.466  36.384  11.972
60981W        W24738  31.140  16.726   3.255
60982W        W24739  38.375  16.266  13.534
60983W        W24740   5.878  40.478  11.126
60984W        W24741   3.355  10.142  13.496
60985W        W24742   0.750  10.211   4.226
60986W        W24743  29.158   7.356  14.445
60987W        W24744  23.560   4.927   4.631
60988W        W24745   1.435  41.826  11.975
60989W        W24746  41.930  11.257  11.127
60990W        W24747  11.260  36.883  11.466
60991W        W24748   8.678  28.469   4.740
60992W        W24749  44.480  21.051   1.902
60993W        W24750   8.383  12.185  13.498
60994W        W24751   1.410   6.413  11.402
60995W        W24752   5.702  12.664   4.773
60996W        W24753  35.080  43.797  13.384
60997W        W24754   9.706   8.292  14.878
60998W        W24755   6.283  26.575   0.824
60999W        W24756   2.229  12.641   1.273
61000W        W24757  12.163   4.445  12.086
61001W        W24758  23.088  24.519  11.469
61002W        W24759  15.651   8.366  11.065
61003W        W24760  19.659   0.867   0.272
61004W        W24761  11.818   0.952   9.988
61005W        W24762  10.688  40.455  13.868
61006W        W24763  22.046  41.940   2.785
61007W        W24764   4.312   2.352   1.885
61008W        W24765  36.904  37.908  10.451
61009W        W24766  38.398  34.907   3.798
61010W        W24767  14.141  36.054  10.569
61011W        W24768   1.758   7.783  10.481
61012W        W24769  14.691   0.934  13.430
61013W        W24770  15.212   6.745  11.416
61014W        W24771   8.195   7.818  10.445
61015W        W24772  35.856  18.749   2.854
61016W        W24773   0.297  26.468  12.353
61017W        W24774  40.313  29.950   2.199
61018W        W24775  19.645  20.653  12.091
61019W        W24776   2.440  10.350  11.549
61020W        W24777  24.582   4.225  14.939
61021W        W24778  31.622   2.823   0.880
61022W        W24779  18.563  35.904   1.924
61023W        W24780  31.946  14.163   1.920
61024W        W24781  35.007  43.452   0.820
61025W        W24782  14.124   7.400   4.617
61026W        W24783   4.896  24.695   1.312
61027W        W24784  28.117   5.900  10.602
61028W        W24785  32.034  36.980   1.399
61029W        W24786  36.982  28.461  12.891
61030W        W24787  10.637   2.824   2.824
61031W        W24788  20.168  36.895  14.397
61032W        W24789  23.060  27.182  14.948
61033W        W24790  24.685  42.827  10.443
61034W        W24791  14.095  14.721   1.387
61035W        W24792  41.815  40.882  12.897
61036W        W24793   7.411  14.334  14.839
61037W        W24794  39.974  19.581  12.528
61038W        W24795   1.798  25.092  11.595
61039W        W24796  28.592   0.270  10.909
61040W        W24797   4.766  18.707   0.798
61041W        W24798   0.803  27.496   1.709
61042W        W24799   0.284  12.194   1.415
61043W        W24800   3.922   5.213  13.411
61044W        W24801   7.788   9.738  11.940
61045W        W24802  25.167  38.960   0.429
61046W        W24803  31.489  15.705   3.353
61047W        W24804   6.395  12.804   1.321
61048W        W24805  40.452  21.064  10.010
61049W        W24806  25.538  44.467  12.485
61050W        W24807  32.983  44.994  12.522
61051W        W24808  19.761  19.735   1.356
61052W        W24809   8.227  32.109  14.420
61053W        W24810  10.163  22.157  11.955
61054W        W24811   2.726  13.664  14.767
61055W        W24812  26.594  25.536   5.154
61056W        W24813  16.750  35.056   1.397
61057W        W24814  18.271  29.628  13.951
61058W        W24815  37.371  41.297   3.768
61059W        W24816  17.284  23.499  13.335
61060W        W24817  18.573  40.331  10.431
61061W        W24818  40.989  26.174  10.443
61062W        W24819  20.630  24.079  14.348
61063W        W24820  43.307  17.608   0.752
61064W        W24821  15.751  38.490   3.640
61065W        W24822   9.751  38.883   2.781
61066W        W24823  27.610  14.320   2.222
61067W        W24824  37.974  14.716   2.372
61068W        W24825  35.370  14.649   3.163
61069W        W24826   6.315  11.818   4.237
61070W        W24827  32.965   3.914  13.014
61071W        W24828  18.664   3.754  14.457
61072W        W24829  18.608  24.530  14.293
61073W        W24830  25.683  30.992   3.246
61074W        W24831   7.307   1.296   3.341
61075W        W24832  15.100   3.436  13.793
61076W        W24833  21.661   6.769   4.117
61077W        W24834  16.236  15.242  13.322
61078W        W24835  40.305  18.270  14.814
61079W        W24836  13.178  31.629   0.826
61080W        W24837   4.269   1.446  14.426
61081W        W24838  20.668  24.980   3.243
61082W        W24839  19.093  16.628   3.662
61083W        W24840  26.529  32.925   3.683
61084W        W24841  12.686  22.251   4.741
61085W        W24842  14.251  44.445  13.376
61086W        W24843  23.028  20.712   4.226
61087W        W24844  28.607  14.266  14.441
61088W        W24845  24.584  25.564  10.641
61089W        W24846  23.984  41.829   3.633
61090W        W24847  12.116  24.538  14.872
61091W        W24848   0.310  41.442  11.433
61092W        W24849   3.737  43.003  12.915
61093W        W24850  28.990  15.290  10.896
61094W        W24851  41.036   1.797  11.491
61095W        W24852  38.969  15.292   0.332
61096W        W24853  12.259  34.387   0.254
61097W        W24854  37.489  26.154   0.461
61098W        W24855  23.533  21.529   1.872
61099W        W24856   8.680  30.047   2.704
61100W        W24857   3.326  34.548   1.930
61101W        W24858  17.723   3.825   2.390
61102W        W24859  30.434  30.595  10.512
61103W        W24860  13.311   6.245   2.251
61104W        W24861  27.453  40.022  12.054
61105W        W24862  25.525  24.691  13.443
61106W        W24863   4.276  13.652   0.800
61107W        W24864  29.514  37.560  10.018
61108W        W24865  28.976  42.496  10.405
61109W        W24866  32.596  40.417   1.766
61110W        W24867   9.377  19.722  13.479
61111W        W24868  44.922  33.113   3.842
61112W        W24869  26.603  11.369  10.547
61113W        W24870   6.826  38.911  12.848
61114W        W24871  18.611  12.300   4.206
61115W        W24872  20.633  24.559  14.319
61116W        W24873   3.729  11.790  10.913
61117W        W24874  39.377  41.327  11.914
61118W        W24875  28.960   9.160   3.301
61119W        W24876  40.805   7.876  12.479
61120W        W24877  26.978  41.519   5.258
61121W        W24878   8.185  25.472   4.651
61122W        W24879  26.958   0.302   0.913
61123W        W24880  12.251  24.988   4.696
61124W        W24881  17.064  32.391  14.766
61125W        W24882  31.917  28.932   1.397
61126W        W24883  44.768  20.176   2.735
61127W        W24884   6.835  14.103  13.799
61128W        W24885  15.145  43.415   0.744
61129W        W24886  10.259  22.702   2.366
61130W        W24887  20.735  36.039  13.831
61131W        W24888  21.216  33.416  13.840
61132W        W24889   6.868  38.019   4.324
61133W        W24890  30.589  43.286  13.840
61134W        W24891  28.486  20.227   3.845
61135W        W24892  38.494  13.635  10.637
61136W        W24893   4.293  35.582   2.180
61137W        W24894  13.289  26.004   4.346
61138W        W24895   4.699  20.675   0.827
61139W        W24896   7.732  36.394  12.019
61140W        W24897   0.830   7.708  13.941
61141W        W24898  23.522  17.206  12.962
61142W        W24899  31.532  39.496  13.908
61143W        W24900  29.462  37.978   2.731
61144W        W24901  40.958   3.749   0.245
61145W        W24902  21.083  39.971  14.994
61146W        W24903  15.247  38.992  10.923
61147W        W24904  34.889  38.371   3.811
61148W        W24905  38.962  24.596   1.304
61149W        W24906   6.881  38.894   3.237
61150W        W24907  38.991  31.037  13.018
61151W        W24908   9.718  19.226   3.168
61152W        W24909   6.254  33.057  10.590
61153W        W24910  40.839  41.428  12.987
61154W        W24911  43.925  27.959   4.814
61155W        W24912  37.439  37.996  12.055
61156W        W24913   4.917   9.730  11.964
61157W        W24914  15.745  39.829   1.421
61158W        W24915  24.080  20.705   2.677
61159W        W24916  15.694   8.809   1.847
61160W        W24917  41.313  10.383   1.708
61161W        W24918  25.635  20.127  12.903
61162W        W24919  36.961   4.388  13.841
61163W        W24920  23.008  29.044  13.912
61164W        W24921  15.762   2.779   4.150
61165W        W24922  34.374  35.001  10.942
61166W        W24923  27.526  40.907   2.362
61167W        W24924   5.396  23.501  10.405
61168W        W24925  42.789  14.795   4.753
61169W        W24926   3.448  39.931   0.422
61170W        W24927   1.428   8.406  12.440
61171W        W24928   3.900  27.534  12.359
61172W        W24929  30.149  29.504  14.951
61173W        W24930  10.656  44.381  13.857
61174W        W24931  34.965  35.441   3.653
61175W        W24932   3.902   4.318  11.492
61176W        W24933  25.606  32.608   1.765
61177W        W24934  27.477  18.707  14.406
61178W        W24935   7.847  28.559   2.367
61179W        W24936  14.098  15.292  14.763
61180W        W24937  11.863  22.120  10.157
61181W        W24938   2.464  13.260   0.842
61182W        W24939  28.025  15.230  11.071
61183W        W24940  41.383   6.351   0.458
61184W        W24941  11.131   7.204   0.375
61185W        W24942  17.697   4.401  11.108
61186W        W24943   2.770  22.675  13.325
61187W        W24944  30.973  31.079   3.852
61188W        W24945   6.198  28.513  12.894
61189W        W24946  29.608  34.949   4.115
61190W        W24947  36.932  20.662   0.264
61191W        W24948  24.191   0.903  13.844
61192W        W24949  16.195  26.507  12.020
61193W        W24950  37.557   9.284   1.444
61194W        W24951  19.119  30.080  11.413
61195W        W24952  16.185  44.479   4.335
61196W        W24953  23.574   7.222   3.265
61197W        W24954   0.398  43.329  12.497
61198W        W24955  26.658  19.149   2.350
61199W        W24956  40.999  14.152   2.188
61200W        W24957  17.162  18.097  13.983
61201W        W24958  14.108   7.685   1.724
61202W        W24959  11.788   7.801  14.485
61203W        W24960  43.932  36.057  11.940
61204W        W24961  33.948  28.647   1.336
61205W        W24962  37.953  15.686   0.754
61206W        W24963   6.406  20.688   2.347
61207W        W24964  28.471  17.151  11.921
61208W        W24965  34.426  28.434  12.037
61209W        W24966   4.780   8.335   0.421
61210W        W24967  10.819   9.195   3.273
61211W        W24968  21.160  32.495   5.124
61212W        W24969  20.058  42.444  10.603
61213W        W24970  11.216  44.287  11.479
61214W        W24971  29.571  42.319   2.334
61215W        W24972  32.580  10.675  12.523
61216W        W24973  28.140  29.056   3.808
61217W        W24974  40.407  14.185   1.887
61218W        W24975  43.021  35.928   4.299
61219W        W24976   5.866   5.837  14.381
61220W        W24977  34.478  39.342   1.451
61221W        W24978  26.032  26.157  12.066
61222W        W24979   0.785   1.760   4.183
61223W        W24980  20.562  20.168  10.523
61224W        W24981  22.693  23.615  12.843
61225W        W24982  38.831  18.078   3.362
61226W        W24983  14.095  37.900  12.030
61227W        W24984  36.564  25.105   5.095
61228W        W24985   7.857   4.758  12.401
61229W        W24986  26.973  36.853  11.606
61230W        W24987   8.256  21.742   1.768
61231W        W24988  27.505   7.254  14.008
61232W        W24989  40.304  27.582   3.246
61233W        W24990  25.646  22.629  12.864
61234W        W24991  17.787   7.399   0.775
61235W        W24992  33.994  24.150  13.007
61236W        W24993  39.351   5.212   0.786
61237W        W24994  27.042   4.344  11.506
61238W        W24995   2.752  39.519  12.835
61239W        W24996  34.517  18.592  10.619
61240W        W24997  28.968  24.615   3.218
61241W        W24998   3.405   3.246   2.845
61242W        W24999  16.569   6.891  14.966
61243W        W25000  38.894  34.015  11.101
61244W        W25001  40.386  25.161  10.997
61245W        W25002   7.879  26.088  12.063
61246W        W25003  13.238  13.729  14.799
61247W        W25004   0.951  43.984   3.156
61248W        W25005  24.042  37.851   2.180
61249W        W25006  43.849  18.089  14.006
61250W        W25007  37.424  22.721  11.397
61251W        W25008  38.409  24.131  10.938
61252W        W25009  12.115  17.291   1.913
61253W        W25010  18.588  37.003   3.369
61254W        W25011  30.574   5.415  12.497
61255W        W25012  34.989  37.846  14.454
61256W        W25013  25.529  14.766   3.277
61257W        W25014  31.472   3.719   0.422
61258W        W25015   2.819  14.100  13.469
61259W        W25016  24.007  30.918   0.777
61260W        W25017  10.857  41.900   3.750
61261W        W25018   9.187  25.628   4.194
61262W        W25019  11.848  14.188   5.215
61263W        W25020  11.834  27.042  11.572
61264W        W25021  31.149  31.976   2.316
61265W        W25022  37.016  12.155  14.276
61266W        W25023  26.059  25.514   1.843
61267W        W25024  37.942  38.981  13.015
61268W        W25025  15.154  13.746   1.862
61269W        W25026  29.113  17.719  11.874
61270W        W25027  44.269  11.839  11.001
61271W        W25028  41.524  44.875  12.016
61272W        W25029  11.755  40.405  11.094
61273W        W25030   3.379  42.470  10.086
61274W        W25031   6.292  42.518  10.639
61275W        W25032  44.797   1.464  14.368
61276W        W25033  16.203  24.146  11.531
61277W        W25034  31.142   2.856  14.438
61278W        W25035  25.554  10.703  11.037
61279W        W25036  36.866  44.995   3.661
61280W        W25037  18.179  30.584  14.414
61281W        W25038  19.707  37.483   2.359
61282W        W25039  42.373  14.269   3.741
61283W        W25040  29.512  29.655   1.731
61284W        W25041  32.903  33.123  11.118
61285W        W25042   9.726  37.549   2.183
61286W        W25043   1.754  19.208   1.725
61287W        W25044  40.863  21.114  11.464
61288W        W25045  41.870  21.131  13.017
61289W        W25046  14.665   9.156   2.866
61290W        W25047  44.866  29.978  14.471
61291W        W25048  27.101   3.941   1.701
61292W        W25049  44.498  30.505   4.653
61293W        W25050   8.294  40.349   0.744
61294W        W25051  20.654  38.378  13.011
61295W        W25052   7.673  23.520  11.048
61296W        W25053  21.068  11.359  10.980
61297W        W25054  22.502  41.441   1.442
61298W        W25055  12.740   7.235  12.426
61299W        W25056   9.730  17.202   0.909
61300W        W25057  12.631   0.313  11.489
61301W        W25058  23.661  35.375   3.858
61302W        W25059  21.157  24.214  10.904
61303W        W25060  21.701  18.070  12.493
61304W        W25061   9.697  38.406  11.385
61305W        W25062  28.024   4.741  14.828
61306W        W25063   8.285  39.360  12.097
61307W        W25064  13.670   2.958   3.221
61308W        W25065   1.875  41.853   3.171
61309W        W25066  44.811   0.481  11.546
61310W        W25067   1.844  15.596   2.852
61311W        W25068   3.875  41.537   2.686
61312W        W25069  13.791  13.335   0.781
61313W        W25070  39.354  44.394  11.090
61314W        W25071  18.766  21.221   3.313
61315W        W25072  41.525  23.617   0.298
61316W        W25073  41.521   3.325  11.403
61317W        W25074  16.082   7.857   4.705
61318W        W25075   0.954  26.193   3.181
61319W        W25076  40.536  28.077   3.660
61320W        W25077   5.269  20.191  12.897
61321W        W25078  25.149   4.308   1.324
61322W        W25079   5.382  33.528   2.414
61323W        W25080  42.422   0.779  10.496
61324W        W25081  39.837  36.896  10.892
61325W        W25082  22.534  14.756   3.844
61326W        W25083  37.056  10.301  10.541
61327W        W25084  24.561  29.621   1.849
61328W        W25085   6.764  20.094  14.322
61329W        W25086  37.872  27.191   2.359
61330W        W25087  15.666   7.247  13.351
61331W        W25088   8.889   0.492   2.839
61332W        W25089  28.975  29.588  10.495
61333W        W25090  32.631  38.076  10.501
61334W        W25091  12.664   2.961   4.278
61335W        W25092  17.632   5.222   0.472
61336W        W25093  36.548  11.342   2.180
61337W        W25094  14.243  27.571   0.829
61338W        W25095  41.849   6.306  11.575
61339W        W25096  15.728  13.750   1.821
61340W        W25097  37.480   5.917   0.855
61341W        W25098  26.951  22.229   4.711
61342W        W25099   5.925  10.179  11.926
61343W        W25100   6.789  34.394  14.975
61344W        W25101   9.647  28.593  14.780
61345W        W25102  34.534  25.047   0.781
61346W        W25103  30.975   5.361   2.368
61347W        W25104   4.827  20.156   4.234
61348W        W25105  28.612  22.225   3.735
61349W        W25106  32.611  10.640   0.252
61350W        W25107  23.147  42.402  14.472
61351W        W25108  32.414  17.107   4.811
61352W        W25109   6.192   7.387   0.482
61353W        W25110  33.976  29.510  14.885
61354W        W25111  24.150  24.973   3.686
61355W        W25112  38.944  34.570  13.329
61356W        W25113   6.415  14.285  10.023
61357W        W25114  29.105  24.079   0.398
61358W        W25115  35.868  19.639   3.667
61359W        W25116  37.420  25.600  12.374
61360W        W25117   9.827  22.633  10.495
61361W        W25118  38.444  13.202  12.948
61362W        W25119  32.530  16.269   4.322
61363W        W25120  25.559  14.712   0.270
61364W        W25121  36.854  29.047   1.774
61365W        W25122  26.021  39.002  13.861
61366W        W25123   9.718   5.411   3.756
61367W        W25124  15.739  30.101   1.302
61368W        W25125  35.894  20.113  13.920
61369W        W25126  27.020  41.880  11.952
61370W        W25127  33.462  28.126  10.548
61371W        W25128  15.760  42.912  13.408
61372W        W25129  35.963  28.135   0.802
61373W        W25130   4.718  39.062   3.870
61374W        W25131   6.203  35.395  10.925
61375W        W25132   5.719   1.956   1.853
61376W        W25133  35.053  34.574   0.963
61377W        W25134  42.911  41.010  12.971
61378W        W25135   2.804  24.009   4.151
61379W        W25136  10.283  36.868   1.280
61380W        W25137  44.416  27.029  14.830
61381W        W25138   7.825  16.660   0.756
61382W        W25139  32.518  43.437  13.547
61383W        W25140  16.656   6.805   1.876
61384W        W25141  11.792  16.748  14.778
61385W        W25142  24.079  16.150   4.299
61386W        W25143  39.343  37.407  10.619
61387W        W25144  44.967  43.367  14.498
61388W        W25145  40.831  39.417   3.329
61389W        W25146  33.083  11.261  14.453
61390W        W25147  44.761  44.352  14.283
61391W        W25148  34.988  19.122   3.232
61392W        W25149  17.271  27.154   3.341
61393W        W25150  27.650  41.857  12.851
61394W        W25151  19.271  29.572   3.697
61395W        W25152   4.878  33.888   1.797
61396W        W25153  18.290  38.467  12.084
61397W        W25154  23.708  34.069  12.944
61398W        W25155   8.900  10.695  11.447
61399W        W25156  11.371  14.241  12.399
61400W        W25157   6.763  34.024   2.360
61401W        W25158  18.270   3.429  10.913
61402W        W25159  42.470  42.994   2.400
61403W        W25160  28.942  25.001   2.227
61404W        W25161  31.538  21.577   2.267
61405W        W25162   6.314  44.901   1.808
61406W        W25163  30.454  23.567  11.059
61407W        W25164  16.318  16.782   3.804
61408W        W25165  21.533   1.301   4.760
61409W        W25166  31.583  41.519  14.485
61410W        W25167  42.493  39.498  13.873
61411W        W25168  32.010  42.429   2.256
61412W        W25169  10.232  41.535   1.403
61413W        W25170   0.848  29.464  14.759
61414W        W25171  42.850  17.094   3.757
61415W        W25172  10.373  44.456  10.919
61416W        W25173  41.352  27.174   4.329
61417W        W25174  38.418  33.892  11.873
61418W        W25175  14.198  21.205  14.959
61419W        W25176  15.214  28.153  14.027
61420W        W25177   1.747   3.258  11.016
61421W        W25178  21.207  41.492   1.272
61422W        W25179  14.222  32.012   3.363
61423W        W25180  31.100  26.469   9.985
61424W        W25181   3.935   0.268  10.472
61425W        W25182   7.733  18.547   4.184
61426W        W25183  27.166  43.866  13.860
61427W        W25184  31.552  43.373  14.460
61428W        W25185  40.411  29.549  12.992
61429W        W25186  24.154  43.789  12.386
61430W        W25187  37.962   8.721   4.823
61431W        W25188  29.464   8.267   4.731
61432W        W25189  32.975  31.482  14.028
61433W        W25190   9.750  20.235   4.765
61434W        W25191   6.368   9.314   1.732
61435W        W25192  28.078  25.143   3.344
61436W        W25193  26.668  44.347  14.371
61437W        W25194  21.213  39.914   0.264
61438W        W25195  27.546  28.044   1.896
61439W        W25196   9.692  42.341   1.935
61440W        W25197  19.247  15.622  10.412
61441W        W25198  37.431  28.120  11.053
61442W        W25199   5.930  17.701   5.745
61443W        W25200  34.868  18.651   2.369
61444W        W25201   8.263   3.920   2.178
61445W        W25202  23.672  44.835   2.244
61446W        W25203  26.111  38.491   3.828
61447W        W25204  26.148  13.649   3.651
61448W        W25205  34.446  44.346  11.426
61449W        W25206  29.630  26.199  13.486
61450W        W25207   4.928   6.871  10.122
61451W        W25208  31.564   7.706  10.899
61452W        W25209  29.927  12.238   4.173
61453W        W25210  14.595  29.034   3.796
61454W        W25211  20.201   3.444   4.700
61455W        W25212  21.651  33.569  12.038
61456W        W25213  10.675   3.937   4.201
61457W        W25214   7.335  15.302  10.598
61458W        W25215   2.814   1.431  14.354
61459W        W25216  29.096  19.201   0.737
61460W        W25217   1.428  23.656   4.230
61461W        W25218  11.836  20.721   1.877
61462W        W25219  17.640  17.797  13.839
61463W        W25220  42.456  23.229  12.435
61464W        W25221  18.729  40.006  14.944
61465W        W25222  29.084   7.279  10.927
61466W        W25223   3.388  42.786   0.785
61467W        W25224  31.004  36.849   4.234
61468W        W25225  20.155  39.967   3.175
61469W        W25226   3.799  21.164   4.674
61470W        W25227   3.428  43.792  12.359
61471W        W25228  38.932  44.456  13.494
61472W        W25229  15.254  16.699   1.291
61473W        W25230  23.515  31.461  11.502
61474W        W25231  12.201  19.142  12.507
61475W        W25232   9.888  22.551   4.189
61476W        W25233  10.233  25.546   5.130
61477W        W25234  35.089  28.983  14.509
61478W        W25235   4.841   6.694   4.165
61479W        W25236  22.143  18.178   4.730
61480W        W25237  28.579   6.411  13.916
61481W        W25238  18.274   7.820   3.382
61482W        W25239  34.967   5.873   1.269
61483W        W25240   7.831  41.942   2.206
61484W        W25241  44.355   2.428   2.742
61485W        W25242   6.396  10.761  14.357
61486W        W25243  10.701   8.680  14.299
61487W        W25244  11.780  16.668  11.868
61488W        W25245  21.152   0.479   9.948
61489W        W25246  36.998  13.675  14.947
61490W        W25247  15.118  26.508   4.149
61491W        W25248   7.905   8.363  10.411
61492W        W25249  17.156  19.060   4.630
61493W        W25250   2.250   6.428  14.446
61494W        W25251  36.901  33.388  14.455
61495W        W25252   2.733  30.628  11.112
61496W        W25253  10.872  22.221   2.702
61497W        W25254  41.849  13.831  12.938
61498W        W25255  16.121   7.773  11.994
61499W        W25256  25.971  42.031   2.183
61500W        W25257  12.272  43.323  10.148
61501W        W25258  39.380   6.724  10.987
61502W        W25259  13.619  22.071  10.992
61503W        W25260  15.674  35.422  11.037
61504W        W25261  25.159   9.810   2.789
61505W        W25262  43.789   5.307  12.578
61506W        W25263  37.030  25.037   5.178
61507W        W25264  43.853  31.490   1.933
61508W        W25265  39.540  29.537  14.450
61509W        W25266  43.423  38.898   1.758
61510W        W25267  24.554  27.497  14.296
61511W        W25268  22.035  25.499   3.357
61512W        W25269  19.546   2.963  12.004
61513W        W25270  22.234  36.550   4.757
61514W        W25271  38.369  14.611   4.316
61515W        W25272  44.343  30.564   4.335
61516W        W25273  23.577  11.713  12.415
61517W        W25274  14.307  30.617  12.824
61518W        W25275   7.316   8.782  14.496
61519W        W25276  38.556  44.803  13.409
61520W        W25277  36.076  43.487   1.761
61521W        W25278  19.085   9.754  13.048
61522W        W25279  33.449  17.124   2.302
61523W        W25280   0.323  36.428  14.009
61524W        W25281   5.836  11.257   2.667
61525W        W25282  27.038  25.096  13.823
61526W        W25283  30.042  11.705  11.991
61527W        W25284  17.293  37.029  14.871
61528W        W25285   4.347  33.438   2.699
61529W        W25286   3.915  33.611   2.181
61530W        W25287  24.694   2.906  13.947
61531W        W25288  21.742  33.578  11.067
61532W        W25289  30.496  37.865   4.728
61533W        W25290  35.104   8.192   2.225
61534W        W25291  28.158  43.867  11.068
61535W        W25292  19.707  13.253  14.836
61536W        W25293   6.882   0.293  11.528
61537W        W25294  32.544  25.971   1.407
61538W        W25295  27.065  44.884   3.841
61539W        W25296  38.543  11.640   0.312
61540W        W25297  13.285   7.756  12.959
61541W        W25298   9.856  29.974   2.773
61542W        W25299  16.782  17.712  13.837
61543W        W25300  33.580  19.572   4.327
61544W        W25301   0.404  43.848  14.762
61545W        W25302  10.715   7.893  10.504
61546W        W25303  24.566  25.052   0.921
61547W        W25304  24.706  11.330  14.872
61548W        W25305   0.387   9.851   0.870
61549W        W25306  36.021  22.654   1.706
61550W        W25307   4.802  10.221   0.848
61551W        W25308  31.974  14.242   2.844
61552W        W25309  41.399   2.384  12.339
61553W        W25310   4.360  38.857   0.242
61554W        W25311  16.205  37.476  13.390
61555W        W25312  14.330   3.393   1.266
61556W        W25313  41.996  21.137  10.620
61557W        W25314  25.560  16.797  11.981
61558W        W25315  31.592  35.015   2.720
61559W        W25316  26.093   9.353  14.405
61560W        W25317  30.454  31.917   2.812
61561W        W25318  19.062  35.561  14.336
61562W        W25319  24.087  10.163  13.858
61563W        W25320  42.312   4.750  11.530
61564W        W25321   3.924  36.510   2.254
61565W        W25322  12.286  30.909  12.875
61566W        W25323  34.888  17.719  13.817
61567W        W25324  24.540  30.542  11.889
61568W        W25325  30.930   6.789   5.216
61569W        W25326  31.985  37.001  14.397
61570W        W25327   0.957  14.816  11.372
61571W        W25328  26.172  33.943  11.869
61572W        W25329   1.275   3.407  13.425
61573W        W25330   9.814   7.296   4.124
61574W        W25331  38.403  31.410   2.398
61575W        W25332  10.820  36.420   0.326
61576W        W25333  34.916  14.728  13.003
61577W        W25334   1.441  16.075   2.799
61578W        W25335   2.300   0.816  10.985
61579W        W25336  35.006  40.445  10.620
61580W        W25337   8.699  42.935   2.347
61581W        W25338  32.901  38.967  11.555
61582W        W25339  35.108  12.250  10.507
61583W        W25340  44.863  18.545   4.134
61584W        W25341  18.694  24.125  14.310
61585W        W25342  22.606  18.208  13.427
61586W        W25343  40.533  43.954   2.842
61587W        W25344   2.327   9.766   1.238
61588W        W25345   3.746  32.401  11.470
61589W        W25346  23.504  30.927  13.382
61590W        W25347  31.456  30.443   3.717
61591W        W25348   1.352  34.388   0.430
61592W        W25349   9.821  35.466   2.738
61593W        W25350  13.281  31.528   3.208
61594W        W25351   1.347  20.739   0.278
61595W        W25352  43.431  39.447  12.489
61596W        W25353  34.982  38.551  11.070
61597W        W25354  42.824  23.526  14.769
61598W        W25355  12.857  26.126  10.527
61599W        W25356  32.541  39.991  11.459
61600W        W25357  41.509  36.565   4.115
61601W        W25358  44.503  35.492   4.299
61602W        W25359  36.474  27.132  11.993
61603W        W25360  21.180   7.239   2.900
61604W        W25361  35.897  37.507   3.656
61605W        W25362  16.805  25.516   2.185
61606W        W25363  34.899  41.361   0.844
61607W        W25364  14.330  38.566  12.522
61608W        W25365  30.488   2.348   2.693
61609W        W25366  24.213  28.007   0.904
61610W        W25367  17.770  20.531   1.421
61611W        W25368  24.514  44.374  14.918
61612W        W25369  11.814  37.422  11.897
61613W        W25370  16.635  42.422  12.048
61614W        W25371   1.846  16.175   3.380
61615W        W25372  23.083  33.555   4.302
61616W        W25373  36.897  44.927  11.091
61617W        W25374  37.049  27.100   2.231
61618W        W25375  12.664  37.426  11.894
61619W        W25376  25.187   7.874   1.420
61620W        W25377  38.365  38.076  12.520
61621W        W25378  13.689  42.353   3.242
61622W        W25379  12.233   4.350  14.828
61623W        W25380   8.666  37.404   1.283
61624W        W25381  28.147  32.616  11.923
61625W        W25382  17.571  44.459   1.347
61626W        W25383   9.218  39.366  13.990
61627W        W25384  17.183   4.317   2.821
61628W        W25385  40.340  41.527  11.109
61629W        W25386  33.609   1.256  10.548
61630W        W25387  12.287   3.360   3.753
61631W        W25388   3.804  31.125   4.752
61632W        W25389  15.634   4.250  10.593
61633W        W25390  25.627  16.752   0.264
61634W        W25391  27.496  42.840   4.756
61635W        W25392  33.966  29.649   2.351
61636W        W25393  11.308  37.427  14.464
61637W        W25394  37.061  43.815  13.838
61638W        W25395  32.043  22.652  10.960
61639W        W25396  27.014  34.445   1.741
61640W        W25397   2.258  20.752   2.679
61641W        W25398  25.033  11.773  13.981
61642W        W25399  19.133  24.686  14.311
61643W        W25400  17.265   7.911   4.690
61644W        W25401  22.509  20.115  14.395
61645W        W25402  40.920   7.330  10.423
61646W        W25403  11.843   4.931  11.527
61647W        W25404  20.642  21.527   2.321
61648W        W25405  13.264  23.673  13.392
61649W        W25406  16.255  40.452   4.252
61650W        W25407   6.816  43.833   5.115
61651W        W25408  17.773  15.662   4.817
61652W        W25409  15.804  24.535  14.344
61653W        W25410   4.928  10.269   3.165
61654W        W25411   6.335   1.308   4.245
61655W        W25412  36.889  37.074   0.463
61656W        W25413  12.144  39.810   4.236
61657W        W25414  24.158  42.314  14.288
61658W        W25415  10.859  30.140  11.881
61659W        W25416  10.736  11.713  11.440
61660W        W25417  40.007  16.635  12.888
61661W        W25418  39.453  27.520  14.868
61662W        W25419  29.659  17.780  12.078
61663W        W25420  18.576  37.970   1.818
61664W        W25421  18.785  36.384  12.954
61665W        W25422  43.502  12.774   5.118
61666W        W25423  20.672  11.764  13.924
61667W        W25424   1.820  41.394  14.367
61668W        W25425   4.920   1.819   3.719
61669W        W25426  15.605  23.117   3.189
61670W        W25427  11.136  30.657   1.343
61671W        W25428   4.261  20.735  11.476
61672W        W25429   4.258  40.842   4.636
61673W        W25430  22.173  18.618  10.617
61674W        W25431  13.806  23.058   1.935
61675W        W25432   5.339  36.417   0.456
61676W        W25433   8.249  14.617   2.377
61677W        W25434   8.258  24.616  12.897
61678W        W25435  36.541  14.692   3.336
61679W        W25436  30.655  22.658  10.492
61680W        W25437  37.963   3.762   5.082
61681W        W25438  44.987  14.210  14.862
61682W        W25439  30.446   8.315   1.775
61683W        W25440  34.985   4.886   2.178
61684W        W25441   8.792  29.622   0.753
61685W        W25442  33.411  24.654   2.392
61686W        W25443  22.119   0.476   3.692
61687W        W25444  37.904  21.731   4.324
61688W        W25445   2.455  19.185  10.428
61689W        W25446  21.714  40.972   0.889
61690W        W25447  11.672  42.286  12.478
61691W        W25448   4.442  43.945   5.201
61692W        W25449  38.413  37.848  14.402
61693W        W25450   2.757  23.984  13.994
61694W        W25451  43.794  33.030   4.761
61695W        W25452  20.555  29.444   2.898
61696W        W25453  16.670  22.170   0.828
61697W        W25454  11.745  29.115   2.410
61698W        W25455  44.773  38.018  10.516
61699W        W25456  14.246  12.135   2.260
61700W        W25457  43.390  35.479  12.961
61701W        W25458  27.187  39.507   3.287
61702W        W25459   2.416  25.134   2.903
61703W        W25460  25.533   3.351  11.431
61704W        W25461  15.171  13.721   2.794
61705W        W25462  18.586  39.944   1.260
61706W        W25463  44.322  12.215  10.923
61707W        W25464   2.322  16.262  13.918
61708W        W25465  44.833  30.940  11.910
61709W        W25466  41.941  23.536   4.120
61710W        W25467  31.972  36.930  13.317
61711W        W25468  11.798  10.315  13.508
61712W        W25469  28.082  36.062  14.441
61713W        W25470  21.711  16.690   0.773
61714W        W25471  28.440  43.885   4.213
61715W        W25472  31.009  32.051   1.253
61716W        W25473  14.746  29.137  11.892
61717W        W25474  10.749  42.927   1.793
61718W        W25475  30.967   0.871  10.499
61719W        W25476  38.527  34.523  11.038
61720W        W25477  19.653  17.188  11.521
61721W        W25478   1.367  32.505   4.682
61722W        W25479  35.569   8.774   2.809
61723W        W25480  23.985   7.206   3.277
61724W        W25481  17.604   8.187   4.140
61725W        W25482  24.027  31.413   3.254
61726W        W25483  20.120   3.265  11.955
61727W        W25484  10.378   8.219  13.466
61728W        W25485  13.319  26.085   0.815
61729W        W25486  39.491  29.056  12.934
61730W        W25487  18.135  24.632   3.839
61731W        W25488  22.105  30.432  11.583
61732W        W25489   5.819  40.311   2.865
61733W        W25490  11.803  23.083   0.750
61734W        W25491   3.225  39.318  14.969
61735W        W25492  10.757  18.065   5.313
61736W        W25493  32.478  23.185   3.334
61737W        W25494  26.034  19.104  11.980
61738W        W25495  10.849  32.622   1.868
61739W        W25496  40.959  34.904  13.351
61740W        W25497   5.249  28.435  11.433
61741W        W25498  41.413   2.330  13.843
61742W        W25499  26.001   3.391  13.053
61743W        W25500  26.493   3.768  14.772
61744W        W25501  19.046  33.098   1.725
61745W        W25502  14.793   0.844   0.396
61746W        W25503  26.154  12.637  10.932
61747W        W25504  34.599  39.877  13.869
61748W        W25505  36.953  12.349   2.787
61749W        W25506  37.079  30.946  11.040
61750W        W25507  42.006   1.409   1.737
61751W        W25508  28.507  35.918  11.893
61752W        W25509  23.242  10.692   2.291
61753W        W25510  43.854  20.661  10.509
61754W        W25511   1.458  43.373   0.817
61755W        W25512  33.422  36.491   1.323
61756W        W25513   8.890  38.964   0.332
61757W        W25514   9.655  36.097  12.983
61758W        W25515  24.195  26.105   1.296
61759W        W25516  18.635   0.892   3.643
61760W        W25517   3.340  27.603  10.637
61761W        W25518   1.247  10.871  13.975
61762W        W25519  44.864  21.256  12.959
61763W        W25520  28.051  32.958   2.758
61764W        W25521  24.614  29.557  10.581
61765W        W25522  20.168  25.624   0.281
61766W        W25523  18.625  28.598  10.964
61767W        W25524  24.561  24.012  12.842
61768W        W25525  37.505  41.395  14.369
61769W        W25526  15.778  24.143  13.956
61770W        W25527  16.249   1.909   0.413
61771W        W25528  33.885   9.838   0.436
61772W        W25529  44.452  25.117  12.867
61773W        W25530  22.528   3.457  10.615
61774W        W25531  13.236  41.842  14.010
61775W        W25532  15.254  11.359   3.754
61776W        W25533  24.521   1.429  11.500
61777W        W25534   3.742  25.130   1.260
61778W        W25535  29.923  39.398  14.906
61779W        W25536  13.295   8.846  11.542
61780W        W25537  20.656  31.937   0.881
61781W        W25538  23.499  44.310  11.497
61782W        W25539  36.941  41.838   2.315
61783W        W25540   6.181  13.772  12.358
61784W        W25541  18.296  15.592  14.330
61785W        W25542  20.209  42.789  13.036
61786W        W25543  30.426  44.942  12.900
61787W        W25544  43.892  29.454  14.287
61788W        W25545  25.697  10.749   3.680
61789W        W25546   7.200  23.656  11.580
61790W        W25547  20.190  23.987  14.907
61791W        W25548  43.848  13.258   2.861
61792W        W25549  22.177  28.008  10.406
61793W        W25550  35.057  43.917  14.784
61794W        W25551  36.908  25.652  10.537
61795W        W25552  13.221  34.917   3.766
61796W        W25553  13.164   5.309  13.829
61797W        W25554  27.447  27.063  10.484
61798W        W25555  44.442  26.596  12.355
61799W        W25556  28.501  21.693  14.488
61800W        W25557  31.926  25.173  11.099
61801W        W25558  12.651  16.801  11.954
61802W        W25559  25.085  34.442   4.668
61803W        W25560  30.517  23.078  14.926
61804W        W25561  32.507  19.704   4.290
61805W        W25562  41.421  29.101   0.319
61806W        W25563  20.167  26.168   4.827
61807W        W25564  33.479   2.424  14.018
61808W        W25565  33.417  32.107   3.765
61809W        W25566  23.216   7.363   0.746
61810W        W25567  19.235  16.158  12.991
61811W        W25568  23.574   9.826  10.973
61812W        W25569   8.257   6.728   4.709
61813W        W25570  35.997  17.295   3.736
61814W        W25571  37.367  41.032   2.406
61815W        W25572   9.741  30.920  12.438
61816W        W25573  11.283   1.955  14.853
61817W        W25574  38.067  13.204   3.869
61818W        W25575  29.462  13.653  11.520
61819W        W25576  18.122  42.482   2.272
61820W        W25577   0.378  29.099   3.256
61821W        W25578  23.013  30.152  13.341
61822W        W25579  36.585  33.068  13.358
61823W        W25580  43.857  43.380  14.774
61824W        W25581  20.577   9.692  12.980
61825W        W25582  29.554   5.705  14.030
61826W        W25583  43.402  11.715  14.786
61827W        W25584  42.878  21.060  12.981
61828W        W25585  15.227   3.278  10.916
61829W        W25586  32.974   5.854   3.631
61830W        W25587   9.701  23.552  11.439
61831W        W25588   5.733  16.113  12.489
61832W        W25589  28.057   6.700   1.325
61833W        W25590  37.568  10.276  11.575
61834W        W25591  13.845  37.955  11.856
61835W        W25592  36.904  42.952   4.319
61836W        W25593   6.719  32.042  13.958
61837W        W25594   8.270   5.743   1.438
61838W        W25595  23.660  33.048   4.805
61839W        W25596  31.404  21.748  14.315
61840W        W25597   9.790  14.757   4.295
61841W        W25598  23.670  39.998  13.335
61842W        W25599  16.784  21.569  12.979
61843W        W25600   1.906  34.001   4.704
61844W        W25601  16.114  10.705  13.307
61845W        W25602  25.559  17.202  14.979
61846W        W25603  26.955  29.525  11.101
61847W        W25604  15.141  16.190  10.428
61848W        W25605  36.592  33.080   2.827
61849W        W25606  43.321  34.954   3.790
61850W        W25607   9.756  33.579  14.300
61851W        W25608  34.994  19.162  14.004
61852W        W25609  28.052  20.617  11.547
61853W        W25610  17.624  31.473  11.889
61854W        W25611  14.206  39.965   1.743
61855W        W25612  25.969  42.287  13.425
61856W        W25613   6.754  12.213  14.489
61857W        W25614  40.977   6.357   4.820
61858W        W25615  14.232  18.233   1.425
61859W        W25616  11.312   2.360   0.271
61860W        W25617  24.722  31.947  11.523
61861W        W25618  25.650  11.311   4.326
61862W        W25619  32.113  20.073  14.923
61863W        W25620  17.686  21.039  12.373
61864W        W25621  39.866   6.731  11.101
61865W        W25622  12.256  33.560  13.538
61866W        W25623   6.375  13.176  11.471
61867W        W25624  27.475   6.223   4.660
61868W        W25625  31.438  31.505  12.516
61869W        W25626  35.463  33.942  14.930
61870W        W25627   5.884   5.256   2.307
61871W        W25628  14.181  44.376  12.516
61872W        W25629  40.918   5.692   1.760
61873W        W25630  33.997  41.906  10.421
61874W        W25631  42.515  31.123  13.311
61875W        W25632  13.728   7.796   1.379
61876W        W25633   1.278  19.191   3.190
61877W        W25634  37.400  24.992  11.009
61878W        W25635   4.901   3.722  11.870
61879W        W25636  27.605   8.165  11.006
61880W        W25637  24.010  38.422  13.534
61881W        W25638  13.161  38.521  14.001
61882W        W25639  33.893  15.666  11.889
61883W        W25640  30.548  14.178   2.807
61884W        W25641  23.086   4.703  11.059
61885W        W25642  17.282  10.771  14.817
61886W        W25643  30.534  37.938  11.947
61887W        W25644  33.484  42.832   2.821
61888W        W25645  39.973  34.430   4.183
61889W        W25646  28.032  28.003   3.353
61890W        W25647  37.475  32.501  11.550
61891W        W25648   7.311  26.954   3.206
61892W        W25649  44.997  16.811  13.944
61893W        W25650   0.319  16.215  12.508
61894W        W25651  43.435  33.415   4.265
61895W        W25652   3.746  42.430  12.968
61896W        W25653  37.832  15.668  10.120
61897W        W25654  31.514  17.748  11.857
61898W        W25655  43.886  27.536   4.650
61899W        W25656  40.853  27.962  10.922
61900W        W25657  22.056  16.702   3.371
61901W        W25658  24.015  19.593  14.419
61902W        W25659  27.539  32.986   3.215
61903W        W25660   7.366  22.664   3.806
61904W        W25661  30.101   8.753  13.031
61905W        W25662  28.665  13.646   5.177
61906W        W25663  44.898  21.037  10.907
61907W        W25664  41.934  27.637   0.283
61908W        W25665  26.175  33.380   0.824
61909W        W25666  32.991  17.580   3.688
61910W        W25667  21.088  18.136  11.099
61911W        W25668  13.825   5.248   3.161
61912W        W25669  24.651  42.312  10.996
61913W        W25670  38.978  17.733  14.513
61914W        W25671  34.570   7.719   3.196
61915W        W25672  25.513  43.921  14.785
61916W        W25673  12.287  44.299   1.217
61917W        W25674  35.050   3.312   0.909
61918W        W25675  41.472  44.803   3.784
61919W        W25676  44.988  12.159   0.406
61920W        W25677  25.053   5.729  12.417
61921W        W25678  44.856  36.892  14.357
61922W        W25679  29.502  35.092   0.333
61923W        W25680  15.267  23.015   1.750
61924W        W25681  26.157  11.865   4.230
61925W        W25682  31.102  25.053  11.868
61926W        W25683  23.648  22.547   2.209
61927W        W25684  18.127  23.721  12.010
61928W        W25685  35.909  36.011  10.451
61929W        W25686  14.237  10.239   1.901
61930W        W25687   4.713  26.093  12.546
61931W        W25688  36.576  28.995   2.745
61932W        W25689  18.056   8.398   1.765
61933W        W25690   4.766  17.149   5.317
61934W        W25691  14.301  19.610  13.448
61935W        W25692  43.815  11.357   0.380
61936W        W25693  24.150  12.682   3.792
61937W        W25694  19.228  13.829   2.839
61938W        W25695  11.311  14.109   1.765
61939W        W25696  19.101  30.952   4.332
61940W        W25697  42.358  22.072   0.379
61941W        W25698   9.780  39.340  14.921
61942W        W25699  11.293  28.542   1.352
61943W        W25700  11.817  27.549  12.520
61944W        W25701   9.685  33.006   4.269
61945W        W25702  18.202  41.522   2.676
61946W        W25703  37.992  24.503   2.856
61947W        W25704  21.528  20.549   1.811
61948W        W25705  21.101  30.159   3.674
61949W        W25706  36.477  20.245  11.442
61950W        W25707  39.512  42.422   1.824
61951W        W25708   2.765   9.749   2.406
61952W        W25709  43.790  44.949  12.554
61953W        W25710   1.307  33.923   3.794
61954W        W25711  18.750  26.521   2.718
61955W        W25712  25.617  14.635  13.436
61956W        W25713  41.375  12.717  14.985
61957W        W25714  36.395  31.959  11.090
61958W        W25715  15.684  38.437   1.428
61959W        W25716   3.913  13.138  13.871
61960W        W25717  44.273  15.171   3.226
61961W        W25718  28.064   4.757   4.168
61962W        W25719  40.881   5.757  12.047
61963W        W25720  10.169  10.231   0.815
61964W        W25721  24.173  26.202  14.793
61965W        W25722  12.682  13.146   3.686
61966W        W25723  29.100   2.844   3.731
61967W        W25724   5.739  42.483  12.898
61968W        W25725  39.434  44.790   1.423
61969W        W25726  17.189  40.334   1.445
61970W        W25727  20.532  34.921  11.117
61971W        W25728  22.063  12.156  14.008
61972W        W25729  13.731  21.521   4.340
61973W        W25730   7.350   3.931   0.947
61974W        W25731  22.521  18.067   5.116
61975W        W25732  11.859   3.950  14.903
61976W        W25733  15.316  16.634  13.343
61977W        W25734  29.045  34.970   4.223
61978W        W25735  15.812  22.515  14.869
61979W        W25736  21.628  19.210  13.944
61980W        W25737   6.712   0.418   2.682
61981W        W25738  16.238  27.589  13.852
61982W        W25739  40.963  43.484   0.758
61983W        W25740   1.327  14.127  10.447
61984W        W25741  38.857  12.623  14.469
61985W        W25742  19.771   5.738  10.545
61986W        W25743  17.120  37.966  11.057
61987W        W25744  37.375  27.186   4.767
61988W        W25745  29.075  18.050  11.986
61989W        W25746  38.488  43.010  11.991
61990W        W25747  15.801  38.876  12.506
61991W        W25748  36.542  27.970  13.933
61992W        W25749   0.885   1.776   3.640
61993W        W25750  41.790  18.645   3.283
61994W        W25751  40.449  21.632   0.924
61995W        W25752   3.796  36.060  10.914
61996W        W25753  19.100  29.127  14.979
61997W        W25754  24.226  33.592  14.450
61998W        W25755  25.176  30.594  11.477
61999W        W25756   7.262  20.720  10.460
62000W        W25757  34.605   3.388  12.493
62001W        W25758   1.772   1.763  11.447
62002W        W25759  29.147  20.641  14.352
62003W        W25760  32.104  41.372   4.607
62004W        W25761   1.907  20.233  14.341
62005W        W25762  17.197  23.694  12.389
62006W        W25763  13.679  13.654   1.343
62007W        W25764  26.643  33.102   2.236
62008W        W25765  38.899   6.405  12.068
62009W        W25766   1.851  31.904  14.995
62010W        W25767  22.731  44.006   1.231
62011W        W25768  22.057  14.665   1.831
62012W        W25769   9.331  33.409  10.891
62013W        W25770  19.052  35.426  13.478
62014W        W25771  34.083  11.623   0.943
62015W        W25772  19.067   5.749   0.347
62016W        W25773  10.642  17.788   0.244
62017W        W25774  33.117   7.838  11.411
62018W        W25775  14.636   4.936  12.401
62019W        W25776  38.933   9.736  10.617
62020W        W25777  30.148  42.356  12.882
62021W        W25778  30.528  27.592  12.372
62022W        W25779   1.767  16.313   1.799
62023W        W25780  44.995  33.975   3.310
62024W        W25781   2.250  38.910   2.836
62025W        W25782  21.040  24.589   4.337
62026W        W25783  11.740  38.900  13.465
62027W        W25784  35.518   8.372   2.236
62028W        W25785  15.200  17.613  11.580
62029W        W25786   4.746   8.211  11.448
62030W        W25787   0.985   4.718   2.401
62031W        W25788  25.206   1.439  14.847
62032W        W25789  34.551   4.311   1.803
62033W        W25790  21.706  21.736   3.253
62034W        W25791  42.356  44.402  13.888
62035W        W25792   7.863  19.259   2.712
62036W        W25793   8.781  23.178   0.919
62037W        W25794  20.097   2.961  12.989
62038W        W25795  31.472  40.810   3.345
62039W        W25796   0.889  29.586   3.749
62040W        W25797   2.252  40.851  14.843
62041W        W25798   7.723  23.221  14.506
62042W        W25799  36.483  15.821  11.057
62043W        W25800  14.233   7.844   5.266
62044W        W25801  13.752  39.355  13.985
62045W        W25802  30.553  33.047   3.658
62046W        W25803  32.039   4.272   0.317
62047W        W25804  31.123  37.029   3.381
62048W        W25805  29.632  22.558  13.818
62049W        W25806  25.091  29.582  12.957
62050W        W25807  13.776  25.702  11.872
62051W        W25808  33.932  27.037  13.346
62052W        W25809  30.063  29.969  14.773
62053W        W25810  11.836  38.376   3.721
62054W        W25811  34.572  40.322  13.837
62055W        W25812  31.131  16.589  11.575
62056W        W25813  23.193  21.654  14.962
62057W        W25814  12.677  39.940   3.206
62058W        W25815   7.868  18.157   4.314
62059W        W25816  15.145   9.694  13.059
62060W        W25817  35.412  19.085  13.479
62061W        W25818  41.967   1.867  14.012
62062W        W25819  16.787  14.265   1.805
62063W        W25820   1.794  23.217  12.388
62064W        W25821  28.107  29.003  10.492
62065W        W25822  38.356  18.576   3.188
62066W        W25823  15.792   3.263   1.279
62067W        W25824  31.411  35.458   3.866
62068W        W25825  34.072  41.321   2.399
62069W        W25826  29.528  28.106  12.368
62070W        W25827  27.184  35.078   1.798
62071W        W25828  13.121  39.958  13.873
62072W        W25829   1.321   9.649   1.815
62073W        W25830  29.438   4.738  10.008
62074W        W25831  11.828  29.660   3.846
62075W        W25832  43.283  44.941  12.897
62076W        W25833  44.911  35.440  10.549
62077W        W25834  18.787  11.744   3.347
62078W        W25835  10.826  36.871  13.543
62079W        W25836  10.154  21.062  10.434
62080W        W25837  14.172  39.006   2.779
62081W        W25838  34.451  30.075  12.041
62082W        W25839  13.752  39.010   3.676
62083W        W25840  13.660  12.228  13.878
62084W        W25841   4.813  22.250   1.407
62085W        W25842  28.514  18.620   3.349
62086W        W25843  23.196  39.446  12.345
62087W        W25844  44.501   1.849   3.870
62088W        W25845  27.548  30.108   4.647
62089W        W25846  26.032  41.872   3.742
62090W        W25847  41.936   6.743   4.785
62091W        W25848  11.369  12.804  14.826
62092W        W25849  10.347  14.769  14.891
62093W        W25850  28.480  12.727  12.363
62094W        W25851  26.082  19.776   1.265
62095W        W25852   9.683  35.046  14.437
62096W        W25853  29.065  44.504  11.069
62097W        W25854  29.638  29.021  14.424
62098W        W25855  27.981  13.694   2.370
62099W        W25856  15.295  29.166   4.711
62100W        W25857  10.214  32.967   2.388
62101W        W25858  29.438  29.560   0.735
62102W        W25859  10.232   2.828  12.363
62103W        W25860  40.453   2.917   4.606
62104W        W25861  42.813  19.647   3.661
62105W        W25862  41.404   0.870  14.912
62106W        W25863  36.051  20.606   3.346
62107W        W25864  40.806  13.213   2.803
62108W        W25865  38.822   8.687   4.641
62109W        W25866   6.728  16.809  14.789
62110W        W25867  17.677  23.640   1.372
62111W        W25868   0.323  40.327   3.192
62112W        W25869  21.046  23.165   1.310
62113W        W25870  23.581  35.005   3.246
62114W        W25871  10.260  26.468  14.863
62115W        W25872  29.078  28.976  12.055
62116W        W25873  38.461   8.247  10.948
62117W        W25874  44.813  12.705   5.119
62118W        W25875  35.392  26.970  10.625
62119W        W25876  44.869   4.870  13.829
62120W        W25877  11.129  14.252  10.554
62121W        W25878  26.989  31.024  14.842
62122W        W25879  14.631  35.932   3.698
62123W        W25880  34.894  15.675  12.910
62124W        W25881  43.343  31.640  12.482
62125W        W25882  19.150  11.845   2.267
62126W        W25883  26.101  26.983   4.152
62127W        W25884   4.442  41.970  12.943
62128W        W25885  16.189  26.021   0.437
62129W        W25886   3.311  23.053   3.855
62130W        W25887  16.670  14.764   5.695
62131W        W25888  24.617   1.462  10.512
62132W        W25889  38.846  21.548  12.842
62133W        W25890  14.095  25.093  10.088
62134W        W25891   2.226  37.414   3.659
62135W        W25892   2.824  28.438  12.894
62136W        W25893   9.682  43.962  14.881
62137W        W25894  21.232  22.633  12.915
62138W        W25895  13.154  38.021  14.952
62139W        W25896  22.591  34.984   4.216
62140W        W25897  16.184  34.107   4.133
62141W        W25898  37.950  37.080   3.183
62142W        W25899  26.505  42.967  14.828
62143W        W25900  11.762   1.965   3.744
62144W        W25901  39.052  30.107   1.366
62145W        W25902   1.367  41.855   4.261
62146W        W25903  39.018   2.845  10.471
62147W        W25904  18.560  17.144  14.285
62148W        W25905   7.416   7.731   2.376
62149W        W25906  21.090  34.396   1.378
62150W        W25907  25.169  21.162  11.423
62151W        W25908   2.726  23.523  13.999
62152W        W25909  18.084  24.987  11.104
62153W        W25910  23.208   5.901  12.878
62154W        W25911  25.581   0.908   2.207
62155W        W25912  19.680  30.615  12.832
62156W        W25913   5.382  24.610  11.079
62157W        W25914   2.329   7.698   0.481
62158W        W25915  17.557  32.537  14.424
62159W        W25916  27.947  27.190  10.946
62160W        W25917  10.173  16.667   3.865
62161W        W25918  12.252  21.146   2.796
62162W        W25919  28.184   7.182   3.793
62163W        W25920   1.316  41.908   3.223
62164W        W25921  30.974  31.470   2.326
62165W        W25922   3.729  35.931   3.667
62166W        W25923  22.187  23.170  11.519
62167W        W25924  12.170  28.939   1.794
62168W        W25925  26.549  44.948  11.045
62169W        W25926  35.406  11.240  14.827
62170W        W25927  18.215   1.732  12.506
62171W        W25928  21.655   2.918   1.838
62172W        W25929  28.573  37.076   3.763
62173W        W25930  32.399   3.733   4.349
62174W        W25931  30.046  31.917   3.268
62175W        W25932  25.684  11.325  13.058
62176W        W25933  22.046  38.492   4.236
62177W        W25934   2.251  33.124  13.039
62178W        W25935  23.047  13.835  13.936
62179W        W25936  18.770  26.971  13.307
62180W        W25937   0.859  28.116  14.011
62181W        W25938  38.927  11.225   3.787
62182W        W25939  17.100   6.286  12.855
62183W        W25940  28.553  11.254   2.729
62184W        W25941  20.131  37.938  11.999
62185W        W25942  11.764  21.110  13.949
62186W        W25943  40.873  39.032   4.141
62187W        W25944   5.415  30.608  13.408
62188W        W25945  23.550  24.088   4.837
62189W        W25946  24.050  28.601  11.098
62190W        W25947  10.689  14.816  13.350
62191W        W25948  20.258  10.278  10.583
62192W        W25949   4.881  19.775  13.474
62193W        W25950  36.492   2.374  14.447
62194W        W25951   0.829   6.206   2.668
62195W        W25952   0.890  22.012  14.865
62196W        W25953  26.529  22.055  11.091
62197W        W25954   2.735  10.242   1.340
62198W        W25955  37.889  28.954   3.280
62199W        W25956   2.923   5.800  13.844
62200W        W25957  15.177  17.253   1.862
62201W        W25958  43.429  19.061  13.943
62202W        W25959  18.256  42.343  12.066
62203W        W25960  34.521   5.291   0.368
62204W        W25961  43.306   2.943  12.852
62205W        W25962  22.597  28.082   4.679
62206W        W25963  31.432  27.953   0.782
62207W        W25964  20.229   4.867  10.032
62208W        W25965   3.277  18.116  14.758
62209W        W25966  39.444  42.425   3.218
62210W        W25967  19.738  31.510  11.598
62211W        W25968   3.349  12.799   3.223
62212W        W25969  43.816   5.716   1.266
62213W        W25970   5.340  23.555   1.776
62214W        W25971  25.069  13.802   2.871
62215W        W25972   6.401  34.432   4.771
62216W        W25973  29.438  28.626  11.924
62217W        W25974  19.672  40.851  12.061
62218W        W25975  33.595  40.336  10.071
62219W        W25976  10.199  25.990   1.842
62220W        W25977   5.260  12.282  11.939
62221W        W25978  28.141  38.424  11.392
62222W        W25979  23.175  33.460   3.305
62223W        W25980  19.649   2.820   1.226
62224W        W25981   6.806  27.083  14.443
62225W        W25982  20.159   1.921   4.800
62226W        W25983   3.266  28.601  14.309
62227W        W25984  26.049  34.930  10.959
62228W        W25985  21.163   4.412  12.470
62229W        W25986   4.731  20.524   4.342
62230W        W25987   6.212  26.021  11.918
62231W        W25988  34.927  19.550  13.997
62232W        W25989  17.127  12.635  11.875
62233W        W25990  27.125  13.627   4.723
62234W        W25991  40.983  43.827  13.323
62235W        W25992  39.980   0.799   4.719
62236W        W25993  34.418  19.573  12.841
62237W        W25994   7.238  15.743   3.825
62238W        W25995  21.217   7.255   0.378
62239W        W25996  18.210   4.865  12.060
62240W        W25997  25.105  18.601   2.309
62241W        W25998  25.671  40.922   3.345
62242W        W25999  39.485  16.096   2.371
62243W        W26000  16.191  28.053   4.832
62244W        W26001  31.458  11.291   4.798
62245W        W26002  36.508  29.985   1.411
62246W        W26003   0.333  44.290  14.284
62247W        W26004  11.767  30.632   0.881
62248W        W26005   2.390   1.799  10.088
62249W        W26006  30.017   2.300   0.359
62250W        W26007  34.521  22.023  12.465
62251W        W26008  32.434  17.746  11.509
62252W        W26009  22.506   6.356  13.477
62253W        W26010  13.300  11.222  14.967
62254W        W26011  33.516   9.202  14.463
62255W        W26012  21.165  17.073   2.750
62256W        W26013  16.672   6.717   1.449
62257W        W26014  38.383  18.551   1.354
62258W        W26015  36.095  19.166  14.915
62259W        W26016  38.925  14.811  13.404
62260W        W26017  36.496  36.086   3.805
62261W        W26018  11.319  27.050  13.949
62262W        W26019  20.207  29.473  10.455
62263W        W26020  25.022   5.374   2.890
62264W        W26021  18.279  12.659   5.805
62265W        W26022  26.169  35.590  12.438
62266W        W26023  17.061  35.494  13.473
62267W        W26024  41.898  36.061  14.800
62268W        W26025  20.724  15.301   1.230
62269W        W26026  11.158   9.762   2.721
62270W        W26027  44.853  37.894   2.684
62271W        W26028  29.575  43.465   1.402
62272W        W26029  16.181  10.176   3.750
62273W        W26030  43.483   0.303   2.721
62274W        W26031   1.967   6.421   3.695
62275W        W26032  17.270  23.103   0.875
62276W        W26033   7.672  21.203   5.081
62277W        W26034  30.487  11.840  10.587
62278W        W26035  20.566  38.348  14.777
62279W        W26036  21.608  17.266   3.296
62280W        W26037  13.296  14.606   2.295
62281W        W26038   0.479  34.889   0.929
62282W        W26039  38.004  25.611  11.127
62283W        W26040  44.774  42.855   1.256
62284W        W26041  12.144  26.624   1.238
62285W        W26042  11.132  39.932   3.658
62286W        W26043  21.062   7.219  11.550
62287W        W26044  34.556  32.633  10.932
62288W        W26045  40.040   7.314   1.800
62289W        W26046  37.934   1.451   3.180
62290W        W26047  40.878  32.092   4.772
62291W        W26048  44.982  37.003   2.698
62292W        W26049  32.555  14.704   2.899
62293W        W26050  10.685   3.407  10.624
62294W        W26051  13.738  10.848  12.953
62295W        W26052  36.562  29.953   3.659
62296W        W26053  15.688   9.669   3.387
62297W        W26054  33.398  15.326   3.206
62298W        W26055   5.866  42.926   3.280
62299W        W26056  18.770  21.754  13.818
62300W        W26057  13.192  19.638   1.932
62301W        W26058  29.608  18.580  11.119
62302W        W26059  36.437  36.561  12.949
62303W        W26060  36.498  28.661   1.925
62304W        W26061  43.895  33.074   2.850
62305W        W26062  27.569  12.698   1.265
62306W        W26063  31.422  39.524   0.732
62307W        W26064  32.895  40.810  14.487
62308W        W26065  20.763  35.103   1.280
62309W        W26066  43.289  12.167  12.346
62310W        W26067   6.884  15.668   1.302
62311W        W26068  24.052  30.917  12.921
62312W        W26069  11.781  10.274   4.242
62313W        W26070   6.770   5.780  13.316
62314W        W26071  15.634  25.683  12.574
62315W        W26072  19.601   4.344  14.826
62316W        W26073  14.674   6.819   4.231
62317W        W26074  36.038   6.725  14.954
62318W        W26075  37.581  27.564   1.885
62319W        W26076  16.617  37.985   3.180
62320W        W26077  40.865  44.274  13.863
62321W        W26078  19.093  30.597  14.459
62322W        W26079  32.902  18.188  10.941
62323W        W26080  27.519  34.533  13.358
62324W        W26081   5.207  24.210  10.070
62325W        W26082   8.164  39.862  10.578
62326W        W26083  28.583  21.624  13.992
62327W        W26084  30.466  43.409   0.309
62328W        W26085  43.799  15.128  12.089
62329W        W26086  40.985  20.742  13.019
62330W        W26087  27.049  40.518  11.459
62331W        W26088  18.156   8.704   3.826
62332W        W26089   5.750  32.402   2.348
62333W        W26090   6.358  21.756   4.286
62334W        W26091  28.444  42.364   3.375
62335W        W26092  26.554  33.583  11.885
62336W        W26093  38.546  13.782   1.762
62337W        W26094   1.367  38.524  12.469
62338W        W26095   6.922   8.343   0.787
62339W        W26096  27.664  22.103   4.788
62340W        W26097  27.593  40.325  14.864
62341W        W26098  40.820  14.166  10.518
62342W        W26099  18.664  40.465  13.954
62343W        W26100   2.284  14.620   3.255
62344W        W26101  12.287  15.806  11.553
62345W        W26102   9.704  21.570   4.192
62346W        W26103  40.974  30.910   3.157
62347W        W26104  37.902  40.918  13.310
62348W        W26105   7.307  10.258  11.940
62349W        W26106  31.990  11.310  13.941
62350W        W26107  29.597   6.723  10.559
62351W        W26108  12.191  16.103   2.316
62352W        W26109  25.709  42.817   4.127
62353W        W26110   2.252  21.166   1.293
62354W        W26111   2.349  17.115  14.330
62355W        W26112   8.324  23.198   2.678
62356W        W26113   6.244  43.841   3.835
62357W        W26114  42.346   8.262   1.308
62358W        W26115  35.526  40.014  11.126
62359W        W26116  43.456  31.468  11.888
62360W        W26117  29.062   1.451   0.391
62361W        W26118  32.481   2.882   3.379
62362W        W26119  23.052  26.638   4.118
62363W        W26120  20.685   6.680  14.918
62364W        W26121  41.949  40.910  14.991
62365W        W26122  14.712  28.136  11.522
62366W        W26123  19.192  31.544  11.380
62367W        W26124  24.117   6.293  13.884
62368W        W26125   0.477  25.078  12.087
62369W        W26126  41.355  12.788   1.798
62370W        W26127  40.399  11.216   4.219
62371W        W26128  36.458  29.947  14.934
62372W        W26129  20.716  10.210  14.436
62373W        W26130  39.375   2.722  13.025
62374W        W26131  32.079  39.938   4.687
62375W        W26132   9.179   0.328  11.050
62376W        W26133  18.615   0.447   3.177
62377W        W26134  38.495   9.364  14.321
62378W        W26135  18.547  31.500   3.306
62379W        W26136   0.880  11.641  11.420
62380W        W26137   4.325   0.466  11.592
62381W        W26138  31.103   6.832  14.855
62382W        W26139  26.118  41.433   0.912
62383W        W26140  15.267  21.579   4.152
62384W        W26141  25.509  41.790   4.267
62385W        W26142   8.810   4.941  11.561
62386W        W26143  20.063  28.591  10.933
62387W        W26144  18.277  24.137  12.349
62388W        W26145  20.762  37.433   9.551
62389W        W26146  31.436   0.925   1.818
62390W        W26147  31.441  17.628  12.397
62391W        W26148  41.483   0.834  13.527
62392W        W26149  10.835  27.019   3.863
62393W        W26150  24.689  11.771   3.729
62394W        W26151  16.731  31.041   1.374
62395W        W26152  41.028  18.068   2.730
62396W        W26153  10.152  18.274   4.324
62397W        W26154  24.582  33.519   0.278
62398W        W26155  33.384  27.088   2.253
62399W        W26156  15.274  32.499  12.372
62400W        W26157  39.487   6.913   1.418
62401W        W26158  41.390  24.585   2.228
62402W        W26159   7.705  27.663  14.368
62403W        W26160   9.293  35.488   2.319
62404W        W26161   1.888  26.651   4.832
62405W        W26162  19.569  20.250   4.273
62406W        W26163  24.182  32.451   4.824
62407W        W26164  43.507  42.831  13.984
62408W        W26165  17.308  23.165  14.353
62409W        W26166  16.194  42.997   2.662
62410W        W26167   0.804   8.231   1.227
62411W        W26168  22.645  21.722   3.761
62412W        W26169  23.720   6.246   3.381
62413W        W26170   9.354  14.597   4.205
62414W        W26171  36.591  33.431   0.961
62415W        W26172  19.251  14.823   3.715
62416W        W26173  27.470  34.521   3.654
62417W        W26174  11.225   4.425  10.636
62418W        W26175  10.254  43.330   0.286
62419W        W26176  26.206  38.356   1.399
62420W        W26177   9.655  35.511   1.754
62421W        W26178  14.180  30.592  11.439
62422W        W26179  37.426  26.155  13.441
62423W        W26180  24.148   9.257   3.271
62424W        W26181  10.282   4.907  13.448
62425W        W26182  18.071  25.609   3.654
62426W        W26183  10.793  16.690   4.354
62427W        W26184  10.280  18.581  14.362
62428W        W26185   6.250   2.815   4.128
62429W        W26186  22.637  38.028  13.836
62430W        W26187  38.922  10.249  12.845
62431W        W26188   1.966  11.127  10.613
62432W        W26189   1.265   1.960   3.662
62433W        W26190  36.411  44.447   0.851
62434W        W26191   4.373  38.421  11.006
62435W        W26192  44.901   7.385   2.351
62436W        W26193  24.630   3.312  13.901
62437W        W26194  42.514  33.483  11.019
62438W        W26195  32.130   8.288   3.238
62439W        W26196  16.269  21.135   3.243
62440W        W26197  25.995   4.779   3.724
62441W        W26198  14.698  10.284  10.613
62442W        W26199   1.430  29.601   4.170
62443W        W26200   6.304   6.800  13.348
62444W        W26201   9.691  22.062  10.624
62445W        W26202  44.845  23.709   1.323
62446W        W26203  38.478  15.641   0.317
62447W        W26204  10.796  16.675  12.353
62448W        W26205  16.603  21.680   1.382
62449W        W26206   1.737  11.334  12.540
62450W        W26207   5.829  23.122  12.419
62451W        W26208   8.174  24.183  12.405
62452W        W26209  29.076  34.957  13.410
62453W        W26210  13.331  28.048   1.819
62454W        W26211   9.691  20.671   4.144
62455W        W26212  44.853  28.110   4.796
62456W        W26213  22.516  27.061  14.783
62457W        W26214  18.199   6.340  14.872
62458W        W26215  44.860  10.873   4.701
62459W        W26216  21.202  33.528  12.556
62460W        W26217  36.396   6.380   3.666
62461W        W26218  32.434   0.886   1.768
62462W        W26219  39.534   4.858  11.517
62463W        W26220  31.646  28.937  10.563
62464W        W26221   4.930  30.964  12.932
62465W        W26222  37.560  39.403   3.183
62466W        W26223  30.420  12.768   4.734
62467W        W26224  12.188  10.678   3.786
62468W        W26225   8.311  15.624   2.200
62469W        W26226   6.802  13.827   4.748
62470W        W26227   1.914  24.140  13.956
62471W        W26228   5.400  12.285   4.731
62472W        W26229  28.487   8.234   4.792
62473W        W26230   3.358  43.485   3.366
62474W        W26231  28.593  26.589  13.444
62475W        W26232  21.548  34.916   3.671
62476W        W26233  28.609  13.702   0.326
62477W        W26234  27.119   8.262  13.500
62478W        W26235  12.836  30.598  11.437
62479W        W26236  41.878  28.930   1.449
62480W        W26237   4.798  40.943   3.312
62481W        W26238  12.206  28.939   4.713
62482W        W26239  21.757  26.674   4.614
62483W        W26240   3.732  28.103   4.732
62484W        W26241  33.950  37.418  14.800
62485W        W26242  23.732  36.515   2.416
62486W        W26243  12.731  31.011   4.131
62487W        W26244   8.851  18.704   0.272
62488W        W26245  15.249  42.324  11.018
62489W        W26246  26.018   2.954   3.203
62490W        W26247  20.168  37.384   1.820
62491W        W26248  11.638  21.641   0.740
62492W        W26249  26.596  42.959  11.499
62493W        W26250  34.464  37.005   0.842
62494W        W26251  19.202   3.290   1.227
62495W        W26252   1.772   9.661  11.026
62496W        W26253  29.161  20.667  11.555
62497W        W26254  42.363  35.092   4.773
62498W        W26255   4.323  38.821   1.905
62499W        W26256  37.907   5.722   1.828
62500W        W26257  35.456  18.759   4.188
62501W        W26258  44.352   9.678  14.008
62502W        W26259  19.122  26.107  12.078
62503W        W26260  32.402   2.735   4.599
62504W        W26261  36.438  39.057  11.510
62505W        W26262  22.205  38.950   1.786
62506W        W26263  37.441  19.774  13.979
62507W        W26264   0.307  43.805   2.212
62508W        W26265  20.723  20.713   3.719
62509W        W26266  31.592  31.136  10.887
62510W        W26267  18.550  41.407   3.286
62511W        W26268  23.570  37.509  13.841
62512W        W26269  18.562   8.674   3.264
62513W        W26270  40.360  18.756   3.778
62514W        W26271  39.971  30.099  10.901
62515W        W26272  17.191  27.646   2.239
62516W        W26273   3.947   2.412  10.452
62517W        W26274  37.927  13.165   4.236
62518W        W26275   6.274  33.100   2.895
62519W        W26276  38.077   3.850  14.337
62520W        W26277   4.446  23.578   3.871
62521W        W26278  43.925  38.516   3.645
62522W        W26279  27.952  12.340  10.971
62523W        W26280  18.293   6.268   1.431
62524W        W26281  27.583  26.108  13.446
62525W        W26282  25.697  31.908  10.948
62526W        W26283  36.513  23.085   2.203
62527W        W26284  26.550  29.499  13.921
62528W        W26285  23.058  12.300  13.426
62529W        W26286  12.311  11.789   1.715
62530W        W26287   7.710   2.919  11.953
62531W        W26288  39.056   1.952  14.368
62532W        W26289  28.944  17.264  12.011
62533W        W26290   3.222  36.859   2.335
62534W        W26291  40.328  42.948   0.282
62535W        W26292  25.509  15.783   1.898
62536W        W26293   6.346   6.364   2.362
62537W        W26294   0.425  21.198   4.746
62538W        W26295  40.319   0.896  13.894
62539W        W26296  28.543  44.352  14.376
62540W        W26297  36.979  31.904   4.125
62541W        W26298  34.494  33.030   3.295
62542W        W26299  24.159  29.545  14.819
62543W        W26300   3.425  42.846  13.443
62544W        W26301  31.979  20.097  10.989
62545W        W26302  21.183  17.069  12.070
62546W        W26303  11.683   3.218   1.341
62547W        W26304  37.510  34.943   2.802
62548W        W26305   0.880  18.787  12.498
62549W        W26306   0.928  42.785  12.449
62550W        W26307  32.944  23.986   4.816
62551W        W26308  37.858  34.962   0.817
62552W        W26309  10.382  37.834  11.560
62553W        W26310   1.237  16.619  11.396
62554W        W26311  27.675  37.452   3.309
62555W        W26312   5.755   0.346  11.611
62556W        W26313  21.025   5.324   1.885
62557W        W26314  35.986  16.221   0.901
62558W        W26315  18.784  25.603  10.567
62559W        W26316  31.508  17.703  13.929
62560W        W26317  20.120  36.849  13.016
62561W        W26318  41.999  38.337   4.656
62562W        W26319  15.263  21.650   0.763
62563W        W26320  12.153  34.562  14.770
62564W        W26321  17.160  24.161  13.949
62565W        W26322  33.525  16.300  12.843
62566W        W26323  15.634  44.421  14.404
62567W        W26324  30.436   5.354   1.252
62568W        W26325  18.663  44.902  10.924
62569W        W26326  20.600  20.244  13.021
62570W        W26327  28.658  12.832   1.872
62571W        W26328  21.132   3.433   3.660
62572W        W26329   4.262   4.322  10.506
62573W        W26330   4.400  23.614  12.997
62574W        W26331  36.065   8.721  13.990
62575W        W26332  10.719   1.779  13.867
62576W        W26333  19.251  38.980  12.918
62577W        W26334   7.840  38.852  11.495
62578W        W26335   4.370  17.692   3.762
62579W        W26336  15.255  43.490   3.699
62580W        W26337  21.188  12.263  12.927
62581W        W26338   6.349   5.885   3.305
62582W        W26339  16.788  18.157   1.887
62583W        W26340   4.341  39.952   4.120
62584W        W26341  20.104  37.479  10.611
62585W        W26342  21.217  13.810   2.298
62586W        W26343  29.621   4.748   1.922
62587W        W26344   9.877  41.839  12.034
62588W        W26345  29.920  24.521  11.422
62589W        W26346  33.997   8.364  11.927
62590W        W26347   7.682  37.432   2.363
62591W        W26348  19.609  25.643   3.724
62592W        W26349  26.074   6.383   4.597
62593W        W26350  25.048  21.085   1.924
62594W        W26351  22.656   5.813   2.817
62595W        W26352  37.457  34.395   3.159
62596W        W26353  40.939  32.624  14.497
62597W        W26354   4.704  17.625  14.881
62598W        W26355  43.896  34.420   1.280
62599W        W26356  17.589   8.885   3.365
62600W        W26357  37.352  12.140   2.902
62601W        W26358  44.848  37.538  12.934
62602W        W26359  37.903  41.942   3.647
62603W        W26360   7.796  21.061   3.331
62604W        W26361  18.564  44.407  10.942
62605W        W26362  40.548  39.902   4.838
62606W        W26363  43.288   9.311   4.122
62607W        W26364  33.440  12.337   2.261
62608W        W26365  10.360  34.066  14.946
62609W        W26366   7.848  18.709   2.678
62610W        W26367  35.994   9.273   3.330
62611W        W26368  28.568  44.501   4.821
62612W        W26369   0.487  40.547   1.271
62613W        W26370  21.628   1.923   1.792
62614W        W26371  21.193  26.168   3.300
62615W        W26372   6.708  13.832  14.313
62616W        W26373   1.424   2.951  11.108
62617W        W26374  21.704   3.448  14.361
62618W        W26375  23.008   9.372  13.007
62619W        W26376  38.506  28.589  11.534
62620W        W26377  38.506   5.868  14.954
62621W        W26378   2.387  25.669   4.179
62622W        W26379  25.193  36.058  10.918
62623W        W26380  37.566  27.660  14.293
62624W        W26381  15.618  14.781   0.779
62625W        W26382  37.976  36.398   3.232
62626W        W26383   2.810  24.222  14.782
62627W        W26384  42.505   9.216   0.284
62628W        W26385  20.168   2.343   2.806
62629W        W26386  41.876  36.054  10.535
62630W        W26387  10.799  35.003  12.995
62631W        W26388  42.413   3.364  11.584
62632W        W26389  22.695  10.679   3.211
62633W        W26390  19.566  40.414   1.362
62634W        W26391   9.768  24.556  14.808
62635W        W26392  12.613   6.721  12.015
62636W        W26393  41.982   4.733  14.875
62637W        W26394  26.568   6.814   2.370
62638W        W26395  18.225  40.009   2.902
62639W        W26396  18.772  13.150  13.374
62640W        W26397  42.326  34.490  14.790
62641W        W26398  30.912  37.085  12.370
62642W        W26399  29.522   9.191  14.986
62643W        W26400  31.993   6.861   4.240
62644W        W26401   9.881   1.460   2.677
62645W        W26402  32.412  30.592  14.306
62646W        W26403  39.333  12.185   3.668
62647W        W26404  22.505  33.521  12.887
62648W        W26405   1.809  10.810  11.590
62649W        W26406  44.403  24.120   4.113
62650W        W26407  39.031  18.248   2.279
62651W        W26408   4.698  21.521   0.360
62652W        W26409  34.498  16.268   3.280
62653W        W26410  40.326  35.514  10.423
62654W        W26411  43.005  41.448   0.280
62655W        W26412  28.624  44.873   0.837
62656W        W26413  35.078  36.444   0.807
62657W        W26414  16.217  24.158  11.034
62658W        W26415  17.065  34.452   3.349
62659W        W26416  20.742  25.026  14.866
62660W        W26417  26.989  16.316  13.493
62661W        W26418  33.926  20.739  12.949
62662W        W26419  36.497  27.979  12.923
62663W        W26420  28.034  38.488  13.806
62664W        W26421  27.517  34.519   4.767
62665W        W26422   2.757   0.383   3.258
62666W        W26423  29.954  18.141   4.121
62667W        W26424   4.275  38.999  14.992
62668W        W26425   1.323  44.976  14.790
62669W        W26426  43.326  11.215   1.434
62670W        W26427   5.323  28.477   3.736
62671W        W26428   8.368  38.887   3.187
62672W        W26429  32.974   2.435  14.001
62673W        W26430  44.462  37.958  13.871
62674W        W26431   7.392  33.601  13.829
62675W        W26432  15.286  15.113  11.051
62676W        W26433   9.232   5.841   2.216
62677W        W26434  10.707   8.700  13.311
62678W        W26435  42.526  44.325   1.776
62679W        W26436  32.043  38.906   4.689
62680W        W26437  21.017  15.147  12.946
62681W        W26438   9.354   0.878  13.961
62682W        W26439  28.447  37.564   1.885
62683W        W26440  28.000  28.141   2.190
62684W        W26441  21.594  28.183  14.493
62685W        W26442  14.789  28.570   4.166
62686W        W26443  21.257  22.645   2.311
62687W        W26444  20.557   4.400  12.068
62688W        W26445  36.538  36.422   3.835
62689W        W26446  28.016  35.546  14.362
62690W        W26447  43.363  32.626  12.996
62691W        W26448  10.299  16.755  13.540
62692W        W26449  12.130  29.589   3.276
62693W        W26450  27.676  22.546   9.557
62694W        W26451   2.884  40.973   0.459
62695W        W26452   0.876  13.797  14.429
62696W        W26453  36.871  37.351  11.436
62697W        W26454  12.792  29.453   2.899
62698W        W26455  20.195   8.345   4.660
62699W        W26456   0.353  38.567  10.918
62700W        W26457  42.459  36.409  11.121
62701W        W26458  29.963  33.429  11.451
62702W        W26459  16.616  40.345   3.327
62703W        W26460   3.831   1.953   3.200
62704W        W26461  18.067  18.137   2.736
62705W        W26462  18.714  22.253  10.428
62706W        W26463   5.737  23.171   4.146
62707W        W26464  23.197  31.594   4.818
62708W        W26465  40.834  39.480  10.525
62709W        W26466  44.845  37.499   1.440
62710W        W26467  42.346  41.892  13.426
62711W        W26468  19.709  41.798   2.415
62712W        W26469  38.836  23.654  14.324
62713W        W26470  10.669  31.949  12.936
62714W        W26471   9.687   9.341  12.489
62715W        W26472  30.064  26.632   4.238
62716W        W26473  32.637  13.308   4.132
62717W        W26474   0.364  15.306  12.963
62718W        W26475  31.061   7.401   2.667
62719W        W26476  22.511  14.226  13.532
62720W        W26477  18.730  32.494   3.193
62721W        W26478  24.594  42.383  13.394
62722W        W26479   0.909  16.173  11.373
62723W        W26480   1.288   5.306  12.947
62724W        W26481  35.543  22.583   2.325
62725W        W26482  24.167  22.619   1.906
62726W        W26483  17.612  38.397  11.457
62727W        W26484  40.992  26.636  14.887
62728W        W26485  44.322  27.144  14.322
62729W        W26486  40.025  44.850  12.901
62730W        W26487   7.889   2.810  13.313
62731W        W26488  41.334  17.096   0.807
62732W        W26489  28.986  41.407  14.475
62733W        W26490  42.841  30.471  14.007
62734W        W26491  30.654  39.536  12.973
62735W        W26492  11.672   1.972  11.939
62736W        W26493  41.474   4.852   2.195
62737W        W26494   3.932   1.955   3.813
62738W        W26495  35.574  31.550  11.533
62739W        W26496  36.480  26.575  14.767
62740W        W26497  21.520  16.772   4.831
62741W        W26498  31.591  11.633  12.396
62742W        W26499  33.106  31.583   2.847
62743W        W26500  19.548  39.011   4.264
62744W        W26501  28.511  15.702   4.690
62745W        W26502  35.897  27.990  10.931
62746W        W26503  44.848  41.909   2.383
62747W        W26504  26.581   9.380   4.223
62748W        W26505   5.838  14.695   2.358
62749W        W26506   1.428  15.198  10.947
62750W        W26507   1.766  31.614   0.885
62751W        W26508  17.306  41.881  10.508
62752W        W26509   4.919   3.235  14.778
62753W        W26510  25.516  19.563   3.782
62754W        W26511   0.300  14.659  13.811
62755W        W26512   4.852  27.450   3.242
62756W        W26513   1.314   0.289   1.825
62757W        W26514  15.102  32.983   3.191
62758W        W26515  23.124  17.111  13.012
62759W        W26516  41.334  23.053  12.925
62760W        W26517  36.982  23.520  11.043
62761W        W26518  43.930  13.258   3.201
62762W        W26519  35.941  10.704   3.195
62763W        W26520   1.249  36.946   0.928
62764W        W26521  16.160  32.937  13.955
62765W        W26522  24.206  15.677   2.249
62766W        W26523  20.624  36.046   3.852
62767W        W26524  41.861  30.977   3.281
62768W        W26525  13.287  44.449  13.881
62769W        W26526  30.651  40.533  10.579
62770W        W26527  10.336  21.056  12.971
62771W        W26528  24.561  23.660  12.991
62772W        W26529  37.347   7.722  14.873
62773W        W26530   3.792  22.707  12.084
62774W        W26531  32.087  28.115   1.904
62775W        W26532  39.958  22.229  14.782
62776W        W26533  14.695  13.144   0.767
62777W        W26534  33.034   3.744   0.401
62778W        W26535  34.593  44.904  11.996
62779W        W26536  29.028  30.487   3.246
62780W        W26537   2.459   6.811   2.758
62781W        W26538  29.571  33.393  14.426
62782W        W26539  44.876  12.210   1.277
62783W        W26540   2.233  31.970  13.025
62784W        W26541  38.475   1.258  13.831
62785W        W26542  43.917  16.249   3.244
62786W        W26543  18.140  32.918   3.156
62787W        W26544   8.171   9.184  12.899
62788W        W26545  29.050  10.685  12.928
62789W        W26546  25.569  16.234   1.234
62790W        W26547   9.714  28.940  11.018
62791W        W26548  43.312   6.923  14.864
62792W        W26549  30.427  28.140  12.916
62793W        W26550  38.493   6.275  10.414
62794W        W26551  22.109  34.608   2.183
62795W        W26552  40.383   5.800  14.447
62796W        W26553  30.097  36.520  14.767
62797W        W26554  16.566  43.399   4.240
62798W        W26555  36.567  17.565   3.360
62799W        W26556  29.124  16.711   5.318
62800W        W26557  20.072  33.063   2.887
62801W        W26558  28.569  22.088   4.152
62802W        W26559  38.050  44.347  10.950
62803W        W26560  16.249  44.453  14.476
62804W        W26561  17.162  35.946   1.694
62805W        W26562  23.089  30.069  11.528
62806W        W26563   3.264   1.761  10.575
62807W        W26564  28.138  31.113   3.699
62808W        W26565   2.369   0.871   0.880
62809W        W26566  34.413   4.757   4.256
62810W        W26567  11.160   1.463   1.932
62811W        W26568  39.995  29.511  10.929
62812W        W26569  34.925   0.311   2.371
62813W        W26570   1.319  44.336   3.177
62814W        W26571  36.984  18.686  13.362
62815W        W26572  23.053   6.373   2.757
62816W        W26573  25.621   5.302  14.902
62817W        W26574  13.815  25.631  12.485
62818W        W26575  29.599  36.587   2.719
62819W        W26576   2.453  34.898  12.482
62820W        W26577  29.016  14.211  10.595
62821W        W26578  20.542  32.525  12.049
62822W        W26579  21.181  22.603   4.153
62823W        W26580   0.250   0.851   3.669
62824W        W26581  42.795  21.577  10.455
62825W        W26582  44.967   4.206  14.988
62826W        W26583  38.472   1.393  12.389
62827W        W26584  20.078   5.346   2.683
62828W        W26585  25.011  13.240  13.889
62829W        W26586  36.374  33.076  11.459
62830W        W26587  15.163  37.994   2.377
62831W        W26588  34.489  37.443  10.089
62832W        W26589  30.463  26.085  13.326
62833W        W26590  16.095  30.566   2.707
62834W        W26591  25.070  14.164   0.859
62835W        W26592  41.366  22.177   1.922
62836W        W26593  29.529  12.734   1.772
62837W        W26594  36.384  14.822   2.856
62838W        W26595  38.859  15.089  10.431
62839W        W26596   4.922  41.473   2.743
62840W        W26597  25.688  30.910  12.008
62841W        W26598  20.216  19.691  10.449
62842W        W26599  32.529   8.185  14.876
62843W        W26600   7.820  20.190   0.443
62844W        W26601   3.268  34.473   0.268
62845W        W26602  19.752  38.008  11.889
62846W        W26603  35.580  29.924   9.942
62847W        W26604  17.094  12.673   0.437
62848W        W26605   2.361  42.024  14.304
62849W        W26606   1.404  36.942  14.276
62850W        W26607   4.883   9.714   2.301
62851W        W26608  40.971  13.803  12.955
62852W        W26609  44.324  34.100   1.740
62853W        W26610  44.340   5.408  13.488
62854W        W26611  38.849   9.188   2.775
62855W        W26612   5.823  35.910  13.043
62856W        W26613  28.143   9.801   4.756
62857W        W26614  15.175  27.547  12.381
62858W        W26615   6.362  17.619   5.708
62859W        W26616  25.667  34.489  14.453
62860W        W26617  19.149  11.723  14.809
62861W        W26618  32.921  28.481  13.507
62862W        W26619  18.213  28.020   3.232
62863W        W26620  29.644  37.853  11.100
62864W        W26621  37.421  35.473   0.882
62865W        W26622  30.650  19.537   2.689
62866W        W26623   8.832  39.516  11.608
62867W        W26624  10.269  34.950  12.403
62868W        W26625  32.470  18.164   2.188
62869W        W26626  19.626  22.558   1.747
62870W        W26627  19.150  24.546   4.673
62871W        W26628  42.810  22.200  12.048
62872W        W26629  28.069  12.356   2.837
62873W        W26630  12.666  43.443  13.354
62874W        W26631  25.664   5.252  14.377
62875W        W26632   1.961   1.742   0.879
62876W        W26633  33.580  11.330   0.408
62877W        W26634  13.816  34.438  12.442
62878W        W26635  41.312  23.692  10.406
62879W        W26636  36.578  29.967  10.513
62880W        W26637  10.310  20.703  11.087
62881W        W26638   8.272   0.482   4.818
62882W        W26639  26.680  38.408   4.291
62883W        W26640  32.992   5.909  11.377
62884W        W26641  42.893  34.071  14.300
62885W        W26642  34.413  29.943   0.761
62886W        W26643   6.194  35.439   2.228
62887W        W26644  27.117   1.239  14.376
62888W        W26645  13.147  26.686  14.400
62889W        W26646  40.954   4.941  12.087
62890W        W26647   0.316  28.087  13.472
62891W        W26648  13.826  14.649   1.420
62892W        W26649  41.972  38.561   4.231
62893W        W26650  17.091  42.471  10.916
62894W        W26651  26.092  21.744   1.420
62895W        W26652   6.878   2.764   4.770
62896W        W26653   3.262  19.736   4.247
62897W        W26654  27.153  30.584  12.002
62898W        W26655   9.215   7.339  13.903
62899W        W26656  28.467  15.144   3.720
62900W        W26657  10.380  10.171  13.523
62901W        W26658  18.240  35.993   0.891
62902W        W26659  16.675  14.724   0.351
62903W        W26660  39.409  17.689   1.421
62904W        W26661  28.138  25.996  12.881
62905W        W26662  36.409  15.772  12.980
62906W        W26663  27.681  34.942  13.885
62907W        W26664  29.490  24.581  14.509
62908W        W26665  21.245  30.159  13.955
62909W        W26666  34.958  11.150   2.711
62910W        W26667  12.856   3.942   1.859
62911W        W26668  12.289  11.334   3.681
62912W        W26669  16.237   9.154   1.296
62913W        W26670  29.150  26.483  14.513
62914W        W26671  29.548  18.131  14.990
62915W        W26672  41.338   5.913   2.319
62916W        W26673  42.302  32.465   3.856
62917W        W26674  24.224  21.641  11.986
62918W        W26675  33.103   3.801  11.539
62919W        W26676  18.774  13.803  14.330
62920W        W26677  30.992  12.682  10.126
62921W        W26678   0.379  42.802   0.467
62922W        W26679  11.683   4.743  11.048
62923W        W26680   3.894  32.904  14.460
62924W        W26681  37.871  22.673   2.663
62925W        W26682  43.858  18.578  13.940
62926W        W26683  26.153  23.149  10.976
62927W        W26684  21.548  31.587  10.591
62928W        W26685   3.903  15.187   2.858
62929W        W26686  42.028  38.064   0.879
62930W        W26687  29.542  13.704   0.938
62931W        W26688   7.177  27.981   1.411
62932W        W26689  12.255  28.985  12.906
62933W        W26690  20.594  13.667   5.660
62934W        W26691  12.675  31.469   4.619
62935W        W26692  37.057  41.030   3.652
62936W        W26693  25.213  15.632   3.274
62937W        W26694  20.169   7.887  11.925
62938W        W26695  32.597  11.250  13.533
62939W        W26696  17.266  33.615  12.042
62940W        W26697  16.671   5.265  13.881
62941W        W26698   0.419  35.379  14.898
62942W        W26699  34.438   7.836   3.798
62943W        W26700  36.055  19.262  13.381
62944W        W26701  24.993  37.538   1.854
62945W        W26702  30.958   9.366   3.272
62946W        W26703  13.822  19.145   2.749
62947W        W26704  21.570   4.701   2.318
62948W        W26705   9.257  29.518  11.395
62949W        W26706  35.042  11.256   0.758
62950W        W26707  43.359  33.621  13.537
62951W        W26708  18.675  22.739   4.647
62952W        W26709  36.884   5.786   2.179
62953W        W26710  16.746  36.390  13.004
62954W        W26711  18.057  19.576   0.295
62955W        W26712   7.684  21.257  10.913
62956W        W26713   8.873   0.288   3.187
62957W        W26714  28.537   4.781  14.993
62958W        W26715  10.168  34.915   0.297
62959W        W26716  25.484  42.791  14.904
62960W        W26717   6.870  14.621  14.439
62961W        W26718  11.800   6.803  10.531
62962W        W26719  28.055  11.230   1.829
62963W        W26720  14.673  31.988  12.061
62964W        W26721  12.353  38.518  13.385
62965W        W26722  35.461  43.390   2.754
62966W        W26723  41.856  39.027   2.837
62967W        W26724  13.634  40.914   2.232
62968W        W26725   8.856  20.742  11.120
62969W        W26726  37.437  33.475  12.014
62970W        W26727  19.266   8.222  11.612
62971W        W26728  44.887   7.774   2.838
62972W        W26729  15.667  10.776   4.681
62973W        W26730   9.843  39.015  14.004
62974W        W26731  41.787  43.404  14.780
62975W        W26732  26.568   7.286  12.037
62976W        W26733  16.072  29.570  14.936
62977W        W26734  33.034  39.949  12.351
62978W        W26735  38.976  23.231   3.148
62979W        W26736  22.701  20.665  11.554
62980W        W26737  15.207  16.583   1.763
62981W        W26738  39.044   6.757   2.682
62982W        W26739  41.346  38.977  14.386
62983W        W26740  33.502  10.731   1.780
62984W        W26741  27.505   6.776   2.738
62985W        W26742  38.529  37.043   2.804
62986W        W26743   9.207  29.540   3.270
62987W        W26744  41.887  30.430  13.317
62988W        W26745   1.258  38.954  11.439
62989W        W26746  13.830  39.900   4.705
62990W        W26747  42.282   6.694   2.851
62991W        W26748  18.132   3.916  10.987
62992W        W26749  20.525  22.023   0.909
62993W        W26750  12.752   3.402   4.187
62994W        W26751  35.920  21.645  10.982
62995W        W26752  20.158  20.078  13.974
62996W        W26753  40.453   3.903  12.945
62997W        W26754  32.958  40.391  13.014
62998W        W26755  44.270  38.367  10.586
62999W        W26756   6.899   7.248   2.292
63000W        W26757  29.437  28.479   3.317
63001W        W26758   0.250  41.343  12.354
63002W        W26759   4.790  19.550   1.836
63003W        W26760  38.471  24.510   2.225
63004W        W26761  16.294  16.787  12.956
63005W        W26762   0.853  13.117   4.772
63006W        W26763   3.817  28.949   3.753
63007W        W26764  44.497  23.618  12.031
63008W        W26765   8.697  40.873   1.352
63009W        W26766   3.412  33.963  12.850
63010W        W26767  25.160   7.750   4.236
63011W        W26768  31.537   9.759  11.521
63012W        W26769   3.925  36.070   4.598
63013W        W26770  10.338  32.514  12.570
63014W        W26771  44.935  33.518   3.185
63015W        W26772  32.943  12.694  11.005
63016W        W26773  42.797   7.352   2.861
63017W        W26774  15.171  40.877   1.894
63018W        W26775  10.172   4.762  13.843
63019W        W26776  22.564  43.508  12.540
63020W        W26777  12.310  14.135  11.571
63021W        W26778  25.620  29.524   0.827
63022W        W26779  21.062   4.249  14.313
63023W        W26780  25.010  13.668   0.824
63024W        W26781  21.250  18.750   4.817
63025W        W26782  34.876  18.135  14.995
63026W        W26783  21.062  11.256   0.797
63027W        W26784   4.295  19.281   0.967
63028W        W26785  19.720   4.263   2.855
63029W        W26786  18.271  32.551  11.478
63030W        W26787   9.849  15.626   0.453
63031W        W26788  38.456   6.705  11.918
63032W        W26789  27.130   4.395   4.746
63033W        W26790  39.327  12.169  14.514
63034W        W26791   3.950  19.186   1.817
63035W        W26792   4.830  24.672   4.805
63036W        W26793  43.441  36.925  13.813
63037W        W26794   7.881  28.143  13.840
63038W        W26795  35.887  20.235   0.900
63039W        W26796   0.387  32.115   4.785
63040W        W26797  24.998  43.277   0.440
63041W        W26798  38.987  23.169   0.462
63042W        W26799  32.565  41.021  11.457
63043W        W26800  11.277  33.926  13.044
63044W        W26801  27.662   7.388  11.395
63045W        W26802  35.935  20.564  14.369
63046W        W26803  29.665  41.821   0.415
63047W        W26804  38.009  25.627   2.194
63048W        W26805  22.601  19.149  10.525
63049W        W26806  27.140  15.764   0.256
63050W        W26807  16.146  43.495   2.738
63051W        W26808   5.221  39.529  14.778
63052W        W26809  33.615  40.419   1.227
63053W        W26810  33.111  13.227   4.306
63054W        W26811  27.487   5.355  13.940
63055W        W26812  12.355  37.522   2.308
63056W        W26813  40.050  32.428   3.219
63057W        W26814  25.074  25.524  14.367
63058W        W26815  19.142  21.228   0.314
63059W        W26816   0.945  23.241   4.244
63060W        W26817  31.965  32.522  13.925
63061W        W26818  11.683  15.252   3.679
63062W        W26819  14.820   8.173   3.870
63063W        W26820  20.598  22.126  12.537
63064W        W26821   6.734  23.584  12.990
63065W        W26822  18.113  27.471  13.458
63066W        W26823  44.789   4.398  10.485
63067W        W26824  35.555  33.588   4.756
63068W        W26825  32.399  21.600   3.232
63069W        W26826   9.834  40.320  10.914
63070W        W26827  17.253   2.961  11.940
63071W        W26828  32.412  26.154  11.970
63072W        W26829  38.884  24.069   4.200
63073W        W26830   6.315  37.006   1.838
63074W        W26831  19.625  16.773   1.231
63075W        W26832   8.340  33.460  11.544
63076W        W26833  30.920  22.042   3.297
63077W        W26834  40.999  33.603   4.165
63078W        W26835  23.093  44.967   1.853
63079W        W26836   2.304  42.308  13.306
63080W        W26837  40.332  21.258   0.753
63081W        W26838  18.092  34.108   4.726
63082W        W26839  13.331  24.674  11.447
63083W        W26840  14.730  19.626   1.306
63084W        W26841  36.503   5.350  13.325
63085W        W26842   1.735  32.956   4.171
63086W        W26843  10.355  44.282   0.871
63087W        W26844  21.055  42.494  11.087
63088W        W26845  27.107   9.672   3.866
63089W        W26846  28.059  20.691   2.897
63090W        W26847  23.664  20.228  13.400
63091W        W26848  13.823  22.193  12.478
63092W        W26849  29.946  38.910   3.804
63093W        W26850  33.113  28.135   1.829
63094W        W26851  20.529  35.423  10.564
63095W        W26852  42.021  26.101  10.416
63096W        W26853  12.254  23.088  13.063
63097W        W26854  34.470   1.812  13.898
63098W        W26855  11.167  15.796  12.357
63099W        W26856  38.919  18.224  14.329
63100W        W26857   7.361   6.256   2.305
63101W        W26858   9.315  22.070  10.474
63102W        W26859   0.867   2.407  12.367
63103W        W26860   6.294  41.525  13.547
63104W        W26861  33.994  44.790   3.335
63105W        W26862  33.124  21.601   2.272
63106W        W26863  38.073  43.269  12.481
63107W        W26864  17.668  33.607  13.441
63108W        W26865  33.488  24.711  10.406
63109W        W26866  15.233   4.389   3.803
63110W        W26867  16.664  41.893   2.289
63111W        W26868  24.214  37.448   1.820
63112W        W26869  23.209   3.456   3.156
63113W        W26870   9.363   7.786  11.508
63114W        W26871  11.750  28.438  11.589
63115W        W26872   6.778  14.105  13.332
63116W        W26873  22.023   9.717  13.363
63117W        W26874  31.913   1.908   5.165
63118W        W26875  22.202  12.826   1.900
63119W        W26876  14.317  22.039  12.556
63120W        W26877  40.821  14.770  13.430
63121W        W26878  31.463  18.553   4.214
63122W        W26879   2.906  23.535  12.054
63123W        W26880  30.477  18.254   1.747
63124W        W26881  34.114   6.808   2.310
63125W        W26882  25.207  29.094   3.344
63126W        W26883   3.871  13.181   3.305
63127W        W26884  10.238   8.200  11.047
63128W        W26885  21.633  43.866  14.465
63129W        W26886   3.364  15.797   1.766
63130W        W26887  25.508  16.078   4.247
63131W        W26888  21.683   4.846   0.840
63132W        W26889  22.546  15.793  11.973
63133W        W26890  24.509  42.299  10.638
63134W        W26891  28.010  25.116   4.321
63135W        W26892  43.918  36.978  10.476
63136W        W26893  34.063  17.231   4.626
63137W        W26894  12.236  22.150  12.371
63138W        W26895  21.082  21.648   3.353
63139W        W26896  40.029  25.049   1.898
63140W        W26897  20.594  44.435  12.414
63141W        W26898   8.775   9.211   3.177
63142W        W26899   9.646   5.880   2.189
63143W        W26900   4.370  35.085  14.860
63144W        W26901   8.667  31.093  10.424
63145W        W26902   9.327  14.782   3.259
63146W        W26903  11.751  37.486   2.239
63147W        W26904  17.117  17.787  10.480
63148W        W26905  38.485  36.848  12.903
63149W        W26906  26.176  21.191   3.307
63150W        W26907  37.394  33.460   1.705
63151W        W26908  43.461   9.781   2.679
63152W        W26909   9.713  38.054  11.500
63153W        W26910  36.527   2.858   1.781
63154W        W26911  34.008  28.028  13.441
63155W        W26912  23.213  32.394  11.031
63156W        W26913  17.288  28.070   3.281
63157W        W26914  24.718  33.013  13.816
63158W        W26915  37.044  23.161   3.238
63159W        W26916  23.673  43.455  10.508
63160W        W26917  32.072  18.275  14.949
63161W        W26918  37.054  24.480  10.551
63162W        W26919  26.490   5.906  11.605
63163W        W26920  33.406  16.241   3.212
63164W        W26921  38.338  10.688  11.866
63165W        W26922  29.623  13.151  13.862
63166W        W26923   3.786  27.636  12.990
63167W        W26924   7.296  22.185  13.333
63168W        W26925  23.229  28.510  12.078
63169W        W26926  36.504   7.798  10.529
63170W        W26927   2.453   0.927   4.260
63171W        W26928  33.556  38.010  12.845
63172W        W26929  29.503  32.442  10.620
63173W        W26930  33.014  42.303  11.059
63174W        W26931  14.270  42.308  13.846
63175W        W26932  26.580  23.200   3.347
63176W        W26933   9.815  24.018   3.176
63177W        W26934  19.272  39.433   4.619
63178W        W26935   7.806  23.210  14.944
63179W        W26936  22.999  13.759  10.614
63180W        W26937  22.715   2.921  13.819
63181W        W26938   8.236  23.139   1.360
63182W        W26939  26.524  14.613  13.050
63183W        W26940   7.776  19.239  13.003
63184W        W26941  38.849  18.689  12.061
63185W        W26942  24.622  23.200  14.341
63186W        W26943  38.476  20.679   3.663
63187W        W26944  21.125  25.691   4.627
63188W        W26945  43.446  20.763   2.181
63189W        W26946   3.771   6.690   1.329
63190W        W26947  44.274  12.769   0.765
63191W        W26948  14.320  33.982   1.376
63192W        W26949   2.767   9.186   3.682
63193W        W26950  26.980   3.372   5.259
63194W        W26951  42.896  18.174   1.408
63195W        W26952  41.930   4.883   1.871
63196W        W26953   6.182  23.580   5.233
63197W        W26954  26.075  42.959  11.050
63198W        W26955  37.863  30.911  11.948
63199W        W26956  27.624  42.354  10.931
63200W        W26957  11.257   9.727  13.888
63201W        W26958  32.438  37.347   3.833
63202W        W26959  24.157  36.515   2.747
63203W        W26960  17.777  22.151   0.313
63204W        W26961  19.128   5.194  11.577
63205W        W26962  34.577  26.019   3.758
63206W        W26963  22.209  43.933  11.118
63207W        W26964   3.246  11.256   4.239
63208W        W26965   9.826  11.673  12.404
63209W        W26966  12.266  10.206   1.812
63210W        W26967  28.163  41.382  14.389
63211W        W26968  27.622  20.209  14.389
63212W        W26969   2.753   5.306   1.271
63213W        W26970   2.905  13.189  12.997
63214W        W26971   2.958   6.802   4.785
63215W        W26972  17.282  44.275  12.491
63216W        W26973  23.713  37.362   1.391
63217W        W26974  43.943  44.482   3.695
63218W        W26975  37.081  33.520  14.851
63219W        W26976  26.477  41.348   0.452
63220W        W26977   3.272  38.909  14.807
63221W        W26978  13.689  35.899  12.970
63222W        W26979  35.917  42.813  14.814
63223W        W26980  19.683  31.584  10.520
63224W        W26981   7.799   9.210  13.949
63225W        W26982   1.765  30.145  11.946
63226W        W26983  25.055   4.735   2.688
63227W        W26984  20.208  26.637  11.578
63228W        W26985   7.844   6.359   2.237
63229W        W26986  20.623   6.296   3.734
63230W        W26987  43.955  15.258  14.764
63231W        W26988  41.359  12.338  12.569
63232W        W26989  23.655   1.739  10.493
63233W        W26990  36.896  31.640   1.358
63234W        W26991   2.906  18.706  13.338
63235W        W26992  23.079   2.287   2.785
63236W        W26993  39.996   9.805  11.866
63237W        W26994  10.325  38.967   5.296
63238W        W26995  37.542   5.241  14.764
63239W        W26996  39.531   2.848  12.471
63240W        W26997  14.648  22.553   0.851
63241W        W26998   0.946   0.822  12.942
63242W        W26999  28.040  34.049   0.463
63243W        W27000  11.184  38.000   4.206
63244W        W27001   5.262  36.587  11.491
63245W        W27002  36.901   5.901  14.875
63246W        W27003  14.304  18.666  12.977
63247W        W27004  16.193  43.981   5.311
63248W        W27005  28.937  42.449  12.517
63249W        W27006  33.514  24.703  13.325
63250W        W27007  37.836  36.879  12.550
63251W        W27008  40.481  16.582  14.006
63252W        W27009   2.869   4.204   3.159
63253W        W27010   3.454  33.397   2.201
63254W        W27011  11.769  31.507  12.956
63255W        W27012  17.790  42.019  11.035
63256W        W27013  26.105  35.521   4.720
63257W        W27014   9.217  26.670  14.409
63258W        W27015   1.914  20.741  14.447
63259W        W27016  36.935  27.143  11.423
63260W        W27017  42.905  44.985  14.401
63261W        W27018  19.069  30.561   0.934
63262W        W27019  34.044  39.499   2.884
63263W        W27020  29.435  30.648   2.682
63264W        W27021  19.076  32.906   4.678
63265W        W27022   9.186   1.861   2.753
63266W        W27023  12.295  37.495   9.993
63267W        W27024   9.660  12.808  13.842
63268W        W27025  19.558  31.599   2.740
63269W        W27026  19.645  13.130   3.856
63270W        W27027  28.106   7.390  12.866
63271W        W27028  39.926   2.926   4.245
63272W        W27029  39.405  26.499  10.634
63273W        W27030   6.193  26.966  10.595
63274W        W27031  14.670  16.646   0.459
63275W        W27032  24.529   0.893  10.913
63276W        W27033  33.467  24.024  14.900
63277W        W27034  42.017  33.995   2.410
63278W        W27035  24.694  14.215  13.012
63279W        W27036  38.847   3.772  13.380
63280W        W27037   4.784   2.289   4.750
63281W        W27038  14.752  30.002  13.900
63282W        W27039  33.991  11.843   2.841
63283W        W27040  22.197  43.384  13.429
63284W        W27041  35.424  15.728   0.880
63285W        W27042  20.696   1.784  11.418
63286W        W27043  26.104  12.173  13.893
63287W        W27044  35.435  31.994   3.171
63288W        W27045   9.309  28.494   0.771
63289W        W27046  40.373  32.065  14.496
63290W        W27047  13.672  41.452   0.781
63291W        W27048  12.252  39.485  13.999
63292W        W27049  19.651  41.968  10.904
63293W        W27050  18.566   7.211   2.671
63294W        W27051  37.982  41.044   3.334
63295W        W27052  22.125  38.405   2.857
63296W        W27053  13.707  10.848  14.860
63297W        W27054  29.987  18.231  11.473
63298W        W27055  29.451  35.068  13.536
63299W        W27056   7.728   5.410  10.580
63300W        W27057  30.111  23.104   0.346
63301W        W27058   0.957  24.631  10.506
63302W        W27059   3.911  11.799   0.897
63303W        W27060   3.221  32.917   1.695
63304W        W27061  14.709  14.639   2.712
63305W        W27062  30.426   8.659  12.996
63306W        W27063  12.224  41.353   0.417
63307W        W27064  36.019   2.383  13.855
63308W        W27065  26.048  14.287  11.979
63309W        W27066  14.688  42.919   2.713
63310W        W27067  28.984  15.092  14.413
63311W        W27068  26.132   5.334   3.182
63312W        W27069  19.204  43.333  13.465
63313W        W27070   8.315  44.376   1.246
63314W        W27071   7.724   6.413   3.372
63315W        W27072  35.935  29.942  12.996
63316W        W27073  44.442  19.606  10.422
63317W        W27074  41.359  12.122   4.159
63318W        W27075  38.048  36.084  11.006
63319W        W27076  22.024  24.588  12.347
63320W        W27077  36.446  43.866   4.694
63321W        W27078  28.169  36.427   5.180
63322W        W27079  16.573  16.586  14.455
63323W        W27080   0.480  20.187  10.961
63324W        W27081   3.244  22.616   4.271
63325W        W27082   5.249  29.100   4.663
63326W        W27083  30.435   8.757  13.396
63327W        W27084  14.643   3.835  14.976
63328W        W27085  33.413  30.448  13.873
63329W        W27086  38.996  17.555  10.962
63330W        W27087  15.777  34.527  14.808
63331W        W27088  43.391  25.011  12.826
63332W        W27089  19.736  32.047  10.953
63333W        W27090  38.887  30.508   1.733
63334W        W27091  12.671  26.675   2.242
63335W        W27092  40.479  10.688   0.889
63336W        W27093   6.824  18.549  13.398
63337W        W27094  10.654  18.595  12.352
63338W        W27095  27.504   4.736  12.368
63339W        W27096  33.092  29.918   4.246
63340W        W27097  28.591  32.512   3.768
63341W        W27098   2.425  35.455   1.787
63342W        W27099  13.135  34.877  11.598
63343W        W27100  22.586  44.778  13.487
63344W        W27101  43.296   0.874   4.665
63345W        W27102  10.147  17.204  13.817
63346W        W27103  31.595  42.332   4.287
63347W        W27104   7.331   0.474  10.569
63348W        W27105   9.701  24.068  13.801
63349W        W27106  41.878   1.798   2.354
63350W        W27107  35.881  21.225   3.326
63351W        W27108   8.847   8.684  12.373
63352W        W27109  27.036  42.404   1.429
63353W        W27110  24.112  39.932   1.875
63354W        W27111  39.411  39.990  11.855
63355W        W27112  14.271  36.429   3.151
63356W        W27113  25.999  30.979   4.256
63357W        W27114  44.416  42.828   0.450
63358W        W27115   6.748  42.893   1.701
63359W        W27116   5.927  33.966   1.877
63360W        W27117  27.115  13.658   2.810
63361W        W27118  34.405  16.228   1.796
63362W        W27119  38.403  44.469  11.927
63363W        W27120  17.308  12.854  13.959
63364W        W27121  13.777  15.682   3.348
63365W        W27122  33.950  18.782  10.429
63366W        W27123   8.849  22.609  14.383
63367W        W27124  16.202  28.078  12.503
63368W        W27125  10.732  12.203  13.387
63369W        W27126  25.481  16.207   2.311
63370W        W27127  33.483  34.389  11.942
63371W        W27128   3.857  12.782  11.092
63372W        W27129   8.235  42.383   1.847
63373W        W27130  16.648  41.301   0.838
63374W        W27131  15.646  12.229  12.984
63375W        W27132  42.807  34.560  11.118
63376W        W27133  41.919  15.790  14.460
63377W        W27134  12.142  30.149  14.465
63378W        W27135  43.512   5.264  13.521
63379W        W27136  32.944   6.841  13.042
63380W        W27137  44.836  25.149   2.199
63381W        W27138  22.710   1.437   3.160
63382W        W27139   7.688  35.854   5.168
63383W        W27140   2.721   6.274  14.395
63384W        W27141   9.775  32.432  13.486
63385W        W27142   3.331  22.112  11.055
63386W        W27143  10.343  44.413   4.653
63387W        W27144  26.643  21.712   9.986
63388W        W27145  44.817  19.640   4.246
63389W        W27146   4.877   6.428   1.932
63390W        W27147  10.273  32.637   4.175
63391W        W27148  37.448  10.315   0.852
63392W        W27149   1.367  19.711  12.938
63393W        W27150  43.918  27.489  10.506
63394W        W27151   3.323  23.660  11.464
63395W        W27152  15.318  38.409  12.910
63396W        W27153  18.651  12.160   1.864
63397W        W27154  21.661  16.700  14.783
63398W        W27155  13.268  14.335  13.013
63399W        W27156   2.330  36.990   1.301
63400W        W27157   9.228  42.919   2.186
63401W        W27158  15.636  33.445   2.863
63402W        W27159  33.017   5.202   1.442
63403W        W27160  26.123  21.650   2.237
63404W        W27161  18.179  41.009   0.923
63405W        W27162  33.980  26.156  14.374
63406W        W27163  34.522  10.305  14.455
63407W        W27164  37.380   4.825   2.692
63408W        W27165   8.191  39.548  13.995
63409W        W27166  36.897  15.818  13.854
63410W        W27167  22.134   5.308  11.428
63411W        W27168  40.858   4.784   4.133
63412W        W27169  16.787  43.767  11.028
63413W        W27170  43.796  14.688   1.386
63414W        W27171  10.144  33.451   2.396
63415W        W27172  18.271  43.480  11.389
63416W        W27173  31.036  12.181  11.541
63417W        W27174  13.113  33.891   2.802
63418W        W27175  38.936   1.883   0.254
63419W        W27176  11.678  12.191  10.561
63420W        W27177  18.778  28.092  13.516
63421W        W27178  44.864  15.254   4.788
63422W        W27179  36.046   4.711   2.695
63423W        W27180  18.215  37.030  12.899
63424W        W27181  28.102  16.281   1.229
63425W        W27182  23.623  23.515   4.658
63426W        W27183  15.614  20.123   0.284
63427W        W27184   2.837  33.610  13.429
63428W        W27185  32.102  21.172   2.737
63429W        W27186  18.606  37.935   0.402
63430W        W27187  42.484   6.733  14.936
63431W        W27188  32.477  35.464   4.296
63432W        W27189  26.640  12.331  14.369
63433W        W27190  44.938   3.746   0.736
63434W        W27191  44.364   1.256   0.779
63435W        W27192  11.327  30.562   2.295
63436W        W27193  11.723  24.591   3.260
63437W        W27194  35.101  25.603   0.433
63438W        W27195  24.685  32.454  14.845
63439W        W27196  17.113  35.031  14.030
63440W        W27197  31.603  26.598  14.930
63441W        W27198  38.835  25.605  12.454
63442W        W27199  23.987   1.912   1.880
63443W        W27200  13.697  38.566  12.517
63444W        W27201  23.217   9.343  10.524
63445W        W27202   8.701  12.699  14.028
63446W        W27203  31.457   6.399  12.439
63447W        W27204  30.101  10.648   4.675
63448W        W27205  25.636  30.007   1.343
63449W        W27206   5.747  19.250  12.917
63450W        W27207  26.157  20.616   5.138
63451W        W27208  17.236  24.089   0.963
63452W        W27209  44.315  31.934  14.784
63453W        W27210  31.062  33.600  12.501
63454W        W27211  43.303  33.483  10.492
63455W        W27212   5.711  34.010  11.541
63456W        W27213  29.093  41.421  13.351
63457W        W27214  38.423   6.224   2.753
63458W        W27215  35.999  11.829  12.894
63459W        W27216  35.025   4.854   1.909
63460W        W27217  25.647  32.440   0.961
63461W        W27218  40.489   3.819  13.416
63462W        W27219  39.389  43.004   4.285
63463W        W27220  14.602  10.359   4.610
63464W        W27221  33.549  25.137   2.781
63465W        W27222  17.701   3.294   1.821
63466W        W27223   4.894  32.465  14.452
63467W        W27224  21.727  32.400   0.939
63468W        W27225  32.025  38.847   2.272
63469W        W27226  14.151  35.897   1.334
63470W        W27227  35.925  44.783   1.314
63471W        W27228  12.127  39.505   0.261
63472W        W27229  12.245  19.660  13.540
63473W        W27230  24.720   0.786  13.382
63474W        W27231  26.152  29.656   0.282
63475W        W27232  37.938   4.406   0.739
63476W        W27233  25.069  17.233   3.300
63477W        W27234   7.214  10.707  14.514
63478W        W27235  11.785  38.424  11.948
63479W        W27236   7.371  30.633   1.881
63480W        W27237  40.822  25.650   2.403
63481W        W27238  36.365  38.902   2.893
63482W        W27239  31.975  30.465   1.821
63483W        W27240  28.013   3.764  13.544
63484W        W27241  18.627  11.678   2.411
63485W        W27242  22.057  32.514  14.280
63486W        W27243  36.908   6.262  12.445
63487W        W27244  23.594  44.497   1.331
63488W        W27245  16.795  37.914   3.754
63489W        W27246  17.149  30.430   2.727
63490W        W27247  35.599  34.893  12.015
63491W        W27248  26.691   8.659  12.572
63492W        W27249   6.401  38.045  10.581
63493W        W27250  18.634  17.592  11.508
63494W        W27251  37.031  32.888   2.665
63495W        W27252  24.133   7.397  12.834
63496W        W27253  42.884  15.767   2.274
63497W        W27254   7.176  15.221  12.993
63498W        W27255  26.585  20.234  14.505
63499W        W27256   3.333  14.296   3.231
63500W        W27257   0.423  14.157  14.017
63501W        W27258  10.662  18.056   2.329
63502W        W27259   4.772  12.345  11.441
63503W        W27260  36.376  40.424   2.891
63504W        W27261  34.434  12.296  14.879
63505W        W27262   6.279  39.886   5.685
63506W        W27263  28.062  33.497  11.119
63507W        W27264  37.401  38.408  12.997
63508W        W27265  44.266  34.518  11.403
63509W        W27266  30.925  10.189   1.894
63510W        W27267  33.502  35.864   0.914
63511W        W27268  33.942  19.582  13.842
63512W        W27269  36.593  32.629  14.797
63513W        W27270  38.858  26.174   0.956
63514W        W27271  41.362  29.555  11.603
63515W        W27272   3.820  12.671  14.961
63516W        W27273  25.508  25.641  12.428
63517W        W27274  12.363  28.668   2.259
63518W        W27275  40.913   2.966   1.780
63519W        W27276  37.891  20.666  13.009
63520W        W27277  15.154  22.701  14.763
63521W        W27278  35.005   8.333  12.912
63522W        W27279  37.994  12.183   2.829
63523W        W27280  23.223   8.390   1.743
63524W        W27281   8.195  24.602  11.931
63525W        W27282  29.437  25.056   5.194
63526W        W27283   0.981  22.607  13.899
63527W        W27284   9.842  11.687  12.891
63528W        W27285   4.408  19.617   3.357
63529W        W27286  27.604   9.828  13.339
63530W        W27287  35.489  39.463  14.448
63531W        W27288  29.974  32.075  11.578
63532W        W27289  34.495  32.926   2.209
63533W        W27290  18.677  14.626   2.262
63534W        W27291  24.062  43.466   4.134
63535W        W27292  44.494  28.519   1.228
63536W        W27293  40.499  27.941  10.569
63537W        W27294  41.949  42.441  13.502
63538W        W27295  30.150  13.146  12.072
63539W        W27296   9.673   5.928  13.313
63540W        W27297  10.183  17.636  10.131
63541W        W27298  35.015   0.324  10.975
63542W        W27299  37.378  28.008   2.685
63543W        W27300  44.451  17.557   2.182
63544W        W27301  21.636  25.179   3.324
63545W        W27302  22.506  37.073   2.346
63546W        W27303  14.235  16.295  10.522
63547W        W27304  23.650  19.671  14.987
63548W        W27305  32.416  16.072   3.809
63549W        W27306  15.321  19.582  11.542
63550W        W27307  23.164  24.230  14.415
63551W        W27308  29.481  34.101   0.251
63552W        W27309   1.329  14.163  13.978
63553W        W27310   3.885  30.571   2.703
63554W        W27311   2.910  36.571  11.538
63555W        W27312   4.360  19.218  13.001
63556W        W27313  13.765   0.803  13.878
63557W        W27314  23.667   7.221  11.388
63558W        W27315   5.394  39.027  11.487
63559W        W27316  15.602  41.505  11.418
63560W        W27317  24.590  38.484  13.952
63561W        W27318  32.437  11.847  14.799
63562W        W27319  35.360   6.876  10.538
63563W        W27320   0.305  31.630   0.246
63564W        W27321  37.007   8.307   2.386
63565W        W27322  33.945  16.593  10.483
63566W        W27323  10.341   7.368   5.186
63567W        W27324  19.752  12.633   5.180
63568W        W27325  37.545  23.182   3.270
63569W        W27326  43.832  12.237  10.554
63570W        W27327  30.108  12.830  10.406
63571W        W27328  23.702   8.696   0.813
63572W        W27329  24.228  30.597   3.784
63573W        W27330  40.433  24.140   1.859
63574W        W27331   4.368   3.284   1.267
63575W        W27332   6.701  13.313   2.752
63576W        W27333   1.263  43.498   1.396
63577W        W27334   4.796  17.703  12.832
63578W        W27335  17.072   8.863   2.222
63579W        W27336  42.423  22.696   1.234
63580W        W27337  42.814   0.314   0.272
63581W        W27338  44.375  19.575   3.198
63582W        W27339  44.260  33.890   1.275
63583W        W27340   6.774  11.247   0.784
63584W        W27341  35.416   4.727  14.032
63585W        W27342   7.303   2.812  14.439
63586W        W27343  21.084  16.668  13.327
63587W        W27344  24.101  28.124   2.742
63588W        W27345   7.670   6.765   1.932
63589W        W27346   9.265  40.469  12.559
63590W        W27347   4.429  24.588  14.028
63591W        W27348  16.780  19.595  12.075
63592W        W27349  27.475  16.587  12.580
63593W        W27350  32.024  28.604   0.450
63594W        W27351  25.170  34.548  11.406
63595W        W27352  44.776   4.747   4.621
63596W        W27353   5.861  44.790  10.126
63597W        W27354   1.770  42.815  11.916
63598W        W27355  26.532  21.597  14.763
63599W        W27356  37.529  20.618   1.893
63600W        W27357  37.995  34.869   4.822
63601W        W27358   0.467  19.262  14.353
63602W        W27359  26.103  27.021  14.395
63603W        W27360  20.736  24.018   0.476
63604W        W27361  44.314  28.626  14.897
63605W        W27362  43.898   8.811  10.406
63606W        W27363  13.617   7.254  10.960
63607W        W27364  14.104  34.502   2.360
63608W        W27365  14.203  31.469  10.972
63609W        W27366  24.150   9.721   3.780
63610W        W27367  27.492  14.316   0.421
63611W        W27368   5.405  31.618   0.262
63612W        W27369   7.782   3.900  10.988
63613W        W27370  19.680   5.819   0.277
63614W        W27371  10.671  15.326   2.891
63615W        W27372  33.485  32.964  10.947
63616W        W27373  10.696  21.243   1.324
63617W        W27374   9.706  35.066  13.818
63618W        W27375  35.496  18.217  10.464
63619W        W27376  44.340  35.979  12.900
63620W        W27377  31.123   8.668  10.088
63621W        W27378   1.441  25.611  10.614
63622W        W27379  31.095   2.888   3.310
63623W        W27380  27.532  28.539   2.348
63624W        W27381   2.385  20.032  13.936
63625W        W27382  33.492  19.226  11.571
63626W        W27383  37.006  21.155   3.633
63627W        W27384   3.945  23.039  11.378
63628W        W27385   9.717  33.382   3.180
63629W        W27386   8.181  32.584   2.197
63630W        W27387   8.658  28.492   3.249
63631W        W27388  26.635   2.356   5.298
63632W        W27389  17.102  20.060   4.275
63633W        W27390  19.183  31.647   3.209
63634W        W27391  37.491  35.040   2.327
63635W        W27392  34.896  40.034  12.978
63636W        W27393   4.724  29.129   0.824
63637W        W27394  11.798  15.697   0.827
63638W        W27395  24.602  28.453   2.807
63639W        W27396  13.282  39.016  14.384
63640W        W27397   8.384  44.977  13.805
63641W        W27398   5.395  44.956   2.853
63642W        W27399   6.333  35.458  12.907
63643W        W27400  17.574   0.777   0.371
63644W        W27401  43.397   6.728   1.918
63645W        W27402   0.343  44.908  13.418
63646W        W27403   5.775  28.587   4.719
63647W        W27404  29.650   3.428   2.828
63648W        W27405  23.059  25.208   3.266
63649W        W27406   6.427   1.785  10.055
63650W        W27407  38.969  40.840   3.190
63651W        W27408   8.655   5.825  11.060
63652W        W27409  32.535  15.771   1.333
63653W        W27410  12.785   8.698   4.272
63654W        W27411  44.931  31.107  11.510
63655W        W27412  19.558  10.274   0.953
63656W        W27413   2.276  37.471   1.447
63657W        W27414   5.388  32.123  13.509
63658W        W27415  13.707  34.983  10.486
63659W        W27416   5.848  13.726   3.380
63660W        W27417  24.654  11.353  13.361
63661W        W27418  21.601  35.444  11.929
63662W        W27419   2.402  17.133  12.962
63663W        W27420  44.270  15.169  14.275
63664W        W27421  38.984  30.647  10.440
63665W        W27422  31.909  32.629  10.456
63666W        W27423  39.418  11.311  13.820
63667W        W27424  21.043  15.686  11.444
63668W        W27425  44.263  27.581   4.631
63669W        W27426  11.171  39.846   3.223
63670W        W27427   3.361  34.882  11.858
63671W        W27428  16.268  14.228   2.372
63672W        W27429   3.931  18.077   1.826
63673W        W27430  10.692  27.630   0.887
63674W        W27431  24.548  27.692  13.035
63675W        W27432  25.172  32.929  13.497
63676W        W27433   6.774   8.669  10.959
63677W        W27434  44.439  32.024  13.493
63678W        W27435  12.126  26.091  13.504
63679W        W27436  38.973  41.897   0.795
63680W        W27437  34.093   5.714   0.285
63681W        W27438  39.325  43.955  12.480
63682W        W27439  18.705   9.312   2.241
63683W        W27440   1.867  21.060   3.252
63684W        W27441  37.375  23.584  11.444
63685W        W27442  31.968   0.981   1.278
63686W        W27443   8.285  37.065   2.214
63687W        W27444  10.662  34.541   3.728
63688W        W27445  10.817  42.971   2.338
63689W        W27446   4.896   1.239   3.845
63690W        W27447  42.798  43.884  14.769
63691W        W27448  21.646  43.910  11.884
63692W        W27449  15.113   5.365   1.856
63693W        W27450   8.316   6.358   1.363
63694W        W27451   7.842  21.669  10.895
63695W        W27452  15.283   3.924   0.279
63696W        W27453  39.990  40.876  13.425
63697W        W27454   9.863  21.212  13.528
63698W        W27455  30.435  19.652  14.782
63699W        W27456  30.505  26.132   4.329
63700W        W27457  30.611  19.282   1.256
63701W        W27458   7.910   0.482  12.021
63702W        W27459   2.826  42.905   3.727
63703W        W27460  21.231   2.247   3.831
63704W        W27461   5.701  22.106   4.637
63705W        W27462  31.426   4.340   2.359
63706W        W27463   4.313  33.504   4.229
63707W        W27464  23.072  28.149  13.320
63708W        W27465  11.129   0.886  11.121
63709W        W27466  25.070  40.548   0.289
63710W        W27467   0.794  33.484   4.122
63711W        W27468  35.473  12.757  10.574
63712W        W27469  14.236  13.347   4.624
63713W        W27470  25.472  44.964  13.964
63714W        W27471  29.103  10.813   4.669
63715W        W27472   4.890  25.134   2.688
63716W        W27473  43.515  29.968  10.959
63717W        W27474   3.728  13.143  10.408
63718W        W27475  41.786  38.032   4.787
63719W        W27476  41.026  26.535   5.081
63720W        W27477   8.247  21.063   1.822
63721W        W27478  39.442  37.465   2.759
63722W        W27479  37.400  14.338  13.372
63723W        W27480  22.557  15.087  12.408
63724W        W27481  43.819  30.505  13.804
63725W        W27482  41.489  27.489  13.433
63726W        W27483  21.613  10.270  13.905
63727W        W27484  31.556  24.591  12.424
63728W        W27485  11.222   8.250   0.392
63729W        W27486  24.682  27.175   3.299
63730W        W27487  29.926  27.078  12.096
63731W        W27488  31.065  14.805   3.291
63732W        W27489   8.812  34.964   3.849
63733W        W27490  32.004  41.953  11.038
63734W        W27491  30.494   6.771  11.982
63735W        W27492  19.679  36.569   1.737
63736W        W27493  35.018  26.089   0.881
63737W        W27494   6.707  34.390   3.828
63738W        W27495  35.092  24.498   3.289
63739W        W27496  33.443  40.029   3.285
63740W        W27497  21.723  38.963  12.395
63741W        W27498  31.914  11.858  14.314
63742W        W27499  12.194   1.260   3.153
63743W        W27500  23.695  30.026  13.406
63744W        W27501  39.809  30.128  10.486
63745W        W27502  40.368  37.496   3.735
63746W        W27503  31.472  42.367   0.864
63747W        W27504  42.493   6.242  11.543
63748W        W27505  21.206   1.251   2.260
63749W        W27506  38.964  41.510  13.883
63750W        W27507  25.108  15.165  13.058
63751W        W27508   9.828  28.949   2.770
63752W        W27509  11.209  10.240   0.408
63753W        W27510  16.095  28.112  12.962
63754W        W27511  20.745  44.887   4.710
63755W        W27512  39.540  35.580   1.438
63756W        W27513   3.434  17.685  12.035
63757W        W27514  14.185  12.648  14.281
63758W        W27515  43.289  14.302   4.832
63759W        W27516  40.962  38.534  12.985
63760W        W27517   6.335  28.121   5.257
63761W        W27518  18.768   5.409  13.900
63762W        W27519  27.451  10.740   2.869
63763W        W27520  20.688  15.589   5.271
63764W        W27521  43.323   8.849  14.838
63765W        W27522  18.683  30.654  12.065
63766W        W27523  11.151  17.782   0.859
63767W        W27524   3.353  14.160   4.238
63768W        W27525  12.188  27.520   3.731
63769W        W27526  12.834  27.636  14.407
63770W        W27527  18.751  39.364  11.539
63771W        W27528  11.743  30.549  12.980
63772W        W27529  22.200  20.185   4.801
63773W        W27530  19.128  12.146  14.362
63774W        W27531  31.921  17.632   1.748
63775W        W27532  17.159  41.385  14.009
63776W        W27533  38.052  14.294  14.403
63777W        W27534  20.594  42.472   0.952
63778W        W27535  20.211   1.747  12.542
63779W        W27536  44.756  41.310  12.549
63780W        W27537  30.046  38.554   1.247
63781W        W27538   8.782  33.075  13.855
63782W        W27539   7.698  35.546  11.861
63783W        W27540   1.276  30.496  10.459
63784W        W27541  32.504  44.356   1.912
63785W        W27542  32.426  24.185   4.652
63786W        W27543  23.582  27.689   0.343
63787W        W27544  13.326   6.286  11.973
63788W        W27545  24.641   8.356   0.414
63789W        W27546  33.081  34.468   2.802
63790W        W27547   2.362   3.293   3.187
63791W        W27548  28.497  25.674   4.713
63792W        W27549  35.083  26.476  13.391
63793W        W27550   9.752  23.047  12.576
63794W        W27551   9.735  18.715   0.784
63795W        W27552  21.175  40.310   4.177
63796W        W27553  16.112  10.819  12.484
63797W        W27554  34.487   0.313  14.516
63798W        W27555  22.615   0.302  12.441
63799W        W27556  27.533  36.546   3.366
63800W        W27557  15.727  37.403  12.055
63801W        W27558  23.720  22.682   9.437
63802W        W27559   4.314  39.956   5.742
63803W        W27560  31.514   5.235  10.998
63804W        W27561  10.675  33.032  11.955
63805W        W27562  28.054  36.927   4.347
63806W        W27563   5.721  21.699   0.281
63807W        W27564  17.133  10.671  13.050
63808W        W27565  14.310  43.992  12.375
63809W        W27566  37.048   4.903   4.692
63810W        W27567   6.413  26.644   2.262
63811W        W27568   6.833  39.490  11.373
63812W        W27569  10.638  15.231   4.745
63813W        W27570  37.462  35.991  10.010
63814W        W27571  19.202  24.705   2.376
63815W        W27572   9.205  41.877  11.995
63816W        W27573   1.779  38.356  11.895
63817W        W27574  21.588  32.123  10.626
63818W        W27575  10.795  30.569   1.826
63819W        W27576  12.223   7.330   2.391
63820W        W27577  12.823  16.091   4.173
63821W        W27578  26.671   2.731   4.718
63822W        W27579  17.259  37.898   2.366
63823W        W27580  28.456  23.050  14.356
63824W        W27581  42.890  14.803   0.463
63825W        W27582  16.197   8.223   4.282
63826W        W27583   5.846  12.762   0.278
63827W        W27584  29.068  13.615   9.956
63828W        W27585  26.569  24.631   0.752
63829W        W27586  31.051  26.040  10.625
63830W        W27587   1.449  32.628  12.555
63831W        W27588  40.800  38.921  11.610
63832W        W27589  19.247   0.918   4.115
63833W        W27590   1.787  16.622   2.872
63834W        W27591  14.768   9.287  14.404
63835W        W27592  26.517  41.879   2.375
63836W        W27593  29.051   6.286  12.564
63837W        W27594  20.209  44.422  13.354
63838W        W27595  25.609   7.303   2.839
63839W        W27596  35.908   1.754   0.478
63840W        W27597  32.637  43.429   2.719
63841W        W27598   0.373  17.221   2.676
63842W        W27599  23.048   4.907   4.826
63843W        W27600  26.031   8.209  11.460
63844W        W27601  44.442  22.505  11.108
63845W        W27602  25.038  42.517  10.969
63846W        W27603  29.950  17.205   0.736
63847W        W27604  22.581  11.363   1.793
63848W        W27605  28.109  14.831  12.341
63849W        W27606  26.596  25.101   0.310
63850W        W27607  27.988   7.237   1.913
63851W        W27608  19.704  22.181   0.242
63852W        W27609  28.669  28.961   3.765
63853W        W27610  44.389  40.872  14.488
63854W        W27611   4.772  11.669   2.881
63855W        W27612  42.897  32.546   3.264
63856W        W27613   5.364  32.464   2.358
63857W        W27614   7.242   6.759  13.390
63858W        W27615  24.557  41.304   1.367
63859W        W27616  40.920  31.985  12.932
63860W        W27617  42.386  36.475   1.811
63861W        W27618  36.401   1.437   3.708
63862W        W27619  16.187  31.062  13.937
63863W        W27620  20.267   3.279   0.840
63864W        W27621  35.529   5.301   4.752
63865W        W27622  15.249  12.835  11.408
63866W        W27623  10.753  29.657   3.326
63867W        W27624  25.013   4.392  11.018
63868W        W27625  29.543  32.440   4.310
63869W        W27626  33.070   2.845  12.925
63870W        W27627  14.636  30.433   0.344
63871W        W27628  39.011  38.834  12.492
63872W        W27629   1.800  29.528  10.460
63873W        W27630  32.982  21.625   1.248
63874W        W27631  13.757  36.406   3.241
63875W        W27632  15.822  37.907  13.532
63876W        W27633  14.099   6.243   0.367
63877W        W27634  42.933  24.663  13.998
63878W        W27635  23.165  17.645  11.882
63879W        W27636  28.146  43.433   3.171
63880W        W27637  26.089  29.577  14.348
63881W        W27638  26.515  27.986  13.986
63882W        W27639  32.906  17.105  14.761
63883W        W27640   3.749  10.192   5.093
63884W        W27641  27.601  15.157   0.865
63885W        W27642   1.773  43.771  13.528
63886W        W27643   1.434  36.500   0.359
63887W        W27644  22.668  12.245  12.055
63888W        W27645  35.038  12.317   1.285
63889W        W27646  29.556  24.227  14.415
63890W        W27647   3.308   1.788   1.808
63891W        W27648  17.683   1.403  13.408
63892W        W27649  38.568  16.288   2.275
63893W        W27650   2.226  40.847  11.032
63894W        W27651  38.477  19.159  12.954
63895W        W27652   2.763  22.097   1.809
63896W        W27653  34.610  11.855  14.469
63897W        W27654  10.227  44.893  11.997
63898W        W27655  36.956  17.175   2.798
63899W        W27656  37.041   9.747   2.749
63900W        W27657   1.238  14.229  11.950
63901W        W27658  22.086  17.113   3.182
63902W        W27659   2.816  43.851   0.953
63903W        W27660  27.049   5.839  13.522
63904W        W27661  27.683   2.758  14.939
63905W        W27662  42.338  19.732  11.004
63906W        W27663  11.254  33.931  14.859
63907W        W27664   9.231  11.357   2.262
63908W        W27665  20.198  36.435   4.259
63909W        W27666  35.853  36.942  12.495
63910W        W27667   5.374   0.359  12.931
63911W        W27668  40.851  21.174   4.327
63912W        W27669  35.597  26.518  11.609
63913W        W27670  34.472   5.785   4.308
63914W        W27671  41.368   4.273  13.471
63915W        W27672   1.261  25.478  10.891
63916W        W27673   5.738  13.663  12.399
63917W        W27674   8.829  39.892   2.381
63918W        W27675   6.255  19.677  11.081
63919W        W27676   1.904   0.272  12.005
63920W        W27677  15.772   9.360  13.929
63921W        W27678  24.138   0.893   4.686
63922W        W27679  14.829  38.819   2.737
63923W        W27680  11.287  14.176  13.401
63924W        W27681   2.920   3.315  13.888
63925W        W27682  33.014   3.898  11.967
63926W        W27683  16.104   8.178  14.789
63927W        W27684  43.451   7.813   0.327
63928W        W27685  18.156   9.811  14.817
63929W        W27686  42.491  26.641  14.933
63930W        W27687  14.300  22.180  10.450
63931W        W27688  17.117   6.184  11.506
63932W        W27689  23.157  25.538  13.412
63933W        W27690  19.276  40.835   2.283
63934W        W27691  20.253  43.314   3.718
63935W        W27692  39.440  43.395   2.351
63936W        W27693  10.336   2.873  14.355
63937W        W27694  39.503  20.665   4.237
63938W        W27695   0.438  20.054  10.619
63939W        W27696  40.972   8.708  13.031
63940W        W27697  22.638  18.714   2.418
63941W        W27698  21.705  13.320   4.645
63942W        W27699  26.478   0.923  12.426
63943W        W27700  28.125  10.810   4.765
63944W        W27701  44.846  37.514  11.882
63945W        W27702  12.750   2.822  13.978
63946W        W27703   5.725   1.787   1.218
63947W        W27704  13.316  43.273   3.310
63948W        W27705   4.892  44.460  11.444
63949W        W27706  29.587  18.633   2.277
63950W        W27707  41.848  26.584  14.789
63951W        W27708  20.266  40.392  14.010
63952W        W27709  28.983  12.195   4.167
63953W        W27710  27.073  42.421  13.949
63954W        W27711  18.228   8.257   2.313
63955W        W27712  15.643  36.970   0.804
63956W        W27713   3.842  37.899   3.837
63957W        W27714   3.728  18.778   3.153
63958W        W27715   2.233  39.938  10.641
63959W        W27716  28.523  24.096   2.695
63960W        W27717  27.469  36.861   3.161
63961W        W27718  32.597  13.727  13.990
63962W        W27719  28.529  32.993  10.550
63963W        W27720  11.652   4.886   0.749
63964W        W27721   8.270   6.738   3.810
63965W        W27722  20.081  38.478  13.876
63966W        W27723  17.074  43.902  10.587
63967W        W27724  14.306  36.080   1.899
63968W        W27725  42.339  38.867   2.740
63969W        W27726   3.847  10.185   9.928
63970W        W27727   3.913  31.411   1.712
63971W        W27728  22.233   4.724   3.770
63972W        W27729  18.075  27.027   2.704
63973W        W27730  32.561  31.492   2.325
63974W        W27731  36.484   6.189  14.443
63975W        W27732  43.467  28.032   1.705
63976W        W27733  27.100  15.146  13.806
63977W        W27734  11.183  33.621   3.205
63978W        W27735  16.187  43.494   2.410
63979W        W27736   9.683  44.886   3.206
63980W        W27737  40.314   3.780  12.537
63981W        W27738  28.998  27.637   0.805
63982W        W27739  35.464  23.558   2.816
63983W        W27740  14.128  42.817   0.823
63984W        W27741   3.448   0.464   2.828
63985W        W27742  20.248  41.850   3.287
63986W        W27743  20.589  31.962   3.768
63987W        W27744   3.459  23.506   4.339
63988W        W27745   8.731  14.827   2.821
63989W        W27746  23.005  28.635  10.975
63990W        W27747  34.371  39.059  11.939
63991W        W27748  21.084   3.333  12.880
63992W        W27749  40.347  35.010   0.938
63993W        W27750  12.302  25.712   1.913
63994W        W27751   5.293  10.267  13.487
63995W        W27752   8.181  32.448  14.321
63996W        W27753  19.214   9.889   2.700
63997W        W27754  19.171  16.700  14.996
63998W        W27755  18.715  16.211   4.684
63999W        W27756  42.965  31.997  14.861
64000W        W27757  23.058  41.866   3.281
64001W        W27758  12.193  33.551  13.903
64002W        W27759  38.984  27.961  11.042
64003W        W27760  38.328  28.176   2.201
64004W        W27761  10.817  11.865  14.508
64005W        W27762  18.170  21.025  13.471
64006W        W27763   6.424   6.424   5.124
64007W        W27764   5.794   1.404  11.423
64008W        W27765  14.242  41.458   4.271
64009W        W27766  20.564  33.926  11.864
64010W        W27767   1.806  42.317   0.824
64011W        W27768   1.310  35.497  11.123
64012W        W27769  32.406  39.519   4.737
64013W        W27770  35.536  10.193  11.418
64014W        W27771  32.932  16.252   3.664
64015W        W27772  26.096   4.712  14.786
64016W        W27773  17.726  34.059  14.312
64017W        W27774  37.391   1.930  12.525
64018W        W27775  17.066   1.308  13.919
64019W        W27776  43.387  26.648   4.258
64020W        W27777   0.279  25.493   1.912
64021W        W27778  29.923  11.341  12.975
64022W        W27779  30.144  24.612   0.803
64023W        W27780  32.104   5.415   0.351
64024W        W27781  12.143  29.485  13.886
64025W        W27782  20.598  22.135   4.138
64026W        W27783  30.990  22.530  11.436
64027W        W27784  41.468   7.280  11.458
64028W        W27785  36.957  37.835  14.896
64029W        W27786  36.385  29.510   4.342
64030W        W27787  33.609  33.005   3.717
64031W        W27788  21.083  18.587  11.562
64032W        W27789   0.342  11.142   1.713
64033W        W27790  22.223  31.595  10.998
64034W        W27791  22.741  43.913  13.860
64035W        W27792  41.863  16.113   0.477
64036W        W27793   8.362  41.901   4.116
64037W        W27794  30.019  26.166  13.356
64038W        W27795  11.759  38.904  13.813
64039W        W27796  40.542   7.209   1.345
64040W        W27797   2.899  25.064   0.921
64041W        W27798  14.750  34.057  12.407
64042W        W27799  24.178  37.930   4.785
64043W        W27800  43.956  39.060  13.045
64044W        W27801  42.339  44.407   0.831
64045W        W27802  20.576   7.835  12.360
64046W        W27803  19.174  32.974  12.908
64047W        W27804  40.885  17.764   4.794
64048W        W27805   6.686  37.933  11.052
64049W        W27806   5.199  33.948  11.569
64050W        W27807  37.366  26.971  11.992
64051W        W27808  22.571  35.559  13.467
64052W        W27809  36.001  15.717  12.089
64053W        W27810   6.865  27.661   0.419
64054W        W27811  30.075  14.273  13.440
64055W        W27812  22.501  22.093  10.550
64056W        W27813  38.368  40.849  12.950
64057W        W27814   1.935  35.872   2.297
64058W        W27815  34.525  13.834   0.822
64059W        W27816  17.797  34.097  11.507
64060W        W27817  17.749  21.687   2.719
64061W        W27818  24.716  19.739   2.382
64062W        W27819  31.466  33.385  13.434
64063W        W27820  42.900  37.451  12.929
64064W        W27821  32.912  44.373   3.162
64065W        W27822  28.022  42.032  11.503
64066W        W27823  25.621   9.834   4.297
64067W        W27824  28.164  12.794  12.889
64068W        W27825   7.387  11.282   2.775
64069W        W27826  35.544  34.022   1.281
64070W        W27827  40.882  41.472  14.950
64071W        W27828   2.750  32.017   1.245
64072W        W27829   5.222  26.065   0.760
64073W        W27830  13.786  28.954  14.805
64074W        W27831   4.268  19.574  14.444
64075W        W27832   2.433  22.744   0.303
64076W        W27833  26.092  32.025  13.860
64077W        W27834  43.863  37.505  14.864
64078W        W27835   6.869  23.670   0.951
64079W        W27836  36.580  30.017   0.960
64080W        W27837  26.465  34.983  12.964
64081W        W27838   0.330  39.834  11.375
64082W        W27839  35.384  33.543   3.359
64083W        W27840  19.151  43.461   1.893
64084W        W27841  34.064  29.080  13.544
64085W        W27842  36.031  14.801   1.866
64086W        W27843  37.972   9.312   2.879
64087W        W27844  31.125  11.728  13.484
64088W        W27845  35.533  17.133   2.389
64089W        W27846  41.458   4.756  11.114
64090W        W27847   4.771  38.424   2.297
64091W        W27848   3.452   8.375  13.010
64092W        W27849  13.131  42.938   4.173
64093W        W27850  14.658  36.505  12.341
64094W        W27851  33.602  11.308   2.785
64095W        W27852  40.798  19.144  14.932
64096W        W27853  34.986   3.388  11.450
64097W        W27854   9.685  42.349  14.870
64098W        W27855   3.815  13.313   3.660
64099W        W27856  26.497  28.588  12.540
64100W        W27857  33.474  41.855   0.437
64101W        W27858  22.997   5.750   2.751
64102W        W27859  17.102  38.452  14.953
64103W        W27860  38.867  22.017  11.456
64104W        W27861   6.388   3.366  14.282
64105W        W27862  19.195  15.272   0.312
64106W        W27863  43.796  26.010  13.906
64107W        W27864   5.732  22.097   0.957
64108W        W27865   4.390  38.954  12.999
64109W        W27866  31.553   6.907   3.223
64110W        W27867  18.064  29.090   2.226
64111W        W27868  18.212   1.402   1.886
64112W        W27869  39.550  18.721   1.292
64113W        W27870  38.543  27.524   3.231
64114W        W27871  18.192  33.066   4.216
64115W        W27872  16.696  33.614  10.556
64116W        W27873  37.053  18.167   4.802
64117W        W27874  33.938  16.190  12.519
64118W        W27875   6.273  44.781   5.632
64119W        W27876  14.283  37.069   4.252
64120W        W27877  15.670  14.825   1.841
64121W        W27878  30.605  43.780  14.308
64122W        W27879  32.923  25.129   4.746
64123W        W27880  35.099   4.449  14.364
64124W        W27881  42.313  39.530   2.325
64125W        W27882  12.169  43.445  14.287
64126W        W27883  40.926  27.544   3.833
64127W        W27884  18.742  39.018  10.414
64128W        W27885  18.566  21.192  10.158
64129W        W27886  38.985  13.730  12.048
64130W        W27887  42.951  27.179  10.575
64131W        W27888  16.589  12.710   3.222
64132W        W27889   5.328  29.649  10.430
64133W        W27890  43.006  38.386   0.751
64134W        W27891   6.856   4.922  10.645
64135W        W27892  38.434  33.568   1.883
64136W        W27893  12.674  42.010   2.340
64137W        W27894  30.142   0.807   3.360
64138W        W27895  44.780   1.798   1.228
64139W        W27896   6.843  37.891  10.571
64140W        W27897  17.602  16.105   2.390
64141W        W27898  29.485  14.119  10.983
64142W        W27899  37.840  20.234   3.670
64143W        W27900  32.972  42.473   3.810
64144W        W27901  18.657   6.310   0.284
64145W        W27902  35.009  11.828   1.891
64146W        W27903  32.998  37.582  14.786
64147W        W27904   8.796  23.175  10.983
64148W        W27905  12.768  35.009   0.773
64149W        W27906  38.467  13.186   2.363
64150W        W27907  21.538   5.402  12.829
64151W        W27908  33.463  36.469   2.780
64152W        W27909   8.812  12.163   0.378
64153W        W27910   4.775  34.373  13.848
64154W        W27911   5.871  31.489   1.374
64155W        W27912  43.393   0.363   0.372
64156W        W27913  34.062  25.215   4.780
64157W        W27914  28.992  16.666   2.275
64158W        W27915  42.784  44.361  13.358
64159W        W27916   9.688   7.238   0.837
64160W        W27917  21.554   1.872  14.451
64161W        W27918   8.823  25.551   3.152
64162W        W27919  15.626   1.802  14.311
64163W        W27920  42.352   4.366   1.398
64164W        W27921   5.272   3.322  13.527
64165W        W27922  35.571  33.563   3.866
64166W        W27923   7.377  17.293   0.270
64167W        W27924  43.952  26.623  13.039
64168W        W27925  22.183  21.670  14.474
64169W        W27926   7.754  40.964   4.298
64170W        W27927  21.244  17.297  10.519
64171W        W27928   3.268  13.166   5.310
64172W        W27929  18.167  22.523  14.373
64173W        W27930  31.011   0.874  14.985
64174W        W27931   2.448  20.682  11.543
64175W        W27932  22.250  16.285   0.853
64176W        W27933  33.592   2.935  11.489
64177W        W27934   8.299  25.594  13.045
64178W        W27935  41.501  16.126   1.736
64179W        W27936  32.584  28.668   1.717
64180W        W27937  30.518   5.736  11.413
64181W        W27938  35.935   5.425  10.615
64182W        W27939  40.949  15.647  13.338
64183W        W27940   0.365  25.468   1.367
64184W        W27941   2.351  26.503   1.824
64185W        W27942  27.586  32.113  11.374
64186W        W27943  16.309  19.085  10.515
64187W        W27944  28.113  31.080  12.525
64188W        W27945  14.771  41.946   3.236
64189W        W27946   8.831  32.887  12.466
64190W        W27947  38.076   7.667   2.810
64191W        W27948  11.238  36.073  13.930
64192W        W27949   9.728  13.769  10.460
64193W        W27950  28.592   2.368   3.299
64194W        W27951  30.020  15.669   4.162
64195W        W27952  10.353  33.028   1.235
64196W        W27953  41.403  14.155  12.043
64197W        W27954  41.905  36.368  14.959
64198W        W27955  33.899  16.788   3.337
64199W        W27956  19.262   5.791  12.389
64200W        W27957  34.477  30.103   4.123
64201W        W27958  33.556   0.810   4.763
64202W        W27959  17.062   8.344   4.720
64203W        W27960  18.122  20.654  10.496
64204W        W27961  23.035  22.161   0.860
64205W        W27962  35.070  41.475  10.131
64206W        W27963   0.932  21.102  13.420
64207W        W27964  19.759   0.831  14.503
64208W        W27965  14.150   9.216   3.837
64209W        W27966  32.406  37.502  10.535
64210W        W27967   6.353  32.601   4.124
64211W        W27968   5.241   8.673  13.944
64212W        W27969   5.909  12.814  12.360
64213W        W27970  15.695  43.978   0.942
64214W        W27971  11.143  26.638   4.325
64215W        W27972   5.898  26.583  13.897
64216W        W27973   7.768   6.327   0.848
64217W        W27974  43.833  10.294   4.196
64218W        W27975  26.184  38.015   3.161
64219W        W27976  36.369   9.875  12.345
64220W        W27977  32.141  11.642   2.767
64221W        W27978  34.518  30.639  13.837
64222W        W27979   1.257  10.802  10.470
64223W        W27980  13.839   3.907   1.839
64224W        W27981  30.106  16.302   2.827
64225W        W27982   6.784  43.864  14.783
64226W        W27983  34.925  42.317  12.953
64227W        W27984  10.281  40.029   4.803
64228W        W27985  14.802   4.275  13.844
64229W        W27986  29.173  17.271   0.440
64230W        W27987  38.994  18.627   2.179
64231W        W27988  17.234  35.949   1.384
64232W        W27989  18.271  24.051  10.414
64233W        W27990   6.242  36.482  10.500
64234W        W27991  10.867  29.429  13.056
64235W        W27992  31.066  38.326   1.782
64236W        W27993  11.704  44.760  14.945
64237W        W27994  25.097   8.806   2.681
64238W        W27995   4.799   5.436   3.856
64239W        W27996  13.656   6.791   1.386
64240W        W27997  12.284  20.149  11.945
64241W        W27998   6.270  13.222  13.313
64242W        W27999  38.350  23.985   1.214
64243W        W28000  31.925  15.183  13.321
64244W        W28001  32.544  32.058   1.935
64245W        W28002   7.848   5.336   0.460
64246W        W28003  13.152  30.655  12.487
64247W        W28004   3.323  12.154  14.502
64248W        W28005  39.450  29.022  14.766
64249W        W28006   5.395  12.714  12.942
64250W        W28007  14.768  26.084  14.914
64251W        W28008  30.158  33.508  13.814
64252W        W28009  35.109  17.126  10.020
64253W        W28010  13.790   2.882   2.731
64254W        W28011  16.778  43.311  12.971
64255W        W28012   9.679  11.181   2.214
64256W        W28013  41.337  18.571  12.466
64257W        W28014  29.142  26.139  11.519
64258W        W28015  44.910   1.735   4.215
64259W        W28016  17.190   3.449   9.927
64260W        W28017  31.531   4.315   1.216
64261W        W28018   3.816  29.595  11.119
64262W        W28019  30.938   3.441  11.076
64263W        W28020  17.107   3.950   0.793
64264W        W28021  30.036  18.257   4.728
64265W        W28022  22.107  24.983  11.427
64266W        W28023  38.918  31.018   0.290
64267W        W28024   5.719   9.660   1.248
64268W        W28025  16.093  34.041  10.981
64269W        W28026  21.563  39.810  10.960
64270W        W28027  21.723  31.493   2.679
64271W        W28028  20.594  32.968   1.933
64272W        W28029   6.759  18.256   9.935
64273W        W28030  26.607  26.553  13.352
64274W        W28031  36.374  38.016  14.794
64275W        W28032   9.294  10.718  11.467
64276W        W28033  28.135  25.631   3.297
64277W        W28034  12.306  26.001   1.261
64278W        W28035  42.395  38.074  13.052
64279W        W28036  41.020  36.403  11.897
64280W        W28037  28.671  29.488   4.677
64281W        W28038  13.616  29.450   0.390
64282W        W28039  31.122  31.964   4.326
64283W        W28040  12.853  31.962  13.359
64284W        W28041  19.662  15.801  14.362
64285W        W28042  26.134  36.592  13.963
64286W        W28043  29.638  19.149  12.518
64287W        W28044  43.867  31.910  14.912
64288W        W28045  10.265   3.953  12.023
64289W        W28046   8.738   2.236   0.335
64290W        W28047  15.085  22.025   4.824
64291W        W28048   6.837  19.672   1.325
64292W        W28049   8.774  26.077   4.350
64293W        W28050  30.943  32.485   3.646
64294W        W28051   0.746  24.002   3.705
64295W        W28052  44.434  25.091  11.513
64296W        W28053  40.490  16.719  14.812
64297W        W28054  13.309  34.552  10.084
64298W        W28055  39.435   2.300   0.320
64299W        W28056   8.869  13.782   3.225
64300W        W28057   0.869  25.568   0.369
64301W        W28058  32.522  18.621   0.419
64302W        W28059  15.319   6.382   4.807
64303W        W28060  23.211  13.797  13.469
64304W        W28061  37.833  26.618   2.352
64305W        W28062  39.354  24.599  10.907
64306W        W28063   2.827  10.833   1.797
64307W        W28064  33.968  29.441   1.703
64308W        W28065  32.561  32.091  13.515
64309W        W28066  44.498   3.918   0.910
64310W        W28067  25.695  10.205  14.491
64311W        W28068   8.806  34.990  12.428
64312W        W28069  18.750   0.829   4.734
64313W        W28070   5.815   8.214   2.180
64314W        W28071   9.844  24.569  12.437
64315W        W28072  10.844  24.478   3.822
64316W        W28073  23.591  21.225   3.635
64317W        W28074  40.928  33.024   1.879
64318W        W28075  36.851  42.961   1.328
64319W        W28076  27.510   3.396  13.308
64320W        W28077   8.169   4.711  12.932
64321W        W28078  43.397  33.105   4.124
64322W        W28079  15.807  22.651  12.516
64323W        W28080  40.846  11.159  12.411
64324W        W28081  42.010  24.718  10.594
64325W        W28082  16.172  17.124   2.812
64326W        W28083  15.199   9.753   3.297
64327W        W28084  42.501   4.702   0.283
64328W        W28085  12.301   3.456   0.963
64329W        W28086  26.196   5.748  14.292
64330W        W28087  41.391  17.714   2.678
64331W        W28088  34.560  36.530   3.654
64332W        W28089  41.358  14.221  13.035
64333W        W28090  23.553  35.992  10.910
64334W        W28091  29.443  31.586  13.473
64335W        W28092  42.821  44.333   2.679
64336W        W28093  18.660   2.408  14.877
64337W        W28094   9.186   9.870  12.832
64338W        W28095   1.349   8.379   2.196
64339W        W28096  17.084  19.141   3.813
64340W        W28097  13.273  32.106   1.825
64341W        W28098  37.501  23.600   0.901
64342W        W28099   6.200  43.328  13.929
64343W        W28100   6.357   5.778  13.055
64344W        W28101  42.517  15.147   3.376
64345W        W28102  22.511   1.348  13.432
64346W        W28103  35.402  21.116  14.277
64347W        W28104  38.564  41.889  12.409
64348W        W28105  19.218  42.451   3.681
64349W        W28106  10.810  28.511   1.359
64350W        W28107  10.876   9.756  10.496
64351W        W28108  31.903  41.500   1.785
64352W        W28109  32.985  25.558  10.976
64353W        W28110  41.009   8.340   2.370
64354W        W28111   4.204  28.080   2.278
64355W        W28112  28.125   2.754  10.974
64356W        W28113   8.311   9.859   4.800
64357W        W28114  19.131   8.877   1.224
64358W        W28115  24.167   0.771  12.964
64359W        W28116   7.707  36.061   4.620
64360W        W28117  10.227  37.991   2.309
64361W        W28118  27.073  21.718  12.013
64362W        W28119  30.065  18.132  13.935
64363W        W28120  22.616   4.219   4.603
64364W        W28121   0.399   9.778   1.370
64365W        W28122  29.561  19.576   4.169
64366W        W28123   2.423  36.443   3.245
64367W        W28124  27.582   4.377  10.951
64368W        W28125   7.208  28.481   4.152
64369W        W28126  14.668  39.943  11.100
64370W        W28127  13.615   2.940  11.577
64371W        W28128   3.406  35.007   4.645
64372W        W28129  36.452  41.947   0.781
64373W        W28130  14.252  40.427  13.799
64374W        W28131  21.170  22.132   4.258
64375W        W28132  23.027  35.514   3.173
64376W        W28133  29.468  14.723   1.377
64377W        W28134   1.468  21.053  13.902
64378W        W28135  14.686  43.436  12.036
64379W        W28136  44.339  15.193   2.742
64380W        W28137  24.990  19.075  13.398
64381W        W28138  29.094  10.676  14.895
64382W        W28139  24.725   5.338   1.369
64383W        W28140  37.467  32.458   0.960
64384W        W28141  13.803  27.945  12.567
64385W        W28142   0.375  33.556  11.430
64386W        W28143   1.294  15.202   1.756
64387W        W28144   3.785  44.346  11.934
64388W        W28145  35.927  19.258   4.686
64389W        W28146  14.144   4.717  11.958
64390W        W28147   7.803  34.039   2.686
64391W        W28148  23.555  13.230   4.816
64392W        W28149  14.309  39.474  11.083
64393W        W28150  11.684  14.173   2.848
64394W        W28151  30.420  43.364  11.548
64395W        W28152  16.763   2.308   4.243
64396W        W28153  21.185  13.743   2.816
64397W        W28154  11.632  31.121  10.936
64398W        W28155  17.621   8.219   0.806
64399W        W28156  20.765  20.544   4.649
64400W        W28157  26.620  34.515  11.451
64401W        W28158  33.118  42.824  13.837
64402W        W28159  33.578   9.164  12.034
64403W        W28160  30.962   6.882   2.770
64404W        W28161  36.894  32.584   1.313
64405W        W28162  13.105  12.774  13.492
64406W        W28163  22.100  36.904   4.230
64407W        W28164   6.857  37.935   3.749
64408W        W28165   6.812   5.267   4.231
64409W        W28166  12.645  25.636  11.496
64410W        W28167  17.125   7.226  14.326
64411W        W28168  38.057  42.981  13.911
64412W        W28169  28.997   3.950   4.277
64413W        W28170  36.918  14.677   0.436
64414W        W28171  35.087  29.031  13.814
64415W        W28172  12.282  17.620   1.703
64416W        W28173  30.532  38.422   2.713
64417W        W28174  35.576  42.358   0.286
64418W        W28175  38.371  30.606   1.416
64419W        W28176  44.286  35.580  10.913
64420W        W28177  26.482  34.400   2.319
64421W        W28178  43.413  28.932  10.909
64422W        W28179  21.226  42.806  12.360
64423W        W28180  30.036  41.857   4.229
64424W        W28181  22.568   9.881  10.917
64425W        W28182  34.008  25.114  10.143
64426W        W28183   0.895  32.518  13.969
64427W        W28184   6.734  29.965  13.913
64428W        W28185  21.049  19.181   2.877
64429W        W28186  26.501  43.005   0.795
64430W        W28187  10.234  38.374  14.021
64431W        W28188  21.664  33.102  12.983
64432W        W28189  16.099  24.062   1.823
64433W        W28190   4.373   3.221  10.980
64434W        W28191  35.876  16.087  13.927
64435W        W28192  39.468   0.397  13.998
64436W        W28193   6.826  37.912   0.468
64437W        W28194   7.298  31.052  14.432
64438W        W28195  43.915  25.501   4.817
64439W        W28196  14.203  24.191   4.647
64440W        W28197  16.194  25.024   0.477
64441W        W28198  36.951  33.452  12.489
64442W        W28199  26.615  22.689   1.787
64443W        W28200   0.910  17.709  14.775
64444W        W28201   6.399  37.978  12.462
64445W        W28202  17.689  12.642  14.313
64446W        W28203  18.629   5.876   1.880
64447W        W28204   3.442  43.297  14.371
64448W        W28205  35.076   7.868   0.870
64449W        W28206   3.436  31.111   5.285
64450W        W28207  19.637  41.944   2.825
64451W        W28208  25.021  29.028   1.759
64452W        W28209   7.730  42.332  14.963
64453W        W28210  44.349   7.806  10.453
64454W        W28211  38.338   1.885  11.925
64455W        W28212  14.214   3.279  11.381
64456W        W28213  21.753  36.863   0.429
64457W        W28214  20.119  41.372  13.930
64458W        W28215  34.061  43.353  14.943
64459W        W28216   1.862  43.475   2.286
64460W        W28217   9.170   0.253  14.021
64461W        W28218   9.785   1.292  12.571
64462W        W28219  40.900  20.103   3.200
64463W        W28220   6.258   6.726   4.799
64464W        W28221  35.101  13.187  13.540
64465W        W28222  36.015  24.974  13.984
64466W        W28223  18.673  12.294  13.022
64467W        W28224  14.785   3.419  10.896
64468W        W28225  29.106  39.052   3.844
64469W        W28226  20.055   1.473  13.358
64470W        W28227  35.448  29.945  14.012
64471W        W28228  34.888  37.535   4.353
64472W        W28229   7.899  44.778  12.851
64473W        W28230  26.149  44.763  10.897
64474W        W28231  22.660   9.761   4.118
64475W        W28232  15.139  26.459  11.113
64476W        W28233  42.283  44.790   1.703
64477W        W28234  25.147  18.595   4.796
64478W        W28235   9.187  30.162   3.870
64479W        W28236  20.144  41.945   3.767
64480W        W28237  32.913  44.005  10.494
64481W        W28238  16.292  27.551   4.313
64482W        W28239   8.655  40.899   0.407
64483W        W28240  19.209   6.710  11.503
64484W        W28241  33.106  16.214  13.008
64485W        W28242  23.579   2.965   2.797
64486W        W28243  24.517  41.970  14.844
64487W        W28244  42.959   2.447  10.904
64488W        W28245  37.842  25.655  14.447
64489W        W28246  26.980  16.157   2.389
64490W        W28247  21.203  12.812   2.186
64491W        W28248   7.295  43.955  13.012
64492W        W28249  38.057   3.851   4.657
64493W        W28250  42.435  36.920  11.110
64494W        W28251  37.843  44.908   1.738
64495W        W28252  35.446   1.451  11.574
64496W        W28253   4.220  20.182   4.774
64497W        W28254  14.322  39.961   0.925
64498W        W28255  23.080   7.849  13.964
64499W        W28256  14.716  36.987   1.436
64500W        W28257  34.520  18.779   3.801
64501W        W28258  13.677  16.251  14.992
64502W        W28259  10.307  37.008  10.950
64503W        W28260  22.677   6.765  13.427
64504W        W28261  33.975   7.778  12.025
64505W        W28262   5.866  27.691  10.967
64506W        W28263  29.441  28.945  11.570
64507W        W28264  20.611  24.984   1.441
64508W        W28265  19.247  26.490   3.855
64509W        W28266  20.685  42.007   3.822
64510W        W28267  27.197  41.881   4.345
64511W        W28268  18.713  43.381   0.475
64512W        W28269  14.761  11.838  13.884
64513W        W28270   6.681  36.946   3.201
64514W        W28271  41.032  34.911   3.786
64515W        W28272  43.941  31.465   3.636
64516W        W28273  32.485  13.335   0.245
64517W        W28274   1.764  14.298  12.576
64518W        W28275  17.285  24.076   4.130
64519W        W28276   2.448  37.935  11.975
64520W        W28277  19.600  33.080   0.812
64521W        W28278   6.198  10.152  10.023
64522W        W28279   5.306  11.253   0.787
64523W        W28280  17.789  25.528  14.760
64524W        W28281   8.346   7.907   1.911
64525W        W28282   4.434   0.971  10.458
64526W        W28283  41.943  38.390  14.443
64527W        W28284  14.589  33.043   3.661
64528W        W28285  20.588  27.114   4.690
64529W        W28286  25.704   5.826   1.724
64530W        W28287  27.968   6.794  14.861
64531W        W28288  19.535  10.275   5.101
64532W        W28289  10.152  37.994  13.050
64533W        W28290   8.758  32.066   1.406
64534W        W28291  31.643  42.884   2.782
64535W        W28292  20.673  41.339  10.963
64536W        W28293  32.953  39.036   4.209
64537W        W28294  42.943   3.267  13.905
64538W        W28295  41.338  16.317  13.847
64539W        W28296  20.160  22.503   0.480
64540W        W28297  15.186  21.517   3.803
64541W        W28298  14.781  18.224   2.765
64542W        W28299  24.223  41.424  12.876
64543W        W28300  34.989  21.061  12.860
64544W        W28301  25.130  25.069   2.219
64545W        W28302  39.828  10.299  14.496
64546W        W28303  20.257  42.474   2.355
64547W        W28304  24.033  16.627  13.835
64548W        W28305   4.263   2.780  14.011
64549W        W28306  43.417  36.406   1.922
64550W        W28307   6.237  15.222   2.742
64551W        W28308  38.949  44.797  14.318
64552W        W28309  24.702  28.467  11.419
64553W        W28310  30.597  37.968   3.160
64554W        W28311  22.083  23.548   0.462
64555W        W28312  28.158  20.230  12.458
64556W        W28313  12.159  13.605  12.441
64557W        W28314   6.269  40.015   0.301
64558W        W28315  36.909  34.596  10.913
64559W        W28316  34.513  25.990   0.921
64560W        W28317  18.275  22.658  12.046
64561W        W28318  25.073  24.556   5.251
64562W        W28319  10.173  29.972   0.933
64563W        W28320  31.127  16.132  13.433
64564W        W28321  22.237  30.015   1.766
64565W        W28322  26.019  31.594  11.933
64566W        W28323  24.117   2.946   2.896
64567W        W28324  24.039  42.517  11.996
64568W        W28325  22.698  39.472  14.426
64569W        W28326  21.243  10.663   2.178
64570W        W28327   1.343   6.329   4.191
64571W        W28328  18.636  20.551  13.931
64572W        W28329  24.192   8.179   4.839
64573W        W28330   7.842   2.958  14.015
64574W        W28331  15.156  36.510   0.865
64575W        W28332  40.408  29.507  12.420
64576W        W28333   9.738   4.389  14.506
64577W        W28334  37.948   9.734   4.114
64578W        W28335  42.317  44.467   0.404
64579W        W28336  24.204  22.718   4.146
64580W        W28337  17.653  24.030   2.354
64581W        W28338  16.640  33.021   4.303
64582W        W28339  21.069  37.977  13.959
64583W        W28340   1.375  33.546   3.633
64584W        W28341  19.558   9.390  11.570
64585W        W28342   4.809  16.793  10.512
64586W        W28343   2.730  12.228  13.053
64587W        W28344  28.657  21.587   1.774
64588W        W28345  40.441   0.899   4.600
64589W        W28346   0.463  32.021  10.505
64590W        W28347  25.023  12.716  11.500
64591W        W28348  33.119  44.504  13.407
64592W        W28349   5.829   0.428  11.915
64593W        W28350  24.121  21.118   4.616
64594W        W28351  25.082  40.523   4.804
64595W        W28352  26.634  16.719   3.277
64596W        W28353  40.344  18.112   2.224
64597W        W28354  16.227  36.882   3.224
64598W        W28355  30.048  17.777  13.840
64599W        W28356   4.262  31.074   1.451
64600W        W28357  42.445  37.504  13.362
64601W        W28358  19.237  29.457   3.226
64602W        W28359   8.747  12.182  13.340
64603W        W28360  35.597  17.739  13.488
64604W        W28361  32.074  19.777  14.880
64605W        W28362   4.303  18.641  11.605
64606W        W28363   4.783  41.376   3.862
64607W        W28364   0.845  37.335   9.954
64608W        W28365  20.523  32.520   1.782
64609W        W28366  34.116  39.360   1.313
64610W        W28367  17.256  42.028   1.847
64611W        W28368  39.065  17.692   0.795
64612W        W28369  11.337  13.728  12.516
64613W        W28370  27.025  41.852   0.834
64614W        W28371  26.523   3.439  10.629
64615W        W28372  27.055  28.483  11.575
64616W        W28373  18.703  35.852  13.025
64617W        W28374  25.600  22.039  11.375
64618W        W28375  35.003  22.739  11.019
64619W        W28376  27.021   9.824   2.719
64620W        W28377  17.061  25.604   0.338
64621W        W28378   9.371  37.531   1.339
64622W        W28379  29.518  19.045   1.293
64623W        W28380  18.077  42.016   1.305
64624W        W28381  22.666  23.190   0.844
64625W        W28382  23.102  31.462  14.344
64626W        W28383  16.630  35.994  14.774
64627W        W28384  24.216   9.794  12.835
64628W        W28385  25.971  42.791   1.818
64629W        W28386   4.924  16.209  10.531
64630W        W28387  35.413  28.140  13.061
64631W        W28388   5.193   8.242  14.030
64632W        W28389   8.287  20.546  12.875
64633W        W28390  15.644  38.964   3.212
64634W        W28391  17.617   9.837  12.358
64635W        W28392  42.502  30.008   1.249
64636W        W28393  11.723  41.873  14.873
64637W        W28394  38.439  28.080   3.830
64638W        W28395  23.219  27.524  10.447
64639W        W28396   1.355  34.017  14.820
64640W        W28397  41.440  25.623   2.286
64641W        W28398   1.839  30.987  13.336
64642W        W28399  10.784  34.977  13.989
64643W        W28400  31.548  23.573  10.960
64644W        W28401  23.653  26.014   2.390
64645W        W28402  41.526  16.661  10.610
64646W        W28403  41.889  10.377  10.034
64647W        W28404  34.409   0.453   3.214
64648W        W28405   9.297  10.208  14.759
64649W        W28406  39.872  26.057  13.885
64650W        W28407  24.113   5.400   3.329
64651W        W28408   2.916   3.437   1.217
64652W        W28409  20.115  31.574   4.621
64653W        W28410   4.919  30.979  13.483
64654W        W28411  41.994  33.065   0.337
64655W        W28412  24.550   2.295   2.208
64656W        W28413  21.692  12.270   4.241
64657W        W28414  40.429   1.799  10.429
64658W        W28415  41.975   0.879   5.201
64659W        W28416  31.980   6.780  12.430
64660W        W28417  43.321  36.026   4.765
64661W        W28418  38.490   5.323  11.926
64662W        W28419  21.587  34.911  12.020
64663W        W28420  18.739  27.580  14.875
64664W        W28421  34.088  14.233   1.439
64665W        W28422  11.662  17.682   0.855
64666W        W28423   9.732  31.465   4.250
64667W        W28424  13.151   4.768  10.901
64668W        W28425  24.135  37.860  14.420
64669W        W28426  27.007   3.774  10.602
64670W        W28427   2.413  43.956  13.528
64671W        W28428  12.192  35.079  14.833
64672W        W28429  38.424  40.447  13.311
64673W        W28430   8.233  20.679   0.959
64674W        W28431  11.207  28.594   4.157
64675W        W28432  37.916  17.198  14.926
64676W        W28433  33.530  43.001  11.569
64677W        W28434  32.568  43.001  13.914
64678W        W28435  19.134   0.874   4.664
64679W        W28436   3.365  23.584   3.314
64680W        W28437   2.926  34.052   1.716
64681W        W28438  43.469  10.293  11.530
64682W        W28439  14.730  19.679  14.285
64683W        W28440  41.415  15.317   0.744
64684W        W28441  10.691  12.652   4.710
64685W        W28442  42.990  18.140  12.478
64686W        W28443  41.333  32.932  12.880
64687W        W28444  16.735  10.792   4.665
64688W        W28445   3.862   6.835   0.954
64689W        W28446   6.737   3.303   4.178
64690W        W28447  10.374   2.267  13.383
64691W        W28448   2.892  30.542  13.494
64692W        W28449  23.589  14.601  11.457
64693W        W28450  19.735  39.528  12.029
64694W        W28451  39.350  36.927   3.356
64695W        W28452  42.862  33.063   3.807
64696W        W28453   2.829   2.858   0.377
64697W        W28454   2.445  29.012   1.276
64698W        W28455  23.696  37.421  12.860
64699W        W28456  37.352  11.755   5.309
64700W        W28457  43.892  21.727   2.275
64701W        W28458  18.789  23.034  11.986
64702W        W28459  33.596  38.884   1.434
64703W        W28460  43.284  35.476  13.519
64704W        W28461  28.134  40.341   1.318
64705W        W28462   6.905  11.249  12.073
64706W        W28463  34.878  26.591   3.364
64707W        W28464  26.680   6.404  14.303
64708W        W28465  28.496  13.230   5.743
64709W        W28466   2.782   7.402  14.942
64710W        W28467  43.514  42.400   1.380
64711W        W28468  17.644  33.404   4.799
64712W        W28469  21.025  16.171  12.407
64713W        W28470   1.843  20.761   2.827
64714W        W28471  44.281  29.137   3.690
64715W        W28472  29.596  29.553  12.529
64716W        W28473  37.952  35.371  13.026
64717W        W28474   2.375  35.402   1.308
64718W        W28475  19.141   9.852  14.875
64719W        W28476   6.248  19.158   4.827
64720W        W28477  23.497  34.098   2.222
64721W        W28478  19.173  23.024   1.347
64722W        W28479  41.532  23.561  12.493
64723W        W28480  29.462  38.449   1.892
64724W        W28481  43.411  28.675  13.500
64725W        W28482  28.078  38.436  14.909
64726W        W28483  24.084  30.472   1.447
64727W        W28484  18.789  24.641  14.893
64728W        W28485  22.722  44.758  11.429
64729W        W28486  32.117   9.780   0.269
64730W        W28487  39.337  26.556  13.519
64731W        W28488  39.884  35.001  10.635
64732W        W28489   6.238  14.207  12.516
64733W        W28490  24.607  34.381  11.483
64734W        W28491  13.631   0.334  14.957
64735W        W28492  18.675   6.398  13.804
64736W        W28493  14.253  35.056   1.397
64737W        W28494  33.448  23.147   0.879
64738W        W28495   3.292  14.756  13.824
64739W        W28496   7.717  11.206  11.894
64740W        W28497  37.919  32.967   3.321
64741W        W28498  41.482  39.902  13.420
64742W        W28499  30.621  19.710  11.585
64743W        W28500  21.217  22.155  14.974
64744W        W28501  38.900  34.979   0.248
64745W        W28502  29.163  21.076  11.537
64746W        W28503  37.965  18.575   4.632
64747W        W28504  32.991  42.472   4.239
64748W        W28505  10.637  27.068   1.419
64749W        W28506  10.139  26.054  14.474
64750W        W28507  12.702  40.973  14.416
64751W        W28508  24.622  31.151  12.860
64752W        W28509  32.909   5.310   5.246
64753W        W28510   9.749  10.748  12.072
64754W        W28511  42.309   7.679  12.034
64755W        W28512  12.712   2.340   9.572
64756W        W28513  16.684   3.869   3.659
64757W        W28514  24.003  33.036   3.833
64758W        W28515  23.181  10.361  12.057
64759W        W28516  15.663  36.934  11.919
64760W        W28517  36.025  27.138  14.768
64761W        W28518   8.743  10.151  11.873
64762W        W28519  12.334   0.270   5.244
64763W        W28520  28.016  42.010   0.444
64764W        W28521   7.844  13.619   0.384
64765W        W28522   8.312  25.163  14.848
64766W        W28523  28.120  15.246   1.427
64767W        W28524  35.915  14.769   2.690
64768W        W28525  10.819   5.718   0.792
64769W        W28526   5.373   9.307   2.725
64770W        W28527   9.246  18.197  13.025
64771W        W28528  11.315  12.174   4.351
64772W        W28529  37.500  44.383  12.059
64773W        W28530  11.676  17.227   4.149
64774W        W28531   4.421  21.118   3.675
64775W        W28532   7.704  14.662   1.740
64776W        W28533  16.228  12.331  12.405
64777W        W28534  40.343   5.360  12.908
64778W        W28535   3.299  31.595   2.690
64779W        W28536  40.865  31.562  11.575
64780W        W28537  26.507  31.506  13.974
64781W        W28538  10.170  16.121  14.423
64782W        W28539  20.270  13.322  14.881
64783W        W28540  32.407  24.172   3.185
64784W        W28541  29.638  19.214   0.451
64785W        W28542  11.332  43.818   3.729
64786W        W28543  31.126  20.140   4.303
64787W        W28544   5.826   3.253   3.828
64788W        W28545   7.669  27.684   1.252
64789W        W28546   5.906  31.960   3.673
64790W        W28547  36.859  24.987  13.345
64791W        W28548  21.668  27.179  11.039
64792W        W28549  42.307  23.631   3.685
64793W        W28550  27.954  22.080   3.730
64794W        W28551  26.483  43.819   2.243
64795W        W28552  20.670   3.842   0.888
64796W        W28553  28.973  27.098   2.237
64797W        W28554   7.866  25.117   0.759
64798W        W28555  23.065  34.432  11.382
64799W        W28556  26.044  15.208  10.560
64800W        W28557  40.974  32.104  11.536
64801W        W28558  28.558   8.725   3.805
64802W        W28559  34.968  27.604   4.191
64803W        W28560  38.935  30.057  11.536
64804W        W28561  38.908  17.576   1.351
64805W        W28562  20.690  19.181   0.744
64806W        W28563  38.486  34.969  14.370
64807W        W28564  15.794  42.801   0.941
64808W        W28565  44.306  33.122   2.302
64809W        W28566  18.075  41.020  13.320
64810W        W28567   5.828  17.251   4.120
64811W        W28568  17.700  30.509  11.590
64812W        W28569  35.068   3.791  13.440
64813W        W28570   4.935  42.849   1.378
64814W        W28571  19.644  43.307   0.308
64815W        W28572   6.192  21.225   3.360
64816W        W28573  27.119  12.635   2.339
64817W        W28574  37.064  15.759  11.452
64818W        W28575  17.085  28.671  12.387
64819W        W28576   9.232  33.572   1.806
64820W        W28577   0.955   6.812   4.831
64821W        W28578  33.007  37.998  12.370
64822W        W28579   4.706  38.033  13.435
64823W        W28580  33.978  37.868  12.953
64824W        W28581  18.587  18.064  14.306
64825W        W28582  43.932  40.825  14.327
64826W        W28583  29.485  39.009   9.990
64827W        W28584   6.205  32.404  12.916
64828W        W28585  36.087   7.261  11.505
64829W        W28586   3.363   5.889   3.642
64830W        W28587  29.441  15.188   4.331
64831W        W28588  37.440   2.464  13.050
64832W        W28589  14.610  14.135  10.407
64833W        W28590  15.196   5.822   1.340
64834W        W28591  36.019  27.123  11.515
64835W        W28592  12.752  26.118  14.358
64836W        W28593   6.888  12.311   4.113
64837W        W28594  16.174  22.222  12.011
64838W        W28595   7.741  34.032  14.464
64839W        W28596  38.898  26.110  10.474
64840W        W28597  33.438   8.659  14.830
64841W        W28598   4.391  15.102   0.898
64842W        W28599  29.922   1.887  13.438
64843W        W28600  14.131  11.637  10.598
64844W        W28601  15.705  22.594  10.994
64845W        W28602   5.875  15.151  11.533
64846W        W28603  41.518   9.214  12.974
64847W        W28604  19.253  19.573  12.347
64848W        W28605  15.261  37.945  10.981
64849W        W28606  43.905  23.147  13.412
64850W        W28607  11.771   2.792   2.300
64851W        W28608  18.734  18.108   0.407
64852W        W28609   9.881  26.015   3.780
64853W        W28610  26.676   2.430  13.921
64854W        W28611  39.871  33.550   3.845
64855W        W28612  20.250   6.919   4.835
64856W        W28613  24.995   9.382  13.516
64857W        W28614  22.159  33.568  10.039
64858W        W28615  16.586  13.713  11.114
64859W        W28616  33.000  40.040  14.901
64860W        W28617  29.586   9.249  13.914
64861W        W28618  12.817   4.209   4.730
64862W        W28619  36.958  35.567  13.545
64863W        W28620  41.527  37.511  12.512
64864W        W28621  12.788  24.038  11.962
64865W        W28622  37.875  30.971  14.996
64866W        W28623  31.960  26.988  12.581
64867W        W28624  39.367  23.175  11.886
64868W        W28625   6.727   0.872   1.901
64869W        W28626  34.491  41.918   0.756
64870W        W28627  15.638  29.137   3.731
64871W        W28628  29.552  37.374  11.522
64872W        W28629  23.591  10.252   3.368
64873W        W28630   8.395  31.112   0.925
64874W        W28631   0.342   5.872   1.441
64875W        W28632  31.019  35.095  11.044
64876W        W28633  31.437   6.677  13.339
64877W        W28634  43.803  21.733  14.351
64878W        W28635  20.563  14.763   1.381
64879W        W28636  16.713  25.057   1.793
64880W        W28637   0.980  12.339   3.169
64881W        W28638  23.672  24.991  14.393
64882W        W28639  23.135  16.185   4.330
64883W        W28640   7.792   9.746  12.361
64884W        W28641  37.893  44.858  13.054
64885W        W28642  27.190   6.331   1.383
64886W        W28643  23.720  20.760  11.599
64887W        W28644  26.701   7.833   2.752
64888W        W28645  36.451  31.513  11.923
64889W        W28646  39.319  11.248   4.664
64890W        W28647   1.911  42.360  12.372
64891W        W28648   7.697  21.567   1.355
64892W        W28649  35.430   2.954  10.538
64893W        W28650   7.690  39.370  11.591
64894W        W28651  34.472   7.834  12.089
64895W        W28652  26.689   6.341   4.305
64896W        W28653   2.746  17.133  12.957
64897W        W28654  21.033  20.658  12.885
64898W        W28655  29.530   7.865   3.202
64899W        W28656  13.744   5.832   3.697
64900W        W28657   9.188   7.763  10.468
64901W        W28658  19.263  18.239  14.901
64902W        W28659   5.691   2.819  12.036
64903W        W28660  35.595   7.826   3.267
64904W        W28661  23.111  16.169   3.359
64905W        W28662  31.977  13.674  10.936
64906W        W28663  19.537  11.862   4.186
64907W        W28664   2.252  42.460   0.323
64908W        W28665   2.258  29.165  11.476
64909W        W28666  22.026  24.516  11.862
64910W        W28667  19.097  17.251   4.657
64911W        W28668  35.390   3.766  12.972
64912W        W28669  17.070  44.379  11.554
64913W        W28670  37.988  33.054  11.456
64914W        W28671  27.127   6.872  11.931
64915W        W28672  41.535   3.867  12.547
64916W        W28673   1.747  11.782   0.790
64917W        W28674  35.109  40.907  11.484
64918W        W28675  39.912   6.187   2.675
64919W        W28676  44.890   9.852  13.058
64920W        W28677  15.102  26.020  10.904
64921W        W28678  14.318  36.956   4.733
64922W        W28679  44.893  19.273  12.504
64923W        W28680  16.610  28.658  14.880
64924W        W28681  23.735   5.810  13.377
64925W        W28682  37.914  13.648  12.023
64926W        W28683   4.373   7.212  12.461
64927W        W28684  30.937  23.664   2.888
64928W        W28685  43.909  31.988  13.032
64929W        W28686  20.660  36.974   9.998
64930W        W28687  33.619  28.133   0.447
64931W        W28688  13.244  35.037  11.015
64932W        W28689  32.599  33.426   1.356
64933W        W28690  23.123   9.180  13.519
64934W        W28691  23.703  16.178  13.947
64935W        W28692  27.490  11.759  14.892
64936W        W28693  40.459  29.109   3.195
64937W        W28694  22.678  35.049  13.404
64938W        W28695  37.026  15.243  11.010
64939W        W28696  19.271  24.155  11.497
64940W        W28697   4.893  34.375  14.960
64941W        W28698   3.334  33.427  14.386
64942W        W28699  37.473  14.095  14.450
64943W        W28700  39.352  26.498   3.261
64944W        W28701  21.607  36.423  11.945
64945W        W28702  42.376  16.642  12.077
64946W        W28703   5.795  40.494   4.823
64947W        W28704  22.090  14.277  12.935
64948W        W28705  25.143   1.242   0.944
64949W        W28706  24.523  36.404  13.419
64950W        W28707  39.505  14.095   2.191
64951W        W28708  32.944  28.504   3.187
64952W        W28709  16.132  36.426  14.775
64953W        W28710  38.473   7.378   0.375
64954W        W28711  14.743   0.819  14.476
64955W        W28712  13.324  20.644   0.404
64956W        W28713  17.067  34.071   4.306
64957W        W28714   6.700   3.829  13.993
64958W        W28715   4.858  41.892   2.859
64959W        W28716  29.515  12.703  12.975
64960W        W28717   3.854  30.494  11.893
64961W        W28718   1.888  13.225  12.835
64962W        W28719  43.769   6.409  13.423
64963W        W28720  32.431  22.552  11.506
64964W        W28721  34.978  39.031   1.770
64965W        W28722  37.891  36.949  11.373
64966W        W28723  15.165   9.358  12.488
64967W        W28724  36.847  40.009  14.803
64968W        W28725  23.203  24.168   0.783
64969W        W28726   1.467  35.935   3.684
64970W        W28727  18.556  40.938   2.409
64971W        W28728  14.705  39.895  12.866
64972W        W28729  41.006  14.616  13.857
64973W        W28730   5.932   9.172   0.455
64974W        W28731  19.720  29.151  11.497
64975W        W28732  39.914  33.568   1.778
64976W        W28733   8.176  35.553   3.776
64977W        W28734  41.932   8.185  12.983
64978W        W28735   0.403  35.042  12.949
64979W        W28736  10.222  11.280  10.589
64980W        W28737  43.321  20.064   2.813
64981W        W28738  33.400  24.179  13.376
64982W        W28739  13.618  33.604   1.776
64983W        W28740   2.813   2.262  13.803
64984W        W28741   9.752  42.927   2.230
64985W        W28742  43.513   4.739   1.935
64986W        W28743  17.596  17.243  10.429
64987W        W28744  13.627  17.588   0.320
64988W        W28745  15.704  38.997   1.426
64989W        W28746  20.062  18.579   0.754
64990W        W28747   6.893  22.196   0.377
64991W        W28748  26.472  25.658  14.470
64992W        W28749  32.135   5.795   5.211
64993W        W28750  27.605  19.098   2.353
64994W        W28751  29.610   5.905  12.055
64995W        W28752  35.036  21.531  10.896
64996W        W28753  28.548  26.687   4.823
64997W        W28754  39.945   9.853   4.315
64998W        W28755  31.568  30.587  12.999
64999W        W28756  32.939  32.607   0.477
65000W        W28757  34.040  22.096   1.787
65001W        W28758  20.064  20.213  10.644
65002W        W28759  26.951   4.922   1.256
65003W        W28760  29.003  26.177   0.802
65004W        W28761  29.936  30.003  13.003
65005W        W28762  41.294   5.819   0.884
65006W        W28763   3.764  33.571  10.563
65007W        W28764  19.253  32.941  10.919
65008W        W28765   6.778  40.527   9.938
65009W        W28766   1.385   1.871  12.043
65010W        W28767   9.689   3.403  12.471
65011W        W28768  41.524  26.156  13.988
65012W        W28769  18.594  32.452  14.429
65013W        W28770  40.925  37.932   2.788
65014W        W28771   9.391   2.252   0.477
65015W        W28772  39.369  28.595  11.425
65016W        W28773  22.719  39.488   3.245
65017W        W28774  12.345  16.744   2.185
65018W        W28775  20.062  22.164  14.442
65019W        W28776  31.494   8.208   0.876
65020W        W28777  32.013  18.780   0.751
65021W        W28778  39.434  36.521   0.434
65022W        W28779  23.670  13.609   0.939
65023W        W28780  11.325  40.911  14.991
65024W        W28781  38.431  35.951  13.034
65025W        W28782  23.988  16.774   2.354
65026W        W28783  18.596   2.347  14.319
65027W        W28784  42.931  38.419   9.934
65028W        W28785  38.365  31.643   3.244
65029W        W28786  31.475  30.026  10.037
65030W        W28787  39.542  21.237   2.387
65031W        W28788  22.153  14.314  13.380
65032W        W28789  41.869  25.528   1.349
65033W        W28790  13.333  35.480  11.498
65034W        W28791   1.839   0.931  12.431
65035W        W28792  22.075   6.709  11.112
65036W        W28793  20.048  30.623  12.505
65037W        W28794  16.684  18.779  13.853
65038W        W28795  23.622  33.996  13.380
65039W        W28796  36.582  11.631   3.690
65040W        W28797   8.857  19.608   4.341
65041W        W28798  26.489  11.764   3.727
65042W        W28799  37.454  39.875  12.865
65043W        W28800  33.596  26.203  10.628
65044W        W28801  19.106  12.353   2.234
65045W        W28802  24.557   1.869  11.091
65046W        W28803  26.617  25.195  14.933
65047W        W28804   2.845  15.114  11.035
65048W        W28805  43.491   1.890   4.640
65049W        W28806  43.855  33.102   1.854
65050W        W28807   5.374   1.745   4.689
65051W        W28808  20.675  35.433   9.928
65052W        W28809  39.417  38.463   3.849
65053W        W28810  33.456  26.108   4.777
65054W        W28811  40.999   6.880   2.223
65055W        W28812  26.606  37.003   0.853
65056W        W28813  12.623  33.430  13.058
65057W        W28814  27.070  35.037   3.720
65058W        W28815  38.476  39.025   0.427
65059W        W28816  36.941  22.203   1.733
65060W        W28817  25.207  38.517   0.945
65061W        W28818  27.584   4.759  13.805
65062W        W28819  18.659   6.342   3.798
65063W        W28820  21.125  12.774   1.814
65064W        W28821  13.320   2.344  14.322
65065W        W28822  33.080  32.111   2.828
65066W        W28823  44.772   0.896   1.415
65067W        W28824  44.927  13.817  13.004
65068W        W28825  30.495  25.535  10.597
65069W        W28826  14.248  38.007   0.453
65070W        W28827  10.682  38.455  13.887
65071W        W28828  42.442  17.134  13.353
65072W        W28829  25.666  19.621   2.851
65073W        W28830   9.702  42.986  10.983
65074W        W28831  25.602  17.133   4.344
65075W        W28832  40.909  20.084  10.480
65076W        W28833  15.309  12.785  13.825
65077W        W28834  22.021  38.007  14.028
65078W        W28835  16.238  21.043  10.948
65079W        W28836   0.395  33.011   1.451
65080W        W28837  44.499  18.631   2.696
65081W        W28838   4.943   3.858  10.617
65082W        W28839   7.734  40.810  14.475
65083W        W28840  20.156  38.362  12.880
65084W        W28841  32.516   2.387   0.373
65085W        W28842  18.126  41.297   4.614
65086W        W28843   8.793  29.048   0.334
65087W        W28844  27.689   5.426   0.389
65088W        W28845  32.007  25.523   3.802
65089W        W28846  34.432  12.792   4.255
65090W        W28847  23.642  43.796  10.643
65091W        W28848  24.602  43.296  14.828
65092W        W28849  33.527  13.818  12.016
65093W        W28850  20.669   2.318  13.349
65094W        W28851  13.199  14.254   2.233
65095W        W28852  21.570  15.629  13.526
65096W        W28853  20.710  12.695  10.098
65097W        W28854   5.821  23.603  14.809
65098W        W28855  22.006  34.599  13.837
65099W        W28856  31.062   7.755   4.142
65100W        W28857  14.293  11.844  10.928
65101W        W28858   3.804   0.782  11.097
65102W        W28859  23.020  40.945  14.514
65103W        W28860   5.826   6.362  10.490
65104W        W28861  35.403   6.313   2.265
65105W        W28862  40.875  32.898   0.767
65106W        W28863  15.329   8.228  10.532
65107W        W28864  42.935  33.570  13.881
65108W        W28865  38.000  40.856   4.665
65109W        W28866  13.212  41.821   1.362
65110W        W28867  32.557  24.100   0.760
65111W        W28868  35.090  21.120  12.507
65112W        W28869  36.393  37.840   4.753
65113W        W28870  11.622  11.654   0.776
65114W        W28871  13.267   4.719   4.289
65115W        W28872  32.978  26.043   0.908
65116W        W28873  40.400  26.107  12.405
65117W        W28874  22.504  11.157   3.825
65118W        W28875   9.718  29.979   1.705
65119W        W28876  38.541  20.674   2.275
65120W        W28877  39.338  16.185  12.483
65121W        W28878  18.584  28.110   1.271
65122W        W28879  19.131  12.184  11.861
65123W        W28880   5.298  20.124  13.499
65124W        W28881   2.918  11.738  14.358
65125W        W28882  33.045  12.120  13.325
65126W        W28883  15.209  30.091   1.737
65127W        W28884  12.747  14.661   0.871
65128W        W28885  10.665  34.107  10.590
65129W        W28886  40.500   2.924  12.077
65130W        W28887  31.614   1.479  12.028
65131W        W28888  38.545  27.511  10.482
65132W        W28889  13.613  15.589  14.421
65133W        W28890  23.104  44.290   2.892
65134W        W28891  26.989  13.236   1.254
65135W        W28892  34.414  37.905  14.806
65136W        W28893  32.437   1.886   4.674
65137W        W28894  36.536   0.870  10.961
65138W        W28895  23.592   1.929   4.832
65139W        W28896   8.344   0.835  14.282
65140W        W28897  19.250  44.313   0.936
65141W        W28898  19.264   0.448   0.915
65142W        W28899  44.485  41.936   1.327
65143W        W28900  25.671  11.830   0.443
65144W        W28901   2.817  36.862   3.851
65145W        W28902   7.253  26.643   2.355
65146W        W28903  24.006  41.411   4.740
65147W        W28904  15.136  27.555   2.342
65148W        W28905  27.467  34.112  13.030
65149W        W28906  28.181   6.274  12.933
65150W        W28907  39.868  14.224   4.622
65151W        W28908  31.032  27.985   1.357
65152W        W28909  21.671  17.559  13.370
65153W        W28910  25.623   5.285   4.128
65154W        W28911  39.829  33.394  13.919
65155W        W28912  44.403   1.296   4.265
65156W        W28913  16.240   2.954  11.429
65157W        W28914  38.847  14.667  11.070
65158W        W28915  33.067  13.687  14.282
65159W        W28916  18.112  21.539  12.346
65160W        W28917  27.046  17.555  11.461
65161W        W28918  37.908  35.868  12.447
65162W        W28919  40.435  19.769  14.899
65163W        W28920  37.921  16.684  10.064
65164W        W28921   6.335  41.910   0.961
65165W        W28922   6.788  10.372  14.311
65166W        W28923  39.452  17.245   4.771
65167W        W28924  27.961  44.916   3.651
65168W        W28925   4.350  13.242   2.215
65169W        W28926  26.093  13.201   3.812
65170W        W28927  10.378  43.372  14.985
65171W        W28928  26.606  42.413  14.802
65172W        W28929  22.230  25.175  12.833
65173W        W28930  32.016  10.858  10.973
65174W        W28931   7.352  44.468  13.319
65175W        W28932  32.432  27.631  13.015
65176W        W28933  27.045  26.471   2.749
65177W        W28934   7.709   4.853   0.793
65178W        W28935  31.029  28.606   1.847
65179W        W28936  20.595  25.554   3.191
65180W        W28937  40.044  15.782  14.437
65181W        W28938   6.693  25.710   1.440
65182W        W28939  12.788  17.191  14.906
65183W        W28940  13.221   0.480   4.124
65184W        W28941   1.317  29.067  12.462
65185W        W28942  26.606  24.506  10.529
65186W        W28943  29.484   9.344   4.327
65187W        W28944  18.153  29.920   3.297
65188W        W28945  22.605  10.766   0.293
65189W        W28946  30.493  11.129   4.314
65190W        W28947  17.734   6.764  13.331
65191W        W28948   1.285  13.648   2.732
65192W        W28949  27.508  19.235   4.668
65193W        W28950  20.178  42.945  13.517
65194W        W28951  39.452  41.010  10.465
65195W        W28952  17.093  36.868   2.666
65196W        W28953  36.398  24.142   0.748
65197W        W28954  36.934  31.918   1.881
65198W        W28955  16.810  43.923   0.474
65199W        W28956  29.515  32.549  12.094
65200W        W28957  26.514   8.296   4.767
65201W        W28958  35.028  16.127   0.758
65202W        W28959  16.685  18.734   0.889
65203W        W28960  37.455  26.544  13.006
65204W        W28961  15.753  23.068   2.842
65205W        W28962  23.541   7.685  13.936
65206W        W28963  43.386  39.385  14.887
65207W        W28964   3.448  16.773  12.367
65208W        W28965  33.061  19.672  12.580
65209W        W28966  18.136   5.237  12.000
65210W        W28967  14.280   4.917  12.579
65211W        W28968  43.824  44.361  10.102
65212W        W28969  15.160   2.726  14.379
65213W        W28970  41.016  27.447  14.948
65214W        W28971  42.377  13.696   4.701
65215W        W28972  23.140  27.499   1.809
65216W        W28973  25.557  41.973   2.369
65217W        W28974  44.342  35.074   2.194
65218W        W28975  18.610  18.202   4.796
65219W        W28976  42.808   1.736  10.574
65220W        W28977   4.215  27.034   2.225
65221W        W28978  44.443  32.598   4.674
65222W        W28979   9.841   2.276   0.348
65223W        W28980  35.507  44.490   2.678
65224W        W28981  43.904  15.715   3.629
65225W        W28982  16.696  33.601   4.285
65226W        W28983   6.353  13.659   1.443
65227W        W28984  23.174  17.182   1.794
65228W        W28985  10.202  18.788  10.071
65229W        W28986   9.769  13.703  14.807
65230W        W28987  30.595  20.738   2.225
65231W        W28988   1.418  18.778   3.715
65232W        W28989  14.705   2.272  11.926
65233W        W28990  36.491  20.143   0.381
65234W        W28991  43.834   4.886  12.412
65235W        W28992  29.434  40.831   1.402
65236W        W28993  25.523  24.098  12.894
65237W        W28994  21.243  26.538  12.504
65238W        W28995   9.338  43.309  14.946
65239W        W28996  34.586   0.442  13.516
65240W        W28997  29.624  27.583   2.405
65241W        W28998  43.418   5.932  12.892
65242W        W28999  43.316   3.803  13.463
65243W        W29000   2.342  41.466  14.280
65244W        W29001  43.510  17.573   0.299
65245W        W29002  16.218   7.171  13.991
65246W        W29003  14.209  17.260   4.729
65247W        W29004  22.247  31.919  14.376
65248W        W29005  33.001   3.292  13.931
65249W        W29006  34.475  39.400  11.470
65250W        W29007  42.433   9.229  10.978
65251W        W29008   7.328  40.490  12.981
65252W        W29009  32.617  36.085  14.971
65253W        W29010  14.722  42.951   1.276
65254W        W29011   9.253  14.713   4.701
65255W        W29012  42.333  18.116  12.023
65256W        W29013  26.544  27.553   4.787
65257W        W29014   6.286  41.844   1.397
65258W        W29015  37.454  16.157  13.040
65259W        W29016  32.456  39.503   0.350
65260W        W29017  13.247  19.742  10.470
65261W        W29018  38.820  41.301   2.283
65262W        W29019  12.649   0.406  14.981
65263W        W29020  28.620  17.620  12.088
65264W        W29021  31.091  38.364  13.990
65265W        W29022  19.542  22.640   0.841
65266W        W29023  34.888   4.411   2.308
65267W        W29024  18.773  14.612   1.327
65268W        W29025  40.468  17.142   4.788
65269W        W29026  29.141   0.294  14.863
65270W        W29027  17.715   6.204  11.886
65271W        W29028   0.265  17.728   2.673
65272W        W29029  16.263  28.451  11.509
65273W        W29030  18.222   5.342  13.547
65274W        W29031  15.165  32.008   4.835
65275W        W29032   9.691  14.179  11.013
65276W        W29033  37.890   0.943   2.745
65277W        W29034  25.166  16.108   1.899
65278W        W29035   2.243  26.052   4.139
65279W        W29036  35.859  21.183  13.890
65280W        W29037   4.848  21.533   4.828
65281W        W29038  17.783  21.229   0.766
65282W        W29039  44.477  13.749  12.362
65283W        W29040   0.425  37.931   0.758
65284W        W29041  11.343  26.527   2.790
65285W        W29042   1.254  44.417  13.434
65286W        W29043  12.242  18.258   0.781
65287W        W29044  16.744  22.172  12.990
65288W        W29045   5.817  40.049  10.926
65289W        W29046   2.367  23.132  13.404
65290W        W29047  28.660  30.586  13.887
65291W        W29048   5.403  42.876   3.853
65292W        W29049   2.239  39.940   2.266
65293W        W29050  39.537  15.604   0.271
65294W        W29051  40.012   0.271   4.263
65295W        W29052  27.446  11.653   1.305
65296W        W29053   9.860  27.053   0.269
65297W        W29054  24.500  21.101   3.284
65298W        W29055  11.791  24.044  10.941
65299W        W29056  44.929   0.887  12.518
65300W        W29057   6.186   1.391   1.216
65301W        W29058  28.463  38.888  13.333
65302W        W29059  40.904   8.372   0.749
65303W        W29060  30.659  39.957  11.060
65304W        W29061  25.004  44.982  10.895
65305W        W29062  21.101  23.712   4.601
65306W        W29063   9.757  10.370   0.743
65307W        W29064   2.287  39.959  13.812
65308W        W29065  29.116  24.002   4.349
65309W        W29066  23.523  43.988   2.833
65310W        W29067  15.747  20.107   4.191
65311W        W29068  11.370  26.560   2.199
65312W        W29069  31.600  28.157  13.541
65313W        W29070   8.825   7.680   3.640
65314W        W29071  28.540  25.509  11.892
65315W        W29072   1.259   8.245  11.907
65316W        W29073  16.293  29.055   0.884
65317W        W29074  30.984  20.199   0.902
65318W        W29075  17.601  20.061   0.481
65319W        W29076  25.682   6.834   0.803
65320W        W29077  35.506  33.881  13.363
65321W        W29078  27.062  13.162  11.517
65322W        W29079  13.721  35.060   4.821
65323W        W29080  14.591  15.589  10.953
65324W        W29081  24.988   1.346   2.772
65325W        W29082  36.499  23.588   3.827
65326W        W29083   6.885  14.708  14.770
65327W        W29084  42.865  21.553  11.908
65328W        W29085  23.137  28.956  10.572
65329W        W29086  29.539  35.533   1.721
65330W        W29087   2.735  12.779   1.419
65331W        W29088   3.915   1.301  12.493
65332W        W29089  13.805  24.160   0.891
65333W        W29090  27.979  42.830  11.587
65334W        W29091  35.959  27.448   0.862
65335W        W29092  17.741  28.631  13.022
65336W        W29093  10.716   0.891  11.463
65337W        W29094  15.793  27.485   3.213
65338W        W29095  12.626   5.386   1.444
65339W        W29096  27.159  18.631  11.569
65340W        W29097  27.497  20.046   2.689
65341W        W29098  24.037  18.099  10.111
65342W        W29099  31.577  16.156   4.197
65343W        W29100   7.899  33.082  11.042
65344W        W29101   7.355  41.367   2.194
65345W        W29102  44.846  19.052   1.302
65346W        W29103  21.683  13.833   3.385
65347W        W29104   0.425  24.591   3.697
65348W        W29105  17.764  33.960  13.050
65349W        W29106  26.116  42.940  13.865
65350W        W29107  39.386  14.169  12.026
65351W        W29108  10.309   8.682   4.693
65352W        W29109  36.445  27.119  12.913
65353W        W29110  14.107  27.160   4.800
65354W        W29111  40.862  18.727  14.993
65355W        W29112   5.195   8.836   5.115
65356W        W29113  30.944  14.245   0.890
65357W        W29114  11.260   5.925  12.856
65358W        W29115  13.740  37.940  14.385
65359W        W29116  16.209  33.115   1.259
65360W        W29117  36.498  13.732  10.642
65361W        W29118  11.696   9.338   1.298
65362W        W29119   9.876  23.584  12.039
65363W        W29120  14.232  31.122  14.851
65364W        W29121  40.035  44.986  11.113
65365W        W29122  33.603  13.261  11.568
65366W        W29123  25.626  10.144   4.228
65367W        W29124  32.594   5.336   4.691
65368W        W29125  36.382  19.735   1.231
65369W        W29126  26.595  38.332  13.358
65370W        W29127  37.404   4.447  13.898
65371W        W29128  43.805   8.682   4.696
65372W        W29129  34.955  15.296   1.261
65373W        W29130  31.952   9.718   4.810
65374W        W29131  14.812  18.290   3.350
65375W        W29132  42.338  20.687  13.333
65376W        W29133  41.426   5.788  14.818
65377W        W29134  18.548  44.001  11.502
65378W        W29135  36.082   9.840  13.421
65379W        W29136  24.221  43.284   4.713
65380W        W29137   1.294  23.725   3.682
65381W        W29138  24.161  25.495   4.776
65382W        W29139  35.871  38.467   2.688
65383W        W29140   9.780  37.451  14.318
65384W        W29141  21.168   5.704  14.313
65385W        W29142  32.003   1.949   0.351
65386W        W29143  40.903  25.207   4.663
65387W        W29144  35.376  11.656  12.507
65388W        W29145   7.384  25.045   0.326
65389W        W29146  26.147   3.403   2.301
65390W        W29147  14.273  32.394   1.322
65391W        W29148  37.863   5.250   1.781
65392W        W29149  25.582  36.371   1.339
65393W        W29150  24.599  15.253  14.792
65394W        W29151  20.683   2.880  12.073
65395W        W29152   6.716   2.249  14.505
65396W        W29153  14.151  26.177  11.460
65397W        W29154  14.589  34.383   3.703
65398W        W29155  32.030  40.408   2.729
65399W        W29156   8.746  22.165  13.852
65400W        W29157   0.763  36.399  10.639
65401W        W29158  16.643  14.101   3.864
65402W        W29159  11.815   4.377   3.169
65403W        W29160  13.812  41.438   3.717
65404W        W29161   4.703  15.214  10.911
65405W        W29162  10.286  38.522   2.673
65406W        W29163  11.844   8.295  14.939
65407W        W29164  39.911  20.243   4.671
65408W        W29165  26.534  14.621  10.600
65409W        W29166  31.906  11.226   2.819
65410W        W29167  17.199   2.305   5.222
65411W        W29168  28.039  29.934   2.854
65412W        W29169  42.005  16.156   4.144
65413W        W29170  32.970  39.924  11.884
65414W        W29171  43.885   4.924   3.866
65415W        W29172  18.619  10.721  13.544
65416W        W29173  31.612  26.648  10.928
65417W        W29174   0.304  38.477  12.973
65418W        W29175  33.048  24.596   4.153
65419W        W29176  35.365  39.832  14.942
65420W        W29177  43.423  33.978   1.358
65421W        W29178  23.617  27.140   1.345
65422W        W29179  13.157  44.860  11.073
65423W        W29180  24.157  35.543   9.922
65424W        W29181   3.281  32.131  10.081
65425W        W29182  42.864  14.146   0.940
65426W        W29183  32.569  25.536  10.479
65427W        W29184   6.890  31.140  11.430
65428W        W29185  41.430  18.056   0.907
65429W        W29186  19.171  13.664   1.745
65430W        W29187  27.677  44.320   2.718
65431W        W29188  27.510  33.573   3.818
65432W        W29189  13.845  21.520  13.909
65433W        W29190  43.298  31.048  11.912
65434W        W29191  34.459   4.736   3.267
65435W        W29192  39.931  37.402  10.516
65436W        W29193   9.358  40.385  11.927
65437W        W29194   9.707  15.677   0.832
65438W        W29195  42.835   4.442  13.385
65439W        W29196   0.887  19.737   0.391
65440W        W29197  22.607   4.756   0.933
65441W        W29198   5.197  44.465  14.294
65442W        W29199  35.513  39.331   3.846
65443W        W29200  26.466  18.091   4.692
65444W        W29201  41.504  40.839   3.233
65445W        W29202   3.407  29.111   0.865
65446W        W29203  10.707   6.185   4.597
65447W        W29204  34.498  37.006   1.385
65448W        W29205  42.815   6.407   1.213
65449W        W29206  27.963  36.868  14.514
65450W        W29207  44.759   4.747   0.438
65451W        W29208   8.229  22.590   2.796
65452W        W29209  25.986   2.286   4.828
65453W        W29210  19.224  32.513   5.322
65454W        W29211  40.951  32.893   3.297
65455W        W29212  25.219   9.846   4.233
65456W        W29213  20.719  31.032   3.165
65457W        W29214  44.905  22.717   3.819
65458W        W29215  17.690  17.281   2.337
65459W        W29216  28.180   0.466   0.934
65460W        W29217  33.074  41.474   2.380
65461W        W29218  31.605   0.290   3.765
65462W        W29219  11.228  12.662   2.385
65463W        W29220  24.213  19.252  10.417
65464W        W29221   8.896  23.681  12.991
65465W        W29222  27.197  30.049   1.865
65466W        W29223  24.999  30.456  13.939
65467W        W29224   6.812  27.119   0.251
65468W        W29225  25.693  27.164   3.356
65469W        W29226   3.830   4.800  14.868
65470W        W29227  12.263  20.556  10.532
65471W        W29228  18.580  22.071   2.394
65472W        W29229  38.958  22.697   4.827
65473W        W29230  27.515  28.646  11.973
65474W        W29231   3.341  20.132  12.523
65475W        W29232  44.324   3.815  11.481
65476W        W29233   7.785  21.115  12.846
65477W        W29234  22.224  19.080   3.318
65478W        W29235   9.815   5.408  11.509
65479W        W29236  32.973   2.869   1.923
65480W        W29237  22.165  23.709   2.271
65481W        W29238  21.125   9.344   2.709
65482W        W29239   4.850  16.284   4.149
65483W        W29240  27.147  10.873  14.914
65484W        W29241  27.128  37.565  13.922
65485W        W29242  14.321  15.729   4.122
65486W        W29243  39.450  15.125   3.635
65487W        W29244  44.907   2.761   2.223
65488W        W29245   3.941   9.388  12.392
65489W        W29246  13.805   2.352  12.495
65490W        W29247  25.618  41.450   4.278
65491W        W29248  41.925  17.141  11.053
65492W        W29249  36.097  20.213   3.776
65493W        W29250  29.547   4.229  12.355
65494W        W29251  14.597   0.815   1.920
65495W        W29252  31.965  10.723  10.490
65496W        W29253  27.603  37.480   2.361
65497W        W29254   8.857  42.395  12.030
65498W        W29255  16.098   5.912   1.443
65499W        W29256  18.145  21.087  10.926
65500W        W29257  32.551  38.836   0.890
65501W        W29258  36.841  31.454   4.748
65502W        W29259  21.206  40.416  14.420
65503W        W29260  31.471   2.283   4.319
65504W        W29261   7.867  20.623   2.369
65505W        W29262  38.922  29.574  13.902
65506W        W29263  10.142  35.869   9.954
65507W        W29264  29.174  28.945   3.321
65508W        W29265   4.758   3.354   3.312
65509W        W29266  12.267  11.135   0.753
65510W        W29267  21.587  25.508  14.916
65511W        W29268  11.789   5.694  12.051
65512W        W29269  36.592  32.918  14.276
65513W        W29270   3.750   9.184  10.964
65514W        W29271   9.388  28.006  12.871
65515W        W29272  32.621  44.879  10.535
65516W        W29273  36.535   9.259   1.750
65517W        W29274  13.133  31.064   1.892
65518W        W29275  34.077   2.882   4.686
65519W        W29276  43.429  10.824  11.126
65520W        W29277  42.955  27.482  12.454
65521W        W29278  27.513  17.136   4.351
65522W        W29279  16.171  42.967  12.578
65523W        W29280  18.164   9.159   2.299
65524W        W29281  22.093  11.704  10.903
65525W        W29282  36.452  38.558  14.349
65526W        W29283   7.250  35.871   4.700
65527W        W29284  31.598   3.720  12.074
65528W        W29285   3.740  43.341  13.478
65529W        W29286  19.284  33.077   5.212
65530W        W29287  22.698  12.671   2.685
65531W        W29288  32.622  11.726  14.026
65532W        W29289  33.517  24.100   4.255
65533W        W29290  40.305  24.142   0.276
65534W        W29291  19.210  40.446   4.352
65535W        W29292   6.188  44.471  10.608
65536W        W29293  24.077  37.936  10.472
65537W        W29294  12.207   0.896   1.742
65538W        W29295   5.318  25.054   0.474
65539W        W29296  25.653  39.485   0.310
65540W        W29297  37.029  26.701   2.798
65541W        W29298  42.319  37.430   1.318
65542W        W29299  18.626  12.694  10.516
65543W        W29300  39.510  24.133   4.817
65544W        W29301  20.273  10.210   1.702
65545W        W29302  34.873   7.332  11.899
65546W        W29303  11.779   8.751  12.389
65547W        W29304   0.443  30.424  13.933
65548W        W29305  33.962  19.223   1.296
65549W        W29306  20.715   5.433  10.893
65550W        W29307  30.557   1.404  12.928
65551W        W29308  22.157   7.822  13.346
65552W        W29309  32.959  36.983  13.020
65553W        W29310  33.874  11.186  13.020
65554W        W29311  17.279   5.701   4.149
65555W        W29312  31.920  31.995  13.999
65556W        W29313  30.049  16.594   4.729
65557W        W29314  18.594   7.407   4.751
65558W        W29315  13.621   9.858   0.380
65559W        W29316  24.209  25.602   0.397
65560W        W29317  40.911  29.937  12.359
65561W        W29318  14.160  28.509   3.685
65562W        W29319   9.772  35.529  10.513
65563W        W29320   8.797  34.441  14.969
65564W        W29321  30.453   5.277  14.478
65565W        W29322  26.136  35.444   1.830
65566W        W29323  10.696  25.206   4.305
65567W        W29324  23.139  39.818   4.129
65568W        W29325  21.693   4.339   4.818
65569W        W29326   9.280  27.001  14.796
65570W        W29327  38.040  30.559   1.417
65571W        W29328  33.009  33.032   0.466
65572W        W29329  14.125  13.716   4.722
65573W        W29330  35.366  23.712  13.323
65574W        W29331  13.154  10.151  13.428
65575W        W29332  35.367  10.842   3.146
65576W        W29333  32.966  34.403   0.451
65577W        W29334  14.257  32.505  11.106
65578W        W29335  15.124  26.186   4.651
65579W        W29336  40.412   1.447  12.480
65580W        W29337  39.525  15.721  14.817
65581W        W29338  37.479  18.178  11.492
65582W        W29339  27.541  17.600   0.953
65583W        W29340  31.974  22.601   3.364
65584W        W29341  28.030   2.328  13.411
65585W        W29342  32.526  22.672  14.843
65586W        W29343  37.468   8.746  12.358
65587W        W29344  28.114   2.877   3.156
65588W        W29345  24.039   6.819   2.890
65589W        W29346  27.097  20.201  12.875
65590W        W29347  31.015  27.091   2.298
65591W        W29348   5.711   4.387   2.414
65592W        W29349  38.543  36.059   4.347
65593W        W29350  26.060  24.182   4.134
65594W        W29351  19.572   7.184  10.891
65595W        W29352  12.212  28.662  12.968
65596W        W29353  37.459  23.692   3.836
65597W        W29354  33.970   5.415  10.156
65598W        W29355   1.364  22.502   0.397
65599W        W29356   6.264  29.064  13.499
65600W        W29357   5.904  38.012  12.463
65601W        W29358  30.027  16.161  13.839
65602W        W29359   9.716  40.997  11.410
65603W        W29360  11.784   6.232  11.912
65604W        W29361  21.623  26.610   3.779
65605W        W29362  23.622  10.309   0.350
65606W        W29363  41.851  17.195   5.185
65607W        W29364   0.870   4.439   1.211
65608W        W29365  30.014  37.934   1.408
65609W        W29366  37.995  17.620  11.446
65610W        W29367  41.516  27.157  10.543
65611W        W29368   0.948  16.238   0.913
65612W        W29369  36.051  37.390  14.350
65613W        W29370  11.318  31.961   4.664
65614W        W29371   5.348  15.768   1.376
65615W        W29372  27.100   3.926  13.462
65616W        W29373  17.273   9.304   4.692
65617W        W29374  26.208  36.051  14.284
65618W        W29375  15.160  30.551  12.355
65619W        W29376   0.934  31.581  10.610
65620W        W29377  12.654   5.929   2.243
65621W        W29378  18.780  25.552   4.281
65622W        W29379  13.817  39.334  10.494
65623W        W29380  42.482  17.796   4.734
65624W        W29381  10.816   2.758   0.438
65625W        W29382  19.545  17.767  14.010
65626W        W29383  18.745  26.962   1.441
65627W        W29384  13.120  39.936   4.217
65628W        W29385  34.952  23.676  14.363
65629W        W29386  38.842  22.504  14.396
65630W        W29387   9.154  43.952  10.415
65631W        W29388   8.748  41.340  13.880
65632W        W29389  22.504  42.991  13.804
65633W        W29390  35.101  12.828   1.307
65634W        W29391  21.611  41.492   2.237
65635W        W29392  24.519  40.454   4.151
65636W        W29393  12.175  40.482   2.331
65637W        W29394  19.638  40.335   1.793
65638W        W29395  14.591   1.925   3.370
65639W        W29396  30.090  39.848   4.746
65640W        W29397  28.117  23.567   0.843
65641W        W29398  13.702  11.822  12.901
65642W        W29399   0.783  34.889   3.253
65643W        W29400  30.581   1.382   1.752
65644W        W29401   9.822  20.136   4.281
65645W        W29402   3.928  41.337  14.345
65646W        W29403   2.882  26.079   1.932
65647W        W29404  26.549   2.938  13.035
65648W        W29405  29.026  38.967  12.070
65649W        W29406  39.957   4.225   4.827
65650W        W29407  21.562   5.286   0.802
65651W        W29408  20.632   3.891   4.235
65652W        W29409   0.343   1.880   1.849
65653W        W29410  35.870   7.880   1.923
65654W        W29411  27.514  43.449  13.839
65655W        W29412  18.683  33.591   2.730
65656W        W29413  35.549  26.629  14.014
65657W        W29414  13.773  26.588   2.715
65658W        W29415  23.644  40.942   2.285
65659W        W29416  13.240  36.572  10.583
65660W        W29417   8.163  13.618  14.847
65661W        W29418  18.554  44.829   3.672
65662W        W29419  29.982  44.839  14.870
65663W        W29420  21.193   6.298  11.494
65664W        W29421  42.788  24.627   2.763
65665W        W29422   0.974  35.462   0.916
65666W        W29423  38.020  21.744   2.367
65667W        W29424  16.689  28.491   2.887
65668W        W29425  10.370  12.731   1.322
65669W        W29426  10.689  13.715  14.459
65670W        W29427  10.170  20.160   3.691
65671W        W29428  30.606   5.328   3.368
65672W        W29429  20.237  42.934   2.729
65673W        W29430  13.629  23.590   4.653
65674W        W29431  31.539  14.298  10.432
65675W        W29432  38.379  11.174   3.358
65676W        W29433   8.295  37.929   0.803
65677W        W29434  33.089  32.084  13.462
65678W        W29435   7.397  35.524  10.443
65679W        W29436  10.873  14.327   5.186
65680W        W29437   8.277  27.450   2.380
65681W        W29438  43.015  13.116  11.906
65682W        W29439   2.329  25.488   0.424
65683W        W29440  23.988   8.401   3.182
65684W        W29441  25.149  39.442   1.905
65685W        W29442   2.407  13.322  12.008
65686W        W29443  32.427   4.791   5.696
65687W        W29444  39.360   3.291  13.489
65688W        W29445  29.519  31.990   0.417
65689W        W29446   0.931  19.779  12.043
65690W        W29447  19.047  20.267  11.988
65691W        W29448  37.563  18.608   0.756
65692W        W29449  21.049  26.164  11.565
65693W        W29450  31.599  15.592   2.387
65694W        W29451   4.704   0.468  12.440
65695W        W29452   7.815  29.138   2.258
65696W        W29453  34.544   5.201   3.362
65697W        W29454  39.489   5.891  12.421
65698W        W29455  38.855  33.591   0.921
65699W        W29456  24.532   6.427  10.619
65700W        W29457  44.344  10.848  12.568
65701W        W29458   0.331  16.107   0.830
65702W        W29459  29.080   8.864  11.583
65703W        W29460  12.839  11.356  12.537
65704W        W29461   8.763   9.806   1.256
65705W        W29462  28.152   4.768   2.355
65706W        W29463   5.715  20.700  11.434
65707W        W29464   7.274  20.064  14.464
65708W        W29465   2.411   2.763   0.369
65709W        W29466  39.425  42.776   3.291
65710W        W29467  15.735  36.069   2.381
65711W        W29468  10.658   8.274   4.779
65712W        W29469  22.149  13.249  14.512
65713W        W29470   0.313  42.820   4.342
65714W        W29471  43.411  19.078   1.857
65715W        W29472  40.039   1.262  12.000
65716W        W29473   1.376  30.022   1.819
65717W        W29474   2.963  36.475   1.728
65718W        W29475  10.643   7.355  10.629
65719W        W29476  13.760   4.422  14.029
65720W        W29477  41.319   1.747  13.932
65721W        W29478  33.084   4.358   2.377
65722W        W29479  22.724  16.752   3.174
65723W        W29480   4.363  28.520   1.909
65724W        W29481  10.160   9.222  14.872
65725W        W29482   5.263  35.411   2.383
65726W        W29483  29.092  29.960  14.413
65727W        W29484  21.162  11.280  11.380
65728W        W29485  26.480  13.105  14.900
65729W        W29486  11.133   9.696   2.401
65730W        W29487   4.880   6.304  14.949
65731W        W29488  12.784  41.967  14.011
65732W        W29489  40.412  21.100   0.269
65733W        W29490   4.763  42.399  13.544
65734W        W29491   0.384  30.043  12.508
65735W        W29492  38.514  19.712  12.981
65736W        W29493   2.284  31.931  12.358
65737W        W29494  10.175   4.784   1.220
65738W        W29495  17.119  43.979  12.353
65739W        W29496  17.127  35.014  11.390
65740W        W29497   3.228  14.099  10.897
65741W        W29498   5.337   5.788   3.311
65742W        W29499  37.982  19.684  11.502
65743W        W29500  22.560  26.593  13.805
65744W        W29501  35.577  30.624   4.816
65745W        W29502  25.209   0.492  10.963
65746W        W29503   4.420   4.299  11.937
65747W        W29504  31.644   5.314   9.516
65748W        W29505  25.196   8.837   5.179
65749W        W29506   1.786  21.252  13.924
65750W        W29507  30.131   4.341  14.792
65751W        W29508  39.357  38.900   1.749
65752W        W29509  26.533  10.645   3.779
65753W        W29510   8.174  28.949   2.282
65754W        W29511  34.421  33.943   2.899
65755W        W29512  31.917  24.502  13.446
65756W        W29513  23.599   1.828   3.345
65757W        W29514  42.353   0.942   2.292
65758W        W29515  28.541  10.829   1.281
65759W        W29516  34.968   2.340  11.116
65760W        W29517  37.984  37.339   4.769
65761W        W29518  17.579  10.789  10.592
65762W        W29519  42.361  29.590   3.263
65763W        W29520   3.415  36.864   0.764
65764W        W29521  28.142  36.558  12.527
65765W        W29522  24.504  41.975   0.405
65766W        W29523  39.836  15.616  10.026
65767W        W29524  12.167  23.068   3.841
65768W        W29525  16.278   6.790   4.161
65769W        W29526   6.723   3.256  11.046
65770W        W29527   1.361  44.863   4.169
65771W        W29528   7.870  15.651   4.806
65772W        W29529  10.167  15.167   1.869
65773W        W29530  28.185  34.111  13.064
65774W        W29531  40.019   4.887  11.546
65775W        W29532  23.038  14.762  11.120
65776W        W29533  25.052   4.893  10.993
65777W        W29534   8.170  21.610  11.547
65778W        W29535   0.326   6.186  12.398
65779W        W29536  43.441  39.823   2.877
65780W        W29537   1.256   9.764   2.708
65781W        W29538  21.052  17.696  14.280
65782W        W29539  43.395  18.218  13.471
65783W        W29540  35.924   6.213   4.783
65784W        W29541  32.555  30.529  14.960
65785W        W29542  33.608   3.818  12.933
65786W        W29543  14.218  44.945   4.209
65787W        W29544  23.156  11.270  12.081
65788W        W29545   5.867  16.683   2.870
65789W        W29546   6.785  10.848   1.225
65790W        W29547   6.228   0.953  11.977
65791W        W29548  15.231  36.870  12.917
65792W        W29549  36.534  42.428   3.630
65793W        W29550  10.699   8.842  10.629
65794W        W29551  31.079  18.785   2.850
65795W        W29552  13.736  44.912   2.816
65796W        W29553   2.424   5.375  12.854
65797W        W29554  35.383  28.653  10.953
65798W        W29555  26.025  23.067   3.659
65799W        W29556  30.921   8.800   0.285
65800W        W29557  14.137   0.831  12.436
65801W        W29558  21.742  22.999   4.278
65802W        W29559   5.801   9.247  14.319
65803W        W29560  16.689  44.955   0.325
65804W        W29561  35.063  17.187   0.951
65805W        W29562  20.050  35.483  11.505
65806W        W29563   6.722  34.988  10.480
65807W        W29564  11.304  42.393  14.377
65808W        W29565  37.897  27.564  13.320
65809W        W29566  20.730  32.986  14.487
65810W        W29567  41.990  11.718  13.387
65811W        W29568  25.040  16.292  11.858
65812W        W29569   9.339  29.033  11.960
65813W        W29570   1.757  15.090   1.776
65814W        W29571   2.242  21.024  14.926
65815W        W29572  20.222  27.152  13.996
65816W        W29573  14.779  20.252   4.260
65817W        W29574   6.766  11.252  14.431
65818W        W29575  21.112   0.492   3.224
65819W        W29576  13.707  10.846   3.683
65820W        W29577   6.921  40.379   0.375
65821W        W29578  26.465  37.383  14.299
65822W        W29579   6.333  41.884   1.694
65823W        W29580   6.299  11.779  12.855
65824W        W29581   1.887  11.652   4.726
65825W        W29582  23.191   7.778   4.283
65826W        W29583  23.112  14.664   2.777
65827W        W29584   0.887  40.539   3.827
65828W        W29585   0.378  35.395   4.713
65829W        W29586  31.430   1.312  10.098
65830W        W29587  28.629  31.009  13.984
65831W        W29588   0.909  30.089   3.707
65832W        W29589  25.516   7.311  14.019
65833W        W29590  17.225  37.919  14.960
65834W        W29591  41.034  19.605  11.045
65835W        W29592  15.638  19.081  12.451
65836W        W29593  32.908  23.091   1.382
65837W        W29594   6.380  44.353   1.934
65838W        W29595  25.706   0.844   3.229
65839W        W29596  38.841   3.429  12.987
65840W        W29597  25.517   9.647  11.893
65841W        W29598  42.354   5.730   1.728
65842W        W29599  25.672  38.439  10.444
65843W        W29600  28.952  30.061   1.418
65844W        W29601  24.671  20.702   4.310
65845W        W29602  40.805  28.945  12.943
65846W        W29603   0.283  37.563  11.007
65847W        W29604  31.997  23.533   0.373
65848W        W29605   8.231  38.462  13.889
65849W        W29606  37.883   8.369   0.280
65850W        W29607  20.754  24.716   0.409
65851W        W29608  40.883   8.735  14.944
65852W        W29609  11.171  29.968   4.737
65853W        W29610  30.918  25.706  11.062
65854W        W29611  28.087  42.296   3.867
65855W        W29612  24.994  17.292   4.322
65856W        W29613   8.176  12.642  12.427
65857W        W29614  23.650  42.320   4.136
65858W        W29615   1.961  35.979   4.686
65859W        W29616  20.091   8.679   5.224
65860W        W29617  17.682  23.594  13.434
65861W        W29618  11.258  17.097  14.284
65862W        W29619  28.995  44.791   0.466
65863W        W29620  38.022  33.435  10.150
65864W        W29621  10.647  10.220  10.999
65865W        W29622  38.870  24.524  14.463
65866W        W29623   8.785   8.354  11.015
65867W        W29624  10.633  30.621  11.375
65868W        W29625  35.905   0.375  14.412
65869W        W29626  30.119  40.843   2.779
65870W        W29627  40.934  15.187   4.174
65871W        W29628  15.255  43.807  14.889
65872W        W29629  34.899  10.314   0.379
65873W        W29630   3.954  40.950  14.352
65874W        W29631   6.207  42.024  13.009
65875W        W29632  22.996  33.951   2.215
65876W        W29633  27.593  11.354  10.634
65877W        W29634  21.237  18.734  12.995
65878W        W29635  13.620   8.791   1.350
65879W        W29636  15.170  40.410   4.146
65880W        W29637  18.288  39.470  14.512
65881W        W29638  21.576  34.995   2.878
65882W        W29639  39.518  37.938  14.961
65883W        W29640  11.680   1.750  10.002
65884W        W29641  41.325  14.817  11.995
65885W        W29642  20.182   3.300  12.341
65886W        W29643  19.244  22.124  11.583
65887W        W29644  14.142  26.626  11.453
65888W        W29645  26.156  17.747  10.001
65889W        W29646  14.698  26.052  12.826
65890W        W29647  27.523  25.702   3.855
65891W        W29648  10.266  27.943  11.553
65892W        W29649  26.169  25.087   2.879
65893W        W29650   4.416  14.180  14.318
65894W        W29651  18.081   3.325  14.826
65895W        W29652  42.518   2.816  11.891
65896W        W29653   0.316  14.125  11.982
65897W        W29654  36.976  26.515   3.163
65898W        W29655   4.853  39.557  13.888
65899W        W29656  33.060  10.207  13.883
65900W        W29657   8.282  35.521  11.397
65901W        W29658  21.187  33.889   1.759
65902W        W29659  37.440  33.904   1.906
65903W        W29660   5.319  28.064   9.961
65904W        W29661  44.289  29.141   4.157
65905W        W29662  21.591  23.046  14.847
65906W        W29663  14.834   6.885  13.432
65907W        W29664  38.340  24.507  10.904
65908W        W29665  27.079  43.971   2.863
65909W        W29666  11.318  37.045   3.742
65910W        W29667  26.997  44.996   0.352
65911W        W29668  40.918  28.530  13.825
65912W        W29669  20.040  34.558   1.247
65913W        W29670  16.792  20.238  10.446
65914W        W29671   3.418  11.148   3.193
65915W        W29672   9.785  15.254  13.433
65916W        W29673  44.780  29.075   4.255
65917W        W29674  12.355  30.478  10.956
65918W        W29675  21.588   2.355   1.785
65919W        W29676  29.107  42.012   1.256
65920W        W29677   0.971  26.469  12.451
65921W        W29678  39.427   0.888   0.958
65922W        W29679  22.201  30.533  14.491
65923W        W29680  44.442   3.313   2.223
65924W        W29681  10.308   7.401  13.827
65925W        W29682  26.537  18.239  14.018
65926W        W29683  32.432   9.677   3.652
65927W        W29684  34.897   0.926   2.835
65928W        W29685  16.296   9.882  14.794
65929W        W29686  40.533  33.876  11.895
65930W        W29687  35.010  35.936  11.123
65931W        W29688   5.883   1.426   3.240
65932W        W29689  24.218  31.455  12.835
65933W        W29690   7.901  19.637   0.286
65934W        W29691  41.374  22.081   0.428
65935W        W29692  27.034   6.743  12.428
65936W        W29693  16.260  11.278  10.428
65937W        W29694  36.384   1.757   3.200
65938W        W29695  28.643  22.548  11.571
65939W        W29696  18.060   7.676   2.328
65940W        W29697  36.864  39.544  14.354
65941W        W29698  30.078  26.510  14.322
65942W        W29699   3.805   8.754   2.802
65943W        W29700   3.231  28.957  12.424
65944W        W29701  12.203  33.490  12.933
65945W        W29702  17.605  11.635  14.307
65946W        W29703  16.078   7.223   2.376
65947W        W29704   7.837  34.485   3.346
65948W        W29705   5.728  31.532   3.686
65949W        W29706   4.922  14.208   0.768
65950W        W29707  38.390  11.211   1.794
65951W        W29708  26.083  32.979   1.330
65952W        W29709  18.183  42.016  12.567
65953W        W29710  15.753  19.710   3.684
65954W        W29711  38.841  38.492  11.940
65955W        W29712  31.149  34.863   2.884
65956W        W29713  33.018  31.450   4.635
65957W        W29714  24.641  16.793  12.074
65958W        W29715  10.742  27.596  11.927
65959W        W29716  24.182  27.165   4.670
65960W        W29717  10.384  20.079   1.813
65961W        W29718  12.242  13.207  13.998
65962W        W29719   9.191  25.116   1.337
65963W        W29720  16.670  22.679  13.954
65964W        W29721  20.763  21.626   3.642
65965W        W29722  36.553   6.372  12.958
65966W        W29723  12.309  10.155   3.164
65967W        W29724  16.214   2.349   0.418
65968W        W29725  41.846   3.796   5.240
65969W        W29726  20.063   4.848   4.660
65970W        W29727  15.752  10.818  11.612
65971W        W29728  35.074  42.427   4.815
65972W        W29729  10.307  16.628   2.733
65973W        W29730  32.500  36.440  12.016
65974W        W29731  13.776   7.277  12.976
65975W        W29732   4.230  28.583   2.857
65976W        W29733  21.721  21.578  10.604
65977W        W29734   0.326  16.786   3.806
65978W        W29735  26.495  20.600   4.665
65979W        W29736  24.622   7.373   0.761
65980W        W29737   6.313  42.886   3.662
65981W        W29738  11.708  32.976  12.402
65982W        W29739   4.821  11.733  12.495
65983W        W29740  40.956  20.697   0.383
65984W        W29741  20.656   3.291   2.714
65985W        W29742  34.545  28.564   1.758
65986W        W29743  14.750  35.604  12.912
65987W        W29744   9.262   9.703  11.518
65988W        W29745  33.410  16.737  11.569
65989W        W29746  32.571   2.747  11.608
65990W        W29747  19.243  32.634   1.335
65991W        W29748  19.668   9.305  12.441
65992W        W29749   1.362  28.136   4.799
65993W        W29750  17.625  35.362   1.886
65994W        W29751  22.017   3.399   0.242
65995W        W29752   5.859  34.499  14.493
65996W        W29753  30.982  36.490   0.734
65997W        W29754   4.241   7.293   2.389
65998W        W29755  35.922  13.189   3.837
65999W        W29756  42.335  23.646  11.401
66000W        W29757  37.496   7.208  11.110
66001W        W29758   2.910  28.085  11.879
66002W        W29759  31.439  42.849  11.098
66003W        W29760  35.906  27.644   1.898
66004W        W29761  33.386  44.960  11.537
66005W        W29762  39.482  36.990   3.735
66006W        W29763  41.447  39.377   4.353
66007W        W29764  27.088   2.350   3.327
66008W        W29765  11.634   0.253   0.757
66009W        W29766   2.829  21.652   0.753
66010W        W29767  31.646  30.519  10.589
66011W        W29768  10.857  19.215  11.887
66012W        W29769   7.303  32.550   3.795
66013W        W29770  30.131  33.998  12.471
66014W        W29771  20.674  27.564  14.929
66015W        W29772  17.148   5.723  11.900
66016W        W29773  29.068  34.961  14.468
66017W        W29774  25.697  39.016  14.961
66018W        W29775  19.087   8.890   0.844
66019W        W29776   7.842   0.878  11.421
66020W        W29777  15.679  30.961   4.659
66021W        W29778  40.026  39.940  11.425
66022W        W29779  44.000  34.932   4.675
66023W        W29780  39.503  33.626  12.900
66024W        W29781  27.541   7.251   2.181
66025W        W29782  33.038   7.760  14.471
66026W        W29783  11.234   0.889  10.535
66027W        W29784  30.413  36.979   3.365
66028W        W29785  27.962   3.401   4.116
66029W        W29786   8.273  39.995  12.934
66030W        W29787  44.973  19.180  11.549
66031W        W29788  30.533  13.180   1.928
66032W        W29789  43.387  41.398   1.735
66033W        W29790  42.892  21.580   2.821
66034W        W29791  19.084  27.109   1.261
66035W        W29792  23.236  26.530   2.719
66036W        W29793  35.359  27.182   4.197
66037W        W29794   7.683   6.313   1.838
66038W        W29795  22.650  30.981  13.895
66039W        W29796  14.157  11.689  11.573
66040W        W29797  43.366  24.712   0.398
66041W        W29798  36.539  17.110  10.616
66042W        W29799  12.839  23.670  12.391
66043W        W29800  11.152   7.289  14.384
66044W        W29801  29.595  11.778   3.168
66045W        W29802  38.021   5.890  14.856
66046W        W29803   4.215   0.829   2.329
66047W        W29804   1.772  12.672   3.322
66048W        W29805  14.222  21.076  13.819
66049W        W29806  31.571   6.881  11.883
66050W        W29807   3.223  24.190  13.819
66051W        W29808  26.975  44.942  13.341
66052W        W29809  42.301  39.488  12.350
66053W        W29810  38.972  36.996  10.541
66054W        W29811  19.049   3.724   2.701
66055W        W29812  28.127  21.686   4.330
66056W        W29813  31.519   8.799   0.921
66057W        W29814   6.881  29.538   0.953
66058W        W29815  34.499  16.243  10.443
66059W        W29816  41.957  34.419   1.767
66060W        W29817  30.978   3.743  14.958
66061W        W29818  42.432   5.788  12.481
66062W        W29819  28.587  23.177  12.474
66063W        W29820  35.925  29.015  11.588
66064W        W29821  12.684  11.175   1.350
66065W        W29822  40.893  17.568   1.864
66066W        W29823  44.499  18.152  12.912
66067W        W29824  11.669   4.324   0.854
66068W        W29825  39.027   7.375   0.926
66069W        W29826   6.852   0.313  13.988
66070W        W29827  15.090  32.602   1.763
66071W        W29828   4.398  36.947   0.763
66072W        W29829  33.557  34.431  13.960
66073W        W29830  43.935  16.240   2.796
66074W        W29831  41.030  25.484  14.310
66075W        W29832  27.538  29.524  13.532
66076W        W29833  34.470  35.436   1.897
66077W        W29834  20.203   8.210   0.447
66078W        W29835  16.790  11.258  11.585
66079W        W29836  10.722  29.666  11.462
66080W        W29837  16.195   8.657   1.901
66081W        W29838   4.401  18.175   2.273
66082W        W29839  41.814  41.340  12.881
66083W        W29840  43.414  36.532  10.405
66084W        W29841  15.093  38.849  12.849
66085W        W29842  14.174  42.476   2.850
66086W        W29843  36.056  21.257  12.415
66087W        W29844  42.005  30.962  13.440
66088W        W29845  36.857   9.728  10.899
66089W        W29846   3.945  13.614   3.643
66090W        W29847  19.197  43.006  13.385
66091W        W29848  15.768  29.138  10.993
66092W        W29849  25.667   6.861  13.897
66093W        W29850  17.636  23.162   3.655
66094W        W29851  21.535  33.384   0.285
66095W        W29852  14.772   8.686  11.119
66096W        W29853  35.371  39.408  11.474
66097W        W29854   9.888  17.648  11.557
66098W        W29855  26.089  41.015  13.895
66099W        W29856  34.541   8.242   0.787
66100W        W29857  20.589   3.780   2.190
66101W        W29858  10.362  18.204   0.902
66102W        W29859  27.101  11.164  14.483
66103W        W29860  26.622  27.502  11.129
66104W        W29861   7.208   6.742  14.275
66105W        W29862   4.739  28.963  10.118
66106W        W29863   5.772  26.504  11.011
66107W        W29864  29.596  18.192  14.481
66108W        W29865  12.306  22.720   2.893
66109W        W29866  18.113  12.135   2.357
66110W        W29867  19.548  23.240  12.880
66111W        W29868  19.772  10.693   0.764
66112W        W29869  38.455  40.488  14.494
66113W        W29870  24.003  21.586   0.305
66114W        W29871  19.770  12.629   4.135
66115W        W29872  21.520   7.739  12.054
66116W        W29873   5.201  44.798  11.607
66117W        W29874  18.293  23.155   0.265
66118W        W29875  20.091   8.250   3.258
66119W        W29876  44.969   6.808  11.020
66120W        W29877   4.801  25.623  11.553
66121W        W29878   6.716  25.485  13.339
66122W        W29879  31.066  42.422  14.467
66123W        W29880   8.810  18.134  12.485
66124W        W29881  29.535  10.148  14.809
66125W        W29882  42.993  21.206   4.174
66126W        W29883  27.446  17.111   2.362
66127W        W29884  15.288   2.867   0.780
66128W        W29885  26.148   6.686  13.377
66129W        W29886  29.625  13.656   3.677
66130W        W29887  42.922  18.670   0.732
66131W        W29888   5.203  14.695   3.160
66132W        W29889  35.018  27.583  13.406
66133W        W29890   4.305  44.989   3.710
66134W        W29891   5.706  29.963   0.780
66135W        W29892  33.890  17.783  11.535
66136W        W29893  37.377  40.046   4.828
66137W        W29894   9.362   7.743  11.088
66138W        W29895  20.623  15.800   1.240
66139W        W29896  25.206  31.991   1.859
66140W        W29897   7.401   1.963   0.920
66141W        W29898  26.196  10.286   1.391
66142W        W29899   8.670  27.125  13.467
66143W        W29900  11.854  17.784  11.534
66144W        W29901   2.257  44.826  11.999
66145W        W29902  39.417  42.415  12.526
66146W        W29903   3.827  18.763   0.344
66147W        W29904  40.954  16.276   0.959
66148W        W29905  17.660  12.269   9.545
66149W        W29906  15.097  14.268   2.735
66150W        W29907  26.077  27.593  11.890
66151W        W29908  40.928   1.462   0.826
66152W        W29909  28.453  22.095   0.766
66153W        W29910  38.041   8.832   0.735
66154W        W29911  38.044  13.134   4.733
66155W        W29912  34.526  41.332  11.100
66156W        W29913  28.527  28.104   3.818
66157W        W29914  32.909   8.894   2.375
66158W        W29915  43.884  44.938   2.250
66159W        W29916  29.434  40.351  13.458
66160W        W29917   7.876  34.001   3.858
66161W        W29918  38.339   2.760  11.418
66162W        W29919  14.102  16.768   4.250
66163W        W29920  26.521  39.818   4.325
66164W        W29921  42.862  13.181  10.492
66165W        W29922  25.478   7.312  14.958
66166W        W29923  29.565  44.416   3.705
66167W        W29924  22.101  36.986   1.287
66168W        W29925  17.139  22.635  10.436
66169W        W29926  34.094  37.842   3.180
66170W        W29927  14.603  20.034   0.848
66171W        W29928  44.489   1.862   3.201
66172W        W29929   6.841  33.414   4.616
66173W        W29930  20.750  32.566   3.182
66174W        W29931  17.210   9.213  11.025
66175W        W29932  35.554  14.319  11.102
66176W        W29933  35.470  10.655   2.373
66177W        W29934   8.864  17.753   1.419
66178W        W29935  18.685  16.764  10.080
66179W        W29936  40.525   5.334   4.345
66180W        W29937   0.969  20.033  11.594
66181W        W29938   6.684   1.399  11.062
66182W        W29939  33.009  30.430   3.769
66183W        W29940  24.127   6.390  11.580
66184W        W29941  23.558  33.914  10.413
66185W        W29942  41.479   8.208  12.434
66186W        W29943  40.996  32.891  14.453
66187W        W29944  16.687  23.679  13.428
66188W        W29945  15.326   8.164  14.025
66189W        W29946  39.557   8.742  10.615
66190W        W29947  19.154   6.303  13.888
66191W        W29948  32.122  24.685   4.837
66192W        W29949  36.061  10.286  10.985
66193W        W29950  23.730  15.183  14.373
66194W        W29951  24.209  19.284  12.090
66195W        W29952  38.399  28.674  11.023
66196W        W29953  15.263  37.404   1.862
66197W        W29954   9.153  11.697  12.986
66198W        W29955  23.531  39.959  14.472
66199W        W29956  34.007  38.925   3.169
66200W        W29957  44.277  39.858  13.831
66201W        W29958  28.034  22.721   1.714
66202W        W29959  41.867   3.397  11.971
66203W        W29960  37.958  23.181   2.272
66204W        W29961  37.404  27.154  10.966
66205W        W29962   0.988  20.172   4.747
66206W        W29963  37.081  21.597  13.954
66207W        W29964  28.106  19.159   0.729
66208W        W29965  31.644   5.931   5.802
66209W        W29966  34.930  15.309   2.679
66210W        W29967   1.778   1.887   4.143
66211W        W29968   7.368  13.305  13.316
66212W        W29969   4.763  13.222  10.512
66213W        W29970  33.905   9.715  14.788
66214W        W29971  32.535  38.984  13.448
66215W        W29972   3.294  18.256  11.867
66216W        W29973   7.831  21.591   2.383
66217W        W29974  16.156  15.803  11.371
66218W        W29975  34.492  26.647  11.438
66219W        W29976   0.330  17.111  12.357
66220W        W29977  43.372  30.953  12.351
66221W        W29978   6.889  17.162   3.813
66222W        W29979   0.250   2.759  14.383
66223W        W29980  36.357   1.929   2.669
66224W        W29981  30.068  35.029   2.704
66225W        W29982  25.502   7.220   0.893
66226W        W29983  38.383  31.638  13.042
66227W        W29984  44.800   4.849   1.879
66228W        W29985  38.989  33.475  13.012
66229W        W29986  29.593  17.302   0.453
66230W        W29987  27.970  10.334  13.407
66231W        W29988  31.081  20.166   1.846
66232W        W29989  44.321   5.248  13.892
66233W        W29990   3.881  24.035  12.449
66234W        W29991   4.851  28.166   2.308
66235W        W29992   9.730   0.308  12.530
66236W        W29993  38.980  30.013  10.479
66237W        W29994  42.858   8.706   4.703
66238W        W29995  30.568  19.122  12.519
66239W        W29996  32.526  27.954  12.345
66240W        W29997  16.122  31.035   0.252
66241W        W29998   1.943  10.380   4.766
66242W        W29999  37.351  17.716  14.797
66243W        W30000  27.658  37.467  10.138
66244W        W30001  39.057  31.969   2.280
66245W        W30002  24.653  15.108   2.733
66246W        W30003   4.408  13.116   2.805
66247W        W30004  34.929  19.537   2.304
66248W        W30005  20.682   1.317   2.808
66249W        W30006   3.422   2.384   1.902
66250W        W30007  19.179  13.329  13.443
66251W        W30008   1.752   2.248   4.310
66252W        W30009  29.148  26.638   4.785
66253W        W30010  16.781  11.767   0.887
66254W        W30011  18.596  43.971  10.546
66255W        W30012  39.550  20.265   4.311
66256W        W30013   9.300  35.557   1.920
66257W        W30014   5.275  33.029  11.886
66258W        W30015  21.659  40.494  14.279
66259W        W30016  15.125  10.787   3.159
66260W        W30017   0.326   2.368   2.846
66261W        W30018   9.669  23.152  14.798
66262W        W30019  33.574  21.619   0.755
66263W        W30020  18.629  12.174  10.014
66264W        W30021  15.093  34.600  14.935
66265W        W30022  28.601  22.710  14.805
66266W        W30023  14.166  19.164   2.884
66267W        W30024   3.374  40.036  12.013
66268W        W30025  29.593  12.295   4.330
66269W        W30026   0.807   7.850   2.782
66270W        W30027  25.162  20.616  11.079
66271W        W30028  29.467  24.009  13.802
66272W        W30029  28.471  20.726   1.363
66273W        W30030  37.434   0.841  12.436
66274W        W30031  27.094  34.976  10.615
66275W        W30032  17.224  38.027  14.427
66276W        W30033  32.399  30.030  11.958
66277W        W30034  10.793  41.848  11.913
66278W        W30035  42.375  32.136  12.395
66279W        W30036  19.536   3.922  13.798
66280W        W30037   6.348  43.428   4.210
66281W        W30038   9.772  39.990   4.237
66282W        W30039  34.049  42.407  11.046
66283W        W30040  27.638   2.754  13.437
66284W        W30041  14.302  13.772   0.337
66285W        W30042  34.089  40.447  10.908
66286W        W30043   0.448   4.871   0.934
66287W        W30044  22.650  35.906   0.739
66288W        W30045  13.742  43.427  12.472
66289W        W30046   7.884  12.154  11.491
66290W        W30047  29.467  32.893  14.904
66291W        W30048  35.388  32.063  10.912
66292W        W30049  26.698  21.522   1.898
66293W        W30050  19.172   9.364  12.869
66294W        W30051  13.625  28.955  11.010
66295W        W30052  30.140  40.378   4.266
66296W        W30053  27.691  41.859   0.480
66297W        W30054  41.974   5.319   4.721
66298W        W30055  16.754  30.955  12.485
66299W        W30056  26.599  38.930  11.542
66300W        W30057  29.594  30.074   0.956
66301W        W30058  43.481  24.068   0.729
66302W        W30059  26.483   1.877   4.631
66303W        W30060  36.440  14.213   5.277
66304W        W30061  38.449  24.708  13.323
66305W        W30062  17.187  12.217   9.599
66306W        W30063  41.438  43.827  11.580
66307W        W30064  44.843  43.445  11.924
66308W        W30065  35.910  29.525   0.858
66309W        W30066  27.126  18.596   0.895
66310W        W30067  35.892   4.362  13.336
66311W        W30068  12.188  18.176   3.324
66312W        W30069  24.198   2.297  13.951
66313W        W30070  34.527  42.921   3.784
66314W        W30071  15.721  24.174   1.736
66315W        W30072   5.809   9.242  10.454
66316W        W30073  14.805  33.395  10.904
66317W        W30074  28.513  12.724   2.802
66318W        W30075  39.488   6.849   4.323
66319W        W30076  37.438  26.529   4.627
66320W        W30077  19.579  15.300  10.636
66321W        W30078  43.771  39.344  11.516
66322W        W30079   7.885  42.463   0.906
66323W        W30080  39.884   3.399  14.341
66324W        W30081  11.816   9.335  12.056
66325W        W30082  16.715  42.852  12.895
66326W        W30083  20.685   0.896   0.460
66327W        W30084  15.792  22.059  10.484
66328W        W30085  43.326   5.411  10.533
66329W        W30086  28.098  28.012   1.379
66330W        W30087   3.757   6.735  14.404
66331W        W30088  25.500   6.751  14.370
66332W        W30089  27.608  30.917   2.866
66333W        W30090  26.096  18.207  13.463
66334W        W30091   1.963  22.210   2.734
66335W        W30092  21.665  15.320   2.860
66336W        W30093  16.299  28.026  14.873
66337W        W30094  41.918  13.626   0.745
66338W        W30095  31.613  25.563   0.374
66339W        W30096  25.604   1.863   9.928
66340W        W30097  29.650  10.842  11.980
66341W        W30098  10.823  37.343  12.409
66342W        W30099   4.765  34.924  10.927
66343W        W30100  16.099   9.299  12.047
66344W        W30101  36.064  27.538   0.359
66345W        W30102  39.854   7.894  11.976
66346W        W30103  33.450   0.355  11.963
66347W        W30104  24.649  40.906  13.935
66348W        W30105   3.817  26.545  11.079
66349W        W30106  32.460  15.223   3.348
66350W        W30107   0.290  34.120  10.610
66351W        W30108  29.661  37.833  13.465
66352W        W30109  39.437  33.079  13.358
66353W        W30110  32.631   6.824  12.017
66354W        W30111  33.536  19.276  12.002
66355W        W30112  10.310  26.982  14.384
66356W        W30113  14.193  14.829  11.942
66357W        W30114  37.948  34.932  14.353
66358W        W30115  22.537  40.463   0.882
66359W        W30116  30.573  10.690  13.804
66360W        W30117  13.161  13.267  11.102
66361W        W30118  43.990  41.948  13.936
66362W        W30119  14.145  12.174   0.267
66363W        W30120   5.706  11.721  10.574
66364W        W30121  24.187  44.352  10.978
66365W        W30122  34.965  38.489  12.503
66366W        W30123  37.899  40.921   0.763
66367W        W30124  27.574   2.882   0.392
66368W        W30125  21.238   4.333   1.912
66369W        W30126  32.482   2.233   2.838
66370W        W30127   6.423  22.092   2.392
66371W        W30128  20.547  38.891   1.913
66372W        W30129  16.145  23.641  13.921
66373W        W30130  27.628   8.820  14.792
66374W        W30131  33.079   9.254   2.756
66375W        W30132  40.349  26.543  10.517
66376W        W30133   9.203   8.788   4.227
66377W        W30134  14.291  29.489   3.155
66378W        W30135   3.835  31.443   3.268
66379W        W30136  24.714  15.756  11.511
66380W        W30137  17.257   7.893   0.447
66381W        W30138  33.515  25.704   2.367
66382W        W30139  24.082   4.347   4.766
66383W        W30140  25.970  19.098   1.360
66384W        W30141  41.350   8.804  12.406
66385W        W30142   4.386  19.763   1.298
66386W        W30143   0.457  18.606   4.131
66387W        W30144   8.266  42.932  14.863
66388W        W30145   9.205  24.627  10.410
66389W        W30146  26.128  21.716   9.939
66390W        W30147  29.942  36.416   0.960
66391W        W30148  15.268  36.844   0.250
66392W        W30149  33.976  25.118  13.380
66393W        W30150  35.912  12.628  11.592
66394W        W30151  21.641  32.981  12.015
66395W        W30152  13.765  34.114  11.986
66396W        W30153   3.333  27.982   1.747
66397W        W30154   3.911  13.606  13.814
66398W        W30155  23.007   8.162  14.901
66399W        W30156  17.716   1.363   9.516
66400W        W30157  37.529  35.045   0.933
66401W        W30158   8.885  35.930  13.032
66402W        W30159   9.842   8.344   2.820
66403W        W30160  36.463  28.477   0.428
66404W        W30161  23.151  14.218   4.157
66405W        W30162  17.201  33.078  10.625
66406W        W30163  26.481   8.346   2.696
66407W        W30164   2.912  10.845  14.818
66408W        W30165   8.791   3.710  10.945
66409W        W30166   3.435   4.446  12.041
66410W        W30167  27.986  35.389  13.794
66411W        W30168  40.845  16.159  12.047
66412W        W30169  29.644  31.028   2.311
66413W        W30170  32.468  36.387  11.437
66414W        W30171  14.690  17.307   3.736
66415W        W30172   1.882  42.863  11.380
66416W        W30173  38.361  44.316  11.125
66417W        W30174  27.598  40.954   0.809
66418W        W30175   9.168   3.929  11.862
66419W        W30176   0.948  26.474  10.452
66420W        W30177  44.766  40.825  14.801
66421W        W30178  19.719  21.601  11.429
66422W        W30179   0.391   4.304   1.331
66423W        W30180  43.305  16.168   4.821
66424W        W30181  29.445   4.729   4.156
66425W        W30182  26.608  22.151   1.847
66426W        W30183  44.763  13.812   4.170
66427W        W30184  35.358  41.017   1.788
66428W        W30185   4.369   9.842  13.453
66429W        W30186   1.902  29.509  14.314
66430W        W30187  14.152  10.156   4.210
66431W        W30188  13.758  28.166   3.182
66432W        W30189  25.066  24.551  11.402
66433W        W30190  14.333  14.246   1.759
66434W        W30191  17.738   5.786  14.011
66435W        W30192  19.640  22.060   4.251
66436W        W30193  40.956  34.370   2.335
66437W        W30194   3.231  33.075   2.195
66438W        W30195  23.567  28.181  13.972
66439W        W30196  17.065  35.425   3.804
66440W        W30197  19.750  12.762  10.413
66441W        W30198   1.825  38.345  13.335
66442W        W30199   4.373  35.422   3.694
66443W        W30200  31.587   0.353  11.468
66444W        W30201  37.075   1.851   9.996
66445W        W30202  18.261   2.909  12.911
66446W        W30203  25.107  37.905   2.250
66447W        W30204  32.480  13.840   1.447
66448W        W30205  43.993   4.244   0.740
66449W        W30206  13.125  23.654   2.891
66450W        W30207   3.853  30.569   1.930
66451W        W30208  32.923   2.466   1.357
66452W        W30209  44.810   4.318   4.205
66453W        W30210   8.317  43.846   1.359
66454W        W30211   1.914  16.706   3.237
66455W        W30212  32.516  20.196   3.171
66456W        W30213  23.506  11.766  14.315
66457W        W30214  31.483  33.888  10.954
66458W        W30215  29.971  43.323  13.502
66459W        W30216   3.278  27.505   1.761
66460W        W30217  20.756  41.425  12.875
66461W        W30218   7.365  36.942  14.435
66462W        W30219   4.264   8.665  13.052
66463W        W30220   4.332  24.110   4.292
66464W        W30221  35.393   7.778  11.028
66465W        W30222  30.517   4.771   3.282
66466W        W30223  21.122   4.373  10.921
66467W        W30224  12.360  24.230   1.344
66468W        W30225  16.804  35.398   0.766
66469W        W30226  39.933   4.885   2.346
66470W        W30227  29.463  33.476  14.795
66471W        W30228  12.740  37.882  14.001
66472W        W30229  40.031  29.572   3.348
66473W        W30230  39.911  34.931   3.309
66474W        W30231  39.852   4.318  13.431
66475W        W30232  37.885  31.935   2.717
66476W        W30233   2.810  44.786   2.402
66477W        W30234  43.977  21.587  11.536
66478W        W30235  18.745  19.609  10.522
66479W        W30236   0.964   1.304   2.336
66480W        W30237  29.448  11.822  10.970
66481W        W30238   5.831  10.749  14.462
66482W        W30239  12.647   3.415   0.354
66483W        W30240   9.303  26.631  12.570
66484W        W30241   5.247  14.666  10.514
66485W        W30242  17.223   9.252  14.286
66486W        W30243  37.551  36.894   3.313
66487W        W30244   5.781  21.232   3.248
66488W        W30245  44.908  10.712   3.220
66489W        W30246  26.525  26.606  14.472
66490W        W30247  36.491  29.668  10.997
66491W        W30248  39.827  34.910   4.274
66492W        W30249   6.327  32.419  12.385
66493W        W30250  24.695  19.237   2.716
66494W        W30251   8.213   2.879  13.542
66495W        W30252  10.788  39.981   3.230
66496W        W30253  20.523  22.527  11.096
66497W        W30254  39.038   0.320   4.229
66498W        W30255   5.340  28.583  12.920
66499W        W30256  26.951  14.142  13.946
66500W        W30257  18.608   2.721  10.972
66501W        W30258  41.335  39.458   4.778
66502W        W30259  42.003   3.893  13.943
66503W        W30260  12.706   3.875  14.996
66504W        W30261  19.159  16.130   4.142
66505W        W30262   9.296  41.413   2.748
66506W        W30263  23.234  36.924   1.295
66507W        W30264   8.867  19.219  12.079
66508W        W30265   3.398  26.572   5.090
66509W        W30266  21.214  35.487   5.625
66510W        W30267   2.752  14.769  13.993
66511W        W30268   1.876  29.137  12.534
66512W        W30269  11.782  20.069   2.351
66513W        W30270  29.086  32.529  11.468
66514W        W30271  41.440   0.875   3.342
66515W        W30272  10.224  40.849   4.828
66516W        W30273  24.607  43.449  11.549
66517W        W30274   0.936  43.880   9.937
66518W        W30275  27.482  17.590   4.835
66519W        W30276  34.441  23.629  12.928
66520W        W30277  41.793  11.780   3.381
66521W        W30278   0.487  34.573  11.052
66522W        W30279  12.303  27.642   1.841
66523W        W30280  13.691  39.403   3.742
66524W        W30281  26.468  37.362   4.803
66525W        W30282   0.429  24.224  11.074
66526W        W30283  34.549   9.159   4.691
66527W        W30284  14.139  35.404   4.627
66528W        W30285   5.398   9.663  12.577
66529W        W30286   8.850  12.736   3.724
66530W        W30287  17.790   2.800  11.473
66531W        W30288  25.602  20.696   0.469
66532W        W30289  10.205  12.775  10.973
66533W        W30290  17.061  30.567   3.719
66534W        W30291  32.526  20.639   3.821
66535W        W30292   3.915  39.945   9.949
66536W        W30293  28.146  41.299  10.060
66537W        W30294   6.285   8.208  13.945
66538W        W30295  29.047  24.171   9.975
66539W        W30296   0.881  14.227  11.063
66540W        W30297  22.126  31.445   4.196
66541W        W30298   3.859  11.263  12.566
66542W        W30299  20.636  28.022  12.461
66543W        W30300  32.611  35.106  11.537
66544W        W30301  40.887   9.159  11.119
66545W        W30302   7.831   1.482   3.292
66546W        W30303   6.698  28.092   1.384
66547W        W30304  22.555  31.976   1.694
66548W        W30305  43.372  41.431  11.084
66549W        W30306  43.284  29.586   4.344
66550W        W30307  35.079  24.718   2.823
66551W        W30308  19.692   1.371  12.973
66552W        W30309   6.679  43.503  12.981
66553W        W30310  31.091  10.866  12.976
66554W        W30311  13.669  44.844   1.848
66555W        W30312  18.124   6.307   4.835
66556W        W30313  26.657  43.484  13.009
66557W        W30314   0.882  41.806  13.420
66558W        W30315  38.840  11.768   2.347
66559W        W30316   9.656  35.423   0.882
66560W        W30317  30.924   4.301   4.225
66561W        W30318  36.088   2.899  14.391
66562W        W30319   0.464   1.976  10.596
66563W        W30320  43.433  31.961   4.795
66564W        W30321   4.433   4.213   2.380
66565W        W30322  11.369  19.656  14.508
66566W        W30323  18.153  42.952  12.483
66567W        W30324  30.973  15.807  13.393
66568W        W30325  38.980   4.932   0.839
66569W        W30326  39.499  29.605   1.212
66570W        W30327  44.402  13.121  11.507
66571W        W30328  44.422  23.637   2.816
66572W        W30329  10.675  17.750  14.490
66573W        W30330  19.606  13.653   1.431
66574W        W30331  17.158   6.839   1.786
66575W        W30332  24.629   4.214   2.279
66576W        W30333  35.563   6.365  11.573
66577W        W30334  15.115   6.896   2.205
66578W        W30335  40.493  42.811  14.344
66579W        W30336  28.552  17.653   1.705
66580W        W30337   1.863  11.246  13.798
66581W        W30338  42.980  31.085  14.295
66582W        W30339  14.795   8.721   4.167
66583W        W30340  19.766  40.001   4.338
66584W        W30341   8.866   4.351  11.381
66585W        W30342   5.850  18.745   3.777
66586W        W30343  24.215  17.292  14.426
66587W        W30344  39.328   8.758  10.913
66588W        W30345  29.999  18.156  10.493
66589W        W30346  37.040  25.191  11.910
66590W        W30347   3.401  29.959   0.768
66591W        W30348   9.206  23.154  13.471
66592W        W30349   4.790  10.845   4.692
66593W        W30350  41.383  44.499   0.836
66594W        W30351  14.803   2.247   3.176
66595W        W30352   5.435  20.224   1.265
66596W        W30353  10.362  43.911  14.852
66597W        W30354   3.354  41.889   2.759
66598W        W30355  13.828  31.134  13.969
66599W        W30356  17.267  35.071  12.511
66600W        W30357   5.242  28.141  11.535
66601W        W30358   4.323  39.854  10.080
66602W        W30359  43.794  21.677  11.931
66603W        W30360   6.324  27.552   3.669
66604W        W30361  18.160   7.698   0.785
66605W        W30362  23.235   9.842  12.385
66606W        W30363  11.189  40.831   0.943
66607W        W30364  34.536   7.714  12.415
66608W        W30365  21.076  44.292   2.766
66609W        W30366   7.246  24.026  13.821
66610W        W30367  36.440  39.432  12.426
66611W        W30368  22.177   1.758  14.278
66612W        W30369  12.277  43.436   3.276
66613W        W30370   0.444   0.755   2.359
66614W        W30371  42.810  11.717  10.582
66615W        W30372  34.456  36.364   3.378
66616W        W30373  11.272  20.532  10.554
66617W        W30374  33.946  34.529   2.823
66618W        W30375  26.030   0.962  13.407
66619W        W30376  25.131  25.133  10.514
66620W        W30377  23.693  20.703   1.760
66621W        W30378   7.306  34.423   3.372
66622W        W30379   4.838  43.396   0.318
66623W        W30380  12.645  31.928   1.842
66624W        W30381   8.901  19.062   4.667
66625W        W30382  26.061  30.021  11.534
66626W        W30383  35.368   0.389   0.943
66627W        W30384  41.905  22.174   4.637
66628W        W30385  25.523  33.499  12.886
66629W        W30386  24.039  42.915   2.782
66630W        W30387  24.216  22.079   3.637
66631W        W30388  12.330  42.327  13.950
66632W        W30389  40.842  42.786  14.903
66633W        W30390  26.133  32.478  13.547
66634W        W30391  36.465  12.770   4.268
66635W        W30392  14.247   2.731  13.354
66636W        W30393  30.061   5.234   0.819
66637W        W30394  12.844  22.023   4.259
66638W        W30395  37.867   7.218  10.412
66639W        W30396  30.565  40.815  10.894
66640W        W30397  13.344  17.709  12.889
66641W        W30398  32.513  25.490   3.753
66642W        W30399   7.377  41.426   3.825
66643W        W30400  30.035  39.434   2.865
66644W        W30401   4.295  15.794   3.316
66645W        W30402  28.639   1.424  13.442
66646W        W30403  16.746  27.141   4.143
66647W        W30404  39.323  12.228  11.490
66648W        W30405  34.558  43.921   3.253
66649W        W30406   0.882  33.070   0.911
66650W        W30407  28.179  19.132  12.374
66651W        W30408   2.934  10.724   1.405
66652W        W30409  14.782   7.845   4.751
66653W        W30410   3.716  16.229  14.798
66654W        W30411  41.390   0.430   3.741
66655W        W30412  19.258  18.259  10.483
66656W        W30413  15.165  24.044   2.230
66657W        W30414   2.925  31.506   1.935
66658W        W30415  32.140  23.544   4.210
66659W        W30416  38.445  43.968  11.997
66660W        W30417  35.001  26.096  12.899
66661W        W30418   0.755   4.211   0.398
66662W        W30419  24.663  27.168  11.597
66663W        W30420  34.385  38.366  11.997
66664W        W30421  17.127   6.709  12.466
66665W        W30422   6.811   3.258   1.284
66666W        W30423  12.356  16.284   0.408
66667W        W30424  11.185   2.788  12.570
66668W        W30425  22.533  20.764  12.344
66669W        W30426  16.286  29.453  10.538
66670W        W30427  23.729  19.104   0.437
66671W        W30428  19.227  44.780   0.868
66672W        W30429   9.238  16.277  14.889
66673W        W30430  23.584  26.608   3.655
66674W        W30431  40.308  44.932   4.158
66675W        W30432  19.156   1.388  12.520
66676W        W30433   5.381  26.549  13.959
66677W        W30434  19.717  35.950   1.878
66678W        W30435   6.878  20.230   1.370
66679W        W30436  37.062  41.519   0.730
66680W        W30437   5.729  29.486   4.603
66681W        W30438  15.742  17.650  11.932
66682W        W30439  11.269  10.278  11.500
66683W        W30440  33.560  30.931   4.661
66684W        W30441  27.973  26.493  13.792
66685W        W30442  36.395  30.539   3.232
66686W        W30443  17.780  41.942  10.442
66687W        W30444  44.958  34.103  14.284
66688W        W30445  27.163  31.021  12.528
66689W        W30446  26.579  15.729  14.308
66690W        W30447  21.695  37.434  13.474
66691W        W30448   7.849  33.897   1.334
66692W        W30449   6.898  12.726   4.323
66693W        W30450   6.327  43.497   2.760
66694W        W30451  11.322  29.611   3.723
66695W        W30452  39.892  37.887   1.908
66696W        W30453   9.339  42.850  10.984
66697W        W30454  31.463  14.604  10.465
66698W        W30455  31.542  30.653   4.178
66699W        W30456  42.842  31.086   3.305
66700W        W30457  10.860   4.849   0.889
66701W        W30458   9.168  13.722   3.282
66702W        W30459  13.309  17.671   4.167
66703W        W30460  18.559   3.408   1.836
66704W        W30461   1.881  29.585   2.792
66705W        W30462   4.772  36.919  12.524
66706W        W30463   1.905   2.939  14.405
66707W        W30464  32.941  15.290  10.586
66708W        W30465   8.386  12.716   3.654
66709W        W30466   3.940  17.651   3.792
66710W        W30467  24.040  41.790   4.630
66711W        W30468  38.480  18.766  12.075
66712W        W30469  15.240  23.174   1.218
66713W        W30470  29.162   0.909  14.471
66714W        W30471   1.851  19.633  10.418
66715W        W30472  13.753  13.714  10.522
66716W        W30473  25.179  24.097  13.964
66717W        W30474  31.418  12.820  14.309
66718W        W30475   9.305   8.180   3.361
66719W        W30476  44.307  36.421   2.208
66720W        W30477  17.589  42.800   2.189
66721W        W30478  30.578  23.584   4.308
66722W        W30479   7.717  14.258  10.091
66723W        W30480  35.048   2.271  10.603
66724W        W30481   5.926  21.223   1.442
66725W        W30482  43.907   2.720  14.391
66726W        W30483   4.765   6.311   1.363
66727W        W30484  35.488  40.801  13.311
66728W        W30485  39.950  43.869   4.771
66729W        W30486  17.114   7.791   9.929
66730W        W30487  41.868  10.708   3.153
66731W        W30488  25.078  26.599  10.504
66732W        W30489  28.053  20.085   5.091
66733W        W30490   5.849  29.552   1.233
66734W        W30491  29.593  42.398  14.386
66735W        W30492  32.065  37.028   4.278
66736W        W30493  26.988   8.756  13.518
66737W        W30494  10.143  15.129   3.384
66738W        W30495  27.464  16.075  13.410
66739W        W30496  20.568  36.087   1.761
66740W        W30497   9.249  44.409   0.378
66741W        W30498  36.569  42.378   4.788
66742W        W30499   7.807  34.480  12.426
66743W        W30500   4.770  28.510   4.257
66744W        W30501  42.994  37.487   3.261
66745W        W30502  36.499   3.726  10.538
66746W        W30503  43.383  41.798  12.441
66747W        W30504  33.381   1.752   3.180
66748W        W30505  15.184   0.786   3.644
66749W        W30506  11.780   5.871   4.748
66750W        W30507  34.064   0.883  11.497
66751W        W30508  33.874  21.758  14.809
66752W        W30509  36.021   4.281  12.867
66753W        W30510  31.506  15.767  10.900
66754W        W30511  43.423  23.535   3.159
66755W        W30512   6.815  31.969  13.397
66756W        W30513   4.253  21.751  14.445
66757W        W30514  17.116   4.372  13.307
66758W        W30515  36.882  13.719   3.313
66759W        W30516  23.108  18.122  13.936
66760W        W30517  36.079  24.633   4.255
66761W        W30518  31.104  44.909  12.865
66762W        W30519  23.580  16.661   3.199
66763W        W30520  23.526  21.098   4.229
66764W        W30521   8.758  39.980  10.951
66765W        W30522  26.515  36.554   3.351
66766W        W30523  18.721  19.605  10.100
66767W        W30524  16.637  43.939  13.416
66768W        W30525  28.936  42.285  14.372
66769W        W30526  21.662  15.580   1.430
66770W        W30527  43.949  29.431   2.255
66771W        W30528  39.458  30.124   2.217
66772W        W30529   7.899  33.448  12.865
66773W        W30530  39.395  34.500  12.446
66774W        W30531  27.475   6.692  12.402
66775W        W30532  27.182  24.604  12.012
66776W        W30533  35.898  24.078  12.537
66777W        W30534   3.794  31.962  13.967
66778W        W30535   8.898  11.154   2.803
66779W        W30536  30.482   7.844   3.167
66780W        W30537  14.827  42.791  11.421
66781W        W30538  30.641  11.711   2.812
66782W        W30539   7.846  33.921   1.915
66783W        W30540  41.028  42.786   1.339
66784W        W30541  18.723  27.666   1.744
66785W        W30542   3.314  37.832   2.274
66786W        W30543  22.187   6.292   4.182
66787W        W30544  23.018  35.005  11.053
66788W        W30545   3.811   5.253  12.920
66789W        W30546   1.883   7.206  13.808
66790W        W30547  29.462  22.223  10.985
66791W        W30548   9.284  28.515   1.323
66792W        W30549  15.685   3.889  12.525
66793W        W30550  33.017   2.311  10.525
66794W        W30551  28.058  30.512   1.299
66795W        W30552  15.590  40.987   4.235
66796W        W30553  13.644  31.149   3.856
66797W        W30554  31.430  43.366   0.255
66798W        W30555  44.320  30.048  11.994
66799W        W30556  35.110  12.196   2.769
66800W        W30557  13.159  40.837   2.702
66801W        W30558  11.771  19.587  14.511
66802W        W30559  23.633  36.486  13.448
66803W        W30560  24.657  31.118  14.933
66804W        W30561   0.261  16.215  13.970
66805W        W30562   9.290  19.748   3.744
66806W        W30563  11.142  11.845  13.884
66807W        W30564   3.827  33.617  13.430
66808W        W30565  29.536  41.994  14.863
66809W        W30566  41.530  27.152   2.756
66810W        W30567  30.564   2.416   4.323
66811W        W30568  34.040  26.475   5.167
66812W        W30569  12.358  15.179   3.694
66813W        W30570  13.320  22.152  13.828
66814W        W30571  31.035  10.750   2.872
66815W        W30572   8.893   6.903  11.058
66816W        W30573  36.030  28.479   0.749
66817W        W30574   4.923  43.490  13.437
66818W        W30575  27.969  39.338  11.541
66819W        W30576  10.241  12.125  14.359
66820W        W30577  20.274  20.717  10.501
66821W        W30578  13.274  22.568   4.256
66822W        W30579   9.796  22.166   1.261
66823W        W30580  32.431  23.614   4.810
66824W        W30581  11.351  26.046  13.845
66825W        W30582  14.324   4.348   4.246
66826W        W30583   2.788  21.142   1.862
66827W        W30584  34.923  19.755   0.268
66828W        W30585  23.646  34.062   0.768
66829W        W30586  27.024  26.129   4.653
66830W        W30587  12.666  35.363  11.047
66831W        W30588  24.502   3.322  11.464
66832W        W30589  24.104  20.698  12.059
66833W        W30590   8.327   1.283   4.732
66834W        W30591  18.277  32.041  13.825
66835W        W30592  32.094  25.470   0.846
66836W        W30593  18.635  33.566  14.933
66837W        W30594  42.813  29.088  14.779
66838W        W30595  41.879  16.596   4.300
66839W        W30596  21.100  19.575   3.731
66840W        W30597  12.653  39.524   1.810
66841W        W30598  17.577  11.800  14.912
66842W        W30599  42.459  35.058   2.191
66843W        W30600  42.891  23.099  11.114
66844W        W30601  18.683   4.341   1.720
66845W        W30602   1.316  40.463  12.026
66846W        W30603  43.807  18.669   1.699
66847W        W30604  29.013  27.590  13.924
66848W        W30605  37.529   8.768   2.860
66849W        W30606  15.220  36.464  11.971
66850W        W30607  23.215  28.641   2.762
66851W        W30608  30.658   8.323  10.544
66852W        W30609  38.380  40.526   0.777
66853W        W30610  34.087   5.860  14.824
66854W        W30611  29.113  20.054  11.887
66855W        W30612  27.567  13.768  13.963
66856W        W30613  15.698  39.995  11.997
66857W        W30614  32.922  14.788  14.900
66858W        W30615  37.856  26.096  12.866
66859W        W30616   1.348  29.584   4.652
66860W        W30617   5.740   0.863  10.429
66861W        W30618  31.439  17.698   3.811
66862W        W30619  31.571  32.562   4.834
66863W        W30620   9.263  22.519   1.929
66864W        W30621  42.481  16.191   0.806
66865W        W30622   3.425  13.161  12.428
66866W        W30623  13.632  16.627  14.941
66867W        W30624  17.171  31.112   0.459
66868W        W30625  37.990  36.409   0.796
66869W        W30626  14.225  21.710  12.087
66870W        W30627  17.771   4.261   0.750
66871W        W30628  25.218  25.531  13.808
66872W        W30629  34.063  14.214  12.007
66873W        W30630  32.099   7.817   0.254
66874W        W30631  10.169   4.259  12.392
66875W        W30632  28.063  42.939   3.154
66876W        W30633  30.517   0.928   0.421
66877W        W30634  44.422  11.202   2.662
66878W        W30635  37.537  28.049   4.714
66879W        W30636  24.629  38.833   0.933
66880W        W30637  43.930  34.908   0.853
66881W        W30638  11.645   9.370   2.212
66882W        W30639   2.967   1.832  12.881
66883W        W30640   9.789   5.714  12.952
66884W        W30641  31.951  33.085  10.429
66885W        W30642  11.261   0.986   0.923
66886W        W30643  27.552  13.843   0.958
66887W        W30644  27.489  42.479   1.449
66888W        W30645   2.724  10.775   4.828
66889W        W30646  32.113  39.823   3.329
66890W        W30647  40.496  40.449   0.244
66891W        W30648  28.154  33.502   4.609
66892W        W30649   9.728  12.162   3.279
66893W        W30650  24.089  32.911   0.918
66894W        W30651  32.486  34.012  11.954
66895W        W30652  30.458  22.999   3.795
66896W        W30653  26.187   2.967  13.519
66897W        W30654  19.653  36.046   4.259
66898W        W30655  16.803  24.595  14.450
66899W        W30656  20.753  24.148  12.383
66900W        W30657  28.475  41.988  14.759
66901W        W30658  21.155   5.387   4.296
66902W        W30659  30.083  29.651  12.376
66903W        W30660  22.536  10.186  13.799
66904W        W30661  14.234  30.003  10.957
66905W        W30662  27.099  28.633  13.496
66906W        W30663   6.920  32.046  11.374
66907W        W30664   0.968  29.636  13.842
66908W        W30665  41.497  11.836   2.187
66909W        W30666  39.850  34.996   1.706
66910W        W30667  35.912  13.200  11.050
66911W        W30668  35.044  43.916   2.307
66912W        W30669  37.552   3.850  10.895
66913W        W30670  21.142   7.873   5.279
66914W        W30671   0.954  30.575  14.885
66915W        W30672  33.527  35.488   1.412
66916W        W30673  38.847  15.329   1.252
66917W        W30674  28.153   3.805  11.913
66918W        W30675  29.089   2.954  13.891
66919W        W30676  24.073  32.536   3.852
66920W        W30677  36.376  22.717  14.772
66921W        W30678   1.399   4.319  12.372
66922W        W30679   7.874  13.334  12.498
66923W        W30680   2.812  41.493   0.801
66924W        W30681  29.164  31.470  11.123
66925W        W30682  32.032  19.202   1.758
66926W        W30683  11.137   5.863  12.036
66927W        W30684  22.151  13.738  12.465
66928W        W30685  15.794  19.615  10.533
66929W        W30686   2.369  40.042  12.486
66930W        W30687   5.342  44.449   4.780
66931W        W30688  22.138  19.542  14.399
66932W        W30689  27.579  24.148  13.977
66933W        W30690  29.940  42.831  12.418
66934W        W30691   4.392   2.439  14.375
66935W        W30692  27.970  37.528   3.206
66936W        W30693  35.935  31.029   4.643
66937W        W30694  15.667  34.378  10.954
66938W        W30695  28.650  28.478  13.442
66939W        W30696   5.916  31.569   3.381
66940W        W30697  32.524   0.266  10.932
66941W        W30698  17.239  33.523  10.515
66942W        W30699  42.851   2.341   0.449
66943W        W30700  28.995  14.812  13.419
66944W        W30701  37.572  10.842   0.887
66945W        W30702   3.298  30.912   4.166
66946W        W30703  13.841  27.553  12.922
66947W        W30704  33.622  23.197   1.708
66948W        W30705   5.344  37.496  10.539
66949W        W30706  18.121  24.513  11.069
66950W        W30707  31.512  11.706  14.360
66951W        W30708  20.096   7.289   0.914
66952W        W30709  37.501  13.755  10.476
66953W        W30710  33.592  17.732  11.468
66954W        W30711   0.965  29.969  13.351
66955W        W30712   5.418  36.853   4.319
66956W        W30713   0.409  43.959  13.523
66957W        W30714  33.567  30.148   1.315
66958W        W30715   1.416  25.085   4.657
66959W        W30716  35.995  42.944   1.873
66960W        W30717   2.274  13.136  14.449
66961W        W30718  15.251   1.390   1.748
66962W        W30719  27.108  27.176   2.722
66963W        W30720  11.364   5.870   1.320
66964W        W30721  14.221  41.441  10.478
66965W        W30722  42.865   5.841  10.450
66966W        W30723  36.912  28.092  11.474
66967W        W30724  16.197  35.010   4.171
66968W        W30725  35.918  37.839  14.876
66969W        W30726  33.514  14.702   0.415
66970W        W30727  29.425   0.472   1.337
66971W        W30728  16.138  10.636  14.766
66972W        W30729   4.264  29.650   0.307
66973W        W30730   0.959  18.119  10.980
66974W        W30731  43.872  43.831  11.008
66975W        W30732  22.689  11.837  11.426
66976W        W30733   9.213  20.220   1.698
66977W        W30734  13.681   2.404  13.377
66978W        W30735  20.249   2.859   0.280
66979W        W30736  29.577   4.325  14.996
66980W        W30737  21.137   9.158   1.439
66981W        W30738  16.757  39.885  12.932
66982W        W30739   7.866  14.156  11.603
66983W        W30740   0.881   8.879  13.843
66984W        W30741  42.472   8.656  13.814
66985W        W30742  17.234  22.209   2.836
66986W        W30743  12.832  44.348  13.442
66987W        W30744  28.172  39.995  12.896
66988W        W30745   4.366  19.205  11.457
66989W        W30746  25.612  15.725   3.241
66990W        W30747  14.744   6.283  11.904
66991W        W30748  38.421  14.783  13.310
66992W        W30749   6.183  11.190   1.747
66993W        W30750  31.613  38.357  10.932
66994W        W30751  28.676   2.910  10.431
66995W        W30752  41.315  34.027  12.911
66996W        W30753  29.543   0.857   1.332
66997W        W30754  34.394  33.070   1.824
66998W        W30755  12.662  10.139   2.821
66999W        W30756  19.042  44.363  13.326
67000W        W30757  10.810  34.612  12.567
67001W        W30758  34.995  11.758  11.517
67002W        W30759  19.622  25.025  14.362
67003W        W30760  19.270  25.524  11.083
67004W        W30761  15.141   9.675  11.092
67005W        W30762  26.115  16.678  13.885
67006W        W30763  15.232  18.167   4.171
67007W        W30764   6.187  26.133  10.560
67008W        W30765  31.069  17.285  12.992
67009W        W30766  43.767  20.089  11.065
67010W        W30767  43.003  22.110  12.939
67011W        W30768  36.354  27.066   3.264
67012W        W30769  41.826  16.089  11.902
67013W        W30770  39.493  26.959  12.427
67014W        W30771   8.757  20.762   1.813
67015W        W30772  31.449   9.770  14.999
67016W        W30773  43.010  40.975   0.900
67017W        W30774   6.793  15.294   3.862
67018W        W30775  24.679  37.921  12.906
67019W        W30776  29.116  38.842  11.418
67020W        W30777  40.917  41.852   4.166
67021W        W30778  35.890  14.737  10.925
67022W        W30779   1.921  33.392  11.437
67023W        W30780  11.220  31.470   2.899
67024W        W30781  26.988   6.776   4.681
67025W        W30782   7.342   5.412  13.366
67026W        W30783   0.468  11.742  12.473
67027W        W30784  40.819   5.858  13.315
67028W        W30785  32.921  24.115   1.260
67029W        W30786  35.428   9.390  13.393
67030W        W30787  33.097  44.888  11.532
67031W        W30788  11.325   1.463  13.856
67032W        W30789  13.340  32.410   3.157
67033W        W30790  22.225  38.847   0.262
67034W        W30791  38.821  44.482   5.284
67035W        W30792   7.805   4.304   2.686
67036W        W30793  26.469   4.370   4.165
67037W        W30794  33.446  22.112  13.997
67038W        W30795  34.931  16.801   0.967
67039W        W30796  34.098   7.874  10.484
67040W        W30797   0.397  22.237   0.885
67041W        W30798  21.654   8.354  13.408
67042W        W30799  23.018  25.142  14.445
67043W        W30800  11.787  39.326   3.347
67044W        W30801  42.356  44.909  12.898
67045W        W30802  15.218  17.618   3.680
67046W        W30803  29.475   7.367   1.326
67047W        W30804   7.317  18.756  13.358
67048W        W30805  20.540   6.298   2.351
67049W        W30806   5.784  29.464  12.075
67050W        W30807   4.281  17.557  14.463
67051W        W30808  32.572  41.944   3.752
67052W        W30809  35.903  19.187   1.812
67053W        W30810  19.679  37.057  12.436
67054W        W30811  35.555  41.461   2.849
67055W        W30812  19.244   1.387   3.364
67056W        W30813   5.890  27.672  11.953
67057W        W30814  31.491  42.821  14.367
67058W        W30815  33.050   7.786  13.342
67059W        W30816  23.594   3.917  10.444
67060W        W30817  40.460  12.146   0.745
67061W        W30818  35.098  44.489  11.886
67062W        W30819   9.661  41.853  14.401
67063W        W30820  14.747  22.687  12.952
67064W        W30821  27.097  22.708  13.998
67065W        W30822  42.324  18.576   3.173
67066W        W30823  15.698  38.826  13.502
67067W        W30824  10.330  16.101  14.834
67068W        W30825  13.320  17.778  14.456
67069W        W30826  17.254  11.293  14.829
67070W        W30827  33.936  25.106  14.455
67071W        W30828   3.348  23.646   0.299
67072W        W30829  38.042  10.326   0.409
67073W        W30830  17.651   1.300   3.283
67074W        W30831   4.722   7.412   3.319
67075W        W30832   8.793  29.554  11.962
67076W        W30833  30.645  35.545   0.930
67077W        W30834  18.059  21.688   0.894
67078W        W30835   7.238  37.369  10.923
67079W        W30836  42.866  17.775  10.583
67080W        W30837  29.620  21.128   4.752
67081W        W30838  40.329  17.093  14.312
67082W        W30839  11.847  33.618  14.356
67083W        W30840  41.497  33.065  13.917
67084W        W30841   4.373  29.451  10.511
67085W        W30842  37.980  17.598  13.845
67086W        W30843  12.789  28.440   1.422
67087W        W30844  14.115   2.812  11.387
67088W        W30845  20.659  21.021  12.051
67089W        W30846  14.657   0.345  14.925
67090W        W30847  27.954  21.056   4.295
67091W        W30848  14.186  26.651  10.478
67092W        W30849  18.588  18.620   0.891
67093W        W30850   1.371  19.269  12.897
67094W        W30851  43.982  44.262  14.399
67095W        W30852   9.159  43.011   0.354
67096W        W30853   5.891  15.191  12.868
67097W        W30854  21.523  25.999   1.874
67098W        W30855  43.391  10.780  11.373
67099W        W30856  19.723   4.829  14.874
67100W        W30857  12.160  18.554   3.863
67101W        W30858   7.322  43.825   3.214
67102W        W30859  38.432  14.151  14.304
67103W        W30860   3.932  38.820  12.824
67104W        W30861  31.585  33.953   1.383
67105W        W30862  11.369  41.908  14.936
67106W        W30863  17.759  31.405   3.691
67107W        W30864   9.734   5.367   4.240
67108W        W30865  31.547  11.820   3.269
67109W        W30866  26.669   3.709   2.886
67110W        W30867  11.315   9.292  13.548
67111W        W30868  19.239   6.375   3.651
67112W        W30869  42.438  35.041  14.483
67113W        W30870  44.262  15.305   2.300
67114W        W30871  39.514  38.939   2.397
67115W        W30872  30.074  34.955   3.282
67116W        W30873  10.219   1.904  13.450
67117W        W30874  23.112  18.137  12.067
67118W        W30875  27.073  34.973  13.492
67119W        W30876  14.155  32.049   1.442
67120W        W30877  21.650  21.556   4.295
67121W        W30878  33.595  18.611  13.808
67122W        W30879   7.680  35.535  10.925
67123W        W30880  10.155   7.275  10.581
67124W        W30881  17.740  42.899   3.259
67125W        W30882  27.980  27.099  11.980
67126W        W30883  38.991   6.772  10.461
67127W        W30884  15.606   9.706  13.879
67128W        W30885  40.972  42.339   1.846
67129W        W30886   6.378  42.790  14.818
67130W        W30887  28.998  16.614  14.843
67131W        W30888  34.022  21.741  10.498
67132W        W30889  38.896   9.380  14.808
67133W        W30890   9.666  30.524  14.766
67134W        W30891  31.098  15.657   4.210
67135W        W30892  15.299  11.270   4.699
67136W        W30893   9.779  31.009  13.506
67137W        W30894   4.344  25.201  13.875
67138W        W30895  15.225   0.945   0.772
67139W        W30896   6.419  27.506  10.450
67140W        W30897  10.854   3.223  12.862
67141W        W30898   3.756   9.747  13.914
67142W        W30899  26.630  38.447   2.789
67143W        W30900  42.465  26.163  10.420
67144W        W30901  38.571  40.041  13.958
67145W        W30902   0.373  20.081   4.770
67146W        W30903  27.105  42.843   1.886
67147W        W30904   3.831  20.206  11.546
67148W        W30905   6.198  42.902   3.337
67149W        W30906   6.888   0.286  11.040
67150W        W30907  20.645  15.086  14.974
67151W        W30908  20.686   6.411   1.215
67152W        W30909  37.891  39.863  10.630
67153W        W30910  23.098   2.297   4.139
67154W        W30911  17.660   5.369  12.964
67155W        W30912  29.041   7.216  11.432
67156W        W30913  36.436  33.461   2.781
67157W        W30914  15.302  34.873   0.754
67158W        W30915  17.780  36.059  11.097
67159W        W30916  39.915   9.706   4.694
67160W        W30917  26.181  37.407  10.634
67161W        W30918   8.164  19.661   4.618
67162W        W30919  44.891  10.216  12.416
67163W        W30920  35.595  37.947  14.944
67164W        W30921   6.214  30.157   2.373
67165W        W30922  42.906   5.824  11.520
67166W        W30923  15.156  20.735   4.209
67167W        W30924  14.231  20.625  10.440
67168W        W30925  12.712  39.552  13.376
67169W        W30926   8.314  24.721   3.728
67170W        W30927  23.198  24.690   4.749
67171W        W30928  38.058  16.193   2.253
67172W        W30929   1.796  23.234  14.814
67173W        W30930  37.561  23.581   1.351
67174W        W30931  34.105  12.312  12.423
67175W        W30932  24.979  21.072  11.033
67176W        W30933   6.424   8.766  14.405
67177W        W30934  36.415  11.845   2.396
67178W        W30935  21.145  17.286  13.913
67179W        W30936   2.792  28.669   4.763
67180W        W30937   7.902  34.504   1.255
67181W        W30938  24.694  41.983   1.765
67182W        W30939   6.730  24.707  10.955
67183W        W30940  34.016  16.800   4.653
67184W        W30941  20.529  35.433   4.716
67185W        W30942  21.027   5.688  11.950
67186W        W30943  33.927  25.520  13.823
67187W        W30944  43.839  22.624  12.870
67188W        W30945  30.121   1.923   2.692
67189W        W30946  13.278  27.606  12.037
67190W        W30947  14.285  14.324  10.070
67191W        W30948   6.920  15.579   2.317
67192W        W30949  27.154  29.503   1.449
67193W        W30950  33.556   2.826  10.146
67194W        W30951  17.696  31.903  10.452
67195W        W30952   4.876  24.542  12.895
67196W        W30953   7.263  39.999  12.578
67197W        W30954   7.202  16.798  14.352
67198W        W30955  30.019  21.056  10.525
67199W        W30956  30.111  26.490  12.017
67200W        W30957  11.672  20.721   4.126
67201W        W30958  11.723  15.269  11.035
67202W        W30959  26.594   9.671   4.295
67203W        W30960   8.817   7.708  10.945
67204W        W30961  39.415  17.092  12.078
67205W        W30962  18.240   2.232  12.952
67206W        W30963  39.464  28.105   2.782
67207W        W30964  36.036  40.812  13.978
67208W        W30965  31.568  44.909   1.299
67209W        W30966  37.915  31.447  11.893
67210W        W30967  35.381  12.761   4.301
67211W        W30968  25.139  37.473   3.801
67212W        W30969  24.078  22.234   1.878
67213W        W30970   4.764  37.448  10.628
67214W        W30971  10.278  31.581  14.809
67215W        W30972   8.896  16.589   1.909
67216W        W30973   5.439  44.402  11.484
67217W        W30974  19.540  41.524   2.371
67218W        W30975  16.716  29.035   0.272
67219W        W30976  32.976  16.249  12.458
67220W        W30977  26.024  13.802  10.630
67221W        W30978  31.154  13.116   2.673
67222W        W30979  34.458  44.417  14.393
67223W        W30980  29.158  38.014  10.579
67224W        W30981  17.798  26.668   0.754
67225W        W30982  21.129  23.530  11.403
67226W        W30983  17.139  30.541   3.165
67227W        W30984  13.800  26.645   2.259
67228W        W30985  43.021   3.908   2.737
67229W        W30986  36.455  28.551  13.899
67230W        W30987   9.243  18.607   2.727
67231W        W30988  32.063  27.174   3.861
67232W        W30989  17.748  13.618   1.264
67233W        W30990  14.663  33.524   3.264
67234W        W30991  28.026   6.401   4.810
67235W        W30992   7.183  20.592  13.352
67236W        W30993   3.367  28.502   2.794
67237W        W30994  19.218  34.510   2.830
67238W        W30995  27.106  27.662  11.866
67239W        W30996  23.536  34.006  13.905
67240W        W30997  40.356   7.850  11.965
67241W        W30998  17.089   2.797  10.948
67242W        W30999  36.508  29.007  14.388
67243W        W31000  13.771  11.371  14.511
67244W        W31001  15.295  18.194   0.356
67245W        W31002  44.958  16.134  11.608
67246W        W31003  21.540  23.592  12.829
67247W        W31004   1.975  16.801  12.977
67248W        W31005   6.204  36.526   4.352
67249W        W31006  29.457  26.055  14.906
67250W        W31007  15.748  11.130  13.548
67251W        W31008  10.228  31.502  13.366
67252W        W31009   7.877   1.758  14.291
67253W        W31010  34.528  37.921   2.234
67254W        W31011  37.421  13.251  11.092
67255W        W31012   3.325  13.307   1.403
67256W        W31013  20.077  32.491  14.799
67257W        W31014  36.577  16.269   1.846
67258W        W31015   3.783  37.582   0.250
67259W        W31016  22.140  43.892   2.880
67260W        W31017   0.769  13.688  12.018
67261W        W31018  38.980   0.326  14.786
67262W        W31019  30.112  12.289  14.933
67263W        W31020  27.524  27.998  14.982
67264W        W31021  14.768  33.462   0.924
67265W        W31022  25.626   7.901  12.957
67266W        W31023  13.730  13.720   0.411
67267W        W31024   0.339  25.610   2.836
67268W        W31025  28.555  13.323   0.827
67269W        W31026  27.456  11.688  13.993
67270W        W31027  27.509   2.944  13.961
67271W        W31028  22.041  43.972  14.498
67272W        W31029   2.347  17.268  12.557
67273W        W31030  24.090  25.698   3.712
67274W        W31031   5.778  41.974   1.862
67275W        W31032  18.203  20.140  13.856
67276W        W31033  31.906  23.660   2.384
67277W        W31034  27.124  10.181   1.766
67278W        W31035  37.957  24.531  11.115
67279W        W31036  30.626  16.227  12.926
67280W        W31037  38.451  40.367   4.122
67281W        W31038   2.387   8.758  10.439
67282W        W31039   5.777  22.559  13.874
67283W        W31040  24.131  42.419  14.847
67284W        W31041  28.102  34.886  11.950
67285W        W31042   0.339  25.002  10.572
67286W        W31043   4.917   8.189  13.326
67287W        W31044  26.073   5.709   3.809
67288W        W31045  23.994  31.558  14.987
67289W        W31046  26.065   5.814   1.231
67290W        W31047   5.283  17.266  13.457
67291W        W31048  30.539  11.748  12.008
67292W        W31049  33.042  15.712   0.349
67293W        W31050  41.991  36.959  11.447
67294W        W31051  42.849  26.004   1.906
67295W        W31052  42.370  10.756   0.294
67296W        W31053  22.604  27.658  13.991
67297W        W31054  27.092  11.802  12.052
67298W        W31055  22.104   7.751   3.813
67299W        W31056  34.874  27.984   2.308
67300W        W31057  37.010  42.378  12.350
67301W        W31058  22.176   6.758   2.381
67302W        W31059   2.943   8.900   3.715
67303W        W31060  37.371  35.077  10.546
67304W        W31061   6.426  12.634   1.848
67305W        W31062  12.669  30.999   0.342
67306W        W31063  31.633  28.501  14.960
67307W        W31064   7.736   1.970  10.056
67308W        W31065  31.501  12.625   4.274
67309W        W31066  35.962  34.952  11.978
67310W        W31067  16.725   3.341   1.330
67311W        W31068  17.802   3.253   2.276
67312W        W31069  30.084  18.219  11.050
67313W        W31070  19.258   7.790   2.694
67314W        W31071  22.019   1.759  11.598
67315W        W31072  25.047  40.970  14.411
67316W        W31073  14.239  35.087  13.478
67317W        W31074  39.365  29.168   0.463
67318W        W31075  20.037  39.532   0.911
67319W        W31076  25.552  13.807   4.154
67320W        W31077   8.379  22.534   0.278
67321W        W31078  22.712  13.667   0.320
67322W        W31079  13.213  11.200  14.360
67323W        W31080  23.673  11.295  11.858
67324W        W31081  34.533  14.290  14.286
67325W        W31082  20.686  40.493  14.759
67326W        W31083   9.162  10.767  10.910
67327W        W31084   4.890  37.004  14.773
67328W        W31085   1.405  29.452  13.809
67329W        W31086  42.346  16.804   0.915
67330W        W31087  41.384  13.689  13.404
67331W        W31088  30.480   6.696  13.857
67332W        W31089  44.906  39.459   0.895
67333W        W31090  16.268  44.303   0.373
67334W        W31091  21.198  20.624   1.703
67335W        W31092   2.892   8.742  12.556
67336W        W31093  43.012  20.252  11.582
67337W        W31094  42.780  14.688  13.806
67338W        W31095  28.674  27.657  14.807
67339W        W31096   9.292  21.539  12.437
67340W        W31097   9.689  18.286   1.881
67341W        W31098  42.441  34.594   2.866
67342W        W31099  13.215  24.634   4.808
67343W        W31100  41.815  42.321   0.732
67344W        W31101  28.462  22.131   0.358
67345W        W31102  26.952  33.494  13.016
67346W        W31103  35.883  16.659   1.717
67347W        W31104  29.997  23.041   3.196
67348W        W31105  22.128  12.757  11.093
67349W        W31106  39.865  30.110  13.434
67350W        W31107  18.277   8.811   1.714
67351W        W31108  15.222  37.902   2.694
67352W        W31109   4.708  23.171  11.386
67353W        W31110   2.270  10.308  13.486
67354W        W31111  14.299  25.133   3.870
67355W        W31112  27.597   2.909   3.195
67356W        W31113  36.526  14.129  12.030
67357W        W31114  38.441  18.128  14.866
67358W        W31115  28.007  17.784   0.481
67359W        W31116  13.806   9.798  10.470
67360W        W31117  17.736  18.233  10.963
67361W        W31118  12.683  28.042  13.380
67362W        W31119  26.056  44.990   0.930
67363W        W31120   7.330  29.107   2.357
67364W        W31121  10.777  42.433  10.944
67365W        W31122  30.416  14.638   5.732
67366W        W31123  33.437  12.176  10.929
67367W        W31124  35.362  10.828   4.661
67368W        W31125  41.029  28.439  13.392
67369W        W31126  24.657  30.005  13.483
67370W        W31127  12.804  25.597  13.498
67371W        W31128  28.964  36.944  10.976
67372W        W31129   5.209  44.335  12.952
67373W        W31130  12.208  26.663  14.000
67374W        W31131  20.096  12.285   3.837
67375W        W31132   2.251  20.040   0.750
67376W        W31133  25.695  15.326  14.801
67377W        W31134   1.888   5.407   4.205
67378W        W31135  19.110  38.913  13.934
67379W        W31136   9.778  35.907   1.876
67380W        W31137  27.997  29.588   2.405
67381W        W31138  36.848  15.634   1.213
67382W        W31139   5.329  28.563  13.948
67383W        W31140  40.332  40.400   5.164
67384W        W31141  44.366  38.353  12.941
67385W        W31142  28.051  41.816  13.061
67386W        W31143  18.631   4.886   3.258
67387W        W31144  17.279   1.758  13.454
67388W        W31145  13.270  36.475  12.981
67389W        W31146  20.758  19.188  13.904
67390W        W31147  16.249  32.124   2.365
67391W        W31148   5.196   2.257   4.634
67392W        W31149   4.795  36.937   4.715
67393W        W31150  27.540  16.234  14.998
67394W        W31151   0.418  31.006   0.475
67395W        W31152  34.983  13.113   0.308
67396W        W31153  38.945  42.782   2.859
67397W        W31154  39.345  18.597  12.902
67398W        W31155  27.548  30.562  14.372
67399W        W31156  21.073   0.815   2.687
67400W        W31157   8.240  34.054   0.955
67401W        W31158   9.856  33.588   3.630
67402W        W31159  34.539  43.452   1.344
67403W        W31160   3.401  14.190  14.323
67404W        W31161   1.968  32.440  12.499
67405W        W31162  41.981   6.833   2.224
67406W        W31163  36.913   6.884   3.661
67407W        W31164  12.803   6.229   0.386
67408W        W31165  13.694  28.027   4.663
67409W        W31166  29.969  41.421  13.896
67410W        W31167  14.694   3.450  11.856
67411W        W31168   7.723  14.269  12.895
67412W        W31169   9.716  22.248  13.839
67413W        W31170   6.786   8.866  12.874
67414W        W31171  13.222  14.768  12.987
67415W        W31172  40.853  42.943  12.530
67416W        W31173  18.735  11.803   9.527
67417W        W31174  31.126  30.020   4.731
67418W        W31175  19.140   5.268   4.792
67419W        W31176   5.404  30.150   2.355
67420W        W31177  18.204  17.114   4.341
67421W        W31178  37.580  13.650  13.491
67422W        W31179  17.251  34.395  13.471
67423W        W31180  44.795   3.824   4.289
67424W        W31181   9.236  14.131  12.455
67425W        W31182  37.080  23.189   2.387
67426W        W31183  33.902  28.941  11.512
67427W        W31184  30.011  26.974   4.355
67428W        W31185  35.033  15.273  11.521
67429W        W31186   5.932  34.512   0.253
67430W        W31187  33.500  41.384   0.884
67431W        W31188  44.360  28.094  12.565
67432W        W31189  29.621  32.000   1.737
67433W        W31190   8.877  20.684   2.713
67434W        W31191  43.991   9.369  11.611
67435W        W31192   3.909  36.452   4.324
67436W        W31193  22.120   0.751   0.394
67437W        W31194  34.945   1.278   4.225
67438W        W31195  44.315   7.412  13.975
67439W        W31196   3.259  37.484   1.449
67440W        W31197   4.940  20.068  14.816
67441W        W31198  43.866   7.774   3.665
67442W        W31199  36.842  24.080   0.346
67443W        W31200  10.673  15.651   4.257
67444W        W31201  44.395  20.523   0.892
67445W        W31202  11.196  38.463   1.290
67446W        W31203   8.815  33.602  13.417
67447W        W31204  33.888  10.356  13.926
67448W        W31205  30.560  33.523  13.536
67449W        W31206   7.417  26.021  13.879
67450W        W31207  36.051  26.994   4.256
67451W        W31208  15.697  10.284   4.145
67452W        W31209  41.394   3.946   1.928
67453W        W31210   9.860   5.768  12.406
67454W        W31211   2.747  18.709  11.436
67455W        W31212  26.176   8.324   0.286
67456W        W31213  39.971   6.755  10.561
67457W        W31214  33.905  19.270   0.956
67458W        W31215  12.765  29.572  13.001
67459W        W31216  27.453  44.403   0.819
67460W        W31217  22.145  31.144  12.451
67461W        W31218  31.069  42.962  10.526
67462W        W31219  29.123  15.707   3.763
67463W        W31220  16.157  33.525   0.395
67464W        W31221   3.414  28.129   3.797
67465W        W31222   6.722  33.460   1.910
67466W        W31223   3.805  13.257   2.383
67467W        W31224  34.422  40.417  12.478
67468W        W31225   0.448  19.263  12.857
67469W        W31226  10.739  39.839   3.838
67470W        W31227  29.036  14.292  12.367
67471W        W31228   6.698  29.027  10.473
67472W        W31229  40.537   9.738   3.368
67473W        W31230  38.428  18.642   3.809
67474W        W31231  24.614  36.511   3.150
67475W        W31232  18.626  37.905  10.996
67476W        W31233   2.421  25.184  11.023
67477W        W31234  27.513  43.764   1.801
67478W        W31235  37.364  42.448   1.217
67479W        W31236  21.530  26.148   0.836
67480W        W31237  20.206  20.267   3.333
67481W        W31238  23.529  10.378  11.456
67482W        W31239  37.363  23.003   2.329
67483W        W31240   9.738   6.805  14.938
67484W        W31241   1.832  32.445   4.294
67485W        W31242   6.908   6.741  12.547
67486W        W31243  28.041  23.624   1.291
67487W        W31244  30.636  41.820  11.076
67488W        W31245  24.013  15.799  12.531
67489W        W31246  10.307  42.438   0.960
67490W        W31247   2.385  19.201   3.248
67491W        W31248  17.670  38.072   0.777
67492W        W31249  42.982  39.062   0.961
67493W        W31250  38.946  39.867   2.201
67494W        W31251  31.008  40.804  14.426
67495W        W31252  10.858  40.941   1.434
67496W        W31253  22.527  25.604   2.801
67497W        W31254   0.775  43.823   0.415
67498W        W31255  29.621   1.931   0.316
67499W        W31256  41.825   6.335  12.006
67500W        W31257  33.059  16.108   2.224
67501W        W31258  28.965  26.002   1.286
67502W        W31259  35.970  43.946   4.719
67503W        W31260  26.207   1.382   3.189
67504W        W31261   1.836  23.204  13.324
67505W        W31262  34.503  28.057   2.827
67506W        W31263  33.477  23.723  12.567
67507W        W31264  26.516  23.543   3.710
67508W        W31265   1.451  32.077   0.458
67509W        W31266   2.770  28.066   3.372
67510W        W31267  28.020  17.787  10.475
67511W        W31268  26.107  18.144   2.320
67512W        W31269  16.798  42.289   1.299
67513W        W31270  15.638  27.668   2.396
67514W        W31271  39.965   8.708   1.909
67515W        W31272  17.216  33.913  14.358
67516W        W31273   5.739  26.009   3.377
67517W        W31274  29.580   0.430  12.002
67518W        W31275   4.856   2.949  13.043
67519W        W31276  13.649  20.154  11.395
67520W        W31277   7.751  44.381  12.963
67521W        W31278  23.203  34.378  12.364
67522W        W31279  17.761  39.358  13.824
67523W        W31280   4.746  11.810   2.290
67524W        W31281  37.993   7.811   2.306
67525W        W31282  31.082  34.029  11.538
67526W        W31283   3.815  43.424   1.880
67527W        W31284  20.174   6.876   4.270
67528W        W31285   6.278  38.971   0.856
67529W        W31286  43.498  32.024  14.274
67530W        W31287  12.291  20.692  14.342
67531W        W31288   7.341  14.764  12.051
67532W        W31289  15.229  41.923   3.254
67533W        W31290  37.030  38.342   2.409
67534W        W31291  36.887  12.623  12.370
67535W        W31292  13.653  32.043   3.211
67536W        W31293  29.086  18.741  11.413
67537W        W31294   4.262  24.685   3.228
67538W        W31295  26.013  29.983   0.758
67539W        W31296  32.119  17.567  14.303
67540W        W31297   9.366  41.808   4.730
67541W        W31298   4.870  21.637  12.404
67542W        W31299  11.293  44.757   4.765
67543W        W31300   0.883  15.152   1.272
67544W        W31301  19.144   8.900  14.306
67545W        W31302  15.275  11.281   2.377
67546W        W31303  27.461  23.667   0.304
67547W        W31304  42.993  26.188  10.469
67548W        W31305   9.691  25.176  11.968
67549W        W31306   3.897  28.161  14.301
67550W        W31307   9.154  12.628   3.756
67551W        W31308  36.967  17.755  10.476
67552W        W31309   9.357  18.755   4.694
67553W        W31310  14.152  23.158  14.805
67554W        W31311  44.322   1.739  11.027
67555W        W31312  29.662  35.030  10.638
67556W        W31313  14.686   3.748   3.182
67557W        W31314  32.460  22.228  13.915
67558W        W31315   3.747  31.020  10.582
67559W        W31316  35.586   8.224  13.953
67560W        W31317  38.400  12.679  14.403
67561W        W31318  17.283  37.451  12.035
67562W        W31319  20.572  25.520   3.865
67563W        W31320  38.935  29.547  11.580
67564W        W31321  26.535  38.342  14.416
67565W        W31322  43.441  24.589  14.327
67566W        W31323  34.879   0.873  14.357
67567W        W31324  28.496  14.703   4.237
67568W        W31325  25.001  36.022   3.653
67569W        W31326  10.329  39.951   1.230
67570W        W31327  20.109   3.271   2.283
67571W        W31328  15.708  19.575  13.934
67572W        W31329  23.999  13.215  13.514
67573W        W31330  29.530  20.062   3.263
67574W        W31331  12.734  40.934   3.167
67575W        W31332  19.187  41.478  10.971
67576W        W31333   0.416  24.721  12.493
67577W        W31334  41.414  17.702   0.250
67578W        W31335  39.546  28.145  11.465
67579W        W31336  17.282  32.016  10.993
67580W        W31337  31.946   6.380  12.450
67581W        W31338   9.803  42.502  11.946
67582W        W31339   1.972  27.630  13.521
67583W        W31340  26.535  18.060  13.463
67584W        W31341  12.705  38.884   2.789
67585W        W31342  28.545   2.811   3.860
67586W        W31343  15.588  16.790   4.619
67587W        W31344  42.858  37.402   2.296
67588W        W31345  29.980  32.939  11.495
67589W        W31346  26.149   9.700   4.767
67590W        W31347   9.349   1.940   3.788
67591W        W31348  36.968  15.116  11.558
67592W        W31349  42.400   1.872  14.363
67593W        W31350  43.993  38.008   4.831
67594W        W31351  10.323  37.378   9.965
67595W        W31352   3.866   3.310  14.874
67596W        W31353  20.526   2.401   3.233
67597W        W31354  29.480  44.943  11.537
67598W        W31355  19.537   4.907   9.954
67599W        W31356  40.309  30.415   9.944
67600W        W31357  37.408  32.481  10.493
67601W        W31358  38.841  41.489   9.972
67602W        W31359  10.242  17.184   1.868
67603W        W31360  40.353   9.177  11.102
67604W        W31361  27.170   5.696   3.319
67605W        W31362  27.980  28.088  12.357
67606W        W31363   8.341  30.630   0.442
67607W        W31364  39.012   5.924  12.044
67608W        W31365  21.699   4.842  10.452
67609W        W31366  31.968  11.330  14.935
67610W        W31367   8.188   9.286  13.956
67611W        W31368  26.595  17.188  12.560
67612W        W31369  23.544  16.155  14.343
67613W        W31370  32.595  36.449  13.896
67614W        W31371  28.530  34.607  10.573
67615W        W31372  33.980  21.026  13.338
67616W        W31373  14.313  30.424   2.804
67617W        W31374  29.977  43.890   4.179
67618W        W31375  26.955  41.370   4.287
67619W        W31376   2.418  22.624  11.980
67620W        W31377  30.607  10.787   1.816
67621W        W31378  29.543  21.225  12.925
67622W        W31379   3.416  16.734  11.438
67623W        W31380  21.747   7.322  11.033
67624W        W31381   6.794   9.393  13.054
67625W        W31382  25.111  22.020  11.405
67626W        W31383  34.008   2.950  10.130
67627W        W31384  42.308  43.448   3.344
67628W        W31385  40.472   1.299  11.046
67629W        W31386  26.635  29.649  12.352
67630W        W31387   4.881  23.985  14.840
67631W        W31388   8.858   5.717   3.182
67632W        W31389  27.581  29.593  14.843
67633W        W31390  40.512  10.381  14.827
67634W        W31391  40.860  29.167   0.334
67635W        W31392  38.567   3.330   3.376
67636W        W31393   0.461  14.129   4.184
67637W        W31394   4.740  22.654  10.989
67638W        W31395   6.910   7.305  12.985
67639W        W31396   3.323  22.608   2.202
67640W        W31397  12.330   6.799   4.712
67641W        W31398  26.071  36.503   2.666
67642W        W31399   2.795  29.580   4.245
67643W        W31400  34.897  23.136   2.327
67644W        W31401  18.751  20.597   4.693
67645W        W31402  33.454  44.826   1.933
67646W        W31403   3.907  16.613   0.830
67647W        W31404  32.908  16.114  11.983
67648W        W31405   0.449  10.817   0.276
67649W        W31406  38.416  33.579   2.756
67650W        W31407  40.926   6.887  11.489
67651W        W31408  33.011  15.711   3.309
67652W        W31409  39.367  33.484  10.894
67653W        W31410   3.291   1.483  14.958
67654W        W31411   8.660  36.517   3.298
67655W        W31412  26.556   9.884  11.438
67656W        W31413  38.069  14.099  11.571
67657W        W31414  17.676  12.208   2.687
67658W        W31415  35.991  12.851   4.772
67659W        W31416  27.489   9.282  11.019
67660W        W31417  16.589   1.360   9.965
67661W        W31418   1.765  28.102   2.683
67662W        W31419  16.675   2.267  14.967
67663W        W31420  12.279   4.807  12.386
67664W        W31421   5.774   8.362   4.349
67665W        W31422   0.828  40.432   3.209
67666W        W31423  42.302  28.661  14.823
67667W        W31424  14.679  32.049   2.665
67668W        W31425  25.572  26.112  14.487
67669W        W31426  26.977  34.543  12.566
67670W        W31427   2.233   7.748  14.372
67671W        W31428  40.375  16.780   3.247
67672W        W31429  19.263  44.923  13.528
67673W        W31430  35.084  19.208  10.605
67674W        W31431  11.222  35.967   4.247
67675W        W31432  36.954  11.731  10.530
67676W        W31433  25.569   6.742  12.965
67677W        W31434  39.545  24.188  12.378
67678W        W31435  38.852  10.758   1.423
67679W        W31436  24.682  44.499   2.857
67680W        W31437  13.803  29.450  12.447
67681W        W31438  34.955  24.108   1.733
67682W        W31439   8.217  42.998  13.987
67683W        W31440  26.674  21.728  10.408
67684W        W31441  43.914  33.999   3.263
67685W        W31442  33.460  12.343  12.920
67686W        W31443   8.790  11.708   3.282
67687W        W31444  12.162   1.842   0.869
67688W        W31445  25.153  38.431  13.009
67689W        W31446  43.404  38.366   2.852
67690W        W31447  34.097  12.678  12.979
67691W        W31448  29.461  10.263   0.908
67692W        W31449   7.375  42.486   2.744
67693W        W31450  21.175  22.051   2.234
67694W        W31451  26.604  42.816  10.066
67695W        W31452  37.050  41.860  12.920
67696W        W31453  14.170  22.735  11.867
67697W        W31454  27.558  14.595  14.374
67698W        W31455  19.280  37.336   2.396
67699W        W31456  42.442   5.220   1.326
67700W        W31457  16.314  12.777  13.440
67701W        W31458  16.583  10.271   4.138
67702W        W31459  25.057   6.823   4.786
67703W        W31460  31.093  38.970   2.282
67704W        W31461  16.259   9.871  13.892
67705W        W31462  34.906  26.009  14.475
67706W        W31463  23.153  26.977  10.461
67707W        W31464  24.086   7.881   2.326
67708W        W31465  25.482  23.620   0.863
67709W        W31466  11.281  12.787   4.680
67710W        W31467   7.286  23.097   3.814
67711W        W31468  31.484   4.715  13.309
67712W        W31469  26.199   3.827   4.198
67713W        W31470  27.446   2.420   2.855
67714W        W31471   8.222  12.170   3.656
67715W        W31472  42.792   0.917  11.077
67716W        W31473  31.440   0.847   1.376
67717W        W31474  34.094  26.959  13.018
67718W        W31475  43.918  23.214  12.906
67719W        W31476   6.335  11.360   4.325
67720W        W31477  41.400  12.165   0.801
67721W        W31478   8.753  18.088   5.159
67722W        W31479  18.107  37.946  11.376
67723W        W31480  32.009   2.461   1.750
67724W        W31481  13.694  19.695   4.644
67725W        W31482  22.588   6.717  12.999
67726W        W31483  15.266  16.566  12.074
67727W        W31484  33.934  44.005   1.832
67728W        W31485  26.136  30.095  14.815
67729W        W31486  37.370  35.505   0.321
67730W        W31487  33.055  31.467   0.402
67731W        W31488  10.253  11.246  13.809
67732W        W31489   0.842  24.059  14.793
67733W        W31490  20.198   6.708   1.375
67734W        W31491  43.939  23.621  14.460
67735W        W31492   2.765  42.902   1.791
67736W        W31493  13.305  23.657   4.313
67737W        W31494  37.547   3.262   0.266
67738W        W31495   2.388  36.867  13.317
67739W        W31496  28.576   3.846  13.043
67740W        W31497   7.373   0.403  14.372
67741W        W31498  10.346  39.060   2.808
67742W        W31499  40.957   3.797  13.990
67743W        W31500  38.931  41.381  11.922
67744W        W31501  29.930   2.350  12.091
67745W        W31502  17.195  31.902   2.866
67746W        W31503  23.689  33.028  13.952
67747W        W31504  39.408  38.857   0.898
67748W        W31505   4.703  26.097   0.329
67749W        W31506   4.254  18.548   2.897
67750W        W31507  43.930  15.787  11.887
67751W        W31508   2.322  36.393   1.910
67752W        W31509   1.248  39.369   3.214
67753W        W31510  16.750  31.955  13.824
67754W        W31511   3.293  39.853  14.463
67755W        W31512   8.250  15.774  13.854
67756W        W31513  28.085  19.740  14.861
67757W        W31514  19.762  43.020   0.820
67758W        W31515  38.337  34.382  10.590
67759W        W31516  21.680  34.426   0.415
67760W        W31517  17.302  25.468  13.525
67761W        W31518  29.103  27.148  10.617
67762W        W31519  37.430   8.892   5.202
67763W        W31520  37.455   3.393   9.675
67764W        W31521  14.250  39.868  11.915
67765W        W31522  17.600   0.291  12.896
67766W        W31523  16.269  19.260  13.863
67767W        W31524  13.672   7.334  11.921
67768W        W31525  39.544  41.296   1.410
67769W        W31526  39.333  43.353   3.366
67770W        W31527  30.435  27.175   3.762
67771W        W31528   4.236  34.551  11.061
67772W        W31529   8.261  32.994  10.499
67773W        W31530  10.229  15.816   4.172
67774W        W31531   2.807  13.131  14.759
67775W        W31532  30.645  30.082  14.022
67776W        W31533   9.723   0.420  13.877
67777W        W31534  11.228   7.406  11.026
67778W        W31535  44.275  10.334  11.049
67779W        W31536   0.929   1.919   5.203
67780W        W31537  42.366  25.136   4.686
67781W        W31538  16.782  38.843  11.010
67782W        W31539  28.675  19.043   0.728
67783W        W31540  10.790  43.782  11.094
67784W        W31541  41.914  40.326   3.330
67785W        W31542  28.627  11.263  13.993
67786W        W31543  44.296   6.358  11.432
67787W        W31544  25.154  33.568   0.452
67788W        W31545  23.540  41.845  11.033
67789W        W31546  27.177  30.125  11.470
67790W        W31547  22.634  41.828  11.465
67791W        W31548  44.797  28.098  12.572
67792W        W31549  22.541  10.766  12.886
67793W        W31550  11.313   8.278  13.882
67794W        W31551  28.677  15.807   0.856
67795W        W31552   3.381   4.239   2.373
67796W        W31553  24.502  44.316   3.648
67797W        W31554  33.416  17.248   0.901
67798W        W31555  12.285  32.141  12.408
67799W        W31556  25.545  23.543   1.262
67800W        W31557  27.047   7.224   1.398
67801W        W31558  33.549  29.026  13.464
67802W        W31559  23.599  42.324  12.848
67803W        W31560  26.008  35.897   3.239
67804W        W31561  29.579  21.549  14.462
67805W        W31562  33.512   4.275   4.662
67806W        W31563   3.949  15.818   1.406
67807W        W31564  34.901  20.769  10.997
67808W        W31565   3.911  16.705  10.975
67809W        W31566  28.588  40.410  12.005
67810W        W31567  33.626  15.609   2.393
67811W        W31568  21.066  29.585   5.280
67812W        W31569  28.008  11.272  10.592
67813W        W31570   7.894  11.758  12.341
67814W        W31571  13.638  11.841   3.835
67815W        W31572  39.406   4.782   3.848
67816W        W31573  11.682  29.434  12.371
67817W        W31574  32.409  32.917   0.344
67818W        W31575  19.764  20.608   1.705
67819W        W31576  13.158  41.401   1.308
67820W        W31577   0.406   1.960   0.313
67821W        W31578  22.651  18.647  12.383
67822W        W31579  16.702  29.970   2.687
67823W        W31580  10.668  22.075  13.325
67824W        W31581  22.536  38.369   9.999
67825W        W31582  13.190  28.602   0.279
67826W        W31583  35.067  34.428  14.307
67827W        W31584  23.494   3.798   4.678
67828W        W31585  35.384  19.055   1.928
67829W        W31586  24.024   7.761  14.846
67830W        W31587   9.844  13.717  12.893
67831W        W31588  13.668  37.574   2.389
67832W        W31589  11.151  35.035   0.893
67833W        W31590   9.712  37.933   2.245
67834W        W31591  10.816   6.282  14.940
67835W        W31592   7.171  16.800   0.954
67836W        W31593  43.022  41.850  12.823
67837W        W31594  44.772  30.922   1.805
67838W        W31595  22.170  20.742   0.802
67839W        W31596  29.644  42.902   2.189
67840W        W31597  37.463  31.501  13.399
67841W        W31598   6.299  22.225   4.746
67842W        W31599   6.252  28.485  11.947
67843W        W31600  32.109   6.732  10.089
67844W        W31601   3.861  10.775  13.919
67845W        W31602  35.445  17.682  12.944
67846W        W31603  27.147  36.000   0.415
67847W        W31604  33.488   7.198   1.394
67848W        W31605   0.971  44.299  14.889
67849W        W31606  30.463  24.661  12.863
67850W        W31607  32.459  29.997   3.348
67851W        W31608  16.106  25.709  12.028
67852W        W31609   3.374  26.092   4.657
67853W        W31610  32.463  10.144   0.930
67854W        W31611  35.945  34.453   1.790
67855W        W31612  17.181  42.443  11.379
67856W        W31613  15.102  30.074   4.742
67857W        W31614  18.158   5.214  12.397
67858W        W31615  15.157   3.219   3.339
67859W        W31616   2.365  18.261   2.283
67860W        W31617   8.681  23.990  13.471
67861W        W31618  35.603  35.047   1.706
67862W        W31619  37.047   8.797  13.315
67863W        W31620  27.185   3.893   2.813
67864W        W31621  16.645  31.564  10.569
67865W        W31622  12.711  43.420  10.978
67866W        W31623   8.375  44.302  12.529
67867W        W31624  14.619  41.982  12.458
67868W        W31625  12.840  14.189  14.767
67869W        W31626  32.417  34.966  14.390
67870W        W31627  40.352  43.847  13.044
67871W        W31628  33.473  14.310  10.622
67872W        W31629  39.031  22.097   4.286
67873W        W31630  13.280  34.603   1.755
67874W        W31631  37.910  26.518  13.932
67875W        W31632   5.297  13.116  12.482
67876W        W31633   4.424   7.762   4.196
67877W        W31634  36.454  36.403   2.266
67878W        W31635  27.563   1.787  11.486
67879W        W31636  42.309   5.399  13.930
67880W        W31637   8.224  13.777  13.471
67881W        W31638   0.802  42.416   4.152
67882W        W31639  37.063  30.029   0.358
67883W        W31640   1.266  14.673  11.443
67884W        W31641  32.039  24.623   0.728
67885W        W31642  32.572  11.801   3.815
67886W        W31643  40.390  31.096   1.360
67887W        W31644  28.652  27.516  11.512
67888W        W31645  30.636  32.897  10.454
67889W        W31646   6.425  33.898  14.451
67890W        W31647  40.352  13.823  13.493
67891W        W31648  13.262  26.101   3.734
67892W        W31649  34.981  41.876  10.500
67893W        W31650   9.289  33.424   4.207
67894W        W31651  29.669  25.481  11.488
67895W        W31652  38.565  44.969   1.762
67896W        W31653  37.571  16.290   1.237
67897W        W31654  34.040  38.916   3.685
67898W        W31655   8.175  36.369   4.348
67899W        W31656  17.771  42.345   3.716
67900W        W31657  26.161   5.395  13.934
67901W        W31658  37.440  42.921  10.084
67902W        W31659  15.644  27.058  11.090
67903W        W31660  14.735  41.389  12.487
67904W        W31661  34.018  24.171   0.388
67905W        W31662  38.562  15.750  14.778
67906W        W31663  44.755  12.646  14.316
67907W        W31664   6.879   0.747   4.326
67908W        W31665  16.158  41.003   2.205
67909W        W31666   1.418  23.012   0.950
67910W        W31667   3.314  35.388   2.386
67911W        W31668  29.466  27.104   4.649
67912W        W31669  26.573  32.997   1.430
67913W        W31670  19.621   6.719   4.115
67914W        W31671  27.978  34.954  12.861
67915W        W31672  38.844  42.298   4.638
67916W        W31673   3.380   8.885  10.916
67917W        W31674  21.530  29.083   4.658
67918W        W31675   5.278  41.497   3.725
67919W        W31676  15.315  13.315  14.878
67920W        W31677  25.215  11.288  12.491
67921W        W31678  37.354   1.975   2.703
67922W        W31679  28.459   9.305   3.290
67923W        W31680  31.063  27.674   5.696
67924W        W31681  26.199  35.393   3.375
67925W        W31682  10.835  20.757  10.919
67926W        W31683  40.040  15.163  10.496
67927W        W31684  34.529  25.482  14.846
67928W        W31685  32.117  22.040   3.221
67929W        W31686  22.196  36.855   0.467
67930W        W31687  27.109  26.679   5.302
67931W        W31688  16.794   5.278  10.494
67932W        W31689  34.572  34.896  11.888
67933W        W31690  38.837  25.155  14.888
67934W        W31691  12.638   7.314   3.814
67935W        W31692  38.371  12.160  10.560
67936W        W31693  19.198  24.601  10.963
67937W        W31694  32.532   1.311  13.977
67938W        W31695  25.217  29.503   4.793
67939W        W31696   0.896  42.021  14.945
67940W        W31697  19.072  14.829   9.468
67941W        W31698  12.340  37.524   1.265
67942W        W31699   8.381  17.721  12.380
67943W        W31700  21.518   1.416   3.783
67944W        W31701   2.756  17.763   0.421
67945W        W31702  35.564  44.872  11.038
67946W        W31703  42.844  30.470   2.195
67947W        W31704  43.862  32.946  12.947
67948W        W31705  17.112  20.631  13.358
67949W        W31706  37.833  35.886  13.460
67950W        W31707  22.703  17.634   4.673
67951W        W31708  33.429   5.289  12.084
67952W        W31709  16.104  15.214   2.679
67953W        W31710   4.258  25.204   2.727
67954W        W31711  34.416  38.379   2.187
67955W        W31712  34.964  20.767   0.465
67956W        W31713  44.312   4.353   4.671
67957W        W31714   0.416   8.300  13.050
67958W        W31715   0.305  31.450   4.614
67959W        W31716  34.046  21.604  13.814
67960W        W31717  44.474  18.685  13.797
67961W        W31718  14.600   3.300   1.885
67962W        W31719  19.261   4.255  10.576
67963W        W31720   9.284  37.352  14.012
67964W        W31721  27.123  18.669  12.419
67965W        W31722  23.236   6.320   2.275
67966W        W31723  26.002  32.536   2.240
67967W        W31724  11.267  17.179  12.003
67968W        W31725  13.109   5.381   3.787
67969W        W31726  37.921  10.245  10.419
67970W        W31727   2.292  18.136  12.497
67971W        W31728  38.537  38.425   0.379
67972W        W31729  35.480  16.184  14.856
67973W        W31730   3.410  18.672  14.020
67974W        W31731  12.760  17.088   2.330
67975W        W31732  37.000  41.506   4.649
67976W        W31733  23.013  17.581   4.641
67977W        W31734  10.796   8.292   4.129
67978W        W31735  29.922  27.052   1.772
67979W        W31736   2.827  26.976   0.957
67980W        W31737   7.687   4.822   3.199
67981W        W31738  44.902  31.491   3.732
67982W        W31739  36.525  36.869   4.639
67983W        W31740  35.035   6.704   0.333
67984W        W31741  38.421  44.913   4.792
67985W        W31742  29.033  44.966  14.400
67986W        W31743  42.363  12.715   1.399
67987W        W31744  18.549  38.840  13.034
67988W        W31745   2.310  38.416  11.507
67989W        W31746  18.143  22.738   4.796
67990W        W31747  23.075  38.473  13.333
67991W        W31748  14.653  17.739   2.880
67992W        W31749  41.509  42.338   4.234
67993W        W31750  44.380  16.708  10.075
67994W        W31751  16.122  38.472  14.394
67995W        W31752   8.269   3.445  10.970
67996W        W31753   1.827  15.622  11.038
67997W        W31754  20.129  16.763   3.685
67998W        W31755  13.216  15.638  10.080
67999W        W31756  24.506  28.637  14.986
68000W        W31757  22.124  30.452  11.858
68001W        W31758  38.820  44.811   1.360
68002W        W31759  22.646  13.273  11.075
68003W        W31760  23.164   8.380   2.695
68004W        W31761  27.189   9.326   1.807
68005W        W31762   7.176   2.395   1.283
68006W        W31763  26.967  40.518   4.279
68007W        W31764  23.604  16.620  12.983
68008W        W31765  38.032  30.121  11.585
68009W        W31766  44.836  44.968  13.844
68010W        W31767  20.575  42.339   1.432
68011W        W31768  40.336  30.041   2.689
68012W        W31769  21.521  39.950  10.578
68013W        W31770  26.538  38.353  11.067
68014W        W31771  37.053  27.041  12.397
68015W        W31772   1.430  18.264   4.773
68016W        W31773  33.558  39.827   0.302
68017W        W31774  16.136   0.901  11.582
68018W        W31775  36.365   9.874   0.883
68019W        W31776  23.566  17.560   3.742
68020W        W31777   8.348  14.703   1.874
68021W        W31778  15.232   5.240  12.974
68022W        W31779  14.126   1.811   9.992
68023W        W31780  16.643   9.752  14.423
68024W        W31781  27.053  38.340   2.743
68025W        W31782   7.182  42.964   4.634
68026W        W31783  26.098  13.237   1.236
68027W        W31784  39.844  37.846   1.258
68028W        W31785  11.225  38.354   3.252
68029W        W31786   4.705  17.064  12.496
68030W        W31787  31.084  26.522  13.413
68031W        W31788   4.732  21.685  13.841
68032W        W31789   4.864  32.583   3.197
68033W        W31790  30.093   1.803   3.263
68034W        W31791   8.725  22.139   3.736
68035W        W31792  29.490  16.223   4.143
68036W        W31793  25.644  24.101   1.397
68037W        W31794  20.218  10.344   9.995
68038W        W31795   8.664  25.002  12.922
68039W        W31796   4.898   5.384  12.425
68040W        W31797  32.007  37.087   2.375
68041W        W31798  28.982  32.564  11.056
68042W        W31799   4.426  11.155   1.336
68043W        W31800  21.698  11.654  12.899
68044W        W31801  17.104  32.899   2.271
68045W        W31802  36.005   4.226   3.163
68046W        W31803   1.776  10.685  12.461
68047W        W31804   9.316  19.161  14.278
68048W        W31805  22.108   6.785  12.982
68049W        W31806  42.303   2.446  12.065
68050W        W31807  41.971  17.102  11.891
68051W        W31808  18.092  10.154  14.508
68052W        W31809   0.826  17.210  14.405
68053W        W31810  27.660  23.130   3.370
68054W        W31811  32.594  17.287  13.971
68055W        W31812  41.337   5.348   4.800
68056W        W31813  31.132  22.160  11.016
68057W        W31814  23.617  14.813   3.335
68058W        W31815  21.708   6.704  10.456
68059W        W31816  28.506  22.721   4.183
68060W        W31817  25.970  40.855  14.838
68061W        W31818  24.008  14.678  13.050
68062W        W31819  40.867  33.501   3.686
68063W        W31820  18.575   9.209   0.396
68064W        W31821   4.724  21.696   2.367
68065W        W31822  27.489  21.024   2.203
68066W        W31823  27.009  31.510  12.077
68067W        W31824  17.163   0.933  10.435
68068W        W31825  37.993  38.413   4.149
68069W        W31826  28.098  38.865  14.456
68070W        W31827  32.564  44.803  14.922
68071W        W31828  26.132  27.616  13.336
68072W        W31829  35.482  26.663   9.976
68073W        W31830  23.148  30.122  14.823
68074W        W31831  39.004  25.186  10.466
68075W        W31832  22.670  14.761  13.870
68076W        W31833  14.237   1.249   5.188
68077W        W31834  39.027   1.247  11.015
68078W        W31835  31.636  30.942   1.756
68079W        W31836  21.642  31.446   5.583
68080W        W31837  24.991  39.945   0.258
68081W        W31838  35.862  10.674   3.851
68082W        W31839   3.407  25.598  13.411
68083W        W31840  34.583  37.075   3.633
68084W        W31841  38.479  28.174   2.762
68085W        W31842  20.098  36.070  14.314
68086W        W31843  37.481  43.362   4.182
68087W        W31844   1.775  30.596  12.924
68088W        W31845  20.227  25.618  14.367
68089W        W31846  29.175   3.780   1.842
68090W        W31847  17.160  21.743  10.599
68091W        W31848  15.201  40.473   2.886
68092W        W31849   9.839   6.850   0.480
68093W        W31850  12.289  20.625  14.983
68094W        W31851   5.201   3.386  11.535
68095W        W31852  23.213   6.373  11.537
68096W        W31853  34.965   1.349   4.618
68097W        W31854   1.867   9.263   0.783
68098W        W31855  20.679  21.071   2.249
68099W        W31856  36.400  43.435   1.268
68100W        W31857  11.266   8.243  12.394
68101W        W31858  27.474  38.455  12.351
68102W        W31859   0.336   8.900  13.796
68103W        W31860   6.261  29.649   0.314
68104W        W31861  38.047  41.929   4.623
68105W        W31862  41.508  37.492  10.474
68106W        W31863  29.542  34.029   1.862
68107W        W31864  28.010  31.589   3.338
68108W        W31865  41.893  39.442   0.343
68109W        W31866  33.014  34.601   3.162
68110W        W31867  21.748  20.531   2.378
68111W        W31868   0.852   8.770  12.970
68112W        W31869   3.386  35.009   1.826
68113W        W31870  21.595  43.497  10.410
68114W        W31871  33.476  22.050  10.161
68115W        W31872  38.395   9.214   4.198
68116W        W31873  34.485  10.152   4.192
68117W        W31874   5.335   6.378  14.372
68118W        W31875   7.853  42.457   5.322
68119W        W31876   0.248  35.573  10.898
68120W        W31877  29.007  17.266  11.417
68121W        W31878  39.936  33.387  14.312
68122W        W31879  44.360  26.530   1.787
68123W        W31880   3.408  40.483  12.531
68124W        W31881  41.944   1.237   2.841
68125W        W31882  36.391  26.145   3.786
68126W        W31883   1.286  21.170  11.450
68127W        W31884  25.102  40.937   0.762
68128W        W31885  25.477  25.469   4.657
68129W        W31886  40.866  26.178   2.326
68130W        W31887  15.637  31.546   0.444
68131W        W31888  41.954  18.202   1.432
68132W        W31889  20.726  43.018   1.698
68133W        W31890  16.213  10.680  14.007
68134W        W31891   4.444  16.724   4.800
68135W        W31892   1.858  19.669   1.335
68136W        W31893  13.295   8.870   1.415
68137W        W31894   8.735  27.592   2.772
68138W        W31895  12.347  18.685  10.972
68139W        W31896  40.998  30.494  14.322
68140W        W31897  30.459  13.280   3.869
68141W        W31898  28.570  36.506  13.003
68142W        W31899  43.315  38.899  13.505
68143W        W31900  18.161  26.587  10.028
68144W        W31901  36.560  19.147  14.904
68145W        W31902  37.537  30.032   0.456
68146W        W31903  25.008   8.322  11.895
68147W        W31904  33.107   3.723   4.190
68148W        W31905  10.160  38.937  13.864
68149W        W31906  26.658  41.331  14.284
68150W        W31907   0.455  38.453  13.335
68151W        W31908  27.063  24.141  11.419
68152W        W31909  21.553  33.420  13.894
68153W        W31910   6.691  12.787  12.424
68154W        W31911  17.673  31.936   2.313
68155W        W31912  36.956  30.139   2.242
68156W        W31913  18.731  42.908   1.934
68157W        W31914  24.701  34.608   4.198
68158W        W31915  41.890  21.526   4.267
68159W        W31916  16.164  34.600   1.770
68160W        W31917  32.957  38.376  13.326
68161W        W31918  24.602   0.929   3.829
68162W        W31919  16.761  18.703   2.286
68163W        W31920  38.871  14.313  11.870
68164W        W31921   1.763  11.826   1.723
68165W        W31922  27.997  31.971   3.271
68166W        W31923  20.620  21.685   4.597
68167W        W31924   5.775   3.224  12.492
68168W        W31925  28.486  12.644  13.938
68169W        W31926   1.933  19.708  11.419
68170W        W31927  36.049   8.279  14.398
68171W        W31928  30.447   7.309   3.324
68172W        W31929   8.892  10.740  13.483
68173W        W31930  24.099  42.823  10.569
68174W        W31931  30.449  38.438   1.883
68175W        W31932  43.515  20.696   0.375
68176W        W31933   9.751   9.364   4.307
68177W        W31934  27.521  29.433   3.202
68178W        W31935  40.004  24.713  10.514
68179W        W31936  21.202   4.840  14.983
68180W        W31937  39.392  37.879  11.981
68181W        W31938  15.687  19.773  12.037
68182W        W31939  41.033  18.288  10.481
68183W        W31940  42.973  28.962   3.189
68184W        W31941  26.130   3.760   1.260
68185W        W31942  22.028  23.990   4.284
68186W        W31943  40.539   2.268   3.829
68187W        W31944  29.156   8.269   2.720
68188W        W31945  25.666  40.820  12.442
68189W        W31946  21.655   1.773  13.379
68190W        W31947  29.625  12.774   0.923
68191W        W31948  44.492  35.054  10.438
68192W        W31949  31.566  16.645  10.628
68193W        W31950  12.337   0.473   4.142
68194W        W31951  30.508  39.882   0.884
68195W        W31952  37.850  17.227   4.288
68196W        W31953   2.934  16.698   0.795
68197W        W31954   4.317   0.485  14.477
68198W        W31955  13.169  23.010   3.785
68199W        W31956  38.827  23.057  14.009
68200W        W31957  44.937  40.943   2.841
68201W        W31958  39.022   1.322   4.647
68202W        W31959  11.244   7.232   1.426
68203W        W31960  18.570  10.308  10.948
68204W        W31961  20.572  19.693  11.484
68205W        W31962  44.008   7.771   0.471
68206W        W31963   9.379  28.444   1.751
68207W        W31964   8.336   1.938   1.359
68208W        W31965  30.446  10.797   4.265
68209W        W31966  29.433  29.508  10.913
68210W        W31967  16.713  15.634   4.715
68211W        W31968  13.814  41.885  13.870
68212W        W31969  11.730   0.753  12.440
68213W        W31970  16.177  25.181  12.973
68214W        W31971  42.401  15.094  13.512
68215W        W31972  38.376   2.879  13.473
68216W        W31973  17.176  23.128   2.813
68217W        W31974  42.298  35.412   1.733
68218W        W31975   5.881  17.580   2.706
68219W        W31976   3.713  30.088   2.716
68220W        W31977  44.300  39.971   0.929
68221W        W31978  41.320  41.811  10.958
68222W        W31979  11.236   3.388  14.775
68223W        W31980  24.170  33.611   3.783
68224W        W31981  25.584  36.356   4.760
68225W        W31982  43.457   6.346   1.771
68226W        W31983  35.551   5.373   0.460
68227W        W31984  37.409  12.665  11.010
68228W        W31985  23.671  30.450   4.836
68229W        W31986  41.016   7.253   1.798
68230W        W31987   5.896  43.855   3.826
68231W        W31988  38.339  10.798   2.205
68232W        W31989   7.201  32.120   3.193
68233W        W31990  25.051   1.919  13.514
68234W        W31991  44.428  29.158   0.243
68235W        W31992  13.728  31.559  13.433
68236W        W31993  28.458  24.225   5.168
68237W        W31994  15.165  22.737   4.774
68238W        W31995   7.880  17.663  12.553
68239W        W31996  26.035  22.234   3.212
68240W        W31997  21.679  13.206  13.858
68241W        W31998  25.101   0.277  12.383
68242W        W31999  13.343  23.159   2.876
68243W        W32000  15.176  11.816   0.406
68244W        W32001  27.685  23.523  14.999
68245W        W32002   1.830  17.646   0.255
68246W        W32003   3.744   2.808   3.303
68247W        W32004   1.266  17.575   4.211
68248W        W32005  26.042  24.132   0.956
68249W        W32006  14.133  21.197   3.356
68250W        W32007  44.943   7.729  11.546
68251W        W32008  21.652  14.796   4.189
68252W        W32009   8.297  20.710  14.857
68253W        W32010  29.518  34.912   5.213
68254W        W32011  12.270   9.182  14.489
68255W        W32012  17.171   5.720  12.854
68256W        W32013   4.747   1.739   3.181
68257W        W32014  33.469  13.828   2.748
68258W        W32015  11.273  16.648   0.347
68259W        W32016  39.478  11.814   1.790
68260W        W32017  37.558   5.929   4.789
68261W        W32018  27.992  32.123  10.027
68262W        W32019  24.633  21.123   5.154
68263W        W32020  35.577  19.258  14.353
68264W        W32021  13.207  37.530  12.923
68265W        W32022  22.096   7.809   0.831
68266W        W32023  20.170  36.463  12.495
68267W        W32024  23.630  23.984  14.913
68268W        W32025   6.796  40.455   1.870
68269W        W32026   4.933  16.162   2.692
68270W        W32027  30.077  30.555  13.917
68271W        W32028   8.180  10.182   0.924
68272W        W32029  15.232  36.901  11.953
68273W        W32030  33.578  17.701   4.767
68274W        W32031  15.823  37.405  13.802
68275W        W32032  13.289  28.029   0.807
68276W        W32033   4.443  33.050  14.804
68277W        W32034  31.017  33.474  11.017
68278W        W32035  31.104  24.046   4.263
68279W        W32036   8.200  26.650  14.027
68280W        W32037  39.427  43.843   3.173
68281W        W32038  44.911  35.596  14.358
68282W        W32039  34.577  38.411  14.855
68283W        W32040  42.794  24.151  13.828
68284W        W32041   8.673  16.317  13.428
68285W        W32042  22.122  11.129   3.828
68286W        W32043  29.005  10.195  11.030
68287W        W32044  32.063   5.748   3.274
68288W        W32045  42.525  27.692   2.809
68289W        W32046  18.085  41.865   3.188
68290W        W32047  17.288  20.545   0.302
68291W        W32048  33.428  34.438   2.368
68292W        W32049   4.714  26.014  14.316
68293W        W32050  26.066  29.948  10.507
68294W        W32051   5.798  11.839  13.439
68295W        W32052  25.114  42.977   1.383
68296W        W32053  19.716   8.188   2.737
68297W        W32054  35.374  41.473  12.061
68298W        W32055  16.148  38.379  10.424
68299W        W32056  34.580  32.436   3.233
68300W        W32057  23.505  36.358  14.288
68301W        W32058  20.180  42.449   0.963
68302W        W32059   3.388  27.192   2.807
68303W        W32060  31.990  26.097   2.762
68304W        W32061  25.985  37.529  14.396
68305W        W32062  43.847  41.876  13.453
68306W        W32063  11.821  42.824   5.218
68307W        W32064  34.104  34.022   1.817
68308W        W32065  25.476  33.506  10.123
68309W        W32066   6.867  23.037  13.032
68310W        W32067  14.731  26.460   4.653
68311W        W32068   5.797  39.512  10.411
68312W        W32069  14.288  37.963   1.782
68313W        W32070  23.521   3.310  13.848
68314W        W32071  38.074   4.789  10.903
68315W        W32072   7.761  37.504  14.020
68316W        W32073  23.665  25.186   9.963
68317W        W32074   6.293  43.856   1.398
68318W        W32075  44.943  22.166  13.532
68319W        W32076  28.046   3.850   0.824
68320W        W32077   4.851   4.359  11.493
68321W        W32078  18.077   1.877   3.720
68322W        W32079  41.366  22.066  13.388
68323W        W32080  30.934  32.473   4.234
68324W        W32081  36.397  31.487   2.762
68325W        W32082   2.875  13.695   2.805
68326W        W32083  44.957  29.631   3.668
68327W        W32084   5.200  19.636   3.167
68328W        W32085  36.073  16.229  11.071
68329W        W32086   3.746  38.946   0.949
68330W        W32087  19.179  43.280  14.359
68331W        W32088  44.488  10.848  13.379
68332W        W32089   0.968  41.304   0.453
68333W        W32090  36.970  26.537  14.826
68334W        W32091  36.489  11.648   2.881
68335W        W32092  14.814  28.080   1.744
68336W        W32093  12.651  21.033   4.354
68337W        W32094   1.459  31.555   4.117
68338W        W32095  10.196   6.412  10.893
68339W        W32096  38.567  20.090   4.334
68340W        W32097   4.879  13.729  14.784
68341W        W32098  43.435  28.671  10.891
68342W        W32099  34.104  35.421   0.843
68343W        W32100   6.348  40.828  11.409
68344W        W32101  29.036  20.704   1.732
68345W        W32102  38.519  27.163   3.659
68346W        W32103  15.286  16.203  10.015
68347W        W32104  32.466  35.063   9.946
68348W        W32105  35.016  31.063  11.098
68349W        W32106   8.747  10.348   5.155
68350W        W32107  12.822  34.024  13.808
68351W        W32108   0.442  30.611   4.818
68352W        W32109  15.644   9.869  14.813
68353W        W32110  11.204  19.259   0.852
68354W        W32111  28.956  25.125   3.657
68355W        W32112  21.663  21.178   3.811
68356W        W32113  17.741   9.188   1.915
68357W        W32114   4.790  41.881   3.667
68358W        W32115  31.917   5.321   1.215
68359W        W32116  21.087  22.566   3.806
68360W        W32117   9.777  27.667   2.780
68361W        W32118  23.035  19.710  11.124
68362W        W32119  27.109  23.685   0.277
68363W        W32120  19.086   9.332  12.085
68364W        W32121  41.530  39.394  10.460
68365W        W32122  40.468  11.812  10.940
68366W        W32123   3.218  19.633   2.801
68367W        W32124  25.068  44.417   1.886
68368W        W32125  12.767   1.966  12.869
68369W        W32126  12.845   9.198  14.436
68370W        W32127  23.690  34.942  12.973
68371W        W32128  38.899  13.333   1.232
68372W        W32129  20.727  38.960   4.635
68373W        W32130  41.414  37.353  13.499
68374W        W32131  29.646  30.080  11.399
68375W        W32132  44.494  11.142   4.626
68376W        W32133   1.853  29.423   5.208
68377W        W32134   1.824  40.326  12.427
68378W        W32135  40.989  38.344  11.394
68379W        W32136   8.866   9.717  14.943
68380W        W32137  38.528  35.907   3.252
68381W        W32138  16.706  20.714   4.690
68382W        W32139  18.574  39.003   4.234
68383W        W32140  26.003  24.530   0.791
68384W        W32141  37.506  27.171   1.310
68385W        W32142  43.510  23.678  11.406
68386W        W32143  40.950   9.887   4.682
68387W        W32144  35.892  18.218  10.931
68388W        W32145  23.490  34.571  12.864
68389W        W32146  35.015   9.776   4.176
68390W        W32147  21.693  24.162  10.615
68391W        W32148  21.695  37.353  10.151
68392W        W32149  31.968  27.507  12.927
68393W        W32150  26.702   2.727   3.653
68394W        W32151  34.395   3.895   2.386
68395W        W32152  22.662  20.560   3.222
68396W        W32153   9.874  27.495   0.440
68397W        W32154   9.667  39.457  11.554
68398W        W32155  14.339  16.165   3.209
68399W        W32156   6.899  27.560   4.162
68400W        W32157  12.226  40.339  13.429
68401W        W32158  34.034  33.551   1.923
68402W        W32159  21.740  23.092   0.262
68403W        W32160   5.329   0.830  13.850
68404W        W32161   0.796  30.026  10.514
68405W        W32162  44.978  42.938  13.472
68406W        W32163  11.307   8.382   3.833
68407W        W32164   0.324  32.080  11.083
68408W        W32165   6.822   5.296   4.692
68409W        W32166  11.218  39.855   1.694
68410W        W32167   1.859   8.731   1.364
68411W        W32168  11.639   8.318   4.777
68412W        W32169  42.902   0.433  11.073
68413W        W32170  39.387  30.587  11.903
68414W        W32171  39.953  26.001   3.863
68415W        W32172  28.485   5.369   5.137
68416W        W32173  26.462  37.505   0.350
68417W        W32174  37.950  12.231   0.842
68418W        W32175  27.980  18.609   4.226
68419W        W32176  26.488  14.288   4.644
68420W        W32177  16.278   8.812   0.325
68421W        W32178   7.305  37.455  10.406
68422W        W32179   2.434  30.516   2.410
68423W        W32180  15.801  11.334  14.878
68424W        W32181  19.763   0.820   2.752
68425W        W32182  11.817  16.644   2.291
68426W        W32183  32.905  30.056  13.916
68427W        W32184   9.872  14.783  10.993
68428W        W32185  36.388   2.907   2.795
68429W        W32186  42.402  23.214   1.794
68430W        W32187  26.539  43.364   2.798
68431W        W32188  39.461   3.424  14.964
68432W        W32189  38.048  25.073  14.843
68433W        W32190  20.150  28.034   4.655
68434W        W32191  33.530  16.642   4.151
68435W        W32192  24.057   1.751   2.674
68436W        W32193  13.226  25.100   2.698
68437W        W32194  14.209  19.171  11.603
68438W        W32195  42.494  19.770  13.030
68439W        W32196  10.315  12.802   3.330
68440W        W32197  41.993  20.072   3.705
68441W        W32198  34.099  10.152  11.871
68442W        W32199   1.913  25.502  14.852
68443W        W32200  18.736  20.098   1.841
68444W        W32201  18.244  41.404   4.324
68445W        W32202  28.629   9.171   0.267
68446W        W32203   4.737   9.868   1.701
68447W        W32204  29.510  17.087  11.062
68448W        W32205  12.829  42.821  12.082
68449W        W32206  36.479  23.209  14.989
68450W        W32207  31.901  33.050  12.895
68451W        W32208  33.027  24.669  11.530
68452W        W32209  41.789  27.161   0.829
68453W        W32210  23.985  34.095   1.379
68454W        W32211  12.656  18.102  12.463
68455W        W32212  19.613  22.202  13.857
68456W        W32213  43.410  11.860   4.657
68457W        W32214  35.070   3.725   4.124
68458W        W32215  27.996  32.931   0.843
68459W        W32216  15.722   0.444   4.290
68460W        W32217  28.642  22.586   0.424
68461W        W32218  16.203  27.966  14.357
68462W        W32219  15.696   0.904  10.928
68463W        W32220   1.289   9.333   4.235
68464W        W32221   6.820  23.513   4.743
68465W        W32222  27.683  32.637  10.494
68466W        W32223  24.138   5.734   1.908
68467W        W32224   0.958  29.149  12.843
68468W        W32225   5.786  25.696   3.354
68469W        W32226   5.405  20.578   1.847
68470W        W32227  29.453  28.660  11.378
68471W        W32228  44.003  13.623  12.420
68472W        W32229  35.511   1.242  14.323
68473W        W32230  40.306  14.158  11.891
68474W        W32231  35.554  31.910  12.073
68475W        W32232  10.205  30.450   0.968
68476W        W32233  42.438  38.974  11.379
68477W        W32234  30.570  28.548  11.536
68478W        W32235  13.137  19.049   4.309
68479W        W32236  23.196  16.589   3.713
68480W        W32237   4.384   1.312   1.911
68481W        W32238  14.288  22.252   3.723
68482W        W32239  28.461  11.137  12.958
68483W        W32240  11.757  31.940   4.171
68484W        W32241   5.423  10.635   0.775
68485W        W32242  28.577   4.242  10.507
68486W        W32243   0.818  44.340   2.852
68487W        W32244   9.846  42.482   1.355
68488W        W32245   7.387  16.194   2.817
68489W        W32246  17.764  13.732   0.772
68490W        W32247  22.690  33.924   4.835
68491W        W32248  26.964  22.247   4.236
68492W        W32249  43.765  33.504  11.001
68493W        W32250  15.149  38.018  11.953
68494W        W32251  18.565  23.125   3.189
68495W        W32252  33.545   6.223  13.492
68496W        W32253  43.950   1.834  12.527
68497W        W32254  24.128  27.617   1.247
68498W        W32255  11.855   8.167  12.468
68499W        W32256  31.025   7.255   2.240
68500W        W32257  40.998   9.800   1.834
68501W        W32258  42.988  35.910  14.842
68502W        W32259  37.414  20.273  11.486
68503W        W32260   3.412  23.169   0.875
68504W        W32261   2.430  12.280   4.776
68505W        W32262  39.009  22.188  13.836
68506W        W32263  19.227  41.032  12.898
68507W        W32264  40.446  35.997   4.166
68508W        W32265  13.291   2.804  13.881
68509W        W32266  21.633  21.666   2.407
68510W        W32267  14.617  42.388   2.840
68511W        W32268  26.983  17.644  12.557
68512W        W32269  25.000  13.236   4.119
68513W        W32270  35.878   2.794   1.898
68514W        W32271  22.559  36.011   1.411
68515W        W32272   2.937  36.428   2.894
68516W        W32273  43.799  39.995  13.993
68517W        W32274   7.261  43.863  11.533
68518W        W32275  40.817  14.771   4.184
68519W        W32276  40.450  16.109   3.196
68520W        W32277  19.197  39.986   3.634
68521W        W32278  44.867  15.611   4.835
68522W        W32279   5.893  25.157   1.354
68523W        W32280  11.771  41.517  14.373
68524W        W32281  18.588  34.021  10.433
68525W        W32282  29.104  22.559  12.029
68526W        W32283  21.116  41.371  11.497
68527W        W32284   8.787   2.280  13.925
68528W        W32285  22.239  39.849   3.312
68529W        W32286  33.099  25.552   4.799
68530W        W32287  12.619  12.134  14.838
68531W        W32288  20.706  33.545  12.071
68532W        W32289  24.123  22.212  10.990
68533W        W32290  21.754  18.059   2.368
68534W        W32291  33.047   5.270  14.773
68535W        W32292  40.396  20.102   2.361
68536W        W32293  25.203  25.981  14.448
68537W        W32294  44.276  21.727   0.313
68538W        W32295   2.823   4.217   0.949
68539W        W32296  24.712  21.591  11.931
68540W        W32297  38.045  34.055  14.022
68541W        W32298  43.351  44.823  11.395
68542W        W32299  28.047   5.896   4.800
68543W        W32300  44.905   2.955   2.777
68544W        W32301   5.409  20.534  10.598
68545W        W32302  33.100  44.420  12.352
68546W        W32303  34.981  44.842   0.952
68547W        W32304  44.471  22.190  14.345
68548W        W32305  14.179   1.775   4.211
68549W        W32306  25.055  37.373  14.831
68550W        W32307  39.906  26.154  13.503
68551W        W32308  20.643  37.908  10.644
68552W        W32309  36.844   4.304  11.489
68553W        W32310  19.738   1.276   3.366
68554W        W32311  27.553   5.829   0.417
68555W        W32312  35.036  14.191  10.923
68556W        W32313  31.462  37.009  14.945
68557W        W32314   6.874  29.451  11.987
68558W        W32315   4.867  35.899  11.377
68559W        W32316  43.810  39.525  12.953
68560W        W32317   9.283  16.159  13.486
68561W        W32318   4.912  16.702   1.819
68562W        W32319  28.009   9.677   0.938
68563W        W32320   1.864  25.688   1.717
68564W        W32321  35.390  24.578   2.228
68565W        W32322  39.342  13.630   0.345
68566W        W32323  34.904  32.582   1.812
68567W        W32324   4.924  22.645  14.378
68568W        W32325  10.295  42.512   1.287
68569W        W32326  35.918  16.753  14.318
68570W        W32327  43.398  40.946   3.192
68571W        W32328   8.267  37.927   3.866
68572W        W32329   8.182  22.046  11.938
68573W        W32330   3.399  20.718   1.852
68574W        W32331   9.377  20.207  12.567
68575W        W32332  15.718   6.706  12.345
68576W        W32333  40.382  11.654   5.194
68577W        W32334  29.661  40.018   1.792
68578W        W32335  19.247  35.107  12.861
68579W        W32336  40.468  27.683   2.384
68580W        W32337  30.977  41.348   4.249
68581W        W32338  18.082   4.445  13.802
68582W        W32339  21.023  35.490   2.803
68583W        W32340  25.678  33.962  13.898
68584W        W32341  34.031  19.167   1.820
68585W        W32342  34.386  16.760   2.873
68586W        W32343  31.924   2.783   5.110
68587W        W32344   7.692  20.031  11.024
68588W        W32345  30.098  36.941  11.081
68589W        W32346  10.723  33.537   3.754
68590W        W32347  11.213  35.389  12.958
68591W        W32348  40.391  41.523   2.221
68592W        W32349  27.663  14.800   4.132
68593W        W32350   6.853  30.006   1.416
68594W        W32351  37.500  35.924   3.827
68595W        W32352  10.216  33.007  13.357
68596W        W32353   2.964  17.082  13.803
68597W        W32354  26.087  40.334   2.329
68598W        W32355   2.805  33.390  14.420
68599W        W32356   2.246  33.079  11.448
68600W        W32357  17.209   1.971   0.957
68601W        W32358   7.677   1.395  14.352
68602W        W32359  16.076   4.356  10.528
68603W        W32360  32.951  27.138  14.870
68604W        W32361  11.242  28.590  10.961
68605W        W32362  18.642   5.274   2.324
68606W        W32363  33.544  26.169   2.727
68607W        W32364   3.774  20.672   0.451
68608W        W32365  10.338  15.268  11.102
68609W        W32366  10.172   4.711   4.833
68610W        W32367  30.492   7.224   0.812
68611W        W32368  26.206  15.679   3.862
68612W        W32369  23.227  11.852  12.456
68613W        W32370  27.493  35.891   0.901
68614W        W32371  38.874  41.527   4.354
68615W        W32372   1.322  24.724  13.842
68616W        W32373  24.713   6.765  11.533
68617W        W32374  34.501   5.207   1.372
68618W        W32375   5.198  35.555   0.348
68619W        W32376  10.709  38.368  12.882
68620W        W32377  17.796  16.777   0.942
68621W        W32378  15.643  25.681   0.355
68622W        W32379  33.110   4.258  13.053
68623W        W32380  28.664  34.382   3.864
68624W        W32381  33.020   9.260   4.678
68625W        W32382  34.964  44.351   4.295
68626W        W32383   9.742  32.444   4.621
68627W        W32384  26.067  39.468   1.870
68628W        W32385  41.328  22.652  10.447
68629W        W32386   2.962  24.028   0.334
68630W        W32387  27.067  29.609  10.638
68631W        W32388  29.435   7.892  11.529
68632W        W32389  34.460  41.844   4.701
68633W        W32390  16.769  41.795  14.803
68634W        W32391  37.352  17.120   0.892
68635W        W32392   4.929  35.080   0.333
68636W        W32393   7.184  32.074   4.343
68637W        W32394   8.777  10.795  14.019
68638W        W32395  17.281   1.844   2.823
68639W        W32396  23.707   8.713  12.435
68640W        W32397   4.867   5.265   1.410
68641W        W32398  32.064  31.959   5.221
68642W        W32399  26.996   9.889  13.796
68643W        W32400  22.046  14.256  10.485
68644W        W32401  42.322  20.146   1.774
68645W        W32402  11.184  37.554  12.352
68646W        W32403  24.661  16.789  14.952
68647W        W32404   9.743  21.712   4.622
68648W        W32405   2.727  35.382  12.054
68649W        W32406   7.815  23.566   3.353
68650W        W32407  44.389  21.167  12.417
68651W        W32408  21.626  18.574   1.210
68652W        W32409  37.391   7.900   4.760
68653W        W32410  28.053  12.682  14.301
68654W        W32411  21.700  11.643  13.930
68655W        W32412  39.027  34.010   3.270
68656W        W32413  19.776  30.000   0.956
68657W        W32414  27.019  32.627  12.907
68658W        W32415  18.593   1.389   4.717
68659W        W32416   3.349  41.805   3.775
68660W        W32417  42.441   2.242   4.666
68661W        W32418  15.252  26.580  14.835
68662W        W32419   6.835  14.717   0.894
68663W        W32420  31.966   2.238  10.630
68664W        W32421  26.989  20.059  12.001
68665W        W32422  41.958  40.441   1.704
68666W        W32423   0.939  19.683  10.089
68667W        W32424  41.394  31.944   4.735
68668W        W32425   0.441  18.203  13.450
68669W        W32426  37.894  44.912  10.425
68670W        W32427  12.763   2.350   4.335
68671W        W32428  33.577  17.686   0.353
68672W        W32429  22.204   5.248  14.867
68673W        W32430  37.850  35.574  13.351
68674W        W32431   9.223  16.627   3.201
68675W        W32432  17.650  11.699  12.895
68676W        W32433  31.994  30.496   0.850
68677W        W32434  43.959   8.179  14.876
68678W        W32435  25.532  19.172   1.364
68679W        W32436   0.297  34.577   4.215
68680W        W32437  11.176   2.285   4.160
68681W        W32438   6.739  16.191   3.320
68682W        W32439  23.643  27.598  14.819
68683W        W32440  18.284   3.907  14.960
68684W        W32441  32.937  37.916   4.235
68685W        W32442  43.298  41.517  14.378
68686W        W32443  40.385  31.932   0.377
68687W        W32444  38.918  21.713  11.399
68688W        W32445  43.865  27.633  13.410
68689W        W32446   8.796   7.258   0.250
68690W        W32447   6.895  41.028   2.313
68691W        W32448  30.009  36.924   4.181
68692W        W32449  33.594  21.754  14.914
68693W        W32450  23.139  30.146   3.817
68694W        W32451   9.807   2.796   2.249
68695W        W32452  10.649  12.309  12.394
68696W        W32453  12.153  38.956   3.350
68697W        W32454  42.336  42.780   1.446
68698W        W32455  44.841  25.170  14.284
68699W        W32456   7.321   9.688  11.128
68700W        W32457  21.259   2.356   4.144
68701W        W32458  38.828  18.110   4.260
68702W        W32459   7.366   4.294   3.665
68703W        W32460  17.096  36.387  14.943
68704W        W32461  42.321  12.179  13.937
68705W        W32462   2.364   1.827   2.661
68706W        W32463  12.692  31.008  11.574
68707W        W32464  11.666   8.383   0.272
68708W        W32465  38.011   7.276  11.996
68709W        W32466  20.619  26.649  14.419
68710W        W32467  37.971  34.478   0.833
68711W        W32468  33.423  27.631   0.439
68712W        W32469  18.667  29.081  11.951
68713W        W32470  38.851  18.050  13.836
68714W        W32471  37.335  23.734   0.273
68715W        W32472  10.239  10.153  11.097
68716W        W32473  44.271  34.412  14.790
68717W        W32474   3.242  42.895   4.205
68718W        W32475   8.292  28.648  13.056
68719W        W32476  23.533  33.874   0.250
68720W        W32477  21.650  17.249   3.648
68721W        W32478  41.388  33.079   3.787
68722W        W32479  29.125  31.138   1.896
68723W        W32480  33.495   6.359  14.985
68724W        W32481  37.936  17.665   3.209
68725W        W32482  17.257  25.640   4.250
68726W        W32483  41.033  39.357   1.873
68727W        W32484  19.284  35.423   0.739
68728W        W32485  11.205   4.820  10.444
68729W        W32486  36.041  41.989  14.344
68730W        W32487  14.598  32.570  12.013
68731W        W32488  42.906  14.175  14.891
68732W        W32489  11.288  16.718  12.865
68733W        W32490   0.768  25.702   3.669
68734W        W32491  42.358  26.118  14.493
68735W        W32492  33.431   1.878   2.311
68736W        W32493  19.575   7.806   1.237
68737W        W32494  21.707  38.842  13.373
68738W        W32495  44.897   2.451   4.724
68739W        W32496  12.674  32.461   1.743
68740W        W32497   3.454  20.191   4.688
68741W        W32498  25.567  28.938  11.423
68742W        W32499  41.374   0.312  12.442
68743W        W32500  42.989  39.948  12.873
68744W        W32501  30.625   7.759  13.959
68745W        W32502  20.210   3.775  13.901
68746W        W32503   3.766  27.013  10.933
68747W        W32504  34.934  26.472   5.302
68748W        W32505   6.753  31.415   3.841
68749W        W32506  44.423  21.571  11.597
68750W        W32507  36.961   6.686  13.924
68751W        W32508  22.053  27.089  10.623
68752W        W32509  31.133   2.941   4.739
68753W        W32510   9.156  30.654  11.599
68754W        W32511  11.712   2.399   3.202
68755W        W32512  11.639  18.149   3.201
68756W        W32513  41.002   9.662   0.934
68757W        W32514  10.237  21.095   4.351
68758W        W32515  16.289  20.141   3.791
68759W        W32516  36.475  22.081   4.324
68760W        W32517   4.878  42.474   4.277
68761W        W32518   6.226  42.339  12.495
68762W        W32519   2.295  36.428   5.094
68763W        W32520   1.358  11.674   1.213
68764W        W32521  38.051  15.228   4.235
68765W        W32522  25.026  22.233  11.953
68766W        W32523  42.862  29.993   1.806
68767W        W32524  21.048  19.580   4.121
68768W        W32525  39.816  44.809   2.756
68769W        W32526  22.069  40.349   3.651
68770W        W32527  40.381  44.789  13.503
68771W        W32528  17.208  23.204   0.334
68772W        W32529  20.129  34.906  12.462
68773W        W32530  32.393   6.804   1.862
68774W        W32531   4.421  17.127  14.913
68775W        W32532  26.532  33.496   1.803
68776W        W32533   7.394  12.305  11.376
68777W        W32534  17.215  18.193   1.255
68778W        W32535  25.114  11.736  14.810
68779W        W32536  19.623  19.657   3.796
68780W        W32537  17.186  27.648   4.212
68781W        W32538  35.916   9.889   1.279
68782W        W32539  13.322  39.438  13.540
68783W        W32540  38.910  35.442   0.321
68784W        W32541  21.652  14.786   1.361
68785W        W32542  18.287  34.905  14.795
68786W        W32543   4.762   1.915  12.035
68787W        W32544  29.156   8.317   2.320
68788W        W32545  26.191  21.692  14.480
68789W        W32546  23.181  21.717  13.387
68790W        W32547  12.360  27.137   3.708
68791W        W32548   1.760  10.218  10.553
68792W        W32549  19.269  21.182  12.094
68793W        W32550  12.798  24.212   0.335
68794W        W32551  17.155  38.041   1.857
68795W        W32552  17.093   8.321  12.063
68796W        W32553  13.708  40.956  11.609
68797W        W32554  32.454  33.069   2.864
68798W        W32555  20.060  33.593   4.352
68799W        W32556  25.695  10.192  10.043
68800W        W32557  40.359  27.196  10.422
68801W        W32558   3.851  29.087  14.416
68802W        W32559  16.761  44.764   2.416
68803W        W32560   3.362   2.341   3.829
68804W        W32561  31.591  16.593   0.404
68805W        W32562  29.633  33.464  10.038
68806W        W32563  34.967  11.633   2.722
68807W        W32564  26.145  24.679   3.378
68808W        W32565  26.621  44.425  12.857
68809W        W32566  21.233   9.643  13.480
68810W        W32567  22.180   7.759  14.335
68811W        W32568   3.736  16.580   3.696
68812W        W32569   4.849  12.175   3.153
68813W        W32570  24.126  14.329   0.861
68814W        W32571  19.612  11.138   0.780
68815W        W32572  35.447   1.952  14.377
68816W        W32573  29.131  35.360  13.546
68817W        W32574  25.468  10.336   4.641
68818W        W32575  41.815   6.773   0.832
68819W        W32576  38.545  37.854  12.900
68820W        W32577  26.626  38.976  12.041
68821W        W32578  27.679  42.970  11.441
68822W        W32579  14.284  38.463  11.067
68823W        W32580  41.448  36.353  13.825
68824W        W32581   1.809  20.154  10.462
68825W        W32582  41.025   8.381   1.423
68826W        W32583  33.987  40.517  10.579
68827W        W32584  24.993  21.110  14.474
68828W        W32585  25.211  22.071  10.892
68829W        W32586  24.585  19.125  14.836
68830W        W32587  12.236  12.220  13.356
68831W        W32588   0.406  10.236  11.461
68832W        W32589  10.253  29.054  11.018
68833W        W32590  30.445  27.963   1.418
68834W        W32591  19.258  33.495  12.892
68835W        W32592  15.725  31.015   1.787
68836W        W32593   0.449  35.511   1.820
68837W        W32594  13.789   6.388   0.378
68838W        W32595  11.364   0.390  11.856
68839W        W32596  23.204  38.352  12.000
68840W        W32597   3.724  11.720  10.491
68841W        W32598  38.996  27.624   4.632
68842W        W32599  26.631   8.317  11.865
68843W        W32600  18.269   6.799   4.232
68844W        W32601   9.664  34.886   2.860
68845W        W32602  12.789  25.522   1.874
68846W        W32603  38.863  11.346  10.519
68847W        W32604   8.183  41.410   4.287
68848W        W32605  44.984  18.656   3.298
68849W        W32606  33.082  13.810  11.951
68850W        W32607  31.017  13.685   3.242
68851W        W32608  24.098  16.090  12.848
68852W        W32609  20.691  19.193  13.405
68853W        W32610  24.711  17.740  12.857
68854W        W32611   5.429  37.854   2.261
68855W        W32612  35.538  23.672  12.961
68856W        W32613  42.978   8.826   0.739
68857W        W32614  43.439  11.262   3.207
68858W        W32615  43.291   8.770   3.243
68859W        W32616  30.935  30.022  12.561
68860W        W32617  34.863  30.150  13.345
68861W        W32618  44.362   7.693  11.012
68862W        W32619  15.083   3.333  14.295
68863W        W32620  27.688  38.058   3.719
68864W        W32621   1.329  29.987  14.304
68865W        W32622  39.440  14.627   2.740
68866W        W32623   4.240  43.926  14.918
68867W        W32624  14.319  12.199  12.399
68868W        W32625  29.098  36.582  12.444
68869W        W32626  42.865   8.219  10.957
68870W        W32627  28.033  37.509  12.368
68871W        W32628  18.073  34.530   3.292
68872W        W32629  40.402   1.418   5.188
68873W        W32630  18.209  43.439   3.805
68874W        W32631  35.523  14.281  12.379
68875W        W32632   2.883  29.627  13.047
68876W        W32633  28.447  28.447   2.378
68877W        W32634  30.640   7.817  10.432
68878W        W32635  14.684  37.534   0.898
68879W        W32636  14.174  38.018   3.829
68880W        W32637  12.785  22.669   1.768
68881W        W32638   7.393  33.607   3.851
68882W        W32639  40.797  36.498  10.499
68883W        W32640   8.809  21.693   0.923
68884W        W32641  24.489  42.309  14.343
68885W        W32642  32.939  16.700   0.354
68886W        W32643  34.035  30.611  14.900
68887W        W32644  13.190  34.450   0.358
68888W        W32645  22.243  30.036   3.730
68889W        W32646  33.913  30.997   4.229
68890W        W32647  40.861  26.681   3.294
68891W        W32648  18.689  25.078  10.905
68892W        W32649   6.766  13.218  11.116
68893W        W32650   6.823   6.347  10.525
68894W        W32651   0.404  23.547  13.307
68895W        W32652  30.425  31.405  14.911
68896W        W32653   3.256  20.684   2.257
68897W        W32654  18.191   5.832   2.257
68898W        W32655  30.104  12.145   0.878
68899W        W32656  21.206   4.729   5.232
68900W        W32657   2.250  39.512   0.732
68901W        W32658  20.741  11.367  11.099
68902W        W32659  37.038  27.632  12.385
68903W        W32660  23.999  27.124   4.305
68904W        W32661  43.449  31.430  14.462
68905W        W32662  31.940  33.963  12.573
68906W        W32663  26.651   5.858  13.036
68907W        W32664  35.552  29.562   1.861
68908W        W32665  12.624  37.081   4.145
68909W        W32666  32.534  39.855   1.866
68910W        W32667  31.589  13.735   0.304
68911W        W32668  26.514  39.907   4.817
68912W        W32669  21.756  35.922  10.407
68913W        W32670  28.650   4.935  14.512
68914W        W32671  14.099   1.310  14.505
68915W        W32672  26.596   4.225   1.306
68916W        W32673  33.426  39.507   1.298
68917W        W32674  16.200  42.484   3.275
68918W        W32675  43.483  26.159   4.161
68919W        W32676  15.268  42.865  12.553
68920W        W32677  23.171  11.651   0.432
68921W        W32678   0.304  35.991   1.859
68922W        W32679   7.686  14.733  10.577
68923W        W32680   1.259  43.320  13.061
68924W        W32681  43.830  42.908   4.242
68925W        W32682  28.627  29.569  14.445
68926W        W32683   1.267   1.440  13.320
68927W        W32684  22.620  19.186  12.077
68928W        W32685   6.315   6.407   3.279
68929W        W32686  40.440   4.938   1.809
68930W        W32687  44.937  12.125  13.817
68931W        W32688  44.420  41.307   9.921
68932W        W32689  37.934  26.658   1.798
68933W        W32690  15.324  44.414   2.199
68934W        W32691  37.016  37.961  12.030
68935W        W32692  33.016  40.474  11.064
68936W        W32693   2.297   0.275  10.991
68937W        W32694   2.344  17.283   4.737
68938W        W32695  20.629  36.457  10.045
68939W        W32696   9.701  19.761  10.535
68940W        W32697  15.643  29.462   4.300
68941W        W32698  13.619  21.689  10.464
68942W        W32699   3.755  12.193   0.913
68943W        W32700   0.899   3.898  14.768
68944W        W32701   6.899  11.313   4.755
68945W        W32702   6.865  21.040  11.602
68946W        W32703  15.308   3.457  12.973
68947W        W32704   8.369   1.813  14.975
68948W        W32705  43.905  10.294  13.437
68949W        W32706  20.548   6.306  11.532
68950W        W32707  22.213  17.715  11.567
68951W        W32708   6.684  22.136  14.982
68952W        W32709  26.008  18.614  14.459
68953W        W32710  22.201  18.182   0.729
68954W        W32711  42.901   6.883  10.626
68955W        W32712  10.818   1.407  10.429
68956W        W32713  12.695  29.174   1.293
68957W        W32714   1.323  25.520   0.844
68958W        W32715   7.200  30.470   3.227
68959W        W32716  12.152  35.905   1.914
68960W        W32717  30.956  27.520  11.375
68961W        W32718  29.981   6.704   4.287
68962W        W32719  26.069  41.977   3.342
68963W        W32720  29.115  34.108  14.964
68964W        W32721   6.870  37.517   0.482
68965W        W32722  41.929  19.750   4.189
68966W        W32723  10.253  23.076  10.609
68967W        W32724  21.019  34.044   3.765
68968W        W32725   0.249  39.877   3.245
68969W        W32726  36.956  16.634  12.568
68970W        W32727   7.864  29.470  14.313
68971W        W32728  17.617  23.048  11.599
68972W        W32729  19.696  15.279   3.756
68973W        W32730  16.118  37.381  14.287
68974W        W32731  23.631  15.585  13.968
68975W        W32732  35.096  15.822   3.803
68976W        W32733  35.528  43.452  12.507
68977W        W32734  17.080  18.678  14.358
68978W        W32735   3.347  30.618  11.373
68979W        W32736  16.704  18.547  14.315
68980W        W32737  15.320   1.944  14.454
68981W        W32738  15.149  39.885   0.731
68982W        W32739   4.364   3.786  13.949
68983W        W32740  20.078  37.926  11.103
68984W        W32741  41.892  34.866   4.277
68985W        W32742  25.138  26.990  11.081
68986W        W32743  22.533  12.730  12.986
68987W        W32744  41.888  40.394   2.408
68988W        W32745  33.431   2.849  10.936
68989W        W32746  32.986  11.868   0.449
68990W        W32747   2.824   3.906  14.823
68991W        W32748  37.036  11.744  12.519
68992W        W32749  16.183  17.566   1.914
68993W        W32750  11.632  27.116  12.941
68994W        W32751  34.080  39.338   3.788
68995W        W32752   8.813  43.276   5.310
68996W        W32753  42.416   2.273   1.240
68997W        W32754   3.453  17.287   0.432
68998W        W32755  21.136  44.755   4.677
68999W        W32756  35.460  18.075   0.385
69000W        W32757   0.919   1.357  12.510
69001W        W32758  24.495  30.540  13.022
69002W        W32759  27.042  39.864  13.350
69003W        W32760  32.625  29.953  11.129
69004W        W32761  41.998   4.739   3.161
69005W        W32762  23.015   9.655  13.309
69006W        W32763   5.869   6.184   1.809
69007W        W32764  13.246  43.883   0.427
69008W        W32765  27.971  28.477   1.860
69009W        W32766  35.487  31.133   3.298
69010W        W32767  33.063   9.760  11.975
69011W        W32768  34.611  26.689  13.360
69012W        W32769  37.856  15.790   2.312
69013W        W32770  19.110  37.023   4.265
69014W        W32771  35.049  15.165  11.013
69015W        W32772   6.315  43.845  14.478
69016W        W32773  34.062  42.342  10.481
69017W        W32774   8.709  37.834   4.745
69018W        W32775  13.727  38.511  10.413
69019W        W32776  41.921  18.234   0.291
69020W        W32777  22.215  16.567   1.298
69021W        W32778   9.718  42.425  13.000
69022W        W32779  10.634   4.880   1.388
69023W        W32780  36.009  10.766  14.919
69024W        W32781  15.694  32.895  12.536
69025W        W32782  40.840  24.613   4.767
69026W        W32783  26.508  22.668  12.389
69027W        W32784  10.698  31.952   1.397
69028W        W32785   5.876  25.539  11.390
69029W        W32786  25.596   6.291   1.309
69030W        W32787  38.023   5.310  12.067
69031W        W32788   0.892  37.038  14.316
69032W        W32789  31.609  35.486   1.313
69033W        W32790  42.492  20.735   4.201
69034W        W32791  33.581   0.774  13.855
69035W        W32792  34.977  30.005  14.942
69036W        W32793  22.564   1.797  10.970
69037W        W32794  37.391   3.236  11.116
69038W        W32795   5.366  10.250   4.341
69039W        W32796   5.829   6.908   4.280
69040W        W32797  22.513  33.462  14.509
69041W        W32798  39.410  19.196  12.894
69042W        W32799  28.596  34.919   0.280
69043W        W32800  13.184  23.072   3.325
69044W        W32801  15.101   0.372   2.199
69045W        W32802   0.795  38.995  10.986
69046W        W32803  23.042  39.347   4.780
69047W        W32804  21.150  10.243   3.784
69048W        W32805  36.458  36.877   3.185
69049W        W32806  38.969  28.615  13.380
69050W        W32807  34.088  20.681   0.830
69051W        W32808   3.745  35.900   2.820
69052W        W32809   1.906  44.359  13.923
69053W        W32810  26.031   6.765   3.703
69054W        W32811  32.632  26.979  14.315
69055W        W32812  35.602  33.412   0.244
69056W        W32813  14.255  16.133   0.771
69057W        W32814  10.253  17.304   0.727
69058W        W32815  44.282  22.035   3.172
69059W        W32816  40.443  18.690  13.381
69060W        W32817  28.147   8.696   2.317
69061W        W32818  20.592  17.797   1.349
69062W        W32819  22.135  32.395   1.340
69063W        W32820  12.623  28.491   4.253
69064W        W32821  31.034  27.602   0.481
69065W        W32822  41.897  16.197  14.772
69066W        W32823  28.464  37.340  13.435
69067W        W32824  43.968   9.380  14.485
69068W        W32825  43.508  12.618   4.142
69069W        W32826  20.264  44.331   2.820
69070W        W32827  37.069  12.770  14.892
69071W        W32828  30.505  23.032   4.239
69072W        W32829  11.628  44.833  14.478
69073W        W32830  27.638  36.372   0.892
69074W        W32831   7.703  29.561   2.803
69075W        W32832  27.028  36.361  11.510
69076W        W32833  32.626  36.866   0.921
69077W        W32834  10.752  32.963   3.732
69078W        W32835  18.718  34.060   4.207
69079W        W32836   8.821   3.891  13.461
69080W        W32837  37.890   8.160   4.243
69081W        W32838  25.590  44.974   3.639
69082W        W32839  16.301   1.895   1.376
69083W        W32840   9.665  22.501  11.539
69084W        W32841  22.013  14.132  14.928
69085W        W32842  34.935  18.636  11.539
69086W        W32843  22.186   9.304   4.807
69087W        W32844  20.712  35.372   4.199
69088W        W32845  20.618  17.163   4.197
69089W        W32846  31.110  13.168   3.345
69090W        W32847  23.121  32.523  13.474
69091W        W32848  37.066  39.974   4.225
69092W        W32849  35.420   0.850   2.895
69093W        W32850   3.750  24.177   3.275
69094W        W32851  17.555  27.109  12.032
69095W        W32852  44.335  27.138  13.025
69096W        W32853  32.406  40.347   4.631
69097W        W32854  34.905  38.989  10.577
69098W        W32855  43.769  14.808  14.508
69099W        W32856  26.988  25.201  14.309
69100W        W32857   3.724  40.033  11.003
69101W        W32858  38.998   9.384  12.557
69102W        W32859  32.561  11.700   0.904
69103W        W32860  17.077  23.195  13.960
69104W        W32861  42.452   4.857  11.065
69105W        W32862  23.137   3.855  12.894
69106W        W32863  17.141  42.331   4.251
69107W        W32864   8.380   1.840  12.492
69108W        W32865   9.266   4.730   2.383
69109W        W32866  24.513  32.045  12.443
69110W        W32867  12.186  11.249   1.839
69111W        W32868  39.520  31.528   4.140
69112W        W32869  26.649  33.930  11.576
69113W        W32870  15.266  12.626   3.709
69114W        W32871   0.863   8.228  12.459
69115W        W32872  44.008  25.632   0.278
69116W        W32873  42.884  30.921  13.827
69117W        W32874  32.441  25.974  13.836
69118W        W32875  21.188  21.659  13.544
69119W        W32876  44.942  43.488  12.945
69120W        W32877  42.956  40.318   1.429
69121W        W32878   1.240  37.961   3.240
69122W        W32879  37.948  29.999  14.302
69123W        W32880  43.857   2.800  11.534
69124W        W32881  25.525  13.826   9.600
69125W        W32882  35.975   1.422  14.951
69126W        W32883  19.659  19.648   1.852
69127W        W32884  21.019  11.363  12.985
69128W        W32885  36.968   1.478   3.665
69129W        W32886  26.543   1.911  10.421
69130W        W32887   6.296   7.690   2.800
69131W        W32888  38.050  42.446  12.072
69132W        W32889  44.988  17.156  13.012
69133W        W32890  19.242   6.349  14.850
69134W        W32891  11.302  15.762   4.741
69135W        W32892  18.560  34.575   1.875
69136W        W32893  39.822  13.759   4.260
69137W        W32894  18.060  18.649  12.349
69138W        W32895  28.604  15.294   1.825
69139W        W32896  35.017   6.268   3.334
69140W        W32897  29.032  36.410  13.006
69141W        W32898  39.039   2.311  13.456
69142W        W32899  24.633   6.784   2.867
69143W        W32900  43.366  27.970   3.732
69144W        W32901  37.505  21.554   2.308
69145W        W32902  32.538  31.925  14.799
69146W        W32903  19.147  14.159   4.351
69147W        W32904  39.336  44.352   2.259
69148W        W32905  23.670  43.911  11.587
69149W        W32906   4.292  22.570  12.952
69150W        W32907  36.521  31.461  11.505
69151W        W32908  22.019  19.048  13.878
69152W        W32909   8.693  16.770  11.924
69153W        W32910  36.947  19.647   2.737
69154W        W32911  24.018  13.166   2.224
69155W        W32912  23.719   0.262   3.703
69156W        W32913  42.805  20.608  11.528
69157W        W32914  41.810  14.610   2.872
69158W        W32915   8.361   5.911   3.765
69159W        W32916  33.882   5.863  13.025
69160W        W32917  19.039   9.878   4.758
69161W        W32918  38.446  30.017   1.932
69162W        W32919  30.563  30.603  14.777
69163W        W32920  31.639  30.584  14.304
69164W        W32921  33.515  19.618   5.156
69165W        W32922  13.140  40.446   3.851
69166W        W32923  11.343   4.204   3.733
69167W        W32924  42.896  16.607  13.856
69168W        W32925   1.877  12.254   4.694
69169W        W32926  27.116  22.694  13.480
69170W        W32927  23.129  13.840   2.815
69171W        W32928   6.264   9.690   3.681
69172W        W32929  33.581   3.330  14.313
69173W        W32930   4.785  15.638   2.692
69174W        W32931  41.012  10.671  14.955
69175W        W32932  26.144   5.813   3.383
69176W        W32933  29.484  18.107   5.190
69177W        W32934  11.838   7.269  10.952
69178W        W32935  23.504  37.371   0.474
69179W        W32936  18.603  38.379   3.192
69180W        W32937  30.432  39.871   2.249
69181W        W32938  25.996  12.160  13.474
69182W        W32939  32.064  22.020  11.903
69183W        W32940  17.624   6.216   3.283
69184W        W32941   3.256   4.912  12.400
69185W        W32942  32.912  22.632  14.308
69186W        W32943  27.464  32.018   2.345
69187W        W32944  29.138  33.083  13.323
69188W        W32945  16.758  37.031  10.575
69189W        W32946   3.784  10.198   1.332
69190W        W32947  32.079  25.171   1.435
69191W        W32948  14.809  31.456   2.407
69192W        W32949  29.613  13.627  13.047
69193W        W32950  33.908   2.383   0.375
69194W        W32951  27.510  30.429   4.172
69195W        W32952  22.045  37.892  12.542
69196W        W32953  38.897   7.784   3.666
69197W        W32954  23.194   0.430  13.992
69198W        W32955  21.736  39.490  13.372
69199W        W32956  31.551   3.867  14.966
69200W        W32957   9.172   6.415  10.937
69201W        W32958  24.033  35.592   2.692
69202W        W32959  13.798   5.779  10.971
69203W        W32960   0.327  22.155   0.367
69204W        W32961  28.631   4.937   3.646
69205W        W32962   8.883   1.778  11.391
69206W        W32963  21.078  34.484  12.999
69207W        W32964  44.800  31.486   2.254
69208W        W32965  23.127  13.179  13.922
69209W        W32966   7.399  16.303  12.560
69210W        W32967  25.179  13.709   1.430
69211W        W32968  16.745  39.015  13.330
69212W        W32969  12.304  17.767   3.147
69213W        W32970  44.821   6.396  10.997
69214W        W32971  26.677  12.177   0.422
69215W        W32972  15.665  38.480  14.847
69216W        W32973   0.469  44.417  11.097
69217W        W32974  26.985  22.074  13.543
69218W        W32975   4.913  39.961   0.362
69219W        W32976  15.205  13.691   5.717
69220W        W32977  25.008  23.213  12.432
69221W        W32978  43.354  44.402   3.189
69222W        W32979  15.734  40.860  12.427
69223W        W32980  31.919  35.551  14.392
69224W        W32981  35.030  25.066  10.103
69225W        W32982  22.026  31.088  11.108
69226W        W32983  33.999  41.786  11.478
69227W        W32984  33.947   7.207   3.189
69228W        W32985  43.380   3.734   4.293
69229W        W32986   3.954  28.678   2.876
69230W        W32987  14.589  38.336   4.622
69231W        W32988  21.552  37.972   9.572
69232W        W32989  25.186   2.449   0.337
69233W        W32990  14.807   0.845  13.879
69234W        W32991   9.364  33.482  11.976
69235W        W32992  11.267  34.911   4.235
69236W        W32993  41.840  12.174  11.411
69237W        W32994  12.744   5.894  13.966
69238W        W32995  12.637  40.467   3.335
69239W        W32996  38.967  24.497   3.835
69240W        W32997  21.247   5.248  11.885
69241W        W32998  17.558  21.166  10.635
69242W        W32999   5.412  39.517  13.984
69243W        W33000  37.390  26.999   4.224
69244W        W33001  21.749  34.551   1.326
69245W        W33002   3.447  14.632   3.717
69246W        W33003  21.151  43.975  11.592
69247W        W33004  12.717   5.828  12.001
69248W        W33005  35.912  24.699  13.420
69249W        W33006  15.221  18.053  14.810
69250W        W33007  43.972  20.103  13.332
69251W        W33008  25.084   9.790   2.417
69252W        W33009   2.793  26.654   2.734
69253W        W33010  23.216  20.165  13.026
69254W        W33011  16.677  38.339  13.017
69255W        W33012   9.228  20.641  12.435
69256W        W33013  30.537   4.229  12.057
69257W        W33014  36.485  36.951   1.396
69258W        W33015   8.862  23.683   4.736
69259W        W33016  33.921  11.159  14.421
69260W        W33017   9.741  27.081  11.569
69261W        W33018   7.380  13.705  13.837
69262W        W33019  32.111  36.469   0.922
69263W        W33020   5.865  22.648   2.239
69264W        W33021  12.689  42.445   5.151
69265W        W33022  20.692  28.627  11.952
69266W        W33023  25.168  19.128  14.994
69267W        W33024   5.209   2.781  14.407
69268W        W33025  22.120  34.586   2.781
69269W        W33026  22.118  13.732  11.522
69270W        W33027  28.495  17.587   1.434
69271W        W33028   3.896  29.942  12.567
69272W        W33029  38.819  21.072  12.362
69273W        W33030   9.832  37.357  13.533
69274W        W33031   5.806   3.908   0.878
69275W        W33032  17.794  31.044  11.434
69276W        W33033   4.208   1.821  14.495
69277W        W33034  20.616  10.753  10.473
69278W        W33035  44.921   2.251  11.969
69279W        W33036   3.452   0.392  13.445
69280W        W33037  15.739  15.204   1.276
69281W        W33038   9.391   2.890  13.832
69282W        W33039  18.647   6.397   1.244
69283W        W33040  32.041   5.220  11.542
69284W        W33041  30.540  39.840   4.781
69285W        W33042  35.542  29.484   4.146
69286W        W33043   6.221  27.131  13.857
69287W        W33044  44.375   4.870  13.003
69288W        W33045  37.515  10.142   4.243
69289W        W33046  25.604   5.287   4.659
69290W        W33047   9.204   0.414  10.633
69291W        W33048  12.349  19.114   4.693
69292W        W33049  32.631  41.504  11.027
69293W        W33050   5.390  22.154   2.412
69294W        W33051  18.619   9.767  14.345
69295W        W33052   7.295   8.859   4.117
69296W        W33053   7.884  33.051  13.842
69297W        W33054   6.324   2.728   0.881
69298W        W33055   5.705  23.083  14.887
69299W        W33056  27.606  31.469  10.585
69300W        W33057  36.584  20.545   0.800
69301W        W33058   4.735  17.679  13.898
69302W        W33059  42.977  42.992   1.894
69303W        W33060   1.909  26.469  13.872
69304W        W33061  10.783  34.961   0.911
69305W        W33062  30.549  44.010   0.270
69306W        W33063  32.142  41.989  11.893
69307W        W33064   8.235   9.194  13.451
69308W        W33065  39.899  28.970   0.245
69309W        W33066   4.340  11.315  14.479
69310W        W33067  32.893   2.844   0.367
69311W        W33068  39.443  27.169  10.405
69312W        W33069  24.997  41.437  12.055
69313W        W33070  16.124  36.971  13.027
69314W        W33071  40.002  22.550   2.340
69315W        W33072  24.231  19.539  10.952
69316W        W33073  34.594  14.631   1.439
69317W        W33074  36.435   2.800   2.274
69318W        W33075  17.634  14.234  13.462
69319W        W33076   3.909  25.584   2.883
69320W        W33077  42.878  33.018  11.578
69321W        W33078   2.467   9.784   4.149
69322W        W33079  27.067  32.579   2.722
69323W        W33080   2.360   4.237  13.030
69324W        W33081   8.769  18.640  14.860
69325W        W33082  31.942  43.482   4.126
69326W        W33083  17.150  12.856  13.056
69327W        W33084  16.129   7.260  12.952
69328W        W33085  32.124  29.604  12.531
69329W        W33086  12.204   5.389   3.247
69330W        W33087   1.436   3.891   0.771
69331W        W33088  32.940  43.003  11.545
69332W        W33089   2.957  22.059  14.952
69333W        W33090   6.355  18.738  11.110
69334W        W33091  39.066  35.543  14.426
69335W        W33092   4.373   2.422  11.126
69336W        W33093  19.159   9.682   4.218
69337W        W33094  15.249  34.085   1.212
69338W        W33095  41.396  18.105  12.077
69339W        W33096  26.634  15.317   3.343
69340W        W33097   4.364  16.188  11.054
69341W        W33098  13.131  38.477  11.858
69342W        W33099  38.060  41.854  12.072
69343W        W33100  36.951   5.768  12.465
69344W        W33101  22.235  33.516   0.842
69345W        W33102  38.831  17.786   3.842
69346W        W33103  33.551  39.814  13.047
69347W        W33104  24.578  33.079  11.042
69348W        W33105  31.088  16.176   1.310
69349W        W33106  21.026  32.048  10.117
69350W        W33107  36.052  33.011  10.521
69351W        W33108  25.554  24.715  12.559
69352W        W33109  19.162  32.049   3.293
69353W        W33110   7.872  25.165  14.831
69354W        W33111  21.237  42.303   4.706
69355W        W33112  28.021  24.033   4.670
69356W        W33113  21.186  20.648   4.165
69357W        W33114  31.931   3.299  14.285
69358W        W33115  20.728  44.280  13.890
69359W        W33116  17.159  26.109   0.445
69360W        W33117  36.068   2.358  14.328
69361W        W33118  28.154  18.774   2.823
69362W        W33119   4.254  22.226  13.872
69363W        W33120  12.323  31.448   1.868
69364W        W33121  27.466  13.242   5.720
69365W        W33122  13.603   0.764   1.906
69366W        W33123   6.234   9.709  13.420
69367W        W33124  41.863  39.901   2.267
69368W        W33125  33.032  35.002  11.091
69369W        W33126  41.387  38.482  12.076
69370W        W33127   2.437  20.176  14.831
69371W        W33128  19.750  21.750  10.965
69372W        W33129  43.350  11.847  10.130
69373W        W33130  31.424  12.339   2.834
69374W        W33131  41.493  16.082   3.313
69375W        W33132  14.714  32.404  11.536
69376W        W33133  30.518  33.092  12.533
69377W        W33134   6.310  25.528   4.650
69378W        W33135  12.173   3.739  14.331
69379W        W33136   8.204  27.468  10.956
69380W        W33137  12.270  24.655  11.045
69381W        W33138  16.640  28.611  12.347
69382W        W33139  30.962  31.425   0.453
69383W        W33140  19.227  11.810   3.862
69384W        W33141  12.769  31.590   2.746
69385W        W33142   4.248   1.872  13.041
69386W        W33143   6.881  18.703   4.302
69387W        W33144  31.039  40.014   0.857
69388W        W33145   0.440  35.043  10.543
69389W        W33146  36.073  31.047  11.933
69390W        W33147  18.561  11.717  13.863
69391W        W33148  25.651  33.968   0.308
69392W        W33149  12.195  21.137  13.428
69393W        W33150  38.848  41.452  13.048
69394W        W33151  30.932  11.865  11.915
69395W        W33152  15.706  10.312   0.942
69396W        W33153  37.492   9.881  10.410
69397W        W33154  19.246  36.978  12.941
69398W        W33155   1.862  40.941  14.290
69399W        W33156  39.920   2.959   3.357
69400W        W33157  19.613  40.308   4.836
69401W        W33158  25.589  21.729   3.706
69402W        W33159   1.320  10.756   4.167
69403W        W33160  39.830  42.941   4.203
69404W        W33161  30.014  42.954  10.993
69405W        W33162  23.039   5.884  10.460
69406W        W33163  22.172   0.794   4.117
69407W        W33164  34.615   6.213   4.230
69408W        W33165  41.321  42.003   0.362
69409W        W33166   6.841  31.920  10.594
69410W        W33167  24.100  37.495   0.764
69411W        W33168  43.446  44.314   4.128
69412W        W33169  16.712  44.847   1.282
69413W        W33170  15.646  36.884  14.851
69414W        W33171   6.806  29.638  11.107
69415W        W33172  18.725  26.469  12.353
69416W        W33173   8.883  20.247  10.132
69417W        W33174  14.205  22.061  13.329
69418W        W33175  32.113  17.160   4.181
69419W        W33176  41.513  10.683   2.799
69420W        W33177  12.716  44.847   0.381
69421W        W33178  34.896   8.319  14.911
69422W        W33179  26.142  32.947  12.440
69423W        W33180  19.741  13.710  13.450
69424W        W33181  13.280  24.100   1.823
69425W        W33182  41.972   0.779   2.357
69426W        W33183  29.605   2.339  10.969
69427W        W33184  43.958  16.209   4.750
69428W        W33185   4.352  33.551  12.549
69429W        W33186  34.072  21.033  14.376
69430W        W33187  38.450   9.786  14.319
69431W        W33188   8.741  20.183   0.914
69432W        W33189   3.417  27.019  14.766
69433W        W33190  43.493  31.494   2.704
69434W        W33191   5.282   5.224  13.541
69435W        W33192  27.464   0.294   4.153
69436W        W33193  16.709   9.865  10.944
69437W        W33194  20.633  39.059  12.855
69438W        W33195  44.479   8.765   1.917
69439W        W33196  34.005  37.514  11.997
69440W        W33197  40.322  39.933  11.610
69441W        W33198  15.658  22.159   4.693
69442W        W33199  20.749  13.765   9.556
69443W        W33200  25.176   2.408   0.743
69444W        W33201  23.007  12.133  11.000
69445W        W33202  10.842  36.992  13.853
69446W        W33203  30.107  24.627  10.491
69447W        W33204  40.548  21.150  11.537
69448W        W33205  19.596  35.554   1.848
69449W        W33206  13.691   1.440   0.754
69450W        W33207  15.319  42.015   3.865
69451W        W33208   0.983  31.109  12.490
69452W        W33209  21.247  28.472  11.064
69453W        W33210  30.478  41.949  11.385
69454W        W33211  10.873  16.093  11.395
69455W        W33212  30.925  20.532  14.028
69456W        W33213  43.850  34.088  10.513
69457W        W33214  25.059  13.743   4.696
69458W        W33215  23.018  18.611   3.351
69459W        W33216  27.018  37.876  11.966
69460W        W33217   1.732  19.692   4.237
69461W        W33218  39.984  37.077  14.323
69462W        W33219  42.806   3.274   0.760
69463W        W33220  27.548  17.600   3.152
69464W        W33221  22.220   1.968   3.213
69465W        W33222  32.632  13.650  10.550
69466W        W33223  44.290  29.963  14.920
69467W        W33224   1.252  23.048  10.488
69468W        W33225   9.190  28.479   2.322
69469W        W33226   5.233   5.207   3.364
69470W        W33227  14.220   8.792  13.467
69471W        W33228  31.563  28.079  12.076
69472W        W33229  28.003  30.978   2.673
69473W        W33230   7.690  41.809  12.578
69474W        W33231  22.107  42.983  12.023
69475W        W33232   9.384  13.324  12.393
69476W        W33233  11.720   8.882  11.421
69477W        W33234  26.090   3.459   2.763
69478W        W33235  39.850   5.230  11.396
69479W        W33236  13.778  40.039   4.258
69480W        W33237  24.089  10.379   5.175
69481W        W33238   7.341  11.624  12.021
69482W        W33239  11.686  37.061   0.328
69483W        W33240  13.306  42.489  13.391
69484W        W33241   5.723  34.402   1.226
69485W        W33242  27.543  38.824  12.869
69486W        W33243  40.013  30.572   2.258
69487W        W33244  27.488  33.971  10.537
69488W        W33245  42.460   0.329  14.368
69489W        W33246  14.827   0.972  12.387
69490W        W33247   5.711  38.847   2.414
69491W        W33248  29.020  44.369  12.370
69492W        W33249  25.964  39.842  13.386
69493W        W33250  27.996  34.911  14.807
69494W        W33251  20.054  23.544   1.899
69495W        W33252  29.001   5.732  13.012
69496W        W33253  44.812  15.211  12.518
69497W        W33254  12.187  31.120   2.342
69498W        W33255  29.557   3.907   0.351
69499W        W33256  42.429  15.104   1.910
69500W        W33257  25.678  24.013  13.402
69501W        W33258  42.365  13.127  11.469
69502W        W33259  16.574  44.989  11.017
69503W        W33260  31.448   1.369   1.399
69504W        W33261  19.696  11.334   1.332
69505W        W33262  12.273  26.997  10.515
69506W        W33263  29.976   1.436  12.426
69507W        W33264  35.862   7.769   0.319
69508W        W33265  39.513  30.928  12.376
69509W        W33266  18.697  34.452  11.941
69510W        W33267   1.930   9.187   0.373
69511W        W33268  12.813  43.476  12.568
69512W        W33269  12.612  43.983   0.805
69513W        W33270  25.054  25.053  13.320
69514W        W33271   8.888  31.548  12.849
69515W        W33272  35.877  17.792   4.291
69516W        W33273  38.375   8.752  10.535
69517W        W33274  22.097   4.725  13.823
69518W        W33275  30.546   1.367  10.619
69519W        W33276  26.962  34.469   0.845
69520W        W33277  10.639  38.074  14.844
69521W        W33278  43.940  38.874   3.717
69522W        W33279  16.079   5.754   2.214
69523W        W33280  35.955  24.024  14.013
69524W        W33281  33.497  17.098   3.724
69525W        W33282  18.777  26.581   4.706
69526W        W33283  32.073  38.826  10.889
69527W        W33284  41.880  37.878  12.433
69528W        W33285  35.512  43.499   1.435
69529W        W33286  29.439  24.478   4.127
69530W        W33287  13.670  42.887   2.195
69531W        W33288   3.733  25.053  14.856
69532W        W33289  33.045  24.201  13.387
69533W        W33290  30.655  17.114  13.459
69534W        W33291  23.679  26.518   4.640
69535W        W33292  23.077  38.445   1.834
69536W        W33293  43.945   8.878   4.258
69537W        W33294  16.312  44.802  14.418
69538W        W33295   9.395   1.790  11.905
69539W        W33296  27.965  13.697   1.288
69540W        W33297  16.198  24.121   3.755
69541W        W33298  14.161  43.394   1.374
69542W        W33299  11.298  32.513   0.932
69543W        W33300  31.969  38.021   3.704
69544W        W33301   2.316  21.619  12.063
69545W        W33302  34.392   5.403   2.714
69546W        W33303  26.582   5.912  12.363
69547W        W33304  27.048  41.423  14.913
69548W        W33305  22.214   2.817  10.963
69549W        W33306  40.987   0.485   2.377
69550W        W33307  41.502  35.041   0.450
69551W        W33308  32.479  38.914   2.285
69552W        W33309  22.526  25.549  10.434
69553W        W33310  10.169  19.661  12.454
69554W        W33311   5.251   6.361   2.858
69555W        W33312  42.949  38.515  12.567
69556W        W33313  25.185  14.747   2.330
69557W        W33314  27.994  16.169  14.290
69558W        W33315  30.032  42.030   2.240
69559W        W33316  32.459  30.563   3.793
69560W        W33317   7.209  42.433   3.242
69561W        W33318   4.832  18.275   3.294
69562W        W33319  41.349  29.922  11.400
69563W        W33320  11.825  23.595   3.746
69564W        W33321   0.770  18.736   4.146
69565W        W33322  27.166  21.528  13.018
69566W        W33323  11.226  32.568  14.879
69567W        W33324   2.946  24.697  11.589
69568W        W33325  39.904  18.728   2.877
69569W        W33326  37.988  24.988  11.482
69570W        W33327  42.354  27.071  14.878
69571W        W33328  34.387  40.033   2.287
69572W        W33329  30.605  42.999  11.480
69573W        W33330  42.511  37.013  12.893
69574W        W33331  33.901  13.693  14.460
69575W        W33332  28.653  38.980   4.212
69576W        W33333   3.738  24.714  10.440
69577W        W33334  13.658  13.253   3.733
69578W        W33335  36.071  41.950  10.990
69579W        W33336  39.340   5.710   3.189
69580W        W33337  20.198  44.933  13.045
69581W        W33338  18.625  27.182   0.399
69582W        W33339  33.007  42.399  11.606
69583W        W33340  33.555  42.900  11.942
69584W        W33341  11.711   7.225  13.395
69585W        W33342   2.792  40.376   3.221
69586W        W33343  25.108  18.663  12.981
69587W        W33344   5.701  17.633   4.334
69588W        W33345   9.703   2.754  13.008
69589W        W33346  28.620  13.651  10.645
69590W        W33347   9.846   4.918  10.527
69591W        W33348  10.854  13.163   2.185
69592W        W33349  36.975  24.098   2.699
69593W        W33350  41.310  32.471   1.878
69594W        W33351   2.806  19.067  14.025
69595W        W33352  41.366  31.952  14.287
69596W        W33353  33.118  35.997   0.459
69597W        W33354  33.118  27.487  13.967
69598W        W33355   5.714  13.174  10.430
69599W        W33356  13.706  44.808  14.995
69600W        W33357  29.633  44.436  14.012
69601W        W33358   8.172  15.751   5.237
69602W        W33359   8.708   4.219  12.824
69603W        W33360  30.515  44.811  10.887
69604W        W33361  16.126  16.227   0.281
69605W        W33362  40.956  16.613  13.362
69606W        W33363  16.642  43.490  11.378
69607W        W33364  30.567  12.323   2.857
69608W        W33365  22.551  19.128   1.404
69609W        W33366  11.253  17.744  14.470
69610W        W33367  34.540  44.434  13.889
69611W        W33368  25.679  24.665  10.590
69612W        W33369   9.350  27.033   1.864
69613W        W33370  21.093  28.018   1.775
69614W        W33371  21.523  11.626   4.209
69615W        W33372   6.417  22.090  11.017
69616W        W33373  19.173  24.067   3.762
69617W        W33374  37.941  14.153   1.227
69618W        W33375  36.984   3.406  10.415
69619W        W33376  12.688  44.495  11.451
69620W        W33377  32.110  21.729  10.618
69621W        W33378  38.922  24.982   4.756
69622W        W33379   9.762  29.496   4.741
69623W        W33380  16.719  24.551   4.127
69624W        W33381  21.588  39.950  11.990
69625W        W33382  16.738   3.767   2.205
69626W        W33383   7.330  20.753   1.894
69627W        W33384  31.538  36.585   1.837
69628W        W33385   1.458  30.929   4.326
69629W        W33386  41.538  17.747  11.977
69630W        W33387  44.480  41.927  11.007
69631W        W33388  25.546  15.581  12.883
69632W        W33389  16.309   3.869   4.679
69633W        W33390  13.648  11.231  13.992
69634W        W33391   3.937  42.521   4.808
69635W        W33392  42.496  40.037   1.343
69636W        W33393  27.570  42.313  13.490
69637W        W33394  16.746  38.985   2.849
69638W        W33395  24.208  17.113  11.035
69639W        W33396  20.269   0.281  13.975
69640W        W33397  33.431  34.939   1.255
69641W        W33398  24.610  44.413  13.340
69642W        W33399  43.500  18.545   3.367
69643W        W33400  14.626  10.295   2.317
69644W        W33401   1.850  27.003  13.958
69645W        W33402   2.944  27.452  10.926
69646W        W33403   1.833  35.929  14.454
69647W        W33404  21.530  28.582  12.365
69648W        W33405  44.434  26.991   2.733
69649W        W33406  13.347  31.101  14.771
69650W        W33407  40.927  21.530  11.040
69651W        W33408   1.760  36.556  12.828
69652W        W33409  38.834   6.261  12.410
69653W        W33410  18.556  34.057   1.738
69654W        W33411  12.768  23.498  13.331
69655W        W33412  25.034  43.897  14.450
69656W        W33413  12.336  42.837   0.387
69657W        W33414  42.477  12.259   3.802
69658W        W33415  20.104  18.234  10.517
69659W        W33416  13.118   8.668   0.726
69660W        W33417  10.201  24.133  11.902
69661W        W33418  18.202   4.726  12.874
69662W        W33419  18.733  29.065   2.819
69663W        W33420  37.347  22.631   4.174
69664W        W33421  44.387  42.946  13.492
69665W        W33422  32.455  43.919  14.761
69666W        W33423   9.386  14.277  13.033
69667W        W33424  43.516   4.763   1.257
69668W        W33425  27.189   9.239   3.801
69669W        W33426  14.105  11.773   2.360
69670W        W33427  29.041  42.814   4.184
69671W        W33428   9.200  37.037  10.460
69672W        W33429  36.496  14.098   2.838
69673W        W33430   9.202   3.315   3.714
69674W        W33431  17.172  16.569  13.819
69675W        W33432  12.321  19.257  13.320
69676W        W33433  24.498   4.867   2.320
69677W        W33434  13.799  17.699  12.374
69678W        W33435  34.039  41.418  10.488
69679W        W33436   4.829   3.409   5.292
69680W        W33437  36.932  28.527  13.851
69681W        W33438  18.118   3.726  12.454
69682W        W33439   8.161  21.693  12.362
69683W        W33440  24.622  16.713   3.718
69684W        W33441  20.750  16.305  10.133
69685W        W33442  42.883  34.409   2.743
69686W        W33443  35.987   1.856  14.438
69687W        W33444  44.765  37.895   2.345
69688W        W33445   2.894  31.087   0.407
69689W        W33446  23.727  42.415  14.460
69690W        W33447  44.821  36.864  11.983
69691W        W33448   1.830  24.631  12.341
69692W        W33449   0.874  17.648   3.681
69693W        W33450  17.613  39.386  14.370
69694W        W33451  18.215  42.328   1.389
69695W        W33452  29.652  14.261   4.309
69696W        W33453   4.311  19.706   3.671
69697W        W33454  27.184  12.144   3.644
69698W        W33455   7.186  13.802  12.928
69699W        W33456   3.332  15.686   5.153
69700W        W33457  10.182   9.199   0.255
69701W        W33458  27.674  44.834  13.846
69702W        W33459  13.780  20.247   4.201
69703W        W33460  39.959  25.624   3.304
69704W        W33461  28.027  35.535  12.343
69705W        W33462  43.929  37.054  11.606
69706W        W33463   4.441  23.121  14.387
69707W        W33464  25.514  13.154   4.132
69708W        W33465  31.967  27.112   5.082
69709W        W33466  42.289  40.984   2.815
69710W        W33467  25.007  40.806  11.892
69711W        W33468  44.841  17.795   2.713
69712W        W33469  20.034  17.725   4.182
69713W        W33470  21.139  12.207  10.468
69714W        W33471   5.723  14.291   1.362
69715W        W33472   9.218  11.193  11.472
69716W        W33473  33.091  25.482  10.612
69717W        W33474   8.354  40.817  10.501
69718W        W33475   3.430  31.929   3.287
69719W        W33476  20.163  29.663  11.556
69720W        W33477  23.696  40.462  12.474
69721W        W33478  10.638  31.918  13.804
69722W        W33479   8.245  32.104   0.811
69723W        W33480  15.689  29.096  10.585
69724W        W33481  22.068  19.229  12.049
69725W        W33482   3.215   4.891  10.888
69726W        W33483   0.364  35.939  14.304
69727W        W33484  38.869  10.312  12.568
69728W        W33485  25.214  13.642   3.256
69729W        W33486  15.590  12.215   0.834
69730W        W33487   4.844  18.670  10.435
69731W        W33488  39.555  14.830  13.041
69732W        W33489  26.968  20.229   2.284
69733W        W33490  44.782  27.645  13.046
69734W        W33491  10.281  38.470   3.249
69735W        W33492  36.573  28.536   2.251
69736W        W33493   4.801  31.445   2.791
69737W        W33494  26.991   5.720   3.636
69738W        W33495   7.892   1.256   2.831
69739W        W33496  43.283  12.698  13.908
69740W        W33497  27.677  12.162  14.462
69741W        W33498  33.066   1.377   4.273
69742W        W33499  17.167  21.214  11.447
69743W        W33500  35.858  15.236  10.545
69744W        W33501  36.926  20.580   1.700
69745W        W33502  28.517  21.656   4.825
69746W        W33503  44.397  16.590  11.525
69747W        W33504  37.968  30.083  12.002
69748W        W33505  40.470  25.601   2.310
69749W        W33506  39.375   3.261  11.466
69750W        W33507  26.620  31.610   4.194
69751W        W33508  38.377  12.698   2.374
69752W        W33509  40.879  25.600   1.809
69753W        W33510  44.397  36.995  12.868
69754W        W33511  30.142  16.310  10.490
69755W        W33512  27.942  11.802  14.946
69756W        W33513  36.930  31.496   2.681
69757W        W33514   0.806  27.000   0.766
69758W        W33515   5.730  20.249   2.851
69759W        W33516   4.401  23.493   2.352
69760W        W33517  44.812  19.592   1.358
69761W        W33518  42.986  31.017   4.157
69762W        W33519  31.620   6.690   4.789
69763W        W33520  15.639   8.826  11.929
69764W        W33521  29.133   4.361   0.916
69765W        W33522   1.903  21.214  14.808
69766W        W33523   5.739  16.258   1.411
69767W        W33524  43.489  33.018  11.527
69768W        W33525  42.337  34.428   3.179
69769W        W33526  19.759  41.972   3.336
69770W        W33527  20.698  17.304   0.935
69771W        W33528  26.001  31.125   1.305
69772W        W33529  15.602  25.621  10.953
69773W        W33530  43.995  39.366   1.752
69774W        W33531   0.903  33.447  14.878
69775W        W33532   4.721  37.917   2.754
69776W        W33533  30.924  42.872   4.781
69777W        W33534  23.231   8.868  14.882
69778W        W33535  20.147  27.500  11.453
69779W        W33536   0.352  39.457  12.344
69780W        W33537  23.209  15.709   2.827
69781W        W33538   1.929  21.672  14.856
69782W        W33539  34.112   5.816   1.858
69783W        W33540  38.925  19.627  12.883
69784W        W33541  22.553  37.998   4.658
69785W        W33542  10.704  20.746   1.794
69786W        W33543  40.390  11.837  10.559
69787W        W33544  13.282  24.982   5.238
69788W        W33545   4.384  15.090   0.337
69789W        W33546  24.030  40.417   5.244
69790W        W33547  38.858   6.228   0.915
69791W        W33548  42.915   8.694  14.931
69792W        W33549  32.124  43.838  13.986
69793W        W33550  31.955  28.936  14.320
69794W        W33551  35.391  42.490   2.672
69795W        W33552  32.405  43.877  10.420
69796W        W33553  30.529  41.522  14.338
69797W        W33554  21.130  10.241  14.334
69798W        W33555   4.717  37.084  13.368
69799W        W33556  24.617  38.328  10.912
69800W        W33557  36.929  27.027   1.930
69801W        W33558   1.423  23.022   4.677
69802W        W33559  40.853  19.594  11.943
69803W        W33560   7.390  29.559   2.331
69804W        W33561   6.839  19.541   1.853
69805W        W33562  38.893  40.964   4.636
69806W        W33563  38.954  41.477   1.323
69807W        W33564   5.427  14.753   2.237
69808W        W33565  31.080  37.409  12.511
69809W        W33566  43.415  27.621   4.327
69810W        W33567  14.794  33.103  10.499
69811W        W33568   8.656  25.068   4.601
69812W        W33569  36.440  22.071  11.890
69813W        W33570  22.185  35.108   9.443
69814W        W33571  32.427  33.975   0.772
69815W        W33572  39.478  36.388   4.628
69816W        W33573  20.091  36.067  12.963
69817W        W33574   6.217  39.380  10.098
69818W        W33575  13.740   2.257   3.355
69819W        W33576  20.130  40.024   4.343
69820W        W33577   7.685   7.378   1.717
69821W        W33578   1.331  40.322   2.892
69822W        W33579  39.026  35.914  10.921
69823W        W33580  24.996  33.067   0.401
69824W        W33581  28.143  23.191  13.889
69825W        W33582  39.317  42.788   2.779
69826W        W33583  39.057  13.831  11.441
69827W        W33584  29.540  44.482  14.898
69828W        W33585  23.671  38.457  10.624
69829W        W33586  28.977   3.766  14.906
69830W        W33587  29.661  10.230   2.412
69831W        W33588  32.391  38.977   4.823
69832W        W33589  22.526   8.204  12.581
69833W        W33590   5.821  31.606   4.799
69834W        W33591   2.833  26.496  12.359
69835W        W33592  39.376   1.393   5.174
69836W        W33593  13.119  14.137   3.686
69837W        W33594  18.755   1.957  14.944
69838W        W33595  41.536  13.156  11.017
69839W        W33596  28.981  14.681  14.330
69840W        W33597  28.089  13.146  10.100
69841W        W33598  13.159  18.088   4.138
69842W        W33599  26.520  21.551   1.212
69843W        W33600  31.038  35.401  10.917
69844W        W33601  23.109   7.899   1.732
69845W        W33602  28.026  31.975   1.706
69846W        W33603  12.813  37.835  11.581
69847W        W33604  39.398  26.010  12.406
69848W        W33605  40.957  24.494   2.389
69849W        W33606  38.547  23.506   3.233
69850W        W33607  24.708  11.716  10.501
69851W        W33608  25.640   7.764   1.380
69852W        W33609  32.587  21.097   2.182
69853W        W33610   9.658  30.587  14.449
69854W        W33611  37.938  25.037  13.893
69855W        W33612  35.589  18.625  11.073
69856W        W33613  33.479  18.194   1.245
69857W        W33614  17.236   9.181  13.792
69858W        W33615  44.279  10.252  14.794
69859W        W33616  34.938  22.182  13.369
69860W        W33617  25.971  21.195  12.867
69861W        W33618  10.188  41.315   5.128
69862W        W33619   3.217  22.026  12.402
69863W        W33620  31.086  35.854  14.893
69864W        W33621  32.444   1.264   3.847
69865W        W33622   3.833  41.992   1.346
69866W        W33623  20.523  10.187   4.659
69867W        W33624   2.238   2.754  14.770
69868W        W33625   7.703   1.955  12.345
69869W        W33626  34.606  11.365  12.082
69870W        W33627  15.670   3.937  13.439
69871W        W33628  40.865   7.311  11.372
69872W        W33629  42.314   1.891  12.888
69873W        W33630  39.949  12.192  13.813
69874W        W33631  31.915  30.492   4.783
69875W        W33632  21.023  41.378  13.455
69876W        W33633  41.440  21.240   2.205
69877W        W33634  30.034  21.200  10.893
69878W        W33635  20.158  28.158   4.325
69879W        W33636  15.649  20.702   4.168
69880W        W33637  25.469  43.947   1.323
69881W        W33638   4.424  17.189   0.906
69882W        W33639  37.901   5.737   9.489
69883W        W33640  28.160  16.273  11.932
69884W        W33641  21.515   9.222   1.739
69885W        W33642  40.805  17.160   3.364
69886W        W33643  43.817   4.317   3.746
69887W        W33644   7.832  12.316  13.321
69888W        W33645  16.605  22.219   1.800
69889W        W33646  38.875  19.078   4.323
69890W        W33647  26.536  43.813   0.918
69891W        W33648  32.554  33.382   3.256
69892W        W33649  21.514  42.452  12.408
69893W        W33650  17.655  39.477   0.370
69894W        W33651  44.458  37.032   4.678
69895W        W33652   1.241   5.907  10.643
69896W        W33653  22.133  12.615  14.491
69897W        W33654  40.053  17.241   3.321
69898W        W33655  40.549  20.626   2.306
69899W        W33656  13.105   4.329   2.810
69900W        W33657  44.822  15.328  10.555
69901W        W33658  12.808   3.879  11.495
69902W        W33659   1.306  22.721   1.379
69903W        W33660  13.309   7.696  11.875
69904W        W33661  30.001  14.813   4.628
69905W        W33662   6.198  27.089  13.514
69906W        W33663  40.957  29.614   1.773
69907W        W33664  22.114  11.174   1.750
69908W        W33665   0.436  39.010   1.246
69909W        W33666   4.349   2.918   4.722
69910W        W33667  26.594  28.182   2.867
69911W        W33668  31.921  20.691   4.203
69912W        W33669  34.998  29.971   1.232
69913W        W33670  39.808  40.951   0.739
69914W        W33671  27.533  36.461   0.270
69915W        W33672  36.574  21.745  11.490
69916W        W33673  42.319  36.355   2.414
69917W        W33674   8.336   4.912  12.474
69918W        W33675   7.903  29.975  14.920
69919W        W33676  22.166  26.139  11.461
69920W        W33677  43.985  32.583  11.030
69921W        W33678   6.857  24.089   1.270
69922W        W33679   3.449  31.430  13.513
69923W        W33680  22.050  37.050  12.998
69924W        W33681  27.623   9.206   3.223
69925W        W33682  32.108  31.476  10.135
69926W        W33683   9.810  34.470   4.774
69927W        W33684  31.507  37.966   1.285
69928W        W33685   3.926  33.059   3.360
69929W        W33686  25.615  11.328  12.402
69930W        W33687  41.329  11.867   1.313
69931W        W33688  35.466  44.389   3.674
69932W        W33689  19.772   8.310  11.553
69933W        W33690  41.393  42.421   4.637
69934W        W33691  13.773  35.525  14.902
69935W        W33692  43.334  21.558  11.874
69936W        W33693  16.145  25.648   0.437
69937W        W33694   5.391  17.061   4.288
69938W        W33695  35.057   9.222  11.960
69939W        W33696  10.713   9.392  11.086
69940W        W33697   6.874  39.423  14.377
69941W        W33698   2.735  27.476   0.274
69942W        W33699   4.440   2.772   1.903
69943W        W33700  39.362  39.526  12.017
69944W        W33701  26.993   9.888  12.567
69945W        W33702  30.600  31.982   3.865
69946W        W33703  34.107  39.334   2.407
69947W        W33704  32.006  40.467   2.408
69948W        W33705   0.322  15.184  13.864
69949W        W33706  38.962  21.132  10.090
69950W        W33707  14.248   1.960  14.856
69951W        W33708  37.366   1.310   2.419
69952W        W33709   6.865  26.141  11.504
69953W        W33710  40.359  14.792  13.379
69954W        W33711   3.353  40.887   4.325
69955W        W33712  20.689  38.522   0.765
69956W        W33713  44.492  40.945  12.392
69957W        W33714  27.635  17.104   0.419
69958W        W33715   1.895  34.084   1.864
69959W        W33716   7.260  28.640  10.557
69960W        W33717  13.136  21.207   1.428
69961W        W33718   3.899   3.378   0.360
69962W        W33719   0.269  43.506  14.309
69963W        W33720  22.592   8.398  13.059
69964W        W33721  43.451  15.231   2.693
69965W        W33722  44.381  39.531  12.885
69966W        W33723  37.981   2.882  11.403
69967W        W33724  12.670  43.973  13.823
69968W        W33725  15.714  25.571   2.278
69969W        W33726  41.881   3.238   4.162
69970W        W33727  28.183  26.012   0.797
69971W        W33728  20.273  11.128   3.801
69972W        W33729  42.348  37.060   4.307
69973W        W33730   0.448  23.608   1.846
69974W        W33731   3.294  38.463   0.298
69975W        W33732  30.039  23.108  12.935
69976W        W33733  31.999   4.751  13.495
69977W        W33734  19.158  27.636   3.367
69978W        W33735   4.924  14.711  10.546
69979W        W33736  34.581   3.446   2.268
69980W        W33737  37.557  26.971  14.816
69981W        W33738  37.042  21.073  10.478
69982W        W33739   3.824  28.449  14.968
69983W        W33740  25.044  32.505   1.836
69984W        W33741  21.702  27.596   1.844
69985W        W33742  11.760  12.344   4.173
69986W        W33743  32.009  44.774   0.825
69987W        W33744  20.270   0.759   4.699
69988W        W33745  36.912   0.748   0.315
69989W        W33746  19.779  27.485  14.423
69990W        W33747  42.506  10.334   3.378
69991W        W33748   1.389  26.562  12.937
69992W        W33749  21.515  28.944  14.461
69993W        W33750  34.119  14.108   4.182
69994W        W33751  10.221  32.128   2.212
69995W        W33752  34.000  27.154   0.788
69996W        W33753  34.400  25.007  12.393
69997W        W33754  32.616   2.855   0.288
69998W        W33755   3.758   5.198   1.720
69999W        W33756  16.677  25.523  13.900
70000W        W33757  40.438  42.930  13.433
70001W        W33758  19.678  11.822   5.237
70002W        W33759  12.345  35.526  14.943
70003W        W33760  39.462  28.534   2.696
70004W        W33761   7.275  44.345  14.402
70005W        W33762  29.500   1.875   5.190
70006W        W33763  14.723  16.118  10.940
70007W        W33764  14.766  22.726  13.845
70008W        W33765  29.041   9.866   2.687
70009W        W33766  41.447   3.327  11.857
70010W        W33767  24.098  25.702  14.919
70011W        W33768  26.033  29.661  12.511
70012W        W33769  44.472   0.394  14.885
70013W        W33770  12.349   7.321   0.396
70014W        W33771  34.391  18.616  11.083
70015W        W33772  27.016  15.205   4.226
70016W        W33773  21.034  25.214  10.930
70017W        W33774   2.347  31.911  12.067
70018W        W33775  35.095   1.344  10.965
70019W        W33776   0.388  17.136  11.956
70020W        W33777  13.791  30.466  10.593
70021W        W33778  28.482  24.131   5.731
70022W        W33779  37.896  42.434  12.494
70023W        W33780   8.850  38.337   3.851
70024W        W33781   2.387  39.345   0.446
70025W        W33782  33.416  34.589   1.301
70026W        W33783  28.516  44.005  13.393
70027W        W33784   0.892  15.225  14.823
70028W        W33785   1.481   2.280   0.267
70029W        W33786  31.456   5.931  11.915
70030W        W33787   8.240  21.121   9.982
70031W        W33788  41.806  15.785   1.363
70032W        W33789  26.607  11.225  10.052
70033W        W33790  14.603   5.704  11.026
70034W        W33791   7.343  14.119   1.339
70035W        W33792  19.070   0.773   2.331
70036W        W33793  33.427   0.876  11.419
70037W        W33794  15.176  31.426  12.990
70038W        W33795  33.540  19.190   4.301
70039W        W33796  29.481  26.125   3.666
70040W        W33797  32.006  27.692   2.843
70041W        W33798  39.537  31.555   4.829
70042W        W33799  20.163  42.831   4.204
70043W        W33800  32.122  44.756  13.890
70044W        W33801  37.893   8.874  10.903
70045W        W33802   9.705   3.413   4.643
70046W        W33803  18.685  43.513  12.478
70047W        W33804  41.935  21.672  10.645
70048W        W33805  19.183  17.255   1.862
70049W        W33806  11.661  37.543   4.747
70050W        W33807   5.858  40.306  11.978
70051W        W33808  25.527  21.530   5.136
70052W        W33809  42.974  17.775   1.281
70053W        W33810  10.847  25.610   2.882
70054W        W33811  36.433  10.787  10.976
70055W        W33812  34.404  35.856  12.037
70056W        W33813  16.273  14.143   1.449
70057W        W33814  11.226   2.760   3.321
70058W        W33815   4.850  26.050  13.470
70059W        W33816   3.373  29.060   4.312
70060W        W33817  43.315  35.968  14.799
70061W        W33818  36.354  36.880  13.002
70062W        W33819  30.431  28.029   3.698
70063W        W33820  23.190  12.841  12.495
70064W        W33821  23.086  20.128  14.927
70065W        W33822  40.045  14.284  12.412
70066W        W33823  35.982  11.746  12.057
70067W        W33824   6.688  26.689  11.092
70068W        W33825  20.088  20.599   0.810
70069W        W33826  10.749  37.395  10.040
70070W        W33827  28.004  11.206  14.340
70071W        W33828  26.653  27.950   4.338
70072W        W33829  27.453  22.106   2.705
70073W        W33830  16.761  34.509  10.462
70074W        W33831  29.937   1.398   4.233
70075W        W33832  34.987   3.349  11.009
70076W        W33833  15.143   9.285   1.804
70077W        W33834  14.771  27.999  12.520
70078W        W33835  39.007  21.146  10.898
70079W        W33836  11.154  29.658   0.910
70080W        W33837  27.133   1.450  14.965
70081W        W33838   0.337   6.393  13.344
70082W        W33839  24.706  35.592   2.771
70083W        W33840  35.009  20.141   2.758
70084W        W33841  44.834  32.123   1.242
70085W        W33842  43.308  12.233   0.446
70086W        W33843  30.149  24.211  11.899
70087W        W33844   7.873  11.279  10.598
70088W        W33845  32.129  25.058  11.405
70089W        W33846  15.657   6.683  13.856
70090W        W33847   5.206  21.639  12.911
70091W        W33848  17.568  24.984   0.416
70092W        W33849  18.617   2.429  13.961
70093W        W33850  43.994  15.709   3.386
70094W        W33851  17.200  41.323  10.957
70095W        W33852   3.908  28.066   2.678
70096W        W33853   9.732   5.702   2.766
70097W        W33854   7.761   2.266  13.838
70098W        W33855   8.221  29.039  13.038
70099W        W33856  37.855  12.238   1.304
70100W        W33857  41.927  37.013  14.770
70101W        W33858   5.225  37.424   2.761
70102W        W33859  43.963  31.902   4.234
70103W        W33860  24.589  20.214   0.337
70104W        W33861  15.185  39.058   4.149
70105W        W33862  12.699   0.487  14.445
70106W        W33863  31.056  30.510   4.254
70107W        W33864  23.145   0.811   4.291
70108W        W33865  19.596   4.889  11.080
70109W        W33866   3.337   3.824  14.379
70110W        W33867  10.661   0.918   0.258
70111W        W33868  14.644  17.249  11.015
70112W        W33869  32.102  24.201   2.200
70113W        W33870  42.934  18.177  12.863
70114W        W33871  41.307   5.886  13.418
70115W        W33872  27.135  18.051  13.892
70116W        W33873  24.510  12.667   3.673
70117W        W33874   9.883  23.625   4.816
70118W        W33875   3.305  28.144  14.874
70119W        W33876  23.661  18.562   0.787
70120W        W33877  35.895  15.654  12.528
70121W        W33878   0.460  18.242  12.931
70122W        W33879  29.072  44.919  13.930
70123W        W33880  29.930   7.686   0.458
70124W        W33881  17.647  33.573  11.502
70125W        W33882  42.966  26.573  13.535
70126W        W33883  26.578  25.541  10.550
70127W        W33884  41.438  25.681   0.964
70128W        W33885  40.929   2.268   1.843
70129W        W33886  13.350   3.370  11.603
70130W        W33887  35.091  18.587  14.467
70131W        W33888   5.870  10.317  14.434
70132W        W33889   3.868  15.674  11.874
70133W        W33890   6.900  41.797   4.312
70134W        W33891   6.282  10.231   4.630
70135W        W33892  38.875   1.259  13.907
70136W        W33893   8.758   4.389  12.572
70137W        W33894  34.905  35.898   2.885
70138W        W33895  16.189  36.562  13.531
70139W        W33896  31.016  40.956   1.698
70140W        W33897  15.739  20.642  10.433
70141W        W33898   7.359  41.927  11.490
70142W        W33899  17.107  10.182   5.177
70143W        W33900  10.147  24.167  12.493
70144W        W33901   0.853   3.276  11.876
70145W        W33902  32.469  17.162  11.396
70146W        W33903  19.084  28.159  11.109
70147W        W33904  24.172   0.748   5.195
70148W        W33905   1.344  40.313  14.379
70149W        W33906  38.882  17.094   4.749
70150W        W33907  10.867  31.112   3.353
70151W        W33908  27.674  40.364  10.927
70152W        W33909  31.999  22.616  14.811
70153W        W33910  20.177  27.483  12.833
70154W        W33911  11.365  26.611   3.657
70155W        W33912  25.650  13.157  14.400
70156W        W33913  21.134  16.692  11.015
70157W        W33914  18.229  20.712   3.278
70158W        W33915   5.722   3.871   4.148
70159W        W33916   4.836  24.180   1.770
70160W        W33917  14.095  24.487   0.347
70161W        W33918  26.133  27.614   2.181
70162W        W33919  16.193   9.717   2.193
70163W        W33920  23.064  24.990   4.829
70164W        W33921  13.156   7.711   1.916
70165W        W33922  18.652  12.126  13.901
70166W        W33923  22.510  31.500  11.520
70167W        W33924  34.088  41.022  11.415
70168W        W33925   7.379   1.366  13.045
70169W        W33926  28.071   2.471   0.431
70170W        W33927  28.976  17.714  14.790
70171W        W33928   9.396  42.867   4.775
70172W        W33929  20.555  30.062  12.060
70173W        W33930  20.096  32.437   0.861
70174W        W33931  21.696  42.988  14.881
70175W        W33932   5.380  18.057  14.779
70176W        W33933  19.545   1.335   4.708
70177W        W33934  39.465   2.449  14.940
70178W        W33935  24.637  16.802   0.315
70179W        W33936  20.033   5.374  14.989
70180W        W33937  29.620  17.641  14.332
70181W        W33938  24.667  33.422  10.076
70182W        W33939  26.986  20.711  10.606
70183W        W33940  41.376  43.368  13.489
70184W        W33941   8.375  11.771  14.966
70185W        W33942  13.752  38.423  14.335
70186W        W33943   3.817   3.289  11.952
70187W        W33944  25.560  13.824   2.187
70188W        W33945  36.564  31.010  13.006
70189W        W33946  32.917  28.677  14.440
70190W        W33947   6.912  21.018  11.038
70191W        W33948  34.983   1.270  12.569
70192W        W33949  29.541  39.360   2.747
70193W        W33950  29.656  16.234   3.739
70194W        W33951  36.971  22.186  14.307
70195W        W33952  15.692   6.811  10.518
70196W        W33953  23.588   3.952   1.296
70197W        W33954  43.846  19.060  13.330
70198W        W33955  15.281  44.790   3.192
70199W        W33956  26.165   4.725  11.955
70200W        W33957   1.379  32.635   3.285
70201W        W33958   5.244  15.794   1.775
70202W        W33959   4.345  24.170  11.065
70203W        W33960  32.108   2.724   3.702
70204W        W33961  26.645   3.322   0.323
70205W        W33962  36.844   6.421  14.471
70206W        W33963  44.753  17.178   1.432
70207W        W33964  43.942   0.905   3.807
70208W        W33965  33.946   0.329  12.022
70209W        W33966  38.050  38.060  12.947
70210W        W33967  18.179  28.510   2.182
70211W        W33968  20.534  33.051  10.464
70212W        W33969   2.745  43.816  12.950
70213W        W33970  28.029  42.416   3.207
70214W        W33971  33.400  42.963  14.368
70215W        W33972  40.907  26.556   1.934
70216W        W33973  24.002  20.182  11.086
70217W        W33974  17.287  44.382   3.804
70218W        W33975   6.396   3.460  10.140
70219W        W33976   5.220  30.105  12.964
70220W        W33977  15.789  36.028  11.912
70221W        W33978  19.140   6.284   2.252
70222W        W33979   2.944  20.522  12.392
70223W        W33980   0.846  23.094  10.910
70224W        W33981  28.563  34.600   1.793
70225W        W33982  42.956  31.575  13.975
70226W        W33983  40.494  41.040  11.491
70227W        W33984  14.175  19.770   4.716
70228W        W33985  19.629  32.526  10.899
70229W        W33986  12.278  44.413   4.810
70230W        W33987  35.954  15.776  14.843
70231W        W33988  31.449  29.623   3.784
70232W        W33989  30.099  14.322   1.891
70233W        W33990   7.816  32.614  10.534
70234W        W33991  11.235   1.831   4.838
70235W        W33992  18.185   9.776  13.403
70236W        W33993   3.423  44.402   0.960
70237W        W33994  33.963   5.250   5.098
70238W        W33995   9.336  40.907   9.573
70239W        W33996  15.787  23.603   1.368
70240W        W33997  41.430  43.297  14.837
70241W        W33998  38.901  19.776   0.265
70242W        W33999  17.626  19.229  12.054
70243W        W34000  41.360  10.213  11.600
70244W        W34001  31.962  12.300  13.487
70245W        W34002  36.537  18.561   0.928
70246W        W34003  19.281  35.888   0.727
70247W        W34004   5.849  18.085  11.506
70248W        W34005   0.293  39.895   1.763
70249W        W34006  17.698  26.472   0.339
70250W        W34007   9.381   1.812   9.993
70251W        W34008  35.855  30.946   2.672
70252W        W34009  38.874   2.344   3.191
70253W        W34010  29.538   5.358  11.049
70254W        W34011  18.774  11.373   5.108
70255W        W34012  18.202  12.623  14.876
70256W        W34013  12.812  31.938  14.026
70257W        W34014  36.562  18.776  11.486
70258W        W34015  27.552  30.639   3.801
70259W        W34016  35.514  34.422  14.343
70260W        W34017  29.669  25.567  10.995
70261W        W34018  41.517  35.906  12.387
70262W        W34019  35.444  15.611  12.454
70263W        W34020   0.976  37.342   2.307
70264W        W34021   7.202  34.883  11.987
70265W        W34022  12.315   0.337  10.069
70266W        W34023  12.800   3.300  14.865
70267W        W34024  20.642  23.516   3.266
70268W        W34025   1.965  33.555   1.243
70269W        W34026  29.015   6.422  11.952
70270W        W34027  12.718  18.164   4.656
70271W        W34028  23.051  25.965   4.202
70272W        W34029  19.164  32.521   4.311
70273W        W34030   3.259  27.034   4.719
70274W        W34031  19.727  26.146   4.233
70275W        W34032  37.417  25.162  14.019
70276W        W34033  32.613  35.054   3.338
70277W        W34034   5.874  44.408   5.138
70278W        W34035  19.115  12.661   4.168
70279W        W34036  26.593  18.544   4.685
70280W        W34037   8.214  21.748   2.832
70281W        W34038  43.996   7.740   0.875
70282W        W34039  22.629  41.964   0.946
70283W        W34040  44.757  43.440  13.829
70284W        W34041  43.901  10.782   4.166
70285W        W34042  43.412  13.242  13.480
70286W        W34043  26.496   0.337   3.242
70287W        W34044  20.235  31.428   2.343
70288W        W34045   6.329  20.240   1.813
70289W        W34046  41.790  20.734  14.979
70290W        W34047  10.171  34.974  13.341
70291W        W34048  29.981  37.465  14.321
70292W        W34049  30.103  44.755   1.899
70293W        W34050   6.207  43.816  12.859
70294W        W34051  38.338  36.537  14.011
70295W        W34052  28.563  34.118  11.052
70296W        W34053  15.294  23.154   0.797
70297W        W34054  32.560   5.362  13.513
70298W        W34055  37.887  42.802   1.708
70299W        W34056  41.834  14.753  13.886
70300W        W34057  40.013  11.370   2.405
70301W        W34058  10.323   5.209  13.053
70302W        W34059  25.017  42.402  12.421
70303W        W34060  26.498  38.519  12.900
70304W        W34061  16.273  34.952   1.697
70305W        W34062  35.985  41.490   0.291
70306W        W34063  10.801   4.298   4.691
70307W        W34064  27.944  29.490   3.797
70308W        W34065  32.612  30.140   0.343
70309W        W34066  14.241   6.900  13.841
70310W        W34067   7.335   0.312  11.595
70311W        W34068  11.248  27.122   2.278
70312W        W34069  31.516  40.800   0.921
70313W        W34070  43.303  42.015   4.688
70314W        W34071  19.727  35.414  12.411
70315W        W34072  28.113  21.519  14.285
70316W        W34073  29.498  19.594  13.510
70317W        W34074  42.281  15.715   4.244
70318W        W34075  39.810  34.896   2.384
70319W        W34076  30.653   7.204  12.941
70320W        W34077  39.057  12.795   4.816
70321W        W34078  25.126  33.579   3.657
70322W        W34079   6.875  26.699   0.809
70323W        W34080   2.892   1.278  12.576
70324W        W34081  12.831  28.648  10.566
70325W        W34082  38.948  33.030   0.377
70326W        W34083  37.475  21.033   5.229
70327W        W34084  32.617   7.279   1.765
70328W        W34085  13.649  14.298   1.798
70329W        W34086  37.348  31.629   1.303
70330W        W34087  38.904  17.701   3.176
70331W        W34088  29.065  40.491  14.857
70332W        W34089  38.442   3.411   4.318
70333W        W34090  12.294  14.261   4.189
70334W        W34091   0.971  43.004   3.699
70335W        W34092  16.638  23.619   0.866
70336W        W34093  22.080   8.886  14.829
70337W        W34094  27.133  13.668  14.413
70338W        W34095  44.300  23.107  14.940
70339W        W34096  34.934  44.831  12.398
70340W        W34097   7.772  36.566  13.022
70341W        W34098  26.956  15.149  11.088
70342W        W34099  23.562  44.950   4.161
70343W        W34100  17.071  10.788   2.903
70344W        W34101  33.468  18.129  14.471
70345W        W34102  40.335  35.409   0.318
70346W        W34103  32.575  25.069   4.257
70347W        W34104   6.847  27.670   3.335
70348W        W34105  16.151  26.688   1.297
70349W        W34106  22.629  38.939  11.484
70350W        W34107  34.510  43.402  14.815
70351W        W34108  15.089  21.216   1.749
70352W        W34109  25.674  35.072  13.974
70353W        W34110  20.211   0.491  12.885
70354W        W34111  34.002  41.044  10.599
70355W        W34112  39.534  17.080   1.285
70356W        W34113  41.903  10.282  11.575
70357W        W34114  25.674  13.741   4.745
70358W        W34115  41.514  26.585  14.809
70359W        W34116   4.740  25.003  12.956
70360W        W34117  15.806  35.525  14.815
70361W        W34118  19.261  25.121   3.199
70362W        W34119  19.732   1.960   1.694
70363W        W34120   3.355  43.820  10.422
70364W        W34121  22.517  33.395   0.427
70365W        W34122  37.076  29.606   2.705
70366W        W34123  40.509  19.572  10.003
70367W        W34124  36.092  42.803   4.242
70368W        W34125  44.435   3.437   2.666
70369W        W34126  30.451  24.150   1.904
70370W        W34127  19.592   3.811  14.928
70371W        W34128  28.153  26.683  10.628
70372W        W34129   4.214  27.685   2.792
70373W        W34130  13.769  32.443  14.408
70374W        W34131  41.497  21.232  14.951
70375W        W34132  25.082   8.337   2.233
70376W        W34133   8.692  39.869   4.612
70377W        W34134   1.773  14.165   3.695
70378W        W34135  36.495  10.824   2.417
70379W        W34136   8.404  16.103   0.466
70380W        W34137  24.022  13.173   0.834
70381W        W34138  41.449  26.669   4.692
70382W        W34139   7.862   7.274  12.945
70383W        W34140  42.942  33.619  10.483
70384W        W34141   6.783   4.406   1.719
70385W        W34142  41.942  34.558  11.027
70386W        W34143  22.575   3.235  13.795
70387W        W34144  43.866   6.270   1.745
70388W        W34145   0.269   3.805   0.886
70389W        W34146  10.805  23.184   2.838
70390W        W34147  17.172  24.056   3.671
70391W        W34148   4.912  28.670   2.774
70392W        W34149  40.527  22.608  11.015
70393W        W34150   5.358  28.030   4.783
70394W        W34151  19.780  42.488  13.538
70395W        W34152   7.320  10.839   1.811
70396W        W34153  35.464   6.707  12.523
70397W        W34154   1.767  42.312   2.776
70398W        W34155   0.793   0.377  14.508
70399W        W34156  17.246   3.373   0.845
70400W        W34157  43.296   6.728  14.020
70401W        W34158   0.883  41.351  14.810
70402W        W34159  17.634  19.162  10.902
70403W        W34160  38.921  29.559   3.654
70404W        W34161  24.015  27.118  11.064
70405W        W34162   8.340   6.328   1.890
70406W        W34163  42.492  22.681  12.350
70407W        W34164  12.268   7.312   2.723
70408W        W34165  30.658  29.669  12.890
70409W        W34166  22.704  24.228   0.261
70410W        W34167  18.071  31.965  13.528
70411W        W34168  20.656  10.879  14.408
70412W        W34169  29.925  39.409   4.201
70413W        W34170  29.160   6.827   0.825
70414W        W34171  36.458   6.850   2.874
70415W        W34172   1.244   1.918   4.685
70416W        W34173  21.580   8.686  13.532
70417W        W34174  34.542  25.159   4.280
70418W        W34175  38.967   5.389   4.182
70419W        W34176   5.289  18.222   5.308
70420W        W34177   8.786  22.510   0.922
70421W        W34178  38.889  25.572  10.927
70422W        W34179  41.348  31.638   3.724
70423W        W34180   5.396   6.420   0.735
70424W        W34181  24.087  28.156  14.322
70425W        W34182   4.392  41.997   5.622
70426W        W34183  18.575  35.519  10.598
70427W        W34184  39.459  21.148  10.615
70428W        W34185  19.096  42.961  14.299
70429W        W34186   2.424   7.195   2.767
70430W        W34187   3.303  43.010   3.678
70431W        W34188   9.379  25.138  12.392
70432W        W34189  40.938   3.432   4.773
70433W        W34190  37.505   0.748  13.048
70434W        W34191  39.017  21.141  14.874
70435W        W34192  38.450  23.010  12.856
70436W        W34193  38.975  19.177   3.159
70437W        W34194   4.731  36.454   4.806
70438W        W34195  20.086  39.035  13.492
70439W        W34196  25.607  21.234  12.867
70440W        W34197  24.195  34.089  10.457
70441W        W34198  26.997  31.594  11.546
70442W        W34199  14.213  26.571  13.542
70443W        W34200   1.379  22.727  12.519
70444W        W34201  29.941  34.897   1.249
70445W        W34202  40.992   1.968  12.925
70446W        W34203  27.666  31.103   0.310
70447W        W34204  15.689   8.733   4.703
70448W        W34205  39.913  19.082  10.522
70449W        W34206   2.355  11.160  12.519
70450W        W34207  41.517   8.355  12.889
70451W        W34208  27.090  22.063  10.889
70452W        W34209  44.764  35.438   3.687
70453W        W34210  13.216   3.823   2.222
70454W        W34211   7.263  32.044   4.647
70455W        W34212  25.697  33.420   1.324
70456W        W34213  31.954  34.448  11.929
70457W        W34214  29.511  27.978   1.789
70458W        W34215   7.825  38.052   0.244
70459W        W34216  44.481  22.189  12.015
70460W        W34217   2.382   1.377   4.290
70461W        W34218  20.765  39.056  14.906
70462W        W34219   6.220  15.708   3.759
70463W        W34220  13.615  32.995  12.375
70464W        W34221   5.921   5.904  13.360
70465W        W34222  31.433  28.457  12.950
70466W        W34223   2.368  21.673  14.809
70467W        W34224  28.437  14.171   1.709
70468W        W34225  25.020   0.749   1.296
70469W        W34226  12.674  28.116   4.205
70470W        W34227  20.724  13.292   9.592
70471W        W34228  28.937  14.291  11.579
70472W        W34229  10.306  23.608   4.642
70473W        W34230  40.362  24.047   2.360
70474W        W34231  37.366  18.611  10.414
70475W        W34232  22.018  42.354  11.893
70476W        W34233  29.977  20.580   2.722
70477W        W34234  38.385  34.907  10.984
70478W        W34235  37.577  21.126   4.250
70479W        W34236  22.539  35.471   0.951
70480W        W34237   3.440  16.218   3.259
70481W        W34238   8.790  42.985   3.774
70482W        W34239  23.048  30.160   2.312
70483W        W34240  15.621   1.943   2.764
70484W        W34241  29.994   8.286   0.918
70485W        W34242  28.087   4.846  11.472
70486W        W34243  41.330  36.034  14.835
70487W        W34244  28.009   8.805  14.298
70488W        W34245   1.287  20.076   2.773
70489W        W34246  42.871  36.375   0.461
70490W        W34247  24.630  18.246   3.791
70491W        W34248  21.653  43.350   3.657
70492W        W34249  27.447  14.274   2.741
70493W        W34250  35.940  22.715  13.912
70494W        W34251  42.499  31.900   3.269
70495W        W34252  11.786  35.068   2.373
70496W        W34253  29.921  34.065   3.789
70497W        W34254   4.437  29.955  11.982
70498W        W34255  34.909  17.203   4.778
70499W        W34256  44.288  13.168  11.092
70500W        W34257  28.507  22.048   5.263
70501W        W34258  25.477   6.310   4.827
70502W        W34259  15.329   7.887  11.402
70503W        W34260  34.371  43.850  13.487
70504W        W34261  40.868  27.068   1.874
70505W        W34262  19.557  16.216   3.713
70506W        W34263  10.310  42.829   2.669
70507W        W34264  19.070  23.595   1.269
70508W        W34265  35.063  17.794   1.252
70509W        W34266  14.718  37.478  11.532
70510W        W34267  37.077  27.993   3.766
70511W        W34268   3.443  44.969   4.656
70512W        W34269   4.827  42.908   5.185
70513W        W34270   4.839  28.092   0.403
70514W        W34271   3.380  36.955   2.687
70515W        W34272   7.817  35.467   1.723
70516W        W34273  28.640  16.659  14.782
70517W        W34274  13.823  37.523  13.507
70518W        W34275  37.871  36.867   3.638
70519W        W34276  22.665  38.038   1.723
70520W        W34277  35.060  15.266   4.119
70521W        W34278  24.650  17.240   4.710
70522W        W34279  12.656   1.457   5.102
70523W        W34280  28.032  12.710  11.122
70524W        W34281  40.872   5.701   1.336
70525W        W34282  43.279  22.026  13.326
70526W        W34283   2.768  27.499  10.606
70527W        W34284  23.030  31.906  11.587
70528W        W34285  27.032  15.122   0.952
70529W        W34286  29.147  21.624   3.707
70530W        W34287  24.985  32.397   2.696
70531W        W34288  20.707  14.218   0.274
70532W        W34289  44.282  39.319  12.546
70533W        W34290  20.542  15.211   0.410
70534W        W34291  17.160  22.109  11.531
70535W        W34292  34.039  38.907  10.987
70536W        W34293  17.174  27.146   2.346
70537W        W34294   0.406   2.308   4.779
70538W        W34295  35.986  40.914   0.795
70539W        W34296  23.204   7.699   1.337
70540W        W34297  41.325  27.068  14.460
70541W        W34298   3.382  40.527  14.845
70542W        W34299  35.528  27.495  13.962
70543W        W34300  26.679   1.433   2.842
70544W        W34301   5.903  39.062  11.385
70545W        W34302  21.222  37.477   0.343
70546W        W34303   6.908  33.514   9.931
70547W        W34304   5.906  38.950  12.873
70548W        W34305  23.719  16.283  12.477
70549W        W34306  42.802  10.240   3.735
70550W        W34307  12.220  14.301   3.848
70551W        W34308  18.050  13.690   1.741
70552W        W34309   4.379   2.360   4.630
70553W        W34310   3.216   4.727   2.275
70554W        W34311  21.739  43.015   2.812
70555W        W34312   9.327   7.719   1.212
70556W        W34313  21.258  39.407  11.469
70557W        W34314  18.603   3.282  10.573
70558W        W34315  42.402  24.211   2.833
70559W        W34316  17.185  32.453   1.761
70560W        W34317  32.527  35.603  11.008
70561W        W34318  13.842  43.322   0.883
70562W        W34319  24.023   0.808   0.350
70563W        W34320  24.505   8.759  10.408
70564W        W34321   5.708  28.489  12.472
70565W        W34322  30.420  21.542  12.831
70566W        W34323  44.289  10.875  12.996
70567W        W34324  17.301  38.486   3.331
70568W        W34325   6.905  44.428   1.265
70569W        W34326  13.788   6.204   4.775
70570W        W34327  39.427  21.113   1.899
70571W        W34328   3.727   0.788  11.499
70572W        W34329  27.624  18.189   4.746
70573W        W34330  14.800   2.727   2.310
70574W        W34331  23.100   8.278  10.447
70575W        W34332   0.812   6.381  14.295
70576W        W34333   2.791  33.007   0.382
70577W        W34334  43.998  40.400  14.308
70578W        W34335  35.423   1.956   4.306
70579W        W34336   4.864   6.390   3.700
70580W        W34337  43.317  44.331  14.859
70581W        W34338   8.174   5.375  13.061
70582W        W34339   6.371  44.279   0.318
70583W        W34340  21.580  28.933   5.254
70584W        W34341  39.955  31.590   0.445
70585W        W34342  33.420  31.002   3.845
70586W        W34343  36.003  37.347  10.911
70587W        W34344  22.653  20.108   0.322
70588W        W34345  41.525  38.533  12.399
70589W        W34346  33.606  17.228  11.604
70590W        W34347  35.947   2.909  10.582
70591W        W34348  33.928   2.346   4.713
70592W        W34349   3.846   8.683  12.476
70593W        W34350   5.787  40.471  11.585
70594W        W34351  15.190  33.567   1.820
70595W        W34352  31.005  29.530  12.979
70596W        W34353  32.137  34.061  10.471
70597W        W34354   6.275  21.668  12.403
70598W        W34355  38.840   7.276   3.845
70599W        W34356   4.826  13.604  12.909
70600W        W34357   9.374  39.465   1.871
70601W        W34358   1.811  19.540   2.217
70602W        W34359  20.701  11.238   4.770
70603W        W34360   4.744  38.478  10.574
70604W        W34361  13.706  18.565   2.301
70605W        W34362   6.816   8.864  10.469
70606W        W34363  32.035  26.515  11.462
70607W        W34364   0.800  32.401   4.324
70608W        W34365   3.715  36.538  11.559
70609W        W34366   3.716  11.752  13.834
70610W        W34367  31.056   4.372  13.832
70611W        W34368  39.003  34.381  10.061
70612W        W34369   1.455  43.390   4.630
70613W        W34370  31.104   8.162  12.909
70614W        W34371  20.168  42.997   1.323
70615W        W34372  10.872  29.105   4.179
70616W        W34373   4.400  20.053  12.949
70617W        W34374  20.210  41.831   0.917
70618W        W34375  10.694  16.660  12.882
70619W        W34376  34.388  19.128  11.388
70620W        W34377  34.479  34.873   0.319
70621W        W34378   5.303  16.210  14.807
70622W        W34379  29.927   9.182  14.970
70623W        W34380   6.378  34.396   1.705
70624W        W34381   0.986  43.297   2.698
70625W        W34382  14.778  44.275   3.818
70626W        W34383   8.344   7.833  11.971
70627W        W34384  23.669   8.699   4.780
70628W        W34385  23.607   4.267   0.870
70629W        W34386   8.302  41.498  11.003
70630W        W34387   0.860  41.916  10.965
70631W        W34388  31.598  22.603   0.817
70632W        W34389  12.315  28.949   1.392
70633W        W34390  25.470   0.792  11.061
70634W        W34391  16.750  26.003   3.350
70635W        W34392   3.263  11.230  11.553
70636W        W34393  17.740  32.521   4.215
70637W        W34394  25.035  15.738  11.864
70638W        W34395  36.508  27.158   0.888
70639W        W34396  11.128  44.796  14.960
70640W        W34397   5.805  41.417   0.734
70641W        W34398  22.158   3.935   1.365
70642W        W34399  39.012   2.315  13.029
70643W        W34400   4.894  41.343   4.312
70644W        W34401   3.743  32.607   0.956
70645W        W34402  41.511  30.480   0.838
70646W        W34403  27.471  12.758  11.596
70647W        W34404  42.383  42.916  13.488
70648W        W34405  41.344  11.284  14.305
70649W        W34406   0.769   9.235  14.328
70650W        W34407   0.309  44.340   2.333
70651W        W34408  32.618  25.478  11.564
70652W        W34409  39.505   1.446   2.336
70653W        W34410  36.058  32.138  11.530
70654W        W34411  43.965  22.009  13.314
70655W        W34412  34.937   1.290   3.213
70656W        W34413  17.225  22.245  14.426
70657W        W34414  17.694  25.657  11.046
70658W        W34415  18.280  41.497   2.322
70659W        W34416  14.184  41.491   4.633
70660W        W34417  27.961  16.746  14.868
70661W        W34418  31.525   8.892  14.833
70662W        W34419  42.477   1.396  13.858
70663W        W34420  17.668   3.780  10.495
70664W        W34421  41.981   8.736   0.889
70665W        W34422  38.989  33.011  14.881
70666W        W34423  25.589  40.851   4.250
70667W        W34424  10.269   6.792  14.471
70668W        W34425  16.098  40.404  11.593
70669W        W34426  44.311  17.628  14.876
70670W        W34427  31.544  32.049  12.978
70671W        W34428  40.499  32.405  13.459
70672W        W34429   0.801  13.233  13.543
70673W        W34430  18.788  40.465  12.048
70674W        W34431  25.651  17.660   3.253
70675W        W34432   6.205  12.835  14.444
70676W        W34433   3.762  31.966   9.952
70677W        W34434  29.097  37.518  11.532
70678W        W34435  14.298  26.199  12.366
70679W        W34436   0.778  15.754  11.022
70680W        W34437   2.289   0.360   3.660
70681W        W34438  17.188  14.123   4.318
70682W        W34439  13.260  16.790   3.712
70683W        W34440  24.561   9.326   2.855
70684W        W34441  12.725  18.651  14.495
70685W        W34442  36.442  19.591  13.908
70686W        W34443  18.610   8.254   4.352
70687W        W34444   5.366  39.549  12.946
70688W        W34445  28.446  26.648   4.269
70689W        W34446   5.801   5.344  11.072
70690W        W34447   0.916  22.139   0.269
70691W        W34448  30.501  31.123  12.347
70692W        W34449  26.463  25.561   4.303
70693W        W34450  33.411  27.075  13.907
70694W        W34451   1.391  24.169   0.870
70695W        W34452  43.478  20.190  12.377
70696W        W34453  25.600  29.016  10.028
70697W        W34454  26.685  39.545   0.754
70698W        W34455  34.055   6.228   2.812
70699W        W34456  14.299  31.473   3.183
70700W        W34457  26.524   1.308  11.112
70701W        W34458  20.714  10.330  12.901
70702W        W34459  33.950  23.208  13.844
70703W        W34460  38.827   3.805  13.027
70704W        W34461   5.856  43.466   3.245
70705W        W34462  28.138  42.785   4.307
70706W        W34463  42.492   4.393   3.846
70707W        W34464  19.535  27.466   0.467
70708W        W34465  23.728  15.121   2.735
70709W        W34466  38.535   0.968  11.492
70710W        W34467  43.506  16.273  12.407
70711W        W34468  10.847  33.936   3.215
70712W        W34469  13.274  35.477   4.684
70713W        W34470  16.736  41.797  10.912
70714W        W34471  29.973  41.320   3.765
70715W        W34472  12.244  32.988  14.470
70716W        W34473  30.046  16.267  10.915
70717W        W34474  15.668  11.241   1.922
70718W        W34475  18.785  15.725  14.940
70719W        W34476  13.339  23.137  10.623
70720W        W34477  13.614  27.577  13.474
70721W        W34478   7.843  29.132   2.880
70722W        W34479   2.322  27.445  14.312
70723W        W34480   2.388  24.663  11.378
70724W        W34481  31.501  44.440  10.636
70725W        W34482   8.401  11.831   0.828
70726W        W34483  24.696   8.229  10.591
70727W        W34484  26.982  17.624  13.951
70728W        W34485   9.767  42.874   2.806
70729W        W34486  32.954  35.866  13.990
70730W        W34487  32.081  41.411   1.227
70731W        W34488  25.126  39.390   0.272
70732W        W34489  44.841  25.002  11.095
70733W        W34490  17.084   1.438   9.486
70734W        W34491  31.075   9.222   2.357
70735W        W34492   4.731  10.783   1.407
70736W        W34493  33.586  43.395   1.408
70737W        W34494  34.540  31.034   2.225
70738W        W34495   4.821  36.987  14.473
70739W        W34496  18.579  13.215   0.768
70740W        W34497  41.000  25.074   2.397
70741W        W34498  37.570   8.728   4.188
70742W        W34499  40.941  43.326  11.121
70743W        W34500  26.609  40.489  14.881
70744W        W34501  21.753   4.932  13.455
70745W        W34502  42.957  16.796  14.766
70746W        W34503  32.571  22.208  13.420
70747W        W34504   1.327  19.195   4.764
70748W        W34505  35.007  29.945   2.855
70749W        W34506  43.842  17.621  14.954
70750W        W34507  10.156  11.765  13.980
70751W        W34508   9.363  28.583  14.850
70752W        W34509   8.771  22.686   5.213
70753W        W34510  26.185  42.992   4.330
70754W        W34511  30.120  40.922  12.947
70755W        W34512  10.212  36.921  11.464
70756W        W34513  32.512  35.386  14.855
70757W        W34514   6.916  19.539  13.894
70758W        W34515  33.923  26.666   2.312
70759W        W34516  10.141  12.727  14.764
70760W        W34517  13.839   6.722   2.203
70761W        W34518  40.049  38.948  10.889
70762W        W34519   7.357  19.731  14.833
70763W        W34520  37.372  11.233  12.956
70764W        W34521  32.553   2.341  12.413
70765W        W34522  22.599  23.036   1.352
70766W        W34523  11.135  40.851   3.764
70767W        W34524   3.275  21.082  13.055
70768W        W34525  27.942  14.113   9.658
70769W        W34526  10.315   8.242  14.398
70770W        W34527  40.986  26.159   3.380
70771W        W34528  33.025  31.632   2.241
70772W        W34529  39.407  16.256  10.905
70773W        W34530  33.994  19.643   2.325
70774W        W34531  37.861  17.275   0.245
70775W        W34532   4.277  43.790   3.244
70776W        W34533  16.594  19.717   3.737
70777W        W34534  12.695  36.577  10.413
70778W        W34535  43.398  19.140   0.411
70779W        W34536  35.403  31.624  14.926
70780W        W34537  15.643  42.328  12.933
70781W        W34538   4.820  20.652  13.903
70782W        W34539  40.467   8.250   0.335
70783W        W34540  37.454  11.695   0.394
70784W        W34541  31.956  40.879   3.824
70785W        W34542  10.663  35.891  13.955
70786W        W34543  15.120  14.185  13.433
70787W        W34544  12.192  14.775   0.283
70788W        W34545  16.810   1.334  13.967
70789W        W34546  25.589  16.212  13.382
70790W        W34547  23.655  19.215  11.037
70791W        W34548   9.713  14.609  11.883
70792W        W34549   5.737  24.179  10.949
70793W        W34550  22.624  31.612   4.236
70794W        W34551   4.824   4.318   1.329
70795W        W34552  16.186  11.747   1.695
70796W        W34553  19.645  21.552  13.521
70797W        W34554  23.670  29.039  11.539
70798W        W34555   7.774   5.930  13.043
70799W        W34556  36.563  39.402   4.663
70800W        W34557  33.535  27.161   3.195
70801W        W34558  27.662   5.405  10.581
70802W        W34559  25.034   2.274   2.705
70803W        W34560   8.746  16.191  13.960
70804W        W34561  22.248  33.599  10.436
70805W        W34562   9.275  30.505  12.977
70806W        W34563  34.896  15.293  10.536
70807W        W34564   6.889   6.839   0.876
70808W        W34565  23.582   7.322   1.316
70809W        W34566  36.432  11.243   4.761
70810W        W34567  36.524  25.502  10.625
70811W        W34568  42.911  30.506   1.852
70812W        W34569  30.565  28.077   1.806
70813W        W34570  32.132   4.928   2.211
70814W        W34571  13.808  43.391  11.583
70815W        W34572  31.060  20.098   0.273
70816W        W34573  12.180  39.946   2.842
70817W        W34574  18.561  24.187  12.550
70818W        W34575   1.814  12.701  10.468
70819W        W34576   6.384  43.483  10.083
70820W        W34577  30.554  32.893  11.867
70821W        W34578  29.500  20.620   3.677
70822W        W34579  31.036  27.660   2.814
70823W        W34580  28.576  30.114   1.393
70824W        W34581   2.377   8.732   1.714
70825W        W34582  25.188  13.835  11.056
70826W        W34583  36.087  14.236  13.362
70827W        W34584  39.026  39.034   4.748
70828W        W34585  15.155  44.466  11.538
70829W        W34586  18.234  11.258   3.697
70830W        W34587  15.214  29.424   4.162
70831W        W34588  26.103  34.983  13.908
70832W        W34589  39.362  43.280  12.978
70833W        W34590   5.862  33.596   1.863
70834W        W34591   0.918  24.121  13.978
70835W        W34592  44.855  17.697   4.275
70836W        W34593  32.953  35.596   2.881
70837W        W34594  38.365  14.340   3.232
70838W        W34595  41.342  26.090  14.792
70839W        W34596   2.890  15.627  12.561
70840W        W34597   9.198  16.672  13.447
70841W        W34598  12.760   5.260  13.532
70842W        W34599   4.274   3.262  13.351
70843W        W34600  31.527  16.575   1.439
70844W        W34601   1.392  40.015   3.755
70845W        W34602  23.496  20.609  12.514
70846W        W34603  24.989  32.035  11.113
70847W        W34604  27.019  40.424  10.558
70848W        W34605   5.706   0.934   1.731
70849W        W34606   2.775  32.417   4.737
70850W        W34607   5.373  22.656  12.373
70851W        W34608  34.371  16.091   4.705
70852W        W34609  26.645   3.296  12.418
70853W        W34610  40.046  32.990   4.218
70854W        W34611  18.689   3.449  13.002
70855W        W34612  32.926  11.623   1.858
70856W        W34613  12.342  16.805  12.870
70857W        W34614  11.681  26.007   2.846
70858W        W34615  14.167  35.084   2.835
70859W        W34616  24.599  13.154   2.752
70860W        W34617  30.491  26.533   2.864
70861W        W34618  39.974  32.924   0.361
70862W        W34619   8.748  14.211  12.030
70863W        W34620  39.904  39.959   0.959
70864W        W34621   4.931  30.042   4.643
70865W        W34622  10.755  24.675  13.403
70866W        W34623  22.218   5.299   1.312
70867W        W34624   0.384  35.521   1.379
70868W        W34625  23.711  33.990   9.544
70869W        W34626  32.069  42.382  14.363
70870W        W34627  29.541  25.566  13.921
70871W        W34628   1.483  32.925   4.260
70872W        W34629  11.155  34.444  10.636
70873W        W34630   3.258   9.157   2.884
70874W        W34631   8.340  20.204  14.280
70875W        W34632   7.759  10.704  11.435
70876W        W34633   1.275  14.635   3.233
70877W        W34634  30.436   5.197   4.599
70878W        W34635   7.302  36.905   2.347
70879W        W34636   4.820  43.493  11.918
70880W        W34637  36.021   2.469   0.820
70881W        W34638  37.445  10.225  13.920
70882W        W34639  24.556  38.555   4.768
70883W        W34640   8.807  18.787   9.641
70884W        W34641  15.227  15.766   5.138
70885W        W34642   0.811   0.352   1.324
70886W        W34643  38.516  11.231  10.954
70887W        W34644  33.506   5.739  13.375
70888W        W34645   0.918  27.012   3.247
70889W        W34646  30.622  42.496   1.888
70890W        W34647  14.235  37.835   2.898
70891W        W34648  13.305   0.919   5.142
70892W        W34649   5.240  15.304   3.684
70893W        W34650  39.517  24.493   0.378
70894W        W34651  37.488  21.742  10.994
70895W        W34652  41.030   7.829  13.357
70896W        W34653  27.039  26.609  12.461
70897W        W34654   7.272   1.955  10.992
70898W        W34655  12.796  32.540   0.827
70899W        W34656   9.282  33.028  12.559
70900W        W34657  21.533   0.967  12.076
70901W        W34658  18.689  29.655   2.832
70902W        W34659  10.262  24.520   3.805
70903W        W34660  10.291  31.616  13.982
70904W        W34661  36.357   3.756   4.597
70905W        W34662  24.013  36.939  10.947
70906W        W34663  32.023  19.589  10.500
70907W        W34664  26.585  21.741   3.646
70908W        W34665  28.631  38.983   2.264
70909W        W34666  12.670  17.567   3.834
70910W        W34667  42.844  15.736   0.247
70911W        W34668  35.043  35.928  10.570
70912W        W34669  15.228  19.543   1.305
70913W        W34670  14.322  36.890  12.058
70914W        W34671  38.991  10.219   1.344
70915W        W34672   3.902  37.983   1.751
70916W        W34673  19.648   4.819  13.861
70917W        W34674  21.555   7.840   1.858
70918W        W34675   5.218   6.821   3.336
70919W        W34676  36.994  37.925  11.379
70920W        W34677  19.266  29.933  13.936
70921W        W34678   4.719  39.399  11.460
70922W        W34679  34.524   7.385  13.832
70923W        W34680   6.360  36.993  10.583
70924W        W34681  29.605  39.494  10.511
70925W        W34682   0.808   5.897   0.756
70926W        W34683  23.699  23.644   2.866
70927W        W34684  21.517  18.700   4.182
70928W        W34685  30.449  22.014   3.227
70929W        W34686  12.632   5.766   1.732
70930W        W34687  31.412   6.821   3.712
70931W        W34688  16.674  18.197   3.708
70932W        W34689  11.750  28.552   1.402
70933W        W34690  20.038  26.207   2.289
70934W        W34691   1.345  36.035  13.953
70935W        W34692  42.437   9.768  13.542
70936W        W34693   8.674  29.524   4.271
70937W        W34694  36.980   2.383  11.945
70938W        W34695   3.258  11.261  10.512
70939W        W34696  38.533  32.954   0.454
70940W        W34697  44.818   1.864  14.802
70941W        W34698  28.943  36.548  14.763
70942W        W34699   6.742  21.661   3.294
70943W        W34700  17.062   9.273  13.340
70944W        W34701  27.470  26.203   0.817
70945W        W34702  31.434  26.081   3.848
70946W        W34703   6.743  39.809   0.884
70947W        W34704  43.348   8.315  12.889
70948W        W34705  22.118   1.863   3.776
70949W        W34706  22.680   3.226  12.530
70950W        W34707  41.945  36.898  13.888
70951W        W34708  13.764  27.009   4.768
70952W        W34709  10.823   3.301   1.866
70953W        W34710  13.650  41.374  12.422
70954W        W34711  40.041  29.430   0.806
70955W        W34712   8.195   2.875  12.862
70956W        W34713   9.302  17.296   1.270
70957W        W34714  28.157  14.729   4.798
70958W        W34715   1.482  41.536   0.841
70959W        W34716   9.214  38.840   3.209
70960W        W34717   4.209  20.098  10.578
70961W        W34718  14.765   1.872   1.382
70962W        W34719  32.962  25.089   3.252
70963W        W34720  25.480   0.377   2.721
70964W        W34721  42.856  14.333  12.990
70965W        W34722  36.856  12.644  14.398
70966W        W34723  31.556  21.583  13.445
70967W        W34724   3.943   5.764  11.100
70968W        W34725  10.762  19.766   0.736
70969W        W34726   9.333  15.663   0.812
70970W        W34727  31.641  33.090   1.706
70971W        W34728  12.710  35.443  10.564
70972W        W34729   8.293   3.784  12.075
70973W        W34730  31.006  38.502  12.955
70974W        W34731  10.852  33.616  12.364
70975W        W34732  18.748  38.002  13.380
70976W        W34733  25.500  30.503   0.461
70977W        W34734  40.528   1.874  13.806
70978W        W34735  13.333  36.389   2.386
70979W        W34736   3.955  21.132  11.908
70980W        W34737   9.830  12.712   0.283
70981W        W34738   4.413  40.951   1.237
70982W        W34739   3.896  23.516  11.003
70983W        W34740   0.881  25.631  13.514
70984W        W34741  23.560   6.325  10.423
70985W        W34742  33.000  17.140  13.062
70986W        W34743  44.995  20.536   0.955
70987W        W34744  44.782   2.849   0.309
70988W        W34745   3.879   8.312   1.744
70989W        W34746  29.163  37.982   3.672
70990W        W34747  44.921   0.301  14.454
70991W        W34748  24.073  12.814  13.897
70992W        W34749  15.599  21.258  10.996
70993W        W34750  40.337   2.459  13.058
70994W        W34751  24.658  11.210   1.697
70995W        W34752  37.060  20.557  14.893
70996W        W34753  10.852  31.911   4.776
70997W        W34754  28.524  23.559   3.180
70998W        W34755  29.437  34.493   9.927
70999W        W34756  31.081  33.070   2.888
71000W        W34757  14.279   1.346  11.871
71001W        W34758  31.403  12.810  12.010
71002W        W34759   4.899  37.984   4.730
71003W        W34760  41.378  10.685   3.229
71004W        W34761  31.003   5.365  12.913
71005W        W34762  33.567  25.055   0.840
71006W        W34763   6.824   0.282  13.049
71007W        W34764   0.943  14.299   0.436
71008W        W34765  14.276  36.930   1.822
71009W        W34766  14.781   9.814   2.341
71010W        W34767  22.603  13.137  14.470
71011W        W34768  44.405  14.716  14.338
71012W        W34769  21.578  43.943   0.309
71013W        W34770   8.254  37.501  12.513
71014W        W34771   4.231   2.288  13.989
71015W        W34772  25.515  27.459   3.869
71016W        W34773  30.059   3.779  13.823
71017W        W34774  29.013  18.275   0.404
71018W        W34775  13.625   9.296   1.914
71019W        W34776  23.110  22.623  10.110
71020W        W34777  31.529  39.949  11.075
71021W        W34778  25.611  43.869   3.860
71022W        W34779  41.469  35.001   2.850
71023W        W34780  10.853  30.469  13.499
71024W        W34781  33.418  25.022   0.290
71025W        W34782  10.277  23.735   2.805
71026W        W34783   5.266   0.942  11.534
71027W        W34784  14.124  34.514   9.934
71028W        W34785   1.888  15.121   4.152
71029W        W34786  32.922  37.868   4.679
71030W        W34787   3.371  24.999   0.294
71031W        W34788  15.751   4.932   4.144
71032W        W34789  24.221  39.398   2.308
71033W        W34790  33.121  43.453   0.832
71034W        W34791  34.000  11.310   0.342
71035W        W34792  31.561   9.227  12.515
71036W        W34793  14.609  34.065  11.494
71037W        W34794  31.027  40.883   4.189
71038W        W34795  19.613  38.076  14.940
71039W        W34796  40.948  16.745  12.546
71040W        W34797  19.284  23.231  14.385
71041W        W34798  33.593  21.200  11.493
71042W        W34799  20.142  33.423  13.445
71043W        W34800  41.936  12.342  11.058
71044W        W34801  27.959  10.260  10.537
71045W        W34802  44.463  14.766  11.401
71046W        W34803  24.594  26.122  14.452
71047W        W34804  13.732  18.293  10.992
71048W        W34805  22.087  20.092  10.446
71049W        W34806  28.118  23.576   1.869
71050W        W34807  14.700   9.294   4.670
71051W        W34808   6.219  39.496  13.798
71052W        W34809  20.720   2.402   4.630
71053W        W34810  41.409   9.873  13.808
71054W        W34811   9.661  37.996   3.814
71055W        W34812   9.217  11.735   1.892
71056W        W34813  15.249  44.930   2.793
71057W        W34814  38.912  29.525   0.877
71058W        W34815  31.529  32.574  13.009
71059W        W34816  35.595  36.050   3.185
71060W        W34817  25.551  10.693  10.624
71061W        W34818  28.574   2.876   2.898
71062W        W34819   6.779   1.931  13.386
71063W        W34820  20.603   9.168   2.707
71064W        W34821   2.871  17.589  12.382
71065W        W34822  14.252   4.303  13.328
71066W        W34823  25.667  21.668   4.340
71067W        W34824  28.545  17.085  14.360
71068W        W34825  33.011  36.541  13.829
71069W        W34826  17.648  18.058  10.405
71070W        W34827   2.963  23.234  12.059
71071W        W34828   0.470   3.725  11.512
71072W        W34829  23.506  10.801  13.352
71073W        W34830   3.423  23.565   1.354
71074W        W34831   6.215  31.600  14.989
71075W        W34832  29.981  44.968  11.918
71076W        W34833  14.665  38.010  14.501
71077W        W34834  36.980  28.434  11.459
71078W        W34835  13.134  35.546   0.963
71079W        W34836  39.372  35.457  13.059
71080W        W34837   6.197   0.859  12.534
71081W        W34838  16.229  42.323  10.924
71082W        W34839  40.450  29.027  13.994
71083W        W34840   6.868   8.831   1.896
71084W        W34841  32.539  42.485  11.589
71085W        W34842  13.196  20.185   0.262
71086W        W34843  10.358  16.649  14.780
71087W        W34844  28.612  13.758  11.034
71088W        W34845  30.607  42.877   4.753
71089W        W34846   3.731  14.218   0.831
71090W        W34847   9.723  43.437  13.443
71091W        W34848  22.582   6.783  14.398
71092W        W34849  40.469   3.270   2.248
71093W        W34850  31.041   4.710  13.426
71094W        W34851  37.935  41.309   0.807
71095W        W34852  10.266   6.811  11.532
71096W        W34853  17.736  17.216   1.430
71097W        W34854  38.498  10.656  10.524
71098W        W34855  37.867   6.238   0.323
71099W        W34856  29.141  17.073   9.470
71100W        W34857  39.504  20.753   3.765
71101W        W34858  23.612  24.578  14.297
71102W        W34859  28.635  17.254   2.384
71103W        W34860  41.856  28.512   3.776
71104W        W34861  35.897   6.312  12.868
71105W        W34862  34.990  33.079  14.918
71106W        W34863  21.207   2.246   4.658
71107W        W34864   0.468  11.154  10.560
71108W        W34865  34.615  37.008  10.904
71109W        W34866   8.662  25.068  11.126
71110W        W34867  43.839  20.045   2.685
71111W        W34868  25.109  13.845   3.681
71112W        W34869  39.907  13.321  13.396
71113W        W34870  42.439   3.950  11.478
71114W        W34871  42.866  41.343  13.920
71115W        W34872  35.591  13.279  14.787
71116W        W34873  37.572  42.782  13.448
71117W        W34874  26.501  40.859  10.454
71118W        W34875  30.920   7.403   3.167
71119W        W34876  33.074  14.096   4.250
71120W        W34877  18.209  20.675  14.778
71121W        W34878   6.891   2.767   3.754
71122W        W34879  14.184  17.110  13.049
71123W        W34880   7.342   3.919   4.124
71124W        W34881   1.874  40.427  14.338
71125W        W34882  21.562  29.114  13.360
71126W        W34883  19.178  35.984   2.303
71127W        W34884  18.218  43.369  13.529
71128W        W34885   9.802  35.560   2.370
71129W        W34886  19.763  44.972  11.565
71130W        W34887  13.285  30.609   1.280
71131W        W34888  38.995   8.229  13.801
71132W        W34889  20.094   6.820   0.295
71133W        W34890  12.708   7.715  12.003
71134W        W34891  27.603   3.353  12.485
71135W        W34892  13.154  38.534  10.973
71136W        W34893  24.636  15.249  10.505
71137W        W34894  31.072  32.932  11.520
71138W        W34895   1.932   3.802  10.623
71139W        W34896  24.075  26.138  13.910
71140W        W34897  21.038  42.391   0.751
71141W        W34898  34.512  27.503   3.369
71142W        W34899  14.788  42.450  14.883
71143W        W34900  39.039   9.162   4.248
71144W        W34901  30.426  15.755  13.334
71145W        W34902  40.892  28.654   2.408
71146W        W34903   8.720  20.765   1.433
71147W        W34904  24.109  28.949   1.904
71148W        W34905  13.718  27.498   4.249
71149W        W34906  20.608  14.124   2.360
71150W        W34907   8.274  18.686   5.267
71151W        W34908   3.264   8.865   2.815
71152W        W34909   9.864   1.748  11.959
71153W        W34910   8.188  27.127  12.991
71154W        W34911   9.222  43.946  10.922
71155W        W34912   2.386  20.229   2.707
71156W        W34913  31.966   9.192  10.904
71157W        W34914  25.178  33.912  10.404
71158W        W34915  35.957  14.798   3.272
71159W        W34916  31.978  39.991  13.057
71160W        W34917  43.394  23.697   3.666
71161W        W34918  17.802   5.337  12.426
71162W        W34919  15.169  17.262   2.179
71163W        W34920  10.683  36.025  14.899
71164W        W34921  23.547   9.694   3.818
71165W        W34922  24.984  18.768   3.816
71166W        W34923  16.627  44.912  14.501
71167W        W34924  38.028   6.684  13.948
71168W        W34925  13.630  39.499  13.410
71169W        W34926   4.420  31.488  10.579
71170W        W34927  27.455  27.487   1.759
71171W        W34928   6.394  36.382  11.463
71172W        W34929   1.243  44.404  12.418
71173W        W34930  19.745  42.862   1.280
71174W        W34931  28.032  19.098   0.318
71175W        W34932  19.597  23.095  13.350
71176W        W34933  38.493   1.250   4.200
71177W        W34934  40.549  31.029  13.351
71178W        W34935  24.547  39.344  13.924
71179W        W34936  38.996  33.388   1.275
71180W        W34937  18.056   0.272   3.299
71181W        W34938  39.370   3.887   5.231
71182W        W34939  39.420  31.139  11.856
71183W        W34940  18.622  18.616  10.897
71184W        W34941  37.849   3.927  12.919
71185W        W34942   0.369   9.780  14.977
71186W        W34943   0.850  10.830   4.282
71187W        W34944  32.467   7.771  14.770
71188W        W34945  21.653   9.394  11.559
71189W        W34946   3.850  20.080  11.005
71190W        W34947  31.462  31.479  13.479
71191W        W34948  31.088  26.008   2.670
71192W        W34949  10.169   1.967   4.734
71193W        W34950   8.713  10.252  11.434
71194W        W34951  37.851   0.827   9.950
71195W        W34952  17.687  42.900  12.834
71196W        W34953  16.778  39.981  12.085
71197W        W34954  30.092  30.097   0.953
71198W        W34955  15.700  38.514  13.432
71199W        W34956  15.087  18.572  10.592
71200W        W34957  24.178   3.295   2.285
71201W        W34958  36.007  28.013  13.927
71202W        W34959  27.609  24.628  11.998
71203W        W34960  41.789  15.313  14.482
71204W        W34961  28.954  29.517   0.822
71205W        W34962   0.930  42.990   5.181
71206W        W34963  27.466   9.674   2.229
71207W        W34964  42.800  41.526   1.755
71208W        W34965   7.701   4.414   3.743
71209W        W34966  19.213  10.343   4.738
71210W        W34967  19.762  39.377  10.443
71211W        W34968  28.449  30.592  14.864
71212W        W34969   8.181  43.974   3.280
71213W        W34970  12.835   4.832  11.528
71214W        W34971  32.520   7.822  11.435
71215W        W34972  27.588   9.200  14.381
71216W        W34973  40.435  26.669  14.824
71217W        W34974  37.002  16.302   4.208
71218W        W34975   4.428  44.764  13.050
71219W        W34976  18.574  38.454  11.014
71220W        W34977  39.503   7.192  10.642
71221W        W34978  23.692  11.190   3.755
71222W        W34979  15.185   8.898  13.900
71223W        W34980  26.144   6.891  13.004
71224W        W34981  32.002  33.099  12.061
71225W        W34982  37.516  31.902  11.512
71226W        W34983  23.667  34.099   3.838
71227W        W34984   0.966   6.826   3.299
71228W        W34985   7.814  43.767   3.152
71229W        W34986   8.702  43.986   2.412
71230W        W34987  33.573  15.718  10.956
71231W        W34988  16.169  14.593  13.411
71232W        W34989  13.335  18.704   2.803
71233W        W34990  42.459   7.352   2.247
71234W        W34991   8.691  30.480  10.973
71235W        W34992   9.165  41.803  12.947
71236W        W34993  34.586   8.876   2.687
71237W        W34994  42.509  15.171   1.360
71238W        W34995   2.833  44.766  14.012
71239W        W34996  12.269  26.970   3.272
71240W        W34997  16.805   8.798  12.096
71241W        W34998   5.717   1.481  12.574
71242W        W34999  32.949  27.516  11.931
71243W        W35000  32.592  14.623  10.902
71244W        W35001  12.805  18.089   3.355
71245W        W35002  37.412   0.784   3.827
71246W        W35003  40.798  27.490  11.556
71247W        W35004  17.699   6.741   4.324
71248W        W35005  12.347   8.389  13.003
71249W        W35006  21.253  32.487   5.676
71250W        W35007  12.146  14.107   2.758
71251W        W35008   6.909  11.829   1.845
71252W        W35009  40.801   1.749   3.638
71253W        W35010  15.287  13.307  12.884
71254W        W35011  23.618  39.446   0.924
71255W        W35012   7.174   8.300  11.531
71256W        W35013  42.952  27.032  12.068
71257W        W35014   5.313   3.770   4.625
71258W        W35015  15.196  42.455   2.267
71259W        W35016   4.795  31.497  12.446
71260W        W35017  24.980  10.347  12.096
71261W        W35018  21.531  31.533  11.587
71262W        W35019  42.442  13.253   4.145
71263W        W35020   2.831  42.430  14.907
71264W        W35021   8.402  36.044   4.674
71265W        W35022  28.004  43.932   3.633
71266W        W35023  37.402  15.215  14.952
71267W        W35024  12.200  43.842  12.426
71268W        W35025   4.778  23.630   3.858
71269W        W35026  15.092  27.660   0.810
71270W        W35027   6.898  34.532  11.078
71271W        W35028  12.818  12.831   3.659
71272W        W35029  36.450  23.563   4.749
71273W        W35030  28.153  41.455  12.846
71274W        W35031  27.489  26.484  13.963
71275W        W35032  28.175  18.750  11.538
71276W        W35033  39.971  18.142   2.356
71277W        W35034  38.478  13.301  14.396
71278W        W35035  24.066   9.674  13.937
71279W        W35036  26.196  15.784   1.301
71280W        W35037  38.954  17.582  11.453
71281W        W35038   9.315  37.398   3.805
71282W        W35039  33.974  12.334   4.167
71283W        W35040  32.935  17.615   1.440
71284W        W35041  14.216  41.379   0.360
71285W        W35042  23.551  16.589  10.968
71286W        W35043  21.608  37.511  13.063
71287W        W35044  19.641  19.724   0.941
71288W        W35045  22.008  31.956   4.649
71289W        W35046   0.895  17.148  12.997
71290W        W35047  30.432  20.660   0.757
71291W        W35048  10.198   1.250   4.668
71292W        W35049  13.290  26.586  14.016
71293W        W35050  34.455  33.533  12.349
71294W        W35051   9.803  12.181   4.159
71295W        W35052  41.486  13.705  13.829
71296W        W35053  17.150  34.375   4.692
71297W        W35054   0.377  39.950  10.589
71298W        W35055  33.011  33.080   1.810
71299W        W35056  40.870  41.039   2.339
71300W        W35057  25.606  13.116   0.958
71301W        W35058  20.674  39.818  13.883
71302W        W35059  35.433  31.495  12.858
71303W        W35060  22.043  26.692  11.942
71304W        W35061  24.655  21.047   0.391
71305W        W35062  11.359  44.000   0.355
71306W        W35063   7.370   2.420  13.037
71307W        W35064  23.665   3.269  11.486
71308W        W35065  22.196  37.079   2.354
71309W        W35066  29.655  41.897   3.864
71310W        W35067  10.382  28.987  14.513
71311W        W35068  37.470  32.116   4.140
71312W        W35069  44.935  23.644   0.967
71313W        W35070   4.850  22.007  14.024
71314W        W35071  38.538   0.845   1.321
71315W        W35072  35.072  31.087  14.423
71316W        W35073   4.217  24.220   0.274
71317W        W35074  33.576  10.852  12.094
71318W        W35075  28.140  24.683   4.724
71319W        W35076  15.134  16.310   3.820
71320W        W35077  24.062  11.158  13.837
71321W        W35078   9.767   0.461  14.880
71322W        W35079  30.111   0.346   3.371
71323W        W35080   7.758  28.171   0.859
71324W        W35081  26.166  31.444  10.459
71325W        W35082  40.949  23.148   3.180
71326W        W35083   6.915  29.453  12.375
71327W        W35084  33.438  20.110   4.157
71328W        W35085  32.124  14.607  12.943
71329W        W35086  36.065  41.853   5.112
71330W        W35087  10.306  26.647   0.942
71331W        W35088   6.338   7.684  13.028
71332W        W35089  39.034  35.900  11.511
71333W        W35090  18.065   0.842  14.515
71334W        W35091  29.533  10.634  14.900
71335W        W35092  11.713  19.197   0.427
71336W        W35093  43.916   9.353  11.926
71337W        W35094  27.460   4.911   1.278
71338W        W35095  23.055  33.570   5.309
71339W        W35096  43.412  15.172  13.055
71340W        W35097  16.077  28.034  13.463
71341W        W35098  35.524  36.453   0.375
71342W        W35099  31.616  11.679   2.743
71343W        W35100  30.055  15.179   3.708
71344W        W35101  29.526  19.063  13.874
71345W        W35102  16.268  13.337   9.944
71346W        W35103  34.910  29.114   2.301
71347W        W35104  16.614  44.465  11.556
71348W        W35105   8.800  34.108   4.241
71349W        W35106  44.472   4.718  13.383
71350W        W35107  10.232  39.450   4.641
71351W        W35108  10.854  18.737  11.877
71352W        W35109  14.241  39.559   1.282
71353W        W35110  27.127  35.531   2.367
71354W        W35111  37.075  33.920   1.853
71355W        W35112  25.184  37.006   1.339
71356W        W35113  29.465   2.854   4.756
71357W        W35114  36.483   3.861   3.753
71358W        W35115   0.849   6.226   1.732
71359W        W35116  33.021  43.020  12.093
71360W        W35117   8.309  15.172   0.420
71361W        W35118  26.616  20.036   1.411
71362W        W35119   6.188  39.001   3.280
71363W        W35120  10.840  11.317   2.184
71364W        W35121  43.329  29.596  11.495
71365W        W35122   4.402   5.376  12.871
71366W        W35123  35.065  37.918   4.796
71367W        W35124  15.206  43.783   0.435
71368W        W35125  30.918  42.865   1.433
71369W        W35126  19.189   5.345   0.744
71370W        W35127   4.268  17.673   0.475
71371W        W35128  42.322  25.695   3.699
71372W        W35129  26.476  14.594   9.568
71373W        W35130  30.908  34.933   1.891
71374W        W35131  44.323  26.177  10.144
71375W        W35132  23.031  18.178   3.642
71376W        W35133  23.006   4.740  13.474
71377W        W35134  14.793  20.129  14.484
71378W        W35135  18.762  21.649   3.852
71379W        W35136  11.164  37.979  14.388
71380W        W35137  20.063   2.850  11.374
71381W        W35138  31.075  27.082   0.779
71382W        W35139  40.831   6.895  13.887
71383W        W35140  34.981  16.144  11.464
71384W        W35141  23.661   2.408  13.005
71385W        W35142  12.750  34.605  14.992
71386W        W35143   9.735  25.027  13.324
71387W        W35144  43.316  41.355   4.246
71388W        W35145  42.832   1.829  14.403
71389W        W35146  34.087  18.779  12.525
71390W        W35147  13.302  26.545   3.854
71391W        W35148  32.078   3.319  13.016
71392W        W35149  43.979  40.883  11.455
71393W        W35150  25.976  34.951   2.193
71394W        W35151  19.734   3.296  13.511
71395W        W35152  21.054  42.518   4.116
71396W        W35153  32.612  44.292  10.916
71397W        W35154  35.097  18.149  12.844
71398W        W35155   6.842  32.084   2.198
71399W        W35156  35.540  42.414  12.437
71400W        W35157  19.666  22.704  14.839
71401W        W35158  12.669  31.486  13.501
71402W        W35159  30.000  16.610   2.722
71403W        W35160  30.043  25.615  14.792
71404W        W35161  18.606  38.417  14.871
71405W        W35162  31.519  42.297  13.851
71406W        W35163   6.783   3.261   2.408
71407W        W35164  39.814   9.262   2.328
71408W        W35165  26.570  43.886  14.936
71409W        W35166  37.356   1.306   3.206
71410W        W35167  16.593   8.354  11.930
71411W        W35168  43.314   0.957  12.437
71412W        W35169  13.836  26.065  14.443
71413W        W35170  13.138  22.705   3.185
71414W        W35171   3.873   0.301  14.392
71415W        W35172  30.145  25.696   2.662
71416W        W35173  44.900  28.184   4.232
71417W        W35174  19.273   3.875  12.059
71418W        W35175  15.121   3.383  10.449
71419W        W35176   4.720  23.141  13.360
71420W        W35177  23.181   7.679  14.925
71421W        W35178  37.557  33.619   2.681
71422W        W35179  39.962  31.523  13.342
71423W        W35180   4.811  25.096  14.009
71424W        W35181   6.754  14.665  11.115
71425W        W35182  12.831  37.437  14.935
71426W        W35183  16.576  18.555  11.042
71427W        W35184   9.643  12.166   1.359
71428W        W35185  36.953  40.012   2.285
71429W        W35186  30.573  14.225   4.313
71430W        W35187  16.625  24.597  13.536
71431W        W35188  28.166  11.700  11.913
71432W        W35189  16.189  32.142  10.954
71433W        W35190  34.585  34.483   2.845
71434W        W35191  29.560  37.567   4.712
71435W        W35192  43.949  39.930   3.784
71436W        W35193  31.937   1.348  11.104
71437W        W35194  21.752   8.685   4.643
71438W        W35195  40.990  19.710   1.279
71439W        W35196  15.785  12.774  11.875
71440W        W35197   8.247   5.803   4.743
71441W        W35198  13.790   9.250  12.826
71442W        W35199  13.812  20.620   1.842
71443W        W35200  10.207  12.251  11.007
71444W        W35201  17.142  23.674  10.941
71445W        W35202  40.361  15.700   1.238
71446W        W35203  14.775  37.016   2.758
71447W        W35204  40.994  31.026   0.370
71448W        W35205   5.776  31.954   3.240
71449W        W35206   1.464  28.626   3.213
71450W        W35207  16.630  20.588   2.787
71451W        W35208  28.531  34.112   0.744
71452W        W35209  38.978  19.564   1.774
71453W        W35210   9.237  14.263   3.806
71454W        W35211  42.480  34.865   3.712
71455W        W35212   4.299  44.311  11.062
71456W        W35213  20.031  12.629   3.211
71457W        W35214  35.534   6.202  12.516
71458W        W35215  16.694  24.682   1.336
71459W        W35216  41.297  15.693  14.345
71460W        W35217  10.853  19.779  11.373
71461W        W35218  43.966  16.578   0.740
71462W        W35219  28.057   5.291  11.090
71463W        W35220   8.312  31.959  12.373
71464W        W35221  40.506  20.523  13.948
71465W        W35222  26.517  17.080   1.858
71466W        W35223   2.433  34.425  11.981
71467W        W35224   9.670  40.984   4.800
71468W        W35225   2.774   9.152  11.447
71469W        W35226  23.174  41.396   1.310
71470W        W35227  26.031  16.207   0.927
71471W        W35228  40.442  24.212   1.228
71472W        W35229   2.934   6.372  14.005
71473W        W35230   1.770  16.247  11.985
71474W        W35231  43.967  29.052  13.497
71475W        W35232  15.813  25.172   1.906
71476W        W35233  16.156   2.265   2.768
71477W        W35234   8.357  44.387  12.973
71478W        W35235   7.241  19.633   0.916
71479W        W35236  23.151  10.642   0.752
71480W        W35237  18.634  33.104  13.461
71481W        W35238  17.574  21.655   3.851
71482W        W35239  38.500  27.606   3.854
71483W        W35240   5.815   8.212  11.005
71484W        W35241   4.405   6.301  12.397
71485W        W35242  27.568   5.917  11.123
71486W        W35243  34.116  23.002   0.259
71487W        W35244  44.270  25.091  10.469
71488W        W35245  12.253  15.146   2.760
71489W        W35246  16.694  33.497   0.377
71490W        W35247  38.441  35.062   4.713
71491W        W35248  39.373  24.207   2.186
71492W        W35249  31.149   0.300   1.841
71493W        W35250  19.672   8.774  11.964
71494W        W35251  17.301  38.918   4.666
71495W        W35252  33.457  32.903  10.075
71496W        W35253  14.230  18.134  13.953
71497W        W35254  24.975  19.111   2.216
71498W        W35255  14.183   8.834  11.407
71499W        W35256  18.630  17.291  12.479
71500W        W35257  37.008  28.944   3.653
71501W        W35258  19.210  24.614   0.858
71502W        W35259  15.188   7.188  13.469
71503W        W35260  20.589  17.756  14.304
71504W        W35261  28.621  10.332   0.779
71505W        W35262  37.488  13.752  12.481
71506W        W35263   7.232  28.452  11.519
71507W        W35264  34.449  40.905  10.622
71508W        W35265  37.357  42.339  13.798
71509W        W35266  33.429  40.989   3.276
71510W        W35267   3.306  42.018  10.578
71511W        W35268  40.971  18.632   2.301
71512W        W35269  19.533  30.613   0.380
71513W        W35270   8.304   5.231   0.833
71514W        W35271  13.145  19.210  11.501
71515W        W35272  11.736  11.284   0.768
71516W        W35273   5.417  24.600   0.399
71517W        W35274  42.466   1.751  12.039
71518W        W35275  21.165  21.609  11.999
71519W        W35276  24.111  43.511  13.878
71520W        W35277  15.820   3.281   4.770
71521W        W35278  12.141  39.898   3.271
71522W        W35279  15.274   8.864  10.585
71523W        W35280   7.209  38.011  10.896
71524W        W35281   5.218  22.160   2.847
71525W        W35282  38.946  19.153   3.691
71526W        W35283   3.323  40.924  14.473
71527W        W35284  20.652  38.918   2.367
71528W        W35285  10.235  18.699  10.517
71529W        W35286  13.114   1.962   0.743
71530W        W35287   8.377  20.112  13.823
71531W        W35288  33.881  22.514   0.869
71532W        W35289  21.575  20.155   0.865
71533W        W35290  40.871  43.360   2.895
71534W        W35291  42.504   7.241   3.161
71535W        W35292  32.044  34.449  10.959
71536W        W35293  30.509  27.512  14.449
71537W        W35294   7.325  33.565   2.865
71538W        W35295  31.487  40.418  11.043
71539W        W35296  30.988  23.016   0.344
71540W        W35297  11.361   0.823   3.253
71541W        W35298  28.966  23.577  14.439
71542W        W35299  37.438   0.867   4.201
71543W        W35300  12.311   2.459   0.276
71544W        W35301  43.299   8.867   2.821
71545W        W35302  11.368  20.223   0.935
71546W        W35303  11.204  14.802  14.791
71547W        W35304   9.653  27.550  14.351
71548W        W35305   0.782  44.281   5.292
71549W        W35306  36.513  23.604   5.096
71550W        W35307  20.577  18.664   1.798
71551W        W35308  25.664  17.687  14.395
71552W        W35309  27.047   7.206   3.268
71553W        W35310  30.044  15.110  11.082
71554W        W35311   8.321  35.358  13.975
71555W        W35312  12.637  15.116   1.697
71556W        W35313  15.227   7.733   1.370
71557W        W35314  25.515   0.474  12.518
71558W        W35315  14.159  18.166  13.045
71559W        W35316  25.607  17.306  10.409
71560W        W35317  22.036  30.491   0.298
71561W        W35318  14.699  29.664   3.839
71562W        W35319  30.923   8.199  11.925
71563W        W35320  10.345  34.022  14.362
71564W        W35321  26.139   1.856   0.357
71565W        W35322  23.504  12.617  14.970
71566W        W35323  29.971  15.206  12.954
71567W        W35324  12.664  39.909  12.870
71568W        W35325   4.406  41.894   4.626
71569W        W35326   6.758  12.828   3.199
71570W        W35327  16.264   3.251   1.275
71571W        W35328   2.818  31.066  13.912
71572W        W35329  13.204   1.865  10.411
71573W        W35330   5.898  24.707  11.588
71574W        W35331  43.986  23.063   2.331
71575W        W35332  15.188  38.833   0.432
71576W        W35333  26.490  27.536   9.968
71577W        W35334  27.596  34.569  13.889
71578W        W35335  36.554  17.721  12.078
71579W        W35336  43.867   0.863  12.920
71580W        W35337   0.826  35.108   1.234
71581W        W35338  19.166  44.338  10.534
71582W        W35339  30.619  33.035  12.826
71583W        W35340  20.758   5.349   0.822
71584W        W35341  23.173  27.167  11.535
71585W        W35342  38.893  33.402   2.236
71586W        W35343  17.793  32.419  11.903
71587W        W35344  41.400   3.329  10.139
71588W        W35345  39.961   0.459  14.933
71589W        W35346  34.414   4.423   4.336
71590W        W35347  22.673  28.476  12.077
71591W        W35348   9.763  39.932  11.005
71592W        W35349  30.104  11.853   1.727
71593W        W35350  30.090  19.113  10.557
71594W        W35351  33.084  26.599  13.438
71595W        W35352  36.991  29.935   4.229
71596W        W35353  11.187  18.088  10.958
71597W        W35354  31.064  16.698  14.942
71598W        W35355   4.240  15.798  11.387
71599W        W35356  13.815  44.281  12.457
71600W        W35357   8.302  22.156  10.561
71601W        W35358  44.008  26.129   1.366
71602W        W35359  38.049   4.791  13.836
71603W        W35360  22.188   0.423   2.389
71604W        W35361   5.256  43.839   4.147
71605W        W35362  21.567  25.573   2.180
71606W        W35363  25.539  14.216  14.793
71607W        W35364  23.181  43.325  14.913
71608W        W35365  31.917  30.132  11.078
71609W        W35366  15.634  34.875  10.547
71610W        W35367  41.890  34.029  14.393
71611W        W35368  29.107  42.438   4.209
71612W        W35369  44.367  24.643   4.223
71613W        W35370   4.255  33.449  14.795
71614W        W35371  34.868  43.016  13.041
71615W        W35372  39.991  38.058   4.763
71616W        W35373   3.907  34.873   1.430
71617W        W35374  31.465  38.429   0.414
71618W        W35375   6.380  25.705  12.580
71619W        W35376  39.975  43.314  12.557
71620W        W35377  37.030  12.326  10.960
71621W        W35378   9.174  11.182   1.301
71622W        W35379  18.122  26.537   1.226
71623W        W35380  14.110  37.474  14.923
71624W        W35381  26.486  18.621  10.902
71625W        W35382  42.479  12.147  11.065
71626W        W35383   5.742  15.776   2.282
71627W        W35384  16.214  21.166  12.021
71628W        W35385  37.501  21.696   4.291
71629W        W35386   8.730   6.214  14.008
71630W        W35387   5.718  16.613   0.890
71631W        W35388  42.314   8.379  10.928
71632W        W35389   7.711   8.195   1.871
71633W        W35390  13.307   1.398  14.432
71634W        W35391   4.860  44.823   4.314
71635W        W35392  33.579  14.195  12.868
71636W        W35393  37.444  39.558   4.703
71637W        W35394   8.389  24.081   2.202
71638W        W35395  32.102  34.374  14.030
71639W        W35396  44.817  15.654   0.346
71640W        W35397  18.240   3.264  14.508
71641W        W35398  33.962  29.609  10.540
71642W        W35399  40.983  41.036  12.372
71643W        W35400  35.952   7.855  14.511
71644W        W35401  12.314  10.267  12.928
71645W        W35402  26.994  37.036   2.894
71646W        W35403  30.473  35.864  14.284
71647W        W35404  17.644  22.672   4.605
71648W        W35405  38.339  28.504  14.962
71649W        W35406   1.944   6.375  14.458
71650W        W35407  28.511  11.276   0.819
71651W        W35408   3.351  42.304  12.523
71652W        W35409  38.383  36.447   0.798
71653W        W35410  32.398   4.810  12.888
71654W        W35411  34.426  18.189   4.302
71655W        W35412  13.198  19.684   2.302
71656W        W35413   7.803   7.177  14.300
71657W        W35414  43.997  35.359   0.352
71658W        W35415  44.971  30.433   3.178
71659W        W35416  28.959  34.483  12.444
71660W        W35417  28.075   4.415   1.440
71661W        W35418  19.266  36.090   3.660
71662W        W35419  41.883  16.241  10.435
71663W        W35420   7.890  22.646   1.870
71664W        W35421  22.200  33.561  14.998
71665W        W35422  25.024  22.617  12.434
71666W        W35423  15.092  28.942  12.861
71667W        W35424  32.485  30.106   1.406
71668W        W35425   1.334  33.087   3.761
71669W        W35426  12.760   4.407   1.240
71670W        W35427  19.700   2.260   0.361
71671W        W35428  38.385  13.237  14.007
71672W        W35429  40.352  19.674   3.867
71673W        W35430  10.382  37.580   1.934
71674W        W35431  19.198  29.640   0.788
71675W        W35432   1.429  10.249  10.417
71676W        W35433  30.439  14.187   1.855
71677W        W35434  15.647   9.384   1.350
71678W        W35435  25.112   6.795   2.215
71679W        W35436  13.271  17.143   2.353
71680W        W35437   3.345  22.522  12.019
71681W        W35438  38.845  27.613  11.081
71682W        W35439  26.692  36.967  13.403
71683W        W35440  10.318   9.857   2.861
71684W        W35441   5.261  17.066   2.807
71685W        W35442  25.060   5.880   0.727
71686W        W35443  35.938  39.064   0.814
71687W        W35444  26.472   1.468   0.284
71688W        W35445  41.953  29.605   0.774
71689W        W35446  43.987  29.012   2.884
71690W        W35447  29.524  25.492   0.258
71691W        W35448  37.538   3.407   1.289
71692W        W35449  23.645  38.519  14.922
71693W        W35450  20.561  36.568   1.816
71694W        W35451  29.449  21.236   3.813
71695W        W35452  43.010  11.321  14.288
71696W        W35453   6.868  31.134  10.491
71697W        W35454   8.764  33.430   4.736
71698W        W35455  29.000  21.035   3.812
71699W        W35456   5.322  14.099  13.909
71700W        W35457  27.595   1.885   4.769
71701W        W35458  34.914  20.177   0.390
71702W        W35459  20.241  29.535   2.696
71703W        W35460  38.070   5.282   2.229
71704W        W35461  31.408  41.841   3.287
71705W        W35462  25.562  27.071   1.861
71706W        W35463  22.525  26.089  13.816
71707W        W35464  11.373  25.191  14.452
71708W        W35465  37.543  12.273   3.268
71709W        W35466  31.529  42.313   2.419
71710W        W35467  14.683  11.307  11.443
71711W        W35468   8.316   9.698   2.698
71712W        W35469  32.088  39.493  14.495
71713W        W35470  33.081  19.260  10.950
71714W        W35471  20.068  28.041  10.075
71715W        W35472  23.654  12.282   2.178
71716W        W35473  34.908  26.471   3.695
71717W        W35474   2.228  28.982  13.473
71718W        W35475  36.449  44.765  10.914
71719W        W35476  16.625  19.535  14.836
71720W        W35477  36.359  21.727   2.187
71721W        W35478  19.255  28.627   3.680
71722W        W35479  44.827  29.563  12.416
71723W        W35480  33.016  33.450   1.734
71724W        W35481  14.189  11.718   3.678
71725W        W35482  35.474  17.295  11.098
71726W        W35483  14.211  43.768   1.743
71727W        W35484  16.663  42.855   0.402
71728W        W35485   2.759  13.302   4.633
71729W        W35486  31.576  13.166  14.346
71730W        W35487  43.885   1.464  14.874
71731W        W35488   2.943  37.966   3.316
71732W        W35489  11.679  35.469  12.352
71733W        W35490   6.897  18.210  11.413
71734W        W35491  22.122   0.436  11.024
71735W        W35492  20.609  23.009  12.986
71736W        W35493  16.133  41.913  10.488
71737W        W35494   0.936  24.120   4.705
71738W        W35495  10.138  36.890  13.799
71739W        W35496  24.174   3.329   1.334
71740W        W35497  24.529  41.005  14.471
71741W        W35498  30.108   8.771   1.269
71742W        W35499   4.726  44.318   2.387
71743W        W35500  33.965  41.475  12.402
71744W        W35501  38.464  31.540  14.291
71745W        W35502  25.130  36.577  13.353
71746W        W35503  33.431  15.774  14.331
71747W        W35504  30.963  35.556   4.679
71748W        W35505  43.479  40.811  14.016
71749W        W35506   2.374  12.822  12.876
71750W        W35507  37.339   7.321   2.332
71751W        W35508  36.861  19.203   2.341
71752W        W35509  11.653  27.081   2.333
71753W        W35510  29.146  24.648   1.823
71754W        W35511   7.906  37.864   3.188
71755W        W35512  23.554  33.499   4.734
71756W        W35513   7.246   9.209  11.900
71757W        W35514  20.043  30.643   2.787
71758W        W35515  29.490  30.929  13.965
71759W        W35516  12.223  41.902   3.172
71760W        W35517   9.835  20.695  10.552
71761W        W35518  14.231  40.331  12.080
71762W        W35519  23.502  18.218   4.808
71763W        W35520  38.519   2.954   1.400
71764W        W35521  38.361  42.516  12.974
71765W        W35522  26.616  20.226   2.901
71766W        W35523  44.817  24.593   2.283
71767W        W35524   7.295  18.693   3.352
71768W        W35525  25.574  35.082   1.284
71769W        W35526  34.423   6.242   0.750
71770W        W35527  24.622  36.960  13.793
71771W        W35528  23.213  23.165  13.444
71772W        W35529  16.074   7.898   1.906
71773W        W35530   3.438   9.226   4.264
71774W        W35531   1.267  18.100  14.461
71775W        W35532  30.564  13.835   0.794
71776W        W35533  23.203   6.898   0.284
71777W        W35534   8.809  43.003   0.800
71778W        W35535  39.813  28.649  11.855
71779W        W35536  19.106  10.666  12.406
71780W        W35537  42.805  14.295   0.281
71781W        W35538  21.209  30.003   0.874
71782W        W35539  19.544  12.789   0.468
71783W        W35540  26.065  27.005   2.846
71784W        W35541  43.368  16.589  10.576
71785W        W35542  32.946  42.005  11.485
71786W        W35543  23.186   2.854  11.876
71787W        W35544  27.619  29.106  10.446
71788W        W35545   7.233  44.307   2.242
71789W        W35546  10.879  23.538   4.229
71790W        W35547  13.233   2.827   3.354
71791W        W35548  17.148  39.819   1.737
71792W        W35549   4.292  36.506   1.839
71793W        W35550  38.549  21.176   0.842
71794W        W35551  21.100  32.502   3.329
71795W        W35552  12.833   6.229  13.911
71796W        W35553  17.650  28.576   2.413
71797W        W35554  24.041  15.099   4.146
71798W        W35555  39.432  33.090   3.368
71799W        W35556  15.176   9.287  11.556
71800W        W35557  12.696  28.019   4.779
71801W        W35558  42.878  44.912  12.576
71802W        W35559  10.256  18.158  14.879
71803W        W35560  35.901  41.939  10.456
71804W        W35561   4.846   0.335   4.788
71805W        W35562  39.378   4.816   1.797
71806W        W35563  26.594  19.637  12.866
71807W        W35564  32.409  33.520   0.243
71808W        W35565  23.698  36.567  11.425
71809W        W35566  37.439  20.164   0.956
71810W        W35567  12.315  17.728   0.887
71811W        W35568  11.773  42.438   1.216
71812W        W35569  13.638  42.918  13.976
71813W        W35570  18.770  15.682   4.631
71814W        W35571   2.726   2.438  12.863
71815W        W35572  13.614  35.105  13.387
71816W        W35573  29.014  16.731  12.060
71817W        W35574   3.353  32.466  11.864
71818W        W35575  37.081   4.775   2.309
71819W        W35576   7.691  42.007  12.872
71820W        W35577   7.909  37.421   0.471
71821W        W35578   5.268  14.823  14.440
71822W        W35579  16.655  25.970  12.530
71823W        W35580  42.931  36.400  14.410
71824W        W35581  30.996   8.887   4.138
71825W        W35582  15.096  36.404  13.899
71826W        W35583  33.400  19.628   2.888
71827W        W35584   7.284  28.447   2.179
71828W        W35585   9.729   2.721  13.462
71829W        W35586  10.722   3.454  13.984
71830W        W35587  21.109  36.076   2.853
71831W        W35588  34.946  41.810   1.836
71832W        W35589  16.779  40.421   0.757
71833W        W35590   8.792  33.063  11.434
71834W        W35591  32.103  34.972   1.734
71835W        W35592  13.287  27.126   0.407
71836W        W35593  38.356  13.671  12.938
71837W        W35594  12.764  27.496  12.380
71838W        W35595  41.865  17.678   2.800
71839W        W35596   9.242  38.983  10.072
71840W        W35597  32.637   5.848  11.585
71841W        W35598  18.619  19.648  11.505
71842W        W35599  37.002  11.253  14.508
71843W        W35600  11.833  35.052  11.999
71844W        W35601  20.697  15.767  14.881
71845W        W35602  15.799  30.042  13.060
71846W        W35603   7.239  34.003  14.943
71847W        W35604  27.669  34.462   2.778
71848W        W35605  35.065  32.623  11.050
71849W        W35606  28.132   3.291   1.885
71850W        W35607  16.100  40.992  12.415
71851W        W35608  27.019  23.710   2.807
71852W        W35609  36.368  44.391   3.305
71853W        W35610  42.953  20.050  10.542
71854W        W35611  24.581  16.683  10.408
71855W        W35612   5.928  31.637  10.894
71856W        W35613   8.395  30.126   3.742
71857W        W35614  32.496  34.554   4.695
71858W        W35615  21.582  13.808  11.913
71859W        W35616  10.765  34.385   1.929
71860W        W35617  31.480  35.916   1.440
71861W        W35618  28.040  42.422   2.686
71862W        W35619   2.876   1.460   4.222
71863W        W35620  14.289  19.165   1.437
71864W        W35621   8.797   4.786   3.372
71865W        W35622   9.365   0.979  12.433
71866W        W35623  42.802  38.895   2.865
71867W        W35624  30.153  21.572  12.546
71868W        W35625  38.924  38.941   2.707
71869W        W35626  35.434  32.937  11.077
71870W        W35627  40.322  10.160   3.814
71871W        W35628  36.489  34.027  13.033
71872W        W35629   8.208  35.929  12.520
71873W        W35630  38.334   8.898   3.728
71874W        W35631   5.919  36.358  11.503
71875W        W35632  30.578   8.739  14.500
71876W        W35633  40.835  14.736   4.732
71877W        W35634  36.511  34.427   0.966
71878W        W35635  32.059  12.744   4.341
71879W        W35636  32.125  21.215  11.998
71880W        W35637  40.879  20.730  13.518
71881W        W35638  24.019  25.500   1.708
71882W        W35639  14.752  19.547  12.482
71883W        W35640  17.199  30.156  11.531
71884W        W35641  12.612  18.780   3.715
71885W        W35642  28.040  15.251   2.273
71886W        W35643  24.022  23.702  14.376
71887W        W35644   4.436  10.210  10.920
71888W        W35645  24.990   6.381  14.433
71889W        W35646  19.759   0.749  13.855
71890W        W35647  39.938  13.177   1.423
71891W        W35648  20.098  36.461  14.000
71892W        W35649  19.216  18.569   1.223
71893W        W35650  17.756  10.691  11.897
71894W        W35651  37.988   6.886  13.034
71895W        W35652   8.191  22.078   0.262
71896W        W35653  10.169  36.032  11.032
71897W        W35654  11.735   9.214   3.717
71898W        W35655  30.073  16.758   0.843
71899W        W35656  16.787   3.930  11.904
71900W        W35657  39.868   1.260  13.431
71901W        W35658  29.974  21.712  14.941
71902W        W35659  11.677  33.607  12.001
71903W        W35660  33.084   5.200  10.429
71904W        W35661  39.839  43.967   4.283
71905W        W35662   6.798  37.370   2.229
71906W        W35663  22.572  13.816  12.904
71907W        W35664  20.694  37.489   1.750
71908W        W35665  36.386  40.930   3.855
71909W        W35666  10.739  43.934   4.654
71910W        W35667  32.111   6.291  10.118
71911W        W35668  30.520  23.491   3.266
71912W        W35669  24.563  35.491  11.499
71913W        W35670  28.035  14.779  10.545
71914W        W35671  43.962   8.375  14.008
71915W        W35672   9.345  10.141  12.962
71916W        W35673   2.418  13.111   2.336
71917W        W35674  29.016  12.728   3.369
71918W        W35675  38.897  20.709  14.307
71919W        W35676  44.476  42.474  11.912
71920W        W35677   9.226  37.551   2.702
71921W        W35678  32.890  28.548   1.256
71922W        W35679   3.373   6.879   1.921
71923W        W35680   3.376   7.407  12.375
71924W        W35681   2.403  12.177   2.790
71925W        W35682  32.637  26.689   5.305
71926W        W35683   7.263  17.630   2.415
71927W        W35684  15.616  18.074  12.871
71928W        W35685  12.614  36.908  10.990
71929W        W35686  10.759   7.748  13.310
71930W        W35687  39.860  25.559  11.416
71931W        W35688   1.841  20.062   2.401
71932W        W35689  29.930  17.183   2.416
71933W        W35690  42.300  11.346   3.639
71934W        W35691   1.318  15.589   0.884
71935W        W35692  20.255  23.544   4.745
71936W        W35693  26.537  14.317  11.088
71937W        W35694  39.878   8.190   2.275
71938W        W35695  40.544  38.414   3.270
71939W        W35696  36.038  26.544   1.738
71940W        W35697  25.663  19.097  12.854
71941W        W35698  33.929   5.704  11.588
71942W        W35699   2.775  25.673   2.218
71943W        W35700  30.606  28.545   2.822
71944W        W35701  11.175   3.446  13.945
71945W        W35702   4.292  15.589  10.637
71946W        W35703   0.914  21.606   4.292
71947W        W35704  30.964  25.048   3.168
71948W        W35705   0.844  10.716  14.849
71949W        W35706  35.512  38.863  14.460
71950W        W35707  10.144   0.410   1.706
71951W        W35708  21.571  38.568   0.838
71952W        W35709  35.009  14.646  14.933
71953W        W35710  19.046  30.574   2.379
71954W        W35711   8.794  23.165   4.684
71955W        W35712  28.475  14.590   1.740
71956W        W35713  24.021  34.402  12.942
71957W        W35714  11.272  25.034   0.254
71958W        W35715  37.901   8.852  12.481
71959W        W35716  34.046  24.156   1.358
71960W        W35717   5.908  34.543  13.312
71961W        W35718  20.183  16.100  13.921
71962W        W35719  26.073   9.648   0.769
71963W        W35720  18.750  38.551   2.897
71964W        W35721  15.682  28.568  14.502
71965W        W35722  44.977   0.275  13.805
71966W        W35723  18.742  23.565  14.911
71967W        W35724   5.799  13.262   1.720
71968W        W35725   7.772  33.108  12.362
71969W        W35726  39.517   5.274  12.931
71970W        W35727  37.045  22.128   4.211
71971W        W35728  35.077  11.656  14.434
71972W        W35729  22.522  31.130   3.371
71973W        W35730  12.724  31.435   3.845
71974W        W35731  15.277   2.317  12.399
71975W        W35732  38.984  17.695  14.865
71976W        W35733  38.418   4.885  13.830
71977W        W35734  35.405  24.120  14.830
71978W        W35735  16.671  31.467  11.086
71979W        W35736  39.974  10.844   2.705
71980W        W35737  35.516  32.582   0.362
71981W        W35738  22.502   9.212   0.757
71982W        W35739  14.184   7.886  12.435
71983W        W35740  41.341   4.741  12.435
71984W        W35741   6.355  14.285   0.795
71985W        W35742   5.742  42.441  11.482
71986W        W35743  29.615  31.606   1.921
71987W        W35744   7.761  14.691   2.837
71988W        W35745  31.573  35.027  11.451
71989W        W35746  26.671  37.494  12.864
71990W        W35747  26.135   8.774  14.477
71991W        W35748  10.183  21.113   2.769
71992W        W35749  27.943  34.430   1.852
71993W        W35750   3.829  14.198   4.205
71994W        W35751  26.191  39.371   2.391
71995W        W35752  15.682  16.120   3.313
71996W        W35753  44.890  23.558   2.888
71997W        W35754  31.909  42.395   1.695
71998W        W35755  25.658   3.934  13.425
71999W        W35756  31.433  18.669   0.243
72000W        W35757  37.857  32.417  13.454
72001W        W35758  26.677  21.725  13.803
72002W        W35759  13.295   0.924  13.412
72003W        W35760  41.302   0.967  10.444
72004W        W35761  17.569  41.450  12.927
72005W        W35762  44.308   7.755  14.440
72006W        W35763  19.588  43.439  10.436
72007W        W35764  19.585  44.766  13.923
72008W        W35765  32.408   0.899  10.530
72009W        W35766  14.610  35.583  13.467
72010W        W35767  24.653  30.619  10.434
72011W        W35768  26.120  15.322  13.906
72012W        W35769  27.605  15.603  13.887
72013W        W35770  39.968   9.763   2.743
72014W        W35771   9.244  14.808   1.852
72015W        W35772   4.283   3.720  14.999
72016W        W35773  11.339  14.186   2.844
72017W        W35774  41.975   8.217   1.308
72018W        W35775  41.991  15.238   4.179
72019W        W35776  23.079   6.763   0.836
72020W        W35777  35.414  27.512  14.317
72021W        W35778   5.834  37.456   4.658
72022W        W35779  11.815  36.520   4.804
72023W        W35780  36.097  21.242   0.744
72024W        W35781  15.748   5.687  11.524
72025W        W35782  37.453  15.667  14.926
72026W        W35783  40.478  20.250  13.442
72027W        W35784   1.390  38.350  14.881
72028W        W35785   1.920  21.194  11.007
72029W        W35786  13.688   0.763  12.378
72030W        W35787  35.536  37.551  14.314
72031W        W35788   7.860  42.328   3.665
72032W        W35789  15.259   2.935   5.758
72033W        W35790  41.501  19.606   4.233
72034W        W35791  26.518  35.855  11.001
72035W        W35792  27.609  13.738   1.765
72036W        W35793   9.649   7.702   1.881
72037W        W35794  14.822  41.884  10.455
72038W        W35795   8.172  10.698   3.165
72039W        W35796  40.816  28.530  14.381
72040W        W35797  24.536  15.271   3.742
72041W        W35798   5.407  32.511   0.889
72042W        W35799   0.776  19.276   1.902
72043W        W35800  23.992  35.907  12.091
72044W        W35801  37.503  30.071  11.920
72045W        W35802  20.569  11.773   2.884
72046W        W35803  37.979  31.047  12.409
72047W        W35804   0.423  19.168   4.682
72048W        W35805  30.148  18.227  13.348
72049W        W35806  24.183  32.955   3.231
72050W        W35807  28.011  37.482  12.835
72051W        W35808  17.727  36.449   1.804
72052W        W35809  32.494  12.855   2.838
72053W        W35810  25.582   4.393   4.754
72054W        W35811   6.201  40.538   1.777
72055W        W35812  29.071  33.540   3.763
72056W        W35813  40.836  41.010   4.282
72057W        W35814  12.282  12.613   2.855
72058W        W35815  31.990  40.875  11.987
72059W        W35816  11.164   7.309   1.883
72060W        W35817  22.684  36.857   3.869
72061W        W35818  37.034  17.137   3.306
72062W        W35819  16.679  22.530  10.948
72063W        W35820   3.283  38.569   3.739
72064W        W35821  22.594   5.287   0.336
72065W        W35822  19.597   1.870  11.031
72066W        W35823  22.051  36.529  10.469
72067W        W35824  28.499   8.346  13.474
72068W        W35825  32.538  44.311  14.894
72069W        W35826   7.346  31.534   3.363
72070W        W35827  37.487  40.361   3.367
72071W        W35828  37.060  15.679   3.716
72072W        W35829  32.131  25.206   3.321
72073W        W35830  21.113  11.658  11.377
72074W        W35831   9.265  10.163   4.350
72075W        W35832  12.832  36.369  12.859
72076W        W35833  30.613  40.344  12.035
72077W        W35834  43.501  24.534  10.616
72078W        W35835  10.218   5.330   3.291
72079W        W35836  19.076  20.176   3.330
72080W        W35837  17.304  19.178  12.470
72081W        W35838  36.924  36.559  14.367
72082W        W35839   9.791   5.699   4.789
72083W        W35840   7.840  27.118  12.350
72084W        W35841  35.460  43.440  14.988
72085W        W35842   6.260  15.181  10.460
72086W        W35843  23.653  38.870   4.265
72087W        W35844  23.584  24.122  12.515
72088W        W35845  14.119  10.194   2.314
72089W        W35846  37.992  11.775   4.815
72090W        W35847  43.354  33.061  12.941
72091W        W35848  36.398  27.060   0.317
72092W        W35849  15.767   0.762  12.089
72093W        W35850  22.697  26.049  14.487
72094W        W35851  13.172  30.099  13.032
72095W        W35852  32.622   8.842   0.852
72096W        W35853  21.041  31.531   4.150
72097W        W35854  42.392  15.200  14.999
72098W        W35855  12.161  42.523  10.969
72099W        W35856  14.783  21.184  11.006
72100W        W35857   2.854  17.659   0.730
72101W        W35858  14.173   3.939  12.870
72102W        W35859  31.443  40.856  13.866
72103W        W35860  24.511  38.990  14.924
72104W        W35861  37.461   9.735  13.898
72105W        W35862  14.145  36.484  11.397
72106W        W35863  29.465  25.534   4.776
72107W        W35864  22.548  16.717  13.987
72108W        W35865  30.051  42.017   0.939
72109W        W35866   1.417  43.775  14.908
72110W        W35867  16.777   2.953   4.165
72111W        W35868  23.703  15.278   0.827
72112W        W35869  37.509  14.136  14.856
72113W        W35870   0.384   2.747   3.278
72114W        W35871  16.780  10.739  14.017
72115W        W35872   0.877  43.311   1.795
72116W        W35873  38.846   0.308   1.284
72117W        W35874  22.533  31.144  10.610
72118W        W35875  21.084   8.893  11.524
72119W        W35876  38.434  16.197   4.766
72120W        W35877  33.470  17.094  12.995
72121W        W35878  15.251  23.209   2.248
72122W        W35879  31.015   9.786   3.323
72123W        W35880   1.853   8.260   0.928
72124W        W35881  35.067  39.523   1.865
72125W        W35882  40.871  34.555  11.909
72126W        W35883   3.858  25.504   2.407
72127W        W35884  15.705   6.858   2.729
72128W        W35885  38.413   7.214  11.935
72129W        W35886  35.955  26.471  14.843
72130W        W35887  21.738  22.203   0.763
72131W        W35888  34.120  37.576   4.187
72132W        W35889  43.385  36.897  11.492
72133W        W35890  17.619  34.589   3.775
72134W        W35891  19.162   9.858  11.050
72135W        W35892  15.759   7.394  12.925
72136W        W35893  15.789  21.193   9.955
72137W        W35894   2.439   1.972  13.467
72138W        W35895  12.706  39.821   2.337
72139W        W35896  34.531  17.654   0.335
72140W        W35897  18.757  15.601  10.937
72141W        W35898  30.930   9.751  12.044
72142W        W35899  24.518   5.803  12.940
72143W        W35900  17.761  12.797  11.536
72144W        W35901  31.534  19.156  12.905
72145W        W35902  18.705  29.585   0.926
72146W        W35903  35.060  10.379   2.211
72147W        W35904   5.436   7.681   1.914
72148W        W35905  12.306   4.220  13.916
72149W        W35906  15.282  12.772   1.244
72150W        W35907   3.764  35.895   3.244
72151W        W35908  10.859  28.035   1.932
72152W        W35909   0.491  43.833   4.825
72153W        W35910  10.730  44.996  10.975
72154W        W35911  14.734  15.153  13.315
72155W        W35912  11.152  24.683   2.739
72156W        W35913  14.737  34.539   3.190
72157W        W35914  15.100  22.128  14.447
72158W        W35915   3.332  18.611  14.779
72159W        W35916  13.641  17.729  12.837
72160W        W35917   3.822  32.116  14.884
72161W        W35918  42.521  16.290  13.521
72162W        W35919   6.809  18.726   2.830
72163W        W35920   9.158  31.924   2.894
72164W        W35921  40.921  39.453   4.349
72165W        W35922   6.797  11.367   4.318
72166W        W35923  30.149  39.890  12.441
72167W        W35924  28.613  22.667   1.924
72168W        W35925   8.380   2.229  14.895
72169W        W35926  25.699  16.802  13.850
72170W        W35927  15.144   0.421   3.317
72171W        W35928   2.871  14.642   0.874
72172W        W35929  28.519  20.756   4.306
72173W        W35930  24.166   3.223   4.128
72174W        W35931  35.004  10.372   5.192
72175W        W35932   8.338  30.421   1.764
72176W        W35933  41.919  17.689   1.393
72177W        W35934   9.782   4.320   2.269
72178W        W35935  13.694   2.381   4.739
72179W        W35936  22.593  26.541  13.400
72180W        W35937  36.860  10.756  13.902
72181W        W35938  25.041   7.853  12.567
72182W        W35939  38.033  26.571  14.791
72183W        W35940   2.836  19.655  12.947
72184W        W35941  43.012  19.170   1.915
72185W        W35942  16.142  40.800   3.780
72186W        W35943   2.836  10.229  13.484
72187W        W35944  39.451  35.465  11.091
72188W        W35945  21.652  39.954  11.543
72189W        W35946  20.742  16.197  13.875
72190W        W35947  30.466  27.600   3.196
72191W        W35948  12.771  38.537  14.031
72192W        W35949  17.227  40.363  11.563
72193W        W35950  16.259  23.196   2.749
72194W        W35951  25.969   2.360  13.878
72195W        W35952   6.232  41.966  14.465
72196W        W35953  26.584  42.370  13.487
72197W        W35954  37.363  24.481  13.800
72198W        W35955  26.054   0.901   0.483
72199W        W35956  39.540  22.093  14.966
72200W        W35957  27.542  10.364   1.243
72201W        W35958  14.738  10.253   0.341
72202W        W35959  35.095  23.036   1.309
72203W        W35960  19.211   0.806   1.898
72204W        W35961  19.699  32.628   2.216
72205W        W35962  10.867  35.499  14.331
72206W        W35963  26.120  20.188  14.981
72207W        W35964   4.943  27.457   2.219
72208W        W35965  26.521  17.656  12.509
72209W        W35966   1.961  39.946  12.412
72210W        W35967  23.200   7.378   0.399
72211W        W35968  36.869  11.655   0.404
72212W        W35969  19.681  33.938  14.006
72213W        W35970  38.391  12.292   3.681
72214W        W35971  40.462  31.931   2.262
72215W        W35972  31.935  43.440  10.618
72216W        W35973  37.054   0.837   1.443
72217W        W35974  21.516  41.006   0.479
72218W        W35975  38.407  32.039   1.381
72219W        W35976  10.326  40.801   3.831
72220W        W35977  21.188  11.847  12.097
72221W        W35978  43.830  16.188  10.449
72222W        W35979  23.172  11.720   4.730
72223W        W35980  31.447  13.836  10.566
72224W        W35981  30.039  28.105   4.718
72225W        W35982   2.967   2.843   2.894
72226W        W35983   6.314   3.253  10.981
72227W        W35984   6.187   2.283  12.897
72228W        W35985  10.186  20.712  11.933
72229W        W35986  22.726   8.329  11.388
72230W        W35987  12.687  38.926  11.007
72231W        W35988  28.456   1.439   4.347
72232W        W35989  44.949   6.227   1.743
72233W        W35990  13.681  35.052   1.369
72234W        W35991  32.971  36.095  11.393
72235W        W35992  29.431  38.028  11.593
72236W        W35993  10.669  28.545   0.357
72237W        W35994  10.676  29.485   4.246
72238W        W35995  24.690  17.072  12.424
72239W        W35996  24.159  17.778   2.900
72240W        W35997   2.876  40.309  13.468
72241W        W35998  10.871  38.003   2.762
72242W        W35999  34.934  38.049   2.825
72243W        W36000   6.327  19.088  11.436
72244W        W36001  32.993  35.416   2.278
72245W        W36002  35.517  37.962   1.227
72246W        W36003  34.609   9.870  10.974
72247W        W36004  21.222  33.380  10.623
72248W        W36005  42.455   0.894   1.753
72249W        W36006  29.438  10.771   3.208
72250W        W36007  13.107  32.492   0.253
72251W        W36008  21.519  25.070  11.580
72252W        W36009  21.617  41.432   4.637
72253W        W36010  38.827  24.217   3.849
72254W        W36011   9.747  20.574  14.332
72255W        W36012  30.650  33.461   3.758
72256W        W36013  28.151  16.269   2.330
72257W        W36014  30.590  44.780   3.326
72258W        W36015  22.061  10.150  10.027
72259W        W36016  43.417  19.754   0.822
72260W        W36017  20.117  40.009  14.887
72261W        W36018   7.330  27.668   2.215
72262W        W36019  40.341  32.400   4.739
72263W        W36020  34.019  17.783  14.368
72264W        W36021   6.849  26.190  14.511
72265W        W36022  42.788  11.171   0.836
72266W        W36023   5.809   1.291  12.923
72267W        W36024  23.550  15.768  11.966
72268W        W36025  27.066  16.246   3.833
72269W        W36026  17.745   3.763   2.732
72270W        W36027  19.563  44.444   2.810
72271W        W36028  40.940  38.960  14.963
72272W        W36029  34.047  22.511   1.219
72273W        W36030  36.900  23.683   2.883
72274W        W36031  34.613  13.621   1.825
72275W        W36032  33.451   7.884  11.517
72276W        W36033  13.264   8.210   1.218
72277W        W36034  21.199  41.402   4.686
72278W        W36035  43.442   6.308   0.368
72279W        W36036  10.856   5.213  11.590
72280W        W36037  27.969  32.445   0.405
72281W        W36038  41.487  30.950   2.713
72282W        W36039  29.071   8.775  14.874
72283W        W36040   4.904  34.981   3.203
72284W        W36041  27.484  22.159   0.473
72285W        W36042  15.185  44.790  13.516
72286W        W36043  41.919  15.248   0.414
72287W        W36044  29.149  29.529  12.927
72288W        W36045  20.050  17.165  12.839
72289W        W36046  25.077  27.963  12.535
72290W        W36047   5.389  26.054   2.186
72291W        W36048   2.438  37.424  14.797
72292W        W36049   7.812  13.131  14.438
72293W        W36050  17.296  40.999   3.163
72294W        W36051  17.220  43.871   9.555
72295W        W36052  32.042   7.234  14.954
72296W        W36053  30.099  31.437   3.249
72297W        W36054   4.849  25.061   9.977
72298W        W36055  18.695  31.954  11.003
72299W        W36056  39.457  26.659  13.909
72300W        W36057  14.191  28.042   1.368
72301W        W36058   1.801  33.505   0.391
72302W        W36059  34.459  16.786  11.078
72303W        W36060   8.809  30.129  13.539
72304W        W36061  31.005  18.281  11.526
72305W        W36062  37.035  21.246  12.476
72306W        W36063  27.086   0.363  11.967
72307W        W36064  17.283  21.177   3.773
72308W        W36065  31.568  15.282   3.687
72309W        W36066  31.981   3.447   0.480
72310W        W36067  25.502  34.452   4.599
72311W        W36068  13.701   9.360   2.744
72312W        W36069  28.040  38.979  10.404
72313W        W36070  17.080  41.028   0.923
72314W        W36071  40.526  13.723   2.741
72315W        W36072  30.921  26.684  11.918
72316W        W36073  37.915  41.297   2.383
72317W        W36074   4.851  32.924  10.443
72318W        W36075  38.009  39.475   2.397
72319W        W36076  40.859  11.649   4.332
72320W        W36077   0.446  20.118   1.805
72321W        W36078  16.670  18.592   4.252
72322W        W36079  21.617  11.725   1.926
72323W        W36080   5.790  13.650   2.869
72324W        W36081  21.164  25.632  13.336
72325W        W36082  38.425  31.427   1.348
72326W        W36083   6.242   0.288   2.750
72327W        W36084  14.657  38.417   2.363
72328W        W36085  24.545  38.986   4.313
72329W        W36086  24.070  34.894   2.695
72330W        W36087  25.477   4.408  14.001
72331W        W36088  33.605   9.794  12.346
72332W        W36089   1.831  42.306   2.411
72333W        W36090  22.059  28.965   2.329
72334W        W36091  40.884  25.184   1.253
72335W        W36092  10.312  10.858  13.521
72336W        W36093  32.934  29.085   4.779
72337W        W36094  42.357  35.568   0.428
72338W        W36095  31.542  31.902  14.359
72339W        W36096  10.271  39.493  12.833
72340W        W36097  21.715  37.832   4.700
72341W        W36098  28.618  23.164   1.211
72342W        W36099  17.233   7.399  11.002
72343W        W36100   1.290  41.793   0.734
72344W        W36101  10.744   1.770  13.445
72345W        W36102  40.389   8.257  12.387
72346W        W36103  35.908  44.287  11.958
72347W        W36104  43.790  38.929   4.298
72348W        W36105   9.206   7.708   0.905
72349W        W36106  15.273  41.441   4.165
72350W        W36107  18.259  41.840  13.980
72351W        W36108  33.013  18.287  13.874
72352W        W36109  44.496   5.764   1.829
72353W        W36110   0.273  33.505  11.908
72354W        W36111  19.138   6.303  14.385
72355W        W36112  38.890   9.225   3.786
72356W        W36113  11.675  43.793   0.924
72357W        W36114  36.932  44.828   4.143
72358W        W36115  19.675  15.785   0.791
72359W        W36116  24.593  21.525   3.189
72360W        W36117  41.529  28.527  13.375
72361W        W36118  21.148   8.670  12.829
72362W        W36119   2.731   7.359  13.807
72363W        W36120   2.810  29.143   2.706
72364W        W36121  28.136  35.877  13.896
72365W        W36122  14.714   5.824   0.800
72366W        W36123   4.745  26.547   4.285
72367W        W36124  18.066  14.309   4.831
72368W        W36125   4.355  16.643  11.948
72369W        W36126  30.588  24.122   4.775
72370W        W36127  35.053   4.425   0.779
72371W        W36128  16.734  38.383   3.833
72372W        W36129  31.036  22.589   4.677
72373W        W36130  37.451  16.681  14.805
72374W        W36131  22.592  27.659  10.151
72375W        W36132  14.609  29.428   3.256
72376W        W36133  44.349  11.308   3.232
72377W        W36134  20.183  12.136  11.387
72378W        W36135  37.985  22.205  13.464
72379W        W36136  29.038  21.716  13.987
72380W        W36137   9.844   1.802  10.914
72381W        W36138  13.650   2.228   2.307
72382W        W36139  20.040  34.905  13.915
72383W        W36140   8.836  26.028  14.962
72384W        W36141  31.547  27.050  13.498
72385W        W36142  43.806  11.711   4.260
72386W        W36143  21.651  37.405  10.452
72387W        W36144  37.031  18.245   3.757
72388W        W36145  12.345   2.744  14.408
72389W        W36146   2.839   5.831  14.334
72390W        W36147  35.979   9.651  12.413
72391W        W36148   5.918   3.852   1.304
72392W        W36149  37.837  19.085  10.953
72393W        W36150  17.670  40.950  13.887
72394W        W36151  43.889   6.787  12.982
72395W        W36152  19.539  30.977   1.793
72396W        W36153  37.840  37.529   2.229
72397W        W36154  24.152  28.161  14.007
72398W        W36155  32.972  13.640  11.058
72399W        W36156  14.233  14.626  14.479
72400W        W36157  33.075  39.036   1.298
72401W        W36158   2.383  12.186   0.751
72402W        W36159   4.699  42.341   2.678
72403W        W36160  43.418  35.377   0.815
72404W        W36161  44.918   2.342  12.840
72405W        W36162   7.188  16.155   4.224
72406W        W36163  21.758  37.413   1.793
72407W        W36164  44.329  30.122   5.128
72408W        W36165  36.932   2.963  13.853
72409W        W36166  20.260  17.579   3.280
72410W        W36167  17.293  44.937   1.231
72411W        W36168  14.185  30.614  13.987
72412W        W36169  37.985  33.104  12.413
72413W        W36170  34.967  39.463  14.996
72414W        W36171  10.273  29.083  11.910
72415W        W36172  34.422   7.284   1.220
72416W        W36173  34.582  11.127  12.842
72417W        W36174   7.394  33.501   0.287
72418W        W36175  29.555  44.276  12.485
72419W        W36176  10.296  20.085   2.404
72420W        W36177  23.020  44.478  11.123
72421W        W36178   4.349  17.178  12.946
72422W        W36179  40.833  39.353  14.432
72423W        W36180  40.899  18.605  13.399
72424W        W36181  10.729  35.514   4.258
72425W        W36182   1.977  21.697   0.460
72426W        W36183  33.957   4.711  11.606
72427W        W36184   4.415  32.475   4.691
72428W        W36185  11.165   4.409  11.123
72429W        W36186  40.544  10.804  10.460
72430W        W36187   1.238  41.042  13.949
72431W        W36188  20.043  32.011   3.705
72432W        W36189   0.400  30.091  13.975
72433W        W36190   7.181  17.284  12.513
72434W        W36191  28.509  11.778   0.266
72435W        W36192   7.231  27.052   3.853
72436W        W36193  44.806  44.431   1.396
72437W        W36194  36.047  34.868   2.716
72438W        W36195  24.123  21.071   0.873
72439W        W36196  42.780   8.851   2.777
72440W        W36197  13.677  36.362  12.534
72441W        W36198  40.809  43.902  11.081
72442W        W36199  18.564  22.653  14.921
72443W        W36200  12.162  11.207   3.298
72444W        W36201   8.318  16.645   1.381
72445W        W36202  32.903  38.460   0.328
72446W        W36203   3.857   5.896  12.889
72447W        W36204  42.430   9.884   4.157
72448W        W36205  27.088  21.528   4.161
72449W        W36206   4.941  27.574   2.685
72450W        W36207  22.242  17.681   3.171
72451W        W36208  36.528  39.994  12.831
72452W        W36209  31.100  26.093  13.312
72453W        W36210  27.183  31.418   3.727
72454W        W36211  24.643  18.683  12.416
72455W        W36212  18.133  28.615  12.545
72456W        W36213  24.998  43.287  14.462
72457W        W36214   4.285   8.352   4.178
72458W        W36215  26.050   7.287   2.234
72459W        W36216  25.580  16.772   1.818
72460W        W36217   9.714  15.189   2.737
72461W        W36218  35.494  40.808   0.477
72462W        W36219  34.040  42.957   1.736
72463W        W36220  40.366  26.562   5.318
72464W        W36221  20.612  23.623  13.944
72465W        W36222  44.488  44.446  10.157
72466W        W36223  10.820   2.460  14.507
72467W        W36224   7.208  39.409   3.843
72468W        W36225   5.835  19.715   3.268
72469W        W36226  24.200  33.567   1.928
72470W        W36227  29.022  30.584   0.776
72471W        W36228  18.257  33.883  10.574
72472W        W36229   6.919   4.290   1.346
72473W        W36230  38.994   7.292   2.353
72474W        W36231  10.858  28.981  12.438
72475W        W36232  14.308  40.502  11.542
72476W        W36233  11.356   7.342  12.460
72477W        W36234  30.065   1.786   1.918
72478W        W36235   5.378  25.132   5.112
72479W        W36236  31.537  21.657   1.400
72480W        W36237  20.177  18.253   3.722
72481W        W36238  26.658  18.166   1.736
72482W        W36239   8.198   5.850  11.425
72483W        W36240   7.682  19.632   1.881
72484W        W36241  32.427  34.102   2.305
72485W        W36242  23.180  29.162   0.840
72486W        W36243  20.600   7.885  14.980
72487W        W36244  12.716  34.574   3.745
72488W        W36245   0.261  21.102   0.304
72489W        W36246  43.991  19.593  10.510
72490W        W36247  21.554   2.399  11.515
72491W        W36248   9.857  44.888   1.326
72492W        W36249   2.750   3.304  10.922
72493W        W36250  10.866  39.537   4.199
72494W        W36251  43.797  11.713  11.409
72495W        W36252  31.550  40.031  12.945
72496W        W36253  23.490  31.970  12.489
72497W        W36254  16.143  16.801   4.831
72498W        W36255  16.238   0.891  14.886
72499W        W36256  43.816  36.027  12.463
72500W        W36257  12.738  15.129  10.523
72501W        W36258  35.436  35.972   1.375
72502W        W36259   6.886  26.016   3.795
72503W        W36260  26.159   0.475  13.333
72504W        W36261  17.660  11.155  14.971
72505W        W36262   0.462   6.684   3.255
72506W        W36263   8.229  24.056   0.761
72507W        W36264   2.816  23.503   2.317
72508W        W36265  15.095  21.680  10.532
72509W        W36266  16.312  28.530  10.443
72510W        W36267  40.461  26.145   1.328
72511W        W36268  42.824   9.383  14.423
72512W        W36269  38.512  12.653  14.863
72513W        W36270  10.844   7.417   3.325
72514W        W36271  10.254  14.132   0.411
72515W        W36272  44.408  21.752  13.465
72516W        W36273  20.674  13.147  14.309
72517W        W36274  16.124  43.768   5.656
72518W        W36275  33.582   7.704  12.986
72519W        W36276  28.440  32.110   4.722
72520W        W36277  39.520   9.801  10.963
72521W        W36278  25.608   4.853   5.087
72522W        W36279  20.594  39.459  14.897
72523W        W36280  25.987  26.997  12.426
72524W        W36281  14.743  26.500   9.976
72525W        W36282  29.164  35.580   1.729
72526W        W36283   6.770  17.061   3.309
72527W        W36284  29.664  13.836  11.915
72528W        W36285   3.307   7.189   4.834
72529W        W36286   5.223  27.060   2.792
72530W        W36287  14.304  30.165   4.266
72531W        W36288  37.434   5.898   1.239
72532W        W36289  23.677  30.533  13.917
72533W        W36290   6.283   1.463  14.785
72534W        W36291   4.358   7.184  12.919
72535W        W36292   0.363  14.158  11.492
72536W        W36293   3.786  12.242   4.788
72537W        W36294  19.116  44.866   3.266
72538W        W36295  42.488  22.014   0.881
72539W        W36296  33.584  21.197   5.284
72540W        W36297   3.872  18.633   1.777
72541W        W36298  38.906  30.467   3.639
72542W        W36299  34.937   6.754   3.290
72543W        W36300  33.617  28.669   1.234
72544W        W36301  12.749  39.978   2.813
72545W        W36302  40.444  13.807   2.407
72546W        W36303  23.083  22.218  11.523
72547W        W36304  19.583  41.302  13.406
72548W        W36305  35.067  29.150   1.320
72549W        W36306   1.261  23.678  13.335
72550W        W36307  28.650  15.209   0.439
72551W        W36308  15.818  25.986   4.254
72552W        W36309  17.791  33.597   1.720
72553W        W36310   4.865  44.437  12.518
72554W        W36311  27.191  32.106   1.830
72555W        W36312  27.639  37.555  11.899
72556W        W36313  35.882  13.616   1.396
72557W        W36314  21.054  25.013  13.036
72558W        W36315  25.212  36.455   1.750
72559W        W36316   1.272  38.879  14.373
72560W        W36317  24.505  18.189  11.440
72561W        W36318  19.734  22.627  13.991
72562W        W36319   5.879  35.377   4.290
72563W        W36320  37.887   4.743  14.884
72564W        W36321   8.741  40.472   3.842
72565W        W36322   1.389  44.880  10.999
72566W        W36323   0.746  44.756  11.522
72567W        W36324  31.915  43.285   2.680
72568W        W36325  20.088  22.006   1.824
72569W        W36326   2.773  12.832   2.196
72570W        W36327  14.238  21.235  12.022
72571W        W36328  24.604  15.258  13.392
72572W        W36329   9.857  38.563   4.622
72573W        W36330  22.587  17.737   0.297
72574W        W36331  19.101  40.932   3.330
72575W        W36332  30.132  37.526   4.327
72576W        W36333  30.574   8.369   4.708
72577W        W36334  39.954  38.328   0.396
72578W        W36335  14.803  14.624   0.892
72579W        W36336  43.318   9.866   3.707
72580W        W36337  16.163  18.652   1.905
72581W        W36338  15.154  29.946   0.320
72582W        W36339   0.965  43.883  12.487
72583W        W36340   6.397  12.653  10.469
72584W        W36341   6.760   4.914  12.432
72585W        W36342  12.662  13.194  12.886
72586W        W36343  24.980  15.592  11.046
72587W        W36344  42.874   9.725   3.301
72588W        W36345  26.669   7.722  10.642
72589W        W36346   4.431  17.256  14.356
72590W        W36347  13.693  29.134   0.285
72591W        W36348  14.656  15.606   2.238
72592W        W36349  41.828  42.348  12.030
72593W        W36350  33.894   6.738   3.359
72594W        W36351   4.941   0.804  13.484
72595W        W36352  10.165  21.110   3.740
72596W        W36353  41.864  41.872   2.291
72597W        W36354  17.729  26.585   3.683
72598W        W36355  13.139  19.164   1.216
72599W        W36356  39.960   7.857   1.725
72600W        W36357  20.034  11.855   1.445
72601W        W36358   2.426  17.069   0.254
72602W        W36359  18.775   7.844  12.936
72603W        W36360  16.147   3.846  13.435
72604W        W36361  28.053  19.152   3.145
72605W        W36362  14.146  39.359   2.276
72606W        W36363  25.556  22.645  14.910
72607W        W36364   9.708  41.373   3.700
72608W        W36365  25.531  38.903  11.106
72609W        W36366   6.759  33.568  14.993
72610W        W36367  14.154   5.803   2.787
72611W        W36368  28.168  34.886   3.802
72612W        W36369  24.509  11.813   2.338
72613W        W36370  31.433  19.153   2.813
72614W        W36371   0.966   1.348   4.226
72615W        W36372  32.445  20.656   2.697
72616W        W36373  29.542  15.168  11.514
72617W        W36374  11.824  31.905   3.322
72618W        W36375   5.219  34.863   0.460
72619W        W36376  34.382  30.511  11.976
72620W        W36377  10.836   1.367   1.446
72621W        W36378  27.599  30.425  13.969
72622W        W36379  37.355  29.098   1.813
72623W        W36380  13.240   7.237  10.594
72624W        W36381  39.970  25.211   3.702
72625W        W36382   1.293  41.455   2.718
72626W        W36383  34.085  26.203  12.007
72627W        W36384  30.432  36.039  11.048
72628W        W36385  40.879   5.884  10.427
72629W        W36386  33.933  35.446   0.464
72630W        W36387  11.131  29.666   0.289
72631W        W36388  28.948  35.091   3.851
72632W        W36389  28.967  15.220  13.966
72633W        W36390  26.953  13.719   2.386
72634W        W36391   8.400  28.676  14.323
72635W        W36392  26.604  38.423  13.896
72636W        W36393  11.356  31.908   3.640
72637W        W36394  21.709  14.666  11.503
72638W        W36395  16.105  13.147  11.991
72639W        W36396  36.486  19.211  10.484
72640W        W36397  36.860   2.414   4.280
72641W        W36398  42.879  36.488   1.750
72642W        W36399  31.995   4.429  13.960
72643W        W36400  31.553  25.579   3.733
72644W        W36401  26.952   8.690   3.632
72645W        W36402  20.755  35.565  11.408
72646W        W36403  12.824  24.130  10.640
72647W        W36404  18.130  16.618  11.600
72648W        W36405  31.941  44.383  11.901
72649W        W36406  39.369  11.199   3.637
72650W        W36407  12.240  13.641   1.834
72651W        W36408  42.786   0.838   3.831
72652W        W36409   0.792  31.087   4.217
72653W        W36410  29.955  23.697  11.024
72654W        W36411   3.449  11.240  14.826
72655W        W36412  29.176  33.958   0.334
72656W        W36413   3.315  10.328  11.996
72657W        W36414   3.264  15.700  12.964
72658W        W36415  14.165   7.862  14.897
72659W        W36416  38.396   7.320   4.303
72660W        W36417   9.379   8.804   1.715
72661W        W36418   0.355  14.227  14.494
72662W        W36419  41.826  32.134   3.684
72663W        W36420  36.022  17.216  13.059
72664W        W36421  29.043  10.643   0.279
72665W        W36422  20.632  18.551  11.020
72666W        W36423  21.691  40.919  14.374
72667W        W36424  40.346  40.361  12.498
72668W        W36425  25.566  38.979  11.916
72669W        W36426  26.109  22.069   2.280
72670W        W36427  37.418   5.251   0.764
72671W        W36428  39.867  36.366   0.835
72672W        W36429  42.789   7.736  13.032
72673W        W36430  32.004  33.540  10.566
72674W        W36431  11.788  34.966   0.440
72675W        W36432  32.403  10.646   1.818
72676W        W36433  43.811  35.979  12.952
72677W        W36434   3.298   6.886  11.494
72678W        W36435  17.616   6.803  13.895
72679W        W36436  30.556   6.886  14.304
72680W        W36437   2.933   3.724  13.817
72681W        W36438  32.917  19.185  14.503
72682W        W36439  39.500  11.357  11.876
72683W        W36440  23.660   6.775   1.736
72684W        W36441  11.801  23.027   0.371
72685W        W36442  11.836   0.351   2.710
72686W        W36443   7.413  27.111  14.988
72687W        W36444  38.362  12.321  13.460
72688W        W36445  28.456  37.342  13.843
72689W        W36446  36.852  16.768   1.884
72690W        W36447  35.378   3.888  10.436
72691W        W36448  20.583  30.437   4.806
72692W        W36449  38.439  42.991  11.543
72693W        W36450  34.977  33.543  10.489
72694W        W36451   8.761   5.323   2.195
72695W        W36452  32.609   1.467  12.457
72696W        W36453  37.542  17.797   1.842
72697W        W36454  23.597  29.173  12.549
72698W        W36455  19.167  34.005  13.427
72699W        W36456  36.399  38.508  13.471
72700W        W36457  16.794  29.470  11.118
72701W        W36458  38.033  39.337  13.469
72702W        W36459  22.625  15.115  13.451
72703W        W36460  36.543  21.102  11.497
72704W        W36461  19.688  28.035   2.788
72705W        W36462  41.926  42.295   3.342
72706W        W36463  26.052  21.036   2.684
72707W        W36464  37.978  20.061   0.943
72708W        W36465  21.243  25.476  12.888
72709W        W36466   3.765  35.363  12.907
72710W        W36467   1.935   0.320   0.906
72711W        W36468  10.221  15.212   5.285
72712W        W36469   6.832  10.320   1.357
72713W        W36470  35.599  42.495  13.019
72714W        W36471  19.072  24.573   3.235
72715W        W36472   5.799  20.573  13.422
72716W        W36473  21.216   6.337   2.787
72717W        W36474  23.722  37.492  14.840
72718W        W36475  35.364  30.123  13.511
72719W        W36476   1.301  39.923  14.277
72720W        W36477  13.115  18.770  12.443
72721W        W36478  31.075  11.656   0.338
72722W        W36479   2.285   8.164   1.829
72723W        W36480  17.791  39.844  12.367
72724W        W36481  18.172   9.848  10.645
72725W        W36482  20.220  23.658  12.463
72726W        W36483  28.989   6.422  10.544
72727W        W36484   8.259  31.092   3.257
72728W        W36485  11.323  16.235   2.279
72729W        W36486  40.840  27.117   3.697
72730W        W36487  41.902  31.012  11.461
72731W        W36488  34.028  10.193   0.820
72732W        W36489  41.467  32.026   0.747
72733W        W36490  25.962  15.305   0.460
72734W        W36491  12.306  43.786   0.245
72735W        W36492  31.023   1.831   3.361
72736W        W36493  21.240   7.848   1.728
72737W        W36494  43.411  24.619   2.794
72738W        W36495  37.987  32.498   1.394
72739W        W36496  32.997  13.715   0.902
72740W        W36497  28.576   0.332   3.770
72741W        W36498  16.099  25.140  10.410
72742W        W36499   8.711  33.624  11.373
72743W        W36500  38.332  10.699  14.481
72744W        W36501  38.866  16.242  11.004
72745W        W36502  33.901  15.647  14.349
72746W        W36503   5.928  36.513  10.920
72747W        W36504   7.886  15.212   1.855
72748W        W36505  33.415  22.007   0.801
72749W        W36506   4.901  18.726   2.711
72750W        W36507  13.131  13.331   4.763
72751W        W36508  33.089  33.980   2.861
72752W        W36509  24.720  16.080  14.022
72753W        W36510  33.039  23.008  14.458
72754W        W36511  19.252   0.420  14.315
72755W        W36512  36.583  30.061  13.521
72756W        W36513  38.440  33.007  14.823
72757W        W36514  29.623  10.370   1.312
72758W        W36515   1.265  11.195  14.938
72759W        W36516  14.104   6.315  11.496
72760W        W36517  41.971   4.285  10.556
72761W        W36518  12.695  13.793  12.495
72762W        W36519  24.986  33.459   3.177
72763W        W36520  32.567  42.937   4.242
72764W        W36521  23.052  29.959  10.938
72765W        W36522  30.060  30.932   3.332
72766W        W36523  35.105  22.688   5.308
72767W        W36524  19.155  41.875   3.669
72768W        W36525  28.976  31.089  11.394
72769W        W36526  27.626  14.224   1.224
72770W        W36527  15.097   8.684   4.668
72771W        W36528   4.753  16.648  13.430
72772W        W36529  34.105  13.154   0.796
72773W        W36530   7.245   9.354  11.393
72774W        W36531  23.604  35.436   9.933
72775W        W36532  17.146  35.063   2.296
72776W        W36533  13.796   9.287  14.845
72777W        W36534   3.306  17.596  14.403
72778W        W36535  20.038   6.262  14.789
72779W        W36536  44.813  26.635   3.294
72780W        W36537  24.066   8.276  13.016
72781W        W36538  40.017   4.827  13.925
72782W        W36539  39.869   3.404   4.796
72783W        W36540  13.323   7.177  13.966
72784W        W36541  44.999  12.212  10.475
72785W        W36542  14.297   4.440  14.925
72786W        W36543  41.802  13.117  11.423
72787W        W36544  35.951  37.484  10.513
72788W        W36545  17.218   5.793   0.414
72789W        W36546  18.790  36.911   3.809
72790W        W36547   0.798  41.443  12.849
72791W        W36548   8.814  31.138  14.808
72792W        W36549   8.172  30.495  14.375
72793W        W36550  26.606  32.131  13.323
72794W        W36551  36.040  27.945   1.439
72795W        W36552   0.769  28.929  13.810
72796W        W36553  35.563  30.637   0.254
72797W        W36554  44.990   9.238   4.623
72798W        W36555  15.324   2.797   2.814
72799W        W36556   6.901  10.770  11.115
72800W        W36557  21.146   2.467  12.487
72801W        W36558  35.391  15.808   2.187
72802W        W36559   6.779   4.837   0.778
72803W        W36560  13.309  26.689   2.771
72804W        W36561  11.777  13.778  12.884
72805W        W36562   3.389  36.484  10.495
72806W        W36563  19.762  38.557   2.874
72807W        W36564  14.297  39.436  10.602
72808W        W36565  36.470   6.249  11.011
72809W        W36566  22.586  10.645  14.953
72810W        W36567   6.222  15.688   2.236
72811W        W36568  25.010  19.690   1.712
72812W        W36569  13.841  30.531   0.358
72813W        W36570  20.216  13.247   4.138
72814W        W36571   5.417  17.280   3.691
72815W        W36572  22.203  23.599  11.595
72816W        W36573   6.713  30.486  11.003
72817W        W36574  44.832  24.032   1.380
72818W        W36575  12.236  24.717  10.551
72819W        W36576  34.942  35.470  14.299
72820W        W36577   2.341   9.296   2.721
72821W        W36578  16.111  34.024   4.615
72822W        W36579  20.134  24.172   1.393
72823W        W36580  38.877  30.162   3.366
72824W        W36581  13.215   4.896  13.507
72825W        W36582  18.157  34.094   3.781
72826W        W36583  22.683  33.500   4.198
72827W        W36584  39.395   8.740  14.823
72828W        W36585  20.542  42.387   1.794
72829W        W36586   4.918  12.354  14.812
72830W        W36587  34.112  40.373   4.614
72831W        W36588  31.438  26.550   0.808
72832W        W36589   6.733  40.532   2.185
72833W        W36590  15.590  40.966   2.323
72834W        W36591  24.151   2.265  14.409
72835W        W36592  18.163  40.332  10.524
72836W        W36593  38.535  20.111   3.723
72837W        W36594  32.090  25.469  12.382
72838W        W36595  16.194  29.070  12.021
72839W        W36596  14.677  26.189   0.937
72840W        W36597   6.294  10.145  12.510
72841W        W36598   8.897  12.655  11.116
72842W        W36599  23.203   6.829  10.976
72843W        W36600  22.222  12.360  11.923
72844W        W36601  27.123  37.845  12.409
72845W        W36602  40.869   0.878  10.556
72846W        W36603  16.708  15.142  12.829
72847W        W36604  10.705  19.115   1.296
72848W        W36605  41.366  36.475  11.925
72849W        W36606  20.629   2.466   0.936
72850W        W36607   3.955  32.589  14.437
72851W        W36608  37.836  16.220   2.701
72852W        W36609  33.105   0.436   1.314
72853W        W36610  23.008   9.379  11.006
72854W        W36611  31.478   4.780  12.396
72855W        W36612  43.497  30.567  12.409
72856W        W36613  43.339  43.434  14.475
72857W        W36614  35.444  13.817   3.727
72858W        W36615  35.376   2.791  13.418
72859W        W36616  15.178  34.506  10.902
72860W        W36617  25.041  19.123  14.363
72861W        W36618  20.703  19.550   1.272
72862W        W36619   5.272  22.577  13.926
72863W        W36620  37.413  17.624   0.779
72864W        W36621  33.103  29.014   3.844
72865W        W36622  13.749  40.398   4.644
72866W        W36623  14.199  12.225   1.250
72867W        W36624   6.393  15.734   1.920
72868W        W36625  22.597  17.612   1.798
72869W        W36626   3.402  21.660   2.693
72870W        W36627  22.040   2.762  10.404
72871W        W36628  35.933  41.039  14.791
72872W        W36629  32.098  37.456  12.471
72873W        W36630  10.821  23.188   1.725
72874W        W36631   6.776   8.709   3.828
72875W        W36632  34.994  42.465  14.316
72876W        W36633  29.499  22.144  13.372
72877W        W36634  12.227  29.656  10.990
72878W        W36635   4.325  42.323   5.568
72879W        W36636  22.699  33.598   3.374
72880W        W36637  43.494  15.669   2.701
72881W        W36638  29.441  29.521  13.971
72882W        W36639  33.970  41.830   3.795
72883W        W36640  38.020  17.759   0.919
72884W        W36641  10.777  40.526   0.258
72885W        W36642  19.734  15.748   3.371
72886W        W36643  38.516  37.566   1.771
72887W        W36644  11.189  29.570   2.204
72888W        W36645  22.125  34.997   5.687
72889W        W36646  24.604  40.366   0.943
72890W        W36647   6.884   3.939  13.011
72891W        W36648  13.201  38.931   3.261
72892W        W36649  17.800   0.795   2.737
72893W        W36650  10.183  40.336  14.826
72894W        W36651  43.781  40.841  13.328
72895W        W36652   1.438   1.806   1.869
72896W        W36653  26.536   7.771  14.891
72897W        W36654   3.927  15.134   1.828
72898W        W36655  27.531  25.042  10.510
72899W        W36656  32.931  17.566   2.400
72900W        W36657  36.409  37.384   5.130
72901W        W36658  28.637  14.334  10.064
72902W        W36659  31.594  17.711   4.335
72903W        W36660  37.922   0.259   4.162
72904W        W36661  30.497  43.410   0.757
72905W        W36662   2.339  17.604  10.627
72906W        W36663  32.611  20.592  14.801
72907W        W36664  17.587  37.566   2.711
72908W        W36665   9.686  42.524   0.350
72909W        W36666  30.461   3.432  14.787
72910W        W36667   0.910   3.818   3.665
72911W        W36668  38.343   9.176   0.783
72912W        W36669  16.076  31.644   3.213
72913W        W36670  10.282  14.800  11.104
72914W        W36671  19.039  43.857   2.296
72915W        W36672  42.353  40.401  11.972
72916W        W36673   5.882  32.633  12.419
72917W        W36674  36.440  13.151   4.740
72918W        W36675  19.545   0.296  14.972
72919W        W36676  35.468  25.141   1.741
72920W        W36677   6.872  20.222  11.455
72921W        W36678  23.227  41.476  13.327
72922W        W36679  25.694   2.892  14.351
72923W        W36680  26.070  31.935   2.791
72924W        W36681  25.583  28.109   1.314
72925W        W36682   8.859   5.258   3.255
72926W        W36683  41.818  19.780   0.822
72927W        W36684  19.111  28.649   4.346
72928W        W36685   6.865  41.833  10.433
72929W        W36686  41.923  10.698   2.181
72930W        W36687  28.573  31.993   0.454
72931W        W36688  36.568   9.369   1.430
72932W        W36689   9.257  37.361   5.184
72933W        W36690  23.544  20.655   0.324
72934W        W36691  31.099   8.735  12.408
72935W        W36692  42.405  31.461   1.908
72936W        W36693  44.938   2.902  10.984
72937W        W36694  13.688  38.911   0.475
72938W        W36695  10.338  23.200   4.165
72939W        W36696  18.731   6.399  10.425
72940W        W36697  26.559   0.447  12.840
72941W        W36698   9.710   8.837   2.279
72942W        W36699  13.763  14.815  12.489
72943W        W36700  20.165  17.789  14.922
72944W        W36701  21.568   7.812  12.356
72945W        W36702  27.097  37.909  13.328
72946W        W36703  22.728  32.117  10.112
72947W        W36704  25.636  44.754   1.747
72948W        W36705   4.305  21.585  10.910
72949W        W36706  22.125  39.927   2.835
72950W        W36707  28.613  35.580  13.541
72951W        W36708  30.950  34.469  10.987
72952W        W36709  19.225  23.562  11.932
72953W        W36710  33.038  31.561  13.369
72954W        W36711  11.687  27.540  10.905
72955W        W36712  41.341  40.328   2.332
72956W        W36713  25.185  26.198  10.952
72957W        W36714  39.433  28.592  14.356
72958W        W36715  27.113  26.642  13.418
72959W        W36716   2.906  37.063   1.903
72960W        W36717  36.057  21.713  10.431
72961W        W36718  31.911  22.058  14.350
72962W        W36719  22.103   5.352  12.572
72963W        W36720  19.614   6.768  14.345
72964W        W36721   2.827  14.773   1.865
72965W        W36722  30.560   6.411   0.415
72966W        W36723   9.730  43.964   4.810
72967W        W36724   6.856  42.807  14.422
72968W        W36725  22.611   0.482  14.991
72969W        W36726   9.188  38.460  10.425
72970W        W36727  28.949  34.114  11.998
72971W        W36728  24.514  26.143  13.042
72972W        W36729  13.288  44.996  11.922
72973W        W36730  31.142   1.438  10.028
72974W        W36731  15.770  27.111  10.583
72975W        W36732  39.001  13.785   3.196
72976W        W36733  30.059  38.983   1.343
72977W        W36734  22.046  21.687   1.427
72978W        W36735  34.487  24.183  13.896
72979W        W36736  11.711   6.841  13.538
72980W        W36737  39.877  15.595   1.727
72981W        W36738  19.069   9.803  12.048
72982W        W36739  27.570  37.347  14.395
72983W        W36740  38.916  36.449   4.158
72984W        W36741  36.900  22.521  10.458
72985W        W36742  41.520   7.742  11.951
72986W        W36743  41.960  21.746  11.890
72987W        W36744  35.371  29.648   3.748
72988W        W36745  10.291  30.626   2.235
72989W        W36746  22.146  10.675   4.129
72990W        W36747   9.877  39.959  14.508
72991W        W36748  23.614   9.722  11.863
72992W        W36749  22.517  34.074  11.040
72993W        W36750  20.758  19.085   1.212
72994W        W36751  33.893   4.358   2.379
72995W        W36752  42.436  23.507   4.280
72996W        W36753  33.928  25.148  11.095
72997W        W36754  17.760   2.359   0.264
72998W        W36755  32.104   6.223   1.929
72999W        W36756  34.908   1.776  13.445
73000W        W36757  28.031  13.830   5.598
73001W        W36758  21.627  19.182   1.302
73002W        W36759  30.090  27.095  14.032
73003W        W36760   7.834  17.206  13.828
73004W        W36761   1.343  42.388   4.794
73005W        W36762  22.719  44.475   3.699
73006W        W36763  21.577  41.824  12.452
73007W        W36764  16.105  23.165   4.694
73008W        W36765  27.981  39.841  12.391
73009W        W36766  24.184  28.480   4.793
73010W        W36767   8.846   8.259   1.424
73011W        W36768  15.707  32.440   0.836
73012W        W36769  21.054  28.488   1.747
73013W        W36770  38.997  32.411  10.954
73014W        W36771  41.856   5.240   1.751
73015W        W36772  16.203  42.424   0.354
73016W        W36773   5.873  40.917  12.567
73017W        W36774  31.114  13.698  11.466
73018W        W36775  43.881  11.866  10.623
73019W        W36776  44.954  40.388   1.328
73020W        W36777   1.262  34.908  11.058
73021W        W36778  26.668  16.795  12.859
73022W        W36779  10.775  10.775   2.833
73023W        W36780  19.217  11.770   2.855
73024W        W36781  17.680  28.482  11.403
73025W        W36782  30.011   8.882   2.203
73026W        W36783  41.002  19.610   4.695
73027W        W36784  15.196  38.330  12.378
73028W        W36785  42.005  31.465  14.945
73029W        W36786  33.541  30.511  14.905
73030W        W36787  19.125  39.340   1.858
73031W        W36788  35.593  42.497   3.666
73032W        W36789   8.869   2.291  13.348
73033W        W36790  29.005  12.632  12.531
73034W        W36791  27.656  27.024  14.394
73035W        W36792  26.089  36.536  12.471
73036W        W36793  14.266  16.196   4.729
73037W        W36794   0.888   5.836  14.512
73038W        W36795  28.532   8.780   4.154
73039W        W36796  41.872   3.896   3.728
73040W        W36797  33.565   8.359  10.141
73041W        W36798  25.682   2.301  14.872
73042W        W36799   3.795  32.466   4.342
73043W        W36800  37.438  44.755   3.738
73044W        W36801  17.624  36.592  14.382
73045W        W36802  38.488   0.762  11.018
73046W        W36803  27.157  41.513  13.857
73047W        W36804  42.451  31.530  12.461
73048W        W36805  20.665  13.313  12.025
73049W        W36806   6.896  25.662   3.672
73050W        W36807   8.258  36.471   0.900
73051W        W36808  42.903  41.807   3.718
73052W        W36809   5.255  27.559  14.775
73053W        W36810  21.710  10.789  14.427
73054W        W36811   3.360  23.502  12.848
73055W        W36812   6.895  22.125   1.874
73056W        W36813  10.762  29.955  13.813
73057W        W36814   3.430  41.998  12.481
73058W        W36815  18.063  30.033   0.334
73059W        W36816  39.385  34.434   4.229
73060W        W36817  29.968  38.009  11.907
73061W        W36818   0.366   9.793  13.429
73062W        W36819  28.500  33.390  11.085
73063W        W36820   9.187  30.478   5.232
73064W        W36821   4.819  42.282   4.603
73065W        W36822  33.975  18.574   0.768
73066W        W36823  22.515  23.704   0.408
73067W        W36824  42.516  21.711  12.371
73068W        W36825   8.730   5.907   3.855
73069W        W36826  44.967  33.475  11.873
73070W        W36827  37.928  13.786   4.717
73071W        W36828  38.550   9.230  12.563
73072W        W36829   9.681  20.210  14.482
73073W        W36830   4.416  27.528   1.738
73074W        W36831  43.487  19.590   3.369
73075W        W36832   6.210  40.919   0.843
73076W        W36833   9.828  39.982  10.501
73077W        W36834  28.517  22.714   3.631
73078W        W36835  26.118  25.137   1.331
73079W        W36836   3.916  28.994  14.928
73080W        W36837  34.557   3.910  13.383
73081W        W36838  32.089  32.538   1.220
73082W        W36839   3.305   9.864   3.266
73083W        W36840   7.199  36.417   0.444
73084W        W36841  37.841  33.031  10.542
73085W        W36842  26.171  24.625   5.304
73086W        W36843  40.980  13.648   1.896
73087W        W36844  29.582  11.162   3.749
73088W        W36845  14.778  16.151  14.330
73089W        W36846  15.289  31.904   1.795
73090W        W36847  22.101  27.641  14.870
73091W        W36848  16.596   3.445  12.554
73092W        W36849  20.104  20.757   4.609
73093W        W36850  23.039   2.836   4.742
73094W        W36851  12.125  27.182  13.399
73095W        W36852  31.443  41.822   1.797
73096W        W36853  14.593  39.358  13.810
73097W        W36854  23.089  41.494  12.460
73098W        W36855  37.354  14.294  11.429
73099W        W36856  39.842  22.128  13.315
73100W        W36857  42.285  26.035  11.015
73101W        W36858  21.111  37.880  13.043
73102W        W36859   7.892  25.661  10.902
73103W        W36860  30.028  11.796  11.084
73104W        W36861  27.159  21.196  10.634
73105W        W36862  34.416  12.722   3.268
73106W        W36863  12.301  10.303   0.786
73107W        W36864  21.073  18.155   4.710
73108W        W36865  23.189  40.958   0.932
73109W        W36866   5.396  13.601   0.375
73110W        W36867  14.211  18.076  10.528
73111W        W36868  14.288  17.784   0.288
73112W        W36869   2.378   0.763   2.847
73113W        W36870  16.147  18.158   0.317
73114W        W36871  22.600  14.215   4.295
73115W        W36872  26.114  16.569  11.895
73116W        W36873  41.330  33.042  13.467
73117W        W36874  20.665  26.506   5.130
73118W        W36875   6.301  37.350   1.385
73119W        W36876  22.703  10.778   3.699
73120W        W36877  27.552  37.565   0.911
73121W        W36878  22.588   5.851  10.932
73122W        W36879  10.673  22.995   3.353
73123W        W36880  37.426   2.370  14.812
73124W        W36881  14.123  38.479  13.863
73125W        W36882   3.868  20.037   1.801
73126W        W36883  20.159  27.523   1.863
73127W        W36884   4.283  42.388  12.460
73128W        W36885  25.656  15.764  12.405
73129W        W36886  42.011  34.914  10.631
73130W        W36887  14.816   1.851   2.762
73131W        W36888  16.182  20.579  11.523
73132W        W36889  29.014  43.395   0.315
73133W        W36890  23.022  10.680   1.894
73134W        W36891  23.031  31.512   1.712
73135W        W36892  16.075  30.460  13.858
73136W        W36893  34.116  37.898   0.433
73137W        W36894  32.068  33.448   4.339
73138W        W36895  32.092  13.742  14.462
73139W        W36896  33.077   3.827  14.787
73140W        W36897  26.176  43.005  14.433
73141W        W36898  16.146  30.082   3.806
73142W        W36899   6.868  24.086  11.372
73143W        W36900   1.944  19.561   3.774
73144W        W36901  42.345   9.707   0.848
73145W        W36902  23.060  32.431   2.758
73146W        W36903  10.310  28.168  14.362
73147W        W36904  42.913  20.616   9.936
73148W        W36905  43.316   8.212  14.992
73149W        W36906  18.570  36.022   0.891
73150W        W36907  30.982  43.822   1.881
73151W        W36908  39.943  42.879   1.885
73152W        W36909  34.018  10.830  10.625
73153W        W36910  13.799  30.924   4.232
73154W        W36911   1.410  12.718   3.637
73155W        W36912  42.836  26.623   2.826
73156W        W36913  29.425  38.502  11.068
73157W        W36914  26.496  39.863   0.449
73158W        W36915  37.475  30.524   2.881
73159W        W36916  29.927   7.389  14.799
73160W        W36917  13.187  10.303  11.389
73161W        W36918  13.235  17.099  14.460
73162W        W36919  37.941  37.923   2.734
73163W        W36920  24.124  43.314   2.726
73164W        W36921  16.315  37.350   4.634
73165W        W36922  42.314  21.640   3.217
73166W        W36923  39.036  24.704  13.921
73167W        W36924  20.091   1.871   3.180
73168W        W36925   9.752  28.583   2.860
73169W        W36926  21.183   1.469   4.816
73170W        W36927  20.271  37.021   4.722
73171W        W36928  39.388  25.630   2.667
73172W        W36929   2.935  16.698   3.832
73173W        W36930  34.462  22.626   3.334
73174W        W36931  25.540   4.353   0.940
73175W        W36932  39.400  15.255  12.898
73176W        W36933  13.609  41.855  12.069
73177W        W36934  26.657  35.046  11.897
73178W        W36935  40.547  24.626  12.363
73179W        W36936  31.980   5.907  12.561
73180W        W36937  17.265  28.062  11.463
73181W        W36938  19.587  18.076  14.775
73182W        W36939  28.120   5.344   1.444
73183W        W36940   4.382  40.864  12.524
73184W        W36941  23.607  36.844   2.746
73185W        W36942   6.360  22.712  13.483
73186W        W36943  23.706  44.286  14.951
73187W        W36944  31.594  24.687   0.333
73188W        W36945   2.843  40.364   1.776
73189W        W36946  33.445  28.974   0.797
73190W        W36947   4.392  29.030  11.524
73191W        W36948  24.135   9.881  13.411
73192W        W36949  43.439  38.397  13.884
73193W        W36950   7.807  42.989  11.451
73194W        W36951  44.009  24.230  12.403
73195W        W36952  42.806  24.221   0.356
73196W        W36953  40.803  17.226   4.139
73197W        W36954  10.673  14.638   3.638
73198W        W36955   1.296  27.507   0.824
73199W        W36956  41.019  26.046   4.775
73200W        W36957  31.447  43.939   0.256
73201W        W36958   8.374   8.360   3.348
73202W        W36959  20.114  22.565   2.763
73203W        W36960  11.831  37.959  13.832
73204W        W36961  27.963   6.359  13.455
73205W        W36962  10.309  30.998   2.818
73206W        W36963  39.507  39.450  14.502
73207W        W36964  42.028  15.711  12.870
73208W        W36965   5.439  37.554   0.901
73209W        W36966   3.719  28.002   0.430
73210W        W36967  43.972  22.148  11.064
73211W        W36968  17.070  17.176   1.741
73212W        W36969  37.940  26.687   3.285
73213W        W36970   4.938   6.711  14.427
73214W        W36971  43.787  17.106   2.227
73215W        W36972  37.863   6.736  11.485
73216W        W36973   7.178   0.925   1.397
73217W        W36974  29.560  18.699  12.416
73218W        W36975  17.665   8.677   3.684
73219W        W36976  25.512  27.461   0.941
73220W        W36977  19.688   3.867   0.795
73221W        W36978  19.593  36.997   0.448
73222W        W36979   4.867  21.622   1.409
73223W        W36980  26.198  13.210   2.230
73224W        W36981  38.470  38.448   4.275
73225W        W36982  23.538   8.298  14.920
73226W        W36983   8.660  16.225  12.071
73227W        W36984   2.390  31.445   1.281
73228W        W36985  23.602  26.659  13.431
73229W        W36986   2.748  16.202   4.704
73230W        W36987   5.373  12.666  13.942
73231W        W36988  35.552   9.389   2.309
73232W        W36989  17.184  29.498   1.773
73233W        W36990  29.468  12.175  11.914
73234W        W36991  31.429  42.485   2.790
73235W        W36992  23.173  27.624   4.801
73236W        W36993   0.926  39.846   4.142
73237W        W36994  33.610  43.843  10.467
73238W        W36995  34.039  29.061   4.759
73239W        W36996  25.713  44.492  14.351
73240W        W36997  15.237  28.602  12.964
73241W        W36998  40.422  34.886  10.406
73242W        W36999  32.020  30.923  12.886
73243W        W37000  26.983  31.020   2.360
73244W        W37001  19.235  25.612  14.938
73245W        W37002  12.814  26.195  11.545
73246W        W37003  32.410   4.203   3.745
73247W        W37004   0.918  26.178  12.469
73248W        W37005  21.060   4.802  13.314
73249W        W37006  19.624  12.666  10.960
73250W        W37007  36.962  22.738   2.781
73251W        W37008  43.274  16.568   0.726
73252W        W37009  20.259  16.162   0.741
73253W        W37010  18.580  18.724   5.214
73254W        W37011  11.308  25.092   2.344
73255W        W37012  16.120  42.964  10.511
73256W        W37013  21.757   5.337  11.949
73257W        W37014  33.472  35.441  11.884
73258W        W37015  18.277  32.046   0.884
73259W        W37016  10.291  18.243   2.868
73260W        W37017   4.783  11.809   4.171
73261W        W37018  38.881  20.226  10.979
73262W        W37019  28.637  16.318   0.318
73263W        W37020   6.412  39.001   5.312
73264W        W37021  24.519   2.866   0.330
73265W        W37022  41.963  37.416  13.891
73266W        W37023  24.166  32.399   4.121
73267W        W37024   5.726  35.577   4.691
73268W        W37025  16.638   4.223   2.385
73269W        W37026  28.447  34.121   1.707
73270W        W37027  26.114  38.961  10.427
73271W        W37028  20.656  33.987  14.362
73272W        W37029  42.903  25.050   1.448
73273W        W37030  28.503  39.356   0.309
73274W        W37031  12.225  11.146   1.431
73275W        W37032   3.785  26.055   2.271
73276W        W37033   1.830  14.214   2.896
73277W        W37034   7.286  15.702   2.669
73278W        W37035  34.611  24.698   2.337
73279W        W37036  17.139  42.318  12.484
73280W        W37037   6.727  11.248   0.243
73281W        W37038   5.293   2.820  14.911
73282W        W37039   3.249  32.456  12.473
73283W        W37040  28.534  14.762  11.984
73284W        W37041  32.921  16.295  10.482
73285W        W37042  41.445  36.446   4.616
73286W        W37043  17.560   5.698  13.044
73287W        W37044   8.383  18.621   0.800
73288W        W37045   5.204   1.276  11.899
73289W        W37046  41.483  14.731  12.444
73290W        W37047  35.454  29.066   4.137
73291W        W37048   2.388   9.183  11.512
73292W        W37049  33.466  25.191  13.391
73293W        W37050  29.448  24.078  11.037
73294W        W37051  35.931   0.263   5.140
73295W        W37052  11.795  27.969  14.976
73296W        W37053   4.846   9.676  13.344
73297W        W37054   6.723   3.403  10.586
73298W        W37055  14.741   1.347   1.909
73299W        W37056  19.121  38.001  14.372
73300W        W37057  20.565  18.763  11.491
73301W        W37058  38.433  30.032  13.893
73302W        W37059  38.074  15.131   4.658
73303W        W37060  27.618  13.175   0.786
73304W        W37061   6.397   6.324  14.793
73305W        W37062  33.120  30.538   0.734
73306W        W37063   9.149  43.305   2.769
73307W        W37064  19.165   8.868  12.997
73308W        W37065  22.641  19.709   1.219
73309W        W37066  26.154  19.626   3.677
73310W        W37067  36.506  22.109  14.956
73311W        W37068  28.116   3.930  14.451
73312W        W37069   2.261   5.746  13.476
73313W        W37070   6.728  43.457  12.029
73314W        W37071  18.268   4.942  10.979
73315W        W37072  13.257  23.060   1.365
73316W        W37073  16.792  40.863   1.431
73317W        W37074  16.297  19.699  14.928
73318W        W37075   1.848  44.896  11.029
73319W        W37076  20.136  26.102  11.946
73320W        W37077  22.705  13.718  12.024
73321W        W37078  18.287  39.326   0.270
73322W        W37079   8.795  28.125  12.438
73323W        W37080   2.822   9.728   4.664
73324W        W37081  20.051   1.847  14.009
73325W        W37082  43.926  37.088  14.026
73326W        W37083  10.363   6.686   3.234
73327W        W37084  13.600  31.515  14.770
73328W        W37085  19.084  32.133  13.319
73329W        W37086  42.364   3.216  12.375
73330W        W37087  44.279  41.982  13.457
73331W        W37088  41.467  18.758   4.665
73332W        W37089  20.584  30.005   3.246
73333W        W37090  28.618  10.258  11.536
73334W        W37091  29.432  12.302  13.456
73335W        W37092   6.324  42.928   2.284
73336W        W37093  26.607  29.578   4.767
73337W        W37094   9.730  29.631  13.499
73338W        W37095  15.235   1.263   3.192
73339W        W37096  10.789  28.553  10.435
73340W        W37097   9.244   0.359  11.455
73341W        W37098  31.559   0.777  10.528
73342W        W37099  27.179  11.695   1.223
73343W        W37100  26.543  44.859   4.673
73344W        W37101   7.289  23.223   1.784
73345W        W37102  26.200  27.632   1.360
73346W        W37103   2.325  14.140  13.878
73347W        W37104  15.818   7.331  12.450
73348W        W37105   5.215  24.590   1.333
73349W        W37106  15.686   6.869  12.985
73350W        W37107  24.209   7.866  11.866
73351W        W37108  20.252  14.256   3.200
73352W        W37109   0.963  36.581   3.846
73353W        W37110  43.466  15.692   4.265
73354W        W37111  12.651  16.240   1.759
73355W        W37112  33.493   2.414  10.528
73356W        W37113  26.691  20.272  11.478
73357W        W37114  40.468  38.009   3.221
73358W        W37115   2.379   5.932   3.382
73359W        W37116  24.561  27.102   2.339
73360W        W37117  11.639  25.139   0.917
73361W        W37118  16.773  36.441  11.389
73362W        W37119   0.781  43.781   1.718
73363W        W37120   4.741  23.627   5.087
73364W        W37121  11.371   6.850  11.955
73365W        W37122  37.543  14.779  13.483
73366W        W37123  20.242   1.972  14.922
73367W        W37124  10.819  25.499  13.815
73368W        W37125  18.140  11.669   3.850
73369W        W37126  16.181  36.048   4.178
73370W        W37127  32.595  36.099  11.581
73371W        W37128  11.227  19.601  12.922
73372W        W37129  44.408  40.886  14.823
73373W        W37130   5.881  28.093  12.836
73374W        W37131  15.258   9.663   4.728
73375W        W37132   2.436   9.282   4.224
73376W        W37133  38.854  24.481   2.372
73377W        W37134   9.253   3.251   5.099
73378W        W37135  26.460  28.553  14.795
73379W        W37136  15.672  23.704  10.027
73380W        W37137  31.902  18.754   4.696
73381W        W37138   6.285   0.435  13.422
73382W        W37139  30.566   1.864   9.628
73383W        W37140  35.873  24.700  11.610
73384W        W37141  37.556  20.624  14.355
73385W        W37142   6.272  39.889   3.865
73386W        W37143  30.073   9.297  13.536
73387W        W37144  43.858  18.650   3.304
73388W        W37145  19.749  14.733   3.702
73389W        W37146  31.416  24.127   1.246
73390W        W37147  27.968  17.609   2.267
73391W        W37148  43.424  42.858  11.941
73392W        W37149  11.683   2.356   2.725
73393W        W37150  16.659  44.387   0.732
73394W        W37151  27.056  39.544   3.773
73395W        W37152  35.870  35.383   1.292
73396W        W37153  17.133  38.559   3.671
73397W        W37154   5.356  26.624   3.759
73398W        W37155  40.889  26.574  10.617
73399W        W37156  26.523  33.586   3.307
73400W        W37157  38.535  42.419   0.913
73401W        W37158  42.460  31.069  13.896
73402W        W37159  31.984  21.114  11.042
73403W        W37160   7.891  25.183  11.950
73404W        W37161  10.154  13.790   3.757
73405W        W37162  33.408  28.576   3.699
73406W        W37163  39.013  41.967   3.722
73407W        W37164  20.577   8.366  12.523
73408W        W37165  30.551   3.954  12.393
73409W        W37166  21.021  22.647   2.873
73410W        W37167  40.842  30.476  11.608
73411W        W37168  35.059  19.124   0.330
73412W        W37169  31.611  37.060   2.265
73413W        W37170   8.690  41.356  14.494
73414W        W37171  24.087  13.316  10.429
73415W        W37172  16.748  26.960  11.079
73416W        W37173  18.060  13.785   2.399
73417W        W37174  17.182  11.252   1.356
73418W        W37175  15.733  31.639   4.784
73419W        W37176  18.085  25.560   2.383
73420W        W37177  35.440  16.143  12.924
73421W        W37178   5.763  42.022  11.372
73422W        W37179   2.357   1.428  10.574
73423W        W37180  21.113  19.177   3.749
73424W        W37181  39.915  14.107   3.854
73425W        W37182  20.145  29.977  13.472
73426W        W37183   9.175  39.904   1.449
73427W        W37184   6.343  35.553  14.314
73428W        W37185  29.556   9.304   2.733
73429W        W37186  11.822  20.070   0.754
73430W        W37187  32.535  29.143   2.672
73431W        W37188   4.937  42.292   5.098
73432W        W37189  28.115   7.243   0.390
73433W        W37190  41.019  31.061  12.863
73434W        W37191   5.895  43.432  13.439
73435W        W37192  30.415  32.430  10.906
73436W        W37193  24.993  33.590  13.992
73437W        W37194  37.958   8.251   1.899
73438W        W37195   0.972  44.889  14.765
73439W        W37196   3.732   2.461  11.007
73440W        W37197  13.271  13.194  13.943
73441W        W37198  34.520  25.033   3.870
73442W        W37199  11.260  44.988   4.145
73443W        W37200  25.618  30.459   2.295
73444W        W37201  30.587  20.135  12.481
73445W        W37202   2.897  33.524   0.821
73446W        W37203  33.588  30.514   4.243
73447W        W37204  34.420  11.833   1.400
73448W        W37205  41.391  15.087  11.511
73449W        W37206   5.727  25.213   3.312
73450W        W37207  30.105  19.616  13.967
73451W        W37208   9.151  19.703  11.883
73452W        W37209   9.363  31.521   3.789
73453W        W37210  39.336   3.822  14.410
73454W        W37211  14.628  13.842  11.949
73455W        W37212   3.887  23.545  13.830
73456W        W37213  17.703  43.780   1.374
73457W        W37214  18.050  22.620  14.794
73458W        W37215  31.054  32.631  13.038
73459W        W37216  18.260   9.319  14.847
73460W        W37217  36.988  30.599   1.223
73461W        W37218  39.837  21.191   3.646
73462W        W37219   5.286  27.154  14.288
73463W        W37220  33.473  35.362  14.817
73464W        W37221  33.982   4.282   1.802
73465W        W37222  31.956  30.532  10.623
73466W        W37223  42.001  12.336   0.782
73467W        W37224   9.269  32.948   4.641
73468W        W37225   5.224  29.664  13.882
73469W        W37226  42.793  16.231  12.372
73470W        W37227  34.524  22.060   4.274
73471W        W37228   3.716  30.056  14.953
73472W        W37229   0.973   1.929   9.924
73473W        W37230  10.211  12.838  11.861
73474W        W37231   8.794  41.878  11.452
73475W        W37232  10.294  15.697  14.277
73476W        W37233  19.601  41.041  12.941
73477W        W37234  41.317  15.191   1.768
73478W        W37235   9.847  34.462   0.466
73479W        W37236   9.225   1.322   2.202
73480W        W37237   4.734   1.806   1.849
73481W        W37238   4.353  22.710   0.788
73482W        W37239  22.653  17.166   4.657
73483W        W37240  12.316  18.122   4.647
73484W        W37241   8.236  25.166   4.139
73485W        W37242   8.358   4.218  13.336
73486W        W37243   6.391  40.476  10.938
73487W        W37244  42.314  34.568  12.918
73488W        W37245  12.712  42.412  14.457
73489W        W37246  11.776  19.731  10.601
73490W        W37247  20.034  16.114  11.491
73491W        W37248  39.342  32.518  13.815
73492W        W37249  25.066  24.199  14.409
73493W        W37250   5.240  11.687  11.049
73494W        W37251  35.367  37.069   1.894
73495W        W37252   4.844  24.616   1.814
73496W        W37253  17.241  37.000   1.865
73497W        W37254   0.445  19.065   2.796
73498W        W37255  35.034  18.601  12.059
73499W        W37256  18.663   5.858  10.934
73500W        W37257   6.680  15.612  14.342
73501W        W37258  39.483  25.589   2.409
73502W        W37259  17.707  41.460  12.347
73503W        W37260  26.193  25.123   1.917
73504W        W37261  24.161  44.409  14.801
73505W        W37262   3.371  11.795  10.569
73506W        W37263  26.579  33.999  14.929
73507W        W37264  17.571  37.546  10.118
73508W        W37265  42.017  30.141   4.119
73509W        W37266  36.972  30.502  12.027
73510W        W37267  31.121  12.119   4.768
73511W        W37268  15.639  43.404  12.526
73512W        W37269   4.449   4.786  13.055
73513W        W37270  30.565  12.319   0.360
73514W        W37271  44.969  25.476  13.890
73515W        W37272  11.231  16.630   4.201
73516W        W37273  10.815  34.112  14.408
73517W        W37274  42.338  18.073   4.828
73518W        W37275  23.699  22.609   4.818
73519W        W37276  13.687  41.850   0.856
73520W        W37277  27.994  18.749   1.369
73521W        W37278  13.234  43.995   4.265
73522W        W37279  29.588  16.747  14.442
73523W        W37280  38.511  18.093   4.784
73524W        W37281  16.607  14.125   1.341
73525W        W37282   1.774  41.524  14.889
73526W        W37283   9.698  20.638  12.903
73527W        W37284  28.500  20.176   2.810
73528W        W37285  16.699  10.751  14.379
73529W        W37286  11.777  34.018  12.559
73530W        W37287  22.180  39.936   4.309
73531W        W37288  19.213  22.711  14.840
73532W        W37289  24.557  19.232   0.894
73533W        W37290  40.843  14.306   3.847
73534W        W37291  42.976  28.021   4.247
73535W        W37292  43.901   2.461  14.449
73536W        W37293  21.643   3.793   3.863
73537W        W37294  12.778  29.655  13.940
73538W        W37295  20.056  35.064  14.903
73539W        W37296  20.525  36.918   2.679
73540W        W37297  26.644  11.288   3.254
73541W        W37298  24.482  11.676  12.824
73542W        W37299  31.998  13.249  11.969
73543W        W37300  34.522  37.553  10.538
73544W        W37301  30.582  32.463  10.638
73545W        W37302  19.775   5.437  10.574
73546W        W37303   3.786  10.779  11.933
73547W        W37304   0.889  30.497  13.484
73548W        W37305  39.375   2.402  11.901
73549W        W37306  43.395   0.765  13.375
73550W        W37307   7.865  28.070   1.895
73551W        W37308   4.217   3.793   1.744
73552W        W37309  24.626  37.833   2.789
73553W        W37310  14.622  11.367   0.409
73554W        W37311  27.524  27.022  14.905
73555W        W37312  23.159  19.202  13.524
73556W        W37313   5.764  22.591   1.274
73557W        W37314  11.294  27.131   0.865
73558W        W37315  28.489  36.578   4.677
73559W        W37316   6.795   9.859  10.495
73560W        W37317   5.351   6.337   3.323
73561W        W37318  24.586  37.339   0.245
73562W        W37319  18.192   2.344  12.576
73563W        W37320   1.477   5.869   1.729
73564W        W37321  18.684  28.440   0.326
73565W        W37322   9.682  39.375  10.477
73566W        W37323  41.520   2.437   5.262
73567W        W37324  37.341  36.924   4.684
73568W        W37325  25.117   5.748  14.304
73569W        W37326  13.678  30.519  11.079
73570W        W37327  34.082   3.942   1.750
73571W        W37328  16.197  25.605   0.910
73572W        W37329   4.358  25.706  13.802
73573W        W37330  25.988   9.178  12.409
73574W        W37331  20.657  20.121  14.374
73575W        W37332  16.688  25.474   2.890
73576W        W37333  26.073  45.000   0.359
73577W        W37334  26.024  10.245   3.343
73578W        W37335   2.932   1.877  11.058
73579W        W37336  13.689  38.332   1.313
73580W        W37337  18.162  33.546   2.377
73581W        W37338  24.595  14.197   4.740
73582W        W37339  19.614  22.096   2.708
73583W        W37340  31.621   4.279  10.415
73584W        W37341  43.317  26.133  14.027
73585W        W37342  23.631   5.199  11.399
73586W        W37343  23.554  15.670   0.310
73587W        W37344  42.851  13.188   5.307
73588W        W37345  43.355  14.702  13.903
73589W        W37346  39.511  33.567  11.567
73590W        W37347   6.216   5.898   1.716
73591W        W37348  33.967  32.888   1.354
73592W        W37349  33.540  29.037   2.801
73593W        W37350  13.256  21.204   0.780
73594W        W37351  31.589  24.562   2.304
73595W        W37352  11.346   9.750  11.105
73596W        W37353  29.479  14.653   5.249
73597W        W37354  38.862  23.537   3.260
73598W        W37355  10.233  23.224   2.332
73599W        W37356  18.720  29.922   4.705
73600W        W37357  21.224  33.538   4.635
73601W        W37358   4.845  28.561   0.836
73602W        W37359   3.853  43.466   4.671
73603W        W37360   9.716  26.478   1.862
73604W        W37361  40.022  44.907  12.518
73605W        W37362  17.212  15.628   1.744
73606W        W37363  21.158  28.110  12.449
73607W        W37364  35.969  37.441   3.230
73608W        W37365  19.609  31.603  14.982
73609W        W37366  19.195  23.601   4.713
73610W        W37367  29.998   8.798   0.957
73611W        W37368  32.141   9.165   3.147
73612W        W37369  10.695  20.525  12.070
73613W        W37370  38.343   2.415  14.352
73614W        W37371  15.759  44.866   0.377
73615W        W37372  22.998  39.341  11.393
73616W        W37373  30.601  34.046  11.958
73617W        W37374  25.598  22.594  11.011
73618W        W37375   8.201  17.142   4.612
73619W        W37376  42.526  33.980  13.932
73620W        W37377  30.632  31.639  10.898
73621W        W37378  26.658  30.532  13.349
73622W        W37379  43.938  40.491   3.816
73623W        W37380   6.356   4.357  11.434
73624W        W37381  21.060  42.453  11.983
73625W        W37382  19.130  23.147   0.895
73626W        W37383   9.747  18.157   3.290
73627W        W37384  41.424  24.114   2.884
73628W        W37385  35.026   7.222  14.438
73629W        W37386   3.303  11.358   1.890
73630W        W37387  18.647  41.022   1.865
73631W        W37388   6.915  21.214   4.828
73632W        W37389   9.244  27.502   2.885
73633W        W37390   0.894  33.430   4.809
73634W        W37391  21.715  41.333  10.510
73635W        W37392  29.088  20.187  14.361
73636W        W37393  29.593  23.069  10.996
73637W        W37394  44.883   8.757   3.825
73638W        W37395  12.254   2.368  11.120
73639W        W37396   8.360  28.677  10.498
73640W        W37397  33.445   4.703   3.347
73641W        W37398  11.305  36.490   4.767
73642W        W37399   0.824  38.381   2.847
73643W        W37400  12.355   5.295   4.798
73644W        W37401  23.717   2.748  12.954
73645W        W37402  40.880   9.366   4.334
73646W        W37403  31.922  28.632  10.970
73647W        W37404   4.395  25.591  14.922
73648W        W37405   9.744  33.047   2.313
73649W        W37406  26.686  34.442   0.888
73650W        W37407  10.778  24.996  10.535
73651W        W37408   6.774  22.041   1.275
73652W        W37409  10.277  34.451   2.293
73653W        W37410  37.535  18.713  11.610
73654W        W37411  30.159  35.517  12.507
73655W        W37412  15.774  33.099  14.941
73656W        W37413   6.237  33.120  13.804
73657W        W37414  34.540  21.587   4.195
73658W        W37415  21.158   0.850   4.771
73659W        W37416  35.595  31.408  11.108
73660W        W37417  43.877   1.822   1.403
73661W        W37418  13.683  13.204  12.900
73662W        W37419  14.244   1.309   2.784
73663W        W37420  24.143  35.958   4.239
73664W        W37421  36.988  39.507  14.941
73665W        W37422   8.689  28.135  13.458
73666W        W37423  16.620  21.038   4.724
73667W        W37424   5.897  17.781  11.090
73668W        W37425  12.314  30.650   2.824
73669W        W37426  12.639  24.104  14.481
73670W        W37427   9.184  37.504   3.272
73671W        W37428  22.108  41.028  13.545
73672W        W37429  40.814  10.369   3.696
73673W        W37430   5.340  17.298   5.268
73674W        W37431  12.707   8.895  13.508
73675W        W37432  40.881  41.407  10.588
73676W        W37433  33.884  38.569   1.779
73677W        W37434  22.165  25.669  14.458
73678W        W37435   4.856   0.485   1.792
73679W        W37436   5.893  13.310   1.388
73680W        W37437  17.216  40.413  10.446
73681W        W37438  28.575  25.999  13.880
73682W        W37439  19.750  22.632   4.177
73683W        W37440   9.190  20.244   5.760
73684W        W37441  33.510   9.260  13.318
73685W        W37442  39.974  30.472   4.691
73686W        W37443  37.431  38.532   3.650
73687W        W37444  30.500  36.437   1.260
73688W        W37445  20.736  44.382  14.893
73689W        W37446  10.747   5.926  11.601
73690W        W37447  44.964  34.521   2.325
73691W        W37448  41.358   2.789   4.311
73692W        W37449  29.058  42.020  11.449
73693W        W37450  36.025   2.859   2.264
73694W        W37451  33.621  40.861   3.658
73695W        W37452   9.320   3.788  13.367
73696W        W37453   7.345  32.618   4.672
73697W        W37454  31.903  12.708   2.254
73698W        W37455  10.301  11.153   2.315
73699W        W37456  23.156   8.794  10.546
73700W        W37457  13.714  11.701   0.446
73701W        W37458   2.777  22.136   0.912
73702W        W37459  30.967  30.602   3.175
73703W        W37460  36.545  21.230   2.261
73704W        W37461  12.795  31.141  13.308
73705W        W37462  11.759  40.395  11.502
73706W        W37463  37.430  24.156   4.742
73707W        W37464  15.810  28.935   2.894
73708W        W37465  35.593  41.893  10.474
73709W        W37466  10.759  10.293  10.599
73710W        W37467  39.450   5.399  13.820
73711W        W37468  12.121   0.869   3.785
73712W        W37469  11.799  28.100   4.301
73713W        W37470   3.375  12.799   2.381
73714W        W37471  29.159   2.953   1.392
73715W        W37472   8.374  22.712   1.302
73716W        W37473  41.298  21.632   4.325
73717W        W37474  41.471  44.802   1.353
73718W        W37475  38.539  11.687  14.809
73719W        W37476  37.472  36.418   2.889
73720W        W37477  44.913  25.995   3.649
73721W        W37478  43.459  29.556  14.985
73722W        W37479   8.401   1.779   4.730
73723W        W37480  15.818  32.958   3.830
73724W        W37481   0.876  16.666   2.751
73725W        W37482  23.655  43.817  12.366
73726W        W37483   8.264   1.461  13.453
73727W        W37484  41.367  40.355   4.782
73728W        W37485  16.783  11.330  13.381
73729W        W37486  22.737  36.394  13.502
73730W        W37487   7.398   2.894  14.876
73731W        W37488   5.210  37.061   2.251
73732W        W37489  16.101   9.311  11.026
73733W        W37490  29.481  22.501   3.194
73734W        W37491  26.515   6.285   3.829
73735W        W37492   8.395  14.181   0.248
73736W        W37493  16.198  17.608   2.202
73737W        W37494  35.067  33.879   0.936
73738W        W37495  14.753  18.099   9.995
73739W        W37496  32.463  25.644  14.960
73740W        W37497  10.325  21.588  13.502
73741W        W37498  10.647  11.235  10.613
73742W        W37499  38.560  21.750   4.237
73743W        W37500  21.736  22.160  13.493
73744W        W37501  25.563  43.932  11.014
73745W        W37502   3.710  38.414   1.439
73746W        W37503  37.464  40.987   1.307
73747W        W37504  21.253   3.874  13.505
73748W        W37505   6.404  32.416  14.762
73749W        W37506  41.514  38.844  14.970
73750W        W37507  37.075  29.935   1.860
73751W        W37508  18.653  35.970  14.791
73752W        W37509  18.157  30.557  10.470
73753W        W37510  27.644  37.952   1.900
73754W        W37511  33.877  33.022  14.771
73755W        W37512  20.732  39.552   2.749
73756W        W37513  41.807   5.845  10.111
73757W        W37514   3.855  24.551   2.393
73758W        W37515  41.911  31.153  12.948
73759W        W37516  18.195  36.581   2.831
73760W        W37517  14.633  22.195  12.520
73761W        W37518  42.488  19.587  11.542
73762W        W37519  33.883  43.470  10.640
73763W        W37520   3.358  10.843   0.746
73764W        W37521  41.332  15.315  13.017
73765W        W37522  19.149  21.636   3.753
73766W        W37523   5.724   3.419   1.323
73767W        W37524  22.705  18.663  10.070
73768W        W37525  36.479  10.172  12.890
73769W        W37526  22.505   2.318  10.563
73770W        W37527  19.139  30.970   3.867
73771W        W37528  11.291   8.661  11.519
73772W        W37529   1.838  30.104  10.566
73773W        W37530  36.961  30.123   0.841
73774W        W37531  20.093  36.590   3.806
73775W        W37532   2.878  30.039   3.289
73776W        W37533  31.416  13.175  11.448
73777W        W37534  37.077  31.555  12.524
73778W        W37535   8.687  26.506   3.229
73779W        W37536  21.177  33.489  10.090
73780W        W37537  35.878  33.463   2.755
73781W        W37538  30.472  33.490  11.372
73782W        W37539  22.547  26.548  11.869
73783W        W37540  40.387  32.996   4.152
73784W        W37541  25.997   8.747   1.711
73785W        W37542  40.498  32.904  12.552
73786W        W37543  15.269  41.859   5.197
73787W        W37544  20.099  38.521  13.356
73788W        W37545  37.395  26.674  10.566
73789W        W37546  35.481   2.904  12.026
73790W        W37547   9.229  12.219   3.329
73791W        W37548  33.546  31.638  13.425
73792W        W37549  13.306  29.122   4.644
73793W        W37550  32.112  14.814   3.801
73794W        W37551  25.709  28.971   0.434
73795W        W37552  41.318  23.134   4.677
73796W        W37553   9.229   5.271   2.343
73797W        W37554  19.675   7.795  10.938
73798W        W37555  31.931  34.092   0.758
73799W        W37556   0.425  35.012  13.315
73800W        W37557  23.207  37.985  12.554
73801W        W37558   4.343  33.877   2.768
73802W        W37559   8.240   0.361  12.510
73803W        W37560   3.435  35.496  14.949
73804W        W37561   2.424   4.844  14.927
73805W        W37562  18.608  15.252   0.836
73806W        W37563  23.150  10.157  12.867
73807W        W37564  33.526  37.068  12.012
73808W        W37565  35.917  26.617   0.245
73809W        W37566  40.940  33.416  13.835
73810W        W37567  41.424  41.039   4.229
73811W        W37568   9.217  35.881  13.465
73812W        W37569   4.706  28.459   1.287
73813W        W37570  25.637  15.606  11.044
73814W        W37571  16.801  12.350  11.474
73815W        W37572  15.088  41.004   3.198
73816W        W37573  12.342   5.290  10.440
73817W        W37574  24.179   3.794  13.431
73818W        W37575  18.729  31.089   3.704
73819W        W37576   3.283  36.545   0.965
73820W        W37577   6.284  41.298   1.265
73821W        W37578  38.909  12.298   2.218
73822W        W37579  14.781  44.988  10.010
73823W        W37580  27.079   8.366   1.896
73824W        W37581  13.135   1.946   3.171
73825W        W37582   7.216  22.185  11.967
73826W        W37583   1.481  37.917   4.138
73827W        W37584  20.265  22.565  12.339
73828W        W37585  10.220  41.477  13.974
73829W        W37586   3.880  39.014   9.979
73830W        W37587  20.194  12.742   5.260
73831W        W37588  36.524  25.207   2.373
73832W        W37589  29.449  14.177  12.828
73833W        W37590  10.209  27.556   0.335
73834W        W37591   3.215   8.269   4.255
73835W        W37592  30.445  18.239   4.308
73836W        W37593  27.127   7.292   0.363
73837W        W37594   8.333  27.169   1.840
73838W        W37595  37.067  19.690   4.616
73839W        W37596  10.719  23.998  11.467
73840W        W37597   9.805  10.177   3.824
73841W        W37598  28.094  10.333   4.747
73842W        W37599  37.938  39.969  12.036
73843W        W37600  29.659   5.730   4.690
73844W        W37601  10.250  28.467  11.395
73845W        W37602  25.973  26.628  13.030
73846W        W37603   7.901   2.349  13.328
73847W        W37604  10.152   1.277  10.559
73848W        W37605  18.172  44.302   1.796
73849W        W37606  27.513  40.925  10.610
73850W        W37607  24.663  41.501  11.124
73851W        W37608  15.690   7.725   2.697
73852W        W37609  31.012   2.269   5.655
73853W        W37610   0.747  21.122  14.857
73854W        W37611  19.723  38.325  13.982
73855W        W37612  39.529  41.007  12.471
73856W        W37613  11.635  24.586  12.490
73857W        W37614  44.790  31.991  14.925
73858W        W37615   2.230   3.328   2.780
73859W        W37616  28.476   8.775  10.451
73860W        W37617   8.762  10.682   2.718
73861W        W37618  31.927  29.529   2.718
73862W        W37619  36.036  43.912  14.837
73863W        W37620  18.131  16.630  11.947
73864W        W37621   2.262  38.416   2.193
73865W        W37622  20.142   4.324   0.761
73866W        W37623   2.404  41.377  13.865
73867W        W37624   0.379   3.460  14.925
73868W        W37625   4.262  31.527  12.494
73869W        W37626   6.864   4.328  11.000
73870W        W37627  11.202  22.605  11.013
73871W        W37628  12.270   2.288   4.332
73872W        W37629  26.178  44.960  12.019
73873W        W37630  38.431  28.626   0.775
73874W        W37631   4.324  11.663   3.704
73875W        W37632  35.392  22.196  13.819
73876W        W37633  12.657   8.748   3.172
73877W        W37634  29.450  41.299  14.786
73878W        W37635  29.987  43.808  13.411
73879W        W37636  17.097   1.249   4.752
73880W        W37637  15.087  38.953   1.235
73881W        W37638  11.827  33.564  12.526
73882W        W37639  36.910   9.188   1.295
73883W        W37640  39.474   4.290  10.464
73884W        W37641  41.840  36.347  12.383
73885W        W37642   0.956  35.027  10.118
73886W        W37643  21.205  21.193  10.004
73887W        W37644   1.951  18.767   3.853
73888W        W37645  38.953  41.968   1.392
73889W        W37646  36.546  17.257   3.255
73890W        W37647   5.726  28.053   4.679
73891W        W37648  38.447  41.465  12.457
73892W        W37649  33.504   5.418   4.624
73893W        W37650   0.469   1.446   0.847
73894W        W37651  41.485  27.542   0.801
73895W        W37652  43.915  10.259   2.240
73896W        W37653  32.931  27.487  11.016
73897W        W37654  23.200  11.343   1.340
73898W        W37655  10.732  24.978  13.865
73899W        W37656   0.483  41.991  10.931
73900W        W37657  44.327  43.791  12.950
73901W        W37658  22.724  38.995  13.307
73902W        W37659  25.052   0.839  11.548
73903W        W37660   8.835  35.880   2.667
73904W        W37661  25.644   3.900   2.191
73905W        W37662  39.936  19.054   4.220
73906W        W37663  16.638   1.448   5.228
73907W        W37664  24.071   3.730   3.801
73908W        W37665  11.328  26.030  14.952
73909W        W37666   4.799  41.889  14.951
73910W        W37667  23.067  29.452  12.980
73911W        W37668  30.592  37.887   0.383
73912W        W37669  10.700  43.482   1.431
73913W        W37670  16.760  20.181  11.390
73914W        W37671   9.676  15.208   1.296
73915W        W37672  17.594  38.983   1.381
73916W        W37673  27.010  23.144  12.861
73917W        W37674  28.446  41.947  11.441
73918W        W37675   4.898   1.405  14.396
73919W        W37676  18.288  37.448  12.880
73920W        W37677  37.840  14.791  13.528
73921W        W37678  17.605  25.144  14.913
73922W        W37679  31.036  25.996  10.951
73923W        W37680  39.961  22.530  14.849
73924W        W37681   1.246  18.606   2.257
73925W        W37682  17.199  33.510   2.767
73926W        W37683   4.430  21.248  13.802
73927W        W37684  12.151  38.937   4.176
73928W        W37685   6.680   7.302  13.360
73929W        W37686  26.988  26.179   0.426
73930W        W37687  36.013  23.509   1.824
73931W        W37688   1.373  26.482   2.841
73932W        W37689  12.343  33.537  14.976
73933W        W37690  24.166  16.306   0.758
73934W        W37691  19.078   8.299  13.040
73935W        W37692  43.399  21.197  14.453
73936W        W37693   2.853  23.057  13.879
73937W        W37694   6.853  21.028   3.848
73938W        W37695   6.701   9.697   3.259
73939W        W37696  21.672   8.821   2.785
73940W        W37697  26.207  38.874  11.013
73941W        W37698   4.856  33.123  12.975
73942W        W37699  37.478   9.783   1.781
73943W        W37700   4.847  11.227  13.917
73944W        W37701  36.438   0.849   0.935
73945W        W37702  44.946  24.594   0.813
73946W        W37703  35.568  41.822  12.523
73947W        W37704  12.809   2.402   5.321
73948W        W37705  38.378   3.347  13.828
73949W        W37706  44.386  23.084  14.465
73950W        W37707  42.017  38.052   4.164
73951W        W37708  15.760   4.790  11.429
73952W        W37709  29.639  11.740  13.405
73953W        W37710  41.323  16.583   3.218
73954W        W37711  43.450  12.772  10.423
73955W        W37712  26.964   1.481  12.912
73956W        W37713  27.039  23.672   3.308
73957W        W37714  32.421  26.962   0.254
73958W        W37715  14.747   2.804  14.971
73959W        W37716  23.587   3.262   1.706
73960W        W37717   6.753  18.293   0.296
73961W        W37718  24.599  41.968   2.189
73962W        W37719  10.667  37.473  11.878
73963W        W37720  30.599  37.458  10.936
73964W        W37721  19.755  37.469   0.381
73965W        W37722  30.607   8.753  12.466
73966W        W37723   6.205  34.455   1.417
73967W        W37724  39.970   4.406   0.287
73968W        W37725  42.474   7.348  11.948
73969W        W37726  14.642  14.820  14.906
73970W        W37727  34.898  26.608   0.399
73971W        W37728   4.333   0.472  13.020
73972W        W37729   2.432   3.757   1.352
73973W        W37730  35.069  21.146   4.609
73974W        W37731   5.399  43.898   2.744
73975W        W37732  11.216  34.909  11.082
73976W        W37733  33.414   4.737  14.877
73977W        W37734  16.802   7.796  12.838
73978W        W37735  36.489  43.456  11.461
73979W        W37736  29.635  41.402  14.420
73980W        W37737  35.581  18.189   2.901
73981W        W37738  35.027   4.248   4.231
73982W        W37739  13.833  23.727   4.341
73983W        W37740  31.968  34.078   2.759
73984W        W37741  40.997  21.160   0.937
73985W        W37742  42.448   5.366  10.429
73986W        W37743  40.539  39.447   4.273
73987W        W37744  31.592  32.502  13.523
73988W        W37745  26.112  12.318  11.938
73989W        W37746  28.988  21.558   1.256
73990W        W37747   6.876  41.810  11.960
73991W        W37748   8.291  44.473  14.999
73992W        W37749  12.339   8.351  13.504
73993W        W37750  30.157  29.661  11.875
73994W        W37751  12.118   0.790   0.819
73995W        W37752   2.441  32.447  11.587
73996W        W37753  18.279  35.040  11.418
73997W        W37754  39.892  37.524  11.078
73998W        W37755   6.804  35.438  14.789
73999W        W37756  20.693  32.067  12.431
74000W        W37757  29.046  43.860   3.710
74001W        W37758   9.253  26.469   1.249
74002W        W37759  31.080   3.399   3.709
74003W        W37760  11.281  40.450  10.489
74004W        W37761  13.724  41.027   3.158
74005W        W37762   2.344  36.931   4.838
74006W        W37763  37.454  14.663   2.888
74007W        W37764  42.029   5.878  12.055
74008W        W37765  37.478  38.877   1.930
74009W        W37766   0.929   9.786  14.417
74010W        W37767  16.722  26.492   0.919
74011W        W37768  25.610  40.508   1.790
74012W        W37769  32.513  20.037  12.531
74013W        W37770  17.596  42.484  10.976
74014W        W37771  21.584  27.943   3.794
74015W        W37772  14.322  38.980  14.329
74016W        W37773  29.618  35.026   1.838
74017W        W37774  27.180   4.429  14.924
74018W        W37775  35.584  44.773  14.849
74019W        W37776  11.650  44.416   4.772
74020W        W37777  15.179   7.257  10.503
74021W        W37778  32.440  14.221  14.340
74022W        W37779  44.479   4.322   0.469
74023W        W37780   7.832   4.337  13.034
74024W        W37781  28.532  40.544   3.244
74025W        W37782  29.550  17.692  12.877
74026W        W37783  10.197  18.719  12.045
74027W        W37784  21.612  12.196  11.379
74028W        W37785  33.001  17.301  10.413
74029W        W37786  19.759  23.024   1.776
74030W        W37787  31.971  36.365  12.454
74031W        W37788   3.720  24.022  13.032
74032W        W37789  13.194  21.239   3.865
74033W        W37790  20.679  23.138  11.058
74034W        W37791  39.811  42.385  14.412
74035W        W37792  24.592  23.581   3.271
74036W        W37793   7.753  38.935  10.153
74037W        W37794   4.745  20.728   4.672
74038W        W37795  36.969  42.365  11.086
74039W        W37796   2.225   5.892  12.890
74040W        W37797  13.327  30.633   2.696
74041W        W37798   7.312  42.000   3.315
74042W        W37799  39.946  25.214  11.919
74043W        W37800  23.176  42.349   3.273
74044W        W37801  27.549  37.413  13.391
74045W        W37802  37.500   1.863  14.491
74046W        W37803  42.502  24.662  10.423
74047W        W37804  27.548  39.397   3.734
74048W        W37805  12.125   6.780  10.578
74049W        W37806  14.772  32.503  13.369
74050W        W37807  43.395  31.441   3.309
74051W        W37808   6.750  13.655  10.635
74052W        W37809  12.140   3.855  13.871
74053W        W37810   0.472  37.524  14.283
74054W        W37811  26.182  30.549   1.423
74055W        W37812  14.235   1.309   1.782
74056W        W37813  28.183  32.110  12.825
74057W        W37814  12.247  17.209   3.192
74058W        W37815  27.690  35.883   2.353
74059W        W37816  42.952  17.763  10.986
74060W        W37817  13.107   0.324  12.441
74061W        W37818   7.729  44.372   4.638
74062W        W37819   3.802  39.838   1.895
74063W        W37820  25.108  23.547   0.404
74064W        W37821  14.619  24.143   2.708
74065W        W37822  18.273  14.808   0.431
74066W        W37823  34.512  17.583   3.678
74067W        W37824  13.734  16.762  13.494
74068W        W37825  21.213  36.487   0.769
74069W        W37826  43.814   3.941  11.433
74070W        W37827   5.751  20.556  14.403
74071W        W37828  11.128  18.600   1.351
74072W        W37829  22.597   7.348  14.832
74073W        W37830  23.111  26.547   4.797
74074W        W37831   0.368  13.691  12.421
74075W        W37832  44.469  26.129  11.402
74076W        W37833  33.035  35.370  13.910
74077W        W37834  19.711  29.999  12.853
74078W        W37835  37.463  37.568  13.400
74079W        W37836  16.282  32.008  14.935
74080W        W37837  35.017   5.357  10.601
74081W        W37838   1.241  30.946  11.994
74082W        W37839  43.463   5.853  11.527
74083W        W37840  16.575  15.230   4.250
74084W        W37841  16.662  17.202   4.632
74085W        W37842  36.886   6.784  11.899
74086W        W37843   8.785  30.096  11.579
74087W        W37844  28.001  12.842   2.887
74088W        W37845  43.011  33.073  14.380
74089W        W37846  14.243   1.976   0.386
74090W        W37847  16.283  33.615   3.644
74091W        W37848  22.731  42.353  14.353
74092W        W37849  30.479   7.676   5.193
74093W        W37850  38.844   7.841  12.574
74094W        W37851  23.591  20.243   4.304
74095W        W37852  28.499  40.383  14.789
74096W        W37853  34.436  38.010   0.374
74097W        W37854  21.747  35.395   3.790
74098W        W37855  32.421  31.537   4.237
74099W        W37856  28.142  34.594   4.351
74100W        W37857   4.783   4.867   0.785
74101W        W37858  16.699  41.833  13.320
74102W        W37859  43.457  43.915   2.778
74103W        W37860   5.435  34.047  11.977
74104W        W37861  16.112  15.115   4.605
74105W        W37862   4.287  31.995   1.295
74106W        W37863   8.204  41.522   2.875
74107W        W37864  18.775  34.429  14.452
74108W        W37865  27.658  26.046  12.880
74109W        W37866  31.150  42.960   3.235
74110W        W37867  11.846   2.456  14.856
74111W        W37868  12.705  44.372   9.517
74112W        W37869  12.684  20.692  12.408
74113W        W37870  32.027  32.125   2.389
74114W        W37871  36.886   8.264   3.744
74115W        W37872  30.050  19.153   4.278
74116W        W37873  13.671  42.881  14.290
74117W        W37874   4.741  27.103  11.457
74118W        W37875  12.154  17.272   2.700
74119W        W37876   2.426  14.232   4.266
74120W        W37877  32.133   2.324  12.883
74121W        W37878  14.223  15.773   1.448
74122W        W37879  21.594  41.808   3.318
74123W        W37880  22.219  33.008  12.966
74124W        W37881  25.010  15.118   0.734
74125W        W37882   0.271  40.420   4.325
74126W        W37883  26.144  10.156  14.861
74127W        W37884  33.084   0.980  13.037
74128W        W37885   1.974  19.053  11.887
74129W        W37886  35.600  16.715  12.475
74130W        W37887  11.274   8.805   5.159
74131W        W37888  15.720   0.861   2.382
74132W        W37889  15.659   0.976  14.429
74133W        W37890  23.170  44.494  12.053
74134W        W37891  28.491  21.512  11.857
74135W        W37892  39.982   5.200   1.366
74136W        W37893  30.484  11.698   0.847
74137W        W37894  11.693  11.670   3.651
74138W        W37895   0.423  39.850   2.740
74139W        W37896  44.393  42.841  13.986
74140W        W37897  20.266   5.698   3.247
74141W        W37898   0.815   7.233  10.415
74142W        W37899  12.305  36.387   4.809
74143W        W37900  11.826   5.303   3.172
74144W        W37901  25.601   6.391  12.936
74145W        W37902  42.778   6.920  14.804
74146W        W37903  20.215  18.193   5.250
74147W        W37904  12.331  40.362   2.761
74148W        W37905  37.037  22.180   1.214
74149W        W37906   7.747  22.082  12.834
74150W        W37907  38.013  29.464  13.982
74151W        W37908   0.925  33.514   1.419
74152W        W37909  30.419  12.735   0.885
74153W        W37910   9.238  40.404   0.897
74154W        W37911  24.986   5.424  11.542
74155W        W37912  13.116  42.489   4.675
74156W        W37913  44.809   0.405   1.823
74157W        W37914  36.074  25.058   3.236
74158W        W37915  40.945  20.697   1.235
74159W        W37916  36.090  23.128  12.483
74160W        W37917  35.563  27.185   0.247
74161W        W37918  34.588   6.755  13.900
74162W        W37919   9.205   7.773   4.696
74163W        W37920  21.117  38.447  14.310
74164W        W37921   0.444  25.533   4.751
74165W        W37922   5.277  44.834  14.881
74166W        W37923  25.103  18.061  13.958
74167W        W37924  23.030  32.061  11.990
74168W        W37925  34.588  22.234   2.812
74169W        W37926  42.400  41.391   2.317
74170W        W37927   9.290  19.173   4.710
74171W        W37928  15.324  15.725   2.840
74172W        W37929  10.793  41.822  10.623
74173W        W37930  37.404  26.018  10.897
74174W        W37931  26.019  40.992  14.331
74175W        W37932   9.713   1.854  14.442
74176W        W37933  29.067   7.306  12.978
74177W        W37934  32.521   3.911  12.993
74178W        W37935  14.266  42.966   2.731
74179W        W37936  44.416   2.871  11.044
74180W        W37937  37.935  39.530   2.812
74181W        W37938   2.324   9.382  10.987
74182W        W37939  24.674  21.200   2.222
74183W        W37940  38.998   5.413   4.716
74184W        W37941   3.275  12.703  13.937
74185W        W37942   2.321  29.004  12.893
74186W        W37943  27.140  23.698  13.894
74187W        W37944  40.380  12.361   4.293
74188W        W37945  37.375  14.240   0.362
74189W        W37946   8.190  33.466  13.010
74190W        W37947  31.076  38.046   4.813
74191W        W37948   7.692  30.151   3.647
74192W        W37949  35.466   4.236  12.063
74193W        W37950  21.145  39.920   0.806
74194W        W37951  10.141  11.801   4.319
74195W        W37952  16.709  10.212  14.434
74196W        W37953  37.930   1.935   0.302
74197W        W37954  23.178  28.153   0.338
74198W        W37955  37.439  20.164  11.985
74199W        W37956  23.989  24.522   3.350
74200W        W37957   1.802  22.194   3.656
74201W        W37958  33.025  37.962   2.407
74202W        W37959  27.996  42.810  12.872
74203W        W37960   6.340  15.248  13.351
74204W        W37961  10.358  13.325   5.254
74205W        W37962  39.014  30.515   0.760
74206W        W37963   7.740   6.298  10.507
74207W        W37964  33.911   5.324   2.745
74208W        W37965  33.566  12.848  11.573
74209W        W37966  33.484  11.846   1.734
74210W        W37967  17.130  41.490  11.984
74211W        W37968   1.294  19.545   1.260
74212W        W37969   2.409  29.125   0.871
74213W        W37970  17.272  19.156   0.828
74214W        W37971  32.515  44.348   1.395
74215W        W37972  17.081  14.250  13.436
74216W        W37973   4.277  12.249   1.764
74217W        W37974   0.284  18.204  11.398
74218W        W37975  14.288  21.044  12.575
74219W        W37976   3.214  19.047  11.487
74220W        W37977  34.377   8.392   0.415
74221W        W37978  26.080  26.667   1.424
74222W        W37979  34.511  36.042  12.844
74223W        W37980  19.599  44.271  11.086
74224W        W37981   7.183   6.741   1.871
74225W        W37982  20.151  44.331  10.140
74226W        W37983  31.009  44.802  12.561
74227W        W37984  22.577  20.031  14.015
74228W        W37985  12.306  21.740   2.264
74229W        W37986   1.475   3.450   3.788
74230W        W37987  38.866  44.438  14.950
74231W        W37988   8.761  24.661  10.464
74232W        W37989  14.325  41.329   2.823
74233W        W37990  14.222  24.624   4.833
74234W        W37991  16.166  30.935   3.740
74235W        W37992   6.876  13.157  11.437
74236W        W37993  43.901  20.754  13.412
74237W        W37994  37.949  19.674   2.401
74238W        W37995  21.233  41.000   2.389
74239W        W37996   3.832  36.417   1.821
74240W        W37997  15.253  40.314  12.511
74241W        W37998  31.540  43.977  13.329
74242W        W37999  10.150   4.220   1.819
74243W        W38000   5.893  20.698   4.214
74244W        W38001  44.809  26.186  10.584
74245W        W38002   8.175  11.721   3.756
74246W        W38003  34.503  33.895   4.666
74247W        W38004  40.983  36.894   2.744
74248W        W38005  41.400  15.086   1.305
74249W        W38006  17.709  11.812   4.816
74250W        W38007  33.405  12.705  12.866
74251W        W38008  25.538  32.991  14.892
74252W        W38009  31.566  20.728  11.392
74253W        W38010  19.188  11.663   1.432
74254W        W38011  13.724   9.678   4.790
74255W        W38012  13.757  29.498  10.508
74256W        W38013  14.283   0.263   0.392
74257W        W38014  13.839  16.611  10.924
74258W        W38015  36.383  26.010  14.841
74259W        W38016  33.057  37.451  12.562
74260W        W38017  15.215  10.774   1.763
74261W        W38018   9.213   0.470   1.286
74262W        W38019  20.261  35.600  13.481
74263W        W38020  21.089  14.607  11.980
74264W        W38021  23.495   6.291   4.831
74265W        W38022  44.341   5.303   1.221
74266W        W38023  32.510   5.389   0.879
74267W        W38024  22.158  33.619   4.749
74268W        W38025  30.475   1.353  12.575
74269W        W38026   9.294   4.906  12.892
74270W        W38027  38.440   8.332  11.963
74271W        W38028  10.731  26.976  14.913
74272W        W38029  26.006   2.258   3.233
74273W        W38030  25.092  31.432   3.327
74274W        W38031  38.047  29.458  11.410
74275W        W38032   7.772  16.159   0.910
74276W        W38033  25.551  33.106   0.318
74277W        W38034  30.544  28.443  14.499
74278W        W38035   5.328  35.920   2.694
74279W        W38036  12.355  44.927   0.787
74280W        W38037   8.218  30.156   3.237
74281W        W38038  27.611  35.557   4.737
74282W        W38039  19.039  39.490  13.372
74283W        W38040  33.938  30.161   1.710
74284W        W38041  40.917  21.226   0.360
74285W        W38042  37.064  15.123   2.342
74286W        W38043  26.670  38.843  14.309
74287W        W38044  35.578  44.436   4.351
74288W        W38045   9.342  18.700  13.537
74289W        W38046  12.640  37.572  10.421
74290W        W38047  24.043   7.205  14.863
74291W        W38048  28.612   2.259  11.514
74292W        W38049  25.522  14.300   0.887
74293W        W38050  20.206  27.005   1.213
74294W        W38051   2.746   0.396   0.395
74295W        W38052  18.549  19.727   3.711
74296W        W38053   1.918  33.511   3.643
74297W        W38054   4.870  33.051   0.260
74298W        W38055  10.835  16.258   0.838
74299W        W38056   6.754  22.571  11.581
74300W        W38057  43.942   4.219  10.895
74301W        W38058  38.518  21.196  11.038
74302W        W38059  41.453  35.000   3.730
74303W        W38060   5.252   6.192   1.445
74304W        W38061  18.765  34.038  14.352
74305W        W38062  12.119  41.484  12.545
74306W        W38063  10.322  42.959  10.517
74307W        W38064   0.893  34.092  14.021
74308W        W38065  36.431  26.598   4.742
74309W        W38066   1.886  17.577   2.228
74310W        W38067  27.123  16.653  11.914
74311W        W38068   4.805   9.162  11.914
74312W        W38069   1.432  41.905  13.496
74313W        W38070   7.331  39.909  13.963
74314W        W38071  37.561  24.220  13.924
74315W        W38072   0.953  12.239  12.470
74316W        W38073  29.587  32.637  11.063
74317W        W38074  42.494  43.448   2.730
74318W        W38075  23.489  22.654  11.590
74319W        W38076  37.922  14.703   3.794
74320W        W38077  42.919   5.789   0.391
74321W        W38078   6.368  43.815  14.896
74322W        W38079  13.120   3.222   2.301
74323W        W38080   0.948  22.243  12.078
74324W        W38081  13.806  10.367   4.799
74325W        W38082  14.787  14.310  12.841
74326W        W38083  36.431   5.355   3.630
74327W        W38084  36.421  19.678   0.803
74328W        W38085  11.752  35.534  13.926
74329W        W38086   2.256  10.677   0.278
74330W        W38087  33.893  30.920   0.790
74331W        W38088   7.364  24.689   1.779
74332W        W38089  15.707  15.195  13.904
74333W        W38090  27.599   3.410   3.848
74334W        W38091   5.224  19.648   3.703
74335W        W38092  20.071  33.979  14.990
74336W        W38093  19.140  33.386   3.799
74337W        W38094  30.960  24.669  14.298
74338W        W38095   0.464  25.598  12.367
74339W        W38096  29.067  16.758   0.817
74340W        W38097  16.594  33.391   1.892
74341W        W38098   0.868  36.850   4.147
74342W        W38099  15.789   2.837   0.783
74343W        W38100   6.290  16.706  14.766
74344W        W38101   6.303  15.181   1.771
74345W        W38102   1.840  22.532  10.604
74346W        W38103  30.571  24.691  14.985
74347W        W38104  23.207  21.564   0.312
74348W        W38105  12.273  22.194   3.163
74349W        W38106  25.610  43.020  11.972
74350W        W38107  38.878   7.336  14.291
74351W        W38108  19.125  10.830  11.538
74352W        W38109   0.330  26.479  11.601
74353W        W38110  22.579  14.237   0.483
74354W        W38111   8.674  28.961   1.846
74355W        W38112  23.019   9.822   4.220
74356W        W38113  32.526   4.944   4.213
74357W        W38114  22.715   9.290  14.486
74358W        W38115   6.369  36.080   2.747
74359W        W38116  25.122   1.371   3.708
74360W        W38117   0.334   4.867   0.338
74361W        W38118  16.679  37.062   3.634
74362W        W38119  22.123  39.822  10.474
74363W        W38120  14.099  40.369  12.878
74364W        W38121  30.521  24.042  14.443
74365W        W38122  41.523   8.302   4.249
74366W        W38123  31.065  13.725  12.054
74367W        W38124  11.688   0.987   1.373
74368W        W38125   4.704  38.951   4.165
74369W        W38126  35.497   5.336   2.854
74370W        W38127   0.368   6.840   4.220
74371W        W38128  14.718  40.484  14.983
74372W        W38129  43.317  25.997   0.430
74373W        W38130  20.568  20.671   4.115
74374W        W38131  35.363  13.119   0.809
74375W        W38132  35.000  39.844  12.379
74376W        W38133   1.418  12.641   3.196
74377W        W38134   1.911   7.235  12.507
74378W        W38135   5.812  17.720  14.353
74379W        W38136  36.590   0.811  10.409
74380W        W38137  42.335  39.999  12.574
74381W        W38138  41.320  17.178   4.155
74382W        W38139  33.486  31.583   4.353
74383W        W38140  44.318  16.225  14.989
74384W        W38141  17.293  43.307  11.879
74385W        W38142   8.696   6.849  14.345
74386W        W38143  17.565   3.220   1.273
74387W        W38144  21.167   0.417  13.995
74388W        W38145  34.494   4.254  12.490
74389W        W38146   6.404  13.788  13.802
74390W        W38147   3.311  26.501  11.924
74391W        W38148  36.448  28.077   4.696
74392W        W38149  10.811  29.941   1.885
74393W        W38150   0.486  26.992   3.316
74394W        W38151  27.079  21.614  10.615
74395W        W38152  40.315  37.411   4.298
74396W        W38153   7.182   7.865   4.600
74397W        W38154   4.806  15.744  14.869
74398W        W38155   0.855  32.087   0.464
74399W        W38156  31.105  44.974  13.803
74400W        W38157  36.031  19.150  10.441
74401W        W38158  11.734  25.598  10.474
74402W        W38159   4.253   5.352  14.358
74403W        W38160  25.168  17.571  11.049
74404W        W38161   7.732  33.588  14.934
74405W        W38162  34.969   8.731   5.300
74406W        W38163  12.661  34.008  11.468
74407W        W38164  32.564  14.813  13.834
74408W        W38165  37.076   2.757   4.329
74409W        W38166  29.433  27.091  14.958
74410W        W38167   2.852  12.750   0.738
74411W        W38168  16.597  13.330   3.350
74412W        W38169  42.292  19.688   1.704
74413W        W38170   0.816  25.182  12.044
74414W        W38171  21.567   5.812  13.992
74415W        W38172  26.539  14.274   1.364
74416W        W38173  16.184  34.373  13.434
74417W        W38174  42.441  22.602   0.865
74418W        W38175  35.494   7.837  14.985
74419W        W38176  12.311  19.067   3.370
74420W        W38177  35.002  36.896  12.855
74421W        W38178   4.868  24.622  11.386
74422W        W38179   4.721  27.194  14.825
74423W        W38180   1.789  31.641  13.911
74424W        W38181  11.306  11.658   0.871
74425W        W38182  24.659  44.801   0.272
74426W        W38183  40.947  23.232   1.381
74427W        W38184  14.756  25.154  11.448
74428W        W38185  33.883  22.639   4.210
74429W        W38186  22.155  14.135  10.917
74430W        W38187  12.129   2.916  11.397
74431W        W38188  15.271  31.097  14.993
74432W        W38189  18.256  40.461  13.044
74433W        W38190   5.272  13.757   0.896
74434W        W38191  37.404   0.448   5.096
74435W        W38192  16.736  20.161  14.997
74436W        W38193  42.484  38.852  13.343
74437W        W38194  24.101  33.036   4.628
74438W        W38195  26.104   8.711  11.884
74439W        W38196  25.564  35.082   4.229
74440W        W38197   7.356  17.303   0.760
74441W        W38198  27.178  41.482   0.249
74442W        W38199  27.512  29.992  14.303
74443W        W38200   7.214  36.903  14.950
74444W        W38201  10.846  30.655  11.063
74445W        W38202  21.523   5.230  10.565
74446W        W38203  43.929  16.646   1.910
74447W        W38204  12.731  22.690   0.877
74448W        W38205   0.358   0.349  11.110
74449W        W38206  24.009  12.641  11.029
74450W        W38207   3.295  37.542   2.671
74451W        W38208   5.722  17.264  11.120
74452W        W38209   5.765   1.271   4.838
74453W        W38210   7.256  31.447  14.325
74454W        W38211   4.791   6.318  12.534
74455W        W38212  37.033  37.517  11.031
74456W        W38213  22.113  12.204  10.568
74457W        W38214  43.328  17.226   0.363
74458W        W38215  19.662  38.508  12.501
74459W        W38216   0.384  29.999   2.685
74460W        W38217   4.364   1.391  12.001
74461W        W38218  20.227  31.900  11.119
74462W        W38219  15.714  44.989  14.010
74463W        W38220  42.781  34.937   1.707
74464W        W38221   8.819  14.814   3.696
74465W        W38222   8.849  24.198   3.852
74466W        W38223  14.239   7.414  11.122
74467W        W38224  26.650   0.273  13.851
74468W        W38225  11.650  36.933   4.354
74469W        W38226  28.981   6.781   3.669
74470W        W38227  35.527  19.155  12.482
74471W        W38228  33.980  17.660  13.374
74472W        W38229  26.510  32.462   2.333
74473W        W38230  16.235   3.902  11.381
74474W        W38231  26.080  12.359   4.315
74475W        W38232  15.772   5.291   1.860
74476W        W38233   8.850  24.568   3.231
74477W        W38234  40.383  28.036  11.485
74478W        W38235  19.196  38.462   0.359
74479W        W38236   9.355  16.718  13.925
74480W        W38237  42.995  29.153   4.597
74481W        W38238  30.932  21.644   3.164
74482W        W38239  10.193  20.561   2.184
74483W        W38240  40.833  31.641   1.257
74484W        W38241  15.308  13.319  13.488
74485W        W38242  27.592  37.582   1.790
74486W        W38243   7.871  12.657  12.870
74487W        W38244  43.442  34.074  14.957
74488W        W38245   6.261  41.862   0.473
74489W        W38246   0.910   2.432   4.741
74490W        W38247  38.349  28.134  11.427
74491W        W38248   4.433  44.453  13.308
74492W        W38249  31.546  44.905  13.370
74493W        W38250  21.110  22.604  13.793
74494W        W38251  42.791  18.271  11.961
74495W        W38252  14.618  44.389   1.847
74496W        W38253   1.959  15.282   0.771
74497W        W38254  23.172  33.468   0.311
74498W        W38255   7.862  22.519  10.471
74499W        W38256  25.988  36.970   4.164
74500W        W38257  15.715  41.478   3.693
74501W        W38258  18.557  12.720   1.363
74502W        W38259  22.063  31.034  11.436
74503W        W38260  29.960  39.819  11.468
74504W        W38261  23.162  13.774   3.631
74505W        W38262   9.226  12.220   4.628
74506W        W38263  42.928   4.287   0.263
74507W        W38264  31.628  15.160  11.557
74508W        W38265  11.226  18.572  13.794
74509W        W38266  20.208  19.257  10.581
74510W        W38267  26.001  20.762  10.077
74511W        W38268  32.422  12.333  12.900
74512W        W38269  13.253  26.977  12.070
74513W        W38270  13.135  18.080  12.400
74514W        W38271  38.337   1.792  13.912
74515W        W38272  14.311  27.458  11.420
74516W        W38273  36.455   5.734   2.868
74517W        W38274  18.128  43.462  13.971
74518W        W38275   9.319  41.305  11.399
74519W        W38276  20.184  27.448  10.540
74520W        W38277  30.931  21.628  11.939
74521W        W38278  35.087  42.286  11.951
74522W        W38279   3.922  10.725  10.514
74523W        W38280   1.856  44.294  14.984
74524W        W38281   0.880  38.902  13.938
74525W        W38282  10.659   4.742   3.750
74526W        W38283  38.362  15.285   4.295
74527W        W38284  39.336   7.665   2.786
74528W        W38285  25.534  15.259   1.213
74529W        W38286   4.841   3.722  12.508
74530W        W38287  43.501   3.328   2.807
74531W        W38288  35.941  24.221  10.421
74532W        W38289   4.713  28.110   5.296
74533W        W38290  16.313   5.932  12.971
74534W        W38291  34.504  31.630   3.178
74535W        W38292  42.308   1.964  11.088
74536W        W38293   1.424   0.745  10.430
74537W        W38294   1.906  22.107   0.420
74538W        W38295  19.199  43.871   3.200
74539W        W38296  10.328   5.836  14.412
74540W        W38297  35.549   1.482   3.785
74541W        W38298  42.004  13.234   0.466
74542W        W38299  31.416  40.483  11.571
74543W        W38300   9.320  44.841  12.961
74544W        W38301   9.311  40.032   2.283
74545W        W38302  44.759  22.031   1.817
74546W        W38303   3.379  10.366  13.055
74547W        W38304  14.220   1.349   0.808
74548W        W38305  13.190  44.359   3.153
74549W        W38306   4.443  28.588  12.499
74550W        W38307  20.051  21.263  14.423
74551W        W38308  16.807  43.300   2.787
74552W        W38309   4.805  31.976  13.425
74553W        W38310  24.518  38.024  12.381
74554W        W38311  40.892  31.559  12.064
74555W        W38312   1.275  32.549   4.205
74556W        W38313  18.266  12.333  14.814
74557W        W38314  43.354  17.102  12.844
74558W        W38315  26.031  22.724  11.005
74559W        W38316  27.670  29.972   1.809
74560W        W38317  10.775  35.096   3.859
74561W        W38318  11.336  40.856  11.530
74562W        W38319  44.986  22.113   0.732
74563W        W38320  19.083  38.524   2.874
74564W        W38321  17.106  23.512  13.823
74565W        W38322   0.763   2.966   3.265
74566W        W38323   4.822  42.976   2.843
74567W        W38324  26.608  36.982   4.830
74568W        W38325  34.565  14.110  11.021
74569W        W38326   1.788  10.802  11.100
74570W        W38327  18.246  27.077   1.759
74571W        W38328   9.286  33.068  13.953
74572W        W38329   5.818  21.200  12.861
74573W        W38330  17.575   2.292  14.354
74574W        W38331  25.197  21.518  14.293
74575W        W38332   1.884   9.309   2.205
74576W        W38333  40.844  18.583   4.661
74577W        W38334   9.188  14.223   4.298
74578W        W38335   9.381  22.222  11.901
74579W        W38336  19.555  15.147  11.611
74580W        W38337  42.986  42.497  13.495
74581W        W38338  44.295  12.303  10.518
74582W        W38339  31.097  22.040   2.745
74583W        W38340  18.738  25.076  14.290
74584W        W38341  16.613  18.108  10.945
74585W        W38342  27.080  24.662   0.836
74586W        W38343  31.070  30.613  11.403
74587W        W38344  14.196  20.085   3.378
74588W        W38345  11.312  20.081  10.594
74589W        W38346  25.026  25.640   3.669
74590W        W38347  40.953  40.481  12.843
74591W        W38348  43.846   0.292  14.970
74592W        W38349   9.335  11.867   0.783
74593W        W38350  18.787   6.383  12.555
74594W        W38351  33.003  26.154  14.976
74595W        W38352  38.945  24.054  12.443
74596W        W38353  35.086  16.722   4.658
74597W        W38354  27.182  30.478   1.739
74598W        W38355  29.064  41.337  10.977
74599W        W38356  14.657  18.779   4.324
74600W        W38357  12.353  16.794  11.502
74601W        W38358  44.260  41.847  10.103
74602W        W38359  43.869  25.143   0.322
74603W        W38360   2.356   8.836  14.955
74604W        W38361   9.380  37.991   0.935
74605W        W38362   9.216  22.197  12.955
74606W        W38363  37.884  28.653  12.982
74607W        W38364  10.259  22.569   0.392
74608W        W38365  19.104  21.580  14.394
74609W        W38366  35.971   6.240   5.311
74610W        W38367   8.365  35.109  11.057
74611W        W38368  15.704  16.733  13.935
74612W        W38369  29.570  21.628  11.435
74613W        W38370  41.503  15.773   0.288
74614W        W38371  38.962  34.101  14.832
74615W        W38372  42.914  19.239  12.044
74616W        W38373  22.734  39.398  11.435
74617W        W38374   8.739  44.343  10.470
74618W        W38375  41.373  39.052   0.273
74619W        W38376   1.271   9.720  12.851
74620W        W38377  22.075  40.844   3.386
74621W        W38378  25.537  23.081   1.308
74622W        W38379  22.663  27.075   4.118
74623W        W38380   8.866  36.435   4.642
74624W        W38381  30.923   5.740  13.939
74625W        W38382  17.629  13.622  13.971
74626W        W38383  17.255  40.350  13.494
74627W        W38384   6.797  14.721  11.862
74628W        W38385   2.319  18.614  11.056
74629W        W38386  16.572  37.946  13.811
74630W        W38387  21.244   4.907  11.019
74631W        W38388  20.699   2.891   3.641
74632W        W38389  16.138   8.661   2.689
74633W        W38390   8.814   8.277   2.889
74634W        W38391  42.402  41.979  10.406
74635W        W38392  18.678  10.229  10.441
74636W        W38393   1.456   4.895   2.849
74637W        W38394  35.554  26.577  14.296
74638W        W38395  40.031  39.847  12.409
74639W        W38396  25.483  39.508   0.863
74640W        W38397  33.101  20.533  11.978
74641W        W38398  36.934  11.633   1.382
74642W        W38399  10.253  32.938  14.774
74643W        W38400  40.450  30.576  10.429
74644W        W38401   0.813  22.583   1.358
74645W        W38402   3.460   6.741   2.210
74646W        W38403   6.896  39.881  12.523
74647W        W38404  24.980  43.933  14.825
74648W        W38405   7.173   0.873   4.215
74649W        W38406  38.839  22.648   0.302
74650W        W38407  41.346  20.252   3.275
74651W        W38408   6.348   6.805  14.949
74652W        W38409   0.914  42.026   1.758
74653W        W38410  39.404  20.252  10.512
74654W        W38411  26.134   1.789   3.316
74655W        W38412  18.268   4.243   1.841
74656W        W38413  15.808  21.724  12.445
74657W        W38414   6.338  43.437  13.343
74658W        W38415   2.894  24.055   2.181
74659W        W38416   7.806  20.648  14.377
74660W        W38417  13.183  15.213   2.888
74661W        W38418  21.141  15.740   3.245
74662W        W38419   2.857  21.195   3.260
74663W        W38420  15.729  24.638   0.443
74664W        W38421  12.797  44.263  12.553
74665W        W38422  19.769  26.474   4.628
74666W        W38423   2.936  35.513   4.257
74667W        W38424   3.402   5.793  10.573
74668W        W38425  28.992  24.644  12.900
74669W        W38426  18.058  19.067  13.345
74670W        W38427  28.598  16.111  11.489
74671W        W38428   9.214  41.891   2.732
74672W        W38429  37.075   9.370  11.060
74673W        W38430  28.591  21.559   3.163
74674W        W38431  43.883  44.813  13.430
74675W        W38432  43.782  26.013   3.238
74676W        W38433  12.148  21.586  13.930
74677W        W38434  18.622  41.344   9.990
74678W        W38435  19.243  22.724   2.867
74679W        W38436  41.327  28.033   4.710
74680W        W38437  27.481  30.978  11.047
74681W        W38438   2.443  38.338  12.424
74682W        W38439  25.690  27.053   0.953
74683W        W38440  27.105  24.507   1.417
74684W        W38441  16.103   9.697   0.740
74685W        W38442  15.179  31.629   1.934
74686W        W38443  22.659   0.872   1.402
74687W        W38444   8.888  22.173   3.311
74688W        W38445   7.190  21.712   0.393
74689W        W38446  38.991  31.624   1.359
74690W        W38447  13.610  39.457   0.869
74691W        W38448  15.131  13.237   0.776
74692W        W38449  41.535   8.741   1.401
74693W        W38450  25.647  24.653  13.956
74694W        W38451  21.147  29.595  12.479
74695W        W38452  14.711  41.364   1.226
74696W        W38453   9.190   7.741  14.415
74697W        W38454  17.646  38.487   2.410
74698W        W38455   8.183  39.877   2.873
74699W        W38456  34.485  30.002   1.736
74700W        W38457  33.875   6.864   0.773
74701W        W38458  19.600  17.795   4.339
74702W        W38459  20.228   3.709   3.797
74703W        W38460  17.564  15.764  10.405
74704W        W38461  37.949  39.062  13.419
74705W        W38462   3.457  18.719  10.625
74706W        W38463  15.234  42.979  13.503
74707W        W38464   1.831  32.447  11.443
74708W        W38465  11.262  17.122   4.353
74709W        W38466   3.780  12.848  12.377
74710W        W38467  26.481  32.561   3.809
74711W        W38468  39.439  27.150   4.174
74712W        W38469  16.771   5.924   4.158
74713W        W38470  37.409  41.409   4.813
74714W        W38471  25.654  23.493  11.382
74715W        W38472  16.140  28.002   2.845
74716W        W38473  42.506  36.572  12.031
74717W        W38474  41.960  10.738  10.508
74718W        W38475  10.746  13.725   4.339
74719W        W38476   8.692   8.348   4.806
74720W        W38477  34.433  26.135  13.941
74721W        W38478  39.981  42.851  13.523
74722W        W38479  37.934  12.193   3.843
74723W        W38480  43.005   5.779  13.889
74724W        W38481   8.245  27.945  12.969
74725W        W38482  18.159  20.200  11.001
74726W        W38483  26.010  17.189   1.894
74727W        W38484  37.084  22.507  11.079
74728W        W38485  42.797   0.893   0.875
74729W        W38486  40.464  33.536   0.906
74730W        W38487  36.049  23.678  10.904
74731W        W38488  14.316  11.669   1.737
74732W        W38489  42.349  33.484   0.288
74733W        W38490  39.483  36.030  14.926
74734W        W38491  15.160  37.005  10.564
74735W        W38492  12.853   4.391   4.242
74736W        W38493  20.241  27.035  10.617
74737W        W38494  24.032   3.448  13.056
74738W        W38495  42.830  21.689   4.629
74739W        W38496   0.987   1.937  10.962
74740W        W38497  24.719  19.240  12.858
74741W        W38498  19.678   6.751   0.441
74742W        W38499   4.402  13.826  13.902
74743W        W38500   0.976  28.135   1.707
74744W        W38501  36.578  33.596   9.936
74745W        W38502  21.061  23.048   4.641
74746W        W38503  23.024  20.546  11.428
74747W        W38504  31.011  38.339   1.384
74748W        W38505  15.588   4.367  14.797
74749W        W38506  34.904   7.751   1.395
74750W        W38507  19.213  19.704  10.512
74751W        W38508  43.888  41.504   4.661
74752W        W38509   9.289  18.234   2.902
74753W        W38510   8.759  40.344  14.775
74754W        W38511   8.380   2.363   1.360
74755W        W38512  24.622  22.569   2.680
74756W        W38513  39.874  12.614  10.537
74757W        W38514  15.739  14.109   1.742
74758W        W38515   6.782  14.215   2.686
74759W        W38516  31.409   7.729  12.865
74760W        W38517   8.883  13.681  10.913
74761W        W38518  14.664  31.445   0.748
74762W        W38519  39.985  23.728  14.933
74763W        W38520  17.586  37.526   3.796
74764W        W38521  14.200  34.931   5.152
74765W        W38522  37.064  40.911   2.807
74766W        W38523  27.145  22.025  11.924
74767W        W38524   0.352  20.200   3.302
74768W        W38525  31.136  40.319   4.346
74769W        W38526   4.734   8.226  12.464
74770W        W38527  16.264  16.201  11.511
74771W        W38528  41.941  14.591   0.881
74772W        W38529  37.353  30.532   1.935
74773W        W38530  20.707  15.256  12.947
74774W        W38531  10.227  20.657  14.377
74775W        W38532  28.062  23.187   2.297
74776W        W38533   5.194   3.232   1.767
74777W        W38534  21.636  22.055  10.994
74778W        W38535   9.264  33.097  14.459
74779W        W38536  23.161  41.389   2.686
74780W        W38537   8.335  24.026  14.786
74781W        W38538  27.149  22.224   0.959
74782W        W38539  21.122  26.667  14.434
74783W        W38540  22.653   7.219  11.510
74784W        W38541  33.941  30.125  12.373
74785W        W38542   9.322   2.736   4.755
74786W        W38543  40.833  11.365  11.582
74787W        W38544   6.396  40.419  14.805
74788W        W38545  40.472  30.658   0.474
74789W        W38546   8.380  35.904   3.373
74790W        W38547  11.342   1.795  11.991
74791W        W38548  18.145  15.735  11.404
74792W        W38549   4.745  10.352  12.088
74793W        W38550  19.232  17.615  13.972
74794W        W38551  34.577  23.998  12.907
74795W        W38552   6.906  41.795  14.443
74796W        W38553  38.559  34.117   2.292
74797W        W38554  29.067   1.331  13.910
74798W        W38555  15.228   0.298  12.931
74799W        W38556   0.343   5.812  10.606
74800W        W38557  25.101  38.555   2.234
74801W        W38558  43.880  35.469   3.694
74802W        W38559  11.220   9.855   0.347
74803W        W38560  15.158   1.820   4.624
74804W        W38561  36.390  44.479   4.243
74805W        W38562   4.783   0.904  11.959
74806W        W38563  40.864  13.791  13.372
74807W        W38564   0.301  19.736  13.987
74808W        W38565  41.994  32.987   1.757
74809W        W38566  41.790  30.419   5.094
74810W        W38567  22.503  23.719  14.309
74811W        W38568  26.637  28.171   3.382
74812W        W38569   3.746  34.413  12.448
74813W        W38570  11.353  35.382  14.975
74814W        W38571  14.824   5.198   0.894
74815W        W38572  14.307  34.039   0.910
74816W        W38573  28.112  36.099   2.888
74817W        W38574  38.424  37.411   4.602
74818W        W38575   8.778   3.855  11.987
74819W        W38576   8.743   0.832  10.556
74820W        W38577  43.772  12.124   2.700
74821W        W38578   9.305  44.413  13.035
74822W        W38579  33.128  19.622   3.250
74823W        W38580   9.774  33.530   2.224
74824W        W38581  29.617  43.483   4.196
74825W        W38582   6.328  34.538  14.412
74826W        W38583  12.276  36.435  11.038
74827W        W38584  33.442  32.633   0.781
74828W        W38585  43.788  16.667  11.055
74829W        W38586  13.174   5.928  14.429
74830W        W38587  31.935   2.960   4.671
74831W        W38588  34.463  31.929   4.213
74832W        W38589   2.861  11.275   3.649
74833W        W38590  23.495  35.551  14.939
74834W        W38591  31.595  20.584  13.503
74835W        W38592   7.353  17.656   2.700
74836W        W38593  39.063   8.268  13.460
74837W        W38594  12.739  44.971  13.421
74838W        W38595  29.134   0.829   2.749
74839W        W38596  34.971  40.447   0.242
74840W        W38597  24.580  36.445   1.894
74841W        W38598  42.848  42.791   1.393
74842W        W38599   8.166  12.836  10.556
74843W        W38600  10.145  24.113   4.704
74844W        W38601  30.089  25.470   0.343
74845W        W38602  12.291   0.407  12.463
74846W        W38603  27.025  29.557   2.201
74847W        W38604  28.162   6.792  13.513
74848W        W38605  41.850   9.717  10.906
74849W        W38606  19.542  38.992  14.503
74850W        W38607   2.783  36.991  14.853
74851W        W38608  10.652  18.200  14.382
74852W        W38609  36.429  43.422  13.011
74853W        W38610  44.770  19.658   3.265
74854W        W38611   0.427  20.526  14.829
74855W        W38612  14.307   9.864  13.010
74856W        W38613  17.589  22.047   3.206
74857W        W38614   4.340  24.723  12.994
74858W        W38615  34.873  36.415  12.857
74859W        W38616  27.035  38.987  13.502
74860W        W38617  22.737  25.626   2.212
74861W        W38618  20.087  17.161  14.798
74862W        W38619   5.778  42.406  13.499
74863W        W38620  13.322   0.365   1.904
74864W        W38621  32.398  18.787   0.753
74865W        W38622  42.837  24.013   4.221
74866W        W38623  35.880  26.017   0.357
74867W        W38624   6.916  38.570   4.613
74868W        W38625  36.900   7.228  14.955
74869W        W38626  41.322  21.713   2.399
74870W        W38627  27.970  41.832   4.763
74871W        W38628  35.544  24.023  10.997
74872W        W38629  41.440  32.458  10.625
74873W        W38630  31.953  31.140   2.197
74874W        W38631  39.554  16.602   3.828
74875W        W38632  31.976  31.904   3.206
74876W        W38633  36.997  33.609  11.507
74877W        W38634  12.713  10.157  14.026
74878W        W38635  38.852  23.119   2.204
74879W        W38636  24.624  18.701   4.275
74880W        W38637  24.637  32.033  12.082
74881W        W38638  39.020  32.006   1.928
74882W        W38639  18.756  27.157   3.639
74883W        W38640  26.498  36.951  12.385
74884W        W38641  24.073  39.862  11.457
74885W        W38642  14.683  23.637  13.003
74886W        W38643  33.883  43.804   0.917
74887W        W38644  13.289  21.053   4.272
74888W        W38645  40.004  32.461   1.376
74889W        W38646  11.738   3.346  13.971
74890W        W38647  27.642  32.553   3.641
74891W        W38648  33.469   3.918   4.653
74892W        W38649  23.085  27.173  12.494
74893W        W38650  40.992   2.882  12.836
74894W        W38651  34.520  36.360   2.369
74895W        W38652  35.474   8.186   4.254
74896W        W38653  36.884  18.690   0.889
74897W        W38654  10.765   3.272   3.367
74898W        W38655  34.075  23.064  12.366
74899W        W38656  17.251  16.628   4.351
74900W        W38657  36.092  18.284   4.625
74901W        W38658  20.666  15.112   2.338
74902W        W38659  39.352  35.596  12.011
74903W        W38660  30.966  12.175  13.806
74904W        W38661   4.863  13.263   3.323
74905W        W38662  26.985   0.466   4.811
74906W        W38663   1.767  20.222  12.870
74907W        W38664  39.928  17.267   2.811
74908W        W38665   0.327  22.632   4.307
74909W        W38666   9.792  20.572  12.524
74910W        W38667  32.466  39.847  14.868
74911W        W38668  18.684  43.902   1.921
74912W        W38669  13.671  16.727  13.954
74913W        W38670  39.510  10.870  11.430
74914W        W38671  14.134  14.100   0.788
74915W        W38672  20.118  25.650  12.557
74916W        W38673  13.690   3.361  12.045
74917W        W38674  41.902  13.695  10.900
74918W        W38675  14.248   8.317  13.511
74919W        W38676  15.140  13.321   3.679
74920W        W38677   8.377  44.947  10.590
74921W        W38678  25.546   5.877  12.530
74922W        W38679  26.592  29.614   1.336
74923W        W38680  42.024   7.891  14.930
74924W        W38681  37.931  16.576  12.827
74925W        W38682  25.158  30.989  12.979
74926W        W38683  32.946   0.279  12.362
74927W        W38684   0.396  42.863  14.298
74928W        W38685  29.486  15.263   3.352
74929W        W38686   2.403  17.138   2.256
74930W        W38687  22.997  17.740   0.476
74931W        W38688   7.728   2.451   0.325
74932W        W38689   1.806  31.027  13.001
74933W        W38690  10.672  12.786  11.882
74934W        W38691  22.035  39.820  13.937
74935W        W38692   9.676   1.965  13.540
74936W        W38693  27.497  27.159   0.362
74937W        W38694   9.879   3.944  13.832
74938W        W38695  21.615  36.348  10.969
74939W        W38696  32.952  24.096  12.463
74940W        W38697   4.366  11.647   4.283
74941W        W38698  36.845   4.870  10.614
74942W        W38699  36.029  35.506   4.705
74943W        W38700  30.027  10.707   0.248
74944W        W38701  21.026   9.322  14.894
74945W        W38702  11.296  37.463  13.795
74946W        W38703  36.399   1.937   2.376
74947W        W38704  31.900  29.518   4.162
74948W        W38705  40.543  43.419  14.462
74949W        W38706   7.827  38.839  13.998
74950W        W38707  38.964  29.018   3.809
74951W        W38708   8.671  27.514   9.955
74952W        W38709  34.379   3.944  14.861
74953W        W38710  18.276  10.779  12.987
74954W        W38711  43.834  39.884   4.651
74955W        W38712  28.972  25.029   1.776
74956W        W38713  35.417  14.289   1.792
74957W        W38714  26.182  11.351   2.273
74958W        W38715  39.968  43.776   1.339
74959W        W38716  32.403   0.786   3.830
74960W        W38717  24.538  32.535   4.769
74961W        W38718  22.528  32.103   3.813
74962W        W38719   3.735  40.800  10.468
74963W        W38720  22.996   7.264  13.985
74964W        W38721   2.259  19.749  10.106
74965W        W38722  12.342  39.869   3.664
74966W        W38723  15.615  37.963  11.554
74967W        W38724   7.265  30.491  10.532
74968W        W38725  23.635  26.042  14.280
74969W        W38726  39.366  32.501  14.818
74970W        W38727  43.002  32.964   2.745
74971W        W38728  30.540   4.422  14.805
74972W        W38729  13.812  36.458   1.226
74973W        W38730  31.488  22.240   0.924
74974W        W38731  42.281  19.725   1.352
74975W        W38732  22.208  44.927  12.894
74976W        W38733  42.382  19.710   0.410
74977W        W38734  40.475   8.217  14.418
74978W        W38735  36.068  25.594  11.378
74979W        W38736   0.412  24.999  12.852
74980W        W38737   7.909  29.148  13.309
74981W        W38738   7.870  19.182   0.411
74982W        W38739  26.464  10.301   3.248
74983W        W38740  25.138  27.582  10.992
74984W        W38741  21.630  38.965  10.031
74985W        W38742  13.823  30.599   3.677
74986W        W38743  15.261  10.819  12.847
74987W        W38744  15.264  20.538  11.417
74988W        W38745  11.790   6.186   3.856
74989W        W38746   8.877  10.689  14.948
74990W        W38747   7.715  41.031  10.600
74991W        W38748  23.214  30.514  11.122
74992W        W38749  39.365  32.982  14.341
74993W        W38750   8.749  30.964  11.576
74994W        W38751  39.455  20.588   0.311
74995W        W38752   8.681  21.609   4.636
74996W        W38753  36.015  43.399  11.083
74997W        W38754  38.940  21.165   2.272
74998W        W38755  18.218  24.504   4.823
74999W        W38756  20.153  25.496  14.004
75000W        W38757  19.664  18.646  10.461
75001W        W38758  24.499  23.065  13.542
75002W        W38759  26.078  11.332  10.632
75003W        W38760  11.331   9.244   2.719
75004W        W38761  16.731  36.431   3.704
75005W        W38762   1.261  39.909  13.054
75006W        W38763  30.058   9.393  12.027
75007W        W38764  21.639   0.979  10.956
75008W        W38765   0.742   2.860   3.837
75009W        W38766   4.207   0.444  12.417
75010W        W38767   9.254  38.895   2.268
75011W        W38768  17.135   2.399  13.466
75012W        W38769  11.756  34.013  13.030
75013W        W38770  23.009  38.569   3.727
75014W        W38771  12.620   4.792   1.434
75015W        W38772  14.193  43.921   1.367
75016W        W38773  38.496  31.621   0.929
75017W        W38774  30.609   4.799  13.868
75018W        W38775  25.472  25.500  10.563
75019W        W38776  14.815  28.937  13.928
75020W        W38777  19.653  13.308  13.057
75021W        W38778  27.453   5.771  12.416
75022W        W38779  32.450  32.464  11.559
75023W        W38780  28.441  27.534   2.207
75024W        W38781  39.058   4.913   2.696
75025W        W38782  22.066  28.020  12.406
75026W        W38783  12.801  35.539  14.781
75027W        W38784  17.682  10.742  13.533
75028W        W38785  10.344  15.696  11.114
75029W        W38786   9.686   4.228   4.249
75030W        W38787  17.206   0.352  12.365
75031W        W38788  10.706  41.852   0.369
75032W        W38789  38.336  29.997  12.408
75033W        W38790  13.308  44.405   2.406
75034W        W38791  26.050  15.116  13.465
75035W        W38792  44.772  20.607  14.292
75036W        W38793  22.544  14.326   2.891
75037W        W38794  40.936  33.893   3.157
75038W        W38795  22.527   3.720   1.702
75039W        W38796  44.760  11.723  14.412
75040W        W38797  22.251  28.998  14.919
75041W        W38798  33.089  18.201   3.831
75042W        W38799  30.606   7.798   0.393
75043W        W38800  16.295   7.243  14.848
75044W        W38801  14.669   9.359  11.122
75045W        W38802  40.306  13.114   0.380
75046W        W38803  44.280  18.240   0.840
75047W        W38804   5.704  29.144  14.298
75048W        W38805  43.440  17.733  11.919
75049W        W38806  11.726  24.225  13.000
75050W        W38807  22.514  33.917  14.930
75051W        W38808   0.420  38.516   3.648
75052W        W38809   7.824  10.187   4.259
75053W        W38810  19.726  41.387   3.770
75054W        W38811  16.585   6.769   3.313
75055W        W38812  10.345  35.863  11.584
75056W        W38813   3.435  34.980   2.899
75057W        W38814   1.817   1.878  14.812
75058W        W38815  28.166  41.337   2.386
75059W        W38816  11.322   0.979  12.530
75060W        W38817   2.401  34.489   2.752
75061W        W38818  17.734  18.150  11.472
75062W        W38819  38.953  33.462   3.714
75063W        W38820  23.235  19.169  10.503
75064W        W38821   3.251  14.695   0.481
75065W        W38822  32.124   5.819   2.676
75066W        W38823  26.644  42.026  14.878
75067W        W38824   1.477  34.596  10.957
75068W        W38825   8.757  11.735  12.389
75069W        W38826   4.728  17.299  14.007
75070W        W38827  37.057  26.169   1.304
75071W        W38828  14.206  36.884  12.342
75072W        W38829  42.860  41.894   1.368
75073W        W38830  16.095  35.417  14.971
75074W        W38831  35.987  14.245  14.009
75075W        W38832  18.696  41.519  15.000
75076W        W38833  34.908  44.998  14.780
75077W        W38834  16.077   2.306   3.154
75078W        W38835  41.409   2.805  14.811
75079W        W38836  40.022  16.673  14.292
75080W        W38837  41.321  19.548   2.679
75081W        W38838  36.005  40.452   3.331
75082W        W38839  26.485  19.207   0.372
75083W        W38840   0.850  18.686  10.943
75084W        W38841  22.571  44.989  13.996
75085W        W38842   2.423  43.483  11.032
75086W        W38843   8.873  37.029  12.479
75087W        W38844  40.387  26.688   0.801
75088W        W38845  35.011  33.384   2.729
75089W        W38846   4.441   8.714   4.187
75090W        W38847  22.077  26.058   4.227
75091W        W38848  42.966   2.902  12.961
75092W        W38849  38.006   3.946  11.547
75093W        W38850  13.135   7.285  14.804
75094W        W38851  40.048  36.862  12.953
75095W        W38852  16.756  39.344   2.816
75096W        W38853  41.030  43.943  14.393
75097W        W38854  43.511  25.032   4.778
75098W        W38855  30.566   7.834   4.149
75099W        W38856  26.008  44.875   4.639
75100W        W38857   5.250   4.334   3.352
75101W        W38858  34.914  27.488   1.334
75102W        W38859  32.532  42.859   1.743
75103W        W38860  15.751  18.547   1.929
75104W        W38861  44.382  17.642   4.781
75105W        W38862   8.853   6.263  11.482
75106W        W38863  29.922  42.373  11.431
75107W        W38864  24.998  15.678  14.793
75108W        W38865  17.102  40.832  10.915
75109W        W38866   9.154  11.810   2.824
75110W        W38867  31.564  44.364   4.752
75111W        W38868  14.781  25.152  14.936
75112W        W38869  32.940   2.730  11.897
75113W        W38870  43.876   3.931   0.898
75114W        W38871  44.460  41.308  10.578
75115W        W38872   2.377  25.659  12.931
75116W        W38873  41.342  28.174   0.894
75117W        W38874  25.659  43.979  13.934
75118W        W38875  38.533  25.084  11.612
75119W        W38876  32.065  19.122   0.756
75120W        W38877   6.722  37.517   3.316
75121W        W38878  33.096  15.278  14.032
75122W        W38879  14.296  30.120   3.238
75123W        W38880  42.889  32.899  13.862
75124W        W38881  15.626  34.432   0.426
75125W        W38882  19.765  40.378  11.922
75126W        W38883  30.147   2.321  12.378
75127W        W38884  19.562   2.247   4.218
75128W        W38885  10.856  11.217  10.947
75129W        W38886   8.870  32.532  12.977
75130W        W38887   7.682  11.680  13.388
75131W        W38888  39.447  23.014   3.834
75132W        W38889   3.289  16.729   2.879
75133W        W38890   1.972   1.466  14.391
75134W        W38891  16.075   2.833   1.308
75135W        W38892  19.730   8.791   4.202
75136W        W38893  21.595   0.251   4.773
75137W        W38894  30.636  32.506   4.823
75138W        W38895  15.681  37.904   4.137
75139W        W38896  18.584  21.151   0.937
75140W        W38897  13.141  21.257  14.284
75141W        W38898  15.109  24.095   2.808
75142W        W38899   0.383  36.877  12.934
75143W        W38900  35.406  20.269  12.078
75144W        W38901   9.364  20.171  14.959
75145W        W38902  34.014  38.035   0.870
75146W        W38903  24.015  14.750  11.568
75147W        W38904  13.310  34.374   1.380
75148W        W38905  25.209   2.837   3.735
75149W        W38906  44.468  29.018  10.924
75150W        W38907  19.275   8.330   0.271
75151W        W38908   3.766  40.444  14.484
75152W        W38909  15.142  24.040  13.387
75153W        W38910   5.894  19.192   2.331
75154W        W38911  27.558  11.785   4.136
75155W        W38912  18.703  30.140   0.832
75156W        W38913  32.541  27.024  12.544
75157W        W38914   9.712  10.708   2.662
75158W        W38915   4.738   8.305   2.215
75159W        W38916  27.476   8.881   3.817
75160W        W38917  20.622  25.074   1.884
75161W        W38918  22.167  32.569  13.440
75162W        W38919  23.698   2.291   2.319
75163W        W38920   6.275   7.208  12.848
75164W        W38921  33.930  40.898  13.893
75165W        W38922  42.521  41.433  13.885
75166W        W38923  10.731  28.448   3.299
75167W        W38924  20.082   6.818  12.841
75168W        W38925  41.034  38.536  10.416
75169W        W38926  35.041  27.946   2.685
75170W        W38927  23.729   7.185   1.916
75171W        W38928  13.808   3.448   4.179
75172W        W38929  36.050  41.538  13.001
75173W        W38930  29.557  32.016  10.486
75174W        W38931  43.770   0.797  13.949
75175W        W38932  30.079  12.245   0.363
75176W        W38933   2.888  44.370  14.408
75177W        W38934   3.398  20.084   5.089
75178W        W38935  33.440  14.219  13.497
75179W        W38936  29.014   7.704  14.012
75180W        W38937  25.643  42.890  10.978
75181W        W38938  31.571  12.205  13.309
75182W        W38939  10.204  32.128   0.889
75183W        W38940  11.131  17.710   1.217
75184W        W38941  37.374   0.345  13.843
75185W        W38942  25.131  25.175  14.920
75186W        W38943  26.529  21.622   4.806
75187W        W38944  27.532  23.988   9.672
75188W        W38945  44.958  34.088   3.648
75189W        W38946  17.079  38.374   4.765
75190W        W38947   1.797   8.269  11.490
75191W        W38948  22.503   4.889  13.822
75192W        W38949  13.670  14.313   3.797
75193W        W38950  42.856   4.375  10.481
75194W        W38951  41.446  30.066  10.534
75195W        W38952  21.158  40.471  11.404
75196W        W38953  43.365   2.423  13.905
75197W        W38954  31.471   0.961  10.961
75198W        W38955   9.339  18.665   3.866
75199W        W38956   8.376  22.712  14.446
75200W        W38957  38.518  18.063   2.271
75201W        W38958  18.124  17.204  10.996
75202W        W38959  36.529  24.647  14.375
75203W        W38960  16.108  32.987  14.899
75204W        W38961  31.041   9.319   4.249
75205W        W38962  41.955  17.740   4.236
75206W        W38963  20.690   0.369  12.026
75207W        W38964  43.996  11.752   4.752
75208W        W38965  10.262   5.384   3.679
75209W        W38966  43.008  29.158  10.482
75210W        W38967  44.995  23.644  13.923
75211W        W38968  36.088  30.416   2.832
75212W        W38969   3.344  20.150   0.786
75213W        W38970  40.005  42.925   4.658
75214W        W38971  19.093  21.223  10.635
75215W        W38972  23.489  29.114   1.766
75216W        W38973   7.347   7.404   2.862
75217W        W38974   2.279  33.581   0.332
75218W        W38975  41.828  35.397  11.012
75219W        W38976  39.061  16.730  10.473
75220W        W38977  14.796  43.962   3.796
75221W        W38978  37.569  30.934   5.173
75222W        W38979  33.598  29.430   1.442
75223W        W38980  25.046  16.102  11.110
75224W        W38981  25.488  40.513   4.812
75225W        W38982   7.272  44.260  11.388
75226W        W38983  13.133  11.859  11.556
75227W        W38984  22.746  12.711  14.443
75228W        W38985   9.174  26.206   4.282
75229W        W38986  43.381  24.087   4.777
75230W        W38987  14.180  17.758  11.037
75231W        W38988  31.097  13.838  13.871
75232W        W38989  31.485   5.810   0.416
75233W        W38990  42.491  26.021   2.720
75234W        W38991  30.457   7.229  10.508
75235W        W38992  41.488  31.537  11.386
75236W        W38993  34.976  25.584   3.674
75237W        W38994  12.709  31.620   0.286
75238W        W38995   7.240  15.170  11.001
75239W        W38996  39.500  39.969  14.482
75240W        W38997  37.003  34.469   3.825
75241W        W38998  12.203   2.892   4.289
75242W        W38999  24.675  20.061  14.856
75243W        W39000  32.972  29.573  12.353
75244W        W39001   9.790  10.683  11.542
75245W        W39002  25.007  34.424   1.252
75246W        W39003  38.390  35.380  11.490
75247W        W39004  23.677  34.959  12.447
75248W        W39005  17.756  29.452  12.950
75249W        W39006  24.480  26.629   5.282
75250W        W39007  27.618   0.912   3.364
75251W        W39008  44.343  36.950   1.249
75252W        W39009  31.059  23.672   2.285
75253W        W39010  38.433  34.415   0.478
75254W        W39011  27.652  44.417  14.393
75255W        W39012   4.761  22.663   1.302
75256W        W39013   0.446   5.889  14.973
75257W        W39014   4.222   0.796  11.022
75258W        W39015   7.307  25.141   2.252
75259W        W39016  14.273  32.005   3.665
75260W        W39017  16.187  31.584   2.871
75261W        W39018  27.634  21.069  11.399
75262W        W39019   5.797  33.974  14.927
75263W        W39020   1.828  43.909  10.419
75264W        W39021   5.759  38.518  12.894
75265W        W39022  44.338   1.244  14.964
75266W        W39023  21.670  12.761  12.483
75267W        W39024  42.948  44.863  11.598
75268W        W39025  14.260   3.920  14.938
75269W        W39026   9.677  27.005  14.779
75270W        W39027  27.122  23.997   3.687
75271W        W39028  33.416  40.373  13.544
75272W        W39029   3.362  37.434  10.435
75273W        W39030   9.297  15.669   3.200
75274W        W39031   1.882  11.714  14.014
75275W        W39032  27.478   2.338  14.872
75276W        W39033  34.400  40.865   4.290
75277W        W39034  37.839  40.533  13.001
75278W        W39035  12.836   1.865  14.311
75279W        W39036  32.610   6.794  14.896
75280W        W39037  12.642  14.806  14.480
75281W        W39038   0.897  29.508   4.727
75282W        W39039  43.010  28.629   2.395
75283W        W39040  16.208  41.336   1.276
75284W        W39041  35.457  30.057   5.272
75285W        W39042  38.401  36.060  12.006
75286W        W39043  36.918  18.774  14.023
75287W        W39044   3.852  30.043  11.926
75288W        W39045  21.026   3.295  14.984
75289W        W39046  12.672  44.782   0.827
75290W        W39047  22.139  25.691  10.977
75291W        W39048  29.581   9.767   3.208
75292W        W39049  18.193  40.342  14.832
75293W        W39050  18.672  30.085   4.350
75294W        W39051  33.926  29.645   9.956
75295W        W39052  22.526  10.641  10.075
75296W        W39053   9.704  27.092   0.889
75297W        W39054  22.199   3.767  11.982
75298W        W39055  14.672  30.432   2.896
75299W        W39056  36.971  29.934  11.374
75300W        W39057  10.680  25.202   1.866
75301W        W39058   5.388  16.679   4.609
75302W        W39059   5.834  19.232   4.218
75303W        W39060  36.383   1.250  10.961
75304W        W39061  11.197  44.862   1.826
75305W        W39062  11.169  18.197   2.404
75306W        W39063   4.882  24.038   4.267
75307W        W39064  13.329   6.259   4.145
75308W        W39065   8.813  26.684  14.945
75309W        W39066  26.477  18.116   1.246
75310W        W39067  39.936  26.679   4.123
75311W        W39068  23.027  24.025   3.287
75312W        W39069   5.883  44.286  10.589
75313W        W39070  29.026  23.560   3.742
75314W        W39071  44.853   9.260   0.311
75315W        W39072   7.737  44.421  11.012
75316W        W39073  30.568  12.740   1.836
75317W        W39074   9.303  36.417  11.543
75318W        W39075  30.423  41.971   5.213
75319W        W39076  18.566   5.796   3.323
75320W        W39077  23.517  39.421   2.378
75321W        W39078   5.792  33.088   1.782
75322W        W39079  31.922  29.651   0.341
75323W        W39080   7.336  27.511   3.202
75324W        W39081  30.495  44.376   2.257
75325W        W39082  12.276  30.986   0.286
75326W        W39083  40.453  16.763  13.334
75327W        W39084  23.722  24.526   5.092
75328W        W39085  31.092  26.563   4.748
75329W        W39086   6.698  43.777  14.407
75330W        W39087  19.630  31.920   2.344
75331W        W39088  21.743  23.545   3.276
75332W        W39089  44.877   6.814  14.002
75333W        W39090   2.461  26.629   2.241
75334W        W39091   6.818  23.590   2.204
75335W        W39092  14.675  35.095   1.847
75336W        W39093  35.050  25.109   1.332
75337W        W39094  37.884  30.420   4.804
75338W        W39095  42.513  23.164   0.913
75339W        W39096  41.342  13.243  12.504
75340W        W39097  24.676  21.697  13.398
75341W        W39098   2.462  27.515   2.874
75342W        W39099   2.354   6.417   3.329
75343W        W39100  39.008  16.795  11.939
75344W        W39101  36.463   7.218   0.405
75345W        W39102  20.683   2.753   1.447
75346W        W39103  22.653   6.693   0.314
75347W        W39104  44.437   6.803   1.305
75348W        W39105  42.288  39.475  13.362
75349W        W39106  27.126  35.103  11.987
75350W        W39107  44.380  16.710   3.222
75351W        W39108   8.747  10.201   2.229
75352W        W39109  37.962  38.344  14.803
75353W        W39110  33.072  26.577   2.268
75354W        W39111   7.314  14.321  11.406
75355W        W39112  20.047  12.188  11.029
75356W        W39113  14.780  43.308   9.941
75357W        W39114  37.577  31.983  14.959
75358W        W39115   2.342  29.997   1.444
75359W        W39116  41.862  15.726  11.020
75360W        W39117  37.436  22.074  11.591
75361W        W39118  31.593  20.711  11.017
75362W        W39119  18.249  29.465   3.706
75363W        W39120  37.963   6.185  13.435
75364W        W39121   0.371  10.867   1.247
75365W        W39122   0.401  34.026  11.881
75366W        W39123   5.691  14.615   0.738
75367W        W39124  38.477  31.532   1.862
75368W        W39125  11.724  35.453  14.801
75369W        W39126  44.412  24.718   1.440
75370W        W39127  17.605  29.473   1.326
75371W        W39128   6.312  14.335  11.507
75372W        W39129   3.904  40.960  13.473
75373W        W39130   5.409   0.456   1.799
75374W        W39131  34.043  23.050   3.668
75375W        W39132  38.886   1.397   2.239
75376W        W39133   0.932   6.228   4.613
75377W        W39134  29.442  30.069   2.740
75378W        W39135  14.172  14.204  13.851
75379W        W39136  39.343  12.842  12.378
75380W        W39137   1.803  23.521   3.693
75381W        W39138  21.638  44.464   2.343
75382W        W39139  26.003  16.265   2.402
75383W        W39140  22.164  25.499   3.642
75384W        W39141  16.075  18.295  13.021
75385W        W39142  16.129  39.545  13.429
75386W        W39143  12.290  42.456  13.476
75387W        W39144  10.237   0.881  14.507
75388W        W39145  33.466  13.609  11.397
75389W        W39146  42.302  22.512   3.763
75390W        W39147  23.612  18.146  11.968
75391W        W39148  19.727   7.696  11.613
75392W        W39149  10.771  22.623  12.942
75393W        W39150  19.756  13.785   4.206
75394W        W39151  10.143  43.780  12.898
75395W        W39152   3.367  22.650  13.059
75396W        W39153   7.809  40.467   2.673
75397W        W39154  31.470   9.758  12.901
75398W        W39155  18.114  26.675   4.165
75399W        W39156   3.931  38.392   3.705
75400W        W39157  11.190  15.106   3.239
75401W        W39158  44.778  20.616   3.149
75402W        W39159   6.316  24.157   3.348
75403W        W39160  34.012  27.528  14.905
75404W        W39161  28.441  35.484  14.799
75405W        W39162   8.699   5.199   1.227
75406W        W39163  11.744  26.642  11.953
75407W        W39164  20.174  14.181  10.937
75408W        W39165  41.864  32.059  10.012
75409W        W39166  13.203  43.411   5.107
75410W        W39167   3.320   7.768   1.367
75411W        W39168  25.712   2.747   0.411
75412W        W39169  28.472  17.776  12.351
75413W        W39170  31.004  42.854  13.541
75414W        W39171   4.910  36.923   9.925
75415W        W39172  17.675  14.716  14.821
75416W        W39173  28.537   3.447   4.633
75417W        W39174   8.378  36.891   4.700
75418W        W39175   0.753   5.889   0.354
75419W        W39176  38.957  15.690   1.245
75420W        W39177  15.630  21.229   2.394
75421W        W39178  27.969   1.432  14.354
75422W        W39179  21.541  31.434  13.872
75423W        W39180  37.509  19.054   1.441
75424W        W39181   5.300  40.998   2.842
75425W        W39182  10.867  31.021   0.930
75426W        W39183   6.825  37.920   2.895
75427W        W39184   5.363  29.617  12.850
75428W        W39185  10.853  32.108   2.334
75429W        W39186  36.486   0.893  12.095
75430W        W39187  13.149  33.115  11.050
75431W        W39188  12.723  36.986   3.796
75432W        W39189  42.905  10.721  11.501
75433W        W39190  40.495  24.988   2.888
75434W        W39191  23.041  18.068   1.747
75435W        W39192  22.504   9.149   4.727
75436W        W39193  24.064  32.970   4.323
75437W        W39194  23.199  28.985  12.474
75438W        W39195  17.772   4.377   3.305
75439W        W39196  20.259  24.997  10.003
75440W        W39197  37.354  17.069   2.253
75441W        W39198  15.714  37.370   1.877
75442W        W39199  16.600  31.630   2.661
75443W        W39200  11.160  26.537  14.410
75444W        W39201   2.435   8.875  11.084
75445W        W39202   6.262   5.756   3.811
75446W        W39203  39.426  15.151   2.209
75447W        W39204   4.906  42.945  14.944
75448W        W39205  35.982  44.805   3.720
75449W        W39206   9.268  40.544  10.135
75450W        W39207  36.933   3.906   2.889
75451W        W39208  37.498  19.563   0.885
75452W        W39209  24.668  22.995  12.021
75453W        W39210  27.053  24.685  13.961
75454W        W39211   3.430  13.818   4.261
75455W        W39212  22.512  19.721   4.835
75456W        W39213  28.489   1.349  11.496
75457W        W39214  22.070  11.350  14.887
75458W        W39215  25.034   6.805  14.789
75459W        W39216  14.724  23.489   0.806
75460W        W39217  36.517  10.876  12.348
75461W        W39218  28.535   7.818  14.389
75462W        W39219  38.449  22.610  14.434
75463W        W39220  42.362  13.825   1.727
75464W        W39221   3.812  44.351   5.226
75465W        W39222  21.135  34.045  10.462
75466W        W39223  18.759  26.975  14.770
75467W        W39224  17.161  17.234  14.012
75468W        W39225  14.101  10.662  14.985
75469W        W39226  11.324  40.382  11.094
75470W        W39227  21.129   5.409  12.831
75471W        W39228   0.291  29.957  10.994
75472W        W39229  17.267  28.940   5.220
75473W        W39230  10.724  27.595  14.445
75474W        W39231   9.805  10.822  11.073
75475W        W39232  17.285  19.607  13.033
75476W        W39233   7.384  11.794   0.766
75477W        W39234  40.307  13.266   3.229
75478W        W39235  37.958  15.113   3.166
75479W        W39236   2.273  10.765  14.904
75480W        W39237   6.701  18.637   2.306
75481W        W39238  31.109  33.444   2.838
75482W        W39239  20.722  23.053  14.773
75483W        W39240  21.582  30.569  13.357
75484W        W39241  21.626   7.286  14.797
75485W        W39242  20.088  33.380  14.980
75486W        W39243  38.358  38.940   2.889
75487W        W39244  39.462  35.070  10.571
75488W        W39245   6.239  35.598   4.606
75489W        W39246  11.350   1.444   2.368
75490W        W39247  19.570   1.839  14.976
75491W        W39248  38.514  35.435  12.430
75492W        W39249  11.133  36.944  12.396
75493W        W39250  11.364  39.472  14.976
75494W        W39251  31.472  30.137   3.351
75495W        W39252  16.115   4.760  14.944
75496W        W39253  19.249  20.705  10.525
75497W        W39254  10.138  31.015   3.231
75498W        W39255  30.636  38.516  11.984
75499W        W39256  29.425  20.529  12.060
75500W        W39257  13.781  44.350   2.792
75501W        W39258  27.477  12.118   0.905
75502W        W39259  35.501  10.292   0.388
75503W        W39260  33.085  18.293  12.055
75504W        W39261  30.646  30.509   3.831
75505W        W39262  41.954  37.894   0.277
75506W        W39263  21.079  12.785  10.450
75507W        W39264   4.921  15.736   1.897
75508W        W39265  39.442  18.141   2.205
75509W        W39266  40.367  24.160  11.034
75510W        W39267  27.512  42.377  11.457
75511W        W39268  44.445   3.275  14.432
75512W        W39269  40.879   3.318   0.418
75513W        W39270  40.988  25.968  13.513
75514W        W39271  30.041  31.478  11.542
75515W        W39272  34.605  19.695  14.479
75516W        W39273   8.235  28.656  11.107
75517W        W39274  20.130  11.171  11.466
75518W        W39275   2.430  34.051   1.842
75519W        W39276  35.978   6.347   1.823
75520W        W39277  29.546   5.215   1.908
75521W        W39278  36.529  21.544  13.016
75522W        W39279  36.492  16.711  14.456
75523W        W39280  20.265  32.911  12.542
75524W        W39281  38.524  40.384   0.319
75525W        W39282   8.327  34.059  11.534
75526W        W39283   7.257  16.207  10.961
75527W        W39284   3.252  44.872   3.266
75528W        W39285  29.969  43.512   4.137
75529W        W39286   2.757  32.392   2.869
75530W        W39287  33.416   6.701  12.953
75531W        W39288  16.780  44.449   2.282
75532W        W39289  22.691  29.132   0.820
75533W        W39290  16.780  18.572  10.534
75534W        W39291  24.701  26.181  10.963
75535W        W39292  31.574   4.925   2.833
75536W        W39293   4.747  39.007  13.459
75537W        W39294  37.032   6.331   4.146
75538W        W39295  11.141  36.469  11.445
75539W        W39296   8.760  22.556   4.742
75540W        W39297  20.658  14.341   5.644
75541W        W39298  29.638  13.800  12.347
75542W        W39299  15.280  21.552   1.257
75543W        W39300   1.337  18.789  11.028
75544W        W39301  43.921  41.520   3.323
75545W        W39302  21.718   8.750   5.129
75546W        W39303   2.320  31.066  12.961
75547W        W39304  14.716  34.069   4.702
75548W        W39305  15.815  30.936  11.945
75549W        W39306   1.373  41.477   3.183
75550W        W39307  23.084  25.154   1.377
75551W        W39308  43.419  13.667  10.437
75552W        W39309   4.412   2.394   0.840
75553W        W39310  37.503  28.994   3.662
75554W        W39311  11.724   8.370   3.706
75555W        W39312  32.505  26.994  11.941
75556W        W39313  42.807   4.894   9.951
75557W        W39314   1.282  34.531  10.501
75558W        W39315  29.976  43.944  13.045
75559W        W39316   8.273  25.097  10.454
75560W        W39317   0.440   4.328   3.773
75561W        W39318  20.096  19.556   1.238
75562W        W39319   3.812  33.584   0.383
75563W        W39320  30.457  44.272  11.119
75564W        W39321  13.708  27.024   1.410
75565W        W39322  24.703   0.897   3.243
75566W        W39323  16.084  24.133  11.897
75567W        W39324  43.808  13.130   1.879
75568W        W39325  11.807   1.835   0.760
75569W        W39326  36.352  21.042  12.089
75570W        W39327  11.331   5.319   4.689
75571W        W39328  25.107  34.094  14.956
75572W        W39329   8.736   9.839  14.293
75573W        W39330  28.492  40.526  14.441
75574W        W39331  19.568  40.339  11.016
75575W        W39332  16.270  18.744   3.386
75576W        W39333  11.819  24.722  13.321
75577W        W39334   2.798  14.155  11.548
75578W        W39335   5.335   5.711  12.077
75579W        W39336  41.019  25.129   3.346
75580W        W39337   3.787  10.736   2.852
75581W        W39338  28.477  41.447  14.776
75582W        W39339   1.440   9.678   3.703
75583W        W39340   2.890  20.145  11.106
75584W        W39341  21.612  21.021  10.533
75585W        W39342  20.710  33.562  13.394
75586W        W39343  29.478  10.704  14.282
75587W        W39344   2.741   6.230  13.509
75588W        W39345  36.089  32.998  12.910
75589W        W39346  20.091  37.463   2.227
75590W        W39347   4.211  24.053   3.638
75591W        W39348  41.879  37.964   3.653
75592W        W39349   3.330  28.016   0.826
75593W        W39350  43.862  23.587   2.804
75594W        W39351   4.436   0.988   4.632
75595W        W39352  23.728   6.869   4.742
75596W        W39353   1.832  23.588  10.898
75597W        W39354  26.171   6.250   0.899
75598W        W39355  23.130  32.142  14.889
75599W        W39356   8.683  24.143  10.483
75600W        W39357  39.336  41.995   3.383
75601W        W39358   3.311  26.142   1.791
75602W        W39359  25.131  30.427   1.307
75603W        W39360  43.960  13.176   3.773
75604W        W39361  21.652  44.344  12.929
75605W        W39362  32.109  23.715   1.373
75606W        W39363  43.426  24.218   1.305
75607W        W39364  34.401  11.278   2.706
75608W        W39365   5.223  12.313  14.361
75609W        W39366  37.494  33.475   3.287
75610W        W39367   4.867  28.180   4.260
75611W        W39368  22.502   5.341  10.547
75612W        W39369   0.777  28.664   0.903
75613W        W39370  41.431  12.174   3.776
75614W        W39371  44.827  41.018  11.380
75615W        W39372  18.742  37.445   3.259
75616W        W39373  33.001  12.154  13.849
75617W        W39374  31.613  11.230  14.948
75618W        W39375  19.752  24.226   1.390
75619W        W39376  17.767  39.356   2.726
75620W        W39377   4.780  18.729  14.996
75621W        W39378  44.961   6.186   2.785
75622W        W39379   1.933   2.740   4.616
75623W        W39380  40.447  33.968  11.477
75624W        W39381  41.963   3.792  11.583
75625W        W39382   7.909   3.954   2.674
75626W        W39383  32.545  24.082  12.946
75627W        W39384  10.194   8.833  12.580
75628W        W39385  13.322   2.300   0.820
75629W        W39386  22.626  41.038   2.362
75630W        W39387  34.487  36.956  14.931
75631W        W39388  27.541  42.471   4.177
75632W        W39389  19.620  32.050   5.085
75633W        W39390  42.498  18.700   2.855
75634W        W39391   0.297  11.826   4.799
75635W        W39392  19.540  16.596  10.087
75636W        W39393   8.319   8.363   3.825
75637W        W39394  15.693  18.691  14.865
75638W        W39395  35.471  12.797  14.954
75639W        W39396  16.755   1.948  10.889
75640W        W39397  18.145  30.932  14.495
75641W        W39398  37.516   7.202   0.902
75642W        W39399   1.780  10.207   3.238
75643W        W39400  15.306   4.872  13.808
75644W        W39401  34.379   7.174   1.798
75645W        W39402   9.777   3.327   1.217
75646W        W39403  32.626  36.962   2.897
75647W        W39404  29.538  20.672  14.459
75648W        W39405  13.264  24.148   3.650
75649W        W39406   1.731  14.165  13.519
75650W        W39407  41.360  26.124   2.255
75651W        W39408  33.471  17.619  14.333
75652W        W39409  39.526  40.846  11.879
75653W        W39410  32.091  42.779  11.580
75654W        W39411  29.011  36.957   1.853
75655W        W39412   4.348   7.343  14.360
75656W        W39413  42.408  32.893  11.409
75657W        W39414  34.597  38.562   4.730
75658W        W39415  32.457   3.225  12.380
75659W        W39416   0.396  22.585   3.180
75660W        W39417  16.169  17.146   0.427
75661W        W39418   1.416  39.965   1.278
75662W        W39419  17.577  35.472   2.315
75663W        W39420   7.296  23.073   4.165
75664W        W39421  14.240  29.028   4.279
75665W        W39422  18.576  40.328   0.342
75666W        W39423  22.130  44.376  12.026
75667W        W39424  44.884  26.685  10.409
75668W        W39425  17.233  42.526  10.530
75669W        W39426   9.206   9.234  11.511
75670W        W39427  26.958  17.302   1.888
75671W        W39428  35.060  18.106   2.331
75672W        W39429   2.433  36.916  10.614
75673W        W39430  12.334  27.583  10.889
75674W        W39431  19.245  31.634   0.375
75675W        W39432  28.995  40.893   0.957
75676W        W39433  15.093  38.993   4.609
75677W        W39434  18.661  35.596  11.943
75678W        W39435   8.363   6.356  12.524
75679W        W39436  21.579  19.178  10.423
75680W        W39437  20.644  39.429   3.186
75681W        W39438   9.856  34.913   4.165
75682W        W39439  17.063  31.087  12.078
75683W        W39440  10.298   6.423   3.352
75684W        W39441   6.287   3.250  14.862
75685W        W39442  25.032   1.833  12.900
75686W        W39443   1.863  42.429   3.859
75687W        W39444   9.842   2.377  12.478
75688W        W39445  14.195   4.217  10.610
75689W        W39446   6.351  20.249   0.400
75690W        W39447  19.586  10.698  10.563
75691W        W39448  29.484  22.591  10.042
75692W        W39449  44.911  30.447   4.640
75693W        W39450   4.400  22.554  14.814
75694W        W39451  20.581   5.367   2.199
75695W        W39452   0.421   0.831   1.734
75696W        W39453  44.399  18.268  13.410
75697W        W39454  13.810  29.481   1.433
75698W        W39455  28.064   0.910   4.274
75699W        W39456  25.112  25.709  12.985
75700W        W39457  29.036   0.760  12.833
75701W        W39458  40.797   0.479   4.729
75702W        W39459  38.400  26.156   3.870
75703W        W39460  31.055   9.713  14.031
75704W        W39461  41.811  23.139  11.028
75705W        W39462  22.520  35.938  13.799
75706W        W39463  39.044   0.981  11.578
75707W        W39464  17.779  25.048  11.490
75708W        W39465  19.642  16.617  10.644
75709W        W39466  11.791   1.329  13.947
75710W        W39467  38.475  36.408   0.336
75711W        W39468   1.866  23.195  11.529
75712W        W39469   4.811   5.859  10.635
75713W        W39470  14.625  13.739  12.479
75714W        W39471  28.482  38.953  10.954
75715W        W39472  29.543  44.905  13.966
75716W        W39473  19.540  43.973  13.425
75717W        W39474  30.650   0.341  14.025
75718W        W39475  18.771  34.877  13.851
75719W        W39476  44.355  42.969   4.306
75720W        W39477  34.929   0.789  14.866
75721W        W39478  26.608  31.526   3.171
75722W        W39479  19.260  21.547  11.044
75723W        W39480  14.719   7.269  12.542
75724W        W39481  34.898   6.370   4.148
75725W        W39482   2.260  26.980  14.485
75726W        W39483  35.076   2.348   1.725
75727W        W39484   8.328  21.244   2.891
75728W        W39485   8.230  20.132   2.371
75729W        W39486  12.163   2.833   1.820
75730W        W39487  43.428  25.608   1.927
75731W        W39488  29.134  28.945  14.511
75732W        W39489   5.859   8.357  14.863
75733W        W39490   1.394  33.061  11.501
75734W        W39491  25.212  30.029  13.528
75735W        W39492   9.726  21.206   2.266
75736W        W39493  25.084  26.676  12.829
75737W        W39494  34.430  41.292   1.316
75738W        W39495  16.731  24.511  11.069
75739W        W39496  12.668  24.487   2.305
75740W        W39497  17.242   8.899   0.895
75741W        W39498  29.453  36.071  13.382
75742W        W39499   7.690  40.820   0.894
75743W        W39500  42.843   9.771   0.783
75744W        W39501  21.657  11.197  12.354
75745W        W39502   2.847   7.263   0.733
75746W        W39503  35.384  16.690   2.741
75747W        W39504  11.184   6.902  12.832
75748W        W39505   3.868  27.520   0.758
75749W        W39506   2.421  19.753   4.269
75750W        W39507  17.139  21.725  13.901
75751W        W39508  30.073   9.366   4.275
75752W        W39509  31.597   3.268   3.332
75753W        W39510  13.602  14.784  12.872
75754W        W39511   9.270   9.384  10.452
75755W        W39512   6.290  31.539   4.243
75756W        W39513  44.424  22.134   1.305
75757W        W39514   2.373  27.098   4.151
75758W        W39515  22.671  23.219   2.241
75759W        W39516  24.134  35.977   1.314
75760W        W39517   1.456  33.502   4.131
75761W        W39518   5.274  40.834   3.236
75762W        W39519  44.944   6.285  12.376
75763W        W39520  27.529   1.819  12.085
75764W        W39521  15.639  40.000  14.760
75765W        W39522  15.647  10.832  10.127
75766W        W39523  29.924  18.147  14.427
75767W        W39524  31.492   5.897  12.361
75768W        W39525  41.480  33.620  12.559
75769W        W39526  18.236  13.707  13.873
75770W        W39527  16.645   0.256   5.108
75771W        W39528  21.166  31.977   2.312
75772W        W39529  22.574  42.496   2.842
75773W        W39530   2.869  24.505  12.407
75774W        W39531   2.277  10.192  14.788
75775W        W39532  14.635  32.614  13.805
75776W        W39533  12.687  42.906  14.453
75777W        W39534   8.848  30.653  12.355
75778W        W39535  36.386   6.346  11.955
75779W        W39536  11.736  41.885   1.415
75780W        W39537  39.481   0.344   2.417
75781W        W39538  10.283  18.156  11.595
75782W        W39539  16.729  39.917   3.164
75783W        W39540  18.069  10.849  14.297
75784W        W39541  44.951  43.990  10.609
75785W        W39542  26.520   2.755   1.258
75786W        W39543  42.838   1.271   2.262
75787W        W39544  14.292  15.686  13.892
75788W        W39545  44.359  30.493   3.299
75789W        W39546  10.798   0.832   3.718
75790W        W39547  14.334  16.317   1.756
75791W        W39548  36.364  31.132   1.922
75792W        W39549  44.381   7.417   1.285
75793W        W39550  14.781  29.967   3.281
75794W        W39551  31.418  14.164  11.066
75795W        W39552  25.476  26.117  13.037
75796W        W39553  31.930   8.334  14.804
75797W        W39554  44.839   2.848  12.893
75798W        W39555   5.734  28.011   0.746
75799W        W39556  15.590   8.325   2.715
75800W        W39557  17.578  29.037   0.247
75801W        W39558  17.581  43.271   4.176
75802W        W39559  39.946  17.152   2.419
75803W        W39560  25.111  23.522  11.384
75804W        W39561  32.042  15.258   1.437
75805W        W39562  14.618  21.625   2.676
75806W        W39563   3.219  21.087  12.434
75807W        W39564  39.955  21.141   5.149
75808W        W39565  38.841  27.176  14.799
75809W        W39566  35.064  18.654  13.950
75810W        W39567  29.622   1.850  11.893
75811W        W39568  31.611  34.016   3.830
75812W        W39569   8.220  40.330  11.072
75813W        W39570  30.159  34.607   4.286
75814W        W39571  11.812  19.565  11.423
75815W        W39572  28.138  10.192   4.308
75816W        W39573  17.580  30.000  12.375
75817W        W39574  13.718  35.551  13.406
75818W        W39575  42.387  37.993   2.198
75819W        W39576  26.516  10.731  11.023
75820W        W39577   0.944  37.379   2.813
75821W        W39578  18.747  10.278  12.547
75822W        W39579  29.115  31.452   3.371
75823W        W39580   7.890  37.078  13.854
75824W        W39581  14.609  15.322   1.264
75825W        W39582   0.885  18.722  14.839
75826W        W39583  14.635  24.175  12.479
75827W        W39584  44.777   0.430   0.400
75828W        W39585   0.313  32.078  13.829
75829W        W39586  22.584  38.981  10.116
75830W        W39587   2.231  43.416  12.418
75831W        W39588  25.554  43.348   2.790
75832W        W39589  33.516  24.622  12.868
75833W        W39590   1.784  13.698   0.895
75834W        W39591   4.707  29.661  14.297
75835W        W39592   7.677  19.681  10.122
75836W        W39593  10.835  25.641  14.927
75837W        W39594  24.560   5.270   2.183
75838W        W39595  18.165  31.441   0.878
75839W        W39596  19.217   0.877   3.188
75840W        W39597  43.440  42.421  11.412
75841W        W39598  18.596  22.679   5.314
75842W        W39599   3.344   8.870   4.705
75843W        W39600  32.426  38.976  14.434
75844W        W39601   8.230  37.378  12.915
75845W        W39602  44.489  32.575  13.920
75846W        W39603  19.199   1.906  10.989
75847W        W39604   7.369  26.510   3.341
75848W        W39605  32.893  28.943  14.931
75849W        W39606  15.254  39.831   2.744
75850W        W39607  41.884  43.791   0.411
75851W        W39608  43.391  39.334  12.890
75852W        W39609  43.901  35.557   2.406
75853W        W39610  36.374  23.116   1.294
75854W        W39611   6.371   3.290  13.526
75855W        W39612  12.361   3.274   1.438
75856W        W39613  32.024  33.395  11.072
75857W        W39614  42.823  43.429   2.691
75858W        W39615  31.948  27.543   0.311
75859W        W39616  31.108  33.421   1.886
75860W        W39617  26.088   4.833  13.880
75861W        W39618  43.803   8.179   4.333
75862W        W39619   4.798  24.565  13.319
75863W        W39620  22.563  43.971   3.669
75864W        W39621  39.402  41.398   2.844
75865W        W39622   3.309  20.141   2.288
75866W        W39623  22.716  22.684  11.023
75867W        W39624   5.710  44.481  14.279
75868W        W39625  43.835  23.026  11.047
75869W        W39626  27.108   3.841   0.312
75870W        W39627  36.054  30.525   1.306
75871W        W39628  13.119   2.283  11.556
75872W        W39629  14.166  38.855   4.813
75873W        W39630  16.805  19.707   4.698
75874W        W39631  14.731  35.009   4.160
75875W        W39632   2.900  19.111   2.293
75876W        W39633  36.938  40.315   1.737
75877W        W39634  11.353  35.515   3.701
75878W        W39635  15.304   1.389  11.015
75879W        W39636   7.279   4.867   3.784
75880W        W39637   9.720  17.109   1.740
75881W        W39638  39.440   1.270   0.766
75882W        W39639   5.300  28.980   2.876
75883W        W39640  18.087   5.779   1.230
75884W        W39641  31.012  21.550   4.640
75885W        W39642  10.713  17.240   1.807
75886W        W39643  38.847  34.598  11.469
75887W        W39644  30.113  31.942  13.994
75888W        W39645  39.057   0.797   2.401
75889W        W39646  40.965  32.950  13.911
75890W        W39647  39.929  39.342  14.369
75891W        W39648  27.590  31.501   1.793
75892W        W39649   6.901   6.331  13.453
75893W        W39650   8.834   4.903  12.354
75894W        W39651  12.229  24.484  11.449
75895W        W39652  14.820  17.201   1.324
75896W        W39653  20.264  19.184   2.876
75897W        W39654  23.080  16.623  13.432
75898W        W39655  15.597   1.338  13.352
75899W        W39656  42.398  24.605   3.162
75900W        W39657  22.667  26.567  14.900
75901W        W39658   5.865   8.871   3.644
75902W        W39659   9.804  38.992  10.544
75903W        W39660  33.597   3.294   2.787
75904W        W39661   7.804  32.586   4.710
75905W        W39662   7.694  38.862  13.417
75906W        W39663  39.956   3.833   4.669
75907W        W39664  23.049  21.108  11.882
75908W        W39665  43.020  36.489   3.229
75909W        W39666  21.146  26.066  10.469
75910W        W39667  18.143   3.417   4.124
75911W        W39668  42.846   2.371  12.558
75912W        W39669  20.563  31.075   0.296
75913W        W39670  26.194  43.378  14.821
75914W        W39671  44.416  27.490   3.201
75915W        W39672   2.841  23.024  12.972
75916W        W39673  39.452  31.414  12.462
75917W        W39674  34.458  15.266   1.911
75918W        W39675  34.438  39.986  13.370
75919W        W39676  19.573  34.440   3.296
75920W        W39677  31.438  33.899  12.041
75921W        W39678   0.984  14.791  12.349
75922W        W39679  35.550  31.498   3.816
75923W        W39680  41.402   8.738  11.916
75924W        W39681  14.339  30.646   3.703
75925W        W39682  21.543  19.713   3.213
75926W        W39683  24.663  29.086  11.969
75927W        W39684   9.353  32.462  14.503
75928W        W39685  13.815  36.932   1.228
75929W        W39686  28.502  32.053  14.305
75930W        W39687  14.329  29.433   1.761
75931W        W39688   2.467  24.647  14.436
75932W        W39689   3.796  32.479   3.244
75933W        W39690  27.956  19.231  11.516
75934W        W39691   8.833  39.989  14.460
75935W        W39692  11.856  12.817  14.868
75936W        W39693  37.552  35.107  12.897
75937W        W39694  42.927  35.363   1.358
75938W        W39695  34.609  14.225  13.520
75939W        W39696  17.592  44.383  11.098
75940W        W39697  38.998  21.234   3.735
75941W        W39698  13.205   7.873   4.822
75942W        W39699  16.750  29.050   1.707
75943W        W39700  26.005   8.205  12.934
75944W        W39701   8.834   2.811  11.917
75945W        W39702   2.288  36.486   3.834
75946W        W39703  32.923  14.181   3.351
75947W        W39704  30.634   4.930   0.393
75948W        W39705  38.327  42.517   2.297
75949W        W39706  29.631  17.173   2.187
75950W        W39707  17.753  38.853   3.773
75951W        W39708  30.097  14.110  14.982
75952W        W39709  22.025  34.450   0.955
75953W        W39710  44.805  27.592  14.839
75954W        W39711   7.750  29.559  14.936
75955W        W39712   1.343  22.012  13.537
75956W        W39713  20.726  12.730  10.986
75957W        W39714  19.121   9.744   1.778
75958W        W39715  25.527  29.661   1.748
75959W        W39716  14.756   4.393   2.737
75960W        W39717  10.814  23.517   1.420
75961W        W39718  28.072   8.839   0.750
75962W        W39719  34.384  17.703   4.142
75963W        W39720  38.382   0.876   4.794
75964W        W39721  33.445  19.723   1.787
75965W        W39722  38.855  35.068  13.938
75966W        W39723  20.092  17.743  12.428
75967W        W39724  29.173  32.584  14.885
75968W        W39725  20.656  27.685  13.805
75969W        W39726  17.143  43.383   0.863
75970W        W39727  13.329  11.701   5.230
75971W        W39728   7.857   7.854   0.856
75972W        W39729  26.666  15.188  13.982
75973W        W39730  18.611  32.076  11.956
75974W        W39731  36.429  37.838   2.211
75975W        W39732   9.755  28.521  11.009
75976W        W39733  34.461  34.006  12.995
75977W        W39734  27.168  37.411   0.896
75978W        W39735  11.751  32.112   4.636
75979W        W39736   0.439  16.621   1.767
75980W        W39737  20.537   4.314  11.499
75981W        W39738  29.136   5.845   2.873
75982W        W39739  16.149  39.987  10.553
75983W        W39740   0.458  36.347   0.273
75984W        W39741  24.588  38.510   2.742
75985W        W39742  29.163  28.595  10.898
75986W        W39743  40.356   8.680  11.561
75987W        W39744  37.429  44.833   2.208
75988W        W39745  41.443  29.556   4.757
75989W        W39746  23.211  16.780   2.850
75990W        W39747   8.192  15.264   4.263
75991W        W39748  20.134  37.414   3.743
75992W        W39749  30.090  13.213   4.739
75993W        W39750  24.568   2.394   2.745
75994W        W39751  29.565  32.126  11.408
75995W        W39752  21.186  25.616  11.572
75996W        W39753  15.270  11.732   4.177
75997W        W39754  15.264  34.916   4.183
75998W        W39755  24.007  42.916  13.858
75999W        W39756  27.493  39.526  11.089
76000W        W39757  15.217  32.052   0.833
76001W        W39758  37.421  33.000   1.809
76002W        W39759  32.049  43.490   3.646
76003W        W39760  39.405  25.175   4.172
76004W        W39761   2.263  37.529  13.376
76005W        W39762  29.137  26.106  14.365
76006W        W39763  20.068   4.319   3.716
76007W        W39764  39.344  33.486  14.990
76008W        W39765  20.758  10.740   2.880
76009W        W39766  24.090  18.193   4.198
76010W        W39767  29.520  22.213  14.807
76011W        W39768  42.024  10.748   0.418
76012W        W39769  36.019  42.827  13.849
76013W        W39770  36.546  37.863   1.828
76014W        W39771  14.723  38.454  12.081
76015W        W39772  12.641  33.993   4.295
76016W        W39773  11.751  30.086   2.816
76017W        W39774  18.666  17.204  11.435
76018W        W39775  24.054   7.312  11.976
76019W        W39776  30.650  11.370   4.628
76020W        W39777  27.067  13.312  13.957
76021W        W39778  23.662   0.904  10.940
76022W        W39779  20.033  10.303   3.703
76023W        W39780  36.392  26.696   2.388
76024W        W39781   9.215   5.319  10.944
76025W        W39782  21.121  38.056  14.794
76026W        W39783  16.684   0.854   3.781
76027W        W39784  13.282  44.386  13.043
76028W        W39785  23.604   6.895   3.356
76029W        W39786  29.062  42.994  13.315
76030W        W39787  36.936   5.261  12.836
76031W        W39788  32.922  29.168   0.907
76032W        W39789   0.894  25.570  12.385
76033W        W39790  14.300  15.646  14.884
76034W        W39791  42.461  44.818  10.983
76035W        W39792  39.904  43.280   1.877
76036W        W39793  43.512   9.218  14.988
76037W        W39794  42.861   2.939   1.852
76038W        W39795   6.759  30.145   4.255
76039W        W39796  12.853  26.512  14.286
76040W        W39797  44.911  15.664  12.443
76041W        W39798  25.496   7.755   2.719
76042W        W39799  42.006   3.358   0.804
76043W        W39800  11.653  11.206   0.394
76044W        W39801  21.758   8.241   1.910
76045W        W39802   6.902  37.535   1.828
76046W        W39803  25.120   4.241  14.018
76047W        W39804  26.986  44.877   0.913
76048W        W39805  12.652  18.787   0.893
76049W        W39806  25.167  43.849   3.187
76050W        W39807  28.058  15.231  10.525
76051W        W39808   1.280  37.480   2.773
76052W        W39809  40.474  10.833  14.926
76053W        W39810  27.068  23.541  10.429
76054W        W39811  22.647  13.279   0.864
76055W        W39812  29.087  40.385   0.371
76056W        W39813  25.614  44.401  14.955
76057W        W39814  19.604  40.856   2.787
76058W        W39815  15.210  30.992   4.602
76059W        W39816  15.175  44.810   0.884
76060W        W39817  22.057  44.813  13.546
76061W        W39818  11.348  14.332  14.391
76062W        W39819  19.771   4.777  12.376
76063W        W39820  15.706  14.235  11.376
76064W        W39821  42.007  14.145   1.696
76065W        W39822  22.199  18.687  14.801
76066W        W39823  12.155  44.428   2.677
76067W        W39824   9.842  12.758   0.737
76068W        W39825   4.794  10.671   4.182
76069W        W39826  26.498  41.392  13.455
76070W        W39827  23.099  10.159  12.377
76071W        W39828  29.555   0.331  11.379
76072W        W39829  37.516  44.491  14.988
76073W        W39830  17.300  16.121   4.742
76074W        W39831   5.355  42.022   3.688
76075W        W39832  39.895  13.304  14.853
76076W        W39833  44.363  24.570   4.654
76077W        W39834  33.601   6.676   2.388
76078W        W39835  13.815   9.183   1.343
76079W        W39836  10.351  12.360   4.163
76080W        W39837   9.358  20.088  13.326
76081W        W39838   0.320   8.381  13.343
76082W        W39839  38.854   2.723  13.055
76083W        W39840  44.456   6.265  11.021
76084W        W39841  25.557   4.874   3.846
76085W        W39842  12.671   1.939  14.907
76086W        W39843  11.298  33.392   3.682
76087W        W39844  43.455  31.139  13.387
76088W        W39845  38.848  19.727  10.476
76089W        W39846   6.773  27.134   3.210
76090W        W39847   3.400  22.660   3.228
76091W        W39848  12.681  32.564   4.321
76092W        W39849   0.845   5.311  13.475
76093W        W39850  17.097  14.177  10.946
76094W        W39851  10.789  40.326  10.989
76095W        W39852  43.811   4.853  11.968
76096W        W39853  20.762   0.294   4.337
76097W        W39854  16.074  27.984   3.817
76098W        W39855   3.783   9.781  12.456
76099W        W39856  41.516   2.931  12.943
76100W        W39857  25.623  42.921   2.798
76101W        W39858  26.589  39.838  11.594
76102W        W39859  10.368   9.241  10.488
76103W        W39860  40.483  38.887  12.535
76104W        W39861  26.537  13.123   1.864
76105W        W39862  25.657  35.572   4.293
76106W        W39863  20.650  15.583   1.713
76107W        W39864  12.851  14.174  10.932
76108W        W39865  44.866  35.497  12.062
76109W        W39866   8.656  43.298   1.730
76110W        W39867   7.793  26.995  11.947
76111W        W39868  23.542  13.278   2.257
76112W        W39869  33.515  22.686  13.062
76113W        W39870   0.825  14.148  14.000
76114W        W39871   2.312  19.207  11.494
76115W        W39872  22.201  39.429  11.925
76116W        W39873  11.230  37.454   3.276
76117W        W39874  22.564  33.122   3.367
76118W        W39875  34.609   9.874   3.842
76119W        W39876  35.055  39.506  14.472
76120W        W39877  21.529  28.180   0.299
76121W        W39878  29.153  19.732   4.766
76122W        W39879  26.041  37.886  14.825
76123W        W39880  13.612  27.452   3.705
76124W        W39881  40.838   1.401   2.758
76125W        W39882   2.391   6.338  11.097
76126W        W39883  44.004  24.219   3.794
76127W        W39884   3.454  24.992  10.632
76128W        W39885   4.747  39.443  12.546
76129W        W39886   4.373   6.289  13.966
76130W        W39887  36.450  23.551  11.858
76131W        W39888   9.304  26.587  13.527
76132W        W39889  11.327  19.675  11.076
76133W        W39890  11.627  39.042   0.290
76134W        W39891  27.178  15.246   1.860
76135W        W39892   4.370  15.614  12.564
76136W        W39893  34.478  40.041   0.872
76137W        W39894  16.671   1.838   9.592
76138W        W39895  35.005  24.975   3.378
76139W        W39896   0.455  34.979  12.545
76140W        W39897  32.411  17.642   2.685
76141W        W39898  35.088  42.357   0.759
76142W        W39899  38.819  33.443   2.767
76143W        W39900  42.406  16.716  13.851
76144W        W39901  12.853  18.189   1.749
76145W        W39902  12.810   0.385   2.317
76146W        W39903  30.923  16.228  12.441
76147W        W39904  14.315  35.598  13.496
76148W        W39905  27.084  20.664   2.399
76149W        W39906  32.020  34.992  10.958
76150W        W39907   9.737  22.638   1.405
76151W        W39908  43.886  26.140   3.809
76152W        W39909  33.962  10.250   1.253
76153W        W39910  22.738   8.845   3.200
76154W        W39911   0.424   9.856  12.886
76155W        W39912  18.196  43.858  12.864
76156W        W39913  39.360  23.058   3.250
76157W        W39914   2.924  18.189  10.961
76158W        W39915  30.432  32.010   3.157
76159W        W39916   0.385  15.158   4.807
76160W        W39917  21.527  17.749   0.803
76161W        W39918  13.660  20.096   0.387
76162W        W39919  29.069  18.065   5.322
76163W        W39920  17.794  25.602  13.033
76164W        W39921  31.100   3.895   4.147
76165W        W39922  35.372  38.373  13.038
76166W        W39923  35.379  36.497   4.668
76167W        W39924  21.166  42.777  10.062
76168W        W39925   9.852  12.712   4.747
76169W        W39926  14.618  25.181   4.216
76170W        W39927  42.852  11.722   2.763
76171W        W39928   4.904  44.316   2.750
76172W        W39929  20.134  39.018   4.268
76173W        W39930  10.170  25.652   0.324
76174W        W39931  26.462  16.726  13.350
76175W        W39932  32.007  21.753   0.417
76176W        W39933  30.004   4.311   4.189
76177W        W39934  14.631  29.567  14.352
76178W        W39935   4.427  33.040  10.538
76179W        W39936  11.286  40.932  13.460
76180W        W39937  12.732  35.040   1.927
76181W        W39938   9.774   9.679  14.963
76182W        W39939  15.586  34.048   2.240
76183W        W39940  35.991  24.116  14.827
76184W        W39941  43.343  27.451  12.954
76185W        W39942  18.288  14.692   1.296
76186W        W39943  38.520  30.632  12.459
76187W        W39944   3.442  19.679  14.859
76188W        W39945  28.469  12.811   4.201
76189W        W39946  35.363  39.995  12.494
76190W        W39947  18.654  34.999  14.386
76191W        W39948  31.458  18.284  12.441
76192W        W39949   6.281   9.234  11.380
76193W        W39950  40.922  24.596   0.289
76194W        W39951   2.824  17.217   1.247
76195W        W39952  39.358   4.735   0.739
76196W        W39953   1.299   4.302  11.862
76197W        W39954   3.364  16.680  10.553
76198W        W39955  19.705  14.202   0.881
76199W        W39956  43.437  17.791  13.798
76200W        W39957  44.994  17.795  11.613
76201W        W39958  14.611   5.395   4.227
76202W        W39959  27.158  12.189  14.959
76203W        W39960  11.752  15.629   4.126
76204W        W39961  25.569   9.657   0.849
76205W        W39962  34.869   3.257   3.827
76206W        W39963  12.361  18.062  10.465
76207W        W39964  35.553   0.360  12.087
76208W        W39965  36.060  39.871  14.309
76209W        W39966   8.672  24.594   1.825
76210W        W39967   6.270  18.607   3.313
76211W        W39968  11.312   4.423  13.830
76212W        W39969  31.924   7.291  14.318
76213W        W39970  11.373  21.710   0.359
76214W        W39971  14.219  15.179  11.509
76215W        W39972  44.310  27.991   1.397
76216W        W39973  30.052  12.283  12.373
76217W        W39974  25.117   3.719   0.253
76218W        W39975  25.085  41.928  11.880
76219W        W39976  21.656  33.890  12.525
76220W        W39977  26.982  35.515   0.761
76221W        W39978  39.387   8.669   0.946
76222W        W39979  35.433  14.610  13.808
76223W        W39980  27.553  21.032   3.709
76224W        W39981  43.468  32.607  14.449
76225W        W39982  28.018   0.425   3.314
76226W        W39983   3.811  10.324   1.908
76227W        W39984  10.203  26.105  11.069
76228W        W39985   8.374  40.476   1.228
76229W        W39986  42.310  15.747  14.925
76230W        W39987   1.932  36.852   0.901
76231W        W39988  14.669  31.942   0.838
76232W        W39989  39.885  11.302  14.912
76233W        W39990  34.062  16.276   2.818
76234W        W39991  17.729  42.994  13.406
76235W        W39992  30.467  14.726  10.513
76236W        W39993   8.897  30.619   4.256
76237W        W39994  11.801  17.122  12.359
76238W        W39995   9.734  43.441   4.142
76239W        W39996  37.351  41.467   1.875
76240W        W39997  42.003  22.234  10.586
76241W        W39998  33.407  44.391   0.832
76242W        W39999  40.891  20.667  10.629
76243W        W40000  35.413  32.054   4.277
76244W        W40001  35.601  30.469  12.368
76245W        W40002  31.521  16.194   0.335
76246W        W40003  15.089   1.774   4.234
76247W        W40004   0.279  19.160   4.147
76248W        W40005  14.785   8.276  14.461
76249W        W40006  14.252   8.667   4.205
76250W        W40007  15.739  16.247  12.917
76251W        W40008  26.057  36.534   2.248
76252W        W40009   8.162  32.493   1.719
76253W        W40010  36.516  34.399  12.929
76254W        W40011  37.044  41.883  12.091
76255W        W40012  36.435  15.757   5.180
76256W        W40013  34.613  32.960  11.050
76257W        W40014   9.853  41.411  12.880
76258W        W40015  13.262  24.483   0.730
76259W        W40016  10.262  36.509  11.403
76260W        W40017  20.749   8.848   2.291
76261W        W40018  22.659  11.312   2.203
76262W        W40019  27.071   4.287  14.029
76263W        W40020  36.490  29.092  14.878
76264W        W40021   4.921  35.490   2.200
76265W        W40022  16.660  11.340  13.920
76266W        W40023  32.420   6.676  13.992
76267W        W40024  20.756  42.836   5.156
76268W        W40025  30.474  36.974  10.505
76269W        W40026  14.613   7.686  13.037
76270W        W40027  14.611  31.597   1.853
76271W        W40028   3.368  33.391   5.212
76272W        W40029  20.083  20.641  12.405
76273W        W40030  21.058  18.763  14.858
76274W        W40031  39.365  24.013   1.330
76275W        W40032  31.137  36.015  13.515
76276W        W40033  43.912   1.751   0.790
76277W        W40034  15.101  40.395   1.451
76278W        W40035   6.373  24.192   2.385
76279W        W40036   9.320  42.982  12.490
76280W        W40037  29.066  33.991  14.321
76281W        W40038  19.535  23.616   1.450
76282W        W40039  30.560  30.041  11.601
76283W        W40040  20.153   8.313  13.878
76284W        W40041  12.292  21.584  12.389
76285W        W40042  26.575  12.312  13.434
76286W        W40043  26.055  36.950   2.768
76287W        W40044  36.480  39.957   3.751
76288W        W40045  32.423  32.571   3.631
76289W        W40046   2.281  12.286  12.442
76290W        W40047  39.394  30.019   4.625
76291W        W40048  34.077  12.764   2.349
76292W        W40049   4.299  17.670  12.892
76293W        W40050   5.808  11.155   3.684
76294W        W40051   8.395  23.561   2.307
76295W        W40052  16.569   1.801   0.765
76296W        W40053  44.939  42.527  14.001
76297W        W40054  35.504   7.668  13.860
76298W        W40055  27.677  28.106   4.249
76299W        W40056  17.222   9.715  12.452
76300W        W40057  33.567  10.656  13.383
76301W        W40058  32.957   7.245  13.947
76302W        W40059   9.669  34.471  10.451
76303W        W40060  13.797  38.388   3.372
76304W        W40061  16.784  12.174   3.870
76305W        W40062  33.474  39.383  12.933
76306W        W40063  41.361   8.786   3.161
76307W        W40064   7.352  28.147  11.379
76308W        W40065  22.535  19.662  12.064
76309W        W40066  39.355  13.798  12.370
76310W        W40067  10.174   6.238  10.513
76311W        W40068  26.095  28.045  13.361
76312W        W40069  33.393  37.832  11.022
76313W        W40070  16.732  33.948   2.897
76314W        W40071  37.937  23.670   3.859
76315W        W40072   4.359  39.444  13.352
76316W        W40073  42.327  12.283   2.385
76317W        W40074  11.337  26.999  12.027
76318W        W40075  22.233  25.080   3.284
76319W        W40076   5.695  11.866  11.116
76320W        W40077  26.584   6.811   3.168
76321W        W40078  13.680   3.812   4.292
76322W        W40079  34.376  10.347   1.230
76323W        W40080  36.469  26.684  10.473
76324W        W40081  28.447  21.105  10.408
76325W        W40082  35.979  43.946  13.868
76326W        W40083   4.334   2.803  14.343
76327W        W40084  42.399  21.241   4.808
76328W        W40085  25.048  20.662  14.795
76329W        W40086  15.129   3.297   1.263
76330W        W40087  38.561   9.707   1.402
76331W        W40088   0.862  10.178   2.873
76332W        W40089  11.721  36.498   3.769
76333W        W40090  19.655  33.521   5.291
76334W        W40091  27.183  23.054   2.357
76335W        W40092   2.306  22.118   0.789
76336W        W40093  12.716  22.099  13.822
76337W        W40094  14.123  42.387  14.876
76338W        W40095  42.446  42.441  13.817
76339W        W40096  21.025  35.569  14.831
76340W        W40097  17.723  19.131   0.380
76341W        W40098  25.629  13.146  12.081
76342W        W40099  32.477  18.284  10.419
76343W        W40100  18.149  26.064  14.020
76344W        W40101  21.192   5.193  10.981
76345W        W40102  41.948  42.863   3.639
76346W        W40103   8.283  42.389   1.317
76347W        W40104  38.891  31.524  13.383
76348W        W40105  31.084  34.398   1.762
76349W        W40106  23.546   3.449   3.281
76350W        W40107  16.094   8.725   4.275
76351W        W40108  10.211  16.658  14.022
76352W        W40109   2.791  26.032  14.943
76353W        W40110  34.501  41.037   1.852
76354W        W40111  31.089  41.957  11.069
76355W        W40112  14.655   1.384  14.297
76356W        W40113  13.702  37.933   4.644
76357W        W40114  26.008  18.720  12.394
76358W        W40115  12.806  43.491   3.870
76359W        W40116  26.620  27.062   1.300
76360W        W40117  43.405  25.043   3.320
76361W        W40118  10.177  25.174   2.296
76362W        W40119  29.100   6.213   2.732
76363W        W40120   2.452  42.476   1.830
76364W        W40121  23.214   4.832  14.412
76365W        W40122  26.467  24.990   4.620
76366W        W40123   8.245   5.864  13.985
76367W        W40124  31.148   9.368  12.468
76368W        W40125   4.327  42.322  14.342
76369W        W40126  10.643  43.832   2.751
76370W        W40127  34.516   4.749   1.739
76371W        W40128  15.595  17.702   4.670
76372W        W40129  28.510  25.035   5.254
76373W        W40130   5.373  37.905  11.983
76374W        W40131  41.351   9.702  13.527
76375W        W40132  25.213  22.108   2.205
76376W        W40133  15.618  23.698   0.438
76377W        W40134   1.283   2.248   4.266
76378W        W40135  26.462   8.807   1.412
76379W        W40136  34.539  42.806  15.000
76380W        W40137  15.195  26.039  11.582
76381W        W40138  23.511  31.476   4.831
76382W        W40139  40.451   0.904   0.892
76383W        W40140   5.839  13.299   0.789
76384W        W40141  38.917   1.381  11.410
76385W        W40142   1.892  37.860  14.838
76386W        W40143  18.176  12.178  13.431
76387W        W40144  41.998  35.409  10.614
76388W        W40145  12.222  15.211  14.863
76389W        W40146   5.827  44.899   3.691
76390W        W40147  14.657  24.035   3.275
76391W        W40148  21.726  14.594   2.227
76392W        W40149   9.357  27.045   4.260
76393W        W40150  42.010   1.890   3.345
76394W        W40151  24.192  13.284   3.817
76395W        W40152   7.672  38.986   1.860
76396W        W40153  21.145  39.470   4.610
76397W        W40154  19.104  38.379  11.029
76398W        W40155  37.035  14.187  14.838
76399W        W40156   1.321  32.041  11.889
76400W        W40157   6.248  10.184   2.381
76401W        W40158  36.504  33.935   2.303
76402W        W40159  21.541   0.359   3.652
76403W        W40160  15.289   8.404   1.866
76404W        W40161  19.130  29.640   1.701
76405W        W40162   0.479  19.663  12.509
76406W        W40163  39.542  34.051   1.784
76407W        W40164  33.037  38.328   2.294
76408W        W40165  31.123   5.924   0.947
76409W        W40166   8.370  22.704   3.698
76410W        W40167  23.117   2.954  10.600
76411W        W40168  17.746  39.911   2.824
76412W        W40169  35.875  13.824   4.649
76413W        W40170   1.326   1.381  13.042
76414W        W40171  19.702  11.725  11.408
76415W        W40172   3.767  28.960  10.476
76416W        W40173  27.579  27.682   2.389
76417W        W40174  25.475  41.373  12.928
76418W        W40175  40.971  12.123  14.391
76419W        W40176   5.237  25.013   2.677
76420W        W40177  36.003  36.488  14.997
76421W        W40178  32.477   8.747  14.923
76422W        W40179  34.061  21.602  14.386
76423W        W40180  17.239  21.036  10.156
76424W        W40181  16.222  41.398  11.970
76425W        W40182  17.718  13.693  13.376
76426W        W40183  14.118   1.429  10.517
76427W        W40184  14.834  13.325  12.469
76428W        W40185  33.023   7.259   0.288
76429W        W40186  25.494  29.160  12.065
76430W        W40187  12.192  31.982   4.817
76431W        W40188  24.105  20.203  13.059
76432W        W40189  38.846  18.600   0.274
76433W        W40190  27.992   2.869   1.895
76434W        W40191  43.321  37.977   3.835
76435W        W40192  25.036  31.088  10.454
76436W        W40193  35.376  26.970  13.020
76437W        W40194  42.426  16.281   3.722
76438W        W40195  21.567  29.423  14.352
76439W        W40196  12.278   5.293   3.674
76440W        W40197  42.315   1.307   2.722
76441W        W40198  10.219  24.659   4.753
76442W        W40199  26.951  15.148  14.916
76443W        W40200  20.606  34.551   3.330
76444W        W40201   8.825   7.685   2.273
76445W        W40202  22.699  26.043  12.080
76446W        W40203  36.030  36.849  14.987
76447W        W40204  17.191  10.356  13.410
76448W        W40205  27.675   8.780  12.989
76449W        W40206  30.077  34.598  14.883
76450W        W40207  32.928   7.302   2.732
76451W        W40208  44.839  39.340  10.992
76452W        W40209  44.393   9.319   5.242
76453W        W40210   9.256  30.657  13.455
76454W        W40211  28.516  13.136   4.288
76455W        W40212  23.009  27.636  11.409
76456W        W40213  10.741  10.789   0.317
76457W        W40214  22.163  39.856   1.437
76458W        W40215  32.106  24.999  14.393
76459W        W40216  27.596   1.460   4.214
76460W        W40217  23.501  17.208   3.702
76461W        W40218  34.419  28.519   0.750
76462W        W40219   1.282  43.383  13.526
76463W        W40220  39.934   5.882   2.265
76464W        W40221  31.452  11.858   4.265
76465W        W40222  25.023  27.645   4.216
76466W        W40223  43.810  15.801   0.860
76467W        W40224  28.186  18.696   4.697
76468W        W40225   3.780  10.245   2.873
76469W        W40226   8.227  17.297   4.239
76470W        W40227   9.866  33.540  12.467
76471W        W40228  25.122   3.333   0.907
76472W        W40229  18.293  23.070  13.997
76473W        W40230   1.469  36.561  11.897
76474W        W40231  36.935  13.252   4.633
76475W        W40232  25.193  23.691  12.375
76476W        W40233   5.771  14.810   0.397
76477W        W40234  18.210  43.997   1.267
76478W        W40235  32.509  18.670   1.406
76479W        W40236  32.494  40.851   3.177
76480W        W40237  21.613  13.133  14.810
76481W        W40238  37.422  11.661  12.946
76482W        W40239   8.263  38.487  11.964
76483W        W40240   6.362  20.672  13.904
76484W        W40241  35.940   7.880   3.670
76485W        W40242  43.290  39.855  11.111
76486W        W40243  33.114  15.710  11.377
76487W        W40244  39.898  40.851   0.327
76488W        W40245   1.294  20.029  14.782
76489W        W40246  27.185  37.356  11.905
76490W        W40247  36.871  29.923   4.598
76491W        W40248  18.551   2.921   3.297
76492W        W40249  38.018  31.083   3.157
76493W        W40250  12.852  17.169  14.289
76494W        W40251  10.869  12.147   3.857
76495W        W40252  32.454  22.590  12.903
76496W        W40253  25.470   4.209  13.452
76497W        W40254  21.653  30.626   4.600
76498W        W40255  22.582   4.864  12.886
76499W        W40256   4.320   7.906   2.841
76500W        W40257  36.496  16.195  13.534
76501W        W40258  36.992   7.186   0.253
76502W        W40259   5.731   3.920   2.416
76503W        W40260   5.756  25.486  13.054
76504W        W40261  27.590  24.692   3.275
76505W        W40262   8.306   8.232  12.521
76506W        W40263  22.717  10.779  11.017
76507W        W40264  27.050  41.529  13.409
76508W        W40265  17.082   0.763  11.935
76509W        W40266  12.344   0.903   1.399
76510W        W40267  36.995  34.050  13.009
76511W        W40268  32.483  12.696   2.190
76512W        W40269  42.990   4.779  12.448
76513W        W40270  34.431  10.634  14.340
76514W        W40271  23.091  35.481   5.190
76515W        W40272  41.497  10.668  13.410
76516W        W40273  16.604  23.088  12.518
76517W        W40274  11.144  35.503   2.677
76518W        W40275  41.879  16.798   3.654
76519W        W40276  14.741  27.616   2.328
76520W        W40277   6.361  32.096   5.100
76521W        W40278  14.627  33.968  14.981
76522W        W40279  17.164   9.337  14.990
76523W        W40280   5.416   9.694  14.826
76524W        W40281  32.429  20.030   1.782
76525W        W40282  32.904   6.183   0.828
76526W        W40283  27.631  20.061  10.501
76527W        W40284  43.281  16.760  12.931
76528W        W40285  33.907   3.357   2.310
76529W        W40286   0.292  23.092   3.811
76530W        W40287  27.077   3.256   3.194
76531W        W40288  18.096   5.870   4.225
76532W        W40289  20.181  42.822  13.837
76533W        W40290  33.096   8.785   3.269
76534W        W40291  16.212  31.404   1.214
76535W        W40292  24.079  41.838  11.597
76536W        W40293  16.219  39.545   3.650
76537W        W40294   6.745  34.382   0.777
76538W        W40295  36.469   8.404  14.012
76539W        W40296  42.290  19.779  14.000
76540W        W40297  26.629  42.805  12.444
76541W        W40298  11.732  41.343  12.850
76542W        W40299  17.714  39.054  12.066
76543W        W40300   8.754  21.143   1.756
76544W        W40301   7.183  35.528  11.863
76545W        W40302  16.131  23.614  12.007
76546W        W40303   3.811  33.480   3.344
76547W        W40304  23.122  18.122  13.454
76548W        W40305  42.385   2.758   0.352
76549W        W40306   2.762  33.910  11.965
76550W        W40307  23.544   8.241   1.853
76551W        W40308   3.763  14.145   4.642
76552W        W40309  40.408  29.096   2.418
76553W        W40310  38.978  32.094  12.038
76554W        W40311  19.164  28.622   1.431
76555W        W40312   5.370  16.714  14.470
76556W        W40313  21.164  44.979  14.952
76557W        W40314   9.356  13.220  14.895
76558W        W40315   1.962  43.453   0.466
76559W        W40316  25.554  36.534  11.535
76560W        W40317  20.532   4.717  12.837
76561W        W40318   1.285   6.424  13.849
76562W        W40319  14.182  41.944   0.943
76563W        W40320  26.077  39.421  12.493
76564W        W40321   0.857   3.895  13.469
76565W        W40322  26.093  21.111   1.816
76566W        W40323  30.608  35.384  14.844
76567W        W40324   5.721  43.951  13.466
76568W        W40325  20.184  36.031   3.867
76569W        W40326  21.053  23.075   3.634
76570W        W40327  25.151  39.977   0.863
76571W        W40328  29.935  12.214  10.906
76572W        W40329  43.355  33.615   2.722
76573W        W40330  35.460  19.773   2.335
76574W        W40331  38.854  36.050   0.745
76575W        W40332  26.686  32.606   0.431
76576W        W40333  18.717  15.817   3.697
76577W        W40334  36.090  17.617  11.098
76578W        W40335  31.937  20.728   2.701
76579W        W40336   1.792   5.272  13.996
76580W        W40337  10.337  20.606   5.299
76581W        W40338  21.600  40.385  13.405
76582W        W40339  23.037  43.019   2.775
76583W        W40340   6.350  10.257   5.303
76584W        W40341  32.521  32.036   0.757
76585W        W40342  44.836  32.578   1.897
76586W        W40343  34.570  43.417  12.512
76587W        W40344  26.563  15.318  11.382
76588W        W40345  32.398  15.783  14.451
76589W        W40346  22.662   0.894  13.364
76590W        W40347  19.627  27.125   3.381
76591W        W40348  41.510   1.277  14.924
76592W        W40349  22.096   5.219  11.993
76593W        W40350   9.385  25.202   2.874
76594W        W40351  25.010   8.236  12.509
76595W        W40352   0.926  12.132  11.040
76596W        W40353  30.652  26.652  12.030
76597W        W40354   9.764  20.607  14.843
76598W        W40355  15.780  26.181  11.911
76599W        W40356  32.942  24.121   2.797
76600W        W40357   0.297  15.085  14.318
76601W        W40358   4.917  37.885  12.975
76602W        W40359  37.367  29.650  12.997
76603W        W40360  14.646  24.112  13.795
76604W        W40361  44.500   1.242   2.331
76605W        W40362  42.985  20.078  13.929
76606W        W40363  35.530   4.700  11.966
76607W        W40364  41.332   0.874   1.842
76608W        W40365  28.487  41.492  13.019
76609W        W40366   2.816  26.164  12.965
76610W        W40367   9.719  32.885   3.256
76611W        W40368   5.853  19.155  13.480
76612W        W40369  25.153  25.478   0.398
76613W        W40370   4.875  30.442   0.253
76614W        W40371  13.143  15.821   2.319
76615W        W40372  18.560  40.440  11.528
76616W        W40373  14.241   9.340   2.411
76617W        W40374  34.439  21.549  13.472
76618W        W40375  21.561  39.919   3.707
76619W        W40376  43.807  13.339  13.338
76620W        W40377  29.617  42.310  11.905
76621W        W40378  19.543  14.743   2.357
76622W        W40379  19.278  36.935  12.060
76623W        W40380  15.229   9.818  10.508
76624W        W40381  36.894  13.143   1.420
76625W        W40382  13.752  22.656   1.301
76626W        W40383   9.846  44.967  13.347
76627W        W40384  25.692  40.543   2.879
76628W        W40385  39.560   8.716   3.384
76629W        W40386  27.013  11.175   2.762
76630W        W40387  43.782  26.094   4.728
76631W        W40388  29.603  16.119  12.355
76632W        W40389  28.507  10.816  12.449
76633W        W40390  29.104  34.421  12.907
76634W        W40391  29.652   5.721  11.586
76635W        W40392  42.890   6.717  11.414
76636W        W40393  19.147  39.006   0.841
76637W        W40394   3.265  30.549  11.902
76638W        W40395  40.516   5.394  13.452
76639W        W40396  35.416   8.306  14.764
76640W        W40397  16.750  20.168   1.399
76641W        W40398  37.562  11.347  14.473
76642W        W40399  39.520  18.631   1.734
76643W        W40400  29.087  13.747   3.356
76644W        W40401   0.814  19.543   4.666
76645W        W40402  31.553  44.347  12.982
76646W        W40403  18.100   6.847   0.344
76647W        W40404  27.118  25.648  14.461
76648W        W40405  29.654  32.519   0.293
76649W        W40406  34.112  22.084   0.271
76650W        W40407   0.779   9.838   4.627
76651W        W40408  42.523  28.966   1.908
76652W        W40409   3.306  26.206  11.919
76653W        W40410  43.399   5.801   2.751
76654W        W40411  19.637  14.293  12.940
76655W        W40412  30.922  16.075   3.690
76656W        W40413  33.488  40.809  12.926
76657W        W40414  12.209  25.699   2.874
76658W        W40415  31.902  12.713  11.374
76659W        W40416  26.463   2.953  11.967
76660W        W40417  13.758  22.550  10.560
76661W        W40418  42.373   3.377   1.228
76662W        W40419  26.461  27.178   4.210
76663W        W40420   6.818  17.083   0.755
76664W        W40421  36.509  14.259   4.304
76665W        W40422  36.983  22.176  12.952
76666W        W40423   1.482  18.171  14.850
76667W        W40424  27.183  35.866   1.364
76668W        W40425   3.813  12.144  10.597
76669W        W40426  21.122  19.193  12.905
76670W        W40427  19.083  19.227  12.561
76671W        W40428   3.785  31.947  12.451
76672W        W40429  20.541   2.292   3.634
76673W        W40430  30.153  26.672   0.406
76674W        W40431  17.136  32.085   5.184
76675W        W40432  31.434  10.865   0.798
76676W        W40433  27.989  15.758   3.322
76677W        W40434  34.096  28.025  10.487
76678W        W40435  25.081  40.031  12.491
76679W        W40436  26.020  32.904  12.907
76680W        W40437   4.209  31.955  13.831
76681W        W40438  17.075  20.239  12.861
76682W        W40439  16.746  14.825  13.790
76683W        W40440   4.827  35.977   1.863
76684W        W40441  30.065  37.985   0.442
76685W        W40442  27.457   0.899   2.182
76686W        W40443  17.597  28.473   1.349
76687W        W40444  32.452  19.555   3.333
76688W        W40445   5.920  17.665   0.915
76689W        W40446  40.829  12.333   4.653
76690W        W40447  23.711  42.315   2.742
76691W        W40448  28.127   7.815   3.326
76692W        W40449  33.596  13.340  12.442
76693W        W40450  11.819   7.881  13.038
76694W        W40451  20.658   9.811   0.355
76695W        W40452  40.457  33.098  11.586
76696W        W40453   1.461  41.440   4.744
76697W        W40454  27.659   8.249  11.940
76698W        W40455  22.197  44.908  12.497
76699W        W40456  10.302  11.203   4.117
76700W        W40457  24.081  25.481   4.293
76701W        W40458  13.192  10.641  12.966
76702W        W40459  30.497   8.669   4.136
76703W        W40460  19.594  17.675  12.551
76704W        W40461   0.920   9.289  13.319
76705W        W40462  21.620  26.009   2.769
76706W        W40463   3.236  21.584  10.428
76707W        W40464   5.200  21.205   2.227
76708W        W40465  29.932  13.692   9.963
76709W        W40466   6.396   2.297  13.942
76710W        W40467  21.159  18.731   1.876
76711W        W40468  21.071  10.704  14.326
76712W        W40469  44.447  14.746  10.616
76713W        W40470  20.744  11.723   3.657
76714W        W40471  12.172  22.622  14.946
76715W        W40472  35.901  26.982   9.677
76716W        W40473   6.752  20.749   3.172
76717W        W40474   6.219   8.194   0.740
76718W        W40475  42.857  29.044   1.919
76719W        W40476   2.346  29.058   4.812
76720W        W40477  31.010  42.814  12.415
76721W        W40478  40.939   0.323  11.117
76722W        W40479  42.893  39.851  14.311
76723W        W40480  38.832  21.633   4.183
76724W        W40481  16.099  11.296   0.826
76725W        W40482  18.594  32.983  12.485
76726W        W40483  41.867  42.782   5.285
76727W        W40484  24.163  41.394   1.406
76728W        W40485  23.710   1.933   2.343
76729W        W40486   4.882  28.043  12.016
76730W        W40487  23.991  38.913   2.784
76731W        W40488   4.835  23.142  12.901
76732W        W40489  16.213   8.271   0.745
76733W        W40490   1.902  10.647  11.950
76734W        W40491  39.831   7.336   3.242
76735W        W40492  37.056  33.907  12.495
76736W        W40493   3.819   3.272  11.440
76737W        W40494  28.119  36.493  14.379
76738W        W40495   5.905  29.464  14.490
76739W        W40496  27.039  13.335  13.420
76740W        W40497   7.337  39.527   0.337
76741W        W40498  30.560  30.022  14.289
76742W        W40499  25.189  41.442   2.764
76743W        W40500  11.239  34.504  11.609
76744W        W40501  10.202   0.965  12.936
76745W        W40502  23.570  19.681   4.117
76746W        W40503   3.450   9.239   1.266
76747W        W40504   7.288  23.521  13.896
76748W        W40505  39.892  19.703  12.834
76749W        W40506  35.486  24.631   1.860
76750W        W40507   1.745  17.775  11.451
76751W        W40508  28.137  42.442  12.988
76752W        W40509  35.413  40.490   1.349
76753W        W40510  15.098   7.228   1.901
76754W        W40511  36.558  40.544  10.995
76755W        W40512   6.870  30.924  14.335
76756W        W40513  27.588  39.468   0.960
76757W        W40514   1.785  42.989  12.576
76758W        W40515   6.292  37.468  12.892
76759W        W40516   1.470  15.621   2.366
76760W        W40517   1.746  36.490  12.578
76761W        W40518  17.229  17.299  10.616
76762W        W40519  27.536  14.097  14.398
76763W        W40520  22.722  34.001   3.857
76764W        W40521  28.067  39.006   5.304
76765W        W40522  21.068  34.987  10.890
76766W        W40523  37.952  13.339   0.918
76767W        W40524   2.753  17.160  13.505
76768W        W40525  35.427  22.700   1.767
76769W        W40526  21.044  34.507  10.409
76770W        W40527   7.243  22.676  12.891
76771W        W40528   8.707  43.459  14.877
76772W        W40529   9.198  36.577  13.859
76773W        W40530  43.948   0.938   0.383
76774W        W40531  10.775  39.877   2.718
76775W        W40532  33.398  25.694   5.234
76776W        W40533   5.792  26.527  13.047
76777W        W40534  16.641  44.860   4.256
76778W        W40535  16.701  44.427  12.995
76779W        W40536   7.788  16.293   0.277
76780W        W40537  36.471  14.142  11.499
76781W        W40538  23.614  35.097  11.509
76782W        W40539  22.084  23.512  14.386
76783W        W40540   8.722  10.178   1.314
76784W        W40541  36.053   3.799   3.733
76785W        W40542  21.564  14.636   3.300
76786W        W40543  10.790  14.216  11.868
76787W        W40544  20.524  37.879  14.820
76788W        W40545  25.649  40.488  12.093
76789W        W40546   2.872  43.419   3.809
76790W        W40547  17.657  27.680  12.574
76791W        W40548  41.366  36.007   4.755
76792W        W40549   4.782  16.648  11.872
76793W        W40550  29.965   7.262   1.307
76794W        W40551  13.721  42.841   1.745
76795W        W40552  18.740  27.159  10.981
76796W        W40553  40.862  26.628   0.742
76797W        W40554  37.373  11.826   3.759
76798W        W40555   3.920   1.961   9.946
76799W        W40556   3.433  30.016  13.837
76800W        W40557  28.443  17.662  10.625
76801W        W40558   9.647  28.014  11.991
76802W        W40559  23.667  24.011   0.748
76803W        W40560  35.982  13.797  12.091
76804W        W40561  32.088  32.973   0.455
76805W        W40562   1.436  42.003  14.407
76806W        W40563  24.188  11.284   0.273
76807W        W40564  10.257  31.576  11.434
76808W        W40565  30.119   5.284   4.704
76809W        W40566   2.806   2.727   4.745
76810W        W40567  13.666  41.412  10.591
76811W        W40568   2.242   2.806  10.538
76812W        W40569  16.310   2.830  12.557
76813W        W40570  37.524   6.825  14.853
76814W        W40571  10.876   6.237  13.415
76815W        W40572   7.204  28.673   3.797
76816W        W40573  10.304  26.469  12.856
76817W        W40574   6.359   1.837   4.752
76818W        W40575  17.062  23.997  14.956
76819W        W40576   0.964  35.591  13.904
76820W        W40577  35.508   5.730  14.834
76821W        W40578  22.215  30.494  12.876
76822W        W40579   7.799  13.808   1.877
76823W        W40580  32.431  37.054  11.011
76824W        W40581  23.076  16.297   0.245
76825W        W40582  24.580  11.201   0.762
76826W        W40583  43.512  35.890  12.985
76827W        W40584  30.134  29.999   3.368
76828W        W40585   5.894  26.643  12.544
76829W        W40586  14.205  25.165  14.480
76830W        W40587   3.819  11.686   4.162
76831W        W40588  24.073  23.121  12.833
76832W        W40589  33.565  38.038   1.211
76833W        W40590  34.946  33.023  13.796
76834W        W40591  22.727  44.280   0.393
76835W        W40592  43.844   9.265  13.869
76836W        W40593  21.616   5.297   3.639
76837W        W40594   7.702  27.513  14.983
76838W        W40595  24.109  15.585  14.859
76839W        W40596  37.082   2.300   1.436
76840W        W40597  23.509  21.543   2.366
76841W        W40598  16.089   0.392  12.451
76842W        W40599   7.204  25.024  12.084
76843W        W40600  38.449  43.398  12.383
76844W        W40601   6.198  36.995   0.445
76845W        W40602   9.876  33.566  13.329
76846W        W40603  12.177   9.763  10.892
76847W        W40604   2.720  34.942   4.160
76848W        W40605  39.379  37.454  11.431
76849W        W40606  38.909  43.015  12.077
76850W        W40607  26.105   2.226   1.328
76851W        W40608  20.701  25.665  10.592
76852W        W40609  19.224  39.345   0.941
76853W        W40610  39.834  17.080  13.809
76854W        W40611  11.822   5.763   2.741
76855W        W40612  41.042  10.321   3.212
76856W        W40613   8.369   8.289   1.913
76857W        W40614   9.822  16.087   2.285
76858W        W40615  40.361  43.315  14.947
76859W        W40616  23.194  33.400  13.445
76860W        W40617  19.764  32.093   4.165
76861W        W40618  31.135   7.754   3.369
76862W        W40619  38.330  31.492   0.267
76863W        W40620   7.266  16.219  14.449
76864W        W40621  28.138  41.885  10.426
76865W        W40622  35.872  19.204  10.950
76866W        W40623   2.925  21.687  10.991
76867W        W40624  12.209  33.128  13.477
76868W        W40625  32.434  22.622  13.983
76869W        W40626  27.674  36.080   4.663
76870W        W40627  34.885  18.706   3.649
76871W        W40628  14.828  12.641  13.485
76872W        W40629  20.181  17.146  12.568
76873W        W40630  31.460  44.994   3.387
76874W        W40631   7.745  34.926  12.986
76875W        W40632   9.342  12.214  11.465
76876W        W40633   8.752  15.231   0.264
76877W        W40634  44.770  31.145  14.868
76878W        W40635   8.666  38.049  14.824
76879W        W40636  15.169  35.575  14.471
76880W        W40637  42.351  37.450   5.306
76881W        W40638  26.640  39.486  14.848
76882W        W40639  44.840   2.832   1.758
76883W        W40640  16.594  24.195   0.952
76884W        W40641  12.705  27.634   4.637
76885W        W40642   6.375   9.215   3.729
76886W        W40643  27.011  19.573   4.344
76887W        W40644  29.163   3.320  14.911
76888W        W40645   2.874  28.965  10.547
76889W        W40646  35.480  31.559   1.785
76890W        W40647  16.289  17.556  11.923
76891W        W40648  44.936   4.247  11.903
76892W        W40649  14.687  34.987   3.149
76893W        W40650   9.313  30.426  14.369
76894W        W40651  43.911   1.315   3.741
76895W        W40652  37.410  30.116   3.315
76896W        W40653   2.888  43.931  10.604
76897W        W40654  16.630   6.218   0.748
76898W        W40655  15.637  12.846   2.184
76899W        W40656  41.913  31.023   0.379
76900W        W40657  36.005  10.182   3.750
76901W        W40658   5.778  32.498  11.046
76902W        W40659  22.514  20.737   0.260
76903W        W40660  26.017  20.526  13.972
76904W        W40661  41.513  44.302  11.075
76905W        W40662   8.228  10.351  13.511
76906W        W40663  19.629  24.022   0.903
76907W        W40664  38.837   7.740   4.246
76908W        W40665  40.909  23.507  14.789
76909W        W40666  18.055   6.196   3.638
76910W        W40667  34.402  16.163  13.060
76911W        W40668  30.092  28.974  11.032
76912W        W40669  31.515   2.386  12.541
76913W        W40670  28.567  33.504  14.859
76914W        W40671  20.225  29.635  14.004
76915W        W40672  21.518  34.010  14.447
76916W        W40673  16.590  14.618  10.959
76917W        W40674  44.357  20.265   4.783
76918W        W40675  18.182  35.864  12.557
76919W        W40676   1.910  28.145  12.956
76920W        W40677  37.368  10.799   4.230
76921W        W40678  12.257  28.939  14.938
76922W        W40679  35.008   3.931  12.896
76923W        W40680  35.369  11.735  11.961
76924W        W40681  21.226  28.049   0.243
76925W        W40682  39.502  26.114  13.336
76926W        W40683  39.840   1.387  14.802
76927W        W40684   9.786   7.272   0.274
76928W        W40685  30.996  25.705   4.271
76929W        W40686  16.567   0.339   2.673
76930W        W40687  13.809   0.835   1.339
76931W        W40688  11.769  25.527   3.761
76932W        W40689  30.115  21.708   3.718
76933W        W40690  29.481  23.655  10.916
76934W        W40691  42.442  29.984  12.029
76935W        W40692  34.439  23.066  10.901
76936W        W40693   0.766   3.370   2.808
76937W        W40694  23.491   4.423  14.841
76938W        W40695  41.897   6.890   1.332
76939W        W40696   7.335   4.931  13.897
76940W        W40697  16.657   3.424   2.749
76941W        W40698  11.175  32.408  11.105
76942W        W40699  35.492  31.964   3.723
76943W        W40700  34.553  35.468   3.246
76944W        W40701   9.191  33.955   2.399
76945W        W40702  40.026   3.925  10.520
76946W        W40703  41.335   1.314   4.778
76947W        W40704  43.995  29.554   3.639
76948W        W40705  31.446   9.368   1.854
76949W        W40706  17.187  31.087  14.986
76950W        W40707  10.833  15.327  10.622
76951W        W40708  23.572  15.774   4.631
76952W        W40709  33.561  40.908   4.838
76953W        W40710  21.611   4.209   4.300
76954W        W40711  26.498  35.910  11.444
76955W        W40712  26.177  29.452   0.881
76956W        W40713  33.575  35.950  10.423
76957W        W40714  19.747  14.737  10.465
76958W        W40715   8.396   9.160   0.928
76959W        W40716   7.234  16.188  12.094
76960W        W40717  37.567  42.339  12.376
76961W        W40718  38.342  25.576  12.997
76962W        W40719  34.583  38.937  11.099
76963W        W40720  35.962  35.864  11.891
76964W        W40721  44.345  35.048   0.754
76965W        W40722  29.950  44.384   3.831
76966W        W40723  14.127  32.028   2.412
76967W        W40724  22.695   3.926   4.308
76968W        W40725  19.598  36.043   3.779
76969W        W40726  38.491   6.899   0.275
76970W        W40727  25.995   2.731  12.005
76971W        W40728  31.104  20.721  10.572
76972W        W40729   7.332  39.820  10.448
76973W        W40730  10.707  43.942   2.319
76974W        W40731  37.034  25.695  12.387
76975W        W40732   3.772  21.165   2.750
76976W        W40733  36.911  24.623   1.322
76977W        W40734  40.822  38.912   1.783
76978W        W40735   2.853  18.272   4.805
76979W        W40736  40.499  22.113   1.391
76980W        W40737  33.889   6.370  14.864
76981W        W40738  14.124   9.234  14.385
76982W        W40739  36.491  17.100  10.947
76983W        W40740   1.465  20.652  11.576
76984W        W40741   3.406  24.647  14.336
76985W        W40742  16.779   2.725  13.971
76986W        W40743  15.283  27.512  11.450
76987W        W40744  34.103  29.432   2.854
76988W        W40745   2.333  23.160   0.433
76989W        W40746  25.603   5.212  13.919
76990W        W40747  18.123  31.569  11.595
76991W        W40748  24.559   7.329   1.225
76992W        W40749  36.901   2.939   3.854
76993W        W40750  21.130  29.660   3.794
76994W        W40751  16.207  31.537  12.552
76995W        W40752  22.710   0.956  13.951
76996W        W40753   8.787  35.505  11.505
76997W        W40754  11.162   2.246   2.706
76998W        W40755  21.646   1.267   0.320
76999W        W40756  30.625  10.748   1.342
77000W        W40757   4.222   9.884  12.988
77001W        W40758  33.934  40.310   0.253
77002W        W40759  12.223   4.910  13.842
77003W        W40760  40.364  28.439   0.452
77004W        W40761   0.379   3.910  12.895
77005W        W40762   3.841  17.261   2.217
77006W        W40763  37.972  10.671  10.529
77007W        W40764  40.934  29.023  12.520
77008W        W40765  26.478  43.990   4.206
77009W        W40766   9.391  43.926   2.686
77010W        W40767  24.154  17.159   0.843
77011W        W40768  11.695  32.535  14.867
77012W        W40769   7.398  37.519  14.375
77013W        W40770  17.251  20.722   1.261
77014W        W40771  43.460  42.971  12.519
77015W        W40772  18.580  11.236  12.355
77016W        W40773  27.546   9.296   0.311
77017W        W40774  23.001  27.656  10.967
77018W        W40775   0.782  37.994   0.894
77019W        W40776   7.893  18.782  11.525
77020W        W40777  20.044  15.769  11.514
77021W        W40778  12.258  13.241   3.233
77022W        W40779  16.701  26.991   0.871
77023W        W40780  42.395  19.764   4.226
77024W        W40781  12.250  35.967   2.348
77025W        W40782  28.050   6.425  11.005
77026W        W40783   3.836  28.608  10.440
77027W        W40784  15.088  16.135   2.366
77028W        W40785  36.933  38.563   0.784
77029W        W40786   0.796   8.680  12.085
77030W        W40787  17.773  27.680   3.653
77031W        W40788  19.534  38.493   3.817
77032W        W40789  15.669  14.634   3.360
77033W        W40790  36.502  25.624   2.821
77034W        W40791  21.263  20.140   0.798
77035W        W40792  26.459  11.649   5.133
77036W        W40793  18.602  15.229  12.006
77037W        W40794  40.018  27.586  12.834
77038W        W40795  23.515  32.401   0.318
77039W        W40796  15.627  39.537   1.389
77040W        W40797  42.900  43.923   0.931
77041W        W40798   7.257  27.026  13.540
77042W        W40799  34.445  22.639   2.289
77043W        W40800  29.538  27.681  12.026
77044W        W40801  41.483  10.147  12.071
77045W        W40802  44.367  27.453   1.920
77046W        W40803  19.648  32.603   1.437
77047W        W40804  14.277  12.645   4.156
77048W        W40805  41.817   6.278   1.249
77049W        W40806  38.895  13.809   4.695
77050W        W40807  37.988  28.174  14.314
77051W        W40808  18.711  30.962  14.304
77052W        W40809   4.854  10.658   0.318
77053W        W40810  19.541  10.264  14.862
77054W        W40811  13.763  17.225  11.939
77055W        W40812  29.022  23.571  11.106
77056W        W40813  23.626  16.173   0.862
77057W        W40814  44.914   1.936  14.401
77058W        W40815  19.666  26.686  10.924
77059W        W40816   6.819   2.956  12.827
77060W        W40817  17.148  24.125   0.460
77061W        W40818  11.641   2.861   1.365
77062W        W40819   5.834  33.430  14.933
77063W        W40820  37.079  42.888   1.921
77064W        W40821  26.499  23.572   0.876
77065W        W40822  34.372  15.227   2.266
77066W        W40823  24.095  25.131   3.255
77067W        W40824  42.374  26.956  10.909
77068W        W40825  11.172   5.917  14.346
77069W        W40826  31.593   0.366  12.509
77070W        W40827  43.515  20.553  13.841
77071W        W40828  12.126  15.153   4.651
77072W        W40829  15.693  38.462   5.264
77073W        W40830  39.424  29.961  13.497
77074W        W40831  26.192  30.485  12.395
77075W        W40832   8.779  27.680   1.345
77076W        W40833  25.210  27.594  12.574
77077W        W40834   2.225   2.870  13.529
77078W        W40835  33.508  17.708   3.845
77079W        W40836  38.820   6.859   1.247
77080W        W40837  23.515   9.861  14.958
77081W        W40838  27.459  20.197  12.978
77082W        W40839  30.493  42.310  13.982
77083W        W40840  32.967   1.833  11.471
77084W        W40841  23.501  30.421   2.772
77085W        W40842  37.370  40.469   4.129
77086W        W40843  24.066   6.406  13.033
77087W        W40844  35.942  11.691  11.475
77088W        W40845  34.054  24.029  10.983
77089W        W40846  30.042   4.359  13.417
77090W        W40847   7.287  18.078   3.364
77091W        W40848  35.564   9.205  12.512
77092W        W40849  22.656  29.434  14.973
77093W        W40850  37.350  21.744  14.952
77094W        W40851  11.852  21.092   4.777
77095W        W40852  25.509   3.761  14.855
77096W        W40853  26.608  32.450  14.839
77097W        W40854  40.447   0.342   0.436
77098W        W40855  37.069  24.174   4.779
77099W        W40856  18.663  19.603  13.025
77100W        W40857   0.256  41.871   2.776
77101W        W40858  13.778   5.835   4.263
77102W        W40859  24.484   3.457   2.804
77103W        W40860  39.002  23.586  11.538
77104W        W40861  36.938  41.799   4.773
77105W        W40862  29.465  16.750  12.513
77106W        W40863  27.022  40.491   3.854
77107W        W40864   7.686  18.576  14.814
77108W        W40865   3.227  29.984   1.262
77109W        W40866  21.612   7.775  13.042
77110W        W40867   9.797   7.416   3.811
77111W        W40868  43.874  28.617   2.867
77112W        W40869   2.853   9.869   4.211
77113W        W40870  19.695   8.675  11.044
77114W        W40871   9.233  31.565  10.545
77115W        W40872  17.717  18.290   2.733
77116W        W40873  25.969  26.085   5.294
77117W        W40874   9.800  34.053  13.903
77118W        W40875  15.205  20.268   0.728
77119W        W40876  23.072  13.789   4.282
77120W        W40877  31.986  41.972   0.747
77121W        W40878  27.028  19.141  11.526
77122W        W40879  37.043  42.351  13.316
77123W        W40880   6.223  18.628   3.725
77124W        W40881  17.149  24.982   1.788
77125W        W40882  31.153  23.730   0.807
77126W        W40883  27.681  32.411  11.506
77127W        W40884  30.014   8.318  10.979
77128W        W40885  39.980  11.272  12.370
77129W        W40886  16.621   4.240  11.989
77130W        W40887  15.813  43.866  14.897
77131W        W40888  32.546  22.057   1.840
77132W        W40889  23.615  30.017   3.808
77133W        W40890  33.597   2.462  12.063
77134W        W40891  11.788  22.249  10.969
77135W        W40892  34.913  17.242  13.485
77136W        W40893  28.663  17.599  14.830
77137W        W40894  20.270  32.581  14.319
77138W        W40895  20.166  27.462   4.342
77139W        W40896   9.331  29.522   0.440
77140W        W40897  14.163  23.594   2.214
77141W        W40898  31.020   1.430  12.580
77142W        W40899  37.419  37.994   3.365
77143W        W40900  11.805  44.809  10.583
77144W        W40901  21.217  28.964  14.982
77145W        W40902  21.178  10.712   3.213
77146W        W40903  40.531  23.692  12.962
77147W        W40904  44.309  12.247   3.320
77148W        W40905  18.058  32.529   2.759
77149W        W40906  15.308  15.751  13.841
77150W        W40907  35.059  13.671  12.996
77151W        W40908   3.246   8.799  11.414
77152W        W40909  39.483  15.105  14.899
77153W        W40910  23.144  29.485  14.448
77154W        W40911  36.554  20.701   2.239
77155W        W40912  16.733  35.393   4.735
77156W        W40913  26.031  21.642   1.728
77157W        W40914  35.074  10.318  12.349
77158W        W40915  26.641  27.494  11.439
77159W        W40916  21.223   6.904  14.364
77160W        W40917   7.282  35.988  13.345
77161W        W40918  41.467   6.760   1.868
77162W        W40919  26.189   4.422   4.693
77163W        W40920  31.523  26.006   2.315
77164W        W40921  21.141  28.519   2.838
77165W        W40922   1.824  14.639   2.189
77166W        W40923  25.198  36.875  14.501
77167W        W40924  34.891  36.378  10.570
77168W        W40925   7.792  13.171  10.475
77169W        W40926  10.247  37.574  13.801
77170W        W40927  22.605   3.711   2.398
77171W        W40928  36.503  21.055   3.354
77172W        W40929  13.676  10.852   2.742
77173W        W40930  31.932  23.068   3.670
77174W        W40931  25.058  44.877   3.301
77175W        W40932  34.116  12.834   4.706
77176W        W40933  39.043  10.677   2.755
77177W        W40934  26.503  34.902   5.281
77178W        W40935  30.067  33.544   2.378
77179W        W40936   7.677   2.440   4.301
77180W        W40937  32.081  14.689  11.445
77181W        W40938   2.230   7.337  14.369
77182W        W40939  22.083  15.632   1.874
77183W        W40940  43.514  24.559   0.921
77184W        W40941  13.620  36.088  11.514
77185W        W40942  42.776  40.845  12.580
77186W        W40943  31.600  36.441   1.443
77187W        W40944  43.916   7.261   2.361
77188W        W40945  24.219  38.903  11.402
77189W        W40946  15.751  18.686  13.439
77190W        W40947  42.916   8.163   2.824
77191W        W40948   5.254  13.256   2.789
77192W        W40949   8.249   0.396  10.593
77193W        W40950  41.432  18.632   2.179
77194W        W40951  39.384   7.723   3.339
77195W        W40952   6.413  42.325  11.022
77196W        W40953   7.197   1.839   3.859
77197W        W40954   6.352  24.699  10.908
77198W        W40955  16.747  39.843   2.180
77199W        W40956  16.766  21.253  12.025
77200W        W40957  30.061  35.937  13.023
77201W        W40958   5.692  34.010   2.260
77202W        W40959  29.163   3.309   5.576
77203W        W40960  13.140  21.640  13.918
77204W        W40961  30.121   1.800   4.617
77205W        W40962  44.821  20.245  11.478
77206W        W40963  39.472  15.775   1.712
77207W        W40964  33.996  15.637   4.122
77208W        W40965  28.493  36.873  14.854
77209W        W40966  15.800  22.720  10.645
77210W        W40967  38.928  23.996  13.393
77211W        W40968  16.645  11.782  11.590
77212W        W40969   4.350  18.073  12.900
77213W        W40970  13.638  40.838   1.914
77214W        W40971   3.914  41.415   0.389
77215W        W40972   0.887  29.535  11.920
77216W        W40973  21.256  38.841  13.401
77217W        W40974  43.340   0.763  11.096
77218W        W40975  32.423  35.458   1.327
77219W        W40976  34.088   2.926  11.990
77220W        W40977  30.073  38.444   2.759
77221W        W40978  19.279  27.594   3.759
77222W        W40979  21.723  12.626   5.141
77223W        W40980  10.194   2.924   2.258
77224W        W40981  27.545  25.169   0.357
77225W        W40982   3.315  30.069   0.327
77226W        W40983   3.935  37.058   3.777
77227W        W40984  35.550   6.302   4.255
77228W        W40985  41.824   6.217   4.828
77229W        W40986  30.502  19.568  14.438
77230W        W40987  43.286  36.478   4.191
77231W        W40988  14.816  22.038   4.311
77232W        W40989  30.434  33.101   2.220
77233W        W40990  21.628   1.958   3.749
77234W        W40991   1.748   9.828   0.895
77235W        W40992   1.339  44.954   1.324
77236W        W40993  27.684  25.581   0.438
77237W        W40994  20.606   9.298  12.480
77238W        W40995  37.844  17.648   2.221
77239W        W40996  22.727  20.672  14.020
77240W        W40997   4.438  38.850   4.122
77241W        W40998  21.678  13.785  10.422
77242W        W40999  31.112  18.682   0.742
77243W        W41000  19.685  39.371   0.484
77244W        W41001  43.807  15.593   2.366
77245W        W41002  23.112  40.010  14.920
77246W        W41003   9.780  41.490  10.552
77247W        W41004  17.645   4.730  14.470
77248W        W41005  36.975   1.457   2.785
77249W        W41006   2.316   6.784   3.851
77250W        W41007  19.235  29.560  10.927
77251W        W41008  20.206  41.871  12.906
77252W        W41009   4.915  17.122  14.418
77253W        W41010  35.577  14.279   2.895
77254W        W41011  21.053  13.113  14.810
77255W        W41012  18.631  44.504   0.875
77256W        W41013   5.902   0.355   0.900
77257W        W41014  40.970   0.325  14.510
77258W        W41015  37.561  22.699   2.272
77259W        W41016  24.697  19.114   4.315
77260W        W41017  14.254  34.024   1.709
77261W        W41018   2.466   9.815  13.413
77262W        W41019   0.921   1.374   2.705
77263W        W41020  44.786  41.036   0.792
77264W        W41021  43.465  10.183  13.321
77265W        W41022   0.407  44.483  11.408
77266W        W41023  38.365   5.882   1.271
77267W        W41024  43.391  37.001   2.779
77268W        W41025  22.202   6.286   0.815
77269W        W41026   5.910  44.343  11.404
77270W        W41027   7.820  15.593  11.955
77271W        W41028   9.718  14.792   0.872
77272W        W41029  30.491  23.534   2.816
77273W        W41030   2.875  27.008  13.869
77274W        W41031  20.137  22.037   3.726
77275W        W41032  19.744  20.633  10.488
77276W        W41033  42.469   7.192  13.417
77277W        W41034  33.528  16.585  12.447
77278W        W41035  39.490  34.890  13.533
77279W        W41036  36.466  31.078   4.230
77280W        W41037  10.143  34.916   2.343
77281W        W41038  22.683  28.037   2.744
77282W        W41039  16.167  26.123   1.801
77283W        W41040  22.546  41.394  11.000
77284W        W41041  23.172   5.300   3.634
77285W        W41042   6.243  23.019   3.378
77286W        W41043  18.075   3.924   3.833
77287W        W41044  42.970  25.635  13.469
77288W        W41045  22.105  41.870   2.250
77289W        W41046  10.655   7.833   3.721
77290W        W41047  16.714  39.918   0.783
77291W        W41048  43.912  29.934   0.960
77292W        W41049  13.172   1.936  13.341
77293W        W41050  33.977  15.110   0.766
77294W        W41051   5.786  35.099   4.222
77295W        W41052  19.050  12.264   0.778
77296W        W41053  29.640  24.058   1.855
77297W        W41054  26.172  12.709   0.732
77298W        W41055   8.655  43.327   0.905
77299W        W41056  10.216  19.044  14.440
77300W        W41057  23.156  40.904   1.438
77301W        W41058   9.822  13.232   0.784
77302W        W41059  44.956  19.118  13.050
77303W        W41060  42.849  29.490  12.069
77304W        W41061  19.087  33.518   0.773
77305W        W41062  35.977   3.266   1.713
77306W        W41063  26.985  15.612   4.345
77307W        W41064  22.512  19.579   3.329
77308W        W41065   3.378  13.350   2.397
77309W        W41066   1.977  27.146  12.457
77310W        W41067  40.377  42.427  14.986
77311W        W41068  42.424  40.036   4.195
77312W        W41069  41.378  20.099  14.403
77313W        W41070   6.902  41.951  14.950
77314W        W41071   2.729  42.517  11.086
77315W        W41072  10.156  22.628  12.977
77316W        W41073  32.959  20.640  11.612
77317W        W41074  31.595   2.247   5.238
77318W        W41075   2.368  37.070   3.235
77319W        W41076  20.230   2.917  14.990
77320W        W41077  21.604  40.507   2.768
77321W        W41078  25.668  23.224  12.983
77322W        W41079  34.936  22.192   2.877
77323W        W41080  25.513   0.280  13.891
77324W        W41081  33.902  27.643   4.132
77325W        W41082  28.608   2.921   2.366
77326W        W41083  17.778  31.942  14.790
77327W        W41084  11.333  39.036   1.249
77328W        W41085  39.448  35.377   3.805
77329W        W41086  34.987  41.379  14.382
77330W        W41087  24.637   3.810  14.501
77331W        W41088  37.007   4.931   3.778
77332W        W41089   4.418  30.420   2.796
77333W        W41090   1.767  22.155   3.162
77334W        W41091  39.334  38.390   3.279
77335W        W41092  34.594  44.958   0.957
77336W        W41093  40.532  19.189   0.429
77337W        W41094  14.327   1.444   3.834
77338W        W41095  31.529   3.802   2.892
77339W        W41096  31.518  33.991   0.868
77340W        W41097   5.712  22.663  10.591
77341W        W41098   0.417  33.529   2.397
77342W        W41099   7.337  31.055  12.571
77343W        W41100  10.774  38.884   4.214
77344W        W41101  16.742   0.318  14.355
77345W        W41102   7.909  15.815  13.023
77346W        W41103  10.164  13.310   1.795
77347W        W41104  37.552  16.780   4.298
77348W        W41105  14.649  31.514   4.251
77349W        W41106  27.522  22.733   5.566
77350W        W41107   8.197  39.407  13.499
77351W        W41108  36.563   9.823   4.218
77352W        W41109  21.738  28.030  11.489
77353W        W41110  41.509  32.417   3.728
77354W        W41111   5.734  27.961  11.946
77355W        W41112  21.754  44.420  11.983
77356W        W41113  41.791   2.310  13.031
77357W        W41114  30.154  20.714   2.372
77358W        W41115  30.052  15.094   3.251
77359W        W41116   2.328  20.571   4.248
77360W        W41117  10.317  30.037  11.015
77361W        W41118   2.400  28.169  12.973
77362W        W41119  17.749  20.188   1.244
77363W        W41120   3.953  42.970   5.307
77364W        W41121  26.658  41.867  14.467
77365W        W41122  25.685  25.193   1.811
77366W        W41123  23.131  36.923  13.342
77367W        W41124   2.467  44.995   2.680
77368W        W41125  25.696  26.502   0.267
77369W        W41126   2.297  20.628  12.554
77370W        W41127  23.643   8.291   2.324
77371W        W41128  27.525  12.754   2.195
77372W        W41129  37.064  33.552  11.968
77373W        W41130  44.309  17.564  12.483
77374W        W41131  11.157  40.042   4.289
77375W        W41132  11.278  42.519  10.583
77376W        W41133   1.316  42.844  11.020
77377W        W41134  15.311   4.325   4.775
77378W        W41135  42.464  40.000  12.959
77379W        W41136  32.422  41.457  11.864
77380W        W41137  33.057   0.369   0.857
77381W        W41138   7.375  43.496  11.021
77382W        W41139  24.589  15.726  14.963
77383W        W41140  41.921  23.043  14.853
77384W        W41141  25.194  25.593  12.506
77385W        W41142  39.863   5.930   4.746
77386W        W41143  39.017  36.933   2.223
77387W        W41144  17.652  15.782   0.359
77388W        W41145  24.560  29.971  14.013
77389W        W41146  16.156   7.708  14.860
77390W        W41147  32.509   6.309  12.096
77391W        W41148  37.420  14.799   4.336
77392W        W41149  39.055  40.049  13.904
77393W        W41150   4.936  22.136   0.733
77394W        W41151  44.481  38.549   2.271
77395W        W41152  35.362  39.894   3.154
77396W        W41153   9.356  35.997   0.475
77397W        W41154   4.388   6.752   4.835
77398W        W41155  44.456  44.354   1.343
77399W        W41156  41.521  31.407   3.368
77400W        W41157  31.079  13.706   1.720
77401W        W41158  43.004  35.066  13.841
77402W        W41159   4.280  44.486   5.114
77403W        W41160  26.658   7.416   3.807
77404W        W41161  36.534  18.691  12.354
77405W        W41162   6.241  40.943  12.894
77406W        W41163  30.592   0.762   2.244
77407W        W41164  16.127  18.679   2.865
77408W        W41165  26.165  19.624   2.279
77409W        W41166  27.570  17.593   4.271
77410W        W41167  42.296  21.598  11.432
77411W        W41168  30.542   0.977   2.800
77412W        W41169  15.699  17.063   4.715
77413W        W41170  40.434  42.988   2.683
77414W        W41171  39.503  41.520   1.699
77415W        W41172   8.766   5.370  12.868
77416W        W41173  17.725  25.095  12.927
77417W        W41174  21.068  41.028  14.315
77418W        W41175  20.263   6.697  11.871
77419W        W41176   2.802  20.253  11.477
77420W        W41177  23.074  29.658   3.643
77421W        W41178   2.357  26.532   0.399
77422W        W41179  10.265  27.525   1.820
77423W        W41180  20.589   4.311   4.170
77424W        W41181   1.373   2.892  12.532
77425W        W41182   2.729   5.357  10.933
77426W        W41183  16.582   8.207  12.445
77427W        W41184  22.519  38.539  14.953
77428W        W41185  43.782  15.182  13.000
77429W        W41186  22.718  44.318  13.916
77430W        W41187   7.730  17.202   2.774
77431W        W41188   6.332  38.842  14.302
77432W        W41189  33.106  14.171  12.376
77433W        W41190  26.115  13.627  14.972
77434W        W41191   2.763   7.907   4.122
77435W        W41192  39.402  14.761  10.601
77436W        W41193  22.072   6.376  10.979
77437W        W41194  16.102   0.374  13.930
77438W        W41195  23.215  19.766   1.818
77439W        W41196  44.454  13.240   4.766
77440W        W41197  16.254  42.829  11.864
77441W        W41198  20.228   7.824  10.917
77442W        W41199  27.179   3.410  14.352
77443W        W41200  32.507  12.620  10.941
77444W        W41201  19.613  28.470  11.398
77445W        W41202  35.017  42.938  13.928
77446W        W41203  22.669  21.075   2.678
77447W        W41204  16.272  25.673  14.470
77448W        W41205  42.416   8.254  12.356
77449W        W41206   7.255   3.926   2.377
77450W        W41207   7.854  44.818  11.990
77451W        W41208  30.083  10.292  12.358
77452W        W41209  27.559  26.183   2.340
77453W        W41210  37.531  10.277  12.072
77454W        W41211  40.998   0.943   3.293
77455W        W41212  17.577  39.479   3.844
77456W        W41213   4.324  35.361  14.441
77457W        W41214   4.326   8.355  11.980
77458W        W41215  13.678   7.208  10.524
77459W        W41216  41.813  13.170   2.263
77460W        W41217  21.638   4.731  11.529
77461W        W41218  35.386  16.247   4.118
77462W        W41219  27.122   4.208  12.870
77463W        W41220  42.498  16.268  13.816
77464W        W41221  28.461  13.164   9.501
77465W        W41222  19.610  39.944   0.423
77466W        W41223   3.854  36.021   1.734
77467W        W41224  26.047  20.034  11.554
77468W        W41225  16.237  17.190  12.909
77469W        W41226   2.383   4.907   0.375
77470W        W41227  11.145  42.472  13.327
77471W        W41228  44.823   3.249   3.708
77472W        W41229  20.527  36.984   5.651
77473W        W41230  19.664   0.421  14.426
77474W        W41231   6.414   1.395   2.208
77475W        W41232  13.124   3.722  11.457
77476W        W41233  15.312   8.180   0.421
77477W        W41234  43.394   2.903   3.730
77478W        W41235  22.222  26.691   2.325
77479W        W41236  25.153  39.491  12.885
77480W        W41237  31.571  10.783  13.912
77481W        W41238   2.826   3.404   3.291
77482W        W41239  31.112  21.075  14.291
77483W        W41240  29.562  40.449   0.333
77484W        W41241  25.003  22.585   2.821
77485W        W41242  42.468  26.458   0.451
77486W        W41243   4.913  22.687  11.610
77487W        W41244  17.615  16.168   0.898
77488W        W41245  28.979  18.202  14.285
77489W        W41246  44.414  24.107  10.552
77490W        W41247  15.677   7.810  10.985
77491W        W41248   4.353  26.553  10.595
77492W        W41249   4.360  15.093  10.631
77493W        W41250  42.511  31.094  11.552
77494W        W41251  26.458  11.762  14.410
77495W        W41252  15.137  33.125   3.799
77496W        W41253  12.828   5.290   0.297
77497W        W41254  23.232  22.649  14.318
77498W        W41255  31.963  20.249  10.628
77499W        W41256  22.117  33.968  11.120
77500W        W41257  40.549  23.579  11.507
77501W        W41258  20.127  11.649  12.441
77502W        W41259  41.534   2.281   3.781
77503W        W41260   6.246  21.538   3.314
77504W        W41261  24.071  16.669   0.740
77505W        W41262  28.591  33.508   1.818
77506W        W41263  39.525  43.461  14.860
77507W        W41264  34.063  37.943   3.643
77508W        W41265  26.632  13.132   3.714
77509W        W41266  22.511   8.767   1.274
77510W        W41267  41.497  15.096   3.375
77511W        W41268  35.506  35.995  11.444
77512W        W41269  10.668  30.489   3.848
77513W        W41270  42.014   2.770   0.763
77514W        W41271  29.581   3.257   0.898
77515W        W41272   2.261  35.469  10.498
77516W        W41273  36.351  14.127  12.435
77517W        W41274  41.468  25.132  11.973
77518W        W41275   3.297  12.717  11.971
77519W        W41276   8.175  30.506   3.233
77520W        W41277   5.694  24.080  10.567
77521W        W41278  37.912  12.354   4.222
77522W        W41279  25.500  39.826   2.225
77523W        W41280  32.135  12.720  14.415
77524W        W41281   8.765   4.449  10.542
77525W        W41282  40.959  42.999   2.314
77526W        W41283  29.164  24.516  11.611
77527W        W41284  26.058  30.011   3.660
77528W        W41285  43.340  32.918  13.938
77529W        W41286  11.656  24.227   2.388
77530W        W41287  15.589  26.701  11.898
77531W        W41288  13.280  27.489  14.438
77532W        W41289  17.613  43.816  11.530
77533W        W41290   3.794  37.911  11.610
77534W        W41291  18.718  33.511  13.473
77535W        W41292  43.511  17.127   0.799
77536W        W41293   4.792  12.687  13.530
77537W        W41294  39.489  16.233  13.518
77538W        W41295  14.768  41.347  10.449
77539W        W41296  42.516   0.825  12.420
77540W        W41297   6.918  37.912  14.764
77541W        W41298   6.844  34.566   1.408
77542W        W41299   0.845  13.716   0.850
77543W        W41300  13.624  28.110  12.968
77544W        W41301  30.986  43.800  10.527
77545W        W41302  44.949  32.989  11.479
77546W        W41303  33.488  20.543  13.796
77547W        W41304   8.851  35.413   4.264
77548W        W41305  34.507   0.973   4.256
77549W        W41306  37.499  29.563  12.465
77550W        W41307  35.479   0.791  14.510
77551W        W41308   1.789  14.292  10.564
77552W        W41309   2.856   9.335   4.835
77553W        W41310   4.447  44.461   4.298
77554W        W41311  40.026   5.222   2.684
77555W        W41312  33.548  44.944  14.844
77556W        W41313   6.398  38.432  11.003
77557W        W41314   9.392   4.280   3.197
77558W        W41315  26.055  15.759   0.286
77559W        W41316  20.162  22.622   0.738
77560W        W41317  28.151  23.677   3.729
77561W        W41318  20.249  16.665  10.638
77562W        W41319   7.277  40.545   3.689
77563W        W41320  32.984  14.633  12.519
77564W        W41321  35.413  31.583   0.937
77565W        W41322  10.857   5.865  11.902
77566W        W41323  25.098   2.377  11.121
77567W        W41324   0.794  39.511  12.444
77568W        W41325  35.007  13.689  13.980
77569W        W41326  39.845   4.911   3.297
77570W        W41327   5.829  24.182  13.906
77571W        W41328  19.209   0.491  10.626
77572W        W41329  41.864   3.839   1.866
77573W        W41330  34.031  25.608   2.235
77574W        W41331   1.243  35.941   0.959
77575W        W41332  28.669  41.340  11.549
77576W        W41333  24.160  22.667   3.637
77577W        W41334  12.216  37.874   1.335
77578W        W41335   9.764  43.862   2.352
77579W        W41336  28.533  17.127   0.829
77580W        W41337   4.821  22.640   4.722
77581W        W41338  34.459  19.259   2.210
77582W        W41339   9.306  36.381  14.372
77583W        W41340  17.197  19.599  13.996
77584W        W41341  20.659  40.866  14.409
77585W        W41342  22.138  44.384  10.635
77586W        W41343   7.211   7.763  10.550
77587W        W41344  29.557   1.248  11.944
77588W        W41345  34.569  33.477  12.940
77589W        W41346   6.238  18.569   1.445
77590W        W41347  44.809  10.320   4.184
77591W        W41348   1.249  31.960  11.596
77592W        W41349  11.689  23.575  11.589
77593W        W41350  12.266  17.283   2.342
77594W        W41351   4.798   3.782  14.389
77595W        W41352  21.729  38.883  12.092
77596W        W41353  35.969  28.666  13.490
77597W        W41354   5.887  25.992  12.366
77598W        W41355  38.343  41.986  11.081
77599W        W41356  24.046  35.892   5.208
77600W        W41357  13.166  16.713   1.906
77601W        W41358  41.309  11.684  14.312
77602W        W41359  17.750   6.851   2.363
77603W        W41360  26.490  26.061   0.304
77604W        W41361  28.040  20.630  10.404
77605W        W41362  31.092   3.949   1.830
77606W        W41363   7.269   8.293  13.891
77607W        W41364   0.457   1.270   3.674
77608W        W41365  37.404   5.798  14.788
77609W        W41366  25.187  36.406  13.993
77610W        W41367  33.532  10.821  10.457
77611W        W41368  17.596  40.985   3.378
77612W        W41369  15.112   0.368  14.026
77613W        W41370   4.255  17.629   4.277
77614W        W41371  26.973   4.904  10.929
77615W        W41372  20.112  12.735  10.475
77616W        W41373  43.391  43.451   4.152
77617W        W41374  38.950  44.932   2.886
77618W        W41375  42.783  43.955  13.523
77619W        W41376  14.340  27.486  10.992
77620W        W41377  32.437  21.634   1.712
77621W        W41378  41.832  15.821   3.378
77622W        W41379  39.875   9.335   1.712
77623W        W41380  43.856  19.642  14.954
77624W        W41381  17.088  24.540  10.109
77625W        W41382  13.706  34.055  12.468
77626W        W41383  32.918  11.156  11.412
77627W        W41384  29.496  15.783   1.420
77628W        W41385  39.985  15.694   3.293
77629W        W41386  22.581  36.041  11.931
77630W        W41387  12.806  18.545  11.038
77631W        W41388  42.288  34.398  13.899
77632W        W41389  28.467   1.361   2.194
77633W        W41390   7.202   2.453   2.327
77634W        W41391   6.903  26.196  12.948
77635W        W41392  25.005  10.336   2.401
77636W        W41393  14.677  44.772   0.267
77637W        W41394  18.057  41.472  14.378
77638W        W41395  35.556  39.831  13.822
77639W        W41396  38.848  19.264  14.382
77640W        W41397  38.569  28.585  10.587
77641W        W41398   5.304  35.015  12.502
77642W        W41399   3.769  18.080  10.149
77643W        W41400  26.182   0.987   4.772
77644W        W41401  32.512  21.629   4.203
77645W        W41402  20.228  42.930  11.436
77646W        W41403  13.230  35.087  14.814
77647W        W41404  37.885  13.784   4.269
77648W        W41405   6.688  11.304  10.587
77649W        W41406  39.012  26.483  14.826
77650W        W41407  33.574  22.011  10.906
77651W        W41408  29.160  11.319  12.527
77652W        W41409   1.456  38.940   1.228
77653W        W41410  28.473  34.598   3.260
77654W        W41411   2.456   9.213  14.915
77655W        W41412  28.122  21.588  14.016
77656W        W41413  11.301  24.107   2.196
77657W        W41414  43.822  29.657   4.193
77658W        W41415  44.927  40.022  14.919
77659W        W41416  42.513  12.223  12.439
77660W        W41417  29.558  36.464  12.578
77661W        W41418  15.612  11.790  14.960
77662W        W41419  16.264  17.562  14.488
77663W        W41420  14.606  28.625  12.838
77664W        W41421  10.158  20.698  13.524
77665W        W41422  26.461  41.441   2.799
77666W        W41423  32.954  32.961  12.375
77667W        W41424  23.734  24.640   9.656
77668W        W41425  10.213  10.740   1.249
77669W        W41426  41.982  41.002  12.526
77670W        W41427  12.703   3.953  13.028
77671W        W41428  22.187  19.047   1.723
77672W        W41429   1.951  12.317   1.253
77673W        W41430  16.585   1.339   3.368
77674W        W41431  26.164  36.425  11.475
77675W        W41432  15.210  16.127   4.667
77676W        W41433  41.501  23.055  12.028
77677W        W41434  11.832   6.901  11.870
77678W        W41435   5.843  24.582  11.891
77679W        W41436  31.017   5.324  11.917
77680W        W41437  24.704   2.812   2.743
77681W        W41438  14.308  21.141   0.372
77682W        W41439  28.445  14.237  13.339
77683W        W41440  19.073   7.219   2.364
77684W        W41441  33.405  43.939   4.609
77685W        W41442   4.748  43.309   1.258
77686W        W41443  22.198  30.613   4.298
77687W        W41444  19.231  12.193   3.213
77688W        W41445  22.669   3.861   3.195
77689W        W41446  43.418  29.427   4.722
77690W        W41447  31.581  44.803  13.821
77691W        W41448  23.198  27.063  13.828
77692W        W41449  42.844   8.327   3.251
77693W        W41450  16.112  22.621  14.334
77694W        W41451   1.386  41.401  14.359
77695W        W41452  26.595  12.795  12.561
77696W        W41453  13.263  19.136  10.574
77697W        W41454  38.474  43.297   4.268
77698W        W41455   4.280  19.627  13.004
77699W        W41456  20.172  11.181   0.459
77700W        W41457  33.497  29.971   4.117
77701W        W41458   9.828   4.813   2.748
77702W        W41459  17.623  27.479   4.799
77703W        W41460   4.848  43.854   3.850
77704W        W41461   4.330   5.241  13.916
77705W        W41462  12.751   8.770   0.856
77706W        W41463  43.322  43.865  12.906
77707W        W41464   3.368   4.876   1.239
77708W        W41465  11.220  36.403  13.446
77709W        W41466   7.295  24.655  13.307
77710W        W41467  39.857  26.088   0.867
77711W        W41468   0.347  27.151  12.461
77712W        W41469  36.020  26.571  13.938
77713W        W41470  39.488  18.560  14.362
77714W        W41471  17.558   5.289   2.273
77715W        W41472  41.824  12.659   1.292
77716W        W41473  26.096  17.065  12.853
77717W        W41474  28.023  40.458   4.691
77718W        W41475   6.894   1.321   0.326
77719W        W41476  11.351  12.721   0.773
77720W        W41477   9.218   8.350   1.827
77721W        W41478   5.709  30.447   1.858
77722W        W41479  32.005  26.008  12.536
77723W        W41480  34.480   4.238  14.359
77724W        W41481  15.592  17.652  14.766
77725W        W41482  28.528  10.243   3.198
77726W        W41483   1.792  44.358   1.873
77727W        W41484  39.314  20.263  13.017
77728W        W41485  38.364  23.081   3.205
77729W        W41486   6.270  23.089   3.857
77730W        W41487  36.024   9.673  13.936
77731W        W41488  28.949  40.811  13.466
77732W        W41489  20.652  29.974   4.802
77733W        W41490  12.682  19.683  14.450
77734W        W41491  30.505  33.082   1.740
77735W        W41492  43.352   9.376  10.947
77736W        W41493  10.683  38.501   3.272
77737W        W41494   4.819  36.400  12.957
77738W        W41495  12.638  11.825   2.371
77739W        W41496  11.332   9.241  13.968
77740W        W41497  15.677  12.331  10.914
77741W        W41498  43.931  34.528   3.341
77742W        W41499  34.567  34.910   3.771
77743W        W41500  14.234  31.477   0.274
77744W        W41501  35.993   0.765   2.754
77745W        W41502   2.734  36.050  13.977
77746W        W41503  37.874  39.009  11.548
77747W        W41504  10.772  11.222  12.946
77748W        W41505   7.409  22.111  13.054
77749W        W41506   8.307  23.606   1.789
77750W        W41507  34.008  20.123   1.753
77751W        W41508  20.274   2.228  11.039
77752W        W41509   9.781  36.470   2.767
77753W        W41510  23.646  34.474   4.166
77754W        W41511   1.797  26.033   0.773
77755W        W41512  29.973   4.792  10.411
77756W        W41513  26.070  12.732   2.345
77757W        W41514  41.387  29.535   1.845
77758W        W41515   9.279  33.619  12.886
77759W        W41516  39.514  40.002  12.418
77760W        W41517  36.526   6.202   0.369
77761W        W41518  38.408  15.112   1.420
77762W        W41519  30.560  26.186  10.482
77763W        W41520   3.917  37.425  10.634
77764W        W41521  31.001  30.570  13.318
77765W        W41522  40.966  34.605  10.970
77766W        W41523  32.122   0.836  12.858
77767W        W41524  29.983  32.576   3.824
77768W        W41525  14.243  20.681   3.741
77769W        W41526  20.637  34.412   0.481
77770W        W41527  16.137  39.518  14.477
77771W        W41528  15.131  36.373   1.875
77772W        W41529  29.481   3.746  12.500
77773W        W41530   4.782  40.902   2.276
77774W        W41531  29.563   1.859  13.410
77775W        W41532  14.197  42.882  14.461
77776W        W41533   0.247  11.168  14.499
77777W        W41534   2.831  32.461  10.420
77778W        W41535  17.679   8.791   0.835
77779W        W41536  13.791  20.574  12.896
77780W        W41537   1.441   2.238   3.244
77781W        W41538  29.086   1.751   4.296
77782W        W41539  20.731  10.784  12.864
77783W        W41540   1.754  15.159   3.181
77784W        W41541  26.661  20.558  12.064
77785W        W41542   8.191  34.488   1.826
77786W        W41543  14.156  13.336  11.504
77787W        W41544  30.092  34.093   4.728
77788W        W41545   4.780  26.577   3.844
77789W        W41546  30.044   8.845   0.246
77790W        W41547  36.088  25.042   1.904
77791W        W41548  17.702  25.678  11.892
77792W        W41549  26.160  31.555  13.029
77793W        W41550  30.082  43.934   2.311
77794W        W41551  24.999  29.990  11.111
77795W        W41552  21.208  38.506  11.095
77796W        W41553  43.947  15.120   2.669
77797W        W41554   5.431  16.136   0.792
77798W        W41555   3.919  35.492  12.002
77799W        W41556  44.359  10.274   1.404
77800W        W41557  33.932  18.768  13.853
77801W        W41558  44.387  38.873   1.721
77802W        W41559  19.568  30.451  10.405
77803W        W41560  18.157  10.646   3.299
77804W        W41561   3.365   4.718  11.421
77805W        W41562  20.616  15.815  10.045
77806W        W41563  25.135   8.350  10.411
77807W        W41564   7.706   9.372   0.410
77808W        W41565  34.988  21.746  14.488
77809W        W41566   7.738  25.676  13.012
77810W        W41567   7.810  13.812  12.989
77811W        W41568  17.190  38.040   1.429
77812W        W41569  14.643  10.231   3.178
77813W        W41570  31.043  37.976   4.170
77814W        W41571   7.854  42.507  13.885
77815W        W41572  27.567  29.101  11.021
77816W        W41573   0.278   5.311  13.856
77817W        W41574   8.229   3.722  12.460
77818W        W41575   7.755  38.410   1.923
77819W        W41576   6.767  43.369   1.407
77820W        W41577  32.599   6.681   1.333
77821W        W41578  16.238  44.891  12.838
77822W        W41579  15.694  26.535   3.372
77823W        W41580  11.782  21.680  12.937
77824W        W41581  36.541  24.676   3.233
77825W        W41582  14.787   1.738  11.046
77826W        W41583  25.507  33.121  13.901
77827W        W41584  19.707  28.970   4.733
77828W        W41585  16.774   1.338   1.708
77829W        W41586  42.355  25.216   3.367
77830W        W41587  28.929  33.965  11.572
77831W        W41588   8.375  25.623   3.225
77832W        W41589   0.333  41.485  13.381
77833W        W41590  40.334  44.841   4.833
77834W        W41591  35.374  38.385   1.350
77835W        W41592  12.342  34.519  11.531
77836W        W41593  10.249   2.931   3.295
77837W        W41594  28.004   5.272  10.628
77838W        W41595  19.204   9.688   1.411
77839W        W41596  27.111  23.192  13.882
77840W        W41597  33.034  32.102  14.427
77841W        W41598   7.317  24.114   3.729
77842W        W41599   9.771  22.193  12.988
77843W        W41600  21.572  11.146   3.665
77844W        W41601   2.818  28.151  12.374
77845W        W41602  33.083  24.526  10.552
77846W        W41603  23.705  41.878  13.018
77847W        W41604  13.789   8.859  11.869
77848W        W41605  37.346  13.153   0.803
77849W        W41606   9.264  33.608   3.688
77850W        W41607  17.080  29.566  11.028
77851W        W41608  37.545  13.612  14.994
77852W        W41609  23.223  43.453   2.399
77853W        W41610  31.488  33.912   4.813
77854W        W41611  21.129  21.106   4.795
77855W        W41612  31.153  37.959   1.281
77856W        W41613  23.135  22.665   0.934
77857W        W41614  32.085  28.455   5.098
77858W        W41615  11.164  11.793   2.846
77859W        W41616   0.346  41.819   0.843
77860W        W41617  32.623  13.105  10.587
77861W        W41618  38.508  29.670  14.813
77862W        W41619  31.961  35.866  10.552
77863W        W41620   1.449  30.522  13.503
77864W        W41621  33.078  16.124   4.247
77865W        W41622  43.347  11.713   3.270
77866W        W41623  21.584  29.127  11.440
77867W        W41624  20.079   4.219   1.741
77868W        W41625  29.649   7.766  11.925
77869W        W41626   6.862  29.654  10.458
77870W        W41627  26.155  31.481   2.842
77871W        W41628  19.059  31.910   0.960
77872W        W41629   2.897  26.543  10.407
77873W        W41630  20.248  33.086   4.320
77874W        W41631  23.526  17.595   1.909
77875W        W41632  40.371  11.256  14.917
77876W        W41633  17.722  17.688   0.264
77877W        W41634   0.796  14.273   0.854
77878W        W41635  33.540  42.351  13.409
77879W        W41636   9.665  13.618  14.280
77880W        W41637  32.925  25.670   9.991
77881W        W41638  19.241  16.733  14.023
77882W        W41639   6.778  39.378  14.893
77883W        W41640  12.166  37.467  13.376
77884W        W41641  22.016  34.980  10.947
77885W        W41642  16.125   1.919  13.908
77886W        W41643  23.650   8.895  14.287
77887W        W41644   8.351  42.337   4.181
77888W        W41645  19.274   4.294   4.200
77889W        W41646  20.555  33.933  14.957
77890W        W41647   2.342  37.379   2.210
77891W        W41648  18.157  18.620  14.443
77892W        W41649   8.719   8.229  11.423
77893W        W41650   5.711  20.239   0.273
77894W        W41651  39.050  17.171   1.793
77895W        W41652  25.582  30.429   2.899
77896W        W41653   2.846  26.626   3.234
77897W        W41654  40.391  13.149  11.500
77898W        W41655  33.115  35.872   0.893
77899W        W41656  26.988  27.534  13.034
77900W        W41657   3.784   8.742   1.767
77901W        W41658  14.653  31.965  14.910
77902W        W41659  22.651  10.304   0.737
77903W        W41660  36.870  22.606   4.667
77904W        W41661  19.076  34.579   1.295
77905W        W41662  22.500  22.013   4.204
77906W        W41663  24.106  14.234   0.325
77907W        W41664  32.614   9.806   2.328
77908W        W41665  37.026   7.352   4.255
77909W        W41666  19.052   3.241   1.804
77910W        W41667  11.735   3.784  12.531
77911W        W41668   9.311  18.125  13.880
77912W        W41669  21.616  14.650   3.712
77913W        W41670  37.051  27.668   0.356
77914W        W41671  14.217   4.725   1.391
77915W        W41672  32.096   9.704   2.366
77916W        W41673  43.981  31.949  13.940
77917W        W41674  37.524  27.586   9.961
77918W        W41675   1.242   6.238  13.333
77919W        W41676  24.619  31.448   1.313
77920W        W41677  23.213  15.083   1.874
77921W        W41678  43.836  21.092  14.275
77922W        W41679  10.872  21.176  10.083
77923W        W41680   0.836  41.461   9.984
77924W        W41681  41.863  36.479   1.824
77925W        W41682  28.060  36.973   3.177
77926W        W41683  43.378  17.089  11.606
77927W        W41684  19.574  12.627  11.427
77928W        W41685  30.940  38.976   9.997
77929W        W41686  39.938  14.640   4.829
77930W        W41687  36.090  27.549   2.323
77931W        W41688  35.916   3.300   2.260
77932W        W41689   6.353  18.666   5.213
77933W        W41690  26.144  17.728   3.858
77934W        W41691  17.643  39.366  12.918
77935W        W41692  29.105   1.958  13.364
77936W        W41693  33.916  44.832  13.925
77937W        W41694  14.110   5.276   4.129
77938W        W41695  20.201   9.250  10.621
77939W        W41696  32.052  43.789   2.833
77940W        W41697   5.397  41.028   1.403
77941W        W41698  10.675   0.373  13.828
77942W        W41699  15.248  25.217  13.835
77943W        W41700   8.663  44.421  14.807
77944W        W41701  27.051   4.402  12.028
77945W        W41702   4.699  12.781   5.300
77946W        W41703  15.682  12.323   1.289
77947W        W41704  18.116  36.061  12.019
77948W        W41705  22.702  16.167  13.539
77949W        W41706  12.814  35.387   0.962
77950W        W41707  39.838   3.824  10.088
77951W        W41708  23.095  44.347  12.410
77952W        W41709  15.614   2.864   4.659
77953W        W41710  36.907  36.042  11.057
77954W        W41711   5.271  11.205  14.964
77955W        W41712  35.937  29.532   4.164
77956W        W41713  30.060  18.758   0.331
77957W        W41714  42.967  32.591   0.954
77958W        W41715   0.313  20.159   0.887
77959W        W41716  15.717  35.099  10.988
77960W        W41717  34.378  27.474   2.313
77961W        W41718   5.778  33.505   1.356
77962W        W41719  19.631  32.094   1.779
77963W        W41720  33.574   9.275   4.219
77964W        W41721  28.027  30.537   3.705
77965W        W41722  26.605   3.718   3.318
77966W        W41723  17.301  12.783   3.220
77967W        W41724  16.604  12.759  13.953
77968W        W41725  32.496  33.520   2.777
77969W        W41726  26.614   5.300  11.606
77970W        W41727   2.932  42.797   0.309
77971W        W41728  35.014   3.306   3.200
77972W        W41729  41.434  36.909   1.215
77973W        W41730   7.244   0.865  14.317
77974W        W41731  41.495  12.357   2.688
77975W        W41732   0.768  12.340  13.881
77976W        W41733  32.515   6.399  13.858
77977W        W41734  22.024   2.801   3.855
77978W        W41735  41.956  18.749   1.890
77979W        W41736  34.109   0.425   4.710
77980W        W41737  44.304  31.404   1.876
77981W        W41738   2.266  20.605   1.719
77982W        W41739  27.015  43.927  12.366
77983W        W41740  36.013  39.939   4.673
77984W        W41741  12.180  31.611   4.786
77985W        W41742  26.512  28.137   4.824
77986W        W41743  13.261  39.446  13.947
77987W        W41744  22.166   9.250   1.422
77988W        W41745  39.063   9.381   2.183
77989W        W41746  16.208  30.146  12.557
77990W        W41747   5.293  31.547   3.742
77991W        W41748  39.437  37.950   1.892
77992W        W41749  30.550   3.742  10.960
77993W        W41750  17.702   2.278   4.824
77994W        W41751  24.597  44.428  14.305
77995W        W41752  22.012  26.503  12.375
77996W        W41753  25.175   2.929  12.526
77997W        W41754  25.474  12.348   4.212
77998W        W41755  22.091  16.227  11.440
77999W        W41756  24.128  19.128   0.303
78000W        W41757  41.011  41.877  14.797
78001W        W41758  27.130  41.537   2.833
78002W        W41759  42.480  34.386  13.518
78003W        W41760   1.769   3.890   3.680
78004W        W41761  22.723   7.678  11.034
78005W        W41762  18.143  25.689  10.576
78006W        W41763  27.996  43.429   3.683
78007W        W41764  40.343  14.246   1.405
78008W        W41765  21.674  34.571   3.223
78009W        W41766   4.913  24.054  12.430
78010W        W41767  38.432  23.721  12.928
78011W        W41768  20.536  12.160   3.218
78012W        W41769   7.255   9.158  12.384
78013W        W41770  16.749  20.745   4.301
78014W        W41771   8.307   5.372  12.483
78015W        W41772   1.941   0.475  14.319
78016W        W41773   5.304  18.126   0.906
78017W        W41774  41.435  22.586   2.296
78018W        W41775  28.658  24.719  12.496
78019W        W41776  26.075  12.779  10.631
78020W        W41777  26.058   4.277   3.157
78021W        W41778  22.627   7.297  12.533
78022W        W41779  27.605  20.546   2.847
78023W        W41780  20.136  36.850  14.882
78024W        W41781   0.788   4.280   2.273
78025W        W41782  42.840  13.780  10.435
78026W        W41783  16.626  31.099  14.475
78027W        W41784   4.943   0.971  12.886
78028W        W41785  37.913  12.202  12.056
78029W        W41786  17.793  15.592   4.132
78030W        W41787  17.129  43.987  14.000
78031W        W41788  44.338  12.793   4.252
78032W        W41789  25.536  42.786  12.892
78033W        W41790  42.943  29.449  11.414
78034W        W41791  36.360   8.167   2.730
78035W        W41792  32.035  20.180   4.745
78036W        W41793  12.117  37.976  12.866
78037W        W41794  17.210  32.609  10.106
78038W        W41795  43.333  26.652   1.326
78039W        W41796  34.042  22.203   4.185
78040W        W41797  28.530  11.826   4.280
78041W        W41798  32.464  22.087   2.887
78042W        W41799  28.000   6.302   3.194
78043W        W41800  40.997   3.317   3.227
78044W        W41801  27.651  39.358  12.945
78045W        W41802  42.961  37.485  13.474
78046W        W41803  42.488   7.855  14.799
78047W        W41804  31.943  26.042   4.202
78048W        W41805   6.867   7.758  11.972
78049W        W41806   5.800  27.581   3.864
78050W        W41807  16.088   1.793  12.942
78051W        W41808  30.558  39.454  14.008
78052W        W41809  41.377  41.376  11.593
78053W        W41810  34.462   5.202   3.669
78054W        W41811   0.906   7.389   1.775
78055W        W41812  27.120  35.473   3.737
78056W        W41813  28.657  24.184   3.190
78057W        W41814  29.623  25.988  11.372
78058W        W41815  42.884   1.925   0.958
78059W        W41816  37.449  19.633   4.174
78060W        W41817  27.168   7.869  14.803
78061W        W41818  12.717  24.546  14.498
78062W        W41819  23.987  14.133  12.884
78063W        W41820  44.454  14.692   1.848
78064W        W41821   8.204  44.261  14.313
78065W        W41822  29.523  27.949   4.726
78066W        W41823  22.561  29.651   3.209
78067W        W41824  23.150  24.974   4.242
78068W        W41825  12.822   8.360  14.420
78069W        W41826   9.222   8.180   4.169
78070W        W41827   5.819   2.346  14.277
78071W        W41828  17.708  36.542  10.573
78072W        W41829  21.718  26.654  14.409
78073W        W41830  28.534  26.048  11.124
78074W        W41831  22.128  33.049   2.359
78075W        W41832  34.371   8.374   1.266
78076W        W41833  27.942  43.777   2.883
78077W        W41834  32.955  41.810  14.428
78078W        W41835  23.712  32.438   0.837
78079W        W41836  39.433  31.057  14.989
78080W        W41837  40.953  42.285  11.023
78081W        W41838  12.614   6.220  13.459
78082W        W41839  19.749   4.813  10.414
78083W        W41840  25.707  32.528  12.507
78084W        W41841  24.646  43.016   0.251
78085W        W41842  31.589  32.604   4.305
78086W        W41843  37.474  35.589   1.694
78087W        W41844   8.365  16.158  12.843
78088W        W41845  15.632  16.652  13.417
78089W        W41846  17.715   3.336   4.124
78090W        W41847   2.779  18.174  11.574
78091W        W41848  32.413  30.620   4.744
78092W        W41849  43.441  22.033   2.204
78093W        W41850  44.458  34.417   2.417
78094W        W41851  17.602   1.958   2.856
78095W        W41852  30.926  22.030  13.425
78096W        W41853  28.648  10.804  14.391
78097W        W41854  32.899  12.650  10.632
78098W        W41855   6.853  38.075  11.444
78099W        W41856  28.086  36.035  14.902
78100W        W41857  18.722  29.006  13.984
78101W        W41858  10.235  32.981   4.607
78102W        W41859  16.098  41.310   4.805
78103W        W41860  16.616  35.368  11.593
78104W        W41861   6.318  39.823  12.901
78105W        W41862  24.527  40.433   3.237
78106W        W41863  21.162  21.160  14.869
78107W        W41864  13.615   4.427   2.724
78108W        W41865  24.040   9.885   3.192
78109W        W41866  24.498  19.761   1.292
78110W        W41867   4.766   6.731  12.094
78111W        W41868  31.086  16.126  14.360
78112W        W41869  26.674   3.290  14.805
78113W        W41870  10.327   7.371  12.841
78114W        W41871  14.209  11.299   1.444
78115W        W41872  24.202  25.575   9.538
78116W        W41873  22.543  39.377   2.900
78117W        W41874  20.129  41.300  11.494
78118W        W41875  19.194  32.069   2.293
78119W        W41876  35.992  19.665   0.797
78120W        W41877  27.491   2.252   3.661
78121W        W41878   4.365   6.763  14.854
78122W        W41879   7.885   5.305   3.349
78123W        W41880   4.741  11.333  11.509
78124W        W41881   4.214  43.015  13.895
78125W        W41882  22.726  32.397   1.716
78126W        W41883  30.982  12.348  12.001
78127W        W41884  41.331  41.993  11.918
78128W        W41885  38.362  18.277   0.940
78129W        W41886  18.095  34.596  10.995
78130W        W41887  27.653  35.854  14.488
78131W        W41888  44.361  26.045  14.977
78132W        W41889  44.372  10.180   0.916
78133W        W41890  26.083   9.190   4.741
78134W        W41891  29.116  12.225  12.884
78135W        W41892  29.454  38.330  11.892
78136W        W41893   5.356  10.382  11.441
78137W        W41894  24.508   9.838   0.325
78138W        W41895  10.189  19.077  14.831
78139W        W41896  17.733  16.723  13.984
78140W        W41897  32.037  14.224  11.491
78141W        W41898   3.829   6.272  14.509
78142W        W41899  36.085  43.297  12.945
78143W        W41900  35.589  12.216   1.348
78144W        W41901  31.919  27.520   3.802
78145W        W41902  43.951   8.760  12.571
78146W        W41903  27.510  44.805   2.749
78147W        W41904  20.703  19.274   4.733
78148W        W41905  29.471  40.020  13.362
78149W        W41906  39.359  44.398  14.502
78150W        W41907  21.074  15.659   1.703
78151W        W41908  37.081  29.008   4.289
78152W        W41909  34.370  40.356  14.501
78153W        W41910  34.529  33.606   0.820
78154W        W41911  15.627  33.510  13.928
78155W        W41912  16.620  25.596   3.377
78156W        W41913  12.739  37.005  14.350
78157W        W41914  30.010  35.504   0.900
78158W        W41915  18.148  25.005  10.561
78159W        W41916  33.095  32.458  14.944
78160W        W41917  17.603  44.395   0.824
78161W        W41918  16.095   7.755  12.845
78162W        W41919  24.013   6.377  14.772
78163W        W41920   9.326   8.857  14.325
78164W        W41921  29.950  34.049   0.735
78165W        W41922   4.404  38.558  14.819
78166W        W41923  44.298  25.594  14.845
78167W        W41924  31.140  27.663  14.378
78168W        W41925   0.756  34.965   5.307
78169W        W41926  28.544  33.566  12.046
78170W        W41927  40.940  30.451   2.896
78171W        W41928  39.348  25.506   1.428
78172W        W41929   9.732  39.545   0.462
78173W        W41930  31.120  37.459   2.879
78174W        W41931  13.190  29.176   4.136
78175W        W41932  27.500   4.896  10.976
78176W        W41933   1.735  27.154  14.509
78177W        W41934  23.104   0.359  10.643
78178W        W41935  37.569  33.914   4.788
78179W        W41936  21.679   1.375  13.893
78180W        W41937  30.525  15.227  12.406
78181W        W41938  15.705   6.201   2.370
78182W        W41939  32.574  32.546   4.256
78183W        W41940  27.107  40.894   3.239
78184W        W41941   7.684   4.810   9.943
78185W        W41942  18.572   2.885   1.934
78186W        W41943  41.885  43.360   2.810
78187W        W41944  41.324  17.579   2.285
78188W        W41945   7.312  32.580   0.763
78189W        W41946  36.980   8.182  12.368
78190W        W41947  24.068  32.022   4.156
78191W        W41948  22.731  23.672  12.420
78192W        W41949  38.393   9.757  11.004
78193W        W41950  29.536  21.604   2.672
78194W        W41951   4.308  41.998   1.449
78195W        W41952   0.321   6.811  10.503
78196W        W41953  40.904  22.585   0.465
78197W        W41954  17.120  19.229   2.407
78198W        W41955  28.107  25.701  11.448
78199W        W41956  12.208  12.611   4.610
78200W        W41957  22.696  10.761  14.299
78201W        W41958  20.078   8.181  10.591
78202W        W41959   7.396   9.813   3.697
78203W        W41960  22.641  30.620   0.285
78204W        W41961  30.138  13.800   3.246
78205W        W41962   2.267  26.502  13.314
78206W        W41963  36.530  20.214   2.838
78207W        W41964  14.314  14.132  10.961
78208W        W41965  22.562   0.454   2.411
78209W        W41966  18.756  44.791   4.669
78210W        W41967  26.145   8.739   3.795
78211W        W41968  13.788  23.026   2.846
78212W        W41969  10.700  25.480  11.605
78213W        W41970  21.187  41.009  14.806
78214W        W41971  42.376  20.075  12.902
78215W        W41972  33.997  18.667   4.761
78216W        W41973  32.060  30.104  13.893
78217W        W41974  21.626  16.152   3.766
78218W        W41975  17.711   5.314   3.702
78219W        W41976  19.534   4.861   2.389
78220W        W41977  19.187   9.251   3.214
78221W        W41978  39.995   0.793  10.909
78222W        W41979   4.721  11.357   4.693
78223W        W41980  30.512  22.139   2.718
78224W        W41981  21.054   9.359  11.970
78225W        W41982  16.222  35.927   1.222
78226W        W41983   4.850   2.902   1.373
78227W        W41984  31.473  41.368   2.839
78228W        W41985   4.815  44.832   0.864
78229W        W41986  32.955  23.099  12.926
78230W        W41987  21.259  42.933  12.995
78231W        W41988  23.073  17.296  10.610
78232W        W41989  33.975   9.236  11.045
78233W        W41990  34.577   2.233   4.187
78234W        W41991  26.097  11.199  11.488
78235W        W41992  12.684  35.904   3.740
78236W        W41993  33.097   8.782   0.341
78237W        W41994  21.170  44.760  10.426
78238W        W41995   1.940  18.766  10.946
78239W        W41996  22.655   9.828   9.926
78240W        W41997  23.038  34.908  12.096
78241W        W41998  33.906   1.432   4.675
78242W        W41999  15.263  26.956   3.163
78243W        W42000  27.169  31.529   4.757
78244W        W42001  14.706  27.682  12.560
78245W        W42002  17.601   3.720   4.715
78246W        W42003   1.460   6.747  12.479
78247W        W42004  39.930   4.449   3.282
78248W        W42005  16.206  24.973  13.817
78249W        W42006  15.203   1.894   0.445
78250W        W42007  35.075   6.424  12.050
78251W        W42008  40.452  40.948  14.422
78252W        W42009  42.934  12.306   3.293
78253W        W42010   1.915  10.281   3.767
78254W        W42011  16.801  33.016   2.312
78255W        W42012   1.750  38.918   2.256
78256W        W42013  37.881  44.338  14.447
78257W        W42014  13.801  42.467   5.089
78258W        W42015   8.195  14.285   1.210
78259W        W42016   9.355  42.015  14.374
78260W        W42017  43.310   2.339  11.938
78261W        W42018  38.917  21.748  13.442
78262W        W42019  29.151  20.529  12.497
78263W        W42020  37.449  38.052  11.123
78264W        W42021  43.421  35.421   2.192
78265W        W42022  10.199  14.154   1.892
78266W        W42023  30.508  28.023   2.281
78267W        W42024  43.797  16.286  13.348
78268W        W42025   6.771   7.171   1.358
78269W        W42026  27.650   9.294   3.765
78270W        W42027  33.039   8.716  14.870
78271W        W42028  16.782  19.195  11.860
78272W        W42029   7.350  31.409  14.976
78273W        W42030  32.431  17.300  14.340
78274W        W42031   1.737  28.544   4.765
78275W        W42032  21.607  31.584  12.458
78276W        W42033  11.734  28.024  13.313
78277W        W42034  11.779  42.907   1.732
78278W        W42035   4.335  41.377   3.236
78279W        W42036  28.132  22.664  12.405
78280W        W42037  43.413  32.458   0.385
78281W        W42038  31.070  20.219   1.273
78282W        W42039  37.544  37.359  12.066
78283W        W42040  12.799  44.358  14.963
78284W        W42041   5.749  15.232   3.836
78285W        W42042  27.089  40.382   1.382
78286W        W42043   7.175  37.873   3.214
78287W        W42044  36.877  28.606  12.004
78288W        W42045  30.938  25.079   1.251
78289W        W42046   1.444  23.552  14.507
78290W        W42047  19.282  37.980   4.198
78291W        W42048  15.255  17.085  13.307
78292W        W42049  33.008   3.771   2.692
78293W        W42050  29.424  32.510   1.385
78294W        W42051  33.002  29.487  14.870
78295W        W42052  17.269   9.292   2.852
78296W        W42053   2.366  11.646   4.627
78297W        W42054  44.332  32.535   2.779
78298W        W42055  25.539   2.829  11.541
78299W        W42056   0.938  33.522   0.370
78300W        W42057  41.463  39.930   2.762
78301W        W42058  20.610  33.997  11.079
78302W        W42059   8.393   9.872  12.898
78303W        W42060  19.111  34.399   3.145
78304W        W42061  21.160  42.938   3.347
78305W        W42062  20.042   5.723  11.917
78306W        W42063  42.011   9.307   1.212
78307W        W42064  23.180   0.389  12.082
78308W        W42065  11.721  25.493   0.325
78309W        W42066   9.229  41.815   0.760
78310W        W42067  44.357  14.682   3.634
78311W        W42068   4.268  20.553   2.328
78312W        W42069  14.133  11.134   0.944
78313W        W42070  28.652  43.903   3.222
78314W        W42071  23.709  15.225   0.279
78315W        W42072  33.983  12.238   3.292
78316W        W42073  30.415   9.703   1.752
78317W        W42074  13.800  27.630   3.294
78318W        W42075  39.313  40.851  10.904
78319W        W42076  22.602  23.175   4.730
78320W        W42077  18.198   5.751   3.150
78321W        W42078  34.031  23.554   4.203
78322W        W42079  43.909   7.235  13.871
78323W        W42080  36.912  39.394   4.737
78324W        W42081   9.685  30.517   1.830
78325W        W42082  42.947   0.456  13.053
78326W        W42083  23.489   4.423   3.863
78327W        W42084  39.054  36.406   4.757
78328W        W42085  33.097  25.156   1.881
78329W        W42086  26.108   7.364   0.478
78330W        W42087   3.243   9.379   3.149
78331W        W42088  11.781  30.132  13.404
78332W        W42089  41.305  34.110   1.793
78333W        W42090  34.606   1.770  12.920
78334W        W42091  11.652  24.623  11.582
78335W        W42092  35.424  21.116   1.389
78336W        W42093  28.172  21.024  11.863
78337W        W42094  36.853  34.968  12.983
78338W        W42095  39.450  22.056  12.064
78339W        W42096  18.619  29.932   0.258
78340W        W42097   3.932  31.547   3.637
78341W        W42098  22.086  22.572  11.012
78342W        W42099   5.874  39.935   0.839
78343W        W42100  44.273  13.276  14.425
78344W        W42101  17.717  19.110   4.221
78345W        W42102  17.182  17.293  14.489
78346W        W42103  13.258   2.951  12.995
78347W        W42104  30.950  37.418  12.001
78348W        W42105  37.436  14.302   2.230
78349W        W42106  30.948  30.483  10.082
78350W        W42107  31.479  33.436   3.348
78351W        W42108   1.959   5.788   3.671
78352W        W42109  21.602  16.247   4.164
78353W        W42110  26.205  39.526   4.248
78354W        W42111   5.783  16.196  10.522
78355W        W42112   6.380   6.391   1.873
78356W        W42113   2.295  23.650  12.500
78357W        W42114  14.702  27.132  11.514
78358W        W42115  38.436  15.135  13.842
78359W        W42116  10.664  26.549  11.024
78360W        W42117  28.531   0.411   2.716
78361W        W42118  33.524  44.349  12.951
78362W        W42119   0.889  40.460   5.168
78363W        W42120  35.373   5.717  14.010
78364W        W42121  20.121  20.618  13.957
78365W        W42122  44.358  24.217   4.811
78366W        W42123  35.033   6.231   0.297
78367W        W42124   4.892  43.011  14.327
78368W        W42125  34.418  20.543  12.006
78369W        W42126   5.365  11.829  12.343
78370W        W42127   4.291  19.678   2.365
78371W        W42128  14.719  21.685   1.931
78372W        W42129  39.018  28.570   2.246
78373W        W42130   7.681  37.849   1.901
78374W        W42131   7.666  33.453   0.461
78375W        W42132  32.539  13.236  11.102
78376W        W42133   4.919  16.781  14.410
78377W        W42134  12.126  25.636   3.693
78378W        W42135  26.061  22.187   0.769
78379W        W42136  32.566   0.784   0.441
78380W        W42137   1.342  34.958  14.282
78381W        W42138  24.194  16.317  14.933
78382W        W42139  26.458  28.956   1.828
78383W        W42140  23.164  18.664   4.608
78384W        W42141  34.542   6.775   1.234
78385W        W42142  39.469  26.141   2.815
78386W        W42143   5.211  13.199  14.477
78387W        W42144  43.929   6.742  12.011
78388W        W42145   2.415   7.897  11.399
78389W        W42146  19.723  44.814   3.801
78390W        W42147  23.183  23.644   4.773
78391W        W42148  44.413  26.554   1.389
78392W        W42149   6.370  44.309  13.962
78393W        W42150  44.901  30.423  10.580
78394W        W42151  41.853  21.048   5.267
78395W        W42152  38.847  15.780  13.878
78396W        W42153  15.135   6.342  13.974
78397W        W42154   5.878  11.856  12.873
78398W        W42155   8.379  27.679  10.439
78399W        W42156  35.583   3.411   4.791
78400W        W42157  32.097  27.569  11.378
78401W        W42158  41.930  22.668   1.291
78402W        W42159  43.831  28.952  14.982
78403W        W42160  14.810  26.558  11.990
78404W        W42161   2.786  13.616   1.444
78405W        W42162  41.464  37.016   3.799
78406W        W42163  30.116  18.188   0.439
78407W        W42164  41.005  42.407  10.544
78408W        W42165  24.029   2.329  13.040
78409W        W42166  27.560   9.337   2.739
78410W        W42167   4.395  20.680  13.886
78411W        W42168  24.106   6.302  12.443
78412W        W42169  12.633  42.795  12.874
78413W        W42170  37.386  17.224  14.429
78414W        W42171  23.197  44.989  11.934
78415W        W42172  13.291  41.842   0.742
78416W        W42173   9.194  42.886   1.728
78417W        W42174  22.738  21.110  14.478
78418W        W42175  16.104  43.399   3.827
78419W        W42176  14.666  18.691  12.562
78420W        W42177  28.514  14.270   3.353
78421W        W42178  13.764  43.787  14.916
78422W        W42179  28.186   4.262  13.428
78423W        W42180  11.785  18.710  13.023
78424W        W42181  33.549  32.405  14.346
78425W        W42182   5.367  36.558   1.744
78426W        W42183   9.248   2.847   0.315
78427W        W42184  38.552  34.493   0.798
78428W        W42185   4.415  17.675  12.509
78429W        W42186   5.787  27.604  12.401
78430W        W42187  39.528   0.984   2.243
78431W        W42188  10.784  36.040   2.895
78432W        W42189  34.520  18.056  12.533
78433W        W42190  41.891   4.782   2.845
78434W        W42191  20.125   4.243   4.638
78435W        W42192  17.569  23.166  10.615
78436W        W42193  27.988  30.510   0.863
78437W        W42194  23.506  27.471  13.395
78438W        W42195   2.731   2.777  11.378
78439W        W42196   4.837   9.168   0.884
78440W        W42197   6.301  19.652  14.796
78441W        W42198  15.651  21.700   3.694
78442W        W42199  39.936  38.001  13.798
78443W        W42200  42.877   3.296  13.457
78444W        W42201  38.486   4.286   1.826
78445W        W42202  20.247   0.388   4.302
78446W        W42203  14.117  39.829  14.886
78447W        W42204  28.568  29.169   1.710
78448W        W42205   7.687  40.814   5.210
78449W        W42206  38.538   1.961   0.262
78450W        W42207  10.252  40.392   5.211
78451W        W42208  12.185  28.511   1.752
78452W        W42209  18.231  38.987  11.416
78453W        W42210  26.642  43.942  10.894
78454W        W42211  25.564  16.293  10.989
78455W        W42212  15.751  40.858   3.729
78456W        W42213   8.159  35.569  10.636
78457W        W42214  14.326  19.109  12.827
78458W        W42215  36.407  13.139  11.922
78459W        W42216  19.126   9.245  14.794
78460W        W42217  27.018  16.757  12.411
78461W        W42218   3.928  27.645   2.719
78462W        W42219  16.777  28.579  13.997
78463W        W42220  41.911  44.867   4.662
78464W        W42221  44.851  19.235   1.902
78465W        W42222  21.155  27.107  11.517
78466W        W42223  38.067  15.197  13.548
78467W        W42224  15.748  40.982   0.480
78468W        W42225  12.691   8.864  11.384
78469W        W42226  42.790  40.507  11.402
78470W        W42227  34.014  29.124  14.515
78471W        W42228  29.050  33.957   4.212
78472W        W42229  35.576  43.946   2.394
78473W        W42230   6.752  22.651  12.913
78474W        W42231  13.297   2.451   0.358
78475W        W42232  22.137   7.704  14.790
78476W        W42233   4.729   2.925   0.321
78477W        W42234  39.497  32.597   4.141
78478W        W42235  16.720  21.693   3.766
78479W        W42236  18.088  29.978   4.810
78480W        W42237  30.552  40.899  13.516
78481W        W42238  15.662  18.648   2.688
78482W        W42239  13.643  23.986  12.475
78483W        W42240  26.547   5.867  10.592
78484W        W42241  11.684  29.130   4.195
78485W        W42242  10.384  31.138  13.312
78486W        W42243   7.357  43.406   4.234
78487W        W42244   8.819  28.089  11.914
78488W        W42245   9.723  25.197   2.881
78489W        W42246   1.829  40.996  13.494
78490W        W42247   3.726   7.285   5.094
78491W        W42248  13.794  41.356   2.775
78492W        W42249   2.355  30.613   0.888
78493W        W42250   1.248  19.218   2.210
78494W        W42251  11.841  33.903   2.758
78495W        W42252   9.834  30.549  12.387
78496W        W42253  28.586  33.552  13.506
78497W        W42254  18.221  35.522   2.403
78498W        W42255  19.765   3.364   4.325
78499W        W42256  29.105  34.469  10.538
78500W        W42257  14.120  34.002   2.338
78501W        W42258  15.151  31.004   3.347
78502W        W42259  22.065  18.698  13.031
78503W        W42260  21.588  41.914  13.005
78504W        W42261  40.420   3.232  12.990
78505W        W42262  42.785  29.101   0.926
78506W        W42263  15.124   5.731  13.485
78507W        W42264  27.993  37.982  13.983
78508W        W42265  12.677   0.271   4.214
78509W        W42266  16.136   2.884   1.862
78510W        W42267  40.822  27.964  12.402
78511W        W42268   5.356  11.159  13.308
78512W        W42269  37.397   7.226   3.195
78513W        W42270  25.525  25.521   2.726
78514W        W42271  38.333  40.811  11.492
78515W        W42272  17.289  44.997  13.417
78516W        W42273   4.925  14.272   0.278
78517W        W42274  18.780   1.293  14.460
78518W        W42275  36.913  35.359   2.407
78519W        W42276  31.097  36.591   4.828
78520W        W42277  32.535  14.223  14.010
78521W        W42278  27.097  36.086  10.637
78522W        W42279   5.844  44.476   1.444
78523W        W42280  41.960  16.631  13.407
78524W        W42281  33.961  14.201  11.050
78525W        W42282   1.766  42.358  10.495
78526W        W42283  14.214  37.458   0.399
78527W        W42284   3.904  28.651  11.372
78528W        W42285  28.020  43.404   2.892
78529W        W42286  34.385   1.323  12.494
78530W        W42287  39.448   8.899  11.474
78531W        W42288  37.338   3.287  12.830
78532W        W42289   9.692  13.206  13.920
78533W        W42290  40.463  35.008  13.460
78534W        W42291   4.367  24.484  11.418
78535W        W42292   8.291   3.448  14.785
78536W        W42293  21.206  15.665  11.907
78537W        W42294   1.360  36.375   4.344
78538W        W42295   2.335  22.233  11.107
78539W        W42296   8.301   5.414  13.804
78540W        W42297  10.693  16.774  14.967
78541W        W42298  17.622  27.547   0.947
78542W        W42299  12.665  19.214   0.732
78543W        W42300  22.659   0.771   3.150
78544W        W42301  22.692  12.685  11.122
78545W        W42302  28.059  21.249  14.503
78546W        W42303  17.667  42.341   2.818
78547W        W42304  40.369  23.609  13.499
78548W        W42305   4.219  16.292   0.244
78549W        W42306  42.472  18.604   1.403
78550W        W42307  16.246  31.039   3.243
78551W        W42308   5.758   1.258   2.218
78552W        W42309  16.802  17.188   3.249
78553W        W42310  39.387   1.962   4.321
78554W        W42311   8.403  27.196  11.883
78555W        W42312  31.049  33.130   4.313
78556W        W42313  17.202   9.682  13.374
78557W        W42314  24.076  16.777  13.547
78558W        W42315  43.950  40.351  12.369
78559W        W42316  38.459  18.224   3.710
78560W        W42317  16.302   5.890   3.373
78561W        W42318  13.192  36.548  12.427
78562W        W42319  26.161  28.112  11.379
78563W        W42320  33.433  28.021   1.318
78564W        W42321  44.262  33.883  14.775
78565W        W42322  31.141  14.156  12.062
78566W        W42323  43.425  33.497  10.109
78567W        W42324   7.265  34.521  10.518
78568W        W42325  27.628   1.453  14.949
78569W        W42326   3.717  20.060  14.852
78570W        W42327  10.278  42.983   1.893
78571W        W42328   0.796  15.107   1.885
78572W        W42329   2.452   9.163   1.799
78573W        W42330  19.237  32.536  10.970
78574W        W42331  20.246  15.800  13.858
78575W        W42332  25.666  34.474   1.267
78576W        W42333   8.667  39.885  11.375
78577W        W42334  44.905  32.470  13.008
78578W        W42335   9.289  23.720   2.761
78579W        W42336  23.123   9.175   2.397
78580W        W42337  44.905   1.300  11.375
78581W        W42338  21.667   6.258   3.259
78582W        W42339  10.234  23.513   3.185
78583W        W42340   5.256   2.298   0.269
78584W        W42341  18.625  28.966   9.971
78585W        W42342  42.308  32.029   3.717
78586W        W42343   9.386  10.182   2.663
78587W        W42344  16.607  39.961  13.532
78588W        W42345  17.775  16.200  11.582
78589W        W42346  39.487  14.124  10.996
78590W        W42347  15.203  13.107   2.663
78591W        W42348  29.968  22.601   3.276
78592W        W42349   3.832  11.279  14.397
78593W        W42350  35.066  27.993  11.418
78594W        W42351  22.211  24.080  10.977
78595W        W42352  32.536   0.471  11.474
78596W        W42353  33.983  31.977   2.850
78597W        W42354  38.418   9.267   3.698
78598W        W42355  10.638  15.656  11.517
78599W        W42356  23.988  35.926  12.460
78600W        W42357  41.883  34.101  13.819
78601W        W42358  33.438  36.945  13.311
78602W        W42359   5.722  14.300   4.261
78603W        W42360  40.391  14.606  12.396
78604W        W42361  42.335  18.636   1.728
78605W        W42362   8.715  36.436  12.017
78606W        W42363   6.764  10.673   2.848
78607W        W42364  27.163   1.739   3.763
78608W        W42365   7.770  26.957   3.312
78609W        W42366  28.015  19.043   2.702
78610W        W42367  19.275  31.952  11.596
78611W        W42368  25.621  25.478  14.280
78612W        W42369  27.573  38.936   1.249
78613W        W42370  32.894  19.641  12.071
78614W        W42371   2.737  11.729   3.197
78615W        W42372  37.414  42.358  11.948
78616W        W42373  37.059  42.009   0.401
78617W        W42374  29.466   3.841   1.242
78618W        W42375  44.009   8.681   1.294
78619W        W42376  19.142   0.816  12.055
78620W        W42377  36.504  11.687  13.423
78621W        W42378  36.465   7.791  13.929
78622W        W42379  20.571  35.045   0.962
78623W        W42380  17.765   3.717  14.972
78624W        W42381  17.282   8.392  12.993
78625W        W42382   0.971  33.460   0.857
78626W        W42383   5.751   8.300   2.841
78627W        W42384   8.330   6.709  13.955
78628W        W42385  44.984  15.317  14.787
78629W        W42386  20.708  37.374  14.415
78630W        W42387  22.159  10.151   3.703
78631W        W42388  23.585   4.746   0.898
78632W        W42389  30.101   5.695  10.597
78633W        W42390  23.694  39.464  10.614
78634W        W42391  24.188  41.477  13.510
78635W        W42392   6.351  25.580   2.751
78636W        W42393  34.524  14.118   3.295
78637W        W42394  17.256  26.475  14.397
78638W        W42395   3.806  44.422  11.067
78639W        W42396  11.204   9.768  10.633
78640W        W42397  36.841  15.121  14.376
78641W        W42398  19.571   5.437   4.306
78642W        W42399   7.775  20.560   4.786
78643W        W42400  44.452  44.451   4.800
78644W        W42401  44.403  24.120  11.551
78645W        W42402  30.436  10.771  14.311
78646W        W42403  37.536  12.242  12.420
78647W        W42404  36.848  33.944   3.826
78648W        W42405  44.364  12.649   3.812
78649W        W42406   8.172   2.267   4.705
78650W        W42407  33.619  44.340   0.317
78651W        W42408  12.262  15.638  12.517
78652W        W42409   2.257  18.757   2.897
78653W        W42410  23.598  24.700  11.507
78654W        W42411  42.899   4.788  14.977
78655W        W42412   1.921  39.524   4.804
78656W        W42413  40.889  33.484  11.580
78657W        W42414  31.085  43.292   1.807
78658W        W42415   7.217  18.076  11.462
78659W        W42416  39.875   8.380  14.997
78660W        W42417  29.450   1.333   1.771
78661W        W42418  24.554  38.001   3.195
78662W        W42419  40.404  12.644  14.860
78663W        W42420   7.776  36.354   1.339
78664W        W42421  19.623   5.350  11.478
78665W        W42422   0.465  41.829  12.995
78666W        W42423  39.019  35.395  10.407
78667W        W42424  15.174  41.788   2.260
78668W        W42425  28.497  24.177  12.982
78669W        W42426  41.828  25.651   4.321
78670W        W42427   4.706   9.741   0.430
78671W        W42428  32.902  32.114  10.621
78672W        W42429  44.988  22.208   4.154
78673W        W42430  18.075  25.097   4.724
78674W        W42431  34.604  26.466  10.080
78675W        W42432  12.720  13.819   4.251
78676W        W42433  40.408  26.562  11.892
78677W        W42434   3.715   5.291  14.762
78678W        W42435   8.855   3.903   2.891
78679W        W42436  41.826  16.229  14.489
78680W        W42437  30.446  23.686   1.920
78681W        W42438  28.603  21.248  13.847
78682W        W42439   0.305   5.704  13.906
78683W        W42440  42.869  14.106   1.704
78684W        W42441  24.605   1.452   0.804
78685W        W42442  14.732  43.492  14.339
78686W        W42443   1.757  16.659  13.476
78687W        W42444   7.699   1.884  13.451
78688W        W42445  28.552  38.914  14.902
78689W        W42446   5.217  17.061  10.096
78690W        W42447  10.786   6.334   2.829
78691W        W42448  32.004  29.626  13.458
78692W        W42449  30.915  18.597  13.895
78693W        W42450  10.353  28.987  14.979
78694W        W42451  36.566  12.239   4.748
78695W        W42452  40.420  43.314  13.980
78696W        W42453  15.150  21.217   3.245
78697W        W42454   7.385  32.525  11.116
78698W        W42455  19.188  23.212   1.721
78699W        W42456  28.032  38.847  13.954
78700W        W42457  33.964  32.127   0.937
78701W        W42458  18.639  43.806   4.761
78702W        W42459   9.308  29.666   0.851
78703W        W42460   4.761  13.628   3.298
78704W        W42461  36.353  10.680   2.722
78705W        W42462   5.227  17.267  12.436
78706W        W42463  44.865  17.160   4.821
78707W        W42464   5.393  12.288   1.371
78708W        W42465  30.659  36.033  13.504
78709W        W42466  35.928   0.383   4.714
78710W        W42467  18.113  40.484   1.226
78711W        W42468  14.733  36.382  13.843
78712W        W42469  25.001  28.504   2.897
78713W        W42470  41.974  25.624   3.336
78714W        W42471  26.568  10.754   4.650
78715W        W42472  17.161  19.082  13.405
78716W        W42473  32.533  13.606  11.458
78717W        W42474  37.554  16.782   2.358
78718W        W42475  22.091  40.405   0.929
78719W        W42476  37.391   2.746  13.443
78720W        W42477  19.054  27.447  10.989
78721W        W42478   0.300   0.385  12.997
78722W        W42479  16.752   6.677   2.400
78723W        W42480  11.229  30.159  14.854
78724W        W42481  28.041  37.002  10.628
78725W        W42482  13.624  42.360   2.385
78726W        W42483  14.226  17.566   3.289
78727W        W42484  12.121   4.863   1.369
78728W        W42485  18.713  37.915  11.897
78729W        W42486  21.678  40.433  11.524
78730W        W42487   3.863   4.819  13.429
78731W        W42488   0.272   0.304  14.879
78732W        W42489  21.036  24.635   3.147
78733W        W42490   3.304  42.800  12.530
78734W        W42491  34.053   8.261  13.861
78735W        W42492   6.413  32.124  12.470
78736W        W42493   9.179  14.787   0.428
78737W        W42494   3.931   5.892  14.832
78738W        W42495  33.558  43.965  12.453
78739W        W42496  33.493   5.743   0.422
78740W        W42497  21.746  14.293  12.518
78741W        W42498  30.457  24.011   5.227
78742W        W42499  27.447  34.117  13.491
78743W        W42500   3.769  23.567  12.958
78744W        W42501  43.308  15.723   0.416
78745W        W42502   2.305  42.784   4.121
78746W        W42503  15.288  30.093  11.045
78747W        W42504  41.024  21.257  10.983
78748W        W42505  41.500  29.024   3.666
78749W        W42506   3.376   9.784  10.498
78750W        W42507  28.510  29.570   3.685
78751W        W42508   2.376  18.145  10.139
78752W        W42509  36.067  23.104  10.923
78753W        W42510  18.281  28.132  11.607
78754W        W42511  40.941  24.610  11.528
78755W        W42512  25.473  34.888  11.947
78756W        W42513  26.052  14.702   5.681
78757W        W42514  20.058  17.188   2.789
78758W        W42515  26.088   7.773  11.899
78759W        W42516  44.972  27.071  14.013
78760W        W42517  44.818  30.587  13.404
78761W        W42518   5.825  36.891  11.905
78762W        W42519  40.009  35.900  13.815
78763W        W42520   9.358  44.495   3.788
78764W        W42521  38.338   9.754  11.941
78765W        W42522  17.730  18.721  13.824
78766W        W42523  42.018  12.324   4.171
78767W        W42524  34.068  22.141  11.424
78768W        W42525  37.972   8.186  13.346
78769W        W42526  15.159  35.492  11.938
78770W        W42527   9.740  34.536   3.855
78771W        W42528  34.468  16.588  13.466
78772W        W42529  31.517   5.895   1.239
78773W        W42530   0.361  28.169   4.303
78774W        W42531  12.284  18.154  11.110
78775W        W42532  11.706  14.138   0.320
78776W        W42533  28.455  28.529  12.388
78777W        W42534  17.556   1.913  11.404
78778W        W42535   5.212  18.713   4.745
78779W        W42536  36.017  16.785   4.689
78780W        W42537  22.030   4.409  13.964
78781W        W42538  39.355  44.431   4.118
78782W        W42539  32.943   0.367   3.378
78783W        W42540  25.114  28.124  11.955
78784W        W42541   5.372  10.368   0.277
78785W        W42542  40.857  12.690  14.940
78786W        W42543  18.559  18.073   3.263
78787W        W42544  36.456  16.165  14.766
78788W        W42545  27.613  24.498  11.514
78789W        W42546  21.665  39.971   4.835
78790W        W42547   5.810  33.888   2.697
78791W        W42548  23.509  35.041   1.864
78792W        W42549   8.234   5.284  14.423
78793W        W42550  11.723  20.113  14.413
78794W        W42551  15.681  37.834  14.460
78795W        W42552   6.418  15.180  11.547
78796W        W42553  35.503  40.323   1.702
78797W        W42554  27.997  12.150   1.761
78798W        W42555  41.947  43.452   1.906
78799W        W42556  38.949  25.585   3.227
78800W        W42557  27.546  24.573  14.883
78801W        W42558  22.140   3.775   0.846
78802W        W42559   7.833   3.449  14.912
78803W        W42560  16.572  26.001   1.811
78804W        W42561   7.885  35.382   4.724
78805W        W42562  43.298  12.237  10.489
78806W        W42563  43.021   5.244  10.510
78807W        W42564  33.519  40.054   1.337
78808W        W42565  26.565  17.174  14.516
78809W        W42566   0.814  23.492  10.093
78810W        W42567  43.340  38.891  13.873
78811W        W42568  16.811  30.560   1.713
78812W        W42569  23.180  44.497  13.031
78813W        W42570  11.758  40.967   3.356
78814W        W42571   3.952  21.254  10.973
78815W        W42572  11.755  34.460  13.416
78816W        W42573  33.889  35.459  10.602
78817W        W42574  34.481   8.861   3.811
78818W        W42575  41.392  41.883   1.316
78819W        W42576   6.233  23.051  11.594
78820W        W42577  34.971   0.265  11.405
78821W        W42578  30.636   9.243   2.769
78822W        W42579  35.912  14.277   0.451
78823W        W42580  11.845  20.176  13.430
78824W        W42581  10.168  35.981  14.296
78825W        W42582  16.312  36.905   4.772
78826W        W42583  26.175  14.655   4.684
78827W        W42584  30.599  16.616  10.543
78828W        W42585   4.406   7.770   4.625
78829W        W42586   6.273  19.094   2.360
78830W        W42587  42.457   1.258   1.933
78831W        W42588  19.627  33.927  14.841
78832W        W42589  15.252  13.238  12.574
78833W        W42590  40.544  31.959   1.389
78834W        W42591  43.483  17.061   2.825
78835W        W42592  41.830  31.017  14.299
78836W        W42593   1.318   9.220  11.949
78837W        W42594  25.096  23.550  12.093
78838W        W42595   8.403  12.189  14.364
78839W        W42596  34.120  14.306   3.771
78840W        W42597  35.366  35.404  14.458
78841W        W42598  37.080  19.178  14.773
78842W        W42599  36.052  27.156  11.901
78843W        W42600  25.586  36.917  11.587
78844W        W42601   5.414  21.706  14.325
78845W        W42602   3.752  28.178  10.632
78846W        W42603  17.274  40.038  13.445
78847W        W42604   0.464   5.218   1.803
78848W        W42605  11.808  27.161  11.976
78849W        W42606  40.854   6.253   1.894
78850W        W42607  28.635  29.586  10.607
78851W        W42608  16.142  12.135  11.055
78852W        W42609  44.901  38.360   0.880
78853W        W42610  32.016  31.954  14.515
78854W        W42611  39.929  41.337   1.752
78855W        W42612  10.845  26.687   4.273
78856W        W42613  36.899   8.695  11.052
78857W        W42614  42.953  44.431  14.953
78858W        W42615  11.360  26.024  14.494
78859W        W42616  42.480   8.675   5.148
78860W        W42617  21.106   0.403  13.394
78861W        W42618  22.111  36.841   0.741
78862W        W42619  33.477  31.543  12.037
78863W        W42620  42.964   9.385   0.968
78864W        W42621   2.744  33.035   0.776
78865W        W42622  20.076  27.687   4.743
78866W        W42623  27.032  32.611   0.399
78867W        W42624  23.035  25.021   0.466
78868W        W42625   0.361  40.313   0.401
78869W        W42626  36.054  37.417   2.208
78870W        W42627   6.355  42.343  12.056
78871W        W42628  10.203  30.957   1.287
78872W        W42629   5.223   3.370  12.530
78873W        W42630  35.962  36.467   5.152
78874W        W42631  27.642  25.551  11.490
78875W        W42632  39.964  11.816   4.168
78876W        W42633   9.763  43.848  12.347
78877W        W42634  37.947  18.064  11.605
78878W        W42635  40.042  24.175   2.185
78879W        W42636  33.079  17.239   0.480
78880W        W42637   6.297  15.281   4.762
78881W        W42638  29.462   6.810   1.331
78882W        W42639   2.761   6.904  14.360
78883W        W42640  24.088  32.541  12.909
78884W        W42641  13.604  19.258   1.795
78885W        W42642   3.779  26.612   1.933
78886W        W42643  29.924  30.452  10.470
78887W        W42644  32.486  43.473  12.514
78888W        W42645  42.028   8.179   4.163
78889W        W42646  33.900  27.169   0.453
78890W        W42647  11.195  29.446  13.911
78891W        W42648  37.029  38.555   2.831
78892W        W42649  23.151  37.340   2.194
78893W        W42650   7.751  33.580  11.510
78894W        W42651  39.329  26.621   1.810
78895W        W42652  36.089  21.614   2.767
78896W        W42653  36.420  10.781  14.949
78897W        W42654  33.076  43.934   3.214
78898W        W42655  15.631  37.566  14.277
78899W        W42656   8.718   9.669  14.019
78900W        W42657  19.112  38.014  11.423
78901W        W42658  34.046  35.447   2.826
78902W        W42659  35.465  17.570  11.454
78903W        W42660  27.064   1.938  12.440
78904W        W42661  14.310  18.644  14.492
78905W        W42662  33.529  20.088   1.400
78906W        W42663   4.303  27.180   4.626
78907W        W42664  43.346  10.198   4.238
78908W        W42665  24.677  34.027  10.437
78909W        W42666  31.516   4.773   5.676
78910W        W42667  42.359  13.841  13.954
78911W        W42668  33.501  39.454   4.694
78912W        W42669  18.779   8.239  12.915
78913W        W42670  12.347  27.611   0.394
78914W        W42671  13.232  39.421  12.479
78915W        W42672  14.290  25.023   1.411
78916W        W42673  38.471  27.679  12.350
78917W        W42674  21.254  43.771   4.711
78918W        W42675  33.928  43.786  13.356
78919W        W42676  13.135  40.919   0.967
78920W        W42677  33.914  38.993  12.061
78921W        W42678  17.731  18.123   0.275
78922W        W42679   0.356  44.886  10.622
78923W        W42680  16.126  33.052   2.247
78924W        W42681  27.036  21.747  13.495
78925W        W42682   9.302   3.812  13.052
78926W        W42683  22.672  36.868  12.919
78927W        W42684  26.644  41.841   3.697
78928W        W42685  24.084  30.911   1.754
78929W        W42686   7.188   1.476   0.424
78930W        W42687  11.786  38.875   0.818
78931W        W42688  14.610  22.069   0.840
78932W        W42689  12.629  27.583  10.644
78933W        W42690  17.656   4.268  11.387
78934W        W42691   6.917  25.654  14.950
78935W        W42692  22.019   4.276   3.870
78936W        W42693  39.991  27.035  13.421
78937W        W42694   3.451  43.880  10.040
78938W        W42695  11.329  14.230  13.046
78939W        W42696  12.698  16.740   4.151
78940W        W42697  31.643  38.566   4.238
78941W        W42698  34.040  40.823   4.206
78942W        W42699   2.262   4.304   2.352
78943W        W42700  37.565   1.256  12.082
78944W        W42701   1.390  43.445  12.367
78945W        W42702  40.382  41.868   0.338
78946W        W42703  28.030  21.185  13.809
78947W        W42704  12.791  28.512  14.812
78948W        W42705  30.635  12.126   1.836
78949W        W42706  35.047  39.062   1.276
78950W        W42707   5.878   3.907  11.966
78951W        W42708  43.286  31.533   1.699
78952W        W42709   4.737  18.123  13.054
78953W        W42710   0.306  41.301   0.445
78954W        W42711  36.438  38.548   4.649
78955W        W42712  28.950  41.923   3.774
78956W        W42713  38.555  28.480   3.280
78957W        W42714  29.084  18.772  10.984
78958W        W42715  36.969  31.128   3.366
78959W        W42716   1.851  14.681   0.411
78960W        W42717  19.219  43.423  12.833
78961W        W42718  23.638  14.193  14.023
78962W        W42719  11.811  31.146   0.838
78963W        W42720  35.501  17.100   4.174
78964W        W42721  38.514  23.726  12.574
78965W        W42722  40.943  36.529   4.121
78966W        W42723  28.586  43.395   4.199
78967W        W42724  15.762  40.962   0.756
78968W        W42725  30.939   4.872  10.978
78969W        W42726  32.556  25.080   0.868
78970W        W42727  11.866   6.687   1.861
78971W        W42728  12.770   9.729   4.230
78972W        W42729  20.739  15.676  12.986
78973W        W42730  43.901  34.477  14.419
78974W        W42731   6.313  17.596  14.499
78975W        W42732   6.869  26.058   4.122
78976W        W42733   6.245  36.370  14.302
78977W        W42734   2.788  27.111   3.302
78978W        W42735  33.615  34.040   4.619
78979W        W42736  25.067  21.594   0.869
78980W        W42737   9.836  31.496  10.596
78981W        W42738  41.860  33.606   1.291
78982W        W42739  40.358   6.333  14.789
78983W        W42740  37.465  12.232  13.840
78984W        W42741  39.345  21.522  14.301
78985W        W42742  38.455   7.340  12.365
78986W        W42743  27.156   6.824   0.830
78987W        W42744  30.475  42.927  10.922
78988W        W42745  39.948  33.033  13.861
78989W        W42746   7.677  12.634   1.364
78990W        W42747   0.785  36.910   2.312
78991W        W42748  37.376  19.087  13.887
78992W        W42749  10.830   9.785  12.060
78993W        W42750  32.066  41.857   2.785
78994W        W42751   4.897   7.208  13.487
78995W        W42752   2.749  20.666  12.859
78996W        W42753  26.096  21.709  10.992
78997W        W42754  14.290  17.241   2.664
78998W        W42755   5.401  42.292   0.421
78999W        W42756  21.569  44.407  14.966
79000W        W42757  43.879   1.895  10.966
79001W        W42758  14.203  12.745   3.176
79002W        W42759   5.932  41.970  13.983
79003W        W42760  11.688  35.950  13.421
79004W        W42761  43.363  11.299   3.826
79005W        W42762  31.943  30.067   3.736
79006W        W42763  32.946   2.404   0.917
79007W        W42764   0.446  27.453  11.447
79008W        W42765  32.529   9.232   0.326
79009W        W42766  21.621  33.016   3.677
79010W        W42767  44.295   8.202  14.315
79011W        W42768  18.115  44.971   2.868
79012W        W42769  22.611   0.354  13.469
79013W        W42770   4.860  40.387  13.022
79014W        W42771  27.515  29.033  13.321
79015W        W42772  26.952   6.212   4.225
79016W        W42773  35.068  31.530   1.903
79017W        W42774  44.788  24.122  14.349
79018W        W42775  24.096  14.141  10.897
79019W        W42776   4.410  41.415  11.089
79020W        W42777   9.886  27.655  13.975
79021W        W42778  29.606  20.237  12.341
79022W        W42779  28.531  32.439   0.354
79023W        W42780  25.167  26.078  13.495
79024W        W42781  37.374  21.231  14.396
79025W        W42782  17.172  29.930  13.507
79026W        W42783   5.264  26.973  10.900
79027W        W42784  19.050  37.514  13.324
79028W        W42785   5.845  30.569   3.196
79029W        W42786  42.294   6.683   1.715
79030W        W42787   2.838  40.424   3.636
79031W        W42788  21.654   7.881   0.367
79032W        W42789  22.135  25.600  13.864
79033W        W42790  19.766  23.515  10.159
79034W        W42791  25.541  22.053  14.394
79035W        W42792  17.184  43.357   4.186
79036W        W42793   6.818  33.622   3.338
79037W        W42794  38.878  43.795   2.319
79038W        W42795  26.958  20.667  11.071
79039W        W42796  22.566  34.387   3.865
79040W        W42797  29.606  22.746  14.406
79041W        W42798  20.250  22.144  11.025
79042W        W42799  28.591  33.576  10.508
79043W        W42800  10.762  24.481  10.424
79044W        W42801  41.861   7.773   2.367
79045W        W42802   3.912   5.713   1.374
79046W        W42803   1.910  20.597   4.710
79047W        W42804  40.499   9.767  11.078
79048W        W42805  10.141  27.175   0.417
79049W        W42806  31.134  22.533   2.246
79050W        W42807  44.373   9.173   0.394
79051W        W42808  35.487  33.619  14.434
79052W        W42809  17.243   6.896  13.518
79053W        W42810  40.864  25.537   4.753
79054W        W42811  26.138  21.676   0.294
79055W        W42812  39.444  15.097   1.737
79056W        W42813  40.934  38.027   4.732
79057W        W42814   4.421   9.360  14.986
79058W        W42815  26.966  17.577   0.278
79059W        W42816  41.023  42.501  12.866
79060W        W42817  14.167  37.890  11.491
79061W        W42818  26.494  10.140  13.374
79062W        W42819   8.288   1.765  10.932
79063W        W42820  15.599   7.767   4.327
79064W        W42821   6.419  27.998  13.439
79065W        W42822  19.159   4.210  12.906
79066W        W42823  26.600  25.078   2.353
79067W        W42824   3.402   3.763  10.922
79068W        W42825  24.070  16.074   1.337
79069W        W42826  44.993  44.759  11.547
79070W        W42827  43.997  34.977  13.019
79071W        W42828   5.859   7.270   3.180
79072W        W42829  44.498  39.937  13.004
79073W        W42830  35.445  26.476   1.395
79074W        W42831  12.189  21.176  11.552
79075W        W42832  10.379  22.517  11.022
79076W        W42833  28.172  15.179   0.288
79077W        W42834  21.087  32.596   1.912
79078W        W42835  19.057   9.264  10.586
79079W        W42836  20.082  20.154  14.409
79080W        W42837  10.813  38.039  10.605
79081W        W42838  35.417  13.792  14.850
79082W        W42839   0.447  40.533   2.322
79083W        W42840  17.227   8.305   3.289
79084W        W42841   0.467  43.875  14.406
79085W        W42842   9.279  19.117   3.768
79086W        W42843  11.266  19.626  14.790
79087W        W42844   2.450   6.760  13.034
79088W        W42845  18.582  30.972  10.494
79089W        W42846  18.053  16.595   4.823
79090W        W42847  41.929  26.991  12.857
79091W        W42848   8.276   6.704   4.218
79092W        W42849  13.201  11.642  14.012
79093W        W42850  26.045  21.536   5.597
79094W        W42851   5.407  20.620   0.419
79095W        W42852  25.639  15.707   4.609
79096W        W42853  10.329   6.343  12.024
79097W        W42854   6.391  40.427   4.678
79098W        W42855   2.754  25.627   1.402
79099W        W42856  27.175  10.762  14.423
79100W        W42857  14.105  20.054  12.556
79101W        W42858  37.991  30.963   4.205
79102W        W42859  34.911  26.145   4.273
79103W        W42860  27.181  39.835  10.968
79104W        W42861  22.514  15.719   4.801
79105W        W42862  35.581  19.655   1.354
79106W        W42863  24.038  13.159  12.964
79107W        W42864  39.426  25.493   3.840
79108W        W42865  25.146  17.236  12.930
79109W        W42866  12.669  37.445   3.730
79110W        W42867  24.550  31.115  11.470
79111W        W42868  12.613  32.961  11.528
79112W        W42869   7.667  38.908   4.332
79113W        W42870  15.194  29.093  12.533
79114W        W42871  44.369   0.441  13.894
79115W        W42872  17.062  37.336  12.958
79116W        W42873  11.306  43.472  12.012
79117W        W42874   3.749  24.635  14.967
79118W        W42875   5.268  21.572   3.268
79119W        W42876  22.193   1.393  13.814
79120W        W42877  33.118   4.358  14.488
79121W        W42878  15.198  39.876  13.925
79122W        W42879  16.785  21.683   3.365
79123W        W42880  19.606  17.062   3.189
79124W        W42881  21.157  33.053   2.893
79125W        W42882  42.295  40.503  13.877
79126W        W42883  12.284  17.744  13.793
79127W        W42884  34.383  29.514  11.595
79128W        W42885  15.109  24.579   4.672
79129W        W42886  21.262  19.712   9.967
79130W        W42887  30.648  19.115   0.822
79131W        W42888   7.731  25.022  13.814
79132W        W42889   7.811  30.143  12.872
79133W        W42890  11.760  40.871  13.313
79134W        W42891  11.347  35.050  14.958
79135W        W42892   0.308  21.134   2.830
79136W        W42893   5.263  28.668   4.296
79137W        W42894  30.099   0.392  14.411
79138W        W42895  33.910  26.471   0.403
79139W        W42896   5.347   7.773   4.688
79140W        W42897  29.984  23.715   4.317
79141W        W42898  42.495  34.372   2.275
79142W        W42899  41.981  11.678  12.547
79143W        W42900   6.830  11.750   0.341
79144W        W42901  23.039  37.343  12.956
79145W        W42902   9.758  12.637   2.351
79146W        W42903  13.282  20.533  13.514
79147W        W42904  17.785  39.905   0.340
79148W        W42905   7.243  23.223  10.485
79149W        W42906   9.688   7.407   3.155
79150W        W42907  41.493  20.653   0.341
79151W        W42908  16.246  38.819   0.766
79152W        W42909  22.661  42.438   1.212
79153W        W42910  41.899  33.469  13.529
79154W        W42911  10.669  32.906   0.418
79155W        W42912  37.972  41.027   3.737
79156W        W42913   4.805  18.703   0.422
79157W        W42914  34.099  35.946   0.439
79158W        W42915  28.571  32.931  12.965
79159W        W42916  18.207  40.466   3.682
79160W        W42917  28.103  41.011  14.765
79161W        W42918   8.855   7.831   0.343
79162W        W42919  25.037  12.805  13.965
79163W        W42920  37.433   2.884  11.446
79164W        W42921  42.439  16.703   3.803
79165W        W42922  24.008  15.288   4.777
79166W        W42923  11.703  24.555   2.730
79167W        W42924  15.781  19.085   0.468
79168W        W42925  12.792  28.965  11.436
79169W        W42926  12.651  21.070  10.616
79170W        W42927  15.103   5.710  14.839
79171W        W42928  11.343   1.267   0.852
79172W        W42929  18.192  40.905   2.743
79173W        W42930  37.925   4.865  10.544
79174W        W42931  15.706  18.084  11.878
79175W        W42932  25.145   3.344  13.803
79176W        W42933   6.691   9.667   2.324
79177W        W42934   5.933  25.663  11.989
79178W        W42935  22.210  38.518  10.553
79179W        W42936  40.403  26.024  11.947
79180W        W42937  15.793  36.411   1.824
79181W        W42938  44.463  12.797  14.881
79182W        W42939  36.459  28.502   5.170
79183W        W42940  30.058  31.116   4.323
79184W        W42941  31.560  34.440   1.353
79185W        W42942  24.549  18.547  12.004
79186W        W42943  36.492   3.740   2.282
79187W        W42944  24.148  13.607   4.629
79188W        W42945   3.309   5.732  13.316
79189W        W42946  35.389   9.257   0.445
79190W        W42947  26.128  19.251  12.914
79191W        W42948  42.372  26.601   3.768
79192W        W42949  15.102  25.194  11.404
79193W        W42950   7.863  44.414   3.314
79194W        W42951   3.753  32.892   2.670
79195W        W42952   3.417  13.758   3.195
79196W        W42953  14.790  13.112   3.359
79197W        W42954  12.123   1.771   2.716
79198W        W42955   6.789  31.024   4.692
79199W        W42956  22.616  41.367  14.939
79200W        W42957  21.157   8.729   4.646
79201W        W42958  23.132  25.183  12.483
79202W        W42959  15.810   4.846   2.770
79203W        W42960  32.108  18.174  11.506
79204W        W42961   1.300  17.167  12.858
79205W        W42962  33.109   7.761   1.789
79206W        W42963  31.423   4.877  11.598
79207W        W42964  38.522  29.449  12.558
79208W        W42965  44.943  41.022   1.717
79209W        W42966   3.327   0.848   2.293
79210W        W42967  16.569  25.053  14.440
79211W        W42968  41.407  35.086  11.066
79212W        W42969  31.915  33.505  11.901
79213W        W42970  32.937  14.126  12.093
79214W        W42971  22.021   3.734   3.817
79215W        W42972  28.086  33.031  11.390
79216W        W42973  34.425  35.441  14.772
79217W        W42974  35.518  43.312  13.310
79218W        W42975   0.476  38.058  12.572
79219W        W42976  40.433  12.812  14.339
79220W        W42977  36.004  23.992  12.927
79221W        W42978   4.246  17.618  13.791
79222W        W42979  36.006  15.795  10.484
79223W        W42980   4.395   7.243  10.897
79224W        W42981   2.918   3.849  14.355
79225W        W42982  29.440  21.572   1.898
79226W        W42983  14.319  26.151   3.233
79227W        W42984   8.853  20.530  13.019
79228W        W42985  37.432   3.803   0.397
79229W        W42986   9.345  33.532   4.734
79230W        W42987  32.554  12.760   4.159
79231W        W42988  39.530  32.109   1.392
79232W        W42989  29.519   3.814  13.813
79233W        W42990  21.161  26.506  12.965
79234W        W42991   0.340  12.773   4.704
79235W        W42992  31.082  26.670   2.179
79236W        W42993   2.361  15.688  13.457
79237W        W42994  13.288  16.257   0.257
79238W        W42995  12.618  31.985   4.130
79239W        W42996  18.215  10.319  12.005
79240W        W42997   0.853   4.790  11.382
79241W        W42998  35.957  17.582  14.326
79242W        W42999  41.400   6.830   4.838
79243W        W43000  44.300  14.692   0.774
79244W        W43001  38.378  43.504  13.377
79245W        W43002  34.490  42.309   4.174
79246W        W43003  41.869  26.043  14.906
79247W        W43004  18.549  11.864  11.414
79248W        W43005  39.845  24.140  14.922
79249W        W43006  24.026   0.338   2.308
79250W        W43007  23.038  11.848  10.897
79251W        W43008  28.664   3.774   9.954
79252W        W43009  17.275  27.605   0.913
79253W        W43010  14.187  42.512   0.388
79254W        W43011  26.569  33.878   4.128
79255W        W43012  24.062  10.363  13.004
79256W        W43013   4.307  44.831   4.751
79257W        W43014  18.657  40.898   4.643
79258W        W43015  40.350  35.482  13.984
79259W        W43016  20.642   6.893  11.943
79260W        W43017  36.431   1.303  10.142
79261W        W43018  33.398   1.764   9.973
79262W        W43019  10.765   7.324  13.380
79263W        W43020   0.972  31.425   0.928
79264W        W43021  27.547  26.026   3.224
79265W        W43022  33.929  38.430   1.222
79266W        W43023   7.179  33.620  11.413
79267W        W43024  42.998  21.069   3.648
79268W        W43025  15.265  25.166   4.197
79269W        W43026  40.511  21.545  11.606
79270W        W43027   7.825  26.591   5.209
79271W        W43028   5.803  42.367   3.857
79272W        W43029  26.700  22.695  14.842
79273W        W43030  14.664  44.836   4.803
79274W        W43031   5.830  24.599   4.802
79275W        W43032  38.425   7.713  12.572
79276W        W43033   8.290  26.026   3.177
79277W        W43034  35.511   9.806  11.004
79278W        W43035  30.920  10.327  13.865
79279W        W43036  17.688   4.355   3.642
79280W        W43037  24.112  41.521   0.832
79281W        W43038  18.291  19.612   1.435
79282W        W43039  34.558  41.518   4.813
79283W        W43040  43.955   2.231   4.686
79284W        W43041  33.069  35.388  14.807
79285W        W43042  38.547   3.228   3.692
79286W        W43043  37.513  28.444   0.361
79287W        W43044  30.563  13.636   4.210
79288W        W43045  33.885  29.133   4.186
79289W        W43046   5.890  13.244   0.469
79290W        W43047  43.469  32.136  13.337
79291W        W43048   0.779  11.331  12.026
79292W        W43049  32.528  43.868  10.894
79293W        W43050  32.082  22.678  14.497
79294W        W43051  14.293  10.283   0.751
79295W        W43052  20.225  21.193   1.872
79296W        W43053  12.849  31.507   1.226
79297W        W43054  16.784   1.899   3.219
79298W        W43055  42.483  25.535   2.218
79299W        W43056  10.318  12.270   3.323
79300W        W43057  15.276  10.279  10.560
79301W        W43058  30.623   8.250   3.361
79302W        W43059   1.413  37.856   0.448
79303W        W43060  17.295   1.254   1.786
79304W        W43061  18.139  28.626   3.696
79305W        W43062  41.012  33.496   4.769
79306W        W43063   7.391  17.600   9.619
79307W        W43064  15.171  32.526  11.933
79308W        W43065   5.818  29.508   1.704
79309W        W43066   1.330  18.623   0.765
79310W        W43067  10.341   3.426  14.900
79311W        W43068  34.117  26.086   0.454
79312W        W43069   3.710  22.127   0.345
79313W        W43070  34.025  34.085  14.904
79314W        W43071   5.873  14.122  11.469
79315W        W43072  27.512  19.780  11.043
79316W        W43073   8.832  42.914   2.855
79317W        W43074  27.621  44.290   3.724
79318W        W43075  17.635   0.334   1.273
79319W        W43076   7.674  35.602   0.948
79320W        W43077  24.992   3.930   0.805
79321W        W43078   5.738  18.278   3.709
79322W        W43079   1.866   1.826   1.846
79323W        W43080  27.999  36.395   2.202
79324W        W43081  25.071   6.249   4.758
79325W        W43082  25.148  21.658  11.602
79326W        W43083  17.072   2.378  11.438
79327W        W43084  23.491  32.441   1.879
79328W        W43085  19.100  38.005   1.828
79329W        W43086  22.704  41.460   5.230
79330W        W43087  10.825  16.115   9.924
79331W        W43088  10.362  18.686  13.051
79332W        W43089  23.069  12.717   0.325
79333W        W43090  28.043  35.368  13.484
79334W        W43091  31.030  23.673  14.403
79335W        W43092  17.253  22.643   0.373
79336W        W43093   7.286  39.393   2.710
79337W        W43094  23.036  24.702   0.480
79338W        W43095  16.796  19.589  13.795
79339W        W43096  40.882  31.149  13.791
79340W        W43097   4.376   4.918   2.864
79341W        W43098  40.798  29.155   1.694
79342W        W43099  41.000  27.668  10.927
79343W        W43100  38.416  38.525   4.803
79344W        W43101  30.465  38.508   4.719
79345W        W43102  41.413  16.105   2.364
79346W        W43103  35.386  30.590   2.357
79347W        W43104  35.558  44.400  13.394
79348W        W43105   1.380  22.558   3.304
79349W        W43106  11.768  11.269   4.188
79350W        W43107   9.188  35.036  13.539
79351W        W43108  20.058  41.486   0.334
79352W        W43109   4.210   3.406  13.962
79353W        W43110  15.685  11.643  12.561
79354W        W43111  37.389  15.143  10.444
79355W        W43112   0.269  11.816   3.318
79356W        W43113  28.438   8.853  13.533
79357W        W43114  26.000  26.965  10.466
79358W        W43115   2.895  43.007   2.802
79359W        W43116   0.476  44.267  12.871
79360W        W43117  34.895  26.032   2.699
79361W        W43118   9.182   1.837   0.247
79362W        W43119   1.837  37.853  10.546
79363W        W43120  39.455  24.683   3.781
79364W        W43121  27.110  24.677   2.721
79365W        W43122   8.354  39.866   3.370
79366W        W43123  25.504  23.533  13.404
79367W        W43124  18.258  38.048   3.177
79368W        W43125  26.516  26.617  11.113
79369W        W43126  44.357  30.026  10.628
79370W        W43127   1.421  39.031   2.203
79371W        W43128  28.660   6.788   0.383
79372W        W43129  25.001   7.897  10.485
79373W        W43130  27.632  20.721   3.281
79374W        W43131  38.368  22.702  10.531
79375W        W43132  42.915  44.893  13.478
79376W        W43133   1.282  43.867   2.395
79377W        W43134  28.966  27.949  14.961
79378W        W43135   4.715  13.167  13.320
79379W        W43136  11.648  33.130  13.848
79380W        W43137   6.310  43.832  10.945
79381W        W43138  31.601  42.448   1.418
79382W        W43139  24.995  42.315  12.894
79383W        W43140  22.251  42.369   0.875
79384W        W43141  19.604  16.165  13.971
79385W        W43142   5.790  15.723   0.891
79386W        W43143   3.752  30.623   4.195
79387W        W43144  34.103  35.053  10.482
79388W        W43145  20.710  36.000   4.790
79389W        W43146  26.160  20.661   5.577
79390W        W43147  41.455  20.080  10.939
79391W        W43148  11.718  17.668  10.411
79392W        W43149  30.550  10.188   2.250
79393W        W43150  32.519   8.407  12.826
79394W        W43151  34.375   6.861  13.461
79395W        W43152  29.072  37.915   0.288
79396W        W43153  33.904  26.545  11.608
79397W        W43154  14.803   2.745   1.217
79398W        W43155  24.175  35.561  10.912
79399W        W43156  34.884   5.255  12.906
79400W        W43157  39.060  36.514  10.432
79401W        W43158  39.871  31.634  11.463
79402W        W43159  37.002  27.502  14.463
79403W        W43160   7.375  23.158  14.795
79404W        W43161  13.831  15.766   3.660
79405W        W43162  30.650  33.602  14.285
79406W        W43163  16.234   1.388  11.553
79407W        W43164   6.406  33.601   4.633
79408W        W43165  40.487  35.031  10.907
79409W        W43166  18.239  43.399   1.303
79410W        W43167  43.014  37.544   1.243
79411W        W43168   2.961  12.129   0.792
79412W        W43169  26.138  20.646   2.187
79413W        W43170   1.355  21.060   5.099
79414W        W43171  44.781  42.842   4.127
79415W        W43172   0.483  35.559  14.500
79416W        W43173  43.982  22.165   0.402
79417W        W43174  16.237  40.438   2.867
79418W        W43175   2.383  21.513  14.391
79419W        W43176  32.911  14.284   0.779
79420W        W43177   8.787  24.639   0.935
79421W        W43178   8.292  37.550  11.448
79422W        W43179  41.835  29.948   4.611
79423W        W43180  14.804  15.749  11.887
79424W        W43181  18.092  16.786  13.821
79425W        W43182   7.381  17.647  11.502
79426W        W43183  41.530   2.401  11.398
79427W        W43184  24.227  40.883  12.483
79428W        W43185  10.832  44.834  10.449
79429W        W43186  30.003  15.122  11.506
79430W        W43187   0.423   1.756  13.462
79431W        W43188   8.316   4.940  13.890
79432W        W43189   2.840  27.044  12.873
79433W        W43190  36.555  32.008   2.378
79434W        W43191   2.736  20.593  13.506
79435W        W43192  30.079  19.663   3.813
79436W        W43193  19.192  44.434   3.642
79437W        W43194  33.018   3.365   4.127
79438W        W43195  37.872  35.412   1.852
79439W        W43196   7.312   3.723  14.313
79440W        W43197   5.439  23.589  11.870
79441W        W43198  18.661   3.215   4.301
79442W        W43199  36.479  17.307   1.361
79443W        W43200   8.289  42.779  10.413
79444W        W43201  34.415  44.804  11.554
79445W        W43202  28.539  24.633   1.242
79446W        W43203  33.527  36.002  14.939
79447W        W43204  10.148  25.119  10.501
79448W        W43205  10.303  15.790  13.921
79449W        W43206   5.742  12.741   3.367
79450W        W43207  16.627  37.031  12.426
79451W        W43208  40.516  35.020   2.220
79452W        W43209  19.063  16.152   2.836
79453W        W43210  21.518  31.446  10.070
79454W        W43211  38.568  35.860  10.963
79455W        W43212   2.852  37.086  12.001
79456W        W43213  25.607  34.875  14.283
79457W        W43214  11.348  37.880   4.632
79458W        W43215  33.998  23.231  13.489
79459W        W43216  29.463  19.612   1.327
79460W        W43217  44.328  44.303   3.279
79461W        W43218   3.324  38.538   1.838
79462W        W43219  38.379  41.501   3.862
79463W        W43220  14.304  20.749  12.475
79464W        W43221   2.299  41.958   0.874
79465W        W43222  41.313  35.064   4.824
79466W        W43223  22.249  37.991   4.606
79467W        W43224  43.461   2.888  13.524
79468W        W43225   9.702  11.654   0.275
79469W        W43226  26.562  40.864   0.452
79470W        W43227  28.173  22.248   2.875
79471W        W43228  37.512  23.125  12.416
79472W        W43229  29.930  28.101   1.832
79473W        W43230  44.305  39.062   0.767
79474W        W43231  35.539  25.544  13.441
79475W        W43232   1.452  42.925  11.566
79476W        W43233  39.062  15.109   4.303
79477W        W43234  30.479   0.800  13.984
79478W        W43235  37.941  16.215   3.369
79479W        W43236  33.971  39.051   0.739
79480W        W43237  25.107  13.836   1.888
79481W        W43238  24.067  32.413  13.386
79482W        W43239   4.438  19.577   0.301
79483W        W43240   5.284  43.981   3.732
79484W        W43241  13.688  41.384   1.372
79485W        W43242  27.495   2.841  12.060
79486W        W43243   0.951  42.848  14.787
79487W        W43244  18.059   2.432   3.165
79488W        W43245  37.003  38.446   3.372
79489W        W43246  27.626  33.921   4.745
79490W        W43247  32.992  12.687   2.781
79491W        W43248   9.223  36.880   3.852
79492W        W43249   2.397  27.649  13.908
79493W        W43250  13.612  11.187  10.457
79494W        W43251  11.867  28.985   4.641
79495W        W43252  15.109   3.745  13.436
79496W        W43253   1.324  40.534  14.787
79497W        W43254   0.367  37.002  11.443
79498W        W43255  26.998  16.711   1.833
79499W        W43256  23.725  34.473   2.901
79500W        W43257  29.640  23.087   3.362
79501W        W43258  12.667   0.456   4.768
79502W        W43259   2.326  39.374  12.421
79503W        W43260  10.234   1.913   3.180
79504W        W43261  23.601  12.341  14.318
79505W        W43262  20.709  38.046   5.631
79506W        W43263  42.969  37.361  11.862
79507W        W43264  43.852  17.651   3.261
79508W        W43265  11.252   0.443   4.753
79509W        W43266   1.806  28.527  11.385
79510W        W43267  28.172  24.121   3.190
79511W        W43268  25.214  13.244   2.803
79512W        W43269  41.387   9.670   2.726
79513W        W43270  29.512  39.542  11.129
79514W        W43271   0.955  10.845  11.383
79515W        W43272  24.709  19.622  10.516
79516W        W43273   6.861   8.708   0.395
79517W        W43274  17.154  39.812  12.544
79518W        W43275  24.538   7.216   2.217
79519W        W43276  14.219  35.028  11.987
79520W        W43277  17.566  10.683   2.257
79521W        W43278   8.679  39.357  10.441
79522W        W43279  25.667  29.670   2.205
79523W        W43280  36.454  25.562   1.382
79524W        W43281  21.555  14.194  13.398
79525W        W43282  39.495  13.646  14.357
79526W        W43283  27.521  22.728  14.292
79527W        W43284  31.482  20.614   2.419
79528W        W43285  17.556  33.111  13.047
79529W        W43286  18.055  41.480  12.865
79530W        W43287   2.938  26.183   4.616
79531W        W43288  22.686  28.625   4.652
79532W        W43289   6.297   7.260   2.386
79533W        W43290  30.159  29.001  14.793
79534W        W43291  11.764  32.942  11.448
79535W        W43292  34.009  10.282   0.266
79536W        W43293  24.577   7.292  13.443
79537W        W43294  44.989  25.964   1.235
79538W        W43295  20.641   3.798  11.855
79539W        W43296  42.998  22.651  14.951
79540W        W43297  41.925  21.697  12.558
79541W        W43298  11.264  25.002   0.822
79542W        W43299  13.140  39.017   1.851
79543W        W43300   8.852  23.176   2.241
79544W        W43301  32.506  33.443   4.272
79545W        W43302   2.801  37.401  12.073
79546W        W43303   5.376  25.156  13.917
79547W        W43304  20.731   0.448  14.027
79548W        W43305   1.857  30.637   2.711
79549W        W43306   1.792  16.119   1.224
79550W        W43307   6.392  11.203  10.437
79551W        W43308  33.055  32.093   3.172
79552W        W43309  16.144  38.526   4.722
79553W        W43310  25.092  21.601   4.228
79554W        W43311  39.973  11.764   1.722
79555W        W43312  34.380  22.710   4.811
79556W        W43313  22.126  22.072   2.375
79557W        W43314  29.644  23.631   1.934
79558W        W43315  44.344  21.732  14.958
79559W        W43316  10.139  15.621   3.824
79560W        W43317  18.651   5.766  12.050
79561W        W43318  22.015  15.194  14.488
79562W        W43319  14.800  22.052  11.960
79563W        W43320  38.034  19.607  14.429
79564W        W43321  37.437  31.948   3.870
79565W        W43322  30.047  18.693   1.288
79566W        W43323   6.827  40.506  12.860
79567W        W43324   7.242  16.311   1.738
79568W        W43325  36.048  28.521   1.304
79569W        W43326  24.158  18.073  11.914
79570W        W43327  11.778  41.823  11.109
79571W        W43328   9.151  24.220  11.375
79572W        W43329   3.385  44.931   0.845
79573W        W43330  10.360  42.461  11.947
79574W        W43331  25.996  15.216   0.955
79575W        W43332   3.843  20.085   3.379
79576W        W43333  10.301  33.879   3.248
79577W        W43334  16.090   9.811  12.824
79578W        W43335   0.322  39.421  11.435
79579W        W43336  38.457  33.960  12.380
79580W        W43337  20.161  22.228  13.833
79581W        W43338  15.610  22.236   3.299
79582W        W43339  38.872  14.743  11.391
79583W        W43340  16.804  32.405   0.773
79584W        W43341  12.257  26.569   4.687
79585W        W43342   6.873  31.440   1.917
79586W        W43343   5.383  26.582  14.439
79587W        W43344  13.326  38.844  12.836
79588W        W43345   3.858  25.586   1.438
79589W        W43346  29.128  27.662   1.901
79590W        W43347  16.154  18.568   4.620
79591W        W43348  26.612   9.709   0.423
79592W        W43349  20.151  23.505  14.027
79593W        W43350  11.239  24.648  10.433
79594W        W43351  34.451  18.633   4.269
79595W        W43352  17.787  14.215   2.396
79596W        W43353  19.639  20.728   3.259
79597W        W43354  23.200   1.790   2.240
79598W        W43355  34.579  20.596  11.460
79599W        W43356   1.835   2.855  13.345
79600W        W43357  16.267  11.683   3.806
79601W        W43358  15.812  20.614  14.822
79602W        W43359  35.902  21.692   4.133
79603W        W43360  18.605  11.727   1.233
79604W        W43361   7.808  34.055   2.311
79605W        W43362  30.055  43.454  11.876
79606W        W43363  18.133  28.114   2.191
79607W        W43364  43.847  33.464  11.911
79608W        W43365   9.235   3.930  14.803
79609W        W43366  44.308  41.532   3.387
79610W        W43367  42.475  15.758   0.408
79611W        W43368  37.485  17.203  11.954
79612W        W43369  37.412   6.202   5.288
79613W        W43370   9.263  26.162   4.665
79614W        W43371   3.741  25.009  10.509
79615W        W43372   4.842  16.640   1.400
79616W        W43373  10.205   0.989  11.510
79617W        W43374  18.052  36.928  12.437
79618W        W43375  27.965  41.007   1.747
79619W        W43376  22.587  23.023  12.474
79620W        W43377  28.497   4.944  13.476
79621W        W43378   6.414  27.090  12.869
79622W        W43379  27.113  19.250  13.543
79623W        W43380  44.353   4.393  12.569
79624W        W43381  18.662  41.504   4.749
79625W        W43382  36.588  15.233   2.255
79626W        W43383  20.081  30.443  13.008
79627W        W43384  17.288  44.804   3.178
79628W        W43385   1.750  31.443   3.635
79629W        W43386   7.891   9.748   1.402
79630W        W43387  10.757  35.498   2.262
79631W        W43388  34.919  37.567  11.433
79632W        W43389  20.266  25.988   1.307
79633W        W43390  26.527  30.471   3.158
79634W        W43391  39.367  32.607  14.498
79635W        W43392  41.794  34.412  14.410
79636W        W43393  26.200  35.527   0.304
79637W        W43394   0.810   4.793  12.534
79638W        W43395  39.342   1.957   1.448
79639W        W43396  44.932   2.953   0.803
79640W        W43397  26.655  43.434  11.480
79641W        W43398  18.248  12.613  13.513
79642W        W43399   2.240   3.763   1.775
79643W        W43400  44.315  25.184   1.912
79644W        W43401  40.019  16.222   2.363
79645W        W43402  29.476  25.077   1.431
79646W        W43403   1.266   0.905  12.010
79647W        W43404  34.593  42.319   2.699
79648W        W43405   5.233   0.258   4.281
79649W        W43406  22.694   7.882  10.618
79650W        W43407  27.532  44.430   4.176
79651W        W43408  37.408  19.713  12.580
79652W        W43409  12.322  37.975   3.164
79653W        W43410   8.758  13.279   0.406
79654W        W43411  33.897  43.858  12.882
79655W        W43412  44.884  33.904  10.421
79656W        W43413  12.264   7.747  11.054
79657W        W43414  20.197  39.043  12.447
79658W        W43415  39.532  44.385   3.821
79659W        W43416   5.917  29.442  13.382
79660W        W43417  37.865  36.375  14.027
79661W        W43418  44.939  15.715  14.497
79662W        W43419  33.381   9.850  11.012
79663W        W43420  12.359   2.240   3.336
79664W        W43421  24.625  36.400  14.786
79665W        W43422  37.953  22.231   1.245
79666W        W43423  33.496   9.860  14.983
79667W        W43424   0.872  15.769   2.688
79668W        W43425  32.892  34.004   3.643
79669W        W43426  10.282  41.451   4.621
79670W        W43427  13.690   7.906  10.534
79671W        W43428  15.252   3.238   0.857
79672W        W43429  41.014  10.243  14.361
79673W        W43430  34.414  21.680  14.453
79674W        W43431  19.618  26.534   3.790
79675W        W43432  18.748  20.223  13.922
79676W        W43433  31.467  22.628  13.933
79677W        W43434   2.914   5.309  11.383
79678W        W43435  25.653  34.921  11.592
79679W        W43436   3.355  17.565   3.365
79680W        W43437  35.066   0.908   4.643
79681W        W43438  24.572   0.340   1.722
79682W        W43439  43.924   2.913  13.311
79683W        W43440  14.250   8.332   0.966
79684W        W43441   8.853   6.755   3.629
79685W        W43442  37.525  33.945   2.215
79686W        W43443  21.241  10.163   1.854
79687W        W43444  14.734   2.384   1.881
79688W        W43445  41.524   0.260   2.308
79689W        W43446  16.601  27.644  13.521
79690W        W43447  24.592  43.868  12.544
79691W        W43448  43.366  39.033  14.860
79692W        W43449  33.476   4.915  11.381
79693W        W43450  40.042  17.718   1.744
79694W        W43451  38.537   0.790   2.302
79695W        W43452  13.183   0.366   3.261
79696W        W43453  31.410  15.115   4.614
79697W        W43454  16.782   8.707   1.449
79698W        W43455  19.040  31.144   1.421
79699W        W43456   9.336  40.039   3.823
79700W        W43457  24.114  32.912   1.850
79701W        W43458  18.287  28.582  14.784
79702W        W43459  32.908   8.661   0.782
79703W        W43460   6.276  34.115   2.766
79704W        W43461  31.027  11.278   3.268
79705W        W43462   3.934  17.184   2.721
79706W        W43463  14.822  24.190  12.980
79707W        W43464  30.048  12.857   4.274
79708W        W43465  43.775   9.389  14.933
79709W        W43466   1.391   1.955  14.797
79710W        W43467  13.791  31.140   2.693
79711W        W43468  21.565  37.553  14.987
79712W        W43469   5.370  21.695   3.838
79713W        W43470  22.665  15.616  11.557
79714W        W43471  27.094   9.871   0.789
79715W        W43472  33.024  43.391   4.732
79716W        W43473  36.376  42.893   3.197
79717W        W43474  23.190  20.705   2.326
79718W        W43475   5.409  32.396   4.291
79719W        W43476   6.207  27.118  10.036
79720W        W43477  29.476  42.309   1.321
79721W        W43478  23.234  27.561   2.893
79722W        W43479   3.380  16.090   4.746
79723W        W43480  36.987  41.533  12.067
79724W        W43481  11.204   8.897  10.426
79725W        W43482  42.412  30.992  14.805
79726W        W43483   4.394  10.814  12.055
79727W        W43484  25.116  29.605  14.324
79728W        W43485  35.519   7.364   3.694
79729W        W43486  13.312  26.662   0.852
79730W        W43487  43.482  34.456   3.696
79731W        W43488  44.357  41.486   5.283
79732W        W43489  13.288  11.302   9.925
79733W        W43490  17.258  10.872   2.305
79734W        W43491  17.107  24.005  13.491
79735W        W43492   3.457  21.062   0.285
79736W        W43493  18.127  22.679  11.097
79737W        W43494  12.256  40.352  11.018
79738W        W43495  42.480  16.189   4.811
79739W        W43496   1.329   0.359  11.602
79740W        W43497  32.093  37.078   3.647
79741W        W43498   8.779  13.745   4.728
79742W        W43499  13.836  35.526  11.984
79743W        W43500  28.644  10.265  14.985
79744W        W43501  17.649  32.567  12.983
79745W        W43502   7.767  17.783   1.810
79746W        W43503  29.107  23.713  10.575
79747W        W43504  27.611  18.181  12.997
79748W        W43505  39.967  44.874   4.130
79749W        W43506   1.821  23.588   4.722
79750W        W43507  16.626  32.955  14.019
79751W        W43508  12.354  19.557   4.250
79752W        W43509  41.886  42.970   2.234
79753W        W43510  35.371  26.578   4.293
79754W        W43511  31.140  24.017  13.415
79755W        W43512   3.836  30.413  14.451
79756W        W43513  22.526  31.533   1.770
79757W        W43514   0.478  30.991   0.870
79758W        W43515   8.291  28.529   1.226
79759W        W43516  26.053  19.618   0.933
79760W        W43517  34.595  41.414   0.956
79761W        W43518  13.658   4.376  11.008
79762W        W43519  16.205  18.286  12.450
79763W        W43520  38.440   1.843   2.731
79764W        W43521  25.654  32.983  14.406
79765W        W43522  36.079  10.707  14.377
79766W        W43523   3.453   5.375  12.387
79767W        W43524  17.761  10.188   0.765
79768W        W43525  43.868  17.603   2.329
79769W        W43526   5.277   3.918   1.226
79770W        W43527  26.504   8.316  10.457
79771W        W43528   3.456  36.063  14.396
79772W        W43529  38.981  43.904   5.128
79773W        W43530  32.571  29.063  11.405
79774W        W43531  14.616   7.845  14.495
79775W        W43532  24.083  12.692   1.335
79776W        W43533  21.144   2.830   4.146
79777W        W43534  43.860  33.411   1.401
79778W        W43535   1.940  30.077  12.426
79779W        W43536   3.413  28.024  11.441
79780W        W43537  10.764  19.671   3.815
79781W        W43538  44.972   4.837  14.864
79782W        W43539  43.481  29.161  14.897
79783W        W43540  22.688   1.290  12.906
79784W        W43541  24.216  38.376   2.347
79785W        W43542  33.533   3.748   0.785
79786W        W43543  44.313  17.704   1.902
79787W        W43544  43.375  30.639  11.543
79788W        W43545  43.311  26.575  14.372
79789W        W43546  20.246  15.148   0.731
79790W        W43547  43.512  42.345   3.807
79791W        W43548  21.644  32.457  14.801
79792W        W43549  24.198  27.038  11.454
79793W        W43550  31.041  19.278  12.825
79794W        W43551  42.776  28.679   0.884
79795W        W43552   1.390  25.515   1.328
79796W        W43553  44.963  13.141  11.447
79797W        W43554  39.343  41.787   0.918
79798W        W43555  35.480  20.032  12.854
79799W        W43556   3.758  14.213   1.290
79800W        W43557  38.426  30.602  14.826
79801W        W43558  39.412  41.473   4.671
79802W        W43559  15.138  44.279  13.450
79803W        W43560  27.975  32.564   0.825
79804W        W43561  13.699  31.632   1.926
79805W        W43562  44.369  31.525  13.810
79806W        W43563  30.017  28.167  14.869
79807W        W43564  44.785   6.815  11.563
79808W        W43565  17.635  23.227  12.553
79809W        W43566  24.537  11.151   2.414
79810W        W43567  23.590  28.657  11.065
79811W        W43568  28.145  14.187   1.416
79812W        W43569  38.553  32.538   3.637
79813W        W43570  33.973  14.139  12.963
79814W        W43571  28.658   9.213  12.537
79815W        W43572  42.979   4.227   3.188
79816W        W43573  41.026  27.617   4.187
79817W        W43574  29.509  28.522  10.983
79818W        W43575  40.996   3.239  13.925
79819W        W43576  44.379   6.252  13.821
79820W        W43577  28.499  34.868  13.403
79821W        W43578  37.867  34.973   1.434
79822W        W43579  31.506  23.177  14.859
79823W        W43580  29.576  10.814   3.870
79824W        W43581   0.893  24.692  12.908
79825W        W43582   3.302  11.179   0.416
79826W        W43583  40.363  25.531   0.752
79827W        W43584  22.527  26.107   4.118
79828W        W43585  13.798  42.448  13.351
79829W        W43586  25.658  20.626   2.311
79830W        W43587  23.053  32.004  10.955
79831W        W43588  33.401  25.004  11.553
79832W        W43589  23.034   0.351   4.235
79833W        W43590  39.869  15.651  11.375
79834W        W43591  43.272  23.563   2.739
79835W        W43592  35.597  19.569  14.862
79836W        W43593  27.569  36.449  14.013
79837W        W43594  25.111  38.445  12.087
79838W        W43595  33.469  27.515  10.501
79839W        W43596  25.021  35.037   3.722
79840W        W43597  24.507  19.639  12.456
79841W        W43598  10.799  41.332  10.951
79842W        W43599   7.208   1.468  14.338
79843W        W43600  43.875  42.996  14.436
79844W        W43601  20.028  40.912   3.369
79845W        W43602  44.329  10.228   4.737
79846W        W43603  18.231  11.862   0.339
79847W        W43604  32.482  34.510   1.403
79848W        W43605  34.482  31.122   4.645
79849W        W43606   0.452  40.466  13.938
79850W        W43607   0.771  23.154   4.803
79851W        W43608   5.697  18.218   2.725
79852W        W43609  38.899  25.664   0.826
79853W        W43610  29.433  12.664   4.697
79854W        W43611  26.118  31.049  10.429
79855W        W43612  40.516  42.844  13.901
79856W        W43613  39.332  40.888   0.420
79857W        W43614  28.521  21.214   4.639
79858W        W43615  34.066  27.130   2.800
79859W        W43616  22.056  37.014  13.871
79860W        W43617  10.245  23.538  13.315
79861W        W43618  41.500  33.594   2.330
79862W        W43619   6.402  14.790  14.438
79863W        W43620  34.036  40.943  12.969
79864W        W43621   4.853  11.298  10.960
79865W        W43622  17.772  19.149  14.903
79866W        W43623  12.268  21.731  12.844
79867W        W43624   8.388   8.214  12.053
79868W        W43625  11.654  27.559  14.905
79869W        W43626  17.636  39.351   1.784
79870W        W43627   3.274   3.295  10.492
79871W        W43628  43.481  30.505  13.024
79872W        W43629  33.471  38.551   1.761
79873W        W43630  39.507  30.623  10.957
79874W        W43631  42.427  24.032   3.175
79875W        W43632  35.440  15.261   2.336
79876W        W43633   2.735  42.491  10.502
79877W        W43634  30.421  38.823  12.961
79878W        W43635  21.557  33.428  12.381
79879W        W43636  31.616  20.195   2.792
79880W        W43637  19.149  33.542  13.999
79881W        W43638  27.673   3.324  11.890
79882W        W43639   2.835  32.556   3.231
79883W        W43640  22.701  41.982  13.829
79884W        W43641  21.707   1.859   4.142
79885W        W43642  14.206  24.659  11.583
79886W        W43643  22.586   6.756  11.418
79887W        W43644  38.360  18.622   4.802
79888W        W43645  33.971  35.099   1.903
79889W        W43646  40.880   5.385  14.339
79890W        W43647  33.609   4.354   2.413
79891W        W43648   3.351   5.342  11.017
79892W        W43649  35.538  36.476  14.488
79893W        W43650  37.858  20.031  13.050
79894W        W43651  24.985   4.779   3.727
79895W        W43652  32.391  21.618   2.292
79896W        W43653  14.311  37.068  11.038
79897W        W43654  14.656  10.829  14.449
79898W        W43655  26.532   2.730  12.422
79899W        W43656   2.281  29.127  10.063
79900W        W43657  10.720  41.497   4.124
79901W        W43658  28.962   5.417  12.525
79902W        W43659  30.155  19.578   1.786
79903W        W43660  27.636  15.815   1.914
79904W        W43661  14.786  11.766   4.340
79905W        W43662  43.275   0.819   0.351
79906W        W43663  12.208  32.129   1.213
79907W        W43664   3.250   8.290  13.438
79908W        W43665  10.339  22.233  14.987
79909W        W43666   6.269  26.121  13.870
79910W        W43667   5.740  16.182   0.341
79911W        W43668   4.433  31.963   2.724
79912W        W43669  24.697  31.623  14.006
79913W        W43670  32.947   2.442   9.995
79914W        W43671  21.023  41.379  10.453
79915W        W43672  43.377  12.613   2.745
79916W        W43673   8.348  32.563   0.468
79917W        W43674  41.526  11.801   3.734
79918W        W43675  31.082  15.083  14.781
79919W        W43676  22.700  34.067   0.873
79920W        W43677  22.677  21.033   4.731
79921W        W43678  40.508   6.699  12.489
79922W        W43679  20.228  25.530   3.742
79923W        W43680  27.950   4.225   3.353
79924W        W43681   6.743  11.734  11.088
79925W        W43682   9.361   5.742   1.784
79926W        W43683  29.532   0.286   2.719
79927W        W43684  23.504  17.276  10.575
79928W        W43685  23.195  31.546  13.047
79929W        W43686   6.410   8.394  12.367
79930W        W43687  31.540  32.549   2.720
79931W        W43688  44.791  34.905   3.649
79932W        W43689   9.819  12.313   0.246
79933W        W43690  43.476  28.519   0.337
79934W        W43691  23.563   7.744  12.890
79935W        W43692  27.078  14.103   3.726
79936W        W43693   6.740  16.643   0.919
79937W        W43694  20.131  23.204  13.926
79938W        W43695  18.204  13.755  10.449
79939W        W43696  41.495  30.505   1.769
79940W        W43697  38.493  19.670  13.828
79941W        W43698  25.086  17.621  10.467
79942W        W43699  14.257   5.833  12.411
79943W        W43700  28.989  13.242  10.547
79944W        W43701   0.386   8.317   0.467
79945W        W43702  35.034  31.974   5.118
79946W        W43703  28.454   3.874   2.788
79947W        W43704  22.210  38.943  10.970
79948W        W43705  15.614  22.048  10.937
79949W        W43706  20.226  26.538   0.826
79950W        W43707  11.365  21.179  14.280
79951W        W43708  29.069  20.705   3.284
79952W        W43709  15.230  17.708   2.842
79953W        W43710  14.671  20.543   4.600
79954W        W43711   6.382  30.599   3.354
79955W        W43712  26.658  32.561  14.455
79956W        W43713   9.210  27.050  14.397
79957W        W43714  40.940  26.477  13.443
79958W        W43715   7.875  44.963  11.393
79959W        W43716   6.287   6.789   1.784
79960W        W43717  30.453  26.555   0.858
79961W        W43718  40.432  14.810   4.238
79962W        W43719  15.640  13.839  14.487
79963W        W43720  27.478  29.125  13.060
79964W        W43721  27.111  39.962   4.806
79965W        W43722  33.541  33.572   2.221
79966W        W43723  36.580   4.373  13.946
79967W        W43724  43.438  16.225   0.306
79968W        W43725  10.263  29.446   4.326
79969W        W43726   4.889  27.135  14.003
79970W        W43727  15.088  36.453   3.808
79971W        W43728  34.448  27.658  12.943
79972W        W43729  32.573  31.601  13.965
79973W        W43730  15.661  12.291   3.165
79974W        W43731  33.995  43.961   0.284
79975W        W43732  28.955  41.999  12.369
79976W        W43733  34.586  13.157   2.346
79977W        W43734  12.697  10.719  11.945
79978W        W43735  20.523  37.341   4.736
79979W        W43736  14.680  21.701  10.555
79980W        W43737  21.656   6.861   4.772
79981W        W43738  11.172  43.887   5.205
79982W        W43739  27.635  34.427   0.798
79983W        W43740  25.979  26.107   3.255
79984W        W43741  19.748  10.855  11.013
79985W        W43742  17.264  32.432  12.511
79986W        W43743  32.022  29.465  13.903
79987W        W43744  19.058  31.583   2.295
79988W        W43745  19.179   9.746   3.198
79989W        W43746   5.317  36.583  14.405
79990W        W43747  36.036   4.418  11.041
79991W        W43748   1.295  21.055   4.318
79992W        W43749  27.066  34.040   2.670
79993W        W43750  40.340   8.736  14.953
79994W        W43751  37.493   0.278  13.028
79995W        W43752  34.459  44.951  10.622
79996W        W43753  38.890  37.497  10.160
79997W        W43754   5.406  39.887   3.173
79998W        W43755  39.980  42.807   3.301
79999W        W43756  36.928   9.215  10.639
80000W        W43757  40.948  35.074  14.007
80001W        W43758   9.743  36.563   3.217
80002W        W43759   1.875  18.701   0.835
80003W        W43760  11.751  34.875   1.283
80004W        W43761  20.758  15.275   4.808
80005W        W43762  42.399  23.204   3.290
80006W        W43763  15.580   0.985   2.702
80007W        W43764  35.409  30.947  14.442
80008W        W43765  32.050  10.656  13.329
80009W        W43766  28.103  36.937   2.294
80010W        W43767  35.565  29.074   5.287
80011W        W43768  11.812  44.379  12.969
80012W        W43769  33.993   2.952   2.752
80013W        W43770  11.760  28.960  14.313
80014W        W43771  21.199  21.262   2.827
80015W        W43772   6.354  34.539   0.742
80016W        W43773   8.398  29.990  14.892
80017W        W43774  44.385  20.562   1.329
80018W        W43775  25.522  25.145  12.048
80019W        W43776  20.077  24.684  14.783
80020W        W43777  34.481  22.570  10.553
80021W        W43778  29.658  27.584  13.971
80022W        W43779  18.288  41.792   3.826
80023W        W43780  38.550   8.263   0.275
80024W        W43781  13.120  41.361  12.511
80025W        W43782  26.096  19.173   4.614
80026W        W43783  43.478  19.655   3.844
80027W        W43784  12.154  30.086   2.287
80028W        W43785  21.617  34.063   1.446
80029W        W43786  14.242  30.034   2.761
80030W        W43787  28.586  31.969  10.463
80031W        W43788  11.143  37.073   1.725
80032W        W43789  13.791   2.859   2.195
80033W        W43790  40.961   3.938   5.273
80034W        W43791  22.161  10.817  12.067
80035W        W43792   6.294   3.742  10.446
80036W        W43793   1.747  27.959  14.487
80037W        W43794  35.490  14.218   4.698
80038W        W43795  37.437  28.488   1.844
80039W        W43796  26.491  14.828   2.386
80040W        W43797  41.525  34.093  14.450
80041W        W43798  10.724   8.699   0.320
80042W        W43799  10.795   4.810  10.527
80043W        W43800  39.841  35.011  12.006
80044W        W43801  15.115   1.388  11.915
80045W        W43802  42.512  39.521  10.597
80046W        W43803  13.329  14.187  10.108
80047W        W43804  43.803   7.382   4.802
80048W        W43805  35.012  21.620   4.828
80049W        W43806  15.720  21.074   2.867
80050W        W43807  42.348  10.371   2.283
80051W        W43808  34.414  31.910  13.791
80052W        W43809  16.098   7.220  14.499
80053W        W43810  32.525  29.585  11.962
80054W        W43811   4.297  15.277   3.318
80055W        W43812  10.161   2.291   4.217
80056W        W43813  39.995   9.753  11.548
80057W        W43814  41.026  41.005   4.616
80058W        W43815  24.598   3.407  14.346
80059W        W43816   9.862  16.275  12.864
80060W        W43817   3.433  15.639   2.875
80061W        W43818  23.522   5.749  14.473
80062W        W43819  27.027  41.445  12.939
80063W        W43820  13.654  39.376   4.679
80064W        W43821   7.352  10.783  10.526
80065W        W43822  34.379  30.454   3.654
80066W        W43823  26.104  38.985   4.186
80067W        W43824   2.877  27.530  12.990
80068W        W43825  14.095   1.424  14.861
80069W        W43826  41.824  13.785   1.753
80070W        W43827  37.336  41.808   4.726
80071W        W43828  30.084   8.897  14.804
80072W        W43829  33.434  30.032  11.916
80073W        W43830  37.034   8.698  12.029
80074W        W43831   5.230  22.657  11.960
80075W        W43832  12.147  34.997   0.901
80076W        W43833  36.906  37.526  13.395
80077W        W43834   8.275  27.997   4.792
80078W        W43835   1.829  13.276   0.434
80079W        W43836  39.503  14.277   2.718
80080W        W43837  37.034  42.888  12.412
80081W        W43838  44.264  22.569   0.805
80082W        W43839  30.497  25.564   3.683
80083W        W43840  40.459  28.023   4.222
80084W        W43841  24.524  31.913  13.463
80085W        W43842  44.412  12.691   4.748
80086W        W43843   9.306  10.225   0.885
80087W        W43844  24.492  39.911  11.984
80088W        W43845   8.899  37.381   0.834
80089W        W43846  29.024   4.365  14.514
80090W        W43847  31.528  11.202   2.384
80091W        W43848  20.264  43.766   2.419
80092W        W43849  13.249  26.502  13.480
80093W        W43850   9.371  37.356   0.362
80094W        W43851  26.144   3.432   1.415
80095W        W43852  29.478  27.687  13.356
80096W        W43853  40.388  29.991  12.449
80097W        W43854  41.340   3.260   5.284
80098W        W43855   1.811  15.695  10.486
80099W        W43856   8.880   3.904   4.279
80100W        W43857  40.423   9.686  14.948
80101W        W43858  13.743  44.926   0.322
80102W        W43859  21.142  30.516  13.960
80103W        W43860  11.809  10.287  11.571
80104W        W43861   8.707  22.170   1.839
80105W        W43862  36.876  28.047  11.987
80106W        W43863  14.101  28.163   0.433
80107W        W43864   6.720  25.113   3.712
80108W        W43865  15.267  20.120   2.293
80109W        W43866   5.866  26.069   0.395
80110W        W43867  16.197  37.860  10.972
80111W        W43868  24.681  43.856   4.648
80112W        W43869  37.942  10.720   3.793
80113W        W43870  41.377  42.857  12.954
80114W        W43871  40.798  21.214   3.313
80115W        W43872  15.786  37.076   3.798
80116W        W43873  21.723  17.190  13.995
80117W        W43874  31.125  10.877  13.398
80118W        W43875  35.594  42.310   1.757
80119W        W43876  28.563  31.603   3.374
80120W        W43877  22.193  11.278   2.862
80121W        W43878  22.023  27.598  12.911
80122W        W43879  11.159  19.279   0.371
80123W        W43880  10.852  26.070   3.366
80124W        W43881  12.128  37.037   3.631
80125W        W43882   0.870   9.861   3.308
80126W        W43883  23.660  24.056  10.611
80127W        W43884  24.583  41.013  12.423
80128W        W43885  40.944   1.262  13.861
80129W        W43886  13.344  13.841  12.900
80130W        W43887   8.397   5.362  14.793
80131W        W43888  21.572  18.201  14.799
80132W        W43889  43.766  10.141   2.900
80133W        W43890  34.916  41.870  11.600
80134W        W43891   1.900  26.629   5.125
80135W        W43892  11.273   0.474   3.736
80136W        W43893  44.009  42.870  11.510
80137W        W43894  36.040  27.006  12.449
80138W        W43895  11.814  34.476   4.702
80139W        W43896   2.922  29.664   3.758
80140W        W43897  22.029  20.145   0.468
80141W        W43898  31.122  18.250  10.932
80142W        W43899  19.558  31.978  11.483
80143W        W43900   0.382  37.355  11.554
80144W        W43901   6.697  28.575  14.780
80145W        W43902   2.768  32.398   3.786
80146W        W43903  19.561   5.237   1.896
80147W        W43904  28.071  39.378   3.278
80148W        W43905  35.372  11.268   1.298
80149W        W43906  32.533  44.426   0.349
80150W        W43907  24.110  32.125  11.400
80151W        W43908  38.447  31.044   1.767
80152W        W43909  37.839  25.137  10.468
80153W        W43910  39.331  22.557   1.900
80154W        W43911   2.452  22.049  11.588
80155W        W43912   8.229  41.514   3.235
80156W        W43913   5.346  37.373   2.182
80157W        W43914  27.576  20.039  13.468
80158W        W43915   6.209  31.531  13.369
80159W        W43916   8.876  44.484   5.157
80160W        W43917  17.090  25.966  12.499
80161W        W43918  30.416  13.143  10.612
80162W        W43919  30.105  10.689  12.480
80163W        W43920   0.818  26.462   0.414
80164W        W43921   4.356   9.338  13.870
80165W        W43922  14.296  11.153   4.614
80166W        W43923  21.538  16.100   1.868
80167W        W43924  31.950  16.607  12.979
80168W        W43925  28.121  33.019   4.654
80169W        W43926   9.818  29.167   1.212
80170W        W43927  25.476  36.899   3.729
80171W        W43928  42.514  28.118  12.466
80172W        W43929  20.226  25.008   2.369
80173W        W43930  22.144  30.922   1.920
80174W        W43931  25.507  21.614  13.982
80175W        W43932  12.191   0.348  13.874
80176W        W43933  13.611  40.435   3.753
80177W        W43934  34.112  31.483  13.510
80178W        W43935  23.708  42.455  10.480
80179W        W43936  37.499  22.602   0.928
80180W        W43937  43.374  19.149   0.860
80181W        W43938  42.406   1.893   0.743
80182W        W43939   7.726   0.794   1.277
80183W        W43940  17.104  10.752   4.832
80184W        W43941  22.736  36.091  10.606
80185W        W43942  21.164   5.324  12.571
80186W        W43943  14.327  16.720  12.470
80187W        W43944   4.211  32.411  13.978
80188W        W43945   9.765  18.558   4.769
80189W        W43946  28.016  17.610  14.503
80190W        W43947   4.445  44.492   9.934
80191W        W43948  27.114   7.831  11.069
80192W        W43949  18.287  17.282  12.902
80193W        W43950  11.809  32.014  14.277
80194W        W43951   9.800  27.476   3.265
80195W        W43952  31.991   7.758  12.438
80196W        W43953  41.042  43.343  14.838
80197W        W43954  21.221  31.595   9.462
80198W        W43955   1.340   9.865  11.048
80199W        W43956  31.148   7.211   1.834
80200W        W43957  43.916  25.173   2.326
80201W        W43958  14.107  25.036   2.356
80202W        W43959  11.185  10.758  11.117
80203W        W43960   0.289  19.209  13.445
80204W        W43961   2.894  43.300  13.353
80205W        W43962  11.863  32.405   2.810
80206W        W43963  42.865   6.700  14.487
80207W        W43964  30.619  38.060   0.825
80208W        W43965  40.984  12.225  13.490
80209W        W43966  25.569  14.656   0.807
80210W        W43967   3.398   0.259  12.864
80211W        W43968  44.465  29.959   2.309
80212W        W43969  33.979  21.180  11.858
80213W        W43970  36.859  33.930  13.312
80214W        W43971   0.804   8.261  10.638
80215W        W43972  11.280  29.624  11.061
80216W        W43973  38.824  34.494   2.708
80217W        W43974  34.930  40.852   1.339
80218W        W43975  39.900  30.917  14.301
80219W        W43976   8.867  30.969  12.556
80220W        W43977   8.375  43.341   2.248
80221W        W43978  26.616   8.657  10.959
80222W        W43979  14.684  40.422   3.722
80223W        W43980  21.533   9.851  12.347
80224W        W43981   3.741  44.827   0.284
80225W        W43982  26.072   0.289   2.187
80226W        W43983  33.415  33.004  14.354
80227W        W43984  42.983  25.604  14.988
80228W        W43985   7.297  35.567  13.381
80229W        W43986  28.570  44.466  11.461
80230W        W43987  35.496   0.744   1.408
80231W        W43988  37.930  14.588  12.967
80232W        W43989  36.906  42.775  12.953
80233W        W43990  11.228  12.689   2.732
80234W        W43991  24.095  11.697   9.954
80235W        W43992  37.048  41.965   1.877
80236W        W43993  25.983  39.027   3.240
80237W        W43994   0.378  33.012  13.946
80238W        W43995  10.310   7.820  14.514
80239W        W43996  34.973   7.730  14.342
80240W        W43997   5.808   6.901   0.967
80241W        W43998  30.511  25.101   0.803
80242W        W43999  19.135  44.416   1.722
80243W        W44000  13.275  10.194   5.163
80244W        W44001  40.801  15.814   0.286
80245W        W44002  11.162  40.947  13.062
80246W        W44003  32.969  43.401  12.560
80247W        W44004   6.335  30.511   4.726
80248W        W44005   4.311   3.443   2.838
80249W        W44006  27.057   8.263  13.050
80250W        W44007  35.883  28.564  10.476
80251W        W44008   2.858   5.336   2.256
80252W        W44009  25.628  19.229   4.796
80253W        W44010  33.012  26.550   2.766
80254W        W44011  43.916  30.003   4.627
80255W        W44012   0.918  20.254  14.944
80256W        W44013  25.660  30.048  14.897
80257W        W44014  10.672  13.768   2.809
80258W        W44015  11.247   8.900  12.550
80259W        W44016  27.524   3.783   4.753
80260W        W44017  20.535   0.779  14.472
80261W        W44018  10.226  33.898   2.196
80262W        W44019  12.825  11.829  13.895
80263W        W44020  30.500  27.571  10.625
80264W        W44021   7.669  42.842   0.865
80265W        W44022   5.400  18.201  10.496
80266W        W44023  33.972  21.138   0.374
80267W        W44024  17.641  15.198  13.545
80268W        W44025  20.115  13.627   1.249
80269W        W44026   3.300  13.297   0.332
80270W        W44027  43.287  14.294   3.687
80271W        W44028  20.535  34.483  13.355
80272W        W44029  24.225  31.444   1.347
80273W        W44030   4.768   9.162   4.133
80274W        W44031  25.563  32.075   2.259
80275W        W44032  36.447  17.256   0.430
80276W        W44033   2.821  36.473   0.730
80277W        W44034  34.451   2.416   0.903
80278W        W44035  31.531  44.299   2.239
80279W        W44036  27.181  32.890   0.841
80280W        W44037  38.408  40.856   3.769
80281W        W44038  12.324  23.620   3.384
80282W        W44039   8.404  31.540   1.348
80283W        W44040  33.430   5.206  13.498
80284W        W44041  23.622  39.927  10.968
80285W        W44042  31.409  15.652   3.706
80286W        W44043  39.335  31.947   4.597
80287W        W44044   4.448  23.092   0.877
80288W        W44045  41.466   3.952  13.047
80289W        W44046  19.277  28.137   2.770
80290W        W44047  13.143  40.799  12.362
80291W        W44048  39.406   6.360  11.875
80292W        W44049  32.442  27.135  11.020
80293W        W44050   4.856   7.330   4.218
80294W        W44051  25.209   1.408  13.948
80295W        W44052  35.024   9.832   0.293
80296W        W44053  25.988   2.435   1.914
80297W        W44054  37.480  31.122   3.162
80298W        W44055  43.417  44.853   0.844
80299W        W44056   6.913   5.280  10.446
80300W        W44057  24.707  12.815  12.879
80301W        W44058  33.026   6.751   0.939
80302W        W44059   8.838  24.165  14.402
80303W        W44060  35.589  35.908   1.697
80304W        W44061  27.520   7.668  13.796
80305W        W44062  19.261   6.857  12.030
80306W        W44063  20.651  35.458  13.883
80307W        W44064   4.919   5.234   3.152
80308W        W44065  34.110   5.306   2.407
80309W        W44066  20.197  18.152  12.480
80310W        W44067  10.814  22.717   2.873
80311W        W44068  35.924  15.578   1.932
80312W        W44069  22.655  29.451  10.630
80313W        W44070  43.367  25.586  14.779
80314W        W44071  36.885  35.888   2.744
80315W        W44072  24.489  10.210  14.283
80316W        W44073  18.678  14.267  10.987
80317W        W44074  20.614  37.021   3.300
80318W        W44075  33.456   2.451   5.105
80319W        W44076   5.735  39.478  12.091
80320W        W44077   5.909  21.720   1.300
80321W        W44078  23.732  36.048  14.823
80322W        W44079  36.462  25.056  10.897
80323W        W44080  13.142  29.643   3.385
80324W        W44081   1.824  43.402   5.191
80325W        W44082  40.350  15.726  11.496
80326W        W44083   3.908  23.004  13.825
80327W        W44084   4.776  26.142   2.786
80328W        W44085  30.460  20.145   4.305
80329W        W44086  27.944  25.528  13.325
80330W        W44087  37.992  16.785   1.325
80331W        W44088   3.909   6.374  11.415
80332W        W44089  24.490  25.699   4.629
80333W        W44090  10.247  22.159  14.502
80334W        W44091   0.346  34.994  13.871
80335W        W44092  33.543  12.332  11.592
80336W        W44093  36.004  23.188   2.208
80337W        W44094  38.052   0.464  11.012
80338W        W44095   8.180  41.862  12.560
80339W        W44096   5.313  34.903  13.040
80340W        W44097   7.289  32.030   1.252
80341W        W44098  25.007  42.310  13.339
80342W        W44099  32.064  13.599   4.297
80343W        W44100  31.557   5.421   1.921
80344W        W44101  11.695  39.352  11.036
80345W        W44102  21.115  44.345  14.448
80346W        W44103  12.697  21.161  12.016
80347W        W44104  33.601  13.828  14.315
80348W        W44105  18.140  43.294  11.003
80349W        W44106  19.669  11.207   3.818
80350W        W44107  13.265  13.748   1.854
80351W        W44108   1.954  38.912   4.299
80352W        W44109  20.083  31.994   4.354
80353W        W44110  16.604   5.403   0.753
80354W        W44111  34.505   5.368  12.027
80355W        W44112  20.701  38.393  12.579
80356W        W44113  44.362   6.205   3.803
80357W        W44114  22.178  18.247   0.464
80358W        W44115  12.228  10.644  11.412
80359W        W44116  15.796  19.271  13.962
80360W        W44117  20.648  25.977  12.903
80361W        W44118   0.368  28.150  12.350
80362W        W44119   1.872   1.962  14.425
80363W        W44120  43.471   1.397  11.565
80364W        W44121  21.705  12.314   4.770
80365W        W44122  42.357  24.538   0.322
80366W        W44123   0.289  39.892   4.291
80367W        W44124   3.330  27.053   0.445
80368W        W44125  26.126  33.065  11.534
80369W        W44126   8.375  42.840  10.894
80370W        W44127  25.712  21.253   2.855
80371W        W44128  25.694  22.085  13.950
80372W        W44129  39.981  18.230   3.350
80373W        W44130  40.023  40.469  12.491
80374W        W44131  15.626  44.339  11.873
80375W        W44132  27.982   9.695  14.026
80376W        W44133   6.305  29.126   0.891
80377W        W44134  22.588   5.215   2.889
80378W        W44135   2.259  25.521  11.973
80379W        W44136  10.683  12.654  12.479
80380W        W44137   8.333   7.731  11.462
80381W        W44138   4.900  10.169  12.414
80382W        W44139  38.880  37.054  13.858
80383W        W44140  28.158  11.259  14.845
80384W        W44141   6.345  39.360  14.891
80385W        W44142   4.229  22.161  14.294
80386W        W44143  20.614  11.216  13.361
80387W        W44144  17.188  14.655  13.444
80388W        W44145  36.533   4.358   1.820
80389W        W44146  34.022  23.610   2.393
80390W        W44147   0.789  33.877   3.205
80391W        W44148  14.592  10.874   4.177
80392W        W44149  43.354  34.015   3.743
80393W        W44150  32.438   9.813   0.874
80394W        W44151   3.275  18.164  14.476
80395W        W44152  34.395  42.821   2.782
80396W        W44153  43.825   1.377   0.792
80397W        W44154  11.684  11.724  10.542
80398W        W44155   3.242  22.100  10.004
80399W        W44156  25.580  39.995  14.941
80400W        W44157  27.072  21.215   1.795
80401W        W44158  40.456  29.654   0.292
80402W        W44159  42.981  33.390   1.888
80403W        W44160  36.454   6.798   1.380
80404W        W44161  27.087  38.953   0.331
80405W        W44162  35.099  33.562  13.393
80406W        W44163  17.231  37.848   4.309
80407W        W44164  10.319  25.511   4.763
80408W        W44165   7.291  37.409  13.452
80409W        W44166  41.445  16.689   1.365
80410W        W44167  29.542  27.005   2.210
80411W        W44168   1.894  14.680  10.450
80412W        W44169  22.741  14.758  11.005
80413W        W44170   8.662  29.949  14.891
80414W        W44171  40.406  43.935   3.685
80415W        W44172   5.371  33.129  13.011
80416W        W44173  36.084   4.386   2.812
80417W        W44174  15.581  20.192   4.723
80418W        W44175  29.468  34.923  13.796
80419W        W44176  30.092  16.123   3.241
80420W        W44177  39.964   5.881   3.691
80421W        W44178  40.878  31.117   4.231
80422W        W44179  37.931  30.050   3.703
80423W        W44180  25.555  35.584   1.417
80424W        W44181  10.298  38.821  10.429
80425W        W44182  35.505  41.942  12.038
80426W        W44183   8.256   8.197  14.890
80427W        W44184  19.548  15.247   3.304
80428W        W44185  34.377  26.108  11.074
80429W        W44186  21.640  36.374   0.278
80430W        W44187  10.146   0.396  11.507
80431W        W44188  17.700  29.469   0.375
80432W        W44189   8.772   0.471  14.008
80433W        W44190  23.653   8.232   1.274
80434W        W44191   7.772  15.736  14.315
80435W        W44192  44.294  35.028   3.161
80436W        W44193  37.886  40.941  11.960
80437W        W44194  26.471   2.778   0.869
80438W        W44195  28.494  13.694   5.690
80439W        W44196  15.611  31.437  14.461
80440W        W44197   9.204   9.299   0.801
80441W        W44198  39.438  43.842  12.025
80442W        W44199   3.458   8.324   1.796
80443W        W44200  23.623   9.287   0.479
80444W        W44201  20.131  27.147  14.978
80445W        W44202  23.656  11.322   3.164
80446W        W44203  30.079  25.964  12.889
80447W        W44204  24.993  44.760   3.645
80448W        W44205  10.381  22.114   1.363
80449W        W44206   4.247  18.578   3.310
80450W        W44207  15.687  25.055   0.450
80451W        W44208  13.244  15.815  12.443
80452W        W44209   0.912  40.954   1.351
80453W        W44210  43.812   9.314   0.478
80454W        W44211  11.686  27.449   0.326
80455W        W44212  22.190  28.440  13.793
80456W        W44213  17.644  41.328   1.923
80457W        W44214  28.556   4.317   4.750
80458W        W44215  17.783  40.471   0.452
80459W        W44216  32.601  14.320   0.891
80460W        W44217  28.476   7.759   4.696
80461W        W44218  33.532  17.270   5.284
80462W        W44219  11.696  24.631   2.400
80463W        W44220  41.450   3.949   2.345
80464W        W44221  29.668  28.170   3.361
80465W        W44222  40.903   7.801  10.498
80466W        W44223  13.631  37.942   1.818
80467W        W44224  30.031  35.543  13.339
80468W        W44225  13.678  44.342   1.811
80469W        W44226  17.158  40.357   0.291
80470W        W44227  25.629  40.980   4.827
80471W        W44228   8.827  23.614   3.146
80472W        W44229  11.340   6.838   4.710
80473W        W44230  19.108   2.368  11.945
80474W        W44231   4.928  16.658  14.957
80475W        W44232  28.677  13.206  14.860
80476W        W44233   4.340   8.189   0.278
80477W        W44234  16.154  32.912  11.914
80478W        W44235   0.411  16.780  14.952
80479W        W44236  23.495  14.743   3.664
80480W        W44237  26.180  40.885   3.320
80481W        W44238  31.475   5.265   2.412
80482W        W44239   3.716  20.714   4.212
80483W        W44240  36.519  21.258   4.149
80484W        W44241  40.498   6.252  12.368
80485W        W44242  31.472  17.207   1.834
80486W        W44243  11.626  39.926  13.018
80487W        W44244  10.643  28.061   0.943
80488W        W44245  36.347  35.582  13.310
80489W        W44246  33.424  30.157  14.022
80490W        W44247  35.494  29.095  12.467
80491W        W44248  16.083   3.354   0.775
80492W        W44249  30.641   6.387  10.889
80493W        W44250  42.326  31.913  11.516
80494W        W44251  16.275  16.809  10.920
80495W        W44252   9.316  41.511   3.369
80496W        W44253   5.286   0.892   3.863
80497W        W44254  35.880   4.267  11.923
80498W        W44255   9.853  25.517   0.920
80499W        W44256  43.927  25.606  14.303
80500W        W44257  36.557   6.724   2.228
80501W        W44258  21.662  25.076  14.387
80502W        W44259  39.548   3.413  12.028
80503W        W44260   6.300  32.606  11.398
80504W        W44261   8.698  36.443   4.304
80505W        W44262  14.250  24.052   1.765
80506W        W44263  23.096  38.506  11.509
80507W        W44264  27.517  35.925  14.910
80508W        W44265  10.256  21.554  12.376
80509W        W44266  32.556  20.606   1.750
80510W        W44267   7.743  31.016   0.727
80511W        W44268  40.035  40.896   3.655
80512W        W44269  24.554  41.439  12.545
80513W        W44270  40.500  18.146  14.020
80514W        W44271  15.137  17.121   3.764
80515W        W44272   0.815  32.534   2.818
80516W        W44273  18.160  40.889  12.055
80517W        W44274  19.091  17.578  11.976
80518W        W44275  40.806   2.319   0.808
80519W        W44276  22.191  35.953  12.975
80520W        W44277  42.460  35.057   1.759
80521W        W44278  31.459   1.970  13.315
80522W        W44279   5.246  23.008   3.219
80523W        W44280  37.866  44.287   1.804
80524W        W44281  12.731  11.190   0.407
80525W        W44282  32.934   9.369   2.403
80526W        W44283  29.938  27.558   2.896
80527W        W44284  28.974  19.560  10.543
80528W        W44285  37.044  38.029  13.513
80529W        W44286  17.224   7.680   2.178
80530W        W44287   9.716  16.200   2.841
80531W        W44288   0.876   6.263   4.171
80532W        W44289  18.547  15.737  11.442
80533W        W44290   9.800  18.166  10.568
80534W        W44291  22.733   3.239  14.836
80535W        W44292   3.308  22.613   0.479
80536W        W44293  40.991  30.034   3.717
80537W        W44294   4.260  42.514  12.000
80538W        W44295  21.746  42.011   1.366
80539W        W44296  23.990   4.811   2.310
80540W        W44297   5.345  42.970  14.491
80541W        W44298  11.372   9.279   1.404
80542W        W44299  36.398  38.328  10.609
80543W        W44300  43.780  30.926  13.983
80544W        W44301   8.861  30.531  13.950
80545W        W44302  18.727  14.294  10.594
80546W        W44303  30.997  21.262   1.428
80547W        W44304   2.897  27.563  11.418
80548W        W44305   9.650  39.473   1.399
80549W        W44306  44.357   0.473   0.306
80550W        W44307  16.609  36.485  11.995
80551W        W44308  33.604  24.992   4.154
80552W        W44309  22.228  43.276   4.697
80553W        W44310  34.000  11.263  11.503
80554W        W44311   0.851  23.736  14.901
80555W        W44312  38.508  35.409   1.423
80556W        W44313   7.188   4.245  14.359
80557W        W44314   3.247  17.089  11.609
80558W        W44315   1.873  18.193   3.758
80559W        W44316   7.669  12.672   2.868
80560W        W44317  26.960  39.836   0.780
80561W        W44318  35.931  24.629  14.974
80562W        W44319  41.040  44.415  14.299
80563W        W44320  13.281   4.329   3.806
80564W        W44321  25.987  33.407  11.516
80565W        W44322  22.528   8.341   4.324
80566W        W44323   0.298  31.542   3.201
80567W        W44324  21.667   7.283  12.354
80568W        W44325  37.076  14.189  11.983
80569W        W44326  28.609  38.856   1.298
80570W        W44327  14.145  11.171  11.398
80571W        W44328  23.090  21.194  14.361
80572W        W44329  31.062   2.919   9.571
80573W        W44330   5.425   5.254   3.751
80574W        W44331  32.974  18.711  11.544
80575W        W44332  35.600  27.984   3.159
80576W        W44333  16.290  41.495   2.838
80577W        W44334  13.185  23.037  13.455
80578W        W44335   1.958  15.792  11.395
80579W        W44336  28.141  11.172  12.433
80580W        W44337  23.051  14.628  13.992
80581W        W44338  11.180  10.782   2.326
80582W        W44339  19.658  30.093  10.577
80583W        W44340  17.066  12.632   4.146
80584W        W44341   7.261  39.889  14.475
80585W        W44342  42.820  39.012  11.946
80586W        W44343  14.736  15.141   3.798
80587W        W44344  42.307   2.463   0.893
80588W        W44345  26.165  16.196   4.797
80589W        W44346  41.420   7.226  14.913
80590W        W44347  11.129   0.789   1.864
80591W        W44348   1.249   0.987   3.797
80592W        W44349   5.437  40.932   2.185
80593W        W44350  42.490   0.480   1.695
80594W        W44351  34.381  26.160   0.407
80595W        W44352   6.879  37.543  12.064
80596W        W44353  25.167  29.566   3.297
80597W        W44354   3.309  19.185  12.908
80598W        W44355  42.895  23.159  12.499
80599W        W44356  34.043  28.633   3.330
80600W        W44357  38.972  41.842   3.251
80601W        W44358  19.653  10.373   2.895
80602W        W44359  14.711  17.077  14.012
80603W        W44360  27.010  30.657   3.199
80604W        W44361  13.276  22.578  10.152
80605W        W44362  30.069  16.782   2.353
80606W        W44363  40.364  16.109  11.097
80607W        W44364  40.870  29.555  12.401
80608W        W44365   2.393  35.448   4.801
80609W        W44366  11.683  26.616   0.260
80610W        W44367  23.658  12.138  11.884
80611W        W44368  14.814  13.297   1.880
80612W        W44369  14.622   4.710  11.578
80613W        W44370   9.234  32.518  11.398
80614W        W44371  42.955  35.428   4.238
80615W        W44372  28.936  17.682   0.296
80616W        W44373  12.741  44.482   2.246
80617W        W44374   4.344  12.629  11.466
80618W        W44375  14.708  11.755   1.774
80619W        W44376   8.240  17.184   5.219
80620W        W44377  43.949  25.079  14.008
80621W        W44378  38.981   4.775  10.973
80622W        W44379  18.252  10.281   2.667
80623W        W44380  43.849   1.336   4.658
80624W        W44381  23.524  18.592  10.575
80625W        W44382  34.112  15.228  13.331
80626W        W44383  19.664  30.492   1.888
80627W        W44384  34.518   3.380  12.071
80628W        W44385  23.189   7.273  13.000
80629W        W44386  22.150  29.630   1.822
80630W        W44387  44.915  33.062   3.384
80631W        W44388  30.532  15.126  12.885
80632W        W44389   1.946   0.482  12.565
80633W        W44390  41.406  35.497   0.891
80634W        W44391   9.361  11.359  13.990
80635W        W44392  22.660  22.587  14.891
80636W        W44393  42.306  16.253  10.540
80637W        W44394  15.316  37.396   5.097
80638W        W44395  24.633  13.845  12.391
80639W        W44396  17.271  33.076  10.096
80640W        W44397   7.814  40.983   3.823
80641W        W44398  44.784  14.140   0.838
80642W        W44399  31.601   2.405  13.514
80643W        W44400   5.412  21.564  10.476
80644W        W44401  11.842  28.453  14.308
80645W        W44402  13.841   8.279  12.506
80646W        W44403  10.337   0.357   2.288
80647W        W44404  31.453   1.863   5.301
80648W        W44405   5.734   4.424   4.704
80649W        W44406  39.011  10.274   4.621
80650W        W44407   2.812   0.921   0.939
80651W        W44408  28.582   3.955   0.381
80652W        W44409  30.137  42.441   2.418
80653W        W44410   7.186   8.352   1.372
80654W        W44411  16.207   4.366  12.838
80655W        W44412  17.651  32.603   3.708
80656W        W44413   2.386  15.192  12.826
80657W        W44414  37.416   4.737  14.478
80658W        W44415  23.653   4.706  10.936
80659W        W44416  13.843  25.118   2.370
80660W        W44417   3.945  11.732  11.947
80661W        W44418   5.244  10.775   2.730
80662W        W44419  12.182  40.827  13.490
80663W        W44420  22.098   3.767  14.005
80664W        W44421  42.511  15.781  12.377
80665W        W44422  24.010   8.681  11.451
80666W        W44423  39.826  27.639  14.276
80667W        W44424   7.248   0.952  12.533
80668W        W44425   9.155  40.977   4.148
80669W        W44426   3.955  40.372  12.010
80670W        W44427  10.295  25.595  12.863
80671W        W44428  39.063   7.322   4.268
80672W        W44429   3.932  27.585  10.485
80673W        W44430   1.338  37.023  10.551
80674W        W44431  12.320   8.244   1.860
80675W        W44432  28.639  41.320  13.381
80676W        W44433  36.404   1.898  11.463
80677W        W44434  19.191  16.812   3.378
80678W        W44435  22.144  12.828   4.750
80679W        W44436  36.363  31.448  13.893
80680W        W44437  37.507  39.512  11.037
80681W        W44438  17.563  29.582  14.896
80682W        W44439  22.633  44.813  12.471
80683W        W44440   9.230  37.980   3.240
80684W        W44441  22.180  20.187  11.542
80685W        W44442  44.438  42.850   3.276
80686W        W44443  10.312  41.868   3.650
80687W        W44444  27.486  22.054  13.979
80688W        W44445  19.716  38.440   1.412
80689W        W44446   0.866  34.434  14.390
80690W        W44447   4.829  41.950  14.018
80691W        W44448  22.028  30.006   2.686
80692W        W44449  33.542  43.328  12.912
80693W        W44450   1.468  31.574  12.879
80694W        W44451  40.315   0.988   5.128
80695W        W44452  44.364  22.240   0.433
80696W        W44453  23.240  18.148   0.915
80697W        W44454  25.634  22.532  13.546
80698W        W44455  15.172   6.728  13.802
80699W        W44456  32.507   7.328   2.193
80700W        W44457   9.209  43.888   1.255
80701W        W44458  43.893   6.412   4.278
80702W        W44459   7.333  22.009   0.374
80703W        W44460   7.295   7.296  10.483
80704W        W44461   8.366  20.128  12.823
80705W        W44462  32.113   2.469  13.374
80706W        W44463   3.781  31.507  12.430
80707W        W44464  41.899  27.553   3.653
80708W        W44465  38.556  13.766   2.680
80709W        W44466  28.516  23.648   1.316
80710W        W44467  13.734  42.802   2.878
80711W        W44468  41.821  33.031   3.707
80712W        W44469   6.184  39.464   1.788
80713W        W44470  23.986   2.762  11.432
80714W        W44471  14.274   0.779   2.238
80715W        W44472  10.688  41.012  13.908
80716W        W44473  22.103  33.475  14.510
80717W        W44474   7.284  44.352   0.825
80718W        W44475   2.826  23.100   1.295
80719W        W44476  14.298  39.836   2.777
80720W        W44477  13.670  30.002   1.353
80721W        W44478   9.867  10.215   2.411
80722W        W44479  31.441  38.825   4.323
80723W        W44480  23.183  37.940   2.890
80724W        W44481  41.484  30.003   0.319
80725W        W44482  35.100  24.129  14.439
80726W        W44483  17.589  43.876  10.413
80727W        W44484  39.958  18.235  11.557
80728W        W44485  18.590   0.263  13.971
80729W        W44486  26.968  13.657  13.030
80730W        W44487  42.506   0.346  12.459
80731W        W44488  37.572  11.252  10.026
80732W        W44489  16.613  22.079  11.866
80733W        W44490   5.704  24.157  11.470
80734W        W44491  10.238  10.808  14.477
80735W        W44492  44.896  40.009  12.883
80736W        W44493  13.320  42.328  12.884
80737W        W44494  16.673   6.270   2.372
80738W        W44495  13.786   5.702  12.081
80739W        W44496  17.095  12.675  13.465
80740W        W44497  18.564  10.232  11.878
80741W        W44498   3.412  33.099  11.397
80742W        W44499  34.119  28.090   0.310
80743W        W44500   7.214   8.794   4.679
80744W        W44501  27.519  12.118   2.380
80745W        W44502  31.984  10.668   0.269
80746W        W44503  30.616  36.905   1.319
80747W        W44504   0.862   4.319   3.777
80748W        W44505  39.976  37.935   4.286
80749W        W44506  41.884  44.439  10.987
80750W        W44507  32.630   4.938  13.484
80751W        W44508  26.576  28.947  12.353
80752W        W44509  22.524  29.161   5.297
80753W        W44510   0.283  26.064  14.338
80754W        W44511  22.562  21.226  11.500
80755W        W44512   0.379  36.062   2.394
80756W        W44513  13.732  41.850   4.321
80757W        W44514  44.972  31.404   3.256
80758W        W44515  37.500  16.605  11.538
80759W        W44516  13.293  34.054   4.170
80760W        W44517   5.390   2.265  11.496
80761W        W44518  25.606  15.098  11.384
80762W        W44519   3.276   5.248   2.233
80763W        W44520  40.007  10.642   4.322
80764W        W44521  32.886   1.370  14.505
80765W        W44522  14.773  24.685   1.414
80766W        W44523  43.502  38.545  12.050
80767W        W44524  39.014  13.727   2.283
80768W        W44525  43.818  42.899   5.220
80769W        W44526   9.875  13.806   1.907
80770W        W44527   0.964  17.595   0.947
80771W        W44528  28.570  30.659  12.087
80772W        W44529  11.136  14.615   0.404
80773W        W44530  15.577   8.249  12.083
80774W        W44531  29.622   2.470   3.838
80775W        W44532  22.238  35.573  13.328
80776W        W44533  18.224   6.294   1.813
80777W        W44534  29.666   1.732   3.251
80778W        W44535  25.028  31.917  11.583
80779W        W44536  31.575  29.646   1.386
80780W        W44537  32.617  32.500   2.193
80781W        W44538  30.424  16.777  13.359
80782W        W44539  13.608  34.957  14.923
80783W        W44540  32.086   0.298   2.675
80784W        W44541  19.042  23.079   3.833
80785W        W44542  21.252   9.362  12.358
80786W        W44543  30.137  36.977   3.639
80787W        W44544  43.499  16.773  14.940
80788W        W44545  39.969  33.602  11.415
80789W        W44546  31.978  28.975   0.427
80790W        W44547  15.192  14.747   3.822
80791W        W44548  33.449  36.900  10.586
80792W        W44549  39.351  18.160  12.083
80793W        W44550  38.855   9.182  13.016
80794W        W44551  34.085  25.177   5.319
80795W        W44552  23.999  34.388  13.370
80796W        W44553   2.373  43.348   0.357
80797W        W44554  35.960  40.968  12.060
80798W        W44555   0.929  44.833   4.120
80799W        W44556   0.824   5.283  11.437
80800W        W44557  43.462  42.002  10.903
80801W        W44558  44.499  42.356  14.435
80802W        W44559  35.084  44.927   3.286
80803W        W44560  23.064  33.053   9.973
80804W        W44561  16.641   3.722   0.944
80805W        W44562  11.255   1.771   2.348
80806W        W44563  20.133  39.496  13.820
80807W        W44564   5.319  34.866   0.764
80808W        W44565  21.127  19.779  13.883
80809W        W44566   2.327  16.213  14.821
80810W        W44567  44.907  17.224  11.874
80811W        W44568  32.034  40.437   4.118
80812W        W44569   8.659   7.829   3.368
80813W        W44570  20.713  25.047  11.026
80814W        W44571   1.739   9.379   1.865
80815W        W44572  30.012   4.298  12.951
80816W        W44573  44.504  17.623   3.746
80817W        W44574  17.690  42.470  13.512
80818W        W44575  37.837  44.800  12.504
80819W        W44576  44.431  26.565  11.915
80820W        W44577   4.377  14.625  13.919
80821W        W44578   9.713  15.785   3.819
80822W        W44579  37.464  35.463  13.979
80823W        W44580  40.321  10.324  14.323
80824W        W44581   0.484   9.728   2.270
80825W        W44582  20.189  33.974  12.063
80826W        W44583  13.746   1.925   3.689
80827W        W44584  11.159  16.231  12.361
80828W        W44585   6.293  33.112  11.400
80829W        W44586   6.426   9.390   2.709
80830W        W44587   2.929   0.343   3.648
80831W        W44588  27.115  18.081  13.329
80832W        W44589  38.423  19.708  13.541
80833W        W44590  17.796  41.986   4.210
80834W        W44591  43.957   1.815  13.527
80835W        W44592   9.770  33.565  14.779
80836W        W44593  23.996  11.206   3.660
80837W        W44594   5.421  39.506   2.394
80838W        W44595  11.189  23.989   1.273
80839W        W44596  18.647   0.852   2.285
80840W        W44597  36.574  27.075   4.719
80841W        W44598  41.835  31.627  10.445
80842W        W44599   8.691   7.685   2.774
80843W        W44600  13.341  10.772   2.775
80844W        W44601  10.327  12.820  13.948
80845W        W44602  20.537  31.463  11.865
80846W        W44603  36.057   9.341   2.410
80847W        W44604   5.907  42.917  10.616
80848W        W44605  35.445  16.284   1.800
80849W        W44606  15.297  12.302   4.811
80850W        W44607  14.702   8.846  14.950
80851W        W44608  42.344  26.485  12.964
80852W        W44609  10.800  33.424  12.940
80853W        W44610  14.234  29.946   2.384
80854W        W44611  10.765  29.960   0.286
80855W        W44612  10.764   6.685  12.035
80856W        W44613  18.062  24.099   4.800
80857W        W44614  31.556  34.407  14.946
80858W        W44615   2.317  38.026   3.278
80859W        W44616  35.892  25.514  11.892
80860W        W44617  42.331   6.853   4.838
80861W        W44618  20.628   4.329   3.646
80862W        W44619  14.798  20.554   1.803
80863W        W44620  15.289  36.969  11.396
80864W        W44621  23.500  41.431  10.431
80865W        W44622   5.219  29.448  11.098
80866W        W44623  38.536  38.338  14.507
80867W        W44624   7.875   9.719   3.186
80868W        W44625   0.378   1.482   1.903
80869W        W44626  40.371   1.831   4.776
80870W        W44627  33.071   3.774  12.450
80871W        W44628  14.664   4.238   0.255
80872W        W44629  18.128  39.418  13.331
80873W        W44630   3.218   5.408   1.798
80874W        W44631  28.662  18.216   1.235
80875W        W44632  19.672  29.662   1.300
80876W        W44633  29.608  14.770   0.919
80877W        W44634  33.085  26.506  12.895
80878W        W44635  39.016  35.561   0.764
80879W        W44636   1.940  28.091   4.636
80880W        W44637  31.139  31.990  12.470
80881W        W44638  19.260  35.468   4.269
80882W        W44639  36.085  32.391   2.190
80883W        W44640  20.071  31.079   0.875
80884W        W44641   9.867  21.566   1.285
80885W        W44642   9.150   2.821  12.036
80886W        W44643  17.272   4.408  10.433
80887W        W44644  29.520  24.227   2.675
80888W        W44645  17.207  33.016   3.730
80889W        W44646   0.823  21.511   3.676
80890W        W44647  33.582  20.040  11.426
80891W        W44648  33.067  40.479   2.891
80892W        W44649  35.436  28.537   3.858
80893W        W44650   0.838  44.940  12.486
80894W        W44651  42.353  23.014  11.552
80895W        W44652  40.881  17.705  12.873
80896W        W44653  35.079  22.198   4.221
80897W        W44654  24.183   6.865  10.939
80898W        W44655  10.768  25.087   2.701
80899W        W44656  29.482  22.231  13.946
80900W        W44657   9.375  19.656  13.058
80901W        W44658  11.341   9.352  14.352
80902W        W44659  21.611  26.592  11.941
80903W        W44660   9.785  15.753  14.987
80904W        W44661   9.691  39.398   4.279
80905W        W44662  38.563  38.858  12.569
80906W        W44663  42.964  36.583  10.626
80907W        W44664  33.413  31.612   2.691
80908W        W44665  27.510   2.233   4.813
80909W        W44666  23.213   0.801  14.811
80910W        W44667   0.332   7.826   1.925
80911W        W44668  37.337  31.424   2.413
80912W        W44669  29.028  12.144   0.786
80913W        W44670  24.016  35.919  14.477
80914W        W44671  44.362  16.210  11.557
80915W        W44672  15.803  16.674   2.717
80916W        W44673   2.278   2.407   1.837
80917W        W44674  15.757   2.371   2.778
80918W        W44675  20.083  38.860  10.049
80919W        W44676   1.275   7.797  12.869
80920W        W44677  44.480  33.421  10.500
80921W        W44678  14.688   4.769  10.585
80922W        W44679   6.794   8.659   0.899
80923W        W44680   5.421  29.097  11.946
80924W        W44681  16.115  21.191   2.719
80925W        W44682  40.905  19.577   3.775
80926W        W44683  38.326  18.154  10.556
80927W        W44684  15.228  39.971  11.987
80928W        W44685   7.277  18.586   1.328
80929W        W44686  12.231  12.180   0.401
80930W        W44687  31.151  32.123  11.587
80931W        W44688  19.189   7.186  13.536
80932W        W44689  29.498  41.375   4.235
80933W        W44690  20.071  13.166   5.306
80934W        W44691  38.513   1.275   0.482
80935W        W44692   1.278   9.382   2.230
80936W        W44693  28.652  18.746  14.799
80937W        W44694  29.018  27.681  11.118
80938W        W44695   6.337  24.100   3.643
80939W        W44696  39.325  14.608   2.190
80940W        W44697  24.541  22.514  12.002
80941W        W44698   7.760   0.936  12.928
80942W        W44699  17.224  41.942  11.391
80943W        W44700  33.024  30.947   0.377
80944W        W44701  38.408  20.668  10.493
80945W        W44702  37.478  32.975   3.227
80946W        W44703   7.364   2.880  12.864
80947W        W44704  10.875   6.745  10.517
80948W        W44705  23.655  38.561  11.518
80949W        W44706  22.669  19.265  13.880
80950W        W44707  43.815  20.760   3.679
80951W        W44708  24.147   8.780  13.517
80952W        W44709  13.232  44.985  11.607
80953W        W44710  15.609  38.516  13.989
80954W        W44711  19.149  19.244  11.910
80955W        W44712   4.246  41.397   2.827
80956W        W44713  28.043   4.216   2.678
80957W        W44714   8.767  39.360  14.349
80958W        W44715   2.398  24.009  11.600
80959W        W44716  13.210  11.201  11.390
80960W        W44717  14.743   0.931   9.980
80961W        W44718   1.416   7.251   0.326
80962W        W44719   5.254  23.591  10.943
80963W        W44720  12.734  23.136   0.272
80964W        W44721  15.688   3.290  11.094
80965W        W44722   5.376  32.110   1.698
80966W        W44723  17.777   1.865   0.915
80967W        W44724  22.093  20.529   4.639
80968W        W44725  13.129   1.451  11.885
80969W        W44726  43.815   4.811  13.007
80970W        W44727  16.268  16.681   1.234
80971W        W44728  16.123   1.245   2.878
80972W        W44729  36.985  23.003   1.825
80973W        W44730   6.810  22.156  13.954
80974W        W44731  43.276  22.081  12.069
80975W        W44732  10.170  10.173   1.882
80976W        W44733  34.405  40.443   2.342
80977W        W44734   3.255  20.739   0.945
80978W        W44735   7.778   8.223   0.427
80979W        W44736  17.266  25.560   9.957
80980W        W44737  29.438  44.844  11.055
80981W        W44738  36.582  44.961   0.262
80982W        W44739  30.139  32.912   0.865
80983W        W44740   4.746   4.357   0.815
80984W        W44741   3.424  12.300  12.859
80985W        W44742  30.970  40.828  14.764
80986W        W44743  19.256   2.965  13.903
80987W        W44744  41.956   7.816   4.812
80988W        W44745  30.596  14.221   0.262
80989W        W44746  35.495  12.326   3.716
80990W        W44747   9.275  36.467  12.961
80991W        W44748  30.656  29.559   1.757
80992W        W44749  22.600   1.973  13.826
80993W        W44750  18.084  43.815  14.407
80994W        W44751  14.607  14.745   0.434
80995W        W44752  36.526  43.014   3.710
80996W        W44753  38.447  38.063  11.089
80997W        W44754  24.093  38.836   4.653
80998W        W44755   6.728  30.564  13.476
80999W        W44756  35.475  28.946   2.733
81000W        W44757  13.304  16.223   2.827
81001W        W44758   8.678  39.028  13.472
81002W        W44759  32.435  43.843  14.437
81003W        W44760  24.686  26.590  12.885
81004W        W44761   8.327  32.455  13.492
81005W        W44762  20.111   3.358  12.923
81006W        W44763  41.349  25.989  12.967
81007W        W44764   6.420  39.476  11.434
81008W        W44765  24.073  29.581   5.085
81009W        W44766  14.259  43.830  11.473
81010W        W44767  26.577  14.589  10.945
81011W        W44768   3.877  28.550  13.045
81012W        W44769  13.124  42.503  10.514
81013W        W44770   8.845  24.070  12.360
81014W        W44771  30.631  36.458  14.000
81015W        W44772   7.183  33.530  12.032
81016W        W44773  37.461  19.753   3.828
81017W        W44774  44.838  15.781  10.067
81018W        W44775  31.478  35.048   1.696
81019W        W44776  35.433  30.911  11.984
81020W        W44777   7.284  24.021  14.827
81021W        W44778  28.552  40.868   4.326
81022W        W44779  36.092  28.097   0.364
81023W        W44780   2.926  20.727  11.902
81024W        W44781   9.252  22.500   3.827
81025W        W44782   5.430  23.531  11.402
81026W        W44783   0.250   4.796  11.597
81027W        W44784   7.172   9.833   0.260
81028W        W44785  15.733  15.652  12.543
81029W        W44786  17.788  32.055  13.336
81030W        W44787   9.666  11.290   1.838
81031W        W44788  25.082  12.612   2.892
81032W        W44789   7.265  39.883  11.125
81033W        W44790  20.526   2.739   2.715
81034W        W44791  20.646  31.519   0.469
81035W        W44792  32.489  17.295  13.043
81036W        W44793  28.543  15.160  13.327
81037W        W44794  17.089  38.377  12.403
81038W        W44795  22.121  40.953  11.427
81039W        W44796  17.728  24.481  13.858
81040W        W44797  29.975  12.639   0.295
81041W        W44798   3.358  41.311  12.392
81042W        W44799  27.542  38.459   3.736
81043W        W44800  21.526  35.465  13.450
81044W        W44801  21.159  28.681  12.940
81045W        W44802  14.249   4.781   3.640
81046W        W44803  25.026  15.127   2.851
81047W        W44804  10.869   6.196  13.040
81048W        W44805  27.673  42.375  12.425
81049W        W44806   9.236  12.153  14.486
81050W        W44807  44.353   3.879  11.009
81051W        W44808  38.005   0.981   5.188
81052W        W44809  41.536  42.777   0.300
81053W        W44810  19.136  24.627  13.880
81054W        W44811  44.827  39.503   2.828
81055W        W44812  26.065  30.000   2.348
81056W        W44813  16.081  16.298  12.424
81057W        W44814  36.565  34.478  10.070
81058W        W44815  34.866  40.495   1.393
81059W        W44816  14.160  32.943  13.335
81060W        W44817  23.055  36.403   1.438
81061W        W44818  36.400  39.934   4.684
81062W        W44819   6.235   5.861   0.415
81063W        W44820  21.535  42.355   3.746
81064W        W44821  44.406   8.731   9.970
81065W        W44822  44.414  39.549  11.081
81066W        W44823  17.795   7.809  12.555
81067W        W44824  34.005  18.778   1.281
81068W        W44825  28.157  30.506   4.308
81069W        W44826   6.226  28.623   1.361
81070W        W44827   7.841  30.448   0.885
81071W        W44828   8.793  40.505   4.327
81072W        W44829   8.390  29.971  13.915
81073W        W44830  36.005  42.965  14.406
81074W        W44831  18.094  18.781  12.899
81075W        W44832  30.963  44.890   2.391
81076W        W44833   1.437   3.752  11.998
81077W        W44834   8.345  32.565   3.686
81078W        W44835   9.733  44.339  12.030
81079W        W44836  16.318  37.002  11.982
81080W        W44837  15.324  25.150  11.890
81081W        W44838  43.810  17.686   0.820
81082W        W44839  41.976  37.011  11.113
81083W        W44840  43.985  27.099  14.354
81084W        W44841  39.421  16.631   0.948
81085W        W44842  11.814  23.050   1.829
81086W        W44843  14.120  18.208  12.039
81087W        W44844  12.802  22.574  12.376
81088W        W44845   4.267   6.398  10.467
81089W        W44846  19.269  33.588   3.339
81090W        W44847  26.137  14.134   0.417
81091W        W44848  31.492  15.267   0.773
81092W        W44849  22.121  32.890   1.309
81093W        W44850  10.231   8.321  13.891
81094W        W44851  11.852  39.825   1.311
81095W        W44852  41.953  16.180   1.748
81096W        W44853  14.802  42.417   3.364
81097W        W44854  30.931  43.928  14.875
81098W        W44855  30.979  42.404  12.023
81099W        W44856   1.468  34.548   4.208
81100W        W44857  36.922  39.821   1.757
81101W        W44858   3.450  42.500   1.851
81102W        W44859  17.567   8.386  13.836
81103W        W44860   9.727  31.959   3.275
81104W        W44861  16.579   7.807  14.314
81105W        W44862   9.681   4.293   3.776
81106W        W44863  20.108  11.802   2.796
81107W        W44864  25.603  10.216   1.402
81108W        W44865  44.907  27.596   3.380
81109W        W44866  18.056  21.237   4.143
81110W        W44867   0.859  11.642   3.782
81111W        W44868  14.711  28.493  13.448
81112W        W44869  18.726  40.031   0.867
81113W        W44870  42.802  39.926  10.572
81114W        W44871  33.030  36.028   2.337
81115W        W44872  37.954  35.367  14.369
81116W        W44873  41.508  38.564   4.290
81117W        W44874  18.269  39.917   3.726
81118W        W44875  44.982  16.243  13.052
81119W        W44876  41.454   4.728  14.977
81120W        W44877   8.669  23.202   1.264
81121W        W44878  42.923  25.171   4.121
81122W        W44879  32.507  34.517   2.785
81123W        W44880  42.833  27.995   3.219
81124W        W44881  32.547  36.465   4.178
81125W        W44882  19.158  21.650   3.280
81126W        W44883  15.721  34.594   2.231
81127W        W44884   6.863  24.598  14.970
81128W        W44885  22.211  13.161   4.329
81129W        W44886  38.537  20.702   1.402
81130W        W44887   1.974  32.512   1.408
81131W        W44888  30.962   2.421   0.479
81132W        W44889  11.631  10.840   0.736
81133W        W44890   5.202   3.428  11.869
81134W        W44891  12.739  29.595  13.457
81135W        W44892  16.673  33.518  13.420
81136W        W44893  13.178   5.376  10.522
81137W        W44894  19.676   7.370  13.991
81138W        W44895  13.266   3.257   0.367
81139W        W44896  35.067  10.863   3.324
81140W        W44897   5.236  10.759   0.326
81141W        W44898  43.387   7.739  11.001
81142W        W44899  20.652  34.893   0.356
81143W        W44900   2.781  26.136   3.279
81144W        W44901  42.789  33.439  11.965
81145W        W44902  25.155   4.315  11.422
81146W        W44903  31.517  36.527   0.933
81147W        W44904   0.868  21.577  13.437
81148W        W44905  22.650   2.942   2.197
81149W        W44906  29.577  21.703   1.277
81150W        W44907   6.888  13.272  14.898
81151W        W44908  38.030  11.337   2.746
81152W        W44909   1.467  32.137   3.320
81153W        W44910  31.933  15.744  12.914
81154W        W44911   3.909  19.662  13.312
81155W        W44912  41.810  34.488   3.279
81156W        W44913  14.712  22.185   4.789
81157W        W44914  29.515  22.152   0.405
81158W        W44915  23.648  21.630   0.883
81159W        W44916  35.889  39.438  11.864
81160W        W44917   3.803   7.388  13.819
81161W        W44918  42.825  32.971   1.281
81162W        W44919  22.605  18.267   1.929
81163W        W44920  25.534  33.493   1.876
81164W        W44921  18.780  28.652  14.023
81165W        W44922   9.315  26.061   0.296
81166W        W44923  35.021  27.087  11.893
81167W        W44924  15.298  17.702   1.719
81168W        W44925   0.405  14.608  10.923
81169W        W44926  36.386  16.642  14.862
81170W        W44927   6.206  36.987   4.209
81171W        W44928  40.019  10.766  10.611
81172W        W44929   9.387  36.399   2.780
81173W        W44930  14.682   3.780   4.347
81174W        W44931  10.740  32.465  11.063
81175W        W44932  44.009  30.417   2.182
81176W        W44933   1.407  11.857  13.443
81177W        W44934  26.136  18.655  10.525
81178W        W44935  10.255  36.920   4.632
81179W        W44936  33.040  29.435   2.747
81180W        W44937  37.979   4.206   4.130
81181W        W44938  11.225  12.732  10.513
81182W        W44939  19.546  35.919   4.816
81183W        W44940  20.762  18.715   2.280
81184W        W44941  43.806   3.908  12.531
81185W        W44942  38.460  20.169   2.870
81186W        W44943  27.173   5.813  13.966
81187W        W44944  18.781  41.976   4.190
81188W        W44945  32.048  22.236   2.738
81189W        W44946   8.790  28.976   0.882
81190W        W44947  31.955  25.556   5.106
81191W        W44948  29.625  10.731  13.808
81192W        W44949  12.731   4.258  14.767
81193W        W44950  15.276  12.304   0.937
81194W        W44951  36.508  17.155   4.164
81195W        W44952  11.820   0.312  11.964
81196W        W44953  22.697  15.785   3.708
81197W        W44954  40.804  31.948   2.774
81198W        W44955  35.940  34.564   2.382
81199W        W44956  37.485   8.794  10.422
81200W        W44957  43.902   8.833  11.063
81201W        W44958   2.823  30.627  12.095
81202W        W44959  40.452   3.430   0.900
81203W        W44960  10.680  27.485  13.814
81204W        W44961  15.582  14.729   5.122
81205W        W44962   9.724  14.335   2.320
81206W        W44963   1.448  24.973  10.980
81207W        W44964  20.649   3.744  12.569
81208W        W44965   0.372  21.133  12.880
81209W        W44966  23.111  39.873  13.398
81210W        W44967  40.932  36.473   1.260
81211W        W44968  41.427  24.159   3.280
81212W        W44969  34.003  44.916  14.344
81213W        W44970  22.056   6.260  14.946
81214W        W44971  41.469  30.990   4.344
81215W        W44972  14.297  14.623  13.462
81216W        W44973  31.930  15.685   2.675
81217W        W44974  34.864  43.358   0.470
81218W        W44975  21.579  26.536   5.199
81219W        W44976   3.880  27.567   1.868
81220W        W44977  33.027  10.861  12.958
81221W        W44978  42.487  20.663  10.483
81222W        W44979  32.931   6.246   0.297
81223W        W44980  31.085  26.653  13.045
81224W        W44981  28.492  39.321   4.696
81225W        W44982  28.184   1.393   1.824
81226W        W44983  35.908  26.576   4.125
81227W        W44984  44.754  12.318   4.734
81228W        W44985  30.095  27.964  12.573
81229W        W44986  15.178   2.756  10.072
81230W        W44987   8.719  42.472   4.833
81231W        W44988  22.127   3.796  10.996
81232W        W44989  11.252  44.332  10.018
81233W        W44990  30.658  44.459   0.330
81234W        W44991  13.178   1.810  14.468
81235W        W44992  17.695  29.126   4.339
81236W        W44993  25.573   5.862  13.904
81237W        W44994  38.869  14.297   4.168
81238W        W44995  44.771  23.033  13.919
81239W        W44996  10.718  30.610  14.766
81240W        W44997  33.115   7.242  13.453
81241W        W44998   8.346  26.676  14.989
81242W        W44999  29.583  28.624   2.708
81243W        W45000  30.524  37.984  13.940
81244W        W45001  30.556  33.529   2.371
81245W        W45002  29.107  33.579  10.118
81246W        W45003  23.712  16.285  14.968
81247W        W45004  17.240  31.560   2.729
81248W        W45005   3.876  30.649  11.563
81249W        W45006  43.493  28.957   2.364
81250W        W45007  38.862   6.345   1.216
81251W        W45008   6.866  35.518  13.391
81252W        W45009   4.820  16.578   4.254
81253W        W45010  40.530  29.986   0.395
81254W        W45011  18.588  29.619  10.958
81255W        W45012   5.768   5.851   2.365
81256W        W45013  31.498  14.288  14.000
81257W        W45014  33.971   2.319   4.116
81258W        W45015  31.453  31.074   3.631
81259W        W45016   0.957  31.151   2.318
81260W        W45017  21.215  29.550   0.373
81261W        W45018  33.100  41.003   4.322
81262W        W45019  42.866  10.831   2.211
81263W        W45020  19.707   2.897   3.656
81264W        W45021   5.379  20.746  12.848
81265W        W45022  34.911   8.381   4.226
81266W        W45023  24.696  38.873   1.712
81267W        W45024  14.309  12.765   2.385
81268W        W45025  33.525  41.504   5.241
81269W        W45026  27.000  14.608   0.737
81270W        W45027  11.832  20.595  10.587
81271W        W45028  44.840   1.402   2.749
81272W        W45029  36.379   1.951   5.151
81273W        W45030  40.902  20.274  11.962
81274W        W45031  44.772   4.379   1.250
81275W        W45032  20.527   7.728   2.894
81276W        W45033  16.797  18.232   4.616
81277W        W45034   5.728   5.731  11.425
81278W        W45035  14.799  16.617  10.531
81279W        W45036   1.954  38.949   4.630
81280W        W45037  20.081  22.670  11.572
81281W        W45038   9.304  21.512   1.770
81282W        W45039   0.349  31.046   2.290
81283W        W45040  26.989   2.244   2.716
81284W        W45041  12.612  32.432  11.519
81285W        W45042  21.210  38.000   1.718
81286W        W45043   9.798   6.802   0.742
81287W        W45044  25.646  35.491  12.494
81288W        W45045   4.297  13.664  13.338
81289W        W45046  38.982   6.353  10.484
81290W        W45047   4.915   4.301   2.886
81291W        W45048   5.926  43.879  14.816
81292W        W45049  16.085  16.764   2.324
81293W        W45050  10.205  18.722   3.675
81294W        W45051  27.006  39.985  10.611
81295W        W45052   2.248  41.807  11.580
81296W        W45053  44.288   5.739  13.947
81297W        W45054   6.788  16.749   1.769
81298W        W45055  12.656   2.907   2.320
81299W        W45056  23.498  21.063  13.959
81300W        W45057  12.825   8.171  10.625
81301W        W45058  17.190  25.646  14.942
81302W        W45059   3.768  27.111   0.301
81303W        W45060   4.728  25.113  12.362
81304W        W45061  19.107  13.209  14.836
81305W        W45062  38.518  25.189  12.396
81306W        W45063  38.013  13.822  14.955
81307W        W45064  19.584   3.290  10.133
81308W        W45065   5.862  39.497  11.100
81309W        W45066  30.981   6.704   0.761
81310W        W45067   6.744  23.016  12.536
81311W        W45068  20.714   4.896  12.408
81312W        W45069  44.832  19.534  11.422
81313W        W45070  31.924  40.376  12.917
81314W        W45071  24.656   7.318  14.419
81315W        W45072  22.606  22.745  13.855
81316W        W45073  20.566  25.661  12.015
81317W        W45074  27.502  44.962  12.093
81318W        W45075  19.645   4.845   5.300
81319W        W45076   2.414  30.122  11.118
81320W        W45077   1.785   9.679   0.332
81321W        W45078   8.197   2.854   1.759
81322W        W45079   8.769  13.229   1.318
81323W        W45080   5.742  29.594  13.992
81324W        W45081  29.953  23.075  13.995
81325W        W45082  18.248  36.505   2.213
81326W        W45083  15.638   6.264  13.978
81327W        W45084  19.705  14.246   2.724
81328W        W45085  36.398   4.313  11.592
81329W        W45086  18.771  23.526  12.384
81330W        W45087  17.586   6.182  12.354
81331W        W45088   0.251   4.751  13.465
81332W        W45089   6.886  25.542   2.399
81333W        W45090  29.622   4.879  10.436
81334W        W45091  31.547  23.040   2.768
81335W        W45092  26.010   7.191   0.763
81336W        W45093   3.396   6.802  12.563
81337W        W45094   5.781  34.975   4.788
81338W        W45095  20.272   7.328   4.750
81339W        W45096  24.693   9.251   0.907
81340W        W45097   9.352  40.362   5.159
81341W        W45098  14.630  38.895  13.847
81342W        W45099   5.734  31.952   2.384
81343W        W45100  12.627  25.032  12.367
81344W        W45101  14.715   1.361   2.362
81345W        W45102  23.018  17.694   4.128
81346W        W45103  27.187  21.178   3.279
81347W        W45104  32.416   6.899   5.272
81348W        W45105  41.446  42.838   4.798
81349W        W45106   5.801  19.718  10.892
81350W        W45107  12.162  15.706  10.528
81351W        W45108  37.564  42.829  10.634
81352W        W45109   3.757   7.695  11.871
81353W        W45110  44.275  42.389  14.799
81354W        W45111   0.828  28.991  10.593
81355W        W45112  31.412   6.883  10.911
81356W        W45113  35.462  11.655   0.863
81357W        W45114  21.155  26.457   3.715
81358W        W45115  36.354  39.900  13.332
81359W        W45116  32.127  31.487  12.367
81360W        W45117  11.170  13.159  12.561
81361W        W45118  30.122  15.601  11.463
81362W        W45119  14.160  39.391   0.288
81363W        W45120  24.660  30.080   4.330
81364W        W45121  33.390  43.308  12.451
81365W        W45122  10.172   5.217   2.769
81366W        W45123  44.905  25.509  12.981
81367W        W45124  39.557  11.741  12.927
81368W        W45125  28.634  13.752  11.533
81369W        W45126  28.004  24.682   3.385
81370W        W45127  31.021   6.362   1.211
81371W        W45128  41.447   0.977  11.887
81372W        W45129  23.117  21.563  10.454
81373W        W45130  29.138  16.643   4.704
81374W        W45131  42.858   2.281  13.471
81375W        W45132  27.674  13.331   3.368
81376W        W45133  21.598   8.265   4.791
81377W        W45134   6.772  25.655   0.259
81378W        W45135   5.914  21.533   4.643
81379W        W45136  14.108   3.448  14.424
81380W        W45137  41.942  42.462  14.945
81381W        W45138   2.304   6.244  13.502
81382W        W45139  29.559   9.861  11.035
81383W        W45140  19.670  17.614  11.111
81384W        W45141   2.804  19.675   1.436
81385W        W45142  39.499  12.823   3.226
81386W        W45143   9.335  16.311   1.346
81387W        W45144   7.406  15.654   1.760
81388W        W45145  44.828  29.548   4.190
81389W        W45146  17.151   0.959   3.860
81390W        W45147  29.101  41.999   0.741
81391W        W45148  44.810   7.875   2.286
81392W        W45149  31.572  27.945   5.704
81393W        W45150  36.533   4.816   0.422
81394W        W45151  32.084  10.654  13.985
81395W        W45152  15.134  19.734   1.924
81396W        W45153  35.949  28.506   3.208
81397W        W45154   7.887  24.668  13.482
81398W        W45155  28.001  21.156  11.381
81399W        W45156  13.194  24.168  11.095
81400W        W45157  18.654  41.926  14.015
81401W        W45158  32.958  36.848   0.928
81402W        W45159  13.149  43.828  12.475
81403W        W45160   3.729  35.456   3.158
81404W        W45161  25.603  28.118   4.660
81405W        W45162  37.570  31.457  12.400
81406W        W45163   9.859  21.069  13.946
81407W        W45164  37.529  11.840   2.369
81408W        W45165  19.549   1.768  12.350
81409W        W45166  28.940  23.109   1.828
81410W        W45167  16.194  31.608  10.959
81411W        W45168  33.610  35.864  14.378
81412W        W45169  19.071  43.927  12.890
81413W        W45170  14.633  40.007   1.359
81414W        W45171  34.113  33.518   4.239
81415W        W45172  20.659  18.243   4.215
81416W        W45173  37.888  39.385  12.352
81417W        W45174  10.272  38.493  12.952
81418W        W45175  29.167   5.728  12.506
81419W        W45176   2.829   7.368   4.832
81420W        W45177  26.992  25.978   3.262
81421W        W45178  28.440  31.447  10.553
81422W        W45179  41.994  20.271   2.187
81423W        W45180  41.498  13.252   4.801
81424W        W45181  35.495  34.401  11.532
81425W        W45182   0.255  28.066   3.795
81426W        W45183  13.243  38.567   2.731
81427W        W45184  44.989  35.914   4.719
81428W        W45185  35.909  28.509  11.561
81429W        W45186  38.875  15.643   1.827
81430W        W45187  33.382  39.913   0.960
81431W        W45188  26.092  40.421  14.430
81432W        W45189  37.416  30.113  12.830
81433W        W45190  16.667  36.966  13.334
81434W        W45191  44.945  42.891   5.109
81435W        W45192  39.839  37.508   4.134
81436W        W45193  23.565  14.640   4.691
81437W        W45194  24.202  22.228  13.486
81438W        W45195   9.771   5.847   4.159
81439W        W45196  28.140  17.275   0.482
81440W        W45197  11.248   4.940   2.724
81441W        W45198  42.424  44.000  13.316
81442W        W45199  39.358  35.578  13.434
81443W        W45200  44.003  43.957  14.026
81444W        W45201   0.900  29.938  14.314
81445W        W45202  39.497   7.275   3.857
81446W        W45203   4.283   4.227   4.209
81447W        W45204   7.232  25.595   0.739
81448W        W45205  26.057  21.690  14.854
81449W        W45206  11.175  38.008   0.386
81450W        W45207  34.882  13.259  12.980
81451W        W45208  28.163  27.153   3.679
81452W        W45209  18.697  15.188   3.859
81453W        W45210  27.125  43.418  13.336
81454W        W45211  30.059  41.818  11.456
81455W        W45212  40.499   6.700   4.221
81456W        W45213  19.185   9.710   3.718
81457W        W45214  40.467  36.079  10.441
81458W        W45215   1.967  16.126   0.947
81459W        W45216  22.511  25.484  13.426
81460W        W45217  27.146  43.952  11.390
81461W        W45218   6.200  20.620  13.369
81462W        W45219  42.905  25.516  11.883
81463W        W45220  37.028  11.861   0.802
81464W        W45221  39.492  35.013  14.959
81465W        W45222  11.303  22.158  13.450
81466W        W45223   4.221  10.709   2.718
81467W        W45224  40.368  39.017  14.349
81468W        W45225  39.326  35.024  14.461
81469W        W45226  30.940   2.810   4.312
81470W        W45227  38.507  34.600  12.075
81471W        W45228  29.173  13.631   2.758
81472W        W45229  30.553  33.494   2.895
81473W        W45230  25.484  36.061  13.496
81474W        W45231  22.695  36.859   2.664
81475W        W45232  27.998  13.747  11.488
81476W        W45233  27.941   5.430  14.390
81477W        W45234   7.411   3.220   3.359
81478W        W45235   3.267   3.230  14.976
81479W        W45236  25.584  44.313   0.272
81480W        W45237  40.926   0.340  11.450
81481W        W45238   2.949  33.988  13.474
81482W        W45239   0.842  38.918  14.442
81483W        W45240  33.419  31.105  13.445
81484W        W45241  35.497  16.640  10.989
81485W        W45242  36.508  30.471   4.829
81486W        W45243  23.494  10.636   1.760
81487W        W45244  33.442  27.969  14.961
81488W        W45245  25.707  36.472  11.909
81489W        W45246  30.987   1.960   1.835
81490W        W45247  41.885  10.249  12.391
81491W        W45248  17.184   5.744   2.760
81492W        W45249  29.426   3.306  11.436
81493W        W45250  26.590  21.526   3.232
81494W        W45251  19.173  21.094   2.807
81495W        W45252  14.299  13.846   3.289
81496W        W45253  38.885  33.036  12.412
81497W        W45254  26.097  24.535  10.036
81498W        W45255  28.475   1.292  12.899
81499W        W45256  28.074   5.249  10.145
81500W        W45257  12.679  11.134   3.848
81501W        W45258  38.341  23.204   0.279
81502W        W45259  28.944  36.384  11.413
81503W        W45260  13.195  11.622   4.311
81504W        W45261  29.939  11.788  10.634
81505W        W45262  29.122  43.882   0.749
81506W        W45263   8.196  15.125  13.802
81507W        W45264  13.769  34.992  11.938
81508W        W45265  43.932   8.385  12.040
81509W        W45266  41.363  29.466  14.911
81510W        W45267  40.343  21.188  12.505
81511W        W45268  29.458   3.800   0.846
81512W        W45269  34.582  11.680  11.472
81513W        W45270  40.404  31.994  11.411
81514W        W45271  20.723  43.792   2.359
81515W        W45272  27.470  36.425   4.726
81516W        W45273  28.002  43.319  14.291
81517W        W45274  21.211  31.961   0.436
81518W        W45275  25.045  43.460  11.974
81519W        W45276   7.822  33.439  10.980
81520W        W45277  11.207  18.237  12.892
81521W        W45278   3.232  15.785   2.328
81522W        W45279  23.212  31.926   0.425
81523W        W45280  12.250   6.841   1.276
81524W        W45281  25.111  28.504   2.253
81525W        W45282   9.811  21.029   3.664
81526W        W45283   5.310  30.559  13.837
81527W        W45284  41.362  38.535   0.394
81528W        W45285   1.823   8.247   4.226
81529W        W45286  12.705  40.970  13.412
81530W        W45287  40.514  13.107  12.848
81531W        W45288   7.785  17.781  14.458
81532W        W45289  14.738  36.032   4.331
81533W        W45290  30.056  44.385   4.702
81534W        W45291  17.578  11.794   5.291
81535W        W45292  32.511   9.889  11.389
81536W        W45293  30.643   2.850   4.167
81537W        W45294  10.873  38.494   4.281
81538W        W45295  12.132   1.455  10.522
81539W        W45296   3.417  42.387  12.945
81540W        W45297  15.748   0.382   1.213
81541W        W45298  26.493  22.149   0.862
81542W        W45299  19.190  35.375   3.794
81543W        W45300  41.011   6.792   2.768
81544W        W45301   9.227  27.985   0.757
81545W        W45302  26.166  10.142   4.343
81546W        W45303  29.158   8.215  12.455
81547W        W45304  14.812   4.823   1.354
81548W        W45305   0.924  33.104  14.376
81549W        W45306  31.036  40.348  14.340
81550W        W45307  43.414  17.214   3.375
81551W        W45308   0.483  24.085  11.890
81552W        W45309  19.534   0.950  11.881
81553W        W45310   9.780  22.667   0.272
81554W        W45311   0.468  34.974   4.791
81555W        W45312  16.196  43.487   4.726
81556W        W45313  28.054  13.147  14.515
81557W        W45314   8.342  35.941   0.734
81558W        W45315  16.569  35.601  13.450
81559W        W45316   6.298  43.971   0.412
81560W        W45317  33.552  32.962  12.571
81561W        W45318  13.123  16.741  11.990
81562W        W45319  44.009  15.616   1.210
81563W        W45320  18.102  16.577  13.502
81564W        W45321   0.428   2.802  12.028
81565W        W45322  40.926   8.900   0.291
81566W        W45323  18.256  42.895   0.245
81567W        W45324   6.815  31.936  14.832
81568W        W45325   6.833  18.729   3.329
81569W        W45326  42.859   2.232   1.406
81570W        W45327  38.048   5.826  10.104
81571W        W45328  36.413  13.665  10.945
81572W        W45329  25.516  20.681  12.835
81573W        W45330  34.979  10.171   3.208
81574W        W45331  42.841  21.726  14.947
81575W        W45332  23.993  31.524  11.384
81576W        W45333  23.528   6.241  14.348
81577W        W45334   3.375   7.209  13.329
81578W        W45335  14.829  31.110  11.106
81579W        W45336   3.432  31.069  11.082
81580W        W45337  15.103   3.866  10.438
81581W        W45338  39.970   1.855   3.809
81582W        W45339  35.561  39.446  14.006
81583W        W45340   8.349  10.274   2.225
81584W        W45341   1.837   6.368   1.776
81585W        W45342  19.268  13.637  14.878
81586W        W45343  40.456  11.338   2.244
81587W        W45344  19.671  21.728   1.354
81588W        W45345   6.733  17.753   9.975
81589W        W45346  35.888  38.031   0.446
81590W        W45347  38.481  21.130   3.171
81591W        W45348  34.516  17.583  11.460
81592W        W45349  22.202   0.839   0.893
81593W        W45350  40.915   0.430  14.974
81594W        W45351  37.985  25.651   3.226
81595W        W45352  43.876  44.272   1.695
81596W        W45353  37.401   8.168   0.386
81597W        W45354  41.884  22.210  11.489
81598W        W45355  33.032  12.171   1.380
81599W        W45356  30.032  29.035   3.226
81600W        W45357  41.847   7.819  12.925
81601W        W45358  38.824   2.736   1.252
81602W        W45359  44.284  24.194  13.986
81603W        W45360  36.589  28.967  11.558
81604W        W45361   8.301  26.102   2.789
81605W        W45362   5.352  40.387  11.477
81606W        W45363  13.613  37.579   3.185
81607W        W45364  23.072   5.411  12.865
81608W        W45365  43.304   4.899  12.403
81609W        W45366  25.552  19.541  13.450
81610W        W45367  31.412  20.700   1.410
81611W        W45368  30.636   0.300   2.822
81612W        W45369  20.712  13.640  13.538
81613W        W45370  20.682  16.589   1.886
81614W        W45371   9.210   8.230  11.025
81615W        W45372  38.529  40.303  10.568
81616W        W45373  18.068  14.098   3.156
81617W        W45374  17.109  10.718   0.865
81618W        W45375  22.229  17.612   1.739
81619W        W45376  16.667  23.100   3.281
81620W        W45377  33.128  38.871  12.570
81621W        W45378   5.818   8.686  14.788
81622W        W45379  16.591  10.780  11.923
81623W        W45380   3.310   2.864   0.788
81624W        W45381   7.279  42.960  11.606
81625W        W45382  20.208  38.061  13.546
81626W        W45383  11.640  13.685  10.566
81627W        W45384  17.164  42.869   2.319
81628W        W45385  25.084  11.725  12.457
81629W        W45386  27.576  26.628  14.484
81630W        W45387   5.268  35.879  14.288
81631W        W45388  12.316  17.751   0.382
81632W        W45389  29.490   3.890  12.036
81633W        W45390   4.305  33.035  12.504
81634W        W45391  27.970  23.586  12.952
81635W        W45392  32.578  44.388   0.781
81636W        W45393  39.053   8.347  12.347
81637W        W45394  40.845  33.036  12.950
81638W        W45395  44.378  43.896  11.011
81639W        W45396  41.517  11.813   4.317
81640W        W45397  40.991  34.871  14.857
81641W        W45398   8.806  34.040   1.305
81642W        W45399  16.754  31.057  11.956
81643W        W45400  28.070  40.425  12.540
81644W        W45401  18.781  32.623  12.982
81645W        W45402  33.131  13.766  11.567
81646W        W45403  32.073   1.896   1.741
81647W        W45404  21.513  21.109  12.032
81648W        W45405  42.891   0.818   1.218
81649W        W45406  26.621  23.607  11.873
81650W        W45407  37.354  39.990  14.397
81651W        W45408  17.781  26.051   1.857
81652W        W45409  42.418  10.335  13.983
81653W        W45410  24.493   9.244  11.062
81654W        W45411  39.501  23.526   4.721
81655W        W45412  13.205  23.704  10.928
81656W        W45413  13.191  31.607  10.422
81657W        W45414  27.146   8.866  11.996
81658W        W45415   9.184   0.389  11.865
81659W        W45416  15.795   7.778  11.417
81660W        W45417  41.385  20.655  14.847
81661W        W45418  42.389  25.067   2.776
81662W        W45419  33.092  42.973   4.740
81663W        W45420  10.240  35.358  14.278
81664W        W45421  29.123  39.991   2.823
81665W        W45422  16.612  29.143  11.979
81666W        W45423   1.332  38.393   3.250
81667W        W45424  44.451  39.053   4.214
81668W        W45425  15.276  30.573  14.004
81669W        W45426  29.171  31.077  13.426
81670W        W45427   6.893   5.801  14.938
81671W        W45428  22.081   9.165   1.835
81672W        W45429  36.062  39.949  14.978
81673W        W45430  38.497   5.352  14.300
81674W        W45431  33.021   3.390  10.103
81675W        W45432  16.197  19.627  11.515
81676W        W45433   9.785  16.610   3.304
81677W        W45434  39.427  23.682  12.921
81678W        W45435  34.402  23.215   0.822
81679W        W45436  21.617  16.679   4.283
81680W        W45437   5.269  36.962   1.872
81681W        W45438  36.512  40.871  12.013
81682W        W45439   4.720   8.666  14.418
81683W        W45440  17.116   4.809   4.784
81684W        W45441  42.890  19.191  10.611
81685W        W45442  20.549   5.384   3.854
81686W        W45443  28.509   1.365   2.684
81687W        W45444  39.976  18.148   0.805
81688W        W45445  32.434   5.428  12.870
81689W        W45446  14.143   6.871  12.373
81690W        W45447  19.574  21.137   0.785
81691W        W45448   8.265  29.159   0.281
81692W        W45449  16.803  28.987   2.743
81693W        W45450  10.699  38.830  11.022
81694W        W45451  15.690  14.654   4.253
81695W        W45452   9.716  30.954  14.499
81696W        W45453  11.639  44.753  12.359
81697W        W45454  15.280  40.934   1.294
81698W        W45455   4.774  18.633   4.123
81699W        W45456  24.151  26.638   2.782
81700W        W45457  17.800  26.697   1.248
81701W        W45458  28.502  16.723  11.127
81702W        W45459  38.338  22.586  13.817
81703W        W45460  23.529  16.619   1.787
81704W        W45461  10.822   6.785  11.496
81705W        W45462   7.307   1.321   1.744
81706W        W45463  13.614  32.502   4.346
81707W        W45464  14.805  40.915   2.848
81708W        W45465   6.833  43.469  10.044
81709W        W45466   0.793  15.229  12.894
81710W        W45467  34.603  40.902  14.277
81711W        W45468  11.230   5.373   2.238
81712W        W45469  41.475   5.367   0.952
81713W        W45470  40.978   7.865   1.389
81714W        W45471  44.926   5.364   1.354
81715W        W45472  12.125  37.960   4.119
81716W        W45473  28.651  11.680   3.771
81717W        W45474  15.182   8.732  11.998
81718W        W45475  13.188  37.886   0.415
81719W        W45476   1.876  15.818  14.455
81720W        W45477  36.082  11.326  12.971
81721W        W45478  15.603  16.274   1.307
81722W        W45479  24.617  21.660   5.303
81723W        W45480  19.617   1.258   1.217
81724W        W45481  35.461  15.235   0.886
81725W        W45482  36.930   5.773   1.872
81726W        W45483   6.678  25.125   0.799
81727W        W45484   8.239  30.469   3.783
81728W        W45485  40.907  43.766   3.214
81729W        W45486  16.173  20.641   1.443
81730W        W45487  35.084  21.063   3.865
81731W        W45488  40.401  24.523  13.899
81732W        W45489  24.699  40.831   0.904
81733W        W45490   5.853  16.800   4.620
81734W        W45491  19.195  23.606  12.890
81735W        W45492  17.302  18.085   4.633
81736W        W45493  40.535  22.634  11.862
81737W        W45494  32.923  23.148   2.297
81738W        W45495   8.356  15.144  12.539
81739W        W45496  27.070   4.448   0.897
81740W        W45497  37.483  14.821  14.014
81741W        W45498  10.690  11.708   1.409
81742W        W45499  10.233  15.128  12.400
81743W        W45500  17.758  27.003   0.403
81744W        W45501   4.849  34.932  12.090
81745W        W45502   7.273   5.428   4.704
81746W        W45503  42.784  31.436  13.473
81747W        W45504  29.427  36.466  12.931
81748W        W45505  28.081  21.245   2.878
81749W        W45506  25.181  26.978  13.495
81750W        W45507  11.622  11.225  13.343
81751W        W45508   0.823  13.793  13.475
81752W        W45509   4.938  14.627  12.929
81753W        W45510  12.215  38.545   4.820
81754W        W45511  25.472  16.295  14.867
81755W        W45512  39.900  43.884   2.883
81756W        W45513   4.765   8.672   4.838
81757W        W45514  42.345   8.162   3.350
81758W        W45515  30.447  25.093   3.697
81759W        W45516  37.359  38.997   0.429
81760W        W45517  11.247  34.613   0.796
81761W        W45518  35.392  44.790  12.441
81762W        W45519  31.633  31.033  10.558
81763W        W45520   8.392  32.039   4.167
81764W        W45521  43.978   8.300  10.561
81765W        W45522  20.166  26.206  12.953
81766W        W45523  35.031  12.837   2.376
81767W        W45524  25.688  30.036  11.013
81768W        W45525  11.697  29.438  10.899
81769W        W45526  36.055   1.387  11.097
81770W        W45527  36.841  40.435   2.261
81771W        W45528  23.645  15.791   3.692
81772W        W45529  24.995   8.223   3.660
81773W        W45530  44.838  34.484   0.456
81774W        W45531  19.040  43.774  11.371
81775W        W45532  42.944  27.003   1.702
81776W        W45533   2.252  38.481  13.956
81777W        W45534  20.130  18.190   9.993
81778W        W45535  21.651  39.890   0.316
81779W        W45536  28.489  24.593   4.270
81780W        W45537  41.328  28.007   1.740
81781W        W45538  24.223  11.163   4.287
81782W        W45539  28.578  29.152   4.177
81783W        W45540  12.251   7.675   0.864
81784W        W45541  15.119  13.627   5.277
81785W        W45542  13.745  40.856  10.570
81786W        W45543  21.597  15.253  11.499
81787W        W45544   1.891   0.752   4.290
81788W        W45545  23.512  20.653   2.189
81789W        W45546  15.222  38.351   0.470
81790W        W45547  44.322  11.229   4.245
81791W        W45548  18.133  24.218   2.834
81792W        W45549   2.814  15.190   0.290
81793W        W45550   3.919  19.053   2.776
81794W        W45551  13.634  26.531   0.465
81795W        W45552   0.321  38.052   1.770
81796W        W45553  35.488   7.725  10.547
81797W        W45554   1.737  33.499   4.627
81798W        W45555  16.662  20.568  14.306
81799W        W45556  11.861  42.430  11.416
81800W        W45557  31.056   1.860  10.043
81801W        W45558  13.220   3.743   1.434
81802W        W45559  18.668  25.966   0.287
81803W        W45560  11.673   1.968   0.344
81804W        W45561  24.495  17.733   2.272
81805W        W45562  41.018  17.088   1.319
81806W        W45563   7.708   9.735  12.863
81807W        W45564  37.339  35.481   3.840
81808W        W45565  41.394  21.720  13.467
81809W        W45566   0.839   9.737  14.986
81810W        W45567  25.529   2.401  14.476
81811W        W45568  18.748   4.841   0.831
81812W        W45569  37.932  37.976  14.473
81813W        W45570   1.406  32.006  13.059
81814W        W45571  28.985  30.575   2.669
81815W        W45572  11.272   1.859   4.121
81816W        W45573  22.253  15.760  10.988
81817W        W45574  31.514  29.638   1.920
81818W        W45575  35.061  29.088   5.311
81819W        W45576   0.927  15.191   0.826
81820W        W45577  13.623  24.104  13.857
81821W        W45578  39.849  26.520  13.332
81822W        W45579  17.251  30.525   4.245
81823W        W45580  23.598  39.540   3.347
81824W        W45581  23.527  25.112  12.498
81825W        W45582  22.534  31.638   2.260
81826W        W45583  10.199   3.265  11.909
81827W        W45584  36.445  26.519  10.904
81828W        W45585   4.329  39.511  12.924
81829W        W45586  18.618  36.028  13.490
81830W        W45587  28.614  38.882   3.785
81831W        W45588  28.061  26.975  12.555
81832W        W45589  22.560  44.801   2.865
81833W        W45590  24.667  36.550   4.201
81834W        W45591  35.052  24.524  14.930
81835W        W45592   9.343  35.873  11.613
81836W        W45593  26.032  39.445   3.315
81837W        W45594  24.677  44.932  12.073
81838W        W45595  19.691  13.822  12.922
81839W        W45596   6.786  25.646   3.243
81840W        W45597   1.336  39.959   0.436
81841W        W45598  34.590  18.688   2.239
81842W        W45599  38.931  42.933  12.570
81843W        W45600  29.468  14.651  14.378
81844W        W45601   6.294  24.658  13.548
81845W        W45602  29.647  39.024   4.193
81846W        W45603  36.949  16.285  12.373
81847W        W45604  20.608  40.907  11.957
81848W        W45605   9.367  12.200   3.735
81849W        W45606   3.712  11.724   1.848
81850W        W45607  39.553  26.993  11.067
81851W        W45608  36.395  23.640   4.192
81852W        W45609  40.940  41.856   4.694
81853W        W45610  34.107   4.913  10.521
81854W        W45611  16.606   1.934   0.252
81855W        W45612  12.702  29.620  11.466
81856W        W45613  29.572  21.185  11.601
81857W        W45614   9.699   2.228   2.708
81858W        W45615  25.543   1.324   3.678
81859W        W45616   0.920  30.937   4.686
81860W        W45617  16.749   9.323  12.919
81861W        W45618  33.882  28.493  11.372
81862W        W45619  39.516   8.199   4.256
81863W        W45620  31.441  44.401  13.958
81864W        W45621  30.995   0.289  12.084
81865W        W45622  16.306  19.266   4.623
81866W        W45623  35.993  24.661  12.539
81867W        W45624   0.272   8.748  10.519
81868W        W45625  41.294  11.256   1.216
81869W        W45626   4.343  42.851   3.703
81870W        W45627   4.390  43.276   2.768
81871W        W45628  10.367  44.902   2.849
81872W        W45629  21.170   4.414   2.317
81873W        W45630  22.128   2.908   3.336
81874W        W45631   6.240   4.207   0.784
81875W        W45632  36.978  11.742  13.450
81876W        W45633  37.852  23.151   0.359
81877W        W45634   4.343  19.583  13.858
81878W        W45635  28.581  24.581  10.629
81879W        W45636   0.880  16.723  11.376
81880W        W45637  26.987  15.697   1.313
81881W        W45638  29.563   5.872  14.861
81882W        W45639  12.250  11.317  14.984
81883W        W45640  24.027  13.233   1.708
81884W        W45641   8.668  34.896   4.138
81885W        W45642   8.708  26.116   3.187
81886W        W45643  12.629  29.972  14.031
81887W        W45644  13.624  24.208  13.401
81888W        W45645  42.506   7.279  13.816
81889W        W45646  29.164  13.719  11.927
81890W        W45647  19.608  34.375  10.938
81891W        W45648   6.308  26.960  11.510
81892W        W45649  11.844  42.442   4.271
81893W        W45650   1.887  36.544  14.847
81894W        W45651  41.849  14.689   2.368
81895W        W45652  12.746  12.648   2.251
81896W        W45653  29.461   3.282   1.781
81897W        W45654  14.244  26.999  10.918
81898W        W45655   3.781  10.336  14.834
81899W        W45656  40.866  43.801  12.429
81900W        W45657  25.102  35.559  13.490
81901W        W45658  19.162  22.611  11.073
81902W        W45659  31.097  25.502  13.335
81903W        W45660  17.127  22.575  11.038
81904W        W45661  17.693  20.238  14.447
81905W        W45662   2.428   9.229   0.833
81906W        W45663  36.526  26.206   2.249
81907W        W45664   2.774  32.089   2.192
81908W        W45665  25.616  28.562  12.887
81909W        W45666  39.893  27.624   1.386
81910W        W45667  42.331   4.749   1.899
81911W        W45668  15.728  12.755   4.627
81912W        W45669  29.152  44.868  11.526
81913W        W45670  40.044   8.898  13.330
81914W        W45671  17.105   6.415  13.965
81915W        W45672  36.355   0.908  13.943
81916W        W45673  44.810  30.481   1.927
81917W        W45674   8.312  15.657  12.078
81918W        W45675  24.001  11.793   0.820
81919W        W45676  20.199  16.654   4.291
81920W        W45677  29.034  22.553  12.341
81921W        W45678  35.457  16.757  13.328
81922W        W45679   0.912   6.344   1.288
81923W        W45680  43.970  41.381   0.276
81924W        W45681  17.297  29.493  14.973
81925W        W45682  39.554   5.323   5.663
81926W        W45683  28.999  42.302  10.967
81927W        W45684  33.580  25.209  10.014
81928W        W45685   4.884  10.213  14.942
81929W        W45686  23.219  20.091  13.891
81930W        W45687  18.165  24.002   1.862
81931W        W45688   2.277   8.287   2.178
81932W        W45689  38.072  27.954  11.515
81933W        W45690  12.192  40.991   3.707
81934W        W45691  32.583  42.009   0.947
81935W        W45692  27.049  17.698   1.301
81936W        W45693  30.436   3.736   4.341
81937W        W45694   8.196  33.423   3.227
81938W        W45695  13.146  12.762   2.748
81939W        W45696  26.641  30.417  13.828
81940W        W45697  15.260   5.860   4.714
81941W        W45698  10.233   7.289   9.973
81942W        W45699  35.892  24.991  13.330
81943W        W45700   0.446  30.551   2.371
81944W        W45701  35.018  42.924   0.268
81945W        W45702  18.239  35.918   0.449
81946W        W45703  43.314  43.001   4.825
81947W        W45704  43.482   1.888   2.686
81948W        W45705  26.085  12.237  14.487
81949W        W45706  13.666  25.548  14.808
81950W        W45707   0.769  29.023  12.373
81951W        W45708   6.743  22.167   2.682
81952W        W45709   6.791  20.160   3.228
81953W        W45710  23.586  30.553   4.129
81954W        W45711  30.982  34.551   0.463
81955W        W45712  28.158   8.166  11.102
81956W        W45713   8.895  41.523   4.282
81957W        W45714   7.873  39.438  11.061
81958W        W45715  26.676  17.295   0.344
81959W        W45716  18.191  26.204  12.555
81960W        W45717  30.962  32.471  13.501
81961W        W45718  28.536   0.360   4.175
81962W        W45719  29.067   7.736  12.519
81963W        W45720  36.583  20.738  13.856
81964W        W45721   9.695   6.237  10.975
81965W        W45722  39.945  22.671  12.483
81966W        W45723   8.728  31.061  12.853
81967W        W45724   7.349  31.531  11.379
81968W        W45725   1.924   3.245  10.409
81969W        W45726  10.877  15.638  12.825
81970W        W45727  18.061  40.446   3.325
81971W        W45728  41.853   8.781  12.093
81972W        W45729  42.947  23.647   0.769
81973W        W45730  24.706   3.347   4.277
81974W        W45731   8.365   7.215   2.189
81975W        W45732  15.705   8.713  10.044
81976W        W45733  26.521  11.283   3.835
81977W        W45734  31.634  15.675   1.346
81978W        W45735   8.327   5.883  11.907
81979W        W45736   0.792  20.046   2.754
81980W        W45737  16.290  19.715  12.855
81981W        W45738   3.404   5.789  14.416
81982W        W45739  23.599  35.865   1.862
81983W        W45740  33.922  29.961   2.785
81984W        W45741  35.105  26.957   4.822
81985W        W45742  20.164  33.465   0.284
81986W        W45743  40.511  35.934   1.914
81987W        W45744  11.697   3.748   0.406
81988W        W45745  28.154  21.694   1.764
81989W        W45746   9.190   3.943   4.743
81990W        W45747  42.483  15.323  10.415
81991W        W45748  10.872  16.124  12.496
81992W        W45749  43.808  30.533   1.726
81993W        W45750   5.830   3.858  13.376
81994W        W45751  36.870  33.545  10.498
81995W        W45752  36.921   9.267   2.229
81996W        W45753  11.138  34.986  14.327
81997W        W45754  14.750  14.177   1.217
81998W        W45755   5.242  23.191   3.703
81999W        W45756  30.640   9.345  11.930
82000W        W45757  28.579  26.996  11.469
82001W        W45758   1.775  18.597   1.319
82002W        W45759  27.563  25.575  13.435
82003W        W45760  36.043  17.784   2.870
82004W        W45761  40.535   1.445  12.968
82005W        W45762  38.921  42.502   2.236
82006W        W45763  41.019  36.544   2.701
82007W        W45764  41.983  39.866   1.713
82008W        W45765   4.218  14.719   0.252
82009W        W45766  44.380  43.836   3.704
82010W        W45767  20.613  31.048  10.563
82011W        W45768  43.840  24.725  11.088
82012W        W45769  16.301  34.087  13.048
82013W        W45770   5.862  12.295   3.173
82014W        W45771   1.265  10.710  14.790
82015W        W45772  43.448  35.102  13.314
82016W        W45773  18.662  43.813   3.156
82017W        W45774  17.793  13.684  14.439
82018W        W45775  38.909   5.279  11.989
82019W        W45776  41.809  20.589   4.621
82020W        W45777  42.856  44.934   4.742
82021W        W45778  16.179  40.354   0.326
82022W        W45779  11.708  15.272  12.360
82023W        W45780  32.069  17.678   4.639
82024W        W45781  40.357  27.135  14.969
82025W        W45782  32.400  31.092   1.210
82026W        W45783  32.598  43.773   3.229
82027W        W45784  33.038  11.696  14.871
82028W        W45785   6.899   2.273  12.969
82029W        W45786  20.179  29.078   2.283
82030W        W45787  38.017  38.369   1.901
82031W        W45788  21.085  32.946  12.534
82032W        W45789  24.580   3.726   2.321
82033W        W45790  40.854  41.525   2.193
82034W        W45791  40.991   7.184  12.894
82035W        W45792  14.676   2.861   5.642
82036W        W45793  11.131  30.133  10.960
82037W        W45794   2.828  13.187   3.866
82038W        W45795  18.779   6.683   1.326
82039W        W45796  24.537  31.530  14.949
82040W        W45797   6.851  24.989  11.985
82041W        W45798  44.983  27.115   0.473
82042W        W45799  43.307  31.956   0.910
82043W        W45800  23.727  43.382   3.208
82044W        W45801  32.119  26.565  10.452
82045W        W45802  35.914   6.355  11.513
82046W        W45803   6.397  27.509  12.384
82047W        W45804  40.944   2.963  13.427
82048W        W45805  23.230  32.585  12.455
82049W        W45806  19.075  21.261   3.701
82050W        W45807  39.456  21.525  14.843
82051W        W45808  42.446  35.994   2.272
82052W        W45809  16.131  18.127   1.260
82053W        W45810  26.057   3.298   0.318
82054W        W45811  38.361  33.072   1.259
82055W        W45812   8.840  36.044   2.322
82056W        W45813  15.632  19.566   4.211
82057W        W45814   0.294  22.696   1.391
82058W        W45815  36.997   0.490   2.862
82059W        W45816   9.340  41.445   0.326
82060W        W45817  15.781  41.022   2.733
82061W        W45818  39.382  44.373  12.092
82062W        W45819  23.705   2.412   4.637
82063W        W45820  30.466  12.672  14.879
82064W        W45821  27.555  31.899  11.941
82065W        W45822  36.410  23.101   0.925
82066W        W45823   0.929   3.429   3.373
82067W        W45824  37.396   4.301   0.431
82068W        W45825  44.890  39.971  14.016
82069W        W45826  23.545   1.288   4.265
82070W        W45827   1.843  17.596  12.042
82071W        W45828  20.188   9.740  12.074
82072W        W45829  33.379  26.067   3.262
82073W        W45830  17.579  32.096   0.876
82074W        W45831  40.325   1.952   1.418
82075W        W45832  28.540  38.450  11.977
82076W        W45833  23.239  44.842   1.338
82077W        W45834  19.278   2.885  11.876
82078W        W45835  33.519  39.052   5.081
82079W        W45836  38.328  44.316   1.914
82080W        W45837  25.216   8.398   0.834
82081W        W45838  22.677  22.684  12.908
82082W        W45839  37.013  28.464  14.444
82083W        W45840  33.922   1.765   2.273
82084W        W45841  23.062  20.223   4.126
82085W        W45842  13.760   4.335   4.209
82086W        W45843  13.799  24.531  11.610
82087W        W45844  37.469  41.416  12.083
82088W        W45845  37.849  20.648  12.534
82089W        W45846  33.088   9.233   3.818
82090W        W45847  36.381   3.739  14.868
82091W        W45848  36.359  37.890   3.732
82092W        W45849  27.494  34.595   1.795
82093W        W45850  15.610  37.488   2.274
82094W        W45851  26.133  31.904   0.869
82095W        W45852  35.097   8.745   4.134
82096W        W45853  22.525  30.480  11.860
82097W        W45854   8.207  14.270   0.956
82098W        W45855  30.422  40.891  13.866
82099W        W45856  34.582  24.151  10.463
82100W        W45857   7.689  42.964   0.405
82101W        W45858  42.314   3.303   0.349
82102W        W45859  41.429  11.227   4.312
82103W        W45860  37.076  30.444   2.675
82104W        W45861  18.724  11.745  13.011
82105W        W45862  15.651  42.379   2.251
82106W        W45863  30.044  11.729   1.439
82107W        W45864   8.717  15.659   4.827
82108W        W45865  44.425  26.632  11.442
82109W        W45866  24.518  18.076  10.549
82110W        W45867  27.601  23.719   4.154
82111W        W45868  24.205  36.470  12.886
82112W        W45869  18.635  13.837  12.852
82113W        W45870   5.204  35.995   4.636
82114W        W45871  40.371  36.883   3.678
82115W        W45872  29.608  31.031  14.403
82116W        W45873  43.810  27.635   0.928
82117W        W45874  18.142  27.641   1.428
82118W        W45875  14.775  25.004   4.816
82119W        W45876  34.433  11.847  11.970
82120W        W45877  24.228  40.941  11.006
82121W        W45878  25.120  15.773  12.561
82122W        W45879  24.044  35.431  13.518
82123W        W45880  33.950  11.694  11.091
82124W        W45881   7.775  27.001  13.501
82125W        W45882  20.166  26.162  14.497
82126W        W45883  31.455  40.312   0.822
82127W        W45884  40.498  23.698   4.631
82128W        W45885   6.707   5.718  11.510
82129W        W45886  13.342  21.115   0.282
82130W        W45887  12.178  33.875   1.838
82131W        W45888  37.998  28.609   1.357
82132W        W45889  40.969  30.537   3.737
82133W        W45890  21.043   2.419  11.917
82134W        W45891  36.856  44.986  10.637
82135W        W45892  33.565  38.473   4.629
82136W        W45893   7.826  22.561   2.773
82137W        W45894   3.320  40.842   4.628
82138W        W45895  35.495  24.720   0.329
82139W        W45896  20.220  25.034  11.424
82140W        W45897  35.963  31.481   4.650
82141W        W45898  11.326  33.040   2.188
82142W        W45899   7.314  29.042  12.491
82143W        W45900  32.557   9.215   2.298
82144W        W45901  30.947  13.269  12.833
82145W        W45902  20.178  18.673  10.595
82146W        W45903  16.155  39.848   2.765
82147W        W45904  13.313  37.479  14.378
82148W        W45905  40.324  34.900  13.986
82149W        W45906  31.136   3.221   2.224
82150W        W45907  13.642  17.299   4.216
82151W        W45908  44.828  16.166  14.864
82152W        W45909  19.754  41.503   2.896
82153W        W45910  37.460  24.489   2.363
82154W        W45911   5.289   5.280   1.796
82155W        W45912  42.380  35.475   2.405
82156W        W45913   7.687  12.730   4.789
82157W        W45914  34.477  27.040   1.757
82158W        W45915   9.688  31.427   1.429
82159W        W45916   1.465  35.921  11.893
82160W        W45917   0.269  21.665  11.092
82161W        W45918  22.137  26.959   4.752
82162W        W45919  22.165   5.812   2.414
82163W        W45920   8.252   5.695   0.416
82164W        W45921   2.358  36.562   2.879
82165W        W45922  41.000  19.269  11.887
82166W        W45923  32.416  39.821   4.225
82167W        W45924  22.130   3.253   4.262
82168W        W45925  14.700  33.062  11.862
82169W        W45926  30.074  21.134  11.987
82170W        W45927  37.010   4.788  11.867
82171W        W45928  11.250  13.125   3.745
82172W        W45929  10.355  16.649  12.843
82173W        W45930  18.088   8.372   4.351
82174W        W45931  43.821   9.159   2.413
82175W        W45932  33.106   3.234  10.645
82176W        W45933  11.740  36.388  13.424
82177W        W45934   9.653  37.530   0.921
82178W        W45935  42.438   4.416   1.807
82179W        W45936   0.461  26.479  14.405
82180W        W45937  14.736  21.212   1.303
82181W        W45938   7.291  14.100   3.713
82182W        W45939  34.001  31.080  12.077
82183W        W45940  35.047  30.135   4.746
82184W        W45941  44.382  32.038   4.664
82185W        W45942  13.609   8.690  12.833
82186W        W45943  22.069  30.129   0.311
82187W        W45944  24.498  33.597   3.213
82188W        W45945  25.080  28.577  11.046
82189W        W45946  32.498  40.537  14.493
82190W        W45947  28.122   5.300  12.087
82191W        W45948   8.262  31.935   5.176
82192W        W45949  24.622  34.487   2.338
82193W        W45950  30.002  19.248   3.823
82194W        W45951  10.258  20.209  13.340
82195W        W45952  41.311  12.129  14.511
82196W        W45953  36.580   7.371   3.709
82197W        W45954  40.337  41.306   4.734
82198W        W45955   3.345  11.769   2.835
82199W        W45956  22.635  16.124   3.162
82200W        W45957  21.655  14.133   2.230
82201W        W45958  15.248  42.789  13.024
82202W        W45959   7.799   1.360  10.574
82203W        W45960  24.598  41.354  14.841
82204W        W45961  37.074  10.262  11.414
82205W        W45962  24.599  18.616  10.547
82206W        W45963  14.128  15.217   1.741
82207W        W45964  26.188  21.636   4.171
82208W        W45965  38.046  32.547  10.619
82209W        W45966   7.755  32.580   3.702
82210W        W45967  39.471  25.130   1.930
82211W        W45968  30.980  15.613  11.886
82212W        W45969  42.781  41.411  14.784
82213W        W45970   0.856  33.014  12.533
82214W        W45971  39.519  30.576  12.448
82215W        W45972  12.848  19.068  12.516
82216W        W45973  12.720  11.141  10.614
82217W        W45974  44.412  15.706  14.492
82218W        W45975   0.978   6.920  11.903
82219W        W45976  31.418  20.262  13.009
82220W        W45977  13.208  25.167   1.922
82221W        W45978  32.401  38.469  12.908
82222W        W45979  35.979  10.192  13.028
82223W        W45980  34.433   5.374   1.846
82224W        W45981  18.632  12.264  12.374
82225W        W45982   4.392   4.330   2.834
82226W        W45983   0.808  23.198  14.511
82227W        W45984   1.329  27.156   2.864
82228W        W45985  31.112   3.828  13.874
82229W        W45986  29.924  16.199   0.347
82230W        W45987  17.282  28.587   1.861
82231W        W45988   7.270  44.833   1.218
82232W        W45989  43.954  10.179   4.785
82233W        W45990  34.458   2.295   3.290
82234W        W45991  36.418  42.311  11.919
82235W        W45992  31.148  37.915  12.875
82236W        W45993  42.386  38.885   4.271
82237W        W45994   2.867   0.941   2.371
82238W        W45995  15.624  18.065   2.370
82239W        W45996  27.447  40.497  14.440
82240W        W45997  40.532   5.358   1.868
82241W        W45998  12.758  39.850  11.897
82242W        W45999  15.718   7.805  10.569
82243W        W46000  39.427  14.310   4.230
82244W        W46001   7.388  42.923   0.890
82245W        W46002  25.011  21.213  13.328
82246W        W46003   8.888   7.790  12.491
82247W        W46004  25.713   5.226   0.759
82248W        W46005  27.081  20.530   4.820
82249W        W46006  39.893  43.861   0.770
82250W        W46007  27.555  12.139   4.645
82251W        W46008  34.593  23.037  13.912
82252W        W46009  32.530  42.033  13.343
82253W        W46010  21.213  30.470   2.833
82254W        W46011   3.883  14.783   1.379
82255W        W46012   4.300  29.144  11.088
82256W        W46013   5.819   3.786   1.846
82257W        W46014  13.158  37.549  13.313
82258W        W46015   1.406  21.727  13.046
82259W        W46016  29.644  38.537   1.236
82260W        W46017   1.244  40.900  12.877
82261W        W46018   5.689  44.893   5.119
82262W        W46019  28.569  36.519   3.260
82263W        W46020   4.711  32.526  10.437
82264W        W46021   4.895   7.369  11.549
82265W        W46022  30.431  34.018  12.896
82266W        W46023  43.854  12.226  13.056
82267W        W46024  22.074  21.587  12.987
82268W        W46025  40.403  39.061   0.255
82269W        W46026  25.118  14.305  14.438
82270W        W46027  16.609  16.682  11.938
82271W        W46028   5.399  34.957   2.765
82272W        W46029  14.233  16.273  11.476
82273W        W46030  18.220  32.070  14.474
82274W        W46031  18.585  29.099  12.347
82275W        W46032  13.316  35.580   3.778
82276W        W46033  33.908   6.913   3.860
82277W        W46034   8.817  29.658  13.037
82278W        W46035  14.590  43.926   1.374
82279W        W46036  29.471   6.354   2.744
82280W        W46037  11.805  18.193  13.310
82281W        W46038  28.476  38.014   4.205
82282W        W46039  39.416   7.218   1.878
82283W        W46040  32.130  44.417  13.052
82284W        W46041  43.343  33.957   2.740
82285W        W46042   4.222   2.757  10.913
82286W        W46043  20.171  33.129   2.348
82287W        W46044   4.390  40.386  11.021
82288W        W46045  33.578   9.243   2.222
82289W        W46046  30.486  20.747   1.329
82290W        W46047   7.838  19.072  14.466
82291W        W46048  32.483  20.652   1.302
82292W        W46049  36.026  36.905  13.524
82293W        W46050  19.726   1.401  14.906
82294W        W46051   1.751  13.632  11.021
82295W        W46052  11.131  43.951  14.827
82296W        W46053  24.578  41.894  13.946
82297W        W46054  30.936  14.142   1.374
82298W        W46055  33.982  21.552   3.632
82299W        W46056  37.494  13.309   4.657
82300W        W46057  14.312  41.991  11.026
82301W        W46058  41.789   9.835   0.472
82302W        W46059   6.208  12.245  12.911
82303W        W46060   5.317  11.161  10.949
82304W        W46061  33.499  14.593  13.847
82305W        W46062  35.492  40.037   0.322
82306W        W46063  41.835  20.676   3.719
82307W        W46064  20.209  10.177  13.934
82308W        W46065  12.176   3.228   0.366
82309W        W46066   9.166  22.191   3.795
82310W        W46067  21.126  38.454   3.770
82311W        W46068  28.644  36.494   1.791
82312W        W46069   9.693  15.142  11.926
82313W        W46070   4.294   2.850   1.256
82314W        W46071  38.555  12.250  12.015
82315W        W46072  27.179  26.524  10.476
82316W        W46073   3.820  31.615  14.979
82317W        W46074  24.145  24.133   3.355
82318W        W46075  42.324   3.230  13.888
82319W        W46076  33.108  22.584  11.032
82320W        W46077   0.285   0.744  14.771
82321W        W46078   7.263  19.106  12.571
82322W        W46079  32.030  34.991   3.214
82323W        W46080   3.366  36.539   2.187
82324W        W46081  28.106  16.174   9.494
82325W        W46082  30.536   3.306  14.466
82326W        W46083  20.145  31.408   3.689
82327W        W46084  30.092  35.396  12.054
82328W        W46085  11.735  11.273  11.950
82329W        W46086  15.683   4.211   2.363
82330W        W46087  35.907  25.665   0.743
82331W        W46088  36.460   5.199   4.798
82332W        W46089  18.198   1.480  10.506
82333W        W46090  44.355  28.571  12.578
82334W        W46091  26.500   9.677  13.843
82335W        W46092  30.070   0.922   1.222
82336W        W46093  44.341  18.263  10.585
82337W        W46094  29.148  12.150   4.745
82338W        W46095  19.124  13.155   0.477
82339W        W46096  39.519  40.435  11.572
82340W        W46097   8.679  18.633   4.675
82341W        W46098   3.830  26.039  13.905
82342W        W46099   4.908  31.135  10.964
82343W        W46100  18.710   4.233  11.475
82344W        W46101  39.884  14.720   3.721
82345W        W46102   7.852  20.171  13.519
82346W        W46103  44.348   3.953  13.454
82347W        W46104  18.151  18.260   1.299
82348W        W46105  34.390   0.750  13.022
82349W        W46106   5.294  42.402   1.310
82350W        W46107   0.321  31.570  11.443
82351W        W46108  12.771  10.316  13.352
82352W        W46109  11.212  11.671  13.439
82353W        W46110  24.503  35.520  13.982
82354W        W46111  27.013   3.796  12.488
82355W        W46112  17.243  44.796  14.908
82356W        W46113  40.441  29.659  10.453
82357W        W46114  38.011  40.492   4.731
82358W        W46115  15.269  16.806   0.874
82359W        W46116   4.273  18.550  14.816
82360W        W46117  24.166  32.959   2.749
82361W        W46118  30.584  25.983  14.326
82362W        W46119  12.170  11.690   2.317
82363W        W46120  30.018  14.094   1.436
82364W        W46121   9.849   0.278   2.254
82365W        W46122   8.708  28.479  11.531
82366W        W46123  37.016   5.267   5.176
82367W        W46124   9.356   5.211   4.599
82368W        W46125  26.173  39.891  13.872
82369W        W46126  23.681   5.773  12.983
82370W        W46127  31.592  40.864   2.826
82371W        W46128  19.265  31.015   2.724
82372W        W46129  18.099   7.177   1.848
82373W        W46130  36.883  19.061  11.589
82374W        W46131   6.370  20.048   0.772
82375W        W46132  37.405  35.381   2.191
82376W        W46133  44.784   6.773   0.884
82377W        W46134  25.964  34.383   3.817
82378W        W46135  24.032  14.656   2.211
82379W        W46136  29.064  29.505  12.005
82380W        W46137  14.150  38.497  11.474
82381W        W46138   7.273  20.142  10.911
82382W        W46139  32.046  32.941  12.428
82383W        W46140  40.047  37.846  11.436
82384W        W46141   3.457  12.188  14.846
82385W        W46142  38.862  34.986  12.827
82386W        W46143  26.589  15.284   2.409
82387W        W46144  13.256  27.071   4.770
82388W        W46145  34.025  38.845   2.220
82389W        W46146  38.537  35.529   1.897
82390W        W46147  44.408  31.476  12.858
82391W        W46148  18.598  25.014   1.815
82392W        W46149  26.013  20.763  11.526
82393W        W46150  19.540  29.132  10.604
82394W        W46151  26.041  37.581   1.718
82395W        W46152  26.624  34.117  12.516
82396W        W46153  39.066  39.504  11.856
82397W        W46154  27.556   5.290  11.867
82398W        W46155   7.804   8.173   3.269
82399W        W46156  26.567  42.004   4.328
82400W        W46157   9.393  21.606   0.263
82401W        W46158  38.923  15.688   0.443
82402W        W46159   3.864  28.139   2.196
82403W        W46160  27.086  41.335  12.417
82404W        W46161   9.301  40.950  14.285
82405W        W46162  42.310  21.731  13.971
82406W        W46163  30.615  33.510   0.387
82407W        W46164   9.725  30.499  10.913
82408W        W46165   9.763  32.992  12.948
82409W        W46166  21.703  18.249   0.884
82410W        W46167  17.800  44.899  14.457
82411W        W46168  31.424  42.872  13.412
82412W        W46169  13.792  10.724   0.899
82413W        W46170  44.395  38.887   2.835
82414W        W46171  42.373  36.497   1.451
82415W        W46172  41.913  30.001  10.404
82416W        W46173   8.256  40.875   4.167
82417W        W46174   7.893  27.544  13.395
82418W        W46175  15.219  15.089   5.574
82419W        W46176   8.333  35.381   2.227
82420W        W46177  19.185  10.322   1.819
82421W        W46178   0.749  28.111  11.975
82422W        W46179  14.814   0.769   5.101
82423W        W46180  35.922   2.900   1.303
82424W        W46181  14.596   0.328   3.633
82425W        W46182   9.287  11.353  10.964
82426W        W46183  19.141  34.116  13.995
82427W        W46184  33.516  30.935   3.185
82428W        W46185  14.595  39.353  12.535
82429W        W46186  13.133  11.254   0.968
82430W        W46187  12.759  36.574   0.343
82431W        W46188   7.386  36.506  10.454
82432W        W46189  37.364  33.483   2.316
82433W        W46190  17.304  32.017  11.866
82434W        W46191  22.651   8.340   3.241
82435W        W46192  13.784  32.127  14.975
82436W        W46193  31.634   6.736   0.323
82437W        W46194  18.286   1.941  10.636
82438W        W46195  28.437  39.820  12.509
82439W        W46196  31.486  41.526   0.744
82440W        W46197  41.813  39.381   4.609
82441W        W46198  14.705  20.271  14.912
82442W        W46199   4.207  13.248  11.412
82443W        W46200   3.380   6.840  11.023
82444W        W46201  36.841  14.285  12.429
82445W        W46202  44.350  41.924   4.741
82446W        W46203  20.130  30.917   4.708
82447W        W46204  13.196  12.179   2.380
82448W        W46205  32.450   0.451   1.295
82449W        W46206   3.732  43.398  14.843
82450W        W46207   6.410  19.748   2.400
82451W        W46208  10.836   0.801   4.609
82452W        W46209  26.511  42.012   3.264
82453W        W46210  24.002  28.107  13.033
82454W        W46211  11.831   7.831   1.863
82455W        W46212  16.294   9.292  14.767
82456W        W46213  41.358  15.696   0.914
82457W        W46214   8.861  21.172   4.169
82458W        W46215  32.427  28.674   2.715
82459W        W46216  39.824   9.699  10.549
82460W        W46217   4.438  28.110  14.991
82461W        W46218   9.328  40.412  14.512
82462W        W46219   6.723  10.769   4.278
82463W        W46220   8.667   1.876  13.875
82464W        W46221  29.111  12.646  11.018
82465W        W46222   3.388   9.361  14.009
82466W        W46223  43.284  19.744   0.321
82467W        W46224  43.494  14.779   1.429
82468W        W46225  15.100   9.767  14.502
82469W        W46226  33.000  21.635  12.366
82470W        W46227  24.227   8.325  14.889
82471W        W46228  31.009  39.893   3.177
82472W        W46229  17.250  41.861  13.506
82473W        W46230  37.416   1.787   3.226
82474W        W46231   9.347  11.717   0.471
82475W        W46232  27.114   2.470   0.916
82476W        W46233  18.150  16.698  12.469
82477W        W46234   9.334   9.189   2.416
82478W        W46235  27.034  11.700   0.815
82479W        W46236   9.253  36.986   0.828
82480W        W46237  39.941  21.085  14.493
82481W        W46238  44.319  11.853   2.189
82482W        W46239  26.987  39.835  12.417
82483W        W46240  20.165  11.134  14.996
82484W        W46241  38.950  33.460   0.384
82485W        W46242  39.498  10.174   3.630
82486W        W46243  18.549  17.701  14.026
82487W        W46244   9.326   6.685   2.838
82488W        W46245  37.357  32.419   4.817
82489W        W46246  33.593  19.194   2.330
82490W        W46247  11.250  13.294  11.864
82491W        W46248  30.468   5.745   0.738
82492W        W46249   2.917  42.399   4.723
82493W        W46250  11.317  13.341  13.028
82494W        W46251  25.581  18.123   4.333
82495W        W46252  25.991  10.299   0.963
82496W        W46253  23.136   1.936   0.447
82497W        W46254  25.179  34.049  13.414
82498W        W46255  31.427  36.449   3.758
82499W        W46256   2.235  38.972  11.433
82500W        W46257  30.530   2.802  11.553
82501W        W46258  44.917  42.463  13.312
82502W        W46259  13.151  17.290   1.364
82503W        W46260  43.483  23.131  13.960
82504W        W46261   6.917   6.191   0.367
82505W        W46262  33.921   8.688   2.669
82506W        W46263  17.592   0.280  14.906
82507W        W46264  12.254  18.603  13.913
82508W        W46265  14.779  43.443  10.602
82509W        W46266   0.825  38.824  10.004
82510W        W46267  30.624  11.159  10.914
82511W        W46268   7.396  21.083   0.247
82512W        W46269  20.761  27.495   1.333
82513W        W46270  11.340  16.209   1.391
82514W        W46271   6.779  16.244   0.838
82515W        W46272  37.429   3.813  13.972
82516W        W46273  35.402  36.502   2.328
82517W        W46274  32.919  30.102   4.617
82518W        W46275   7.707   2.824  12.826
82519W        W46276  31.549  13.619  14.869
82520W        W46277  21.035  22.608  14.278
82521W        W46278   8.333  30.086  11.517
82522W        W46279   8.338  43.310  10.530
82523W        W46280  21.632  28.596  12.045
82524W        W46281  18.689   8.762   2.411
82525W        W46282   5.708  44.496  11.894
82526W        W46283   0.433  20.059   1.213
82527W        W46284  20.767  23.622  11.576
82528W        W46285  41.017  24.003  14.296
82529W        W46286  31.041  39.548  13.811
82530W        W46287  39.912  34.955  14.332
82531W        W46288  12.211   9.313  13.487
82532W        W46289  26.180  18.269   4.658
82533W        W46290  16.146   0.871   3.303
82534W        W46291   5.875  11.633   3.261
82535W        W46292  35.454  11.690   1.871
82536W        W46293  15.230  35.912  13.502
82537W        W46294  32.029  28.648   1.831
82538W        W46295  13.729  15.786  10.617
82539W        W46296  10.379  30.128   3.723
82540W        W46297  34.577   2.737   0.384
82541W        W46298  14.647  11.207  12.459
82542W        W46299  33.381   2.943   1.227
82543W        W46300  10.812  10.639  14.010
82544W        W46301   9.197  25.566  11.477
82545W        W46302  16.277  15.215   4.289
82546W        W46303   6.264  30.942   2.377
82547W        W46304  31.463   1.733   0.879
82548W        W46305  14.215   3.420  11.001
82549W        W46306  29.010  22.559   9.962
82550W        W46307   9.194   3.366  12.365
82551W        W46308   2.842  39.371   4.691
82552W        W46309   0.963   0.763   2.717
82553W        W46310  23.524  27.581  13.966
82554W        W46311  18.752  36.559   4.193
82555W        W46312  26.555  43.996   2.869
82556W        W46313   8.237  16.255  10.136
82557W        W46314  11.219  41.487   0.745
82558W        W46315  18.268  41.971  12.048
82559W        W46316   4.747  23.182   1.909
82560W        W46317  34.901  26.004   1.377
82561W        W46318  30.635  31.127   4.348
82562W        W46319  43.986  32.029   4.700
82563W        W46320  42.016  35.488  13.957
82564W        W46321   9.738  24.226   2.385
82565W        W46322  33.474   2.753   4.829
82566W        W46323   0.952  27.195   2.242
82567W        W46324  27.981  35.046  13.400
82568W        W46325  32.615   2.762  14.805
82569W        W46326  11.707  39.921   2.309
82570W        W46327   5.790  42.890  14.010
82571W        W46328   8.191  19.647  13.967
82572W        W46329  19.174  30.634   0.307
82573W        W46330  18.705  14.122   0.242
82574W        W46331  33.057  25.981   0.321
82575W        W46332  30.957  40.864   0.340
82576W        W46333  16.108  31.625  10.460
82577W        W46334  19.768  30.089  12.544
82578W        W46335  13.693  27.083  11.989
82579W        W46336  24.720  28.480   1.360
82580W        W46337  42.017  16.145   0.959
82581W        W46338  32.103  42.938   0.260
82582W        W46339  13.169  39.539   4.612
82583W        W46340  40.531  41.397   9.989
82584W        W46341  16.293   6.853  14.821
82585W        W46342   6.358  21.135  11.562
82586W        W46343   6.306  13.273   3.698
82587W        W46344  32.063  44.473   0.383
82588W        W46345  11.735  35.007  14.962
82589W        W46346   3.266  37.872   3.243
82590W        W46347   2.234  14.309   3.203
82591W        W46348  15.813  15.314   3.310
82592W        W46349  27.507  27.051  11.869
82593W        W46350  12.682   3.335  13.834
82594W        W46351  41.969  34.509  12.355
82595W        W46352   9.174  30.587  10.030
82596W        W46353  17.174  34.028  13.495
82597W        W46354  42.427   5.897  10.643
82598W        W46355  43.876  31.554  13.935
82599W        W46356  31.074   2.816  14.819
82600W        W46357  31.573   4.926   2.214
82601W        W46358  20.229  25.676   1.384
82602W        W46359  36.935  36.467   4.716
82603W        W46360  32.040  13.660   1.798
82604W        W46361  39.974   9.289  12.350
82605W        W46362   9.767  39.978  11.586
82606W        W46363  41.016  40.989  10.541
82607W        W46364  13.233  19.077  14.863
82608W        W46365  37.841  36.347  12.907
82609W        W46366  43.296   4.919  13.043
82610W        W46367   4.866   7.788  10.420
82611W        W46368  23.042   7.821   0.445
82612W        W46369  26.185  35.445   4.206
82613W        W46370   2.320  28.154   2.369
82614W        W46371  21.692  37.457  11.478
82615W        W46372  42.313  37.572  10.602
82616W        W46373  11.844  10.806  14.919
82617W        W46374  29.500  41.345   2.876
82618W        W46375  15.745  26.583   0.393
82619W        W46376   2.947  15.778   1.444
82620W        W46377  26.960  35.499   0.387
82621W        W46378  31.427   4.436  10.042
82622W        W46379   0.441  12.362   1.710
82623W        W46380  40.005  44.320   2.411
82624W        W46381  23.579  22.662  10.891
82625W        W46382  24.521  15.214  12.546
82626W        W46383  39.815  21.585  14.278
82627W        W46384  25.087  39.848  14.853
82628W        W46385  34.937  44.454  13.334
82629W        W46386  37.405   4.873  12.496
82630W        W46387  30.474   6.893   4.334
82631W        W46388  38.354  28.461  13.017
82632W        W46389  44.279  22.568   1.843
82633W        W46390  41.017  24.106  10.911
82634W        W46391  30.107   0.767  13.035
82635W        W46392  28.612  37.885   0.424
82636W        W46393  27.483   4.817   3.243
82637W        W46394  19.694   4.305  11.416
82638W        W46395  24.025  10.297   3.344
82639W        W46396  18.241  32.030   4.740
82640W        W46397   6.190  42.988   5.096
82641W        W46398  38.431  17.154  12.556
82642W        W46399  18.730   4.758  11.405
82643W        W46400   5.761   2.879   1.900
82644W        W46401  18.731   2.357   0.915
82645W        W46402  29.481  41.958   2.397
82646W        W46403  18.574  12.322   3.709
82647W        W46404  35.978  13.170  14.998
82648W        W46405  33.534  40.444  14.514
82649W        W46406  28.017  34.475   0.775
82650W        W46407  43.383  10.649   3.720
82651W        W46408  43.847   8.290  12.895
82652W        W46409   5.333   3.905  12.408
82653W        W46410  27.653  14.340   9.592
82654W        W46411  39.864  18.548  13.834
82655W        W46412   0.959  33.426   9.975
82656W        W46413   8.690  37.430   2.313
82657W        W46414  38.557  36.962  11.401
82658W        W46415  42.473  41.853  14.794
82659W        W46416  21.746  15.796   0.306
82660W        W46417  36.972  13.718   3.821
82661W        W46418  12.282  10.370  13.911
82662W        W46419  34.574  15.280  14.436
82663W        W46420   1.433   1.873   4.285
82664W        W46421   8.328  16.695  12.860
82665W        W46422   6.732  29.660   2.210
82666W        W46423  11.350  33.456  13.002
82667W        W46424  21.676  27.569   4.766
82668W        W46425   2.920  35.882   2.229
82669W        W46426  13.253  20.602   2.662
82670W        W46427  26.539  19.623  11.935
82671W        W46428  29.986  12.265   3.822
82672W        W46429  26.107   3.879   0.455
82673W        W46430  16.294   0.356   2.289
82674W        W46431  35.364  40.434  14.478
82675W        W46432  44.913  20.121   4.715
82676W        W46433   6.358  35.432  13.346
82677W        W46434  33.394  17.745  14.931
82678W        W46435  28.671   1.292  10.459
82679W        W46436  36.899  18.064  14.850
82680W        W46437   6.895  27.951   2.320
82681W        W46438   7.404  24.628   4.229
82682W        W46439  20.658   5.712  13.820
82683W        W46440   5.378  23.567   0.946
82684W        W46441  33.534   7.276   2.315
82685W        W46442  24.637   9.742  13.025
82686W        W46443  38.527  26.559   3.750
82687W        W46444   5.321  10.841   1.444
82688W        W46445  14.817   2.812  11.017
82689W        W46446   8.845  10.258   0.291
82690W        W46447  30.081  19.076   2.219
82691W        W46448   3.920  17.094   0.927
82692W        W46449  32.944  39.473   1.264
82693W        W46450   6.732  41.380   3.164
82694W        W46451  44.800  41.400   0.404
82695W        W46452   5.439  17.578   0.741
82696W        W46453   4.772  17.638  10.443
82697W        W46454  24.559  41.971   3.704
82698W        W46455  26.076   9.393  14.024
82699W        W46456  38.410  10.192  12.951
82700W        W46457   3.387  37.366   0.246
82701W        W46458  40.422  43.868  13.542
82702W        W46459   1.854  21.054  12.946
82703W        W46460  20.034  11.643   4.621
82704W        W46461  12.270  17.256  12.449
82705W        W46462  10.662  41.367   0.269
82706W        W46463  35.507  38.833   4.121
82707W        W46464  30.534   2.350   0.468
82708W        W46465  38.469  25.586   3.296
82709W        W46466   7.840  25.488   3.706
82710W        W46467  43.004  24.689   4.819
82711W        W46468  25.188  25.658   4.633
82712W        W46469  43.951  16.242   3.748
82713W        W46470  44.310  21.718   0.750
82714W        W46471   8.839   1.389   4.778
82715W        W46472  41.944  23.589  14.428
82716W        W46473  29.972  43.458   0.848
82717W        W46474   7.208  34.078   3.763
82718W        W46475  12.840  43.328  13.044
82719W        W46476  27.117  38.062   2.220
82720W        W46477  41.033   9.384  12.451
82721W        W46478   1.358  39.437   0.925
82722W        W46479  24.993  18.604   3.295
82723W        W46480  34.118  22.012  11.016
82724W        W46481  35.101   0.356   4.609
82725W        W46482  39.941  21.598  13.854
82726W        W46483  21.573  44.840   0.860
82727W        W46484   9.671  12.240  11.966
82728W        W46485  44.333  20.247   0.745
82729W        W46486  28.556  28.060  14.992
82730W        W46487   2.734   2.844   4.212
82731W        W46488  23.511  44.942   1.434
82732W        W46489   4.767  14.292  13.984
82733W        W46490  25.210  29.518   5.119
82734W        W46491   5.862  14.787   3.280
82735W        W46492  26.694   4.744  10.905
82736W        W46493   8.312   3.268   5.129
82737W        W46494   8.813  42.493   5.299
82738W        W46495  34.432  37.385  10.992
82739W        W46496  34.559   0.856   0.346
82740W        W46497   7.789   2.749  10.591
82741W        W46498  13.844  40.505   3.324
82742W        W46499  13.657   7.758  10.942
82743W        W46500  41.023  11.818   2.702
82744W        W46501  31.903  34.031  13.947
82745W        W46502  20.627  44.009  10.552
82746W        W46503  21.529  42.001   0.424
82747W        W46504  32.090  39.064   1.256
82748W        W46505  31.462   2.256  11.069
82749W        W46506  21.554  14.628   4.711
82750W        W46507  34.900  29.157   2.900
82751W        W46508  35.491  31.583   1.384
82752W        W46509  39.327   0.489   0.935
82753W        W46510  27.103  13.661  11.549
82754W        W46511  36.954  25.561  10.892
82755W        W46512  19.051  35.563  12.961
82756W        W46513  13.351   4.868   5.124
82757W        W46514  30.508   8.164   0.778
82758W        W46515   8.267   6.752  12.964
82759W        W46516  15.708  27.565  13.821
82760W        W46517  27.613   0.286  11.522
82761W        W46518  42.345   6.352  12.420
82762W        W46519   7.710   4.700   1.257
82763W        W46520  33.124  33.383   1.325
82764W        W46521   4.208   0.871   3.284
82765W        W46522  23.023  23.142   0.477
82766W        W46523  20.220   3.217  14.342
82767W        W46524  23.066  26.179   0.825
82768W        W46525  40.428  32.543  14.929
82769W        W46526  27.055  31.934  13.420
82770W        W46527   4.830  13.691  14.312
82771W        W46528  17.787  18.267  14.008
82772W        W46529  33.917  44.952   1.916
82773W        W46530  14.101  10.873  14.017
82774W        W46531  29.012  36.567  10.630
82775W        W46532  11.321  39.901   1.320
82776W        W46533   8.229  20.543   3.330
82777W        W46534  15.145  25.535   3.172
82778W        W46535  20.637  30.637  12.914
82779W        W46536   2.914  38.838   0.757
82780W        W46537  21.235   9.875   1.252
82781W        W46538  18.716  10.679   0.902
82782W        W46539  22.176  12.854   0.315
82783W        W46540  33.062  36.489  10.919
82784W        W46541  41.523  25.188   3.183
82785W        W46542  24.624  10.321   4.227
82786W        W46543   0.930  14.629  13.979
82787W        W46544   9.730  34.428   1.418
82788W        W46545   6.376  29.117  11.948
82789W        W46546  14.101  27.947  13.926
82790W        W46547  15.761  10.637   2.233
82791W        W46548   0.912  32.483  12.964
82792W        W46549  31.430  38.402  14.432
82793W        W46550  29.547  28.152  10.102
82794W        W46551  13.679  17.152  13.018
82795W        W46552  28.447  18.090   4.131
82796W        W46553  42.321  20.751   0.756
82797W        W46554  31.973  10.850  12.526
82798W        W46555  19.056  41.791  14.307
82799W        W46556  44.357  36.568  13.498
82800W        W46557  38.554   4.726   9.947
82801W        W46558  20.671  40.520   3.192
82802W        W46559  44.485  43.878   1.231
82803W        W46560  15.772  36.498  10.468
82804W        W46561  10.198  31.540   4.831
82805W        W46562  18.192  12.807   3.292
82806W        W46563  16.668  30.064  11.395
82807W        W46564  38.874  44.950  11.920
82808W        W46565  41.429   0.965  13.005
82809W        W46566  20.710  40.942  10.639
82810W        W46567  20.153  44.441  13.846
82811W        W46568  28.629  34.923  12.863
82812W        W46569  35.031  28.013  13.382
82813W        W46570  31.508  16.801  12.390
82814W        W46571  27.114  19.080  14.026
82815W        W46572  44.003  30.494   3.640
82816W        W46573  33.475  18.292  13.498
82817W        W46574  44.352  13.142   0.433
82818W        W46575  30.646  28.670  13.013
82819W        W46576   6.375  14.644  12.827
82820W        W46577  42.959  12.635   2.267
82821W        W46578  21.043  33.951   0.779
82822W        W46579  28.638  20.640  12.576
82823W        W46580  38.442  27.496   2.809
82824W        W46581  11.214  38.358   2.696
82825W        W46582  44.285  20.672   3.858
82826W        W46583  16.160  37.079  14.441
82827W        W46584  30.615  18.109  14.295
82828W        W46585  13.159  10.291   0.882
82829W        W46586   3.229  21.248   5.267
82830W        W46587  31.058  23.548  12.403
82831W        W46588   9.711  22.601  12.046
82832W        W46589  24.010   1.949  12.956
82833W        W46590  43.928  21.073  14.914
82834W        W46591  44.474  43.422  11.991
82835W        W46592  12.663  19.727   4.335
82836W        W46593  13.120  32.532  12.057
82837W        W46594  21.219  31.494  14.360
82838W        W46595  28.523   1.395  13.941
82839W        W46596  42.031  10.683   1.240
82840W        W46597  40.798  15.131   2.712
82841W        W46598  20.614  28.496   3.372
82842W        W46599   1.952  26.598  11.524
82843W        W46600  25.132   0.385   0.334
82844W        W46601  38.570   1.963   1.876
82845W        W46602  12.847  36.874   3.177
82846W        W46603  13.169  25.107   0.346
82847W        W46604  33.956  14.594   0.252
82848W        W46605  35.431   2.447  12.065
82849W        W46606  11.202  12.196  11.423
82850W        W46607  33.455  19.643  10.442
82851W        W46608   3.795  41.932  12.371
82852W        W46609  11.187  25.186  12.020
82853W        W46610  16.568  12.760  10.902
82854W        W46611  13.244  43.008  14.990
82855W        W46612  15.711  11.290   9.923
82856W        W46613   1.444  13.831   0.746
82857W        W46614   8.223  28.934   1.753
82858W        W46615   5.740  20.567   2.851
82859W        W46616   9.154  27.128   4.627
82860W        W46617  27.023   7.666  10.563
82861W        W46618  20.266  19.106  13.019
82862W        W46619  43.290   5.920   4.814
82863W        W46620  44.939   6.756   0.452
82864W        W46621  16.675  44.841   5.742
82865W        W46622   4.244  39.899  12.029
82866W        W46623  22.217  14.160   0.424
82867W        W46624  37.912  18.631   1.237
82868W        W46625  33.465  42.866   4.683
82869W        W46626  12.732  18.714   2.775
82870W        W46627  38.457  38.822   1.912
82871W        W46628   5.411  33.110   4.234
82872W        W46629   6.809  34.509  10.485
82873W        W46630  13.721   5.226   2.179
82874W        W46631  16.267  40.515   3.337
82875W        W46632  32.112  41.833   3.773
82876W        W46633   6.284  17.644   3.164
82877W        W46634  38.422   0.863   0.922
82878W        W46635  27.074   1.394  12.037
82879W        W46636  16.182  14.106   1.804
82880W        W46637  35.067  24.613   0.311
82881W        W46638  25.533  11.272   2.896
82882W        W46639  25.666  17.114   1.857
82883W        W46640  37.892  18.113   3.677
82884W        W46641  20.165  25.666   0.728
82885W        W46642   8.399   6.703   0.462
82886W        W46643  23.553   8.300   3.687
82887W        W46644   5.336  23.530   4.319
82888W        W46645  12.340  40.037  10.474
82889W        W46646  17.203   8.834   1.263
82890W        W46647   9.722  42.028  14.821
82891W        W46648  16.731   4.336   0.819
82892W        W46649   3.436   9.232   2.329
82893W        W46650   9.701  16.628  13.946
82894W        W46651  33.025  39.969  10.502
82895W        W46652   1.949  12.841   0.915
82896W        W46653  29.132  15.709  11.963
82897W        W46654  11.640  20.135   2.789
82898W        W46655  25.999  38.470   0.472
82899W        W46656  30.143   1.809  14.460
82900W        W46657  20.124  25.220  11.123
82901W        W46658  26.551  11.166   4.727
82902W        W46659  30.628  37.521  11.603
82903W        W46660   7.837   1.947   2.318
82904W        W46661  42.361   1.315   0.918
82905W        W46662   2.918  35.459  11.383
82906W        W46663  38.394  24.092  11.561
82907W        W46664   3.282  44.300  13.908
82908W        W46665  44.405  29.032   3.351
82909W        W46666  38.509  23.216  11.960
82910W        W46667  37.989  41.458  11.929
82911W        W46668   5.853  26.647   3.295
82912W        W46669  30.608  39.541   3.203
82913W        W46670   1.828  13.199   2.890
82914W        W46671   9.278  17.299   2.365
82915W        W46672   2.900   5.276  14.989
82916W        W46673  16.603  36.469  14.389
82917W        W46674   0.974  36.848   0.308
82918W        W46675  32.904  20.240   0.265
82919W        W46676  44.945  33.466   0.742
82920W        W46677   0.894  39.958   3.725
82921W        W46678  16.129  15.154  14.385
82922W        W46679   7.361  21.633  12.003
82923W        W46680  31.615  17.620  12.945
82924W        W46681   9.782  21.176  14.826
82925W        W46682  26.620  30.087  14.860
82926W        W46683  18.747  27.943   3.347
82927W        W46684  37.862  10.638  11.964
82928W        W46685  43.330  12.656  11.923
82929W        W46686   4.745  24.702   3.822
82930W        W46687  21.571  19.703  12.951
82931W        W46688   8.738  31.583   4.797
82932W        W46689  26.184  17.211  14.394
82933W        W46690   6.881  20.212  13.390
82934W        W46691  15.707   3.306  11.484
82935W        W46692  20.150  21.660  11.990
82936W        W46693   4.836  19.634   4.837
82937W        W46694  11.803  41.324  12.506
82938W        W46695  33.021  40.876   0.733
82939W        W46696  43.943   6.716   3.218
82940W        W46697   4.273  14.707  10.560
82941W        W46698  25.592  13.246  10.443
82942W        W46699   9.645  43.505  11.866
82943W        W46700  15.773  31.547  14.883
82944W        W46701  11.719  22.534   0.480
82945W        W46702  43.789   6.847   3.690
82946W        W46703  28.959  12.745  12.945
82947W        W46704   1.396  10.667   2.413
82948W        W46705   6.313  25.566  14.974
82949W        W46706  16.098  16.738  10.596
82950W        W46707  21.198  44.313  13.024
82951W        W46708   6.309  41.950  13.985
82952W        W46709  13.228   8.341  12.536
82953W        W46710  12.672  23.125  14.023
82954W        W46711  28.143  19.062   3.653
82955W        W46712  26.953  24.974  10.996
82956W        W46713  25.199  42.826   5.178
82957W        W46714  37.497   7.807   1.359
82958W        W46715  20.217   0.974  12.397
82959W        W46716  44.794  37.503   2.858
82960W        W46717  23.084  40.027   4.701
82961W        W46718  44.274   2.787  10.574
82962W        W46719  18.147  36.572  14.344
82963W        W46720  13.837  31.578   0.482
82964W        W46721  14.807  23.569  14.826
82965W        W46722  14.698   2.859   5.081
82966W        W46723   4.315  29.146   4.793
82967W        W46724  42.491   6.217   1.860
82968W        W46725   2.722  39.521  12.008
82969W        W46726  20.218  16.292   9.520
82970W        W46727  25.475   6.260   3.369
82971W        W46728  12.723  43.360  12.091
82972W        W46729  40.873   3.779  12.086
82973W        W46730  18.216  17.793   3.814
82974W        W46731  15.157   6.885  12.521
82975W        W46732  26.101  20.712   1.795
82976W        W46733  40.051  36.908   4.739
82977W        W46734  44.815  32.459   3.785
82978W        W46735  31.952  26.476  12.454
82979W        W46736  29.654  24.497  11.041
82980W        W46737  31.105   9.369  11.862
82981W        W46738  24.613  12.269  10.920
82982W        W46739  16.210  27.956  11.548
82983W        W46740  41.826  41.011   1.275
82984W        W46741  10.158  37.080   4.192
82985W        W46742   6.696  10.160  13.037
82986W        W46743  26.642  20.705   1.810
82987W        W46744  26.579  31.134   0.928
82988W        W46745  42.471  22.688   3.234
82989W        W46746  16.264  32.598  12.427
82990W        W46747   0.883  41.384  13.382
82991W        W46748   3.874  25.171   4.613
82992W        W46749   2.244  15.245   4.694
82993W        W46750  21.207  36.557  14.960
82994W        W46751   9.652  17.255   3.216
82995W        W46752   1.266  28.599  14.286
82996W        W46753   7.793  26.460   4.786
82997W        W46754  32.577  15.728  12.918
82998W        W46755  40.318   5.829   2.328
82999W        W46756  13.794   9.795   1.751
83000W        W46757  37.388  19.238   4.337
83001W        W46758  30.631   4.445   2.802
83002W        W46759   3.346  37.061  10.962
83003W        W46760  23.555   5.240  12.546
83004W        W46761  44.354  30.441  14.870
83005W        W46762   1.837  15.610   0.265
83006W        W46763  31.562  30.587  13.870
83007W        W46764  31.036  21.659   3.809
83008W        W46765  19.054  20.118   3.813
83009W        W46766  20.197  22.020  12.444
83010W        W46767  39.487  11.143  10.552
83011W        W46768  40.511  29.010   1.813
83012W        W46769  25.610  19.091   1.893
83013W        W46770  44.803  42.988   4.679
83014W        W46771  26.578   9.811  10.982
83015W        W46772   9.882   8.338  11.419
83016W        W46773  32.025  21.075  10.487
83017W        W46774   2.405  38.823  11.076
83018W        W46775  14.735  33.482   0.452
83019W        W46776  12.343   9.359  11.556
83020W        W46777  16.150  11.663  12.950
83021W        W46778  16.617  44.284  10.146
83022W        W46779  17.795  24.200  13.866
83023W        W46780  23.204  19.625  13.985
83024W        W46781  11.644  21.662  11.452
83025W        W46782  26.702   0.871   4.631
83026W        W46783  40.924  31.621   3.230
83027W        W46784  37.402  16.730   4.734
83028W        W46785   4.923  37.348   2.225
83029W        W46786  23.653  38.031   2.200
83030W        W46787  11.745  39.879  14.765
83031W        W46788   1.819  33.593  10.423
83032W        W46789  28.940  33.588   4.720
83033W        W46790  33.910  30.446  11.952
83034W        W46791  13.685  24.021   2.209
83035W        W46792  44.901   8.670   0.751
83036W        W46793  26.198  20.534   4.769
83037W        W46794  41.872   1.899   0.960
83038W        W46795  22.184  19.748  14.989
83039W        W46796  18.741  32.037   2.388
83040W        W46797   2.330  16.082   3.693
83041W        W46798  14.739   6.223  10.043
83042W        W46799  23.718   0.335   3.344
83043W        W46800  43.375  16.614   0.333
83044W        W46801  38.053   4.253   5.144
83045W        W46802  36.420  28.946   2.384
83046W        W46803  39.966  26.668  13.040
83047W        W46804   6.702  16.088  10.064
83048W        W46805  40.036  10.641  13.346
83049W        W46806  26.991  11.312  14.927
83050W        W46807   3.342  40.378   3.723
83051W        W46808   6.837  27.084   2.349
83052W        W46809  28.170  38.937  11.868
83053W        W46810   0.381  16.235   3.667
83054W        W46811  17.665  29.464   2.311
83055W        W46812  20.720   7.218   3.783
83056W        W46813  26.658  31.518   0.801
83057W        W46814  15.189   0.850  12.985
83058W        W46815  29.489  44.376   0.939
83059W        W46816   2.434  10.194   1.303
83060W        W46817  35.068  39.390   4.800
83061W        W46818  39.853   6.773   4.198
83062W        W46819  24.224  14.290   3.171
83063W        W46820  39.462  20.184  11.411
83064W        W46821  37.431  21.593   4.766
83065W        W46822   7.171  41.970  12.910
83066W        W46823   0.492   5.731  10.999
83067W        W46824  23.986   9.776  14.891
83068W        W46825  41.415  10.183   0.849
83069W        W46826  17.296   1.365  13.487
83070W        W46827   0.870  39.378  14.867
83071W        W46828  43.484  30.106  12.057
83072W        W46829  13.783  22.631   0.402
83073W        W46830  26.692  19.241  10.506
83074W        W46831  20.236  28.969   0.774
83075W        W46832  43.271  13.724  11.948
83076W        W46833   0.389  34.498  10.436
83077W        W46834   4.265  14.693   3.222
83078W        W46835  35.977  14.230   2.335
83079W        W46836  14.764  37.037  13.801
83080W        W46837  21.223   1.830   2.214
83081W        W46838   8.407  26.036  14.872
83082W        W46839  18.115  18.117  12.943
83083W        W46840   8.799  39.452  11.030
83084W        W46841   5.319  33.922   0.928
83085W        W46842  16.695   1.734  12.401
83086W        W46843  42.974   8.753  14.430
83087W        W46844  29.037  23.103   3.349
83088W        W46845  35.018  30.559   9.960
83089W        W46846  15.144   8.772   1.401
83090W        W46847  42.467  24.099  12.502
83091W        W46848  40.443  18.106   0.848
83092W        W46849  23.659   4.731   4.317
83093W        W46850  41.335   1.386  13.943
83094W        W46851   2.404  16.668   4.715
83095W        W46852  16.685  25.155  13.811
83096W        W46853  41.031  38.015   3.192
83097W        W46854  41.931   2.815   2.297
83098W        W46855  28.450  18.149   1.813
83099W        W46856   6.786  27.030   2.693
83100W        W46857  20.261  41.949  14.382
83101W        W46858   9.161  14.602  10.458
83102W        W46859  23.706  11.346  13.821
83103W        W46860   0.346  21.707  12.888
83104W        W46861  10.782   0.895   1.269
83105W        W46862  31.008  36.515   2.857
83106W        W46863  30.078  35.500   1.719
83107W        W46864   2.316  24.198  10.490
83108W        W46865   1.736  16.189   2.221
83109W        W46866  11.785  12.747  12.995
83110W        W46867  32.421   4.739  11.579
83111W        W46868  22.616  25.175   1.782
83112W        W46869   1.433   7.848  11.108
83113W        W46870  30.642  29.622   1.304
83114W        W46871  23.040  40.423   2.742
83115W        W46872  40.424  42.965  13.025
83116W        W46873  30.631   2.872  14.891
83117W        W46874   2.430  19.257  13.354
83118W        W46875  23.025   7.242   2.213
83119W        W46876  28.162  29.617   4.329
83120W        W46877  16.788  14.786   1.820
83121W        W46878  27.027  32.077  10.912
83122W        W46879  22.078  15.818   2.228
83123W        W46880  22.221  25.989  12.001
83124W        W46881   1.318  39.022   0.803
83125W        W46882   5.302  16.745   9.959
83126W        W46883  44.396  41.464  14.809
83127W        W46884  16.131  27.096   0.946
83128W        W46885   1.443  13.783   1.706
83129W        W46886  42.403  20.555  11.124
83130W        W46887  40.448   1.366   0.824
83131W        W46888  42.988  26.581  13.993
83132W        W46889  41.042  17.641  14.027
83133W        W46890  36.958  13.785   0.282
83134W        W46891  33.972  43.989  11.885
83135W        W46892  22.526  14.202  14.335
83136W        W46893  25.703  20.620  12.060
83137W        W46894  31.927   9.261   0.447
83138W        W46895  25.187  23.149   2.219
83139W        W46896  20.070  20.736   3.179
83140W        W46897   4.863  20.077  14.337
83141W        W46898  15.713  16.674  11.556
83142W        W46899  31.115  29.576   3.817
83143W        W46900   5.233   0.875   1.710
83144W        W46901   0.766   8.315   1.735
83145W        W46902  25.540  17.645  10.425
83146W        W46903  31.094   8.871  11.128
83147W        W46904  17.569   4.702  13.510
83148W        W46905  11.853  31.587   1.717
83149W        W46906  31.084   4.735   0.268
83150W        W46907  25.046  39.392  13.990
83151W        W46908  33.478  31.109   2.683
83152W        W46909  20.057  19.097  14.516
83153W        W46910  15.088  40.435  13.447
83154W        W46911  36.038  28.121  14.983
83155W        W46912  34.506   4.324   1.274
83156W        W46913  29.136   7.827   1.935
83157W        W46914  10.743   0.277   4.328
83158W        W46915  34.472  14.126  12.567
83159W        W46916  25.048   8.760  11.954
83160W        W46917  43.439  43.451  10.524
83161W        W46918  27.579  29.575   0.331
83162W        W46919  30.027  28.571  13.510
83163W        W46920   8.772  14.704  13.314
83164W        W46921   3.356  34.978   2.255
83165W        W46922  25.962   4.297  12.087
83166W        W46923  43.009  14.268  14.393
83167W        W46924   0.867  44.314  11.119
83168W        W46925  32.468  27.180   3.167
83169W        W46926  21.601  22.515   2.236
83170W        W46927  19.779  27.056   1.302
83171W        W46928  18.176  30.537  14.003
83172W        W46929   8.873  15.296   5.586
83173W        W46930  30.468  38.002  10.966
83174W        W46931  19.740  27.596  13.803
83175W        W46932   6.408  24.577  10.555
83176W        W46933  21.021  33.490  11.396
83177W        W46934  31.594  21.258  13.491
83178W        W46935  30.441  36.848   1.913
83179W        W46936  35.985  28.158   1.863
83180W        W46937  35.870  34.984   2.303
83181W        W46938   6.298  36.007   0.442
83182W        W46939  13.613  29.010   2.885
83183W        W46940   1.369  19.097  10.975
83184W        W46941  13.762  28.093   2.368
83185W        W46942   1.798   1.917   3.759
83186W        W46943  24.995  21.043   2.411
83187W        W46944   7.404  34.060  12.998
83188W        W46945  35.981  21.693   1.348
83189W        W46946  22.182  22.044  11.565
83190W        W46947   2.840   4.860  14.993
83191W        W46948  36.876   7.360   1.810
83192W        W46949  19.754  19.047   1.285
83193W        W46950  27.080  41.025   2.772
83194W        W46951  28.956   4.882   0.278
83195W        W46952  22.664  32.967  11.422
83196W        W46953  26.073  24.064   0.251
83197W        W46954  15.686   7.685   1.873
83198W        W46955   7.683  44.951  14.942
83199W        W46956  20.743  14.708   9.579
83200W        W46957  11.807  33.548   3.260
83201W        W46958  42.351  35.398  13.521
83202W        W46959  23.619   2.355   1.348
83203W        W46960  24.105  26.964  12.533
83204W        W46961   7.315   1.795  13.791
83205W        W46962   1.953  28.469   2.761
83206W        W46963   8.273   9.727   3.634
83207W        W46964  15.728  19.691   4.664
83208W        W46965   4.836   2.336  10.894
83209W        W46966  42.010  13.184   1.824
83210W        W46967  23.644  35.445  12.495
83211W        W46968  23.618  39.934   3.757
83212W        W46969  18.642  13.640   0.961
83213W        W46970  31.478  21.582   0.807
83214W        W46971  21.581   9.327   0.816
83215W        W46972  24.218  13.106   2.834
83216W        W46973  16.080  38.471   2.783
83217W        W46974  20.164  36.025   3.344
83218W        W46975  19.154   2.301  13.848
83219W        W46976  14.680   8.257   3.367
83220W        W46977  40.032  35.868  12.838
83221W        W46978  40.963   2.425  12.880
83222W        W46979  35.904  35.380  14.380
83223W        W46980  18.136  24.634   1.400
83224W        W46981  17.261  15.090   4.211
83225W        W46982  42.304  12.304   0.794
83226W        W46983  16.087  34.870   3.293
83227W        W46984  22.221  40.978   3.794
83228W        W46985  27.145  37.348  13.451
83229W        W46986  44.364  25.601  12.476
83230W        W46987   8.344  23.220  13.025
83231W        W46988  13.119  22.510   1.388
83232W        W46989  10.312  13.152   3.163
83233W        W46990  23.507  28.517   4.333
83234W        W46991   6.192  40.931  13.468
83235W        W46992  44.965  35.898   1.293
83236W        W46993   7.672  23.602   2.256
83237W        W46994  26.200  34.863  13.362
83238W        W46995  25.019  37.072   4.826
83239W        W46996  33.045   5.775  13.973
83240W        W46997   1.754  43.823   0.738
83241W        W46998  24.724  41.535  13.521
83242W        W46999   1.300  27.463   1.350
83243W        W47000  14.723  38.070   3.810
83244W        W47001   2.753  17.800  13.474
83245W        W47002  19.703  39.425  13.990
83246W        W47003  14.311   4.769   5.322
83247W        W47004  18.574   4.868   0.352
83248W        W47005   2.807  29.126   0.304
83249W        W47006   5.905  33.054   1.310
83250W        W47007   3.779   7.837   2.839
83251W        W47008  13.720  28.465  13.497
83252W        W47009  37.563  14.156  10.563
83253W        W47010  18.272  43.781   0.875
83254W        W47011  41.038  16.256  10.448
83255W        W47012  39.369  27.478  14.341
83256W        W47013   1.286  38.412   0.364
83257W        W47014   1.297  37.071   1.303
83258W        W47015   6.251  14.687   3.656
83259W        W47016  27.100  14.204  10.635
83260W        W47017  15.604  39.001   1.879
83261W        W47018  30.465  36.418   3.864
83262W        W47019  44.840  34.894   3.296
83263W        W47020  14.711   6.239  13.793
83264W        W47021  29.985  38.853  14.979
83265W        W47022  44.260  16.737  10.453
83266W        W47023   8.346  17.226  13.483
83267W        W47024  40.477  21.241   3.807
83268W        W47025  29.089  35.393   4.838
83269W        W47026  33.923  24.542  14.810
83270W        W47027   5.299  23.604  12.844
83271W        W47028  17.788  11.171  13.349
83272W        W47029  40.986  35.478   4.719
83273W        W47030   3.741  25.499   3.269
83274W        W47031  21.705  16.611  13.403
83275W        W47032  29.591  43.486  13.945
83276W        W47033  14.163  42.961   1.725
83277W        W47034  22.616   4.268   2.324
83278W        W47035  18.170  18.220  14.884
83279W        W47036  21.638   0.415  14.021
83280W        W47037  34.568  26.100  12.066
83281W        W47038  42.415  27.528  14.396
83282W        W47039  44.266  24.721  14.808
83283W        W47040  44.324  19.573   4.729
83284W        W47041   2.305  43.874  11.609
83285W        W47042  20.529  25.164   0.963
83286W        W47043  43.276   7.183  12.573
83287W        W47044  23.048  25.700  11.439
83288W        W47045  11.250   0.813   4.342
83289W        W47046  39.499  20.138   0.782
83290W        W47047  33.595  21.636  12.464
83291W        W47048  19.279  37.364   1.271
83292W        W47049  24.105   9.260  11.546
83293W        W47050  10.220   4.371  14.777
83294W        W47051  11.275   4.241   2.417
83295W        W47052   6.381  16.244   1.443
83296W        W47053  33.431  33.993   0.472
83297W        W47054  18.055   9.379   3.274
83298W        W47055  13.645   3.415   3.855
83299W        W47056  36.423  33.553  12.847
83300W        W47057  12.675  25.198  14.759
83301W        W47058  31.013  43.973   2.752
83302W        W47059  26.500  14.233  10.456
83303W        W47060   7.326  41.978  13.833
83304W        W47061  40.386   5.932  11.935
83305W        W47062   7.750  33.449  13.547
83306W        W47063  41.876  14.591  11.549
83307W        W47064   0.781  15.247  10.453
83308W        W47065  15.737  30.956  12.577
83309W        W47066  27.458  18.564  11.449
83310W        W47067  39.916  13.230  10.517
83311W        W47068  31.436  18.612  13.993
83312W        W47069  25.069  24.180  12.855
83313W        W47070   9.831  38.371  10.466
83314W        W47071   7.886  22.126   1.853
83315W        W47072   2.765  25.009  14.824
83316W        W47073   5.726  18.580  14.386
83317W        W47074  35.963  27.660  14.939
83318W        W47075   8.843  11.729   1.431
83319W        W47076  29.545  31.577   2.731
83320W        W47077  21.156  11.706  12.530
83321W        W47078  24.131  15.700  10.551
83322W        W47079   2.448  26.120   2.748
83323W        W47080   6.305  12.149  11.933
83324W        W47081   4.793  30.908   0.410
83325W        W47082  32.439   4.830   1.741
83326W        W47083  22.624   7.171  12.903
83327W        W47084   5.833   5.236  10.460
83328W        W47085  36.078  21.514   3.701
83329W        W47086  43.301  24.517   1.754
83330W        W47087  18.267  38.347  12.950
83331W        W47088  31.132   3.950   0.749
83332W        W47089  25.135   9.164  12.974
83333W        W47090  37.344  44.261   1.348
83334W        W47091   8.378   2.252  14.019
83335W        W47092  14.190  15.664  10.079
83336W        W47093  10.758  16.694  10.629
83337W        W47094   4.850  29.066   4.810
83338W        W47095  17.794  31.902   1.801
83339W        W47096  32.549  24.089   1.791
83340W        W47097   3.820  10.709   2.236
83341W        W47098  35.489  21.027   4.800
83342W        W47099  11.265  20.177   4.125
83343W        W47100   2.470  36.061  11.010
83344W        W47101  23.496  22.063  12.096
83345W        W47102  11.351  42.367   4.615
83346W        W47103  42.288  26.959   0.448
83347W        W47104  20.616  39.983  14.913
83348W        W47105  42.934  37.502   0.271
83349W        W47106  32.560  40.025   3.274
83350W        W47107  14.592  13.309  14.416
83351W        W47108  11.827   5.380  11.989
83352W        W47109  17.244  43.872   1.842
83353W        W47110  22.520   5.426   2.385
83354W        W47111  30.578   6.407   3.341
83355W        W47112  32.394  31.107  10.945
83356W        W47113  18.054   9.655   4.169
83357W        W47114  37.416  37.073   4.350
83358W        W47115  17.065  26.005  10.454
83359W        W47116   4.312  28.078   2.862
83360W        W47117   1.814  22.087   4.266
83361W        W47118   4.700  22.717  13.533
83362W        W47119  32.924   8.293   2.292
83363W        W47120   7.224   5.901   0.292
83364W        W47121  15.603  13.648   3.226
83365W        W47122  20.168  30.985   1.268
83366W        W47123  41.967  27.457  13.941
83367W        W47124   3.323  15.295  11.548
83368W        W47125   8.291  15.669  12.530
83369W        W47126  37.527  24.109  11.892
83370W        W47127  15.793  26.141  10.043
83371W        W47128  12.309  43.426  13.318
83372W        W47129  37.391  43.509   1.826
83373W        W47130  29.016   1.787   9.944
83374W        W47131  27.652   8.696  13.975
83375W        W47132  31.433  26.203  12.388
83376W        W47133  10.761   2.311   4.739
83377W        W47134  17.146   5.322   0.362
83378W        W47135  11.307  36.081  11.555
83379W        W47136  21.580  36.575  12.982
83380W        W47137  20.203  15.734   1.731
83381W        W47138  21.031  32.017  12.887
83382W        W47139  17.742  31.909  11.028
83383W        W47140  41.860   2.257  11.587
83384W        W47141  39.928   7.355   4.765
83385W        W47142  24.488   3.372  12.041
83386W        W47143  30.056  41.441  11.893
83387W        W47144  44.979  23.124  11.865
83388W        W47145  41.934  27.476  12.477
83389W        W47146  42.930  33.407  12.881
83390W        W47147  13.262  43.972   5.117
83391W        W47148  38.352   0.471   2.806
83392W        W47149  42.885   7.763  11.064
83393W        W47150  43.401  13.782   3.734
83394W        W47151  42.868  29.469   4.320
83395W        W47152  18.606  44.283   1.222
83396W        W47153  32.090   8.271   2.874
83397W        W47154   0.786  18.087   1.831
83398W        W47155  16.666  26.164  10.621
83399W        W47156  39.390  24.483  13.892
83400W        W47157   6.824   1.462  14.489
83401W        W47158   4.718  36.902  13.851
83402W        W47159  34.555  24.591  13.471
83403W        W47160   9.190  41.920   3.242
83404W        W47161  16.143  23.178   2.302
83405W        W47162  20.607   9.361  11.430
83406W        W47163   4.235  33.897  13.506
83407W        W47164  27.037   4.375  11.078
83408W        W47165  10.320   4.219  11.118
83409W        W47166  41.398  11.679  13.033
83410W        W47167  42.898  23.650   1.823
83411W        W47168  32.458  30.985  14.816
83412W        W47169  44.442  33.044  11.483
83413W        W47170  39.379  18.670  11.425
83414W        W47171  29.445  37.878   4.773
83415W        W47172   3.881  33.414  12.964
83416W        W47173   3.391   6.784   1.441
83417W        W47174  29.613   9.336  12.536
83418W        W47175  29.944  10.172   2.852
83419W        W47176  39.500  20.543  13.961
83420W        W47177  14.278   3.418  10.100
83421W        W47178  19.063  35.457  11.442
83422W        W47179  16.187  41.791   0.399
83423W        W47180  35.870  21.221   4.136
83424W        W47181   4.302  38.002  10.965
83425W        W47182   3.255  42.526  10.596
83426W        W47183  19.558  10.675   1.920
83427W        W47184  17.717  32.535   2.785
83428W        W47185  34.116  29.969  12.917
83429W        W47186  14.160  37.057   3.730
83430W        W47187  35.452  18.574   3.200
83431W        W47188  20.615  36.090   5.175
83432W        W47189  26.125  33.090  13.805
83433W        W47190  42.338  26.003   0.449
83434W        W47191  32.602  42.993   1.232
83435W        W47192  33.054  30.478   5.094
83436W        W47193  13.766  14.660  13.947
83437W        W47194  28.651  20.623   0.845
83438W        W47195  14.687  33.115   2.336
83439W        W47196  16.766  42.991   4.200
83440W        W47197   3.911  39.557  11.891
83441W        W47198  36.357  36.460   0.796
83442W        W47199  21.591  20.089  12.932
83443W        W47200  11.225  28.517  12.374
83444W        W47201   4.285  12.308  10.486
83445W        W47202  27.660  19.725  11.597
83446W        W47203   2.748   0.986   3.318
83447W        W47204  20.103   8.694  11.045
83448W        W47205  33.564  39.436   2.286
83449W        W47206  20.266  42.971   0.792
83450W        W47207  11.622   7.384  10.092
83451W        W47208   3.928  15.586   2.325
83452W        W47209  37.896   8.196  12.348
83453W        W47210  20.165  10.723   2.278
83454W        W47211   6.365  34.896   2.394
83455W        W47212   6.220  33.955  14.954
83456W        W47213  38.520  21.211   2.692
83457W        W47214  27.142  40.953  12.465
83458W        W47215   6.339   8.306  10.635
83459W        W47216  43.871  12.298  12.538
83460W        W47217  36.891   3.241  13.331
83461W        W47218  16.674  12.231  12.958
83462W        W47219   8.356   5.237   1.231
83463W        W47220  39.370  13.204   1.447
83464W        W47221  10.323  24.717   3.355
83465W        W47222  29.519  21.518   3.674
83466W        W47223   2.399   7.683   2.710
83467W        W47224  25.486  34.508  13.390
83468W        W47225   3.727  20.224   1.297
83469W        W47226  39.961  34.557  10.613
83470W        W47227  11.350  37.374  10.607
83471W        W47228  13.730  30.076  13.472
83472W        W47229  21.590  28.082  13.856
83473W        W47230  13.347   8.288   0.359
83474W        W47231  30.059  22.613   4.130
83475W        W47232  19.657   0.261  10.416
83476W        W47233  32.941  30.616  13.462
83477W        W47234   6.187  10.383   3.793
83478W        W47235  13.831  41.424   1.800
83479W        W47236  44.402  17.210   4.624
83480W        W47237  37.027  38.489   0.432
83481W        W47238   3.892   8.231   4.309
83482W        W47239  19.642  10.296  12.834
83483W        W47240  35.074  10.172  14.487
83484W        W47241  33.988   2.466   0.907
83485W        W47242  23.515  39.063   1.297
83486W        W47243  42.869   5.341  11.019
83487W        W47244   4.704  12.720  14.895
83488W        W47245  22.521  20.583  10.028
83489W        W47246  22.105  34.945   1.378
83490W        W47247   8.379  36.506  10.460
83491W        W47248  13.216  32.022  10.512
83492W        W47249  20.619  29.500  11.076
83493W        W47250  30.476  30.583  13.484
83494W        W47251  38.865  34.004  12.845
83495W        W47252   8.774  21.563   0.397
83496W        W47253  34.558  44.947  12.910
83497W        W47254  41.471  14.735   1.827
83498W        W47255  11.845   3.920   0.855
83499W        W47256   1.383   8.291   3.832
83500W        W47257  38.841   3.241   1.899
83501W        W47258  12.620   7.310  11.567
83502W        W47259  10.799  34.085   4.811
83503W        W47260   9.697   3.750  12.402
83504W        W47261  11.371  31.901   1.387
83505W        W47262  36.038  25.675   0.327
83506W        W47263  31.562  41.358   3.291
83507W        W47264   7.682  33.892  10.974
83508W        W47265  41.802  12.816  12.537
83509W        W47266  27.664   7.296   4.176
83510W        W47267  16.260  35.077  13.420
83511W        W47268  19.637  13.311   0.388
83512W        W47269   1.383  44.947  14.476
83513W        W47270   9.280  26.510  14.932
83514W        W47271   1.908   6.794   2.253
83515W        W47272   4.429  15.656  10.907
83516W        W47273  29.650  13.694  14.917
83517W        W47274  26.645  13.116  13.803
83518W        W47275  14.789  32.542   4.224
83519W        W47276  31.464  20.082   1.444
83520W        W47277  31.601  32.006  14.908
83521W        W47278  13.619   2.880  14.886
83522W        W47279  42.991   2.815   3.633
83523W        W47280  36.412  39.827   0.355
83524W        W47281   9.363  11.827  10.550
83525W        W47282  14.745  43.361   1.427
83526W        W47283   5.397  19.123  14.974
83527W        W47284  32.908  21.515  12.965
83528W        W47285  17.758  13.239   0.794
83529W        W47286   0.881  40.840  13.860
83530W        W47287   5.700  37.554   1.286
83531W        W47288  33.898  15.777  10.560
83532W        W47289   4.768   7.285  14.420
83533W        W47290  34.497   3.242   1.339
83534W        W47291   9.298  23.996  12.861
83535W        W47292  20.594  32.028   9.946
83536W        W47293  36.455  20.121  13.885
83537W        W47294  39.939  29.149   3.373
83538W        W47295  22.211   5.816  10.520
83539W        W47296  36.895  27.672  11.484
83540W        W47297  18.221  37.340  11.458
83541W        W47298  25.136  20.192   4.638
83542W        W47299   9.875  35.861  13.533
83543W        W47300   2.366   4.873   2.188
83544W        W47301  17.183  16.724  10.110
83545W        W47302  30.551  14.596   2.396
83546W        W47303  23.134   6.883  11.924
83547W        W47304  25.677   7.330   1.269
83548W        W47305  44.773  43.902   0.399
83549W        W47306  34.582  20.182  12.005
83550W        W47307  16.091  17.801  13.875
83551W        W47308  35.999   9.243  13.323
83552W        W47309   4.829  23.655   1.913
83553W        W47310  19.181  32.528  14.972
83554W        W47311  23.068  16.721  14.437
83555W        W47312  12.274  14.680  10.898
83556W        W47313  18.269  31.537  14.439
83557W        W47314  25.522  31.565   1.358
83558W        W47315  40.026   2.405   1.914
83559W        W47316  27.622  34.534  11.465
83560W        W47317   9.214  31.115   4.797
83561W        W47318  14.818  27.170   0.299
83562W        W47319  42.337  19.182   4.315
83563W        W47320  39.898  19.536   1.364
83564W        W47321   6.274  30.093   3.206
83565W        W47322  19.071  31.992  10.517
83566W        W47323  29.601   4.248  12.856
83567W        W47324  39.955   3.922   1.329
83568W        W47325  23.235  42.510  10.970
83569W        W47326   6.217  35.092   0.316
83570W        W47327  19.138  38.919  14.921
83571W        W47328  40.399  37.460   5.227
83572W        W47329  29.095  29.095  13.483
83573W        W47330   6.882  22.711  11.978
83574W        W47331  38.018  29.172   0.398
83575W        W47332   1.880  13.638  14.511
83576W        W47333  25.514  37.992   1.352
83577W        W47334  43.381   4.717  13.476
83578W        W47335   1.839  18.292   4.143
83579W        W47336  13.779  28.438  14.979
83580W        W47337  15.151  22.648  10.532
83581W        W47338  18.076  41.877  14.494
83582W        W47339   2.420  13.772   4.731
83583W        W47340   0.441  18.779  11.590
83584W        W47341  31.024  22.521   9.923
83585W        W47342  20.067  23.207   3.818
83586W        W47343  12.618  25.550  13.902
83587W        W47344  36.398   5.826  11.428
83588W        W47345  33.883  43.888  10.420
83589W        W47346   1.388  14.667  14.502
83590W        W47347  23.545  10.161  10.540
83591W        W47348  16.203  11.692   3.198
83592W        W47349  19.712  41.017  10.410
83593W        W47350   8.164  40.452  14.388
83594W        W47351  31.951  19.751  12.911
83595W        W47352  22.185  40.509   4.198
83596W        W47353  27.050   2.301   1.926
83597W        W47354  18.761  13.114   4.215
83598W        W47355  20.143  26.007   4.264
83599W        W47356  24.046  41.330  10.461
83600W        W47357  28.162  33.621  14.780
83601W        W47358  15.581   4.320   3.363
83602W        W47359   2.771  15.131   2.340
83603W        W47360  15.231  11.723  13.847
83604W        W47361  43.447  40.468  10.488
83605W        W47362   0.256  11.241   0.437
83606W        W47363   6.197  34.373  10.504
83607W        W47364  40.839  33.587   1.842
83608W        W47365  35.604  27.112  13.914
83609W        W47366   3.419  32.555   3.824
83610W        W47367  16.253  25.177   3.842
83611W        W47368  30.543  17.142   1.896
83612W        W47369  38.832   0.745   2.890
83613W        W47370  30.101   4.837   5.106
83614W        W47371  14.599  28.575   3.260
83615W        W47372  15.133  38.394   0.939
83616W        W47373  15.244  27.172  11.925
83617W        W47374  13.778  33.023  14.984
83618W        W47375  13.764  40.842  12.356
83619W        W47376   6.213  38.444  11.463
83620W        W47377  15.726  41.911  14.307
83621W        W47378  19.538  16.738   2.301
83622W        W47379   0.305  16.644   4.150
83623W        W47380  11.761  41.872  12.512
83624W        W47381  44.987  32.415  14.442
83625W        W47382  40.844  20.181   0.363
83626W        W47383  38.050  34.584  11.108
83627W        W47384  23.143  12.741  11.002
83628W        W47385   5.763  15.629   0.447
83629W        W47386  13.684   7.690   0.317
83630W        W47387  19.729   5.832  13.029
83631W        W47388  38.002  43.421   4.773
83632W        W47389  43.798  34.447  11.560
83633W        W47390  11.861  18.089   4.203
83634W        W47391  13.193  35.950  13.315
83635W        W47392  27.150   1.943   2.690
83636W        W47393   2.307  21.227  11.575
83637W        W47394  34.381   5.912  13.414
83638W        W47395  16.685  41.524   0.265
83639W        W47396  14.687  42.441   3.708
83640W        W47397   9.782  43.433   0.462
83641W        W47398  30.416  34.496   1.218
83642W        W47399  20.176  18.229  14.335
83643W        W47400   1.822   7.356   1.782
83644W        W47401   9.196  10.649   3.673
83645W        W47402  27.546  41.965  12.040
83646W        W47403  13.120  11.715  15.000
83647W        W47404  29.125  37.462  12.877
83648W        W47405  31.437  30.637   1.787
83649W        W47406   2.416  38.928  10.528
83650W        W47407   8.403  10.772   1.312
83651W        W47408   4.397  22.145  11.983
83652W        W47409  24.535  12.154   3.631
83653W        W47410  16.196  42.502  10.583
83654W        W47411   8.240  21.128  13.445
83655W        W47412  21.683  14.835  14.965
83656W        W47413   7.723  32.983   3.178
83657W        W47414   7.287  10.235  10.962
83658W        W47415   2.867   6.336   1.366
83659W        W47416   7.684  35.546   4.187
83660W        W47417   6.885  38.888  11.117
83661W        W47418  19.716   5.824   3.709
83662W        W47419  38.553   4.368  14.407
83663W        W47420  18.258  42.863  14.422
83664W        W47421   4.910  10.681   2.881
83665W        W47422  37.420  36.554  11.445
83666W        W47423  12.840  42.777   0.763
83667W        W47424  34.429  16.607  14.933
83668W        W47425  30.086  40.335   0.823
83669W        W47426  10.700  44.757   2.875
83670W        W47427  34.920  14.835  10.949
83671W        W47428  15.252  18.595   1.862
83672W        W47429   3.328  35.891  11.938
83673W        W47430  31.405   7.372   4.682
83674W        W47431  29.597  35.394  11.093
83675W        W47432   9.207  32.118   0.248
83676W        W47433  25.008  28.019   0.409
83677W        W47434  18.570   4.780   4.732
83678W        W47435  26.703   9.800   2.210
83679W        W47436  18.228  27.489   4.343
83680W        W47437  39.434   9.359  11.944
83681W        W47438  18.222  44.935   0.934
83682W        W47439  22.032   2.451  14.953
83683W        W47440   0.956  10.716  12.028
83684W        W47441  13.793  16.315   4.333
83685W        W47442  26.196  41.999   2.884
83686W        W47443  38.441   7.232  12.851
83687W        W47444  29.535  37.340  14.012
83688W        W47445   3.894  13.686   2.310
83689W        W47446  12.619  12.768   1.766
83690W        W47447  26.173   6.814  12.348
83691W        W47448  22.227  32.888  12.042
83692W        W47449  20.618  11.347  11.600
83693W        W47450  44.835  36.464  12.498
83694W        W47451  12.730  19.207   1.340
83695W        W47452  27.506  20.231  12.473
83696W        W47453  25.212  27.524  13.974
83697W        W47454  35.411  44.001   0.332
83698W        W47455  19.592  20.569  10.915
83699W        W47456  39.808  19.108  12.377
83700W        W47457  13.841  30.458  12.065
83701W        W47458  44.849   7.793  10.449
83702W        W47459   4.819  34.079   3.205
83703W        W47460  32.012  15.283   4.816
83704W        W47461   2.331  33.390   1.413
83705W        W47462  40.918  15.717  12.402
83706W        W47463  13.169   0.853   0.916
83707W        W47464   8.782  28.966   3.161
83708W        W47465  27.107  32.436   1.855
83709W        W47466  22.023  27.683  11.374
83710W        W47467   9.772   9.704  11.106
83711W        W47468  34.559  10.372   3.851
83712W        W47469   6.787  14.126  12.020
83713W        W47470  22.073  29.141  14.436
83714W        W47471   0.791  21.632   0.304
83715W        W47472  24.557  24.636  13.048
83716W        W47473  43.489  42.514  11.085
83717W        W47474  36.355   5.700  14.284
83718W        W47475  23.733  11.363  12.903
83719W        W47476  39.474   4.899   2.688
83720W        W47477  16.798  14.714  12.431
83721W        W47478  12.130  28.501   0.828
83722W        W47479  26.582  13.782  13.321
83723W        W47480  43.342   7.682   1.772
83724W        W47481  19.609  16.694  14.413
83725W        W47482  43.873  22.704  12.466
83726W        W47483  40.977  27.647   2.406
83727W        W47484  42.956  28.447  11.089
83728W        W47485  42.794  39.853   1.813
83729W        W47486  35.050  17.065   4.152
83730W        W47487  42.838   4.763   1.275
83731W        W47488  27.054  42.003   2.726
83732W        W47489   3.883  30.626  10.537
83733W        W47490   0.430  30.971   3.742
83734W        W47491  16.119  13.197  12.375
83735W        W47492  10.224   3.457   3.806
83736W        W47493  35.020  35.444   1.701
83737W        W47494  27.966  30.443   0.348
83738W        W47495  26.973  40.971  13.943
83739W        W47496  37.832  42.904   4.336
83740W        W47497  15.609   4.423   0.743
83741W        W47498   9.864   6.765   1.385
83742W        W47499  25.630  29.947   4.133
83743W        W47500  32.046  21.535   0.769
83744W        W47501  22.529  28.593   3.661
83745W        W47502  38.489   7.700   1.727
83746W        W47503  38.445  26.188   0.939
83747W        W47504  25.102  26.523   1.391
83748W        W47505  21.730  34.060  13.873
83749W        W47506  20.172  14.752   4.652
83750W        W47507  39.959   9.185   1.275
83751W        W47508  39.513  10.208   3.314
83752W        W47509  22.238   6.893  11.930
83753W        W47510  25.098  37.540  10.151
83754W        W47511   1.858   5.778   2.864
83755W        W47512   2.863  41.837  13.534
83756W        W47513  20.196   8.767   4.319
83757W        W47514  36.890   1.974  13.966
83758W        W47515  19.158   4.372   3.170
83759W        W47516  23.519   7.793   1.765
83760W        W47517  13.113  43.842  14.452
83761W        W47518  12.129  21.641   4.120
83762W        W47519   5.929   9.306   1.279
83763W        W47520  16.774  33.044   1.382
83764W        W47521  34.080  35.519   4.256
83765W        W47522  20.055  41.490  14.887
83766W        W47523  10.304  33.076  14.393
83767W        W47524  30.929  34.487  11.459
83768W        W47525  15.581   4.235   2.833
83769W        W47526  37.366   8.838   1.218
83770W        W47527  18.069  20.137  10.628
83771W        W47528   4.429   3.349  10.551
83772W        W47529  36.492   3.822   0.965
83773W        W47530  28.027  34.421  12.400
83774W        W47531  36.416  23.231   4.307
83775W        W47532  18.674  39.837   5.221
83776W        W47533  24.147  11.165  13.317
83777W        W47534  13.274  24.057  10.510
83778W        W47535  21.026  17.072  11.120
83779W        W47536  20.615  30.039  10.516
83780W        W47537  10.658   6.236  10.087
83781W        W47538  37.839  22.594   3.173
83782W        W47539  17.263  21.705  13.338
83783W        W47540   6.730   9.377   2.871
83784W        W47541  30.641  37.360   4.754
83785W        W47542   0.331  39.974   1.297
83786W        W47543   0.818   9.183  11.897
83787W        W47544  20.054   8.336  14.377
83788W        W47545  22.633  20.210   2.780
83789W        W47546  33.384  31.547  14.516
83790W        W47547  30.087  38.976  12.872
83791W        W47548  20.647   6.885  12.462
83792W        W47549  42.509  10.330  13.464
83793W        W47550   6.246  17.739  12.351
83794W        W47551  25.134  43.313  13.002
83795W        W47552  26.159  41.499   2.710
83796W        W47553  44.966  26.127  14.308
83797W        W47554   2.760  22.579  11.052
83798W        W47555  38.442  26.201  11.410
83799W        W47556  20.128  35.483   0.935
83800W        W47557  23.567  32.026  10.905
83801W        W47558   2.878  26.539   2.277
83802W        W47559  41.424   5.818  12.919
83803W        W47560  38.857  26.102   1.378
83804W        W47561  40.331  15.306  11.496
83805W        W47562   5.364  11.355   3.334
83806W        W47563  32.002  28.613  11.958
83807W        W47564   0.449  32.957  10.572
83808W        W47565  38.868  39.938  13.376
83809W        W47566   9.890  44.409  11.512
83810W        W47567  11.646   2.950  14.943
83811W        W47568  43.767  22.232  10.468
83812W        W47569   6.259  39.396  14.479
83813W        W47570  38.913   1.255  14.499
83814W        W47571   4.699  24.717  14.324
83815W        W47572  25.204   7.318  10.952
83816W        W47573   1.356  10.306  13.872
83817W        W47574  13.262  27.658   0.887
83818W        W47575  23.070  15.819  11.428
83819W        W47576   8.276  33.455   4.656
83820W        W47577  28.479  31.964  11.878
83821W        W47578   6.920  12.785  11.906
83822W        W47579   9.268  40.925  10.959
83823W        W47580  13.804  29.007  12.436
83824W        W47581  18.050  20.246  13.311
83825W        W47582   2.865   2.353  10.622
83826W        W47583  38.429  19.594   1.813
83827W        W47584  33.579   0.753   0.414
83828W        W47585  16.675  23.694  12.091
83829W        W47586  10.272  44.930   4.617
83830W        W47587  26.466  24.673   1.357
83831W        W47588   6.754  43.311   0.471
83832W        W47589  37.433  14.262   4.292
83833W        W47590  33.568  24.001   0.268
83834W        W47591  21.229  44.273   3.248
83835W        W47592  15.326  27.191  11.561
83836W        W47593  16.135  17.300  13.802
83837W        W47594   5.265  31.976  14.846
83838W        W47595  21.711  14.620   1.765
83839W        W47596  13.199   9.152   3.336
83840W        W47597   5.789  23.614   3.747
83841W        W47598  40.398  39.910  13.950
83842W        W47599  10.741  13.164  13.926
83843W        W47600  42.792  12.615   3.230
83844W        W47601  29.647  35.028   4.628
83845W        W47602  40.010  31.949   1.798
83846W        W47603  40.451  23.663  14.866
83847W        W47604  34.561  11.831   3.699
83848W        W47605   1.364   5.384  11.489
83849W        W47606   7.174  12.729   0.481
83850W        W47607  25.667  16.797  11.544
83851W        W47608  29.140   0.839  11.855
83852W        W47609  10.865  23.098  13.924
83853W        W47610  15.324  16.676  14.803
83854W        W47611  29.668  26.649  11.874
83855W        W47612  11.707  44.460  10.977
83856W        W47613  38.984  27.476   2.804
83857W        W47614  28.632  13.788   4.821
83858W        W47615  32.614  31.622   1.798
83859W        W47616  23.644  38.898  12.461
83860W        W47617  23.534   5.338   2.418
83861W        W47618  11.771  14.207  10.436
83862W        W47619  42.899  31.409   1.923
83863W        W47620  20.735  15.796   0.430
83864W        W47621   0.926  31.611  14.335
83865W        W47622  28.628  11.169  10.443
83866W        W47623  29.494   2.420  13.977
83867W        W47624  29.541  33.510   0.872
83868W        W47625  36.439   7.306  11.391
83869W        W47626  30.017  14.300  10.145
83870W        W47627  23.654  43.842   4.143
83871W        W47628  11.807  15.106  12.850
83872W        W47629  39.829  18.631   2.395
83873W        W47630   0.939  33.073   2.856
83874W        W47631  39.020  28.482   1.216
83875W        W47632  18.702  42.358  11.907
83876W        W47633  23.540   7.391  14.333
83877W        W47634  29.605  44.434  12.073
83878W        W47635  42.858  12.260   2.687
83879W        W47636   5.827  29.639   3.853
83880W        W47637  34.491   0.940   2.766
83881W        W47638  19.057  19.660  13.835
83882W        W47639   8.701  23.046  13.429
83883W        W47640  37.370   4.939  11.870
83884W        W47641  27.130   2.321  11.898
83885W        W47642  13.273  18.732   1.420
83886W        W47643  42.300  40.834  14.389
83887W        W47644   5.268  43.836  12.417
83888W        W47645  22.613  21.535  13.418
83889W        W47646  37.043   5.210  12.354
83890W        W47647  35.902  23.622   3.351
83891W        W47648   2.290  42.973   0.744
83892W        W47649  20.038  20.213   1.727
83893W        W47650  33.506   1.370  14.761
83894W        W47651  10.183  35.097  11.859
83895W        W47652   3.214  34.953   4.328
83896W        W47653  19.236  37.361  11.437
83897W        W47654  38.007  12.272   0.467
83898W        W47655   1.802  18.273  12.903
83899W        W47656   7.262  24.600  12.840
83900W        W47657  41.325   3.725  14.828
83901W        W47658  30.113   3.831  12.094
83902W        W47659  36.878  43.872  13.333
83903W        W47660  10.671  33.395   0.753
83904W        W47661  39.392  13.126   4.678
83905W        W47662  34.411   9.772   1.815
83906W        W47663  40.858   1.324  11.941
83907W        W47664  12.837  13.119   0.757
83908W        W47665  12.615  40.978  11.415
83909W        W47666  30.077  43.854   3.245
83910W        W47667   3.782  28.570   0.431
83911W        W47668  32.967  17.735  14.918
83912W        W47669  21.150  37.471   9.980
83913W        W47670  31.589  32.555  10.965
83914W        W47671  21.059  15.231   4.692
83915W        W47672  29.570  13.188  11.420
83916W        W47673   5.387   8.654  10.966
83917W        W47674  11.833  23.132  10.891
83918W        W47675   8.245  14.329   5.287
83919W        W47676  34.041  32.094   2.250
83920W        W47677  12.152   2.761  11.022
83921W        W47678   4.359  26.629   0.850
83922W        W47679  13.156  34.413  12.954
83923W        W47680  19.138  17.706  10.526
83924W        W47681  12.622  20.141   2.390
83925W        W47682   9.743  25.994   3.373
83926W        W47683  40.012  37.406   3.825
83927W        W47684  13.824  44.931  11.609
83928W        W47685  36.982   5.866  11.899
83929W        W47686  30.088   9.748  13.865
83930W        W47687   3.876  14.340  12.922
83931W        W47688  15.687   8.201   0.955
83932W        W47689  27.463  44.896  10.599
83933W        W47690  19.683   0.458   1.902
83934W        W47691   8.353  37.841   2.183
83935W        W47692  27.972   3.813   2.818
83936W        W47693  35.033  42.423  12.471
83937W        W47694  27.511  11.730   2.405
83938W        W47695  28.015  25.097   3.769
83939W        W47696  43.395  41.864  12.981
83940W        W47697  16.275  44.000  13.520
83941W        W47698  33.389  11.147  12.074
83942W        W47699   1.733   3.340  12.050
83943W        W47700  13.311  34.979   4.354
83944W        W47701  31.598   7.397  12.990
83945W        W47702  40.055  29.470  12.947
83946W        W47703  33.515   7.326   3.748
83947W        W47704  30.458  15.667  11.961
83948W        W47705  33.420  27.069  14.449
83949W        W47706  31.511  13.779   3.734
83950W        W47707   3.812  16.680   1.805
83951W        W47708   1.882  28.639  14.398
83952W        W47709   0.311   3.728   0.356
83953W        W47710  42.788  34.509  13.941
83954W        W47711  34.405   8.232  13.864
83955W        W47712  15.303   6.320  14.819
83956W        W47713  31.939  18.053  12.499
83957W        W47714   8.368  42.805   4.736
83958W        W47715  27.191   0.898  14.896
83959W        W47716  40.509  29.041  11.456
83960W        W47717  37.344  33.601  12.412
83961W        W47718  22.044  27.067  13.958
83962W        W47719   5.286  29.166   4.284
83963W        W47720  42.901  43.775   0.276
83964W        W47721   0.384  37.947  12.078
83965W        W47722   1.847  11.360  10.946
83966W        W47723  33.043   2.455   4.257
83967W        W47724  25.536  12.778  14.910
83968W        W47725  20.129   8.737  14.781
83969W        W47726  41.805  13.629  14.897
83970W        W47727   8.685  29.541  14.779
83971W        W47728  23.717  12.251  13.439
83972W        W47729  11.322  10.243   2.409
83973W        W47730   0.840  32.009  11.502
83974W        W47731  12.764  41.377   4.229
83975W        W47732  28.152  32.979   4.257
83976W        W47733   5.303  19.652  12.453
83977W        W47734  37.463  18.242   0.920
83978W        W47735  13.257  15.649   0.829
83979W        W47736  25.688   5.212   2.317
83980W        W47737  36.474  40.451  11.442
83981W        W47738  21.755  15.121  14.885
83982W        W47739  26.092   3.306   1.892
83983W        W47740  30.498  36.002  12.985
83984W        W47741  23.176  41.501  11.949
83985W        W47742  19.207   3.372  11.079
83986W        W47743  15.735   1.313  11.109
83987W        W47744   2.924  21.156   1.341
83988W        W47745  31.018  10.169   0.957
83989W        W47746  32.592  22.139   0.481
83990W        W47747   8.768  30.599   1.315
83991W        W47748   8.179  16.571  14.483
83992W        W47749  12.305  18.683   2.693
83993W        W47750  29.138   9.149  12.036
83994W        W47751  20.142  43.765   1.805
83995W        W47752  13.687  12.281  12.984
83996W        W47753  11.763   6.271  12.946
83997W        W47754  23.569   6.889   0.943
83998W        W47755  16.585   6.822  10.943
83999W        W47756   1.813  39.033  12.020
84000W        W47757  32.132  25.164  12.354
84001W        W47758   1.868  35.020   1.253
84002W        W47759  39.861  27.670   4.118
84003W        W47760   4.790  11.663  14.458
84004W        W47761  21.708  13.211   2.793
84005W        W47762  28.460  36.083   1.429
84006W        W47763  19.710  41.376   1.798
84007W        W47764  27.955  12.734  10.069
84008W        W47765  35.565  44.346  12.573
84009W        W47766  30.594  20.212   2.321
84010W        W47767  31.126  12.700  14.963
84011W        W47768   8.348   3.768   4.690
84012W        W47769   8.719  22.571  13.399
84013W        W47770   3.240  43.953  12.008
84014W        W47771  21.170   1.946   3.681
84015W        W47772  42.296  21.581   4.769
84016W        W47773  32.056  27.013  10.587
84017W        W47774  12.687  42.344   3.267
84018W        W47775  44.302   8.836  10.517
84019W        W47776  40.359  33.604  13.498
84020W        W47777  27.563  42.505  14.418
84021W        W47778  18.700  41.452  14.340
84022W        W47779  16.215  25.103  14.337
84023W        W47780  15.766  27.100   0.747
84024W        W47781   0.788  35.906   4.290
84025W        W47782  24.990  38.408   3.812
84026W        W47783  19.112   1.782  14.835
84027W        W47784   5.772   0.940   0.909
84028W        W47785  36.460  22.533  13.976
84029W        W47786  33.028  25.562  14.902
84030W        W47787   5.363  42.510   2.837
84031W        W47788  43.426  24.725  14.867
84032W        W47789   8.724  22.142   1.281
84033W        W47790  16.204  42.897  14.785
84034W        W47791   9.286  34.568  12.493
84035W        W47792  16.139  28.036   1.389
84036W        W47793  13.306  39.544   1.919
84037W        W47794  15.629  32.595  14.367
84038W        W47795  39.364  13.749  14.982
84039W        W47796   0.975  24.666   4.126
84040W        W47797   8.281  20.734   1.356
84041W        W47798  32.560   2.241  10.444
84042W        W47799   5.264  13.207  13.891
84043W        W47800  41.857  17.574   0.777
84044W        W47801  17.782  31.544   0.835
84045W        W47802  43.294  39.952   1.401
84046W        W47803  24.130  34.118  14.446
84047W        W47804   8.355  29.658  13.509
84048W        W47805  39.476   9.835   4.651
84049W        W47806  29.937   2.836   3.383
84050W        W47807  11.667   6.894  11.015
84051W        W47808  25.518   3.355   4.730
84052W        W47809  35.484  23.070   4.708
84053W        W47810   0.911  35.505   1.439
84054W        W47811  37.912  16.228  14.979
84055W        W47812  24.594   3.887  14.933
84056W        W47813  10.158  35.980   4.823
84057W        W47814  38.327  24.630   2.715
84058W        W47815  13.337   5.737  11.119
84059W        W47816   5.751  14.824   4.227
84060W        W47817  20.188  31.536   1.256
84061W        W47818  43.834  42.889  14.855
84062W        W47819  26.953  13.776  13.467
84063W        W47820  34.446   3.324  13.908
84064W        W47821  35.524   3.232  14.922
84065W        W47822  13.305  27.507   0.410
84066W        W47823  14.158   3.779  11.384
84067W        W47824  39.008  35.420  11.371
84068W        W47825  14.777  37.993  12.460
84069W        W47826  27.150  31.526   0.924
84070W        W47827   3.283  41.441  14.903
84071W        W47828  42.906  34.607   0.418
84072W        W47829  16.691  36.531  14.805
84073W        W47830  16.199   6.320  12.014
84074W        W47831  38.532  39.943   1.814
84075W        W47832  25.533   8.308   2.225
84076W        W47833  39.387   7.896  12.081
84077W        W47834  25.090  41.327  14.447
84078W        W47835  18.565  24.087   3.365
84079W        W47836  13.282  27.063  13.524
84080W        W47837  29.600   8.395   2.835
84081W        W47838  43.276  12.828   3.745
84082W        W47839  34.890   6.678   0.936
84083W        W47840  18.245   7.824  13.833
84084W        W47841  12.190  19.574   1.770
84085W        W47842  35.975  42.458  14.502
84086W        W47843  39.911  20.652  10.891
84087W        W47844  16.570  35.860   2.249
84088W        W47845  30.998  39.360  12.833
84089W        W47846  15.605  32.524  12.481
84090W        W47847   5.734  32.630   1.267
84091W        W47848  22.554  42.899  14.887
84092W        W47849  41.388  41.982   4.278
84093W        W47850  34.420  29.606   3.825
84094W        W47851  29.018  43.447   4.711
84095W        W47852  39.400   5.244   4.219
84096W        W47853  12.294  22.135  13.377
84097W        W47854  13.833   6.232  11.590
84098W        W47855  23.205  39.975  14.348
84099W        W47856  28.016  31.918  11.969
84100W        W47857  34.582  41.943   2.833
84101W        W47858  38.380  19.771  14.777
84102W        W47859   8.338  40.426  11.521
84103W        W47860  35.399  21.740  12.418
84104W        W47861  43.287  41.998   1.229
84105W        W47862  12.736   9.731  12.578
84106W        W47863  16.629  42.291   4.176
84107W        W47864  34.021  41.975  13.535
84108W        W47865  39.862  11.144  13.457
84109W        W47866  14.288  22.699   3.163
84110W        W47867  27.580  37.836   1.221
84111W        W47868  17.296  25.101   3.664
84112W        W47869  19.121  33.999   1.739
84113W        W47870  39.410   0.746  13.931
84114W        W47871  36.946  41.444  14.948
84115W        W47872  19.102  30.050   1.769
84116W        W47873  11.366  34.017  11.099
84117W        W47874  20.196   9.319   4.289
84118W        W47875   5.263   4.941  13.999
84119W        W47876  22.119  33.439  12.349
84120W        W47877  41.922  31.474   2.751
84121W        W47878  14.595   8.747   3.251
84122W        W47879   7.842  31.079  13.414
84123W        W47880  18.291  41.853   4.160
84124W        W47881  30.959  40.929  14.025
84125W        W47882  19.206  17.663   4.648
84126W        W47883  24.229  36.425  10.946
84127W        W47884  12.192  30.149   1.399
84128W        W47885  25.663  17.174  10.097
84129W        W47886  27.080   9.700  14.957
84130W        W47887   1.926  31.120  13.988
84131W        W47888   2.820   4.266  12.389
84132W        W47889   8.207  35.962  11.564
84133W        W47890   0.485  29.483   3.693
84134W        W47891   9.699  14.743   3.223
84135W        W47892  13.185  37.049  14.338
84136W        W47893  37.385   5.214   2.263
84137W        W47894  29.043   2.417  11.956
84138W        W47895  43.403  44.335  13.320
84139W        W47896  24.545  10.859  13.907
84140W        W47897   8.700  31.094  14.386
84141W        W47898  17.069  27.174  13.936
84142W        W47899  27.037  14.809  11.394
84143W        W47900  27.010  25.558   0.941
84144W        W47901  39.958  43.768  11.982
84145W        W47902  39.815  11.781  11.462
84146W        W47903   8.312  32.554  11.385
84147W        W47904  23.621  34.514  12.557
84148W        W47905  37.451  30.470  11.102
84149W        W47906   9.151   8.340  11.539
84150W        W47907  43.893  35.097  14.822
84151W        W47908  23.056  11.627   3.292
84152W        W47909  30.492  35.431  12.435
84153W        W47910  22.514  27.559   0.743
84154W        W47911  32.142  18.776  12.367
84155W        W47912  43.467  19.071  13.439
84156W        W47913   9.667  27.576   2.374
84157W        W47914  14.187  10.245  14.893
84158W        W47915  23.506  20.126   1.784
84159W        W47916  40.509  19.175  14.398
84160W        W47917  15.694  15.745  13.392
84161W        W47918  41.843  22.044  13.963
84162W        W47919   7.302  23.733  13.525
84163W        W47920   5.751  36.086  11.541
84164W        W47921  37.457  43.941  11.007
84165W        W47922  26.200   9.737   2.197
84166W        W47923  30.930  25.074  13.796
84167W        W47924   0.429  20.105   2.370
84168W        W47925   7.399  16.583  11.027
84169W        W47926  38.405   7.847  11.023
84170W        W47927  26.005  37.468  13.373
84171W        W47928   7.229  18.664   1.921
84172W        W47929  27.076  12.613   3.385
84173W        W47930   3.867   1.882   0.389
84174W        W47931   1.969  38.534   4.730
84175W        W47932  24.147  16.688   2.665
84176W        W47933  15.693  41.323  12.457
84177W        W47934  12.297  30.416   0.422
84178W        W47935   8.286  41.405  11.380
84179W        W47936  25.615  33.077   3.771
84180W        W47937  41.322  44.259   0.312
84181W        W47938   2.783   4.811  12.412
84182W        W47939  30.542  24.639   3.347
84183W        W47940  20.218   7.332   1.870
84184W        W47941  30.438   1.934  13.308
84185W        W47942   7.374  36.452   4.729
84186W        W47943  35.048  18.181   1.879
84187W        W47944  14.684  36.963   0.315
84188W        W47945  26.550   2.328  10.436
84189W        W47946  34.071  31.027  12.567
84190W        W47947  39.431  17.256  14.890
84191W        W47948  42.385  42.871  14.972
84192W        W47949  39.849  16.279  13.933
84193W        W47950  11.339  44.358   1.295
84194W        W47951  32.117  41.486   2.724
84195W        W47952  15.088  33.080   2.693
84196W        W47953  38.859  34.960   4.739
84197W        W47954   4.328   1.331   1.282
84198W        W47955  40.464  43.336   2.201
84199W        W47956  16.316  31.991  13.823
84200W        W47957  25.559  35.414   1.715
84201W        W47958  34.479  13.323  14.479
84202W        W47959  26.064  13.264  12.415
84203W        W47960  18.717  37.860   0.841
84204W        W47961  43.985  27.035  11.906
84205W        W47962  30.023  39.334  13.997
84206W        W47963  23.563  12.847  11.949
84207W        W47964  36.889   6.700   4.178
84208W        W47965  17.163  20.604   4.694
84209W        W47966  17.125  23.090   1.835
84210W        W47967  13.226  44.398  11.005
84211W        W47968  25.134  26.698   3.651
84212W        W47969  39.382   8.286   1.892
84213W        W47970  41.937   8.672   3.767
84214W        W47971  21.027  14.193   4.352
84215W        W47972  26.154   1.253   4.155
84216W        W47973  10.674  38.919  11.380
84217W        W47974   9.788  17.074  12.063
84218W        W47975  34.435  10.170   1.788
84219W        W47976  32.416  18.052  13.409
84220W        W47977  42.899   6.865   1.257
84221W        W47978   3.956  36.393  14.907
84222W        W47979  14.320  20.753  14.399
84223W        W47980  42.998  21.117   1.711
84224W        W47981   5.893  28.967   4.693
84225W        W47982  33.964  42.509  12.843
84226W        W47983  32.069  10.277  13.418
84227W        W47984  34.440  23.194   4.660
84228W        W47985   7.204  36.462   2.192
84229W        W47986  19.214  34.501  11.098
84230W        W47987  30.965  24.658  13.985
84231W        W47988  38.883  37.915  12.393
84232W        W47989   2.881  17.220   0.458
84233W        W47990   0.923   0.920  13.339
84234W        W47991  12.719  29.564   4.216
84235W        W47992  18.637  41.486  11.034
84236W        W47993   9.651  26.062   2.357
84237W        W47994  40.331  23.220  10.973
84238W        W47995  27.681  41.017  14.871
84239W        W47996   4.862  23.577  13.946
84240W        W47997  34.896  15.086  14.983
84241W        W47998   2.756  11.190   2.703
84242W        W47999  31.579  35.926   4.609
84243W        W48000   4.424   9.694  14.779
84244W        W48001  36.545  34.447  13.833
84245W        W48002  30.524   1.960  10.452
84246W        W48003  19.128  25.179  11.451
84247W        W48004  34.923  28.119  11.070
84248W        W48005  11.857   5.844   0.296
84249W        W48006  12.160   3.279  14.429
84250W        W48007  34.587  32.558  12.451
84251W        W48008  13.843  11.828  10.502
84252W        W48009  40.399  32.025   0.847
84253W        W48010  34.038  44.930  12.870
84254W        W48011  36.469  19.231   4.133
84255W        W48012  29.004  36.024   1.880
84256W        W48013  39.036  10.311  10.581
84257W        W48014  31.519  18.211  11.030
84258W        W48015  39.048  40.942   2.896
84259W        W48016   6.773  27.943  10.920
84260W        W48017  17.287  40.314   1.894
84261W        W48018  31.403  26.033   1.741
84262W        W48019  43.310  35.903   5.210
84263W        W48020  16.729  20.221  13.437
84264W        W48021   8.173   5.774   0.927
84265W        W48022  14.101  31.536   4.793
84266W        W48023  40.308  32.425  13.902
84267W        W48024   7.824  36.553   3.235
84268W        W48025   6.715   2.819   3.333
84269W        W48026  41.331  31.568   4.176
84270W        W48027   6.744  32.964  12.887
84271W        W48028  36.523  38.853   1.725
84272W        W48029  36.493  11.636   4.812
84273W        W48030   7.309  32.115  12.919
84274W        W48031  28.669  18.683  10.905
84275W        W48032   5.278  17.651   4.774
84276W        W48033  43.341  43.843   1.747
84277W        W48034  30.590  40.995   0.751
84278W        W48035  27.996  10.790  14.818
84279W        W48036  23.037  36.096   2.804
84280W        W48037  25.995  38.965   1.431
84281W        W48038  22.665  20.164  13.343
84282W        W48039  11.313  44.397   3.250
84283W        W48040   9.286  11.200   4.271
84284W        W48041  19.597   9.837   0.849
84285W        W48042  22.076   5.406   2.382
84286W        W48043  37.920  30.644  14.384
84287W        W48044  31.624   1.273   2.709
84288W        W48045  37.908  33.434   3.207
84289W        W48046   8.697  26.010   2.730
84290W        W48047  35.589   6.887   2.203
84291W        W48048  44.414  17.647  11.380
84292W        W48049   2.785  32.926  13.504
84293W        W48050  29.614  18.671  10.018
84294W        W48051  19.210  17.640   3.693
84295W        W48052  44.771  35.960  13.479
84296W        W48053  39.809   9.776  13.475
84297W        W48054  41.531  35.373  12.084
84298W        W48055  13.122   3.802  13.326
84299W        W48056  38.553  10.766   3.826
84300W        W48057  18.634  40.958  11.394
84301W        W48058  33.957  19.762   1.853
84302W        W48059   2.463  34.536  13.814
84303W        W48060   9.361   4.335  11.414
84304W        W48061  29.996   5.805   2.380
84305W        W48062  32.028  44.268   3.726
84306W        W48063   6.814  40.049  10.906
84307W        W48064  18.190  24.722  13.412
84308W        W48065  15.313  35.380   2.229
84309W        W48066  26.163   1.739  11.590
84310W        W48067  26.527  30.501   1.876
84311W        W48068  44.363   6.778  14.411
84312W        W48069  32.904  41.866  12.406
84313W        W48070   0.449  12.182   3.858
84314W        W48071  34.527   0.444   1.238
84315W        W48072  25.674  10.156  10.581
84316W        W48073  21.077  24.109   0.761
84317W        W48074  11.299  36.518  12.878
84318W        W48075  30.027  39.482   3.347
84319W        W48076   9.727  17.753  12.824
84320W        W48077  35.392  35.584   0.854
84321W        W48078   0.957  44.412   0.343
84322W        W48079  12.692  21.154   1.932
84323W        W48080  18.682  22.588   0.314
84324W        W48081  42.315  43.433   4.192
84325W        W48082  42.894  44.351   3.247
84326W        W48083  43.491  17.223  12.404
84327W        W48084   4.790  15.796  12.023
84328W        W48085  39.429  13.194   2.254
84329W        W48086  40.509  28.947   1.307
84330W        W48087   8.225  39.898   4.127
84331W        W48088   4.252  43.005   4.147
84332W        W48089  39.479  37.436   1.714
84333W        W48090  40.032  30.115  11.922
84334W        W48091   4.709   5.830  13.045
84335W        W48092  18.120  21.050   1.361
84336W        W48093  41.028  37.471  14.472
84337W        W48094  33.609  24.149   1.325
84338W        W48095  15.612  25.631  14.861
84339W        W48096   2.933   6.419  11.111
84340W        W48097  30.567   6.221  12.918
84341W        W48098   5.287  22.127   0.305
84342W        W48099  14.172   0.796  10.616
84343W        W48100  39.445  32.432   2.663
84344W        W48101  24.114  16.242   2.717
84345W        W48102  34.409  19.700   4.346
84346W        W48103  23.688  41.529  12.463
84347W        W48104  29.007  17.153   5.269
84348W        W48105  16.245  28.632   4.738
84349W        W48106  19.112   6.683   2.331
84350W        W48107   6.319  32.105   2.695
84351W        W48108  32.539  11.800  11.582
84352W        W48109  36.945  27.115  11.928
84353W        W48110  43.918  37.066   2.371
84354W        W48111  30.598   0.420   1.836
84355W        W48112  43.809  25.591  11.934
84356W        W48113  30.514  40.524   1.227
84357W        W48114  11.182   8.710  13.006
84358W        W48115   0.422  37.370  13.547
84359W        W48116  44.414  35.512  14.831
84360W        W48117  14.713   8.290  14.830
84361W        W48118  33.068  23.704  13.403
84362W        W48119  10.765   8.188   2.687
84363W        W48120  27.153  23.181   4.186
84364W        W48121  10.821  33.965  12.064
84365W        W48122  15.696   6.275  11.898
84366W        W48123  18.590  31.405  11.991
84367W        W48124  15.206   6.400   2.782
84368W        W48125   9.762  35.385   1.287
84369W        W48126  32.930   9.794  10.564
84370W        W48127   0.467  26.038  12.550
84371W        W48128  34.949  17.636  13.352
84372W        W48129  12.648  20.578   1.867
84373W        W48130   3.364  35.997  13.311
84374W        W48131  20.087  24.656   4.669
84375W        W48132   0.753   2.874   1.340
84376W        W48133   4.225   0.974   4.340
84377W        W48134  37.538  23.071  10.918
84378W        W48135  36.457   0.883  14.457
84379W        W48136  32.970  11.788   1.425
84380W        W48137  41.788   6.214  13.890
84381W        W48138  41.907  42.446  11.565
84382W        W48139   1.812  23.216   0.734
84383W        W48140   2.419  15.135  14.468
84384W        W48141  21.107   7.682  13.488
84385W        W48142  44.005  33.405   0.750
84386W        W48143  20.257  18.548  12.958
84387W        W48144   7.807  38.483   2.815
84388W        W48145  18.215  15.583  11.001
84389W        W48146   0.783  34.596  12.576
84390W        W48147  40.513  26.610   1.835
84391W        W48148   9.823  18.655   3.719
84392W        W48149   9.267  42.289  11.944
84393W        W48150  30.123  26.065   2.881
84394W        W48151  16.663  42.338  14.413
84395W        W48152  25.573   5.804   3.190
84396W        W48153   5.718  40.804  11.038
84397W        W48154  10.339  22.612   4.732
84398W        W48155   3.378  18.110   3.671
84399W        W48156  36.023  26.520  12.566
84400W        W48157  37.050  23.674  12.939
84401W        W48158  10.654  17.130  13.514
84402W        W48159  39.910  25.518  13.026
84403W        W48160  19.258  39.062   3.335
84404W        W48161  38.441  26.071  10.644
84405W        W48162  44.009  27.601  12.363
84406W        W48163  16.592   5.760  13.458
84407W        W48164  14.707  26.199  11.505
84408W        W48165  38.063  17.177  11.046
84409W        W48166  34.899  42.904   4.692
84410W        W48167  21.245  16.689  14.989
84411W        W48168  18.721  12.820   5.105
84412W        W48169  43.419   7.667  14.829
84413W        W48170   6.326  43.800   5.199
84414W        W48171  25.558  35.399  13.932
84415W        W48172  26.588   4.823   1.400
84416W        W48173   6.230  38.865   2.417
84417W        W48174   3.914  13.230   4.617
84418W        W48175  37.545  10.685  14.283
84419W        W48176  36.017  32.008   0.441
84420W        W48177  10.776  19.662  13.014
84421W        W48178  34.016  34.873   4.818
84422W        W48179  12.813   0.281   1.930
84423W        W48180  29.431  12.686   0.328
84424W        W48181  12.616  30.129  11.449
84425W        W48182  21.190  28.985   2.821
84426W        W48183  41.987  28.040   2.401
84427W        W48184  43.980  18.753  13.517
84428W        W48185   9.847  13.252  11.974
84429W        W48186   4.767   5.368   0.471
84430W        W48187  12.712  32.131  12.023
84431W        W48188  30.579   7.397   1.765
84432W        W48189  26.032  24.019   1.327
84433W        W48190  42.484   2.317  11.524
84434W        W48191   9.172  35.034  12.934
84435W        W48192  15.750  22.145  11.956
84436W        W48193  42.397   1.361  12.928
84437W        W48194  35.582   2.374   2.760
84438W        W48195  20.675  18.293  14.872
84439W        W48196  17.565   4.740  11.420
84440W        W48197  13.661  36.883  12.946
84441W        W48198   6.707  33.916   1.800
84442W        W48199  27.592  39.990   3.226
84443W        W48200  13.689  22.697  11.910
84444W        W48201   4.862  12.335   2.753
84445W        W48202  43.448  19.707   4.113
84446W        W48203  44.310  28.968  12.934
84447W        W48204  42.824  34.521   3.638
84448W        W48205  25.698  22.596  11.893
84449W        W48206  10.672  42.030  13.475
84450W        W48207   0.397  23.187  12.373
84451W        W48208  19.538  25.970   4.785
84452W        W48209  34.068  39.823  10.924
84453W        W48210  11.149  30.008  13.923
84454W        W48211   4.299  34.513  14.476
84455W        W48212  12.324  18.122   1.293
84456W        W48213  15.747   2.252   3.707
84457W        W48214   3.727  39.395  10.513
84458W        W48215   0.817  16.728  12.575
84459W        W48216  37.072  15.147  11.894
84460W        W48217  41.357  27.121  13.325
84461W        W48218  26.630   0.802   0.409
84462W        W48219  26.126   5.768   0.914
84463W        W48220  40.956  14.698  10.929
84464W        W48221   8.231   8.729  13.379
84465W        W48222  11.302  13.658  11.919
84466W        W48223   3.379  20.563  11.465
84467W        W48224  14.831   5.285  11.510
84468W        W48225  38.407  35.946   0.307
84469W        W48226   5.273   6.782   1.829
84470W        W48227   6.831  40.419   3.668
84471W        W48228  29.031  29.048   0.846
84472W        W48229  43.480  30.999   2.815
84473W        W48230  21.749  34.590   2.295
84474W        W48231  35.056   8.205  12.490
84475W        W48232  37.882   2.933   1.217
84476W        W48233  22.516   1.945  13.508
84477W        W48234  28.022  41.016   3.224
84478W        W48235  44.376  16.801   0.263
84479W        W48236  14.646   9.666   4.195
84480W        W48237  39.922  36.966   3.774
84481W        W48238  38.371  20.669   0.736
84482W        W48239   5.240  26.684  10.898
84483W        W48240   1.372  19.252   3.648
84484W        W48241  13.603  12.741   0.462
84485W        W48242  16.645   8.876   3.294
84486W        W48243   8.327  42.978   3.663
84487W        W48244  44.369   9.360  13.336
84488W        W48245  27.474  13.331  10.082
84489W        W48246  33.115   9.714   4.649
84490W        W48247  15.089  20.570  12.045
84491W        W48248  15.629  25.981   3.291
84492W        W48249  44.893   7.207  10.888
84493W        W48250   7.706  32.963   0.302
84494W        W48251  18.243  14.267  10.932
84495W        W48252  37.391  13.810   4.775
84496W        W48253  17.562   5.262  13.892
84497W        W48254   1.847  40.932  11.413
84498W        W48255  37.973  11.834  14.820
84499W        W48256  30.651  27.633   0.760
84500W        W48257   5.796  29.127  11.509
84501W        W48258  12.710  31.069   1.375
84502W        W48259  35.954  13.251   3.323
84503W        W48260   8.275   1.893   0.890
84504W        W48261   3.814  30.566  12.994
84505W        W48262  41.297  31.937  10.014
84506W        W48263  31.911  37.567  11.029
84507W        W48264   5.871  10.879  13.983
84508W        W48265  37.951  18.623   1.829
84509W        W48266  12.299  29.127   2.408
84510W        W48267  29.429  35.496   3.770
84511W        W48268   2.901  37.433  13.858
84512W        W48269   8.187   8.786   4.165
84513W        W48270  13.638  30.577   4.207
84514W        W48271  20.753  13.648   3.650
84515W        W48272   2.394  12.634   2.267
84516W        W48273  13.759   0.334   1.697
84517W        W48274  20.637  35.538   2.668
84518W        W48275  18.131  11.209  11.374
84519W        W48276   8.264  34.903   4.814
84520W        W48277  40.522   8.762   0.884
84521W        W48278  44.974  25.168  12.044
84522W        W48279   9.709  10.794   4.169
84523W        W48280  21.747   4.393   1.779
84524W        W48281  38.061   0.942  11.902
84525W        W48282   5.788  20.133   4.755
84526W        W48283  41.303  28.169   0.399
84527W        W48284  28.646   2.433   3.828
84528W        W48285   6.253  35.924  10.947
84529W        W48286  42.029  44.264   0.754
84530W        W48287  44.787  18.225   4.800
84531W        W48288  14.652  33.601  13.805
84532W        W48289   3.301   6.833  11.891
84533W        W48290  23.137  29.957  13.054
84534W        W48291  29.112  32.561   2.738
84535W        W48292  30.002  18.222  13.006
84536W        W48293  32.902  26.162   1.866
84537W        W48294  39.028  22.522  13.475
84538W        W48295   0.263  28.512   1.838
84539W        W48296   9.352  11.776   4.616
84540W        W48297  10.740  16.222  10.894
84541W        W48298  10.713   3.815  13.838
84542W        W48299   4.928  20.267  11.950
84543W        W48300  31.909  44.763   4.793
84544W        W48301   1.242  28.600  11.024
84545W        W48302  25.994   1.895   2.843
84546W        W48303  14.320  33.116  14.454
84547W        W48304  28.147  34.552   3.675
84548W        W48305  38.020   0.408  13.995
84549W        W48306  41.353  17.158  14.303
84550W        W48307  13.615  20.716  11.506
84551W        W48308  40.974   5.238  11.580
84552W        W48309  14.740  29.105  14.453
84553W        W48310  14.794  18.620  13.907
84554W        W48311   0.323  12.275  10.500
84555W        W48312   1.309  39.015  14.990
84556W        W48313   4.742   0.350   0.478
84557W        W48314  29.636  14.293  12.060
84558W        W48315  35.050  15.819  14.311
84559W        W48316  16.075  32.461   0.869
84560W        W48317   3.809  22.712   0.364
84561W        W48318  42.412  16.741   2.680
84562W        W48319  44.011   7.812   2.406
84563W        W48320   4.817  32.510  13.940
84564W        W48321  23.625  36.019  13.892
84565W        W48322  24.693  23.646  11.040
84566W        W48323   5.910  19.629  12.372
84567W        W48324  19.646  15.636  12.070
84568W        W48325  42.787  28.653   3.730
84569W        W48326  30.626  20.736  11.544
84570W        W48327   1.954  23.490  11.602
84571W        W48328  21.574  22.211   0.318
84572W        W48329  27.961  37.499   9.933
84573W        W48330  13.759  28.095  12.065
84574W        W48331  19.209  11.254   3.739
84575W        W48332  42.989   0.908  13.881
84576W        W48333   7.697  44.794  14.292
84577W        W48334  11.635  25.112   0.276
84578W        W48335  28.636  13.344  13.522
84579W        W48336   7.706  18.567  10.142
84580W        W48337  23.502  27.660  11.377
84581W        W48338  11.150  38.904  10.410
84582W        W48339  23.675  25.666  12.370
84583W        W48340   8.745  15.246  14.904
84584W        W48341  43.397  24.175   3.328
84585W        W48342  32.431  33.928  12.445
84586W        W48343   0.798  41.800   0.355
84587W        W48344  15.302  10.834   4.153
84588W        W48345  24.564  38.491   1.906
84589W        W48346   6.893  39.033   1.289
84590W        W48347  43.932  39.919   4.248
84591W        W48348  16.724  34.100  13.479
84592W        W48349  16.223  32.899  10.488
84593W        W48350   2.323  37.360  12.388
84594W        W48351  29.564  33.489  10.620
84595W        W48352   6.870   9.888   0.796
84596W        W48353  13.181   3.334   4.645
84597W        W48354  24.525   2.840  10.922
84598W        W48355  41.493  34.526  12.417
84599W        W48356  20.211  33.394   5.680
84600W        W48357  10.827  13.751   1.306
84601W        W48358  38.449  32.429  11.077
84602W        W48359  11.777   5.368  11.119
84603W        W48360  11.633  37.400  10.578
84604W        W48361   6.259   0.462  10.938
84605W        W48362  40.028  44.320  14.397
84606W        W48363  29.649   1.310  12.908
84607W        W48364  41.879  17.767   3.791
84608W        W48365   9.652  34.101  11.547
84609W        W48366  15.252  21.200   4.709
84610W        W48367  30.077  30.938   2.194
84611W        W48368  11.770  44.971  10.923
84612W        W48369  10.717   2.241  11.912
84613W        W48370  11.759  29.630  14.967
84614W        W48371  19.148  39.977   4.221
84615W        W48372  16.180   5.845  14.929
84616W        W48373  17.730  19.072  11.529
84617W        W48374  13.804  19.179  11.604
84618W        W48375  30.948  21.130   2.751
84619W        W48376  35.939  42.809   5.254
84620W        W48377  31.524  25.695   4.138
84621W        W48378  29.005  32.104   5.196
84622W        W48379  42.027  43.990  14.942
84623W        W48380   3.728  16.671   0.403
84624W        W48381  26.047  43.829  12.965
84625W        W48382  20.612  17.069   3.784
84626W        W48383  26.047  11.685  12.463
84627W        W48384  26.085  13.779   9.999
84628W        W48385  20.202  34.471  11.014
84629W        W48386  34.079  32.587  12.522
84630W        W48387   3.447  30.417  12.392
84631W        W48388  29.922  38.334   3.314
84632W        W48389  36.851   2.933  11.604
84633W        W48390   6.738  12.231   2.830
84634W        W48391  37.471  33.418  10.449
84635W        W48392  22.168   9.733  12.033
84636W        W48393  39.853  39.821  12.916
84637W        W48394  34.076  30.636  13.987
84638W        W48395  42.336  14.809  10.542
84639W        W48396  38.350  25.156   1.906
84640W        W48397   4.247  37.031  14.421
84641W        W48398  44.372  13.322   3.160
84642W        W48399  37.437  11.801  11.989
84643W        W48400   9.310   3.253  14.852
84644W        W48401   0.969  18.149  12.885
84645W        W48402   1.408  40.029  14.834
84646W        W48403  17.186   1.267   5.258
84647W        W48404  24.673  26.084  12.090
84648W        W48405  43.300   7.337  10.004
84649W        W48406   6.773  35.357  11.874
84650W        W48407  29.525  36.526  10.915
84651W        W48408  34.909  34.473   2.327
84652W        W48409   0.479  11.178   4.741
84653W        W48410   7.759  22.720   0.918
84654W        W48411  39.453  31.505   3.693
84655W        W48412   4.851  14.269  10.960
84656W        W48413  34.010  16.747   4.164
84657W        W48414  11.821  12.117   2.327
84658W        W48415  17.711  30.632  10.912
84659W        W48416   6.203  11.326  14.840
84660W        W48417  24.176  41.291   9.974
84661W        W48418  32.537   0.987  12.093
84662W        W48419  41.799  32.957  11.098
84663W        W48420  12.126  30.137  11.921
84664W        W48421  41.343  24.078  12.858
84665W        W48422  13.676  20.530   3.157
84666W        W48423  42.889  15.209  12.065
84667W        W48424  27.996  29.660  14.786
84668W        W48425  21.170   6.331   1.701
84669W        W48426  20.230  18.703   4.206
84670W        W48427  17.202   4.872  11.075
84671W        W48428   1.309  23.577  11.584
84672W        W48429  29.025  18.274   4.728
84673W        W48430  28.138  41.487   4.292
84674W        W48431  38.498  38.933  11.588
84675W        W48432  21.066  41.851   4.230
84676W        W48433  19.043  24.027   3.159
84677W        W48434  19.260   4.229  12.374
84678W        W48435  22.546  11.640   5.171
84679W        W48436   7.391  39.505   3.171
84680W        W48437  12.705  37.836   1.880
84681W        W48438  17.750  39.327   2.396
84682W        W48439  40.961  14.177  12.870
84683W        W48440   5.427  27.558  10.539
84684W        W48441  16.656  11.781  13.865
84685W        W48442   8.217  38.959   0.727
84686W        W48443  41.845   7.386  14.439
84687W        W48444  15.297  14.638  14.826
84688W        W48445  40.343  29.598   1.278
84689W        W48446  12.748  29.636   0.444
84690W        W48447   9.230  32.405  10.413
84691W        W48448  38.028  11.708  13.054
84692W        W48449  27.471  44.319  13.932
84693W        W48450  22.064  23.180  12.841
84694W        W48451  25.101  42.289   4.217
84695W        W48452   2.740  19.588  11.091
84696W        W48453  10.733   7.208   3.699
84697W        W48454  39.029   2.387  11.514
84698W        W48455  19.208  20.675  11.387
84699W        W48456  41.529  27.680   0.468
84700W        W48457  35.902  11.287   2.202
84701W        W48458  23.076  42.830  11.858
84702W        W48459  30.910  39.377  10.474
84703W        W48460  31.130  13.270   1.444
84704W        W48461  27.127  19.593  13.388
84705W        W48462  22.725  25.534   4.779
84706W        W48463  32.548  42.424  13.906
84707W        W48464   5.257  43.834  10.936
84708W        W48465  24.643   0.926   1.921
84709W        W48466   6.388  23.614  14.481
84710W        W48467  33.889  25.078   4.237
84711W        W48468  41.306  13.816  11.899
84712W        W48469  36.396   6.246  12.457
84713W        W48470   6.889  27.161   4.249
84714W        W48471  10.716  28.569  14.309
84715W        W48472  30.452  44.821   2.354
84716W        W48473  33.950  22.205  14.956
84717W        W48474  34.954  24.715  11.868
84718W        W48475  36.425   8.867  14.322
84719W        W48476  39.400  21.547   0.949
84720W        W48477   0.462  10.831   2.897
84721W        W48478   1.461  11.729  11.971
84722W        W48479  13.274  17.751  10.596
84723W        W48480   5.273  37.430   1.378
84724W        W48481  18.164   1.740  11.911
84725W        W48482  39.813  27.656   4.718
84726W        W48483  25.693  10.684   0.361
84727W        W48484  14.215  11.806   5.222
84728W        W48485   0.279  18.570   4.723
84729W        W48486  41.346  32.534   3.191
84730W        W48487  13.755  26.984  13.503
84731W        W48488  37.446  22.642  12.882
84732W        W48489  28.523  12.118   1.835
84733W        W48490   1.347  24.193   0.440
84734W        W48491  32.456  39.961  13.371
84735W        W48492  37.392  20.170  13.335
84736W        W48493   0.771  25.492  13.953
84737W        W48494  15.166  22.054   1.773
84738W        W48495  10.297   0.943   2.819
84739W        W48496  16.758  17.239   1.743
84740W        W48497  25.662  27.625   1.729
84741W        W48498   2.438  30.924  13.924
84742W        W48499  30.638  29.548  14.336
84743W        W48500  10.671   6.266  13.809
84744W        W48501  20.713  32.012  14.764
84745W        W48502   5.228  18.788  12.909
84746W        W48503  41.407  16.727   3.773
84747W        W48504   3.780  13.629  13.541
84748W        W48505  15.751  29.096   4.727
84749W        W48506  23.641  27.487   4.305
84750W        W48507  44.398  31.915   0.380
84751W        W48508   9.197   0.984   0.887
84752W        W48509   5.255  16.286   2.891
84753W        W48510  16.740  11.317   1.811
84754W        W48511  16.282  27.105   2.207
84755W        W48512  41.949  11.741   2.900
84756W        W48513  41.934  17.787  12.376
84757W        W48514  41.381   0.485  11.527
84758W        W48515  20.129  33.556   3.739
84759W        W48516  39.984  33.907   3.198
84760W        W48517  11.713  12.679   2.772
84761W        W48518   7.810  28.931  10.048
84762W        W48519   6.318  41.011   0.401
84763W        W48520   2.917  22.577  12.998
84764W        W48521   6.406  43.404   5.699
84765W        W48522   8.795  35.545   4.773
84766W        W48523  11.175  39.405   2.703
84767W        W48524  21.098   9.823  14.429
84768W        W48525  43.374   1.876  13.920
84769W        W48526  39.478  36.522   4.186
84770W        W48527  31.414  25.490   0.814
84771W        W48528  43.348   9.697   1.376
84772W        W48529   7.876   1.447   4.303
84773W        W48530  14.820  43.514   0.761
84774W        W48531  24.032  25.184   1.350
84775W        W48532  20.070  24.994  12.465
84776W        W48533  15.693  14.673   3.812
84777W        W48534  29.978  41.874  10.996
84778W        W48535  14.195  36.478  11.912
84779W        W48536  28.541  36.859   1.728
84780W        W48537  30.137  12.688   0.943
84781W        W48538  32.126  23.998  11.119
84782W        W48539  32.431  20.741  12.007
84783W        W48540  36.413  21.188  10.491
84784W        W48541  36.558  23.527   0.861
84785W        W48542  23.571  24.722  12.341
84786W        W48543  33.935  25.678   2.854
84787W        W48544  14.615  30.942  12.510
84788W        W48545  16.657   4.206   4.148
84789W        W48546  16.613  34.972   0.479
84790W        W48547  16.094  38.921   2.786
84791W        W48548  15.271  23.702   2.873
84792W        W48549   4.825  15.157   3.646
84793W        W48550  18.789  30.413   0.255
84794W        W48551   1.289  28.502   1.309
84795W        W48552  12.268  17.612  14.896
84796W        W48553  41.365  33.930  10.539
84797W        W48554  24.488  28.574   0.417
84798W        W48555   6.234  40.856  10.900
84799W        W48556  20.750  26.161  12.577
84800W        W48557  14.678  27.000   2.902
84801W        W48558  26.458  42.391  11.991
84802W        W48559  37.515  25.017   3.746
84803W        W48560   3.299  38.448   4.318
84804W        W48561  40.523  37.906  14.461
84805W        W48562  12.830   7.894  14.838
84806W        W48563  24.173  32.499  13.795
84807W        W48564  34.031   8.712   4.327
84808W        W48565   4.364  34.429  11.937
84809W        W48566  34.562  29.080  12.415
84810W        W48567   3.847   0.821  12.048
84811W        W48568  11.280   8.336  13.342
84812W        W48569  33.071  36.496   0.874
84813W        W48570  22.020   8.297  11.857
84814W        W48571  39.884  26.537  14.377
84815W        W48572   4.738  31.490  13.418
84816W        W48573  41.340  17.712   1.760
84817W        W48574  41.941  41.925  12.457
84818W        W48575  43.416  17.592   4.118
84819W        W48576  35.055  25.710  11.529
84820W        W48577  41.372   5.427  14.892
84821W        W48578  17.201   3.452  13.307
84822W        W48579  40.831   5.727   0.769
84823W        W48580   6.184  12.719  14.851
84824W        W48581  37.477  13.201   3.752
84825W        W48582  34.422  31.974   3.169
84826W        W48583   8.395  34.539   0.908
84827W        W48584  12.353   4.894   1.799
84828W        W48585  32.594   3.909   0.926
84829W        W48586  39.397  26.666  14.891
84830W        W48587  21.130  32.484  14.331
84831W        W48588  12.762  42.894  14.869
84832W        W48589  18.295   8.315  10.428
84833W        W48590  23.508  43.896   4.637
84834W        W48591  35.059  11.229  14.505
84835W        W48592   3.304  36.461  13.808
84836W        W48593  32.929   0.779   4.147
84837W        W48594   8.815  43.406  13.998
84838W        W48595  29.145  37.368   1.823
84839W        W48596  30.450  14.775   4.191
84840W        W48597   1.753  10.374  12.480
84841W        W48598  13.747  33.432  14.779
84842W        W48599  14.273  30.609  11.923
84843W        W48600  31.117  34.528   1.322
84844W        W48601   4.436  25.627  12.841
84845W        W48602  10.188  36.513  12.882
84846W        W48603   0.858  14.322  10.440
84847W        W48604  41.503   5.801  13.828
84848W        W48605  26.985  26.635  14.896
84849W        W48606  43.994   9.813  14.815
84850W        W48607  41.001  42.780  12.893
84851W        W48608  27.967  28.159   0.468
84852W        W48609  41.002  16.639  11.891
84853W        W48610   3.935  15.792   1.895
84854W        W48611  36.056  21.156  11.442
84855W        W48612  35.868  19.549  12.494
84856W        W48613  21.624  44.819  14.803
84857W        W48614   6.328  44.428  10.995
84858W        W48615  11.142  34.545  11.090
84859W        W48616  34.565  20.638   2.195
84860W        W48617  28.095  39.493  13.028
84861W        W48618  13.744  27.151   1.762
84862W        W48619  35.380   3.884   2.304
84863W        W48620   8.215  11.812  13.536
84864W        W48621  37.481  28.055   3.817
84865W        W48622  37.518  21.202  11.071
84866W        W48623  42.361  20.272   1.262
84867W        W48624  31.558   1.359  11.406
84868W        W48625  36.933   0.919  13.437
84869W        W48626  27.609  19.135  11.032
84870W        W48627   1.746  38.416  11.606
84871W        W48628  28.626  11.340  14.932
84872W        W48629   0.862  15.321  12.436
84873W        W48630   3.887  12.742   5.086
84874W        W48631  24.599   6.361   2.337
84875W        W48632  31.135   3.757   2.245
84876W        W48633   0.457  25.042  14.011
84877W        W48634  31.958  19.182   2.900
84878W        W48635  34.490   0.463  13.919
84879W        W48636  37.998   1.853   2.835
84880W        W48637   7.808  40.470   4.641
84881W        W48638   4.729  39.377   1.431
84882W        W48639  38.033  43.955  10.450
84883W        W48640   1.774   5.775   0.731
84884W        W48641  14.798  26.488   3.254
84885W        W48642  25.015  29.434  13.892
84886W        W48643  40.346  18.166   4.784
84887W        W48644  42.021  35.980   4.837
84888W        W48645  22.688  41.305  13.960
84889W        W48646  40.001  18.061  11.006
84890W        W48647  31.583  30.413   2.212
84891W        W48648  18.246  31.553   4.784
84892W        W48649   1.329  32.472  11.940
84893W        W48650  35.854  31.491  11.537
84894W        W48651  41.865  34.982   3.222
84895W        W48652   0.965   2.895  14.001
84896W        W48653  20.195  31.427  14.810
84897W        W48654  43.418  29.934  11.471
84898W        W48655  19.189  44.305  14.845
84899W        W48656  13.210  27.037   2.220
84900W        W48657   1.972  34.901  13.894
84901W        W48658  13.118   3.399  10.644
84902W        W48659   5.882  40.549   1.294
84903W        W48660  37.985  21.698   1.300
84904W        W48661  35.396  10.849  14.939
84905W        W48662   8.745  12.298   3.348
84906W        W48663  30.503   6.689   5.310
84907W        W48664  41.002   0.480  10.431
84908W        W48665  35.532  20.552   0.458
84909W        W48666   7.264   7.704   1.330
84910W        W48667  12.763  13.744   3.210
84911W        W48668  40.431  22.104   2.321
84912W        W48669  16.662  30.659   0.249
84913W        W48670   1.922   4.862   1.310
84914W        W48671  15.090  13.798   2.362
84915W        W48672  29.576  16.584   2.664
84916W        W48673   6.406  27.498   2.288
84917W        W48674  35.498   8.266   0.730
84918W        W48675  26.059  21.518  12.063
84919W        W48676  18.260  34.558  13.060
84920W        W48677   3.376   0.321   4.282
84921W        W48678  39.892  28.020   4.680
84922W        W48679  15.584  13.787  11.451
84923W        W48680  18.087   2.955  11.121
84924W        W48681  36.349  22.126   0.273
84925W        W48682  35.895  16.653  11.886
84926W        W48683   9.867  39.876  13.348
84927W        W48684  22.510  17.248   1.299
84928W        W48685   0.320   5.214   4.125
84929W        W48686  35.078  33.465  14.979
84930W        W48687  34.470  32.517   4.654
84931W        W48688  27.474  41.842   4.291
84932W        W48689  31.036   5.697  12.393
84933W        W48690  42.281   3.874  14.829
84934W        W48691  11.735  23.217  11.405
84935W        W48692  13.181   2.873   2.685
84936W        W48693  27.594  10.762   1.928
84937W        W48694  39.415  30.434   1.837
84938W        W48695  14.173  13.705  10.533
84939W        W48696   1.742   8.220  13.997
84940W        W48697  43.506  22.225  11.551
84941W        W48698  37.910  31.564  14.032
84942W        W48699  40.448   6.795   3.283
84943W        W48700   2.738  16.632   4.115
84944W        W48701  28.076  34.075  11.556
84945W        W48702   0.913  12.307   2.323
84946W        W48703  15.693  17.292  10.560
84947W        W48704  33.424  17.262  13.495
84948W        W48705   8.712  40.454  12.469
84949W        W48706   6.332  23.188  14.822
84950W        W48707  12.125  43.847  11.066
84951W        W48708  18.671  11.668   0.314
84952W        W48709  35.500  27.607  11.542
84953W        W48710  44.473  12.162   0.945
84954W        W48711  19.591  34.046   3.832
84955W        W48712  11.760  10.343   4.734
84956W        W48713  13.114  17.605  14.774
84957W        W48714  40.826  41.511   3.276
84958W        W48715  38.045  33.899   3.193
84959W        W48716   2.328  15.760   4.818
84960W        W48717  14.771  34.021  11.891
84961W        W48718   2.415  26.967   1.383
84962W        W48719   0.435  37.955  13.975
84963W        W48720  31.028  28.016   1.884
84964W        W48721  42.823   5.303  12.930
84965W        W48722   7.792  33.593  12.530
84966W        W48723  34.960  13.294   4.206
84967W        W48724  27.942  40.547  10.414
84968W        W48725  43.391   5.345  12.024
84969W        W48726  23.095  39.848  11.940
84970W        W48727  18.730   9.861   4.283
84971W        W48728  21.193  44.929   3.233
84972W        W48729  23.068  44.769  11.457
84973W        W48730  27.174  32.612  14.965
84974W        W48731  25.508  25.500  13.397
84975W        W48732   0.321   6.203  11.916
84976W        W48733  17.188   0.797  14.400
84977W        W48734  34.940   8.881  10.570
84978W        W48735  43.772  40.945   0.432
84979W        W48736  12.123   7.304  14.361
84980W        W48737  35.025  16.288  14.469
84981W        W48738   6.289  41.805   2.406
84982W        W48739  30.047  28.625   0.923
84983W        W48740  27.622  16.674  10.513
84984W        W48741  36.015  21.171  14.308
84985W        W48742  18.161  23.493  12.369
84986W        W48743  20.613  31.938  14.290
84987W        W48744  11.270  42.954  13.998
84988W        W48745  36.489  13.181   2.745
84989W        W48746   1.854  38.038  12.892
84990W        W48747   1.924  12.318   3.779
84991W        W48748  25.608   0.804   1.726
84992W        W48749   3.248  28.063   5.131
84993W        W48750  33.608   8.746   1.365
84994W        W48751  38.835   6.266   2.192
84995W        W48752  39.857  26.957   1.327
84996W        W48753  16.164  12.712   4.620
84997W        W48754  19.223  33.990   1.329
84998W        W48755  22.064  16.181  12.096
84999W        W48756   0.251  25.191  14.451
85000W        W48757  38.491  11.840  10.934
85001W        W48758  33.923  36.047  12.987
85002W        W48759  29.109   4.282   4.325
85003W        W48760   4.793  10.253  13.029
85004W        W48761   6.305  11.718   4.700
85005W        W48762  37.342  32.943   0.799
85006W        W48763   2.341  26.615   0.965
85007W        W48764  29.983  34.517  13.520
85008W        W48765   1.846  31.556   0.279
85009W        W48766   9.808  44.827   0.898
85010W        W48767  16.161   6.701  10.922
85011W        W48768  16.299  13.234   2.223
85012W        W48769  30.448  27.060   4.837
85013W        W48770   6.766   5.288  11.021
85014W        W48771  16.312  28.141  11.965
85015W        W48772  32.953  23.587   3.824
85016W        W48773  15.683  28.006  11.505
85017W        W48774  16.781  32.083   2.854
85018W        W48775   2.913  19.651  12.450
85019W        W48776  22.516  29.168  14.356
85020W        W48777   1.321  15.608   3.637
85021W        W48778  23.037  31.499   3.735
85022W        W48779  22.099  39.314   0.247
85023W        W48780  12.274   1.825  11.963
85024W        W48781  21.532  22.069   2.402
85025W        W48782  39.484   6.338  10.115
85026W        W48783   7.799  12.765  13.492
85027W        W48784  36.404  10.341  12.027
85028W        W48785  37.835  18.588  13.420
85029W        W48786  41.969  41.303   0.270
85030W        W48787  10.249  14.819  11.580
85031W        W48788  33.625  19.659   4.824
85032W        W48789  18.134  31.501   3.863
85033W        W48790  18.175  24.521  10.407
85034W        W48791  22.152  28.466  10.545
85035W        W48792  43.370  35.032  14.815
85036W        W48793  30.631  42.937   0.736
85037W        W48794  40.521  31.526  12.079
85038W        W48795  15.697  40.797   1.439
85039W        W48796   9.797   8.864   4.166
85040W        W48797  21.628  43.827  13.928
85041W        W48798  24.700  36.960   1.440
85042W        W48799  22.113   0.788   4.828
85043W        W48800  25.492  22.047  12.885
85044W        W48801   2.792   1.795  14.391
85045W        W48802  13.719  12.824   3.818
85046W        W48803  38.489   4.232   5.184
85047W        W48804  12.787  30.649  12.041
85048W        W48805  11.838  11.624  12.468
85049W        W48806  24.576  17.264  14.294
85050W        W48807   7.361  18.218   0.283
85051W        W48808  13.163  24.627  14.410
85052W        W48809   4.854  38.445  11.027
85053W        W48810  19.141  40.400   2.848
85054W        W48811  35.047  18.209   5.091
85055W        W48812  14.702  14.196  13.978
85056W        W48813  17.202  41.502  14.309
85057W        W48814  30.518   1.262  13.791
85058W        W48815  24.498  22.215   1.383
85059W        W48816  13.736   8.310   4.674
85060W        W48817  22.169  40.367   3.316
85061W        W48818  28.038  22.740   3.729
85062W        W48819  24.051  27.515  13.386
85063W        W48820  44.333  17.673   2.870
85064W        W48821  40.895  40.506  10.979
85065W        W48822  44.267   6.195   0.446
85066W        W48823  31.953  22.038  13.902
85067W        W48824  19.704   7.753  12.994
85068W        W48825  39.898   0.405  11.950
85069W        W48826  29.077  15.087  13.418
85070W        W48827   9.271  13.302  13.511
85071W        W48828   1.928   7.671   4.328
85072W        W48829   0.472   9.342  14.773
85073W        W48830  14.718  25.087   0.357
85074W        W48831  23.990  24.003  13.969
85075W        W48832   6.726  28.108  13.034
85076W        W48833   7.314  41.319   4.123
85077W        W48834   2.766  44.765   0.319
85078W        W48835  20.182  41.351   3.313
85079W        W48836   4.281  30.909  13.888
85080W        W48837  11.323  27.509   3.791
85081W        W48838  44.454  13.666   0.847
85082W        W48839   4.375   2.892  10.506
85083W        W48840  39.424  29.058   3.688
85084W        W48841  41.332  44.448   3.743
85085W        W48842  37.854  34.573   2.336
85086W        W48843  11.328  41.502  12.986
85087W        W48844  13.723  26.058   0.938
85088W        W48845  43.417  39.035  10.042
85089W        W48846   9.701  27.942  13.812
85090W        W48847  38.493  18.660   1.903
85091W        W48848   2.425  13.202   0.318
85092W        W48849   6.782  20.762   4.833
85093W        W48850   0.478  10.860  11.591
85094W        W48851  25.543  14.805  11.923
85095W        W48852  19.141  15.753   0.379
85096W        W48853  25.028  12.248  12.389
85097W        W48854  30.447   1.816   0.881
85098W        W48855  32.107  24.055  13.813
85099W        W48856  38.948  16.729  11.397
85100W        W48857  21.655  11.299  14.943
85101W        W48858  13.247   2.416   1.727
85102W        W48859  36.513   5.748   1.319
85103W        W48860   5.908  44.851  12.920
85104W        W48861  38.870  31.643  11.013
85105W        W48862   4.804  39.896  12.511
85106W        W48863  44.494  38.843  11.567
85107W        W48864  11.846  11.704   0.419
85108W        W48865  11.825   9.711  11.523
85109W        W48866  14.599  23.234  13.797
85110W        W48867  25.641  40.876   2.317
85111W        W48868  13.734  15.273  11.001
85112W        W48869   8.240  29.540   4.264
85113W        W48870  11.715   5.364  13.478
85114W        W48871  21.681  43.006   3.659
85115W        W48872  21.676  42.883  13.881
85116W        W48873   3.390   7.911  14.950
85117W        W48874  24.628  13.117  11.589
85118W        W48875  33.502   8.872  10.074
85119W        W48876  42.901  43.881   4.771
85120W        W48877  21.613   3.888  14.492
85121W        W48878  20.269  17.105   4.161
85122W        W48879   0.906  26.044   2.189
85123W        W48880   4.789  11.786   5.125
85124W        W48881   7.904  11.277   0.788
85125W        W48882  39.314  15.188  13.974
85126W        W48883  41.788  14.242  12.528
85127W        W48884   0.928  14.222   4.130
85128W        W48885   7.266  22.522  13.922
85129W        W48886  24.020  11.290  14.348
85130W        W48887  28.609  21.051  11.428
85131W        W48888  20.718  10.157   2.202
85132W        W48889  34.994  27.118   5.605
85133W        W48890  36.961   4.352   3.349
85134W        W48891  33.057   0.923   2.673
85135W        W48892  20.717  28.010  14.771
85136W        W48893   2.953  34.425   0.765
85137W        W48894   6.880   2.751   1.696
85138W        W48895   0.943  43.313  11.970
85139W        W48896  40.925   6.393  12.846
85140W        W48897   1.281   3.435  14.896
85141W        W48898   3.326  30.143  12.092
85142W        W48899  18.162  23.229  12.356
85143W        W48900  32.434  44.830   4.626
85144W        W48901   2.915   6.841  14.903
85145W        W48902  15.133  14.626  13.384
85146W        W48903  22.519  22.518   2.775
85147W        W48904  26.188  13.624   4.644
85148W        W48905  43.000  19.173  11.426
85149W        W48906   7.714  22.601  14.496
85150W        W48907  15.274   6.892   2.671
85151W        W48908  26.497  23.666  12.926
85152W        W48909   2.900  32.608  14.019
85153W        W48910  18.653  22.095   1.288
85154W        W48911  24.142  26.514   0.358
85155W        W48912  27.113  28.993  14.973
85156W        W48913  25.030  34.040  12.490
85157W        W48914   3.930  22.522   1.418
85158W        W48915  43.818   4.921   4.712
85159W        W48916  24.481  44.926  14.787
85160W        W48917  25.639  15.733  11.417
85161W        W48918  43.387  21.534  11.055
85162W        W48919  23.715  17.691  11.598
85163W        W48920  42.317  37.362  13.877
85164W        W48921  23.106  35.532  10.988
85165W        W48922  23.115  14.313   1.428
85166W        W48923  16.181  17.092  11.859
85167W        W48924   8.674  10.374  14.872
85168W        W48925  40.500  30.525   2.687
85169W        W48926  33.874   0.952   9.925
85170W        W48927   9.706  11.285  14.849
85171W        W48928  44.490  23.633  13.475
85172W        W48929   5.370   9.780   2.828
85173W        W48930  44.938  40.028  12.010
85174W        W48931  32.114  11.697   2.238
85175W        W48932  19.118   4.775   1.840
85176W        W48933  39.449  43.960   1.875
85177W        W48934  36.033  24.509   3.316
85178W        W48935  10.191  39.046   0.898
85179W        W48936   3.447  20.627  12.093
85180W        W48937  21.663  36.545   3.150
85181W        W48938  16.607   6.362   1.717
85182W        W48939  21.079   8.244  12.083
85183W        W48940  41.445   4.427  11.024
85184W        W48941  17.118   4.260   3.198
85185W        W48942  29.004  21.103   0.880
85186W        W48943  35.020   5.286  14.395
85187W        W48944  12.299  16.282  14.778
85188W        W48945  34.475   5.286   0.955
85189W        W48946   0.347  38.547   1.355
85190W        W48947  36.069  31.625   3.195
85191W        W48948  18.142  11.692  12.922
85192W        W48949  32.962  38.550   2.766
85193W        W48950   2.237   8.703  11.956
85194W        W48951   1.292  38.047   1.871
85195W        W48952  18.289  23.687  13.386
85196W        W48953   8.232  37.370   2.189
85197W        W48954  26.110   4.834  10.078
85198W        W48955   9.260  17.769  13.837
85199W        W48956  41.040  13.666   1.429
85200W        W48957  36.374  24.559   1.796
85201W        W48958   9.252  33.573   2.822
85202W        W48959  21.236  24.553   0.950
85203W        W48960  18.078   1.375   2.889
85204W        W48961  44.371  10.716   1.408
85205W        W48962  37.903  33.961   1.866
85206W        W48963  36.367  28.995   0.297
85207W        W48964  29.010  39.546  12.075
85208W        W48965  33.526   9.831   1.927
85209W        W48966   3.413  13.605   1.247
85210W        W48967   1.771   9.343  12.367
85211W        W48968  43.798   3.383   2.225
85212W        W48969  16.221  30.421  14.974
85213W        W48970   9.172  16.075   2.275
85214W        W48971  12.702  30.616  13.867
85215W        W48972  27.673  43.984   2.262
85216W        W48973  21.263   2.825  13.322
85217W        W48974   7.691   6.364  11.609
85218W        W48975  21.540   6.839   2.362
85219W        W48976  24.098  43.795   0.827
85220W        W48977  29.127   6.909  14.896
85221W        W48978  42.403  25.673   0.732
85222W        W48979  24.086   5.197   4.329
85223W        W48980  20.579   0.782   3.731
85224W        W48981   6.354   3.921  13.521
85225W        W48982  19.715  26.973   3.850
85226W        W48983  19.157  24.582  12.995
85227W        W48984  41.523  21.152  10.574
85228W        W48985  26.169  24.982  11.485
85229W        W48986  27.994   2.400  10.547
85230W        W48987  33.535  35.371   4.617
85231W        W48988  15.776  40.481   1.380
85232W        W48989   1.948  38.412   1.276
85233W        W48990  23.620  25.667  12.024
85234W        W48991  12.345  22.633  14.407
85235W        W48992  38.032  10.822   2.783
85236W        W48993  28.060  11.787   1.752
85237W        W48994  16.651   9.277  12.352
85238W        W48995   3.440  38.523  13.884
85239W        W48996  28.076  11.316   0.468
85240W        W48997  22.119   6.917   3.261
85241W        W48998  14.653  14.333   3.730
85242W        W48999  41.824  25.486  12.468
85243W        W49000   8.736   9.232  10.627
85244W        W49001  40.316  12.784   2.328
85245W        W49002   5.914  28.111  14.968
85246W        W49003   1.467   3.415  13.049
85247W        W49004  34.891   9.792   1.450
85248W        W49005  32.996  16.572   3.373
85249W        W49006   6.230  36.854   3.779
85250W        W49007  19.766  31.136   0.453
85251W        W49008  35.536   5.861  11.911
85252W        W49009   7.691   3.954   2.329
85253W        W49010  30.449  10.167  10.614
85254W        W49011  11.299   9.266  12.400
85255W        W49012  34.419  44.350   2.370
85256W        W49013  29.668   4.816  13.909
85257W        W49014  41.320  10.736  11.913
85258W        W49015  44.984  38.829  14.410
85259W        W49016  20.135  34.550  14.479
85260W        W49017  30.655  33.963   1.233
85261W        W49018  27.684  35.940   0.361
85262W        W49019  29.172  39.911   0.371
85263W        W49020   1.480  40.320   3.818
85264W        W49021  22.716  44.369  12.019
85265W        W49022   6.886  24.547  13.052
85266W        W49023  29.638  24.158  13.468
85267W        W49024  20.041  33.917   0.833
85268W        W49025  33.424   2.866  14.970
85269W        W49026   6.354  22.626   3.292
85270W        W49027  34.466  14.307   0.401
85271W        W49028  35.003   4.443   1.879
85272W        W49029  30.947  33.924   4.168
85273W        W49030   3.322  41.850   1.309
85274W        W49031  28.466  20.112   0.900
85275W        W49032  14.705  15.782   3.819
85276W        W49033   0.748  34.943   4.268
85277W        W49034   4.726   0.348   0.741
85278W        W49035  19.273  19.246   3.646
85279W        W49036  40.356  19.633   2.740
85280W        W49037   3.932   2.858   4.703
85281W        W49038  32.443   5.913   2.336
85282W        W49039  19.658  19.680  12.946
85283W        W49040  39.979  34.007   4.752
85284W        W49041  12.688  16.654  12.423
85285W        W49042  44.792  20.248  14.346
85286W        W49043  37.411  22.079  10.470
85287W        W49044   6.711  29.946  14.387
85288W        W49045  24.108  25.615  11.097
85289W        W49046  32.990   6.208  14.366
85290W        W49047   7.904   7.667  11.087
85291W        W49048  34.005  34.954  11.986
85292W        W49049  23.712  35.080   0.320
85293W        W49050  11.706   9.290  12.392
85294W        W49051  14.182  19.693   1.893
85295W        W49052   7.236  19.591   2.813
85296W        W49053  15.247  43.282   5.238
85297W        W49054   0.904  15.628   3.726
85298W        W49055  33.029  21.584   4.832
85299W        W49056  16.084  32.557   2.796
85300W        W49057  22.659  31.035  13.352
85301W        W49058   5.431  15.783   2.690
85302W        W49059  35.971  35.414  13.892
85303W        W49060  42.298  23.706  11.073
85304W        W49061  10.863  20.256  11.555
85305W        W49062  31.571  21.720  11.032
85306W        W49063  29.445  44.456   2.224
85307W        W49064  22.177  29.094  10.984
85308W        W49065  18.569   6.714  13.061
85309W        W49066   7.883   5.268  14.815
85310W        W49067  15.281  15.223   2.759
85311W        W49068  31.984   3.759  13.538
85312W        W49069   3.290  25.195   1.239
85313W        W49070   5.388  19.590  11.008
85314W        W49071  35.999  33.502  14.845
85315W        W49072   9.864  22.505  12.502
85316W        W49073   3.236  11.236  13.920
85317W        W49074  11.725  11.281  10.563
85318W        W49075  37.469  37.482  10.413
85319W        W49076   6.242  15.686  13.923
85320W        W49077  32.554  20.538  13.888
85321W        W49078   0.786  17.773   1.701
85322W        W49079  29.617  33.097  12.566
85323W        W49080  21.157   1.962   1.365
85324W        W49081   7.256  14.786   1.263
85325W        W49082  27.011  18.732  13.526
85326W        W49083   0.933  37.041   2.847
85327W        W49084   7.732  28.989  14.424
85328W        W49085  12.643   3.252   2.245
85329W        W49086  23.522   3.384  12.823
85330W        W49087  32.401  27.476   3.180
85331W        W49088  15.812  18.135  13.955
85332W        W49089   3.906  18.220  13.387
85333W        W49090   0.354  29.018  10.549
85334W        W49091  34.571  13.701  14.807
85335W        W49092  37.517  26.194  13.886
85336W        W49093  28.167   0.794  11.107
85337W        W49094  27.566  26.681   2.706
85338W        W49095   7.793  30.957   4.818
85339W        W49096  14.765  38.001   2.355
85340W        W49097  12.712  11.310  14.315
85341W        W49098   9.166  38.528   0.427
85342W        W49099  22.224   9.334  12.441
85343W        W49100  34.039  43.008   4.743
85344W        W49101  32.609   4.338  10.892
85345W        W49102  33.407  10.701  12.906
85346W        W49103  17.276  41.321   0.409
85347W        W49104  18.227  43.854  13.993
85348W        W49105   1.262  39.383  11.867
85349W        W49106  38.507  11.736  12.574
85350W        W49107  25.127  18.164  12.943
85351W        W49108  43.452  10.732   4.174
85352W        W49109   7.177  11.252   4.752
85353W        W49110  40.832   1.743  14.013
85354W        W49111  15.623   8.823   5.141
85355W        W49112  22.577  27.952   3.679
85356W        W49113  30.109  29.139   0.868
85357W        W49114  22.155  42.002  10.945
85358W        W49115  13.669  26.686   4.196
85359W        W49116  13.151  44.442  13.348
85360W        W49117  27.620  35.919  13.824
85361W        W49118  30.618   5.765   4.750
85362W        W49119  18.204  21.197  10.410
85363W        W49120  44.832  33.581  10.160
85364W        W49121  13.260  35.467   2.828
85365W        W49122   7.894  23.155   0.808
85366W        W49123  35.556   2.471  10.065
85367W        W49124  40.395   5.926   2.749
85368W        W49125  37.006  15.729  10.461
85369W        W49126  40.406  39.999  12.860
85370W        W49127  23.669  40.003   0.746
85371W        W49128  13.772  38.984  12.988
85372W        W49129  40.489  34.042  13.340
85373W        W49130  28.544  41.432  10.903
85374W        W49131  26.067   4.875  11.068
85375W        W49132  12.140  44.846   4.203
85376W        W49133  13.257  41.858  14.506
85377W        W49134  28.620  27.136   4.627
85378W        W49135  43.279  20.550  12.017
85379W        W49136  44.844  39.929  11.080
85380W        W49137  36.994  30.137   1.304
85381W        W49138   7.333  27.087   4.341
85382W        W49139  10.781   2.332   1.366
85383W        W49140  39.514  43.323  14.020
85384W        W49141  18.213  24.502   2.338
85385W        W49142  11.710  44.938   3.836
85386W        W49143  21.609   1.475   2.864
85387W        W49144  10.820  16.093   2.879
85388W        W49145  17.162  25.541  12.071
85389W        W49146  12.784  44.768   4.306
85390W        W49147  41.801  33.086  13.540
85391W        W49148  29.490  34.053   2.268
85392W        W49149  31.426  14.231   2.662
85393W        W49150  24.031  22.048  13.832
85394W        W49151  44.793  32.975  13.978
85395W        W49152   7.858  36.973  13.358
85396W        W49153  10.186  28.649   4.323
85397W        W49154  13.174  18.283   1.439
85398W        W49155  28.103  15.665  12.517
85399W        W49156  16.082  21.655  11.448
85400W        W49157  30.937  35.423  14.429
85401W        W49158   6.237  28.044  12.906
85402W        W49159  21.037  36.436   3.175
85403W        W49160   6.337   4.770  10.499
85404W        W49161  30.504   1.854  11.029
85405W        W49162  25.632   6.701   3.206
85406W        W49163  16.167  39.361   1.868
85407W        W49164   6.196  24.030   1.795
85408W        W49165  13.829  17.100  11.447
85409W        W49166  39.551   2.844   2.728
85410W        W49167   6.380  11.159   3.363
85411W        W49168  18.280  33.902   3.304
85412W        W49169  16.627  34.392  12.345
85413W        W49170   7.891  10.858   2.272
85414W        W49171  43.786  13.721   1.300
85415W        W49172  40.018   8.836   0.287
85416W        W49173  20.120   0.906   2.241
85417W        W49174   2.807  15.259   1.926
85418W        W49175  21.631  23.671   2.313
85419W        W49176   5.205  18.769  12.089
85420W        W49177  43.510  41.476  13.376
85421W        W49178  43.832  29.476  13.482
85422W        W49179  32.570   4.390   1.813
85423W        W49180  34.036  25.122   0.476
85424W        W49181  39.945  14.212  11.857
85425W        W49182   1.879  42.004   4.216
85426W        W49183  14.115  25.641   4.672
85427W        W49184  13.245  44.449   1.302
85428W        W49185  26.578  14.237   4.237
85429W        W49186  20.159  26.659  13.900
85430W        W49187  39.388  15.662  12.097
85431W        W49188  25.198  32.481  13.989
85432W        W49189  32.114  17.193  11.512
85433W        W49190   3.937  40.334   1.369
85434W        W49191  24.113  42.369  10.616
85435W        W49192  43.935   5.435   3.286
85436W        W49193  44.488   7.377  14.462
85437W        W49194   1.889  10.813   0.271
85438W        W49195  36.093  43.983   1.422
85439W        W49196  40.505   3.845   4.835
85440W        W49197  16.095  28.523  14.391
85441W        W49198  35.557   8.233  11.534
85442W        W49199  33.988  26.499   4.664
85443W        W49200  14.739  43.881  10.538
85444W        W49201   2.748  36.515   2.282
85445W        W49202   7.710  30.094  14.513
85446W        W49203  43.500  44.890   3.781
85447W        W49204   6.185   0.856   1.877
85448W        W49205  41.986  23.572   4.605
85449W        W49206  42.296   4.817  12.087
85450W        W49207   7.706  29.942  11.542
85451W        W49208   0.282  14.614  12.023
85452W        W49209   5.699  28.465  11.865
85453W        W49210  34.520  37.971   2.712
85454W        W49211   4.231  36.548  14.351
85455W        W49212  31.497  40.338  13.547
85456W        W49213   1.755  44.994   3.636
85457W        W49214   3.268  40.860  13.839
85458W        W49215   9.839  19.047  11.907
85459W        W49216  18.067  39.900   2.227
85460W        W49217  10.829  10.636  14.961
85461W        W49218  14.746  13.829  12.840
85462W        W49219  25.494  11.633  13.530
85463W        W49220  36.968   6.807   4.763
85464W        W49221  38.981   8.244  10.956
85465W        W49222  40.009  25.684  14.892
85466W        W49223  31.993  23.712   1.792
85467W        W49224   7.378  33.431   4.176
85468W        W49225  18.670  36.046   2.210
85469W        W49226  13.224   1.279  10.893
85470W        W49227  27.672  14.590   3.215
85471W        W49228  33.517  15.260  12.082
85472W        W49229  21.183  23.525   1.784
85473W        W49230  41.888  11.129   4.147
85474W        W49231   0.935  36.593   2.799
85475W        W49232  35.541   0.314  12.935
85476W        W49233   1.479  24.192  14.335
85477W        W49234  17.619   7.897   3.360
85478W        W49235   8.394  14.099  13.793
85479W        W49236  22.535  39.039  12.466
85480W        W49237  23.106  10.643  12.492
85481W        W49238  17.635  33.045   3.320
85482W        W49239  16.653  13.689  12.906
85483W        W49240  40.386  22.205   4.737
85484W        W49241  21.072  17.565   4.612
85485W        W49242  34.545  42.973   0.736
85486W        W49243  12.849  29.001   4.747
85487W        W49244  35.552  23.604  11.021
85488W        W49245  10.743  18.768   3.761
85489W        W49246  36.089  19.625  11.863
85490W        W49247  32.990  43.879   2.392
85491W        W49248   7.247  42.820   3.664
85492W        W49249  40.304   8.376  11.034
85493W        W49250  16.792  18.156   4.247
85494W        W49251   0.920  16.166   2.270
85495W        W49252  40.810  20.652   3.265
85496W        W49253  42.991   0.408   1.869
85497W        W49254  38.048  35.902   2.352
85498W        W49255  21.600  25.635  11.978
85499W        W49256  30.997  44.810   1.818
85500W        W49257   6.918  11.318   3.724
85501W        W49258  38.864  44.371   4.770
85502W        W49259  41.498   8.247   3.155
85503W        W49260  22.072  29.429  12.006
85504W        W49261  15.812   5.852  13.472
85505W        W49262  20.680   0.936  12.949
85506W        W49263  27.129  40.819   4.140
85507W        W49264   2.827  24.988  11.912
85508W        W49265  42.939   0.271  13.986
85509W        W49266  19.608   5.765  13.399
85510W        W49267   2.781  32.460   0.345
85511W        W49268  33.439   3.358   4.798
85512W        W49269   5.718  21.214  13.315
85513W        W49270  17.150  34.993  14.878
85514W        W49271   8.766  37.511   3.794
85515W        W49272   8.371  23.023   1.762
85516W        W49273  28.473  31.489   4.287
85517W        W49274  28.661  25.072   4.155
85518W        W49275  44.304   2.928   3.204
85519W        W49276  10.757  40.381  13.052
85520W        W49277   1.371  25.011  11.881
85521W        W49278   0.806  38.837   4.640
85522W        W49279  42.840   4.712  13.895
85523W        W49280  27.955  36.922  12.010
85524W        W49281  21.661  36.479   3.864
85525W        W49282   4.906  13.662  11.126
85526W        W49283  44.437  32.112  10.911
85527W        W49284  42.331  43.010   4.644
85528W        W49285  36.994  21.666  12.502
85529W        W49286   1.973  41.521   3.852
85530W        W49287  37.932  39.452   3.652
85531W        W49288  27.038   5.318  11.515
85532W        W49289  18.567  44.505  13.433
85533W        W49290  35.601  34.057   3.374
85534W        W49291  25.052  36.496  11.538
85535W        W49292  31.517  42.395  10.609
85536W        W49293  17.120  22.502   2.298
85537W        W49294  41.821  44.986  11.933
85538W        W49295  34.519  18.772   0.948
85539W        W49296   1.767  40.432  10.897
85540W        W49297  39.407  23.137  14.325
85541W        W49298  13.319  32.437   1.326
85542W        W49299  42.954  31.099  14.806
85543W        W49300   4.758  41.971  11.371
85544W        W49301  13.774  40.433   1.433
85545W        W49302  17.307   7.683   3.702
85546W        W49303   4.413  12.703  10.555
85547W        W49304  35.872  26.672   2.305
85548W        W49305   2.912  38.524   1.245
85549W        W49306  22.017  29.170   0.737
85550W        W49307  30.111   7.833  12.875
85551W        W49308   3.783   0.887  12.961
85552W        W49309   4.442   6.250  12.873
85553W        W49310  12.740  12.162  12.842
85554W        W49311  13.229  37.988  13.016
85555W        W49312  30.585  21.652  10.501
85556W        W49313  29.096   4.841  13.922
85557W        W49314  26.149  33.957  13.370
85558W        W49315  33.616  38.380   2.666
85559W        W49316   4.733  25.008  14.773
85560W        W49317  24.093   2.446  11.099
85561W        W49318  42.524  25.040  11.408
85562W        W49319  36.865  15.579   4.800
85563W        W49320  27.135  36.383   3.836
85564W        W49321  27.111  37.883   0.907
85565W        W49322  26.151  40.040   3.209
85566W        W49323  16.728  13.666   2.816
85567W        W49324  25.988  32.991   3.867
85568W        W49325  13.232  38.975   5.272
85569W        W49326  30.574  35.027   3.285
85570W        W49327  35.010  35.505  12.960
85571W        W49328  39.409   6.698   0.250
85572W        W49329  36.559   2.830  11.898
85573W        W49330  36.543  27.087   3.687
85574W        W49331  39.959  36.068   1.771
85575W        W49332  41.022  41.873   3.147
85576W        W49333  27.031   8.795  14.972
85577W        W49334   1.946  27.960  12.397
85578W        W49335  20.088  29.478   0.409
85579W        W49336  27.647  44.964  13.365
85580W        W49337  14.176  22.190  13.005
85581W        W49338   2.308  22.556   0.891
85582W        W49339  34.432   9.380   0.810
85583W        W49340  32.938  15.614   4.769
85584W        W49341   7.753  11.810  10.593
85585W        W49342  23.239  18.572  14.314
85586W        W49343  40.338  10.149  12.398
85587W        W49344  21.585  10.349   0.803
85588W        W49345  33.984  18.628  12.877
85589W        W49346  38.362  42.877  10.986
85590W        W49347   9.205   8.243  13.475
85591W        W49348  10.261  29.439  11.921
85592W        W49349  39.034  23.589  14.965
85593W        W49350  20.676   4.809   4.598
85594W        W49351  12.782  37.463  13.424
85595W        W49352   8.842  12.206   4.284
85596W        W49353  37.912  25.081   2.216
85597W        W49354  34.890  14.594   4.286
85598W        W49355  24.195  22.144   0.305
85599W        W49356   2.241  38.477   4.627
85600W        W49357  40.347  23.608  10.561
85601W        W49358  22.633  26.090  10.520
85602W        W49359   9.305   3.826   2.691
85603W        W49360  13.157  18.610  10.454
85604W        W49361  25.114  18.203  11.927
85605W        W49362  17.797  36.002  11.482
85606W        W49363  29.954   0.363   1.917
85607W        W49364  35.551  34.472   4.354
85608W        W49365  24.593   5.258  13.499
85609W        W49366  20.253  17.164  10.529
85610W        W49367   5.404  25.180   0.837
85611W        W49368   0.757  25.013  11.461
85612W        W49369  30.616  41.322   0.862
85613W        W49370  34.431  30.942   4.226
85614W        W49371  12.269  13.148   4.176
85615W        W49372  13.779   7.177  13.370
85616W        W49373  44.407  34.477  13.447
85617W        W49374  38.404  32.479   4.221
85618W        W49375   4.290  15.735  12.002
85619W        W49376  27.004  31.646   1.786
85620W        W49377  22.702   4.752   2.791
85621W        W49378  29.080  20.039   1.390
85622W        W49379   6.858  29.090   1.252
85623W        W49380   5.882   6.693   0.265
85624W        W49381  28.138  43.960  13.337
85625W        W49382  18.596  39.955  10.957
85626W        W49383  18.729  10.152  14.311
85627W        W49384  41.348  19.588   1.846
85628W        W49385   6.373  13.816  14.411
85629W        W49386  21.250  16.215   0.898
85630W        W49387  18.179  16.674  14.767
85631W        W49388  41.313   9.808   1.752
85632W        W49389  35.460  20.223   3.705
85633W        W49390  10.681  10.143   3.348
85634W        W49391   9.245   8.283   1.293
85635W        W49392  37.025  31.920   0.336
85636W        W49393   8.754   7.270  14.861
85637W        W49394  43.922  35.897  13.822
85638W        W49395   2.293  31.581   4.718
85639W        W49396  36.494  26.531  14.471
85640W        W49397  29.543  37.559   3.322
85641W        W49398  13.151  21.184   3.205
85642W        W49399  30.957  33.414  11.513
85643W        W49400  23.214  40.503  12.872
85644W        W49401   3.758   7.189  13.064
85645W        W49402  24.037   4.291   2.741
85646W        W49403   4.715  25.023   4.340
85647W        W49404  39.950   6.886   3.807
85648W        W49405   5.790  35.093   3.696
85649W        W49406  28.665   0.935  12.860
85650W        W49407  26.049   8.172  11.861
85651W        W49408   2.459  44.757   4.740
85652W        W49409   9.228  43.335   3.203
85653W        W49410  12.317   5.830   1.905
85654W        W49411  32.490  28.635  12.039
85655W        W49412  42.519   7.838   1.783
85656W        W49413   9.848  40.339  12.974
85657W        W49414   5.389  32.907   3.207
85658W        W49415  13.810   4.716  11.419
85659W        W49416  25.628  31.017   1.273
85660W        W49417  35.523  13.632   2.224
85661W        W49418   6.313  39.413   4.733
85662W        W49419   8.762  37.521   1.878
85663W        W49420  29.000  42.322   3.156
85664W        W49421  23.223  42.321  10.503
85665W        W49422  39.857  24.143   1.864
85666W        W49423  32.456  21.165   5.230
85667W        W49424  25.134  24.099  10.636
85668W        W49425   3.227   7.868  13.832
85669W        W49426  28.566  20.753   1.890
85670W        W49427  10.720  16.253   4.150
85671W        W49428  19.753  24.687   3.194
85672W        W49429  39.871   4.716  11.863
85673W        W49430  40.986   8.171  13.396
85674W        W49431  42.497  10.817  14.997
85675W        W49432  22.050  28.078   2.389
85676W        W49433   7.758  24.666  14.468
85677W        W49434  20.159  34.379   0.473
85678W        W49435  28.143  35.110   4.737
85679W        W49436  42.513   2.395   0.347
85680W        W49437  27.044  32.965   1.296
85681W        W49438  41.853   6.370   0.452
85682W        W49439   7.226  33.418  14.468
85683W        W49440  19.649   3.243   2.717
85684W        W49441  13.734  26.513  14.947
85685W        W49442  42.439   6.397  12.890
85686W        W49443  29.079  29.464   1.412
85687W        W49444  37.437  27.586   0.809
85688W        W49445   2.350   9.169  11.922
85689W        W49446  44.965  36.467  14.023
85690W        W49447  35.923  30.081  13.814
85691W        W49448  31.093   2.960   9.984
85692W        W49449  29.140  15.164  14.942
85693W        W49450  37.340   6.220  12.537
85694W        W49451  17.764  31.513  13.499
85695W        W49452  44.485  30.915  13.537
85696W        W49453  10.638  43.942  10.431
85697W        W49454  12.198  35.021   2.724
85698W        W49455  12.675  16.684  13.360
85699W        W49456  19.047  30.961   0.894
85700W        W49457  33.450  33.984   1.378
85701W        W49458  22.590  24.054   1.840
85702W        W49459   0.365  33.538  14.775
85703W        W49460  13.744  13.831  11.400
85704W        W49461  41.425  26.702   0.908
85705W        W49462  13.220  15.794   4.136
85706W        W49463  10.709  17.614  10.641
85707W        W49464  40.855  16.160   2.662
85708W        W49465  24.641  44.953  14.458
85709W        W49466  21.601  38.446   1.788
85710W        W49467  21.080  30.657  11.600
85711W        W49468  38.054   8.731  12.838
85712W        W49469  39.003  23.537  12.402
85713W        W49470  33.571   6.274  10.152
85714W        W49471  30.469  38.021   4.191
85715W        W49472  26.595  24.138   0.814
85716W        W49473  19.650  26.203  10.428
85717W        W49474  42.359  21.701   0.749
85718W        W49475  33.532   7.831  14.472
85719W        W49476  12.689  38.824  14.368
85720W        W49477   1.904  22.644   2.292
85721W        W49478  23.647   1.841  14.334
85722W        W49479   5.708  15.658   3.284
85723W        W49480  15.311  43.901  13.401
85724W        W49481  30.917  12.641  13.810
85725W        W49482   2.244  13.129   3.217
85726W        W49483   0.402  29.942   2.181
85727W        W49484  33.478  40.807   0.374
85728W        W49485  22.235  20.651  13.468
85729W        W49486  41.395  41.451  14.362
85730W        W49487  28.613  15.685   3.153
85731W        W49488  42.970  38.861  10.564
85732W        W49489   6.865   6.884   1.327
85733W        W49490  17.280   8.729  12.042
85734W        W49491  34.514  31.134   0.830
85735W        W49492  21.653  23.180  11.061
85736W        W49493  23.672   7.758  12.384
85737W        W49494  31.001  16.750   4.254
85738W        W49495  39.923  35.926   1.421
85739W        W49496  24.139  39.842   3.743
85740W        W49497  13.601  19.118   4.597
85741W        W49498  34.021  32.511   1.738
85742W        W49499  18.637  24.110  11.059
85743W        W49500  38.430  12.160   1.824
85744W        W49501  19.265   2.744   3.209
85745W        W49502  22.028  37.994  13.356
85746W        W49503  21.751  20.607  10.580
85747W        W49504  43.906  24.539  14.991
85748W        W49505  37.435   7.900  12.478
85749W        W49506  35.977   1.250  14.359
85750W        W49507  43.776  18.216  12.843
85751W        W49508  40.451  29.651   9.983
85752W        W49509  14.602   1.260   5.192
85753W        W49510  36.881  42.470   4.838
85754W        W49511  38.472  11.350  14.030
85755W        W49512  30.427   2.794  13.801
85756W        W49513   7.858   3.867  14.453
85757W        W49514  16.300  25.987   3.640
85758W        W49515  16.586  37.449  13.865
85759W        W49516   9.200  40.879  14.019
85760W        W49517  36.991  18.153  13.325
85761W        W49518   1.792   6.283  12.512
85762W        W49519   5.746  27.615   1.756
85763W        W49520  37.065  37.406  14.921
85764W        W49521  13.754  42.308  12.503
85765W        W49522  23.157   2.839  11.517
85766W        W49523   5.369  44.887   3.256
85767W        W49524  18.186  17.755   1.265
85768W        W49525  38.542  41.907   4.738
85769W        W49526  18.071  43.005  11.980
85770W        W49527  43.454  38.539   3.637
85771W        W49528  10.829  26.068  13.311
85772W        W49529  29.497  17.684   3.196
85773W        W49530  36.926  41.526  13.953
85774W        W49531   2.955  31.409  14.013
85775W        W49532  43.914  33.961  12.856
85776W        W49533  23.532  41.013   2.676
85777W        W49534  44.276   2.925   0.469
85778W        W49535  38.026  22.013   3.327
85779W        W49536  39.379   9.761   2.367
85780W        W49537  38.343  30.520  13.937
85781W        W49538   5.411  26.005  14.825
85782W        W49539  36.413  14.689   0.439
85783W        W49540  35.966   2.944  11.555
85784W        W49541   0.308  28.078  10.992
85785W        W49542  35.597   2.887  12.994
85786W        W49543   4.713  24.520   4.298
85787W        W49544  18.279  40.471  14.317
85788W        W49545  31.538  29.034  10.898
85789W        W49546   7.888   5.918   4.625
85790W        W49547  40.435   2.394   0.776
85791W        W49548  37.855   9.670  14.029
85792W        W49549  42.930  32.544  10.556
85793W        W49550  43.456  39.463   0.368
85794W        W49551  41.299   1.887   2.898
85795W        W49552  43.402  32.426   1.798
85796W        W49553  30.953   7.209   0.861
85797W        W49554  22.054   7.801  11.531
85798W        W49555  25.484  32.121   4.206
85799W        W49556  21.036   9.273   1.857
85800W        W49557  13.162  43.971   3.670
85801W        W49558  41.328   9.736  11.539
85802W        W49559  10.870   9.307  12.890
85803W        W49560  21.194  38.459  13.917
85804W        W49561  22.586   6.296  11.941
85805W        W49562   2.845  17.786   4.324
85806W        W49563  28.649  11.174  12.076
85807W        W49564  11.659  42.843  13.798
85808W        W49565  30.496   2.928   3.343
85809W        W49566  19.216  31.546   4.597
85810W        W49567  31.979  41.919  12.463
85811W        W49568  35.857  22.657   4.704
85812W        W49569  38.534  39.011   3.808
85813W        W49570  34.964  30.506   1.372
85814W        W49571  24.593  19.104  13.498
85815W        W49572   8.700  17.563  13.516
85816W        W49573   5.858  42.914  12.907
85817W        W49574  11.266  27.194  14.329
85818W        W49575  18.218  28.464  14.457
85819W        W49576  10.260  21.634   3.706
85820W        W49577  18.253  12.194  10.039
85821W        W49578   8.863   0.442  11.007
85822W        W49579  26.679  27.133  13.461
85823W        W49580  14.306  22.014  14.917
85824W        W49581   2.448  18.169   4.178
85825W        W49582   5.213  40.849  12.902
85826W        W49583   3.319  19.242   0.726
85827W        W49584  26.952   4.866  10.561
85828W        W49585  27.498  34.900   2.794
85829W        W49586  12.118  15.096  10.927
85830W        W49587  21.033  30.508   4.701
85831W        W49588  14.189  13.719   0.921
85832W        W49589  40.537  25.184  10.473
85833W        W49590  23.091  12.132  13.890
85834W        W49591  28.084  18.747   0.746
85835W        W49592  28.537   6.775   1.816
85836W        W49593  16.154  43.443  11.043
85837W        W49594  18.737  38.940  12.018
85838W        W49595  32.042  31.559   0.846
85839W        W49596   0.907  41.896  14.274
85840W        W49597  21.157  32.486  10.607
85841W        W49598  37.432  36.069  10.965
85842W        W49599   6.199  21.127   0.315
85843W        W49600  18.778  25.707  14.785
85844W        W49601  40.524  30.160  11.394
85845W        W49602  13.290   3.340   1.329
85846W        W49603  30.164  17.269  12.492
85847W        W49604  38.536  17.073  13.955
85848W        W49605   5.197  40.894  12.001
85849W        W49606   0.925  38.824  11.455
85850W        W49607  38.550  24.610   4.193
85851W        W49608  37.564  27.058  12.365
85852W        W49609   5.300   8.171   1.450
85853W        W49610   4.220  40.404   3.700
85854W        W49611  44.289  11.745   4.608
85855W        W49612   0.805  25.214   3.384
85856W        W49613   1.916  26.176  13.819
85857W        W49614  27.493  43.402   1.324
85858W        W49615  43.943  23.107   1.718
85859W        W49616  17.648  19.725  12.433
85860W        W49617  42.917  15.304   3.704
85861W        W49618  22.652  40.962   0.851
85862W        W49619  40.828   9.167   3.837
85863W        W49620  20.709   7.281  14.365
85864W        W49621  31.928  21.646  13.413
85865W        W49622  43.791  39.515  13.974
85866W        W49623  29.060  17.189  14.965
85867W        W49624   9.745  36.937  14.874
85868W        W49625  33.962  42.921  12.870
85869W        W49626  29.633   6.213  12.405
85870W        W49627   0.969  10.314   1.333
85871W        W49628  11.245   5.360   2.809
85872W        W49629  26.631  10.157  14.909
85873W        W49630   8.808   6.206   1.220
85874W        W49631  19.181   2.233   3.350
85875W        W49632  32.540  27.189  13.432
85876W        W49633  34.953  42.505  10.512
85877W        W49634  39.945  17.745   4.657
85878W        W49635   9.227  24.160  14.818
85879W        W49636  37.365   1.250  11.420
85880W        W49637   8.776  40.333   4.817
85881W        W49638   6.392  35.975   2.185
85882W        W49639  12.283  36.424   0.438
85883W        W49640  44.271  11.653  13.352
85884W        W49641  39.490  44.763  12.876
85885W        W49642  44.419  39.853   3.796
85886W        W49643  30.599   3.752   2.682
85887W        W49644  32.609  44.994  12.427
85888W        W49645  31.059  31.481   4.643
85889W        W49646  28.635  18.611   5.178
85890W        W49647  44.879   5.398   1.823
85891W        W49648  34.576  10.213   4.729
85892W        W49649  24.199  19.071   4.620
85893W        W49650  32.488   6.363  14.471
85894W        W49651  11.354  30.122   0.286
85895W        W49652  26.039  38.427  13.460
85896W        W49653   0.818  26.066  12.958
85897W        W49654  38.016  36.542  13.523
85898W        W49655  34.036  29.014  13.992
85899W        W49656  40.861   6.730  13.469
85900W        W49657   0.912  22.501   1.766
85901W        W49658  35.024  37.417   3.349
85902W        W49659  42.340  27.548  13.364
85903W        W49660  26.478  19.272   1.315
85904W        W49661  12.721  31.611   4.302
85905W        W49662  34.984  26.155  12.468
85906W        W49663  39.503  13.700   3.212
85907W        W49664  32.490  16.290  12.346
85908W        W49665  18.125  21.569  11.458
85909W        W49666  36.472   3.253   3.200
85910W        W49667  22.999  34.563  11.053
85911W        W49668  42.025  37.497  11.585
85912W        W49669  28.487  42.342   0.438
85913W        W49670  25.491   3.874   0.243
85914W        W49671  26.598  38.878   0.895
85915W        W49672  11.348  43.321   4.344
85916W        W49673  16.233   9.332   4.781
85917W        W49674  37.959   3.915   0.265
85918W        W49675  12.612  28.071  10.435
85919W        W49676  43.926   5.909  11.959
85920W        W49677   9.810  34.537  11.893
85921W        W49678  11.766   0.879  12.895
85922W        W49679  24.481  19.078  10.458
85923W        W49680  32.006   6.272   0.322
85924W        W49681  36.907  34.375  13.035
85925W        W49682  27.608  36.918  13.895
85926W        W49683  25.010  19.683   0.908
85927W        W49684  23.163  33.503   3.800
85928W        W49685  28.150  25.014  12.426
85929W        W49686  34.973   5.331   1.346
85930W        W49687  22.246  36.493  13.472
85931W        W49688  17.579  21.122  14.412
85932W        W49689  22.564  37.533  10.979
85933W        W49690  40.803  24.709   4.234
85934W        W49691   2.874  20.531  14.785
85935W        W49692  44.495  25.585  11.096
85936W        W49693  30.000  39.540  13.351
85937W        W49694  23.192  39.906   3.319
85938W        W49695  38.858  16.199   4.640
85939W        W49696  25.697  31.606   0.275
85940W        W49697  16.130  13.601  11.461
85941W        W49698  25.203  41.823   1.437
85942W        W49699   6.703   3.719  14.332
85943W        W49700  41.981  19.610  14.980
85944W        W49701  39.852  30.920   4.815
85945W        W49702  22.620  14.646   4.137
85946W        W49703  42.340  19.662   0.793
85947W        W49704  18.107  37.443   0.289
85948W        W49705  35.936   1.303   3.238
85949W        W49706  12.647   2.343  11.918
85950W        W49707  25.050  13.841  14.827
85951W        W49708  41.041  37.454   0.481
85952W        W49709   5.800  23.645   2.866
85953W        W49710   9.336  13.739  10.527
85954W        W49711  12.791  26.626  11.500
85955W        W49712   3.924  11.303  14.768
85956W        W49713   4.273  43.473   4.819
85957W        W49714  38.001  44.802  11.923
85958W        W49715  23.667  25.036   5.292
85959W        W49716   0.371  25.036  12.555
85960W        W49717   2.359  23.615   1.359
85961W        W49718   9.373  25.177   5.167
85962W        W49719  14.322  20.692   0.920
85963W        W49720   1.923  16.715  12.563
85964W        W49721  42.429  17.674   0.881
85965W        W49722  17.597  31.532   4.331
85966W        W49723  41.490   3.368   1.324
85967W        W49724  10.671  16.134   0.283
85968W        W49725   9.188  11.364   3.706
85969W        W49726  40.371  19.576  12.452
85970W        W49727  43.419  43.917  12.356
85971W        W49728  22.693  15.603  10.600
85972W        W49729  32.142   1.241   1.312
85973W        W49730  21.730  12.711  13.830
85974W        W49731  32.042  41.890   1.851
85975W        W49732   6.213  42.394  13.508
85976W        W49733   8.898  22.516   2.693
85977W        W49734  28.025   5.760  13.051
85978W        W49735   9.315  16.089   0.917
85979W        W49736  21.031  41.945  13.435
85980W        W49737  33.068  44.765   2.184
85981W        W49738  18.648  11.767   1.927
85982W        W49739  21.178  43.941   4.314
85983W        W49740  18.579  32.076  11.551
85984W        W49741   2.931  11.303  13.987
85985W        W49742  29.958  24.715   2.194
85986W        W49743  25.692  32.486  14.874
85987W        W49744  30.468  39.049  13.859
85988W        W49745  33.090  39.412   4.625
85989W        W49746  41.013   0.860   3.640
85990W        W49747   1.438  12.266   1.265
85991W        W49748  14.637  10.698  10.928
85992W        W49749   7.267   4.727   1.932
85993W        W49750  30.571  27.174   2.666
85994W        W49751  43.784  31.636   2.267
85995W        W49752  43.293   4.785   4.204
85996W        W49753  41.865  38.846  14.514
85997W        W49754   4.829  36.944   3.385
85998W        W49755  39.406  22.221  14.424
85999W        W49756  19.606  13.131  12.512
86000W        W49757  10.634  22.579   3.209
86001W        W49758   3.230   2.440   1.420
86002W        W49759  32.630  24.121  14.495
86003W        W49760  23.613  33.921   2.693
86004W        W49761   6.736  25.195  13.890
86005W        W49762  36.846  26.099  11.379
86006W        W49763  41.896  44.426   0.268
86007W        W49764   2.265  22.679  10.984
86008W        W49765  19.533  35.855   0.784
86009W        W49766  18.152  19.582  10.429
86010W        W49767  23.553  20.090  13.807
86011W        W49768  33.086  11.309   3.699
86012W        W49769  18.273  29.624  14.449
86013W        W49770   9.690  44.828  11.459
86014W        W49771   0.271  21.150  13.880
86015W        W49772  39.495  24.568   0.862
86016W        W49773   0.332   8.377   1.800
86017W        W49774  33.551  26.131  14.418
86018W        W49775  37.031  24.669  14.396
86019W        W49776  17.104   5.842  13.328
86020W        W49777  41.924  39.371  10.572
86021W        W49778  27.092  25.980  11.899
86022W        W49779  25.481  20.167  12.354
86023W        W49780  21.599  22.045   2.866
86024W        W49781  14.742  19.663  13.825
86025W        W49782   1.457   3.393  11.015
86026W        W49783   4.834  22.540  10.547
86027W        W49784  40.948  12.683   3.846
86028W        W49785  20.657  43.964  13.431
86029W        W49786  26.978  34.035   0.885
86030W        W49787  44.812   3.823  11.911
86031W        W49788  10.256  44.945  11.408
86032W        W49789  21.706  19.673   4.715
86033W        W49790  28.567  40.991   0.415
86034W        W49791  30.999  34.018   0.903
86035W        W49792  17.258  42.950  14.853
86036W        W49793  40.946  14.677  14.970
86037W        W49794  40.389  20.762  11.559
86038W        W49795   2.410  28.161  11.480
86039W        W49796  25.639   0.419  14.343
86040W        W49797  38.376  32.424  11.595
86041W        W49798  43.290  18.637   2.778
86042W        W49799  32.905   9.328  12.442
86043W        W49800  26.603  30.947   4.729
86044W        W49801  30.425  26.557  12.351
86045W        W49802   6.224  15.613   0.907
86046W        W49803  12.702  17.300  12.875
86047W        W49804  23.108  42.829   0.430
86048W        W49805  22.214  20.257  13.047
86049W        W49806  28.610   1.298   3.315
86050W        W49807   2.313   7.680   3.780
86051W        W49808  13.116   8.724   9.991
86052W        W49809  14.754   7.786  12.376
86053W        W49810  23.033   2.302  11.979
86054W        W49811  44.417  26.677  12.897
86055W        W49812   1.788   8.389  13.535
86056W        W49813  43.871  34.394   4.205
86057W        W49814  10.795  15.683   4.836
86058W        W49815   3.293  44.888   0.318
86059W        W49816  44.919  16.808  14.964
86060W        W49817  41.857   7.260  10.419
86061W        W49818  26.677  35.387  12.005
86062W        W49819  27.631  20.718   1.416
86063W        W49820  42.927  13.778  13.964
86064W        W49821   9.196  35.902   1.229
86065W        W49822  42.322  41.490  13.015
86066W        W49823   7.283  31.144  11.429
86067W        W49824  24.212  15.237  12.376
86068W        W49825   2.810   9.861  12.907
86069W        W49826  42.430  17.191   1.784
86070W        W49827   4.805   8.773   3.828
86071W        W49828  18.188   7.324   4.612
86072W        W49829  19.251  41.536   4.181
86073W        W49830  32.918  28.578  13.911
86074W        W49831  34.981   4.754   1.217
86075W        W49832  40.906  39.907   4.341
86076W        W49833   1.906  33.505  13.346
86077W        W49834  15.281  20.744  13.902
86078W        W49835  35.396  24.669   2.737
86079W        W49836  16.677  28.530   2.344
86080W        W49837  12.738   1.867  10.892
86081W        W49838  17.161  43.004   3.730
86082W        W49839  32.927  22.204   3.195
86083W        W49840   4.724  14.288   4.613
86084W        W49841   3.389   1.793  14.005
86085W        W49842  18.763   4.243  11.962
86086W        W49843  38.889  31.910  12.467
86087W        W49844  16.238   3.278   5.264
86088W        W49845  17.252  20.192  14.831
86089W        W49846  26.099  40.336  11.896
86090W        W49847   1.767  34.875   3.146
86091W        W49848   1.463  21.139   4.721
86092W        W49849  28.147  32.078  14.516
86093W        W49850  33.414  19.113   3.741
86094W        W49851  44.938  12.680   0.338
86095W        W49852  24.229  44.899  11.016
86096W        W49853  26.133   6.724   1.273
86097W        W49854  41.042  30.649   0.830
86098W        W49855  27.130   5.338  13.031
86099W        W49856  42.298  24.224   1.790
86100W        W49857  30.460  24.069  14.981
86101W        W49858  17.699  20.203   1.919
86102W        W49859   3.718  42.389   5.265
86103W        W49860  15.291  17.289   2.769
86104W        W49861  36.987  44.381  11.105
86105W        W49862  17.094   2.928   0.393
86106W        W49863  14.725  15.211  14.829
86107W        W49864  11.190  33.463   0.855
86108W        W49865  11.294  23.231   0.346
86109W        W49866   7.769  26.022  12.887
86110W        W49867  35.942  13.330  11.562
86111W        W49868   5.813  23.541  10.961
86112W        W49869  39.378  41.796   4.210
86113W        W49870   1.801  41.529  12.908
86114W        W49871   4.311   6.290   2.787
86115W        W49872  33.461   5.223  12.361
86116W        W49873  27.642   2.818   2.208
86117W        W49874  42.421  19.145  12.468
86118W        W49875  29.960  35.460   1.307
86119W        W49876  16.779  38.060   4.342
86120W        W49877  33.917   5.219   4.169
86121W        W49878  24.510  28.555   0.745
86122W        W49879   6.921  12.129  10.957
86123W        W49880   5.700  40.357  12.540
86124W        W49881  21.250  25.488  14.936
86125W        W49882  16.125  14.206   0.328
86126W        W49883  28.543  37.038   2.403
86127W        W49884  20.105   0.865   3.285
86128W        W49885  44.923   6.692   4.636
86129W        W49886  42.936  16.780   2.364
86130W        W49887   8.161  30.066   4.751
86131W        W49888  40.441  42.519   4.211
86132W        W49889   8.805   6.690  11.510
86133W        W49890   2.340  21.531   0.915
86134W        W49891  17.734  31.077   3.695
86135W        W49892  39.384  40.936   3.361
86136W        W49893   5.315  35.996  11.062
86137W        W49894  23.517  19.546   3.863
86138W        W49895  29.666  26.570   5.098
86139W        W49896  32.023  15.724  14.866
86140W        W49897  28.176  27.092  10.638
86141W        W49898  27.567   4.444   1.928
86142W        W49899   8.365   3.916   3.640
86143W        W49900  18.742  19.547   1.213
86144W        W49901   3.949   7.825   1.334
86145W        W49902  18.676  37.562   2.235
86146W        W49903  42.407  17.727   1.760
86147W        W49904  41.443  26.649   3.301
86148W        W49905  16.158  40.512   0.911
86149W        W49906  41.042  23.030   2.886
86150W        W49907   1.462  31.979   4.795
86151W        W49908  14.673  28.595   2.397
86152W        W49909  42.391  43.778   2.702
86153W        W49910  16.680  43.940   1.311
86154W        W49911  20.564  23.062   2.220
86155W        W49912  20.569  36.887  13.942
86156W        W49913   4.228  34.931  14.513
86157W        W49914  38.909  19.599   3.155
86158W        W49915   3.431  16.638   3.796
86159W        W49916  43.883   5.914  13.381
86160W        W49917  14.647  29.974   4.251
86161W        W49918  18.168  22.116   0.728
86162W        W49919  27.533   3.388  13.022
86163W        W49920   9.188  27.669  10.599
86164W        W49921  31.616   2.409   9.921
86165W        W49922  33.585  38.365   3.814
86166W        W49923   6.376  10.662  10.464
86167W        W49924  11.315  31.610  13.427
86168W        W49925   3.851  17.627   0.271
86169W        W49926  23.704   4.717   2.731
86170W        W49927   0.462  35.935  10.940
86171W        W49928  24.571  25.475  12.061
86172W        W49929   4.226  31.470   4.147
86173W        W49930  44.990  18.667  14.847
86174W        W49931   1.886  38.015  11.607
86175W        W49932  26.524   4.342   3.709
86176W        W49933  36.427  17.688   4.801
86177W        W49934   8.258  24.716   4.260
86178W        W49935  28.067  19.601   5.210
86179W        W49936  23.630   3.803  14.395
86180W        W49937  43.384  23.138  11.428
86181W        W49938   8.775  44.370  11.467
86182W        W49939  42.983  28.046  11.496
86183W        W49940  35.042  35.947   0.411
86184W        W49941  44.275  25.123  14.364
86185W        W49942   4.229  21.040   3.292
86186W        W49943  23.669  15.219   3.260
86187W        W49944  33.418  21.633   1.213
86188W        W49945  23.179  11.847   2.347
86189W        W49946  24.577  20.128  12.438
86190W        W49947  10.249  18.191   5.175
86191W        W49948  41.518  30.645  11.440
86192W        W49949   3.863  15.603   2.885
86193W        W49950  38.423   3.316  12.012
86194W        W49951  24.214  24.093  10.072
86195W        W49952   1.877   1.780   2.882
86196W        W49953  11.831  20.711  10.974
86197W        W49954  17.184   7.276   0.358
86198W        W49955  31.615  40.380  11.926
86199W        W49956  41.868  34.035  10.409
86200W        W49957  11.280  11.729   4.286
86201W        W49958  16.727  34.869  13.519
86202W        W49959   9.755  21.166  12.874
86203W        W49960   8.860  33.957   2.355
86204W        W49961   0.814  40.864  14.460
86205W        W49962  30.542   9.156  14.506
86206W        W49963   5.852  20.069  13.043
86207W        W49964  15.193  26.480  12.450
86208W        W49965  43.909  38.953  13.890
86209W        W49966  23.585  31.129   1.873
86210W        W49967  35.968  25.563   1.318
86211W        W49968  30.920  37.878   2.716
86212W        W49969  40.991   6.882  11.939
86213W        W49970  24.107  23.057   4.210
86214W        W49971  21.120  31.001  10.458
86215W        W49972   5.305  39.995   4.686
86216W        W49973  36.978  31.953  11.564
86217W        W49974  32.489   3.893  11.556
86218W        W49975   6.395   5.284  13.911
86219W        W49976  35.929  21.184   1.748
86220W        W49977  12.141  41.300  14.966
86221W        W49978   4.800   8.865  14.950
86222W        W49979  38.384  33.522  13.055
86223W        W49980   2.956   6.312   0.385
86224W        W49981  40.856  38.506   1.751
86225W        W49982   0.793   4.771   3.305
86226W        W49983  23.536  11.797   3.266
86227W        W49984   1.392  25.033   4.348
86228W        W49985  10.663   6.870   0.950
86229W        W49986  34.438   6.833   2.213
86230W        W49987  30.966   5.420   9.985
86231W        W49988  37.495   2.331   2.766
86232W        W49989  33.132  39.341  13.059
86233W        W49990  16.242  26.985  11.060
86234W        W49991  13.106  19.240   0.327
86235W        W49992   5.896  38.921  13.418
86236W        W49993  17.754   9.650   4.762
86237W        W49994  40.949   1.745  12.413
86238W        W49995  14.831  35.048  12.977
86239W        W49996   6.704   3.945   4.265
86240W        W49997  43.489  43.869  13.510
86241W        W49998  43.270  36.016   2.768
86242W        W49999  10.331  29.666   4.674
86243W        W50000  16.149  15.701  10.911
86244W        W50001  28.105  14.108  10.049
86245W        W50002  29.066  26.128  12.498
86246W        W50003  10.693  23.614  13.009
86247W        W50004  35.387  43.918  13.385
86248W        W50005  35.086  26.134  13.858
86249W        W50006  15.285  10.822  14.388
86250W        W50007   9.797  16.710  12.564
86251W        W50008  31.148  13.351  13.866
86252W        W50009  14.326   3.248  14.759
86253W        W50010  23.084   7.403   2.901
86254W        W50011  32.565  27.513   2.751
86255W        W50012  27.619   7.794  12.870
86256W        W50013   2.272  30.447  14.813
86257W        W50014  29.983  30.099   1.354
86258W        W50015   8.837  16.581  11.025
86259W        W50016  41.297  39.819  12.395
86260W        W50017  32.477   0.464  13.840
86261W        W50018  16.728  11.301   4.276
86262W        W50019  29.983  29.927  11.103
86263W        W50020  10.314  42.523  11.419
86264W        W50021  41.411  36.851  12.577
86265W        W50022  25.018  15.091  12.342
86266W        W50023   4.751  33.616   4.752
86267W        W50024  33.579  41.822  11.605
86268W        W50025   6.745  16.080   2.753
86269W        W50026  21.668  20.236  13.423
86270W        W50027  25.971  35.869   2.377
86271W        W50028   2.394  28.472   4.216
86272W        W50029  38.830  12.325   3.772
86273W        W50030  43.497  28.002  13.363
86274W        W50031  38.553  38.363   1.932
86275W        W50032  39.959   8.399  11.485
86276W        W50033  14.770  14.322  14.353
86277W        W50034   9.267  44.801   1.887
86278W        W50035   7.190  44.333  11.006
86279W        W50036  30.570  21.723   2.755
86280W        W50037  16.646  28.181  13.022
86281W        W50038  20.252   2.248   3.306
86282W        W50039  40.348  26.500  13.928
86283W        W50040  25.630  27.622  11.953
86284W        W50041  25.517  38.540   2.304
86285W        W50042  27.625  34.520   4.192
86286W        W50043  32.432  33.040   4.147
86287W        W50044  37.966  33.968  12.989
86288W        W50045  11.782  12.230   0.302
86289W        W50046  28.002  16.088  13.945
86290W        W50047  25.585  23.022   2.769
86291W        W50048  22.205  22.251  14.887
86292W        W50049  10.350  17.114   1.360
86293W        W50050   5.907  27.055   1.381
86294W        W50051  29.599   6.195   0.325
86295W        W50052   2.345   3.819  13.511
86296W        W50053  16.293  26.147   4.675
86297W        W50054  12.680  25.190   4.183
86298W        W50055   6.392  18.101  14.333
86299W        W50056  27.945  23.687   2.289
86300W        W50057  39.941  14.607  13.858
86301W        W50058  41.809  42.982   1.917
86302W        W50059  28.615  14.096   1.280
86303W        W50060  37.059  35.581  10.460
86304W        W50061  35.393  39.941   1.290
86305W        W50062   2.782   8.741   2.796
86306W        W50063  15.125  33.557  14.321
86307W        W50064  13.656  13.635   0.787
86308W        W50065  19.772  12.647  12.886
86309W        W50066  17.654  13.288  11.432
86310W        W50067  28.548  22.593   5.203
86311W        W50068   9.839  32.991   2.802
86312W        W50069  32.535   1.895   1.397
86313W        W50070  19.568  34.568   0.930
86314W        W50071   8.713  41.975  10.909
86315W        W50072  30.097  25.564   3.778
86316W        W50073  43.904  36.553   0.470
86317W        W50074  10.824  27.606   2.351
86318W        W50075  25.642   2.864   3.251
86319W        W50076  14.756  18.251  14.366
86320W        W50077  33.555  39.488  11.403
86321W        W50078  43.838  42.991  11.997
86322W        W50079   6.703  12.724  11.543
86323W        W50080  22.148  39.942  11.431
86324W        W50081  34.470  29.115  11.464
86325W        W50082  33.941  42.395  14.364
86326W        W50083  21.559  34.913   1.751
86327W        W50084  44.271  37.956   2.221
86328W        W50085  12.813  31.943   5.209
86329W        W50086  34.485   3.220  12.992
86330W        W50087  12.688   1.807   0.252
86331W        W50088   7.302   6.788   4.173
86332W        W50089   0.746  43.893  13.825
86333W        W50090  10.235  31.013   9.923
86334W        W50091   2.734  39.894  13.479
86335W        W50092  35.033  32.072  10.159
86336W        W50093  34.553  30.974  11.497
86337W        W50094   0.412  28.497   0.331
86338W        W50095   6.788  34.484   0.387
86339W        W50096  35.984  41.974  11.866
86340W        W50097  30.129   6.333   3.744
86341W        W50098   7.379   2.242  13.810
86342W        W50099  30.118   7.293   4.336
86343W        W50100   4.752  44.308   0.410
86344W        W50101  14.165   1.760  13.856
86345W        W50102  21.255  42.887   4.804
86346W        W50103   4.924  42.478  11.120
86347W        W50104  16.754   3.286   3.367
86348W        W50105  17.626   4.866  10.051
86349W        W50106  19.633  41.486  12.875
86350W        W50107  12.718  10.667  10.561
86351W        W50108  42.401  30.092  12.398
86352W        W50109  24.198  24.074  12.873
86353W        W50110  43.938  28.475   3.691
86354W        W50111  41.825  17.072   9.983
86355W        W50112  31.089  35.042  13.410
86356W        W50113  35.080  41.987  14.863
86357W        W50114   8.781  16.238   0.777
86358W        W50115  33.394   3.368  11.981
86359W        W50116   8.819  16.676   2.760
86360W        W50117  11.340  35.600  11.579
86361W        W50118  24.023  36.882  14.805
86362W        W50119   2.348  27.127  11.491
86363W        W50120  33.070  18.734   3.760
86364W        W50121  24.005   7.874  14.341
86365W        W50122  24.612  32.598   3.691
86366W        W50123  18.550  16.243   3.327
86367W        W50124   7.682   1.331  10.919
86368W        W50125  23.198  34.046   5.645
86369W        W50126   4.277  33.466  11.046
86370W        W50127  22.529  14.184   3.205
86371W        W50128   9.840  31.129   4.197
86372W        W50129  43.020  18.276   0.242
86373W        W50130  11.862  40.981   2.298
86374W        W50131   1.855  41.464  13.361
86375W        W50132   8.662   0.758   1.920
86376W        W50133   9.700  32.636  14.328
86377W        W50134   0.953  26.982   3.700
86378W        W50135  20.710  32.943   3.749
86379W        W50136  35.548  25.619   1.421
86380W        W50137  12.274  21.710   1.272
86381W        W50138  38.462  11.647   3.756
86382W        W50139  30.981  24.104  12.557
86383W        W50140   5.405  17.307   0.341
86384W        W50141  23.138  44.786   2.233
86385W        W50142   3.927  34.482  14.483
86386W        W50143  12.289  22.532   4.696
86387W        W50144   6.263   3.938   3.870
86388W        W50145  21.656  10.756   0.257
86389W        W50146  31.966  30.916   1.745
86390W        W50147   5.223   1.294   3.806
86391W        W50148  42.977  40.979   2.829
86392W        W50149  30.583  12.283  12.570
86393W        W50150   7.223  44.412   3.794
86394W        W50151  33.047  12.244  11.043
86395W        W50152   8.831  13.303  12.030
86396W        W50153   6.209  37.084  11.019
86397W        W50154   1.329  13.762   4.733
86398W        W50155  38.383  41.469  11.455
86399W        W50156  25.508   0.250  11.586
86400W        W50157  23.994  15.658   0.824
86401W        W50158   7.820   5.854   0.437
86402W        W50159   0.907   8.754   1.292
86403W        W50160  39.496  19.274   4.328
86404W        W50161  30.991  28.186   3.268
86405W        W50162  20.074  41.529  13.505
86406W        W50163  18.552  19.081  14.939
86407W        W50164  38.941  16.766  13.919
86408W        W50165  28.599  15.251  10.576
86409W        W50166  24.700  16.304  11.046
86410W        W50167  44.497   9.652   3.858
86411W        W50168  25.209  44.285  10.624
86412W        W50169   2.898   0.858  14.780
86413W        W50170  11.131  23.166  12.993
86414W        W50171   6.325  28.541  10.901
86415W        W50172   8.260   8.357   0.351
86416W        W50173  21.197  31.444   0.893
86417W        W50174   3.296   6.225   1.386
86418W        W50175   2.967  20.132   0.446
86419W        W50176  32.992   2.953   4.650
86420W        W50177  33.989  43.861  14.397
86421W        W50178   9.304  22.020   0.430
86422W        W50179  40.890  23.140  11.115
86423W        W50180  20.703   3.769  11.532
86424W        W50181  31.639  42.787   3.153
86425W        W50182   0.266  30.926  11.431
86426W        W50183  35.488   5.883   1.225
86427W        W50184   4.850  44.493   1.335
86428W        W50185  44.002  37.361  14.299
86429W        W50186  43.342  17.219  13.505
86430W        W50187   6.785  38.053   0.747
86431W        W50188  22.568  12.692   1.290
86432W        W50189  39.473   7.775   3.775
86433W        W50190  25.009  27.607  14.491
86434W        W50191  32.545  21.585  10.490
86435W        W50192  22.736  35.571   1.778
86436W        W50193   0.773   8.769   0.397
86437W        W50194  35.397  14.673  10.457
86438W        W50195  41.841   5.334   0.352
86439W        W50196   9.184  17.159  12.901
86440W        W50197   5.362  29.040  12.563
86441W        W50198  39.494  31.450  14.032
86442W        W50199  13.719  32.934  14.325
86443W        W50200  15.668  37.869  10.636
86444W        W50201  25.663  32.119   3.764
86445W        W50202  18.129  40.509   2.789
86446W        W50203  26.542   4.715   2.900
86447W        W50204  38.063  16.295  13.433
86448W        W50205   4.370  29.525   3.203
86449W        W50206  34.058  40.487  12.543
86450W        W50207   2.428  16.078  11.492
86451W        W50208  16.681  29.116  11.409
86452W        W50209  35.869  10.690   0.801
86453W        W50210  20.068   7.898  12.957
86454W        W50211  13.738  14.158  13.424
86455W        W50212  23.065   6.853   4.788
86456W        W50213  32.091  19.113   4.262
86457W        W50214   8.813  27.150  10.509
86458W        W50215  15.328  43.325  14.852
86459W        W50216  20.652  38.944   0.927
86460W        W50217  21.103  21.715  10.510
86461W        W50218  24.059  37.367   3.307
86462W        W50219  12.737   1.340   4.230
86463W        W50220   5.732  28.956  11.040
86464W        W50221  12.838  44.005  10.945
86465W        W50222  40.382   3.324  12.046
86466W        W50223   1.885  12.635   4.225
86467W        W50224  40.359  39.417  13.037
86468W        W50225  12.211   1.923  14.816
86469W        W50226  44.351  16.093  13.357
86470W        W50227  26.627  37.953   1.287
86471W        W50228  21.564   4.705   4.331
86472W        W50229   8.307  14.217   2.267
86473W        W50230  39.558  13.166   2.773
86474W        W50231  19.176  32.406   2.266
86475W        W50232   6.862  17.087   4.145
86476W        W50233  23.146  28.077   3.201
86477W        W50234  18.568  37.041   4.640
86478W        W50235  15.649  33.463   4.718
86479W        W50236  27.565  27.025  12.951
86480W        W50237  41.925  41.438   0.730
86481W        W50238   3.450   0.821  13.848
86482W        W50239  19.243  25.108  13.434
86483W        W50240   5.894  16.571   0.419
86484W        W50241  44.945  43.798   1.803
86485W        W50242  34.556  17.232   3.147
86486W        W50243  28.140  26.974  13.906
86487W        W50244  37.390  36.447   0.868
86488W        W50245  38.934  20.167   0.757
86489W        W50246  25.031  28.554   1.791
86490W        W50247   7.791   7.788  12.898
86491W        W50248  38.825  38.845   4.306
86492W        W50249  14.242  43.317  13.371
86493W        W50250   7.745  34.958  11.111
86494W        W50251  31.487   3.252   0.473
86495W        W50252  12.634  33.932   1.391
86496W        W50253   1.899  17.195  10.968
86497W        W50254  35.529  44.801   0.396
86498W        W50255  12.131   5.368  11.446
86499W        W50256  42.331  22.194   4.226
86500W        W50257  33.545  32.630   1.386
86501W        W50258  10.669   3.445   5.278
86502W        W50259  40.028   7.409   2.254
86503W        W50260   2.843  23.032   0.476
86504W        W50261   3.313  38.336  12.028
86505W        W50262   4.770   3.793  13.060
86506W        W50263  16.751  20.695  11.010
86507W        W50264  11.797  19.632   3.841
86508W        W50265  33.895  12.774   2.816
86509W        W50266  23.101   4.370   1.342
86510W        W50267   0.890  26.653   0.940
86511W        W50268   7.271  23.507  11.038
86512W        W50269  34.475  36.999  14.476
86513W        W50270  35.013  44.315  11.382
86514W        W50271  36.040  28.547  13.941
86515W        W50272  34.868  12.255  13.532
86516W        W50273   0.939   8.846   2.713
86517W        W50274  42.006  19.742   2.296
86518W        W50275  41.494  26.170  13.373
86519W        W50276   6.383   5.910   4.650
86520W        W50277  44.978   7.767   1.900
86521W        W50278   4.438  25.489   2.407
86522W        W50279  13.204  26.540  11.458
86523W        W50280  35.872  26.017   0.870
86524W        W50281   1.470  30.585  12.424
86525W        W50282  27.564  23.180  12.400
86526W        W50283  22.232  41.538   4.254
86527W        W50284  41.031  13.697   2.814
86528W        W50285   4.884   1.457  14.929
86529W        W50286  35.568  19.086  11.438
86530W        W50287  41.325  28.984  12.391
86531W        W50288  37.907  37.843  14.945
86532W        W50289  42.403  27.065   4.350
86533W        W50290   0.783  36.510  11.490
86534W        W50291  40.820  41.321  11.381
86535W        W50292   1.822  23.544  12.555
86536W        W50293  14.604  11.709  11.584
86537W        W50294  11.276  42.956  12.009
86538W        W50295  29.002  10.640  11.473
86539W        W50296  39.014   1.757  13.476
86540W        W50297  31.126   4.283   3.817
86541W        W50298  29.521   5.259   4.831
86542W        W50299   8.812  42.941  10.604
86543W        W50300  13.615  12.325   1.822
86544W        W50301  14.171   1.443  10.901
86545W        W50302  26.681  38.525   3.357
86546W        W50303  31.606  42.879  12.044
86547W        W50304  25.654  12.741   1.915
86548W        W50305  26.019   1.252   1.894
86549W        W50306  29.550   1.276   3.258
86550W        W50307  18.640  36.478   4.698
86551W        W50308  37.085  18.100  11.522
86552W        W50309  11.142  44.914   3.273
86553W        W50310   3.825  43.786   2.307
86554W        W50311  12.133  39.469  11.371
86555W        W50312  11.797  43.336  10.919
86556W        W50313  38.878  22.214  10.630
86557W        W50314  11.749  41.329  12.044
86558W        W50315  29.982  17.211  12.095
86559W        W50316  13.741  14.262   0.415
86560W        W50317  33.596  24.487   1.440
86561W        W50318   6.881  13.169   1.269
86562W        W50319  33.462   1.384   4.723
86563W        W50320  33.954  26.118   4.197
86564W        W50321   7.845   2.814  11.488
86565W        W50322  27.971  31.063   4.696
86566W        W50323  25.191  14.131   2.372
86567W        W50324  15.810  29.660  13.820
86568W        W50325   2.817   9.202   1.748
86569W        W50326  35.444   7.911  13.342
86570W        W50327  31.968  14.174  12.853
86571W        W50328  11.844  11.730  11.384
86572W        W50329  31.566   8.187  11.051
86573W        W50330  18.238  24.563  12.499
86574W        W50331  18.553   2.754  13.036
86575W        W50332   0.409  11.181  14.969
86576W        W50333  13.316  21.679   2.667
86577W        W50334   7.735   8.672  13.327
86578W        W50335   1.877   9.262  12.992
86579W        W50336   0.892  36.556  13.031
86580W        W50337  12.842  26.698  13.794
86581W        W50338   3.372  17.738   4.345
86582W        W50339  15.727  42.359  13.844
86583W        W50340   5.225   1.303  11.574
86584W        W50341  32.539  14.758   1.335
86585W        W50342  28.509  39.967  13.832
86586W        W50343   2.730   7.204   3.813
86587W        W50344  10.236  33.023  12.066
86588W        W50345  40.847  11.635   3.315
86589W        W50346   4.240  24.213   4.728
86590W        W50347  17.742  29.091  12.460
86591W        W50348  35.600  36.355   0.954
86592W        W50349   2.833  41.956   0.861
86593W        W50350  20.129  15.648   2.216
86594W        W50351  27.106   9.365  14.316
86595W        W50352   9.305   4.923  12.037
86596W        W50353  39.822  34.473   2.297
86597W        W50354  17.769  34.371   4.291
86598W        W50355  43.933  36.904   4.719
86599W        W50356   8.842  12.830  10.091
86600W        W50357  41.039   1.395   0.432
86601W        W50358  15.686   7.339  10.933
86602W        W50359  17.306  17.278  11.922
86603W        W50360  19.270  31.487   2.684
86604W        W50361  23.608  36.432   0.370
86605W        W50362  39.915  40.803  10.899
86606W        W50363   5.364  40.341  14.454
86607W        W50364  21.099  27.142  10.519
86608W        W50365  29.544  27.974  13.410
86609W        W50366  24.702  24.725   0.933
86610W        W50367   3.296   1.873  10.919
86611W        W50368   5.410  41.503   1.788
86612W        W50369  23.582  24.644  10.549
86613W        W50370  22.555  25.616  11.115
86614W        W50371  43.935   1.348  13.857
86615W        W50372  23.500   2.237   2.697
86616W        W50373  41.000  36.885  13.419
86617W        W50374  10.318  44.983   0.340
86618W        W50375  21.693   6.757   3.311
86619W        W50376  41.362  22.057   0.949
86620W        W50377  11.828  31.559  14.348
86621W        W50378  11.283  39.906  13.873
86622W        W50379  26.657  44.449  11.535
86623W        W50380  28.035  16.591   4.179
86624W        W50381  19.682   9.645   2.374
86625W        W50382  29.580   8.888  12.873
86626W        W50383  31.093   2.455  10.407
86627W        W50384  34.403  37.042  10.518
86628W        W50385  10.288  20.569  14.856
86629W        W50386  25.531  32.490   4.693
86630W        W50387  30.633  33.910  14.940
86631W        W50388  44.417  24.042  12.867
86632W        W50389  29.505  11.786  13.912
86633W        W50390  44.422  42.420   1.393
86634W        W50391  14.678  43.362   5.658
86635W        W50392   7.175  40.818   2.705
86636W        W50393  13.666   4.760  10.424
86637W        W50394  21.646  18.621   4.631
86638W        W50395  42.020   5.231  13.319
86639W        W50396  21.532  34.867   0.257
86640W        W50397  42.383  42.472  12.514
86641W        W50398  38.538  41.497   1.801
86642W        W50399  12.612  40.362  13.935
86643W        W50400  28.938  25.022  13.835
86644W        W50401  30.523  15.728  13.951
86645W        W50402  16.188  41.453   2.391
86646W        W50403  26.134  26.517  13.812
86647W        W50404  13.165   7.223  12.551
86648W        W50405   8.836  36.997   2.408
86649W        W50406   0.971   1.345   3.248
86650W        W50407  17.646  31.646   0.413
86651W        W50408   7.820   6.789  14.419
86652W        W50409  44.479   8.832  13.899
86653W        W50410  38.839   9.289  10.469
86654W        W50411   6.393   4.717  12.470
86655W        W50412  27.592  27.550  14.855
86656W        W50413  29.003  37.959   0.757
86657W        W50414  18.687  42.289  10.975
86658W        W50415  32.433  38.447   2.678
86659W        W50416  35.046   2.855   3.310
86660W        W50417  39.848  16.798   2.789
86661W        W50418  13.272  26.529  11.987
86662W        W50419  39.485  37.868  12.889
86663W        W50420  10.859  16.735   3.350
86664W        W50421   1.802  36.074   3.329
86665W        W50422  16.637   0.950  10.551
86666W        W50423  15.639  42.364   0.935
86667W        W50424  11.163  30.629   0.293
86668W        W50425  43.400  13.337   1.270
86669W        W50426  19.219  42.976   9.964
86670W        W50427  29.648  38.962   5.179
86671W        W50428  25.603   2.796  10.512
86672W        W50429  18.615  30.940   4.812
86673W        W50430  14.757  10.834   0.955
86674W        W50431   4.444  17.631   4.712
86675W        W50432  19.148   6.914  10.994
86676W        W50433   3.904  10.770  12.396
86677W        W50434   2.373  10.376   2.347
86678W        W50435  22.636  29.032   9.932
86679W        W50436  44.371  30.460   1.698
86680W        W50437  14.315  43.297   4.729
86681W        W50438   7.757   3.215   4.747
86682W        W50439  39.346  42.953  11.041
86683W        W50440  12.650  33.098   2.812
86684W        W50441  38.971  18.101   1.361
86685W        W50442   8.807   9.729  12.348
86686W        W50443   5.277  33.618  11.510
86687W        W50444   0.349  44.780   1.380
86688W        W50445  42.941   1.461  14.337
86689W        W50446  23.651  40.822  14.875
86690W        W50447  29.065  39.354  14.924
86691W        W50448  33.423   3.923  10.113
86692W        W50449  10.745  24.008  11.927
86693W        W50450  37.945  28.564  11.561
86694W        W50451   9.705  35.107  13.385
86695W        W50452  33.480  40.846  13.380
86696W        W50453  21.621  13.617  12.918
86697W        W50454  36.368  10.301   2.280
86698W        W50455   3.314  18.583   1.790
86699W        W50456   5.818  21.062  14.977
86700W        W50457  12.147  43.954   2.815
86701W        W50458  42.321  37.069   2.897
86702W        W50459  24.655  15.274   0.941
86703W        W50460  15.681  44.980   0.823
86704W        W50461  26.632  10.793   1.364
86705W        W50462   4.269  23.186  12.343
86706W        W50463  11.748  19.280   4.271
86707W        W50464  42.347  11.823  14.764
86708W        W50465  22.130  17.564  11.877
86709W        W50466  22.189  35.390   2.309
86710W        W50467  15.600  41.927  11.973
86711W        W50468  33.448  35.559  12.370
86712W        W50469  34.403   4.278  12.074
86713W        W50470   4.902  12.687  11.867
86714W        W50471  38.843  39.988   0.321
86715W        W50472   1.891  37.925  12.410
86716W        W50473  21.101  43.295   3.357
86717W        W50474  44.943  30.002  13.406
86718W        W50475   7.302  24.600   0.337
86719W        W50476   7.840  30.632  13.474
86720W        W50477  21.032  34.508   2.360
86721W        W50478  14.664  30.088   0.331
86722W        W50479  39.507   0.434   4.340
86723W        W50480   4.349  44.766  13.327
86724W        W50481  26.538   3.913   4.318
86725W        W50482   7.701  26.645   3.271
86726W        W50483   0.811  19.731  14.759
86727W        W50484  29.471  30.641   1.824
86728W        W50485  38.901  31.444  13.968
86729W        W50486   3.378  11.324   3.733
86730W        W50487  43.969  13.762   2.216
86731W        W50488  19.112  33.926   3.246
86732W        W50489   6.206  16.252   5.259
86733W        W50490  32.609  39.021  13.031
86734W        W50491  12.625  43.987   1.246
86735W        W50492  41.796  13.751  10.510
86736W        W50493  18.208  22.051  12.529
86737W        W50494   5.730  16.592  12.022
86738W        W50495  21.023  21.664  11.483
86739W        W50496  13.261  33.029  13.977
86740W        W50497  23.528   0.904  13.397
86741W        W50498  33.921  37.438  12.447
86742W        W50499  10.790   5.235  13.863
86743W        W50500  35.541   2.912   1.699
86744W        W50501  22.691  39.978  11.570
86745W        W50502  36.966  14.227  14.436
86746W        W50503  24.502  32.984   4.704
86747W        W50504  11.841   4.935  11.878
86748W        W50505  39.866  20.716  12.010
86749W        W50506  34.010  35.886  11.556
86750W        W50507   2.461  33.566  10.897
86751W        W50508  29.933  14.129   2.392
86752W        W50509   5.713   0.803  12.427
86753W        W50510   0.369   6.855   1.814
86754W        W50511  38.910  10.721  13.952
86755W        W50512  41.906   5.360   2.204
86756W        W50513  14.136  16.642  11.604
86757W        W50514  38.429  17.254   0.363
86758W        W50515  29.551  33.477   1.228
86759W        W50516  10.207  15.776   0.415
86760W        W50517  42.376  37.543   3.731
86761W        W50518  24.161  23.065   2.837
86762W        W50519  24.224  18.078  12.534
86763W        W50520  38.938  10.761  13.337
86764W        W50521  21.569  15.590   2.291
86765W        W50522  44.978   9.343   3.633
86766W        W50523  36.570  34.942   2.292
86767W        W50524   7.810  42.004  11.424
86768W        W50525  40.040  39.954  12.009
86769W        W50526  30.634  13.698  11.048
86770W        W50527  40.341   0.314  14.313
86771W        W50528  41.337  38.944  11.484
86772W        W50529   9.223  34.040  14.335
86773W        W50530  40.489  13.695  14.947
86774W        W50531   7.403  42.015  13.482
86775W        W50532   4.438  36.990   3.659
86776W        W50533   7.388  40.019  11.373
86777W        W50534  40.989  11.189   3.712
86778W        W50535   9.391  35.428  11.471
86779W        W50536   0.479  26.972  13.518
86780W        W50537  43.486  38.430   2.393
86781W        W50538   2.409  41.808   2.888
86782W        W50539  27.155  26.014   1.419
86783W        W50540  40.459   5.781  13.357
86784W        W50541  16.790  20.230  13.906
86785W        W50542  10.189  41.935   3.204
86786W        W50543  31.122  22.017   1.395
86787W        W50544   2.379   7.309  14.898
86788W        W50545  41.870  34.008  12.072
86789W        W50546  32.990  27.037   1.288
86790W        W50547   2.230   3.884   0.378
86791W        W50548  19.699  35.390  12.020
86792W        W50549  20.705  28.148  11.479
86793W        W50550   6.271  38.456   2.363
86794W        W50551  11.808  24.047  14.375
86795W        W50552  28.003   5.757   0.781
86796W        W50553  37.492   6.921   3.686
86797W        W50554  23.127  41.892   1.355
86798W        W50555  25.121  15.309  11.945
86799W        W50556  21.726  18.203  14.419
86800W        W50557   1.876   3.919  13.896
86801W        W50558  35.461  23.545   3.301
86802W        W50559  44.999   7.827   4.352
86803W        W50560  11.357  35.892  13.338
86804W        W50561   4.449   5.292  11.502
86805W        W50562  29.588  26.208  11.977
86806W        W50563  43.336   4.858  14.450
86807W        W50564  11.242  38.061  10.544
86808W        W50565  42.479   0.790  11.872
86809W        W50566   2.454  15.625   3.711
86810W        W50567   2.753  33.066   1.366
86811W        W50568  28.440  11.827  14.965
86812W        W50569  33.519  25.660   0.919
86813W        W50570   4.772   0.969   2.811
86814W        W50571  23.988   6.736   3.658
86815W        W50572  15.737   9.876  11.585
86816W        W50573  42.811  18.132  14.383
86817W        W50574  41.520  29.616   2.689
86818W        W50575  34.915  29.008   1.856
86819W        W50576  40.931  18.641  12.066
86820W        W50577  39.050  39.550   2.756
86821W        W50578  27.667  22.571   3.381
86822W        W50579  36.390  21.572  12.390
86823W        W50580  31.583  36.975  13.825
86824W        W50581  24.113   8.799  13.840
86825W        W50582   8.879  35.558  12.082
86826W        W50583   6.792  25.178   4.186
86827W        W50584  21.096  37.571  14.427
86828W        W50585  15.622  18.182   3.189
86829W        W50586  14.229   9.386   0.372
86830W        W50587  38.354  19.772   4.728
86831W        W50588  11.190   7.224   4.245
86832W        W50589   5.890  23.080  12.898
86833W        W50590  42.926  35.598  10.442
86834W        W50591  19.615   6.213   5.118
86835W        W50592   7.668  31.083   2.247
86836W        W50593  16.168  37.019   0.438
86837W        W50594   2.440   0.275  14.960
86838W        W50595  13.737  24.054  12.018
86839W        W50596  25.530  12.840   3.672
86840W        W50597  41.357   3.404  14.346
86841W        W50598   6.230   6.882   0.955
86842W        W50599  21.136  25.598  14.289
86843W        W50600  30.447  42.800   3.178
86844W        W50601  42.775   1.750  13.807
86845W        W50602  13.176   5.832   0.952
86846W        W50603   2.807  29.561  10.572
86847W        W50604  23.524  11.728  13.395
86848W        W50605  37.936   8.791  10.149
86849W        W50606  38.359  20.208  12.936
86850W        W50607   1.273  39.489  14.497
86851W        W50608  36.929  41.537  13.334
86852W        W50609  15.176  11.790  13.525
86853W        W50610  32.033  16.716  10.087
86854W        W50611  30.563   7.842  12.892
86855W        W50612  40.951   3.305  11.487
86856W        W50613  31.446  27.498   0.895
86857W        W50614  20.047  26.654   1.372
86858W        W50615  30.972  32.016  14.819
86859W        W50616   4.400  11.730  13.994
86860W        W50617   5.246  25.597  10.987
86861W        W50618  38.379  30.563   4.762
86862W        W50619  21.192  18.222   0.916
86863W        W50620  27.050   7.720   1.799
86864W        W50621   0.318  19.052  11.453
86865W        W50622  10.319  17.161  11.384
86866W        W50623  27.634  15.150  12.911
86867W        W50624   6.855  17.598   4.140
86868W        W50625  32.509   5.252  14.357
86869W        W50626   8.350   9.765   2.183
86870W        W50627   1.250  20.076  11.408
86871W        W50628  17.123  44.969  13.005
86872W        W50629  43.464  38.526   4.611
86873W        W50630  40.348  31.921   4.788
86874W        W50631   0.909   7.354   1.327
86875W        W50632  34.014  12.140   1.287
86876W        W50633  40.385  26.017   3.188
86877W        W50634  21.020  25.062   3.298
86878W        W50635  32.018  43.466  14.769
86879W        W50636  37.015  26.551   1.765
86880W        W50637  37.923  35.870   5.272
86881W        W50638  35.008  23.587  11.428
86882W        W50639   2.321  28.062  13.438
86883W        W50640   1.801  16.308   2.760
86884W        W50641   1.435   9.667  14.446
86885W        W50642  11.821  13.307   1.427
86886W        W50643  38.444  40.359  12.946
86887W        W50644  33.114  19.718  14.276
86888W        W50645  11.836  22.570   0.837
86889W        W50646  42.943  35.422   0.463
86890W        W50647  21.033  27.189   1.435
86891W        W50648  13.842  36.478  11.118
86892W        W50649  21.679  14.162   5.111
86893W        W50650  26.457  35.556   1.823
86894W        W50651  35.380   1.335   1.822
86895W        W50652  32.954  30.424  14.903
86896W        W50653  14.822   5.737  14.340
86897W        W50654  13.285  17.675  11.097
86898W        W50655  24.677  19.535   3.818
86899W        W50656  38.473   4.310   2.276
86900W        W50657  31.590   4.816   0.822
86901W        W50658  42.851   5.381   4.194
86902W        W50659  25.171   9.285  11.037
86903W        W50660  32.912  17.187  11.588
86904W        W50661  20.064  31.006  12.343
86905W        W50662  32.497  17.763  10.561
86906W        W50663  42.909  35.409  12.867
86907W        W50664  32.056  24.709   3.215
86908W        W50665  14.272  18.597  13.380
86909W        W50666  36.015  13.731  10.585
86910W        W50667   0.360  18.287   2.405
86911W        W50668  11.623  21.554   1.257
86912W        W50669  43.317   6.268  14.846
86913W        W50670  20.247  29.495  14.435
86914W        W50671  28.111  26.542   4.834
86915W        W50672  19.167  13.316  13.933
86916W        W50673  29.003  15.773  14.997
86917W        W50674  30.611  42.817  10.560
86918W        W50675   5.790  34.047  10.903
86919W        W50676  12.287  36.988   1.325
86920W        W50677   9.720   8.794   3.816
86921W        W50678   1.752  11.829   1.314
86922W        W50679  14.705   7.909  11.938
86923W        W50680  10.339  30.513  13.453
86924W        W50681  11.694  35.864   1.729
86925W        W50682  17.179   7.326   4.598
86926W        W50683   3.910   1.281   1.826
86927W        W50684   0.773  41.993   2.792
86928W        W50685  31.522  31.622  11.902
86929W        W50686  24.555   2.443   4.778
86930W        W50687  43.501  13.666   0.425
86931W        W50688  33.084   4.785  12.897
86932W        W50689  23.603  25.639  13.927
86933W        W50690  34.090  43.808   3.252
86934W        W50691  11.317  27.998   3.298
86935W        W50692  23.613  28.535   1.429
86936W        W50693  17.086  42.801  10.602
86937W        W50694  25.632   8.809  14.493
86938W        W50695  39.908  37.982  13.359
86939W        W50696  26.111  35.033  12.010
86940W        W50697  22.703  36.373  10.911
86941W        W50698   6.747  36.383   2.681
86942W        W50699   5.823  30.584   2.264
86943W        W50700  13.344  38.352  10.464
86944W        W50701  38.447  32.068   0.398
86945W        W50702  15.216  34.471   2.871
86946W        W50703  25.082  32.961   2.258
86947W        W50704  27.609  29.626   1.837
86948W        W50705  22.650   2.269   1.274
86949W        W50706   0.939  25.015  13.854
86950W        W50707   0.868  37.337  12.065
86951W        W50708   3.248  38.848   5.143
86952W        W50709  26.050  29.518  13.956
86953W        W50710   2.733  14.797  14.792
86954W        W50711  15.313  21.217   1.228
86955W        W50712   1.240  19.176  14.933
86956W        W50713   6.835   5.367   0.743
86957W        W50714  20.084  28.114   1.821
86958W        W50715  37.390  33.531  13.897
86959W        W50716  20.738  14.791   0.406
86960W        W50717  37.446   3.928  14.973
86961W        W50718  24.722  17.799  11.011
86962W        W50719  38.401  40.805  14.280
86963W        W50720   5.702   4.271   0.439
86964W        W50721  25.575  30.053  13.381
86965W        W50722  18.739  11.181  10.580
86966W        W50723  32.117  18.227  10.626
86967W        W50724  20.202  10.210   1.297
86968W        W50725  27.565  39.933   4.828
86969W        W50726  22.660  32.912  12.002
86970W        W50727  11.796  11.262   2.728
86971W        W50728  22.190  16.635   0.319
86972W        W50729  27.572  31.478   2.270
86973W        W50730  24.185  22.028  11.595
86974W        W50731  30.122   2.786  12.029
86975W        W50732  23.202  34.592   0.299
86976W        W50733  26.576  18.686  14.823
86977W        W50734  28.956  19.249   4.144
86978W        W50735  16.729  26.532  12.417
86979W        W50736  13.292  35.937   9.924
86980W        W50737   6.869  16.644  13.369
86981W        W50738  37.352  19.651   2.332
86982W        W50739   0.438  30.423   0.932
86983W        W50740  22.110  36.980   4.788
86984W        W50741  19.731   7.696  11.996
86985W        W50742  17.647  38.329   4.610
86986W        W50743  29.580  39.317   2.363
86987W        W50744  12.158  35.426  10.932
86988W        W50745  44.358  44.327   0.947
86989W        W50746  40.447  43.810  14.283
86990W        W50747  21.626  29.459   3.736
86991W        W50748   0.292   0.252  13.815
86992W        W50749  17.625  10.732   3.153
86993W        W50750  31.937  12.764   1.304
86994W        W50751  14.716  14.110  11.038
86995W        W50752   7.208  31.563  12.537
86996W        W50753   0.749  31.066  13.913
86997W        W50754  14.768  27.180   3.792
86998W        W50755  36.392   1.302  11.440
86999W        W50756  43.321  16.797  11.025
87000W        W50757  35.420  32.508  12.966
87001W        W50758  15.644   9.216  10.568
87002W        W50759   0.766  10.208  13.320
87003W        W50760  24.163  34.390   2.799
87004W        W50761   7.910  44.910  13.396
87005W        W50762  19.079  37.934  13.911
87006W        W50763   9.724   4.764   0.365
87007W        W50764  36.534   0.840   3.319
87008W        W50765  15.161  12.249   3.262
87009W        W50766   3.713  18.063   4.805
87010W        W50767  38.955  37.361   5.276
87011W        W50768  29.600  15.735  12.457
87012W        W50769  14.635  38.021  13.923
87013W        W50770  24.999   1.317   1.699
87014W        W50771  27.043  41.796  10.998
87015W        W50772  29.111  19.227  14.438
87016W        W50773  14.216  30.994   5.144
87017W        W50774  22.549  17.705   2.833
87018W        W50775   6.249  12.849   3.338
87019W        W50776   2.787  44.828   0.792
87020W        W50777  33.566  18.229   1.900
87021W        W50778  32.591  24.656  11.065
87022W        W50779  26.668  38.045  11.438
87023W        W50780  28.640  13.284  13.849
87024W        W50781  28.435  42.985   0.915
87025W        W50782  22.200  21.170  14.821
87026W        W50783  27.068   6.408  11.871
87027W        W50784   3.844  20.610   0.917
87028W        W50785   4.938   6.902   4.766
87029W        W50786   1.942   1.851  10.518
87030W        W50787  40.421  33.408  14.419
87031W        W50788  25.695   5.398  12.033
87032W        W50789  14.592   0.417   2.293
87033W        W50790  42.899  34.421  10.486
87034W        W50791  10.264  24.220   1.225
87035W        W50792  17.629   9.339  11.905
87036W        W50793  37.555  20.672  11.546
87037W        W50794  26.961  13.681   1.355
87038W        W50795  42.965  18.616   5.101
87039W        W50796  22.733  14.340  14.946
87040W        W50797  10.633  35.890   2.188
87041W        W50798  18.683  25.579  12.477
87042W        W50799  15.765   1.855  13.548
87043W        W50800  28.666  44.286  10.132
87044W        W50801  42.994  25.033  14.490
87045W        W50802  44.375  19.135  10.994
87046W        W50803  16.218  26.037   4.134
87047W        W50804  24.137  43.397   3.355
87048W        W50805  31.604  26.611  12.550
87049W        W50806  20.740  39.393  12.008
87050W        W50807  17.280  13.336   2.217
87051W        W50808  15.125  29.043  11.579
87052W        W50809  31.515  38.367   4.734
87053W        W50810  23.214  28.590   3.209
87054W        W50811  23.530  35.066   3.705
87055W        W50812   7.787  28.960  11.555
87056W        W50813  20.259  13.804   3.361
87057W        W50814  33.523  29.573   2.209
87058W        W50815  25.570  14.704   1.697
87059W        W50816   3.383   0.830  13.528
87060W        W50817  10.334  15.591   3.161
87061W        W50818  33.120  16.592   2.815
87062W        W50819  20.113  15.317   2.859
87063W        W50820  35.998  31.499   0.440
87064W        W50821  29.973  38.481   2.414
87065W        W50822  41.364  11.356   1.866
87066W        W50823  19.721  27.124   2.871
87067W        W50824  20.085  14.797   4.134
87068W        W50825  18.560  44.287  12.011
87069W        W50826   7.802  12.215  11.940
87070W        W50827  22.612  19.680   3.707
87071W        W50828  31.506   5.294  11.940
87072W        W50829  35.544  40.388  12.423
87073W        W50830  15.213   0.896  13.934
87074W        W50831   4.402  41.804   3.169
87075W        W50832  42.332  43.863   1.229
87076W        W50833  36.557  14.256  13.327
87077W        W50834   5.737  38.546   3.272
87078W        W50835   0.901   7.194  10.146
87079W        W50836  15.235   1.416  10.500
87080W        W50837  21.594  40.027  12.928
87081W        W50838  18.773   4.445  14.907
87082W        W50839  19.234  39.828  11.927
87083W        W50840  12.724  24.137  14.927
87084W        W50841  13.820  42.412  10.451
87085W        W50842  44.336  40.383   3.684
87086W        W50843   9.167  12.116  11.927
87087W        W50844  38.038  33.508  11.466
87088W        W50845  11.797  28.127  14.424
87089W        W50846  36.036  43.488  11.522
87090W        W50847   3.783  20.232   4.195
87091W        W50848  34.940  31.632  13.826
87092W        W50849  22.201  20.584   3.675
87093W        W50850  31.108  12.802   2.372
87094W        W50851  41.320  14.595  13.545
87095W        W50852   4.304  14.141   3.791
87096W        W50853  28.650  23.513   9.676
87097W        W50854  21.082  10.266  11.911
87098W        W50855  40.927  16.618  10.992
87099W        W50856   3.263   6.210   4.226
87100W        W50857  42.004  37.378  11.965
87101W        W50858  18.235   1.480   3.200
87102W        W50859  12.676  35.440  11.969
87103W        W50860  39.326  23.012  11.402
87104W        W50861  18.105  40.905  13.993
87105W        W50862  28.655  30.565  11.396
87106W        W50863  18.545  23.674  11.443
87107W        W50864  23.731  33.906  11.128
87108W        W50865  43.271  42.495  14.882
87109W        W50866   9.364  35.073  13.838
87110W        W50867   3.751  27.649  13.878
87111W        W50868  24.985  12.618  12.438
87112W        W50869  33.404  30.029  11.091
87113W        W50870   7.868  33.454  11.859
87114W        W50871  21.209  26.630   9.940
87115W        W50872   7.808  15.189   0.814
87116W        W50873  25.048  23.089   1.262
87117W        W50874   0.333  11.791  13.540
87118W        W50875   6.212  15.149  13.999
87119W        W50876  19.721  41.958   0.454
87120W        W50877  23.057  27.064   2.747
87121W        W50878  36.409  26.507   0.745
87122W        W50879  27.124  18.712   4.172
87123W        W50880  21.036  21.751   3.846
87124W        W50881  11.198  19.277   2.781
87125W        W50882   8.891  21.548  13.474
87126W        W50883  34.416  23.025   1.217
87127W        W50884  11.698  11.719   3.382
87128W        W50885  41.358  11.728   2.702
87129W        W50886  34.431   9.357  12.529
87130W        W50887  39.473  32.069   1.699
87131W        W50888  30.933   2.260  10.996
87132W        W50889   8.243  33.067   4.302
87133W        W50890  40.927  23.634  13.966
87134W        W50891   0.977  23.240  14.860
87135W        W50892   1.839   8.710  13.017
87136W        W50893  15.179  30.497   3.247
87137W        W50894  10.308  14.826  12.501
87138W        W50895   0.410  33.000   1.740
87139W        W50896   6.735  37.433  14.963
87140W        W50897  15.700  32.940  13.049
87141W        W50898  29.151  41.894   0.413
87142W        W50899  41.379   8.363  13.917
87143W        W50900  15.193  23.561   0.452
87144W        W50901  34.043   3.292  12.928
87145W        W50902  17.636  31.478   2.773
87146W        W50903  11.752   6.201   5.252
87147W        W50904  26.205  15.179  11.405
87148W        W50905  34.099  37.515   3.233
87149W        W50906  23.656  15.208   2.267
87150W        W50907  32.502  20.259  14.999
87151W        W50908  25.669  40.420  12.439
87152W        W50909  41.511  16.628  11.386
87153W        W50910  33.558  20.240   4.740
87154W        W50911  13.108  43.941   9.445
87155W        W50912  18.662   3.429   0.420
87156W        W50913   4.803  29.109  11.580
87157W        W50914   2.928  12.131   2.667
87158W        W50915  17.583  28.112  12.951
87159W        W50916  18.603  33.117  13.865
87160W        W50917  29.565  16.593  13.383
87161W        W50918   9.187  44.394  11.423
87162W        W50919  38.954   4.294  11.954
87163W        W50920  41.879  40.371  10.892
87164W        W50921  18.677  27.635  13.478
87165W        W50922   9.688   9.319   1.368
87166W        W50923  27.692  28.585   1.751
87167W        W50924  20.212  26.009  13.811
87168W        W50925  24.158  39.955  12.541
87169W        W50926  35.431  11.339   2.699
87170W        W50927  17.570  20.557  11.531
87171W        W50928   4.212  26.665   0.260
87172W        W50929  15.309   7.397   2.413
87173W        W50930   8.878  39.888  14.773
87174W        W50931  26.014  21.161  11.075
87175W        W50932  25.524  30.474  10.535
87176W        W50933  19.221  18.770   0.353
87177W        W50934   8.834  17.584  12.985
87178W        W50935  21.647  43.292   0.751
87179W        W50936   5.688  37.462  14.933
87180W        W50937  39.835  21.155  12.965
87181W        W50938  44.836  40.848   2.405
87182W        W50939  36.842  11.204   1.743
87183W        W50940  23.733  16.236   0.419
87184W        W50941  43.892  23.605  13.018
87185W        W50942  33.532  11.367   3.719
87186W        W50943   0.305  20.564   3.709
87187W        W50944   7.771  12.154   3.289
87188W        W50945  16.284  36.881   3.829
87189W        W50946   4.904  27.024   1.223
87190W        W50947  44.867   4.784  12.418
87191W        W50948  28.979  32.969  12.558
87192W        W50949  18.086   2.909   2.349
87193W        W50950  33.975  35.022   4.244
87194W        W50951  44.479  13.768   2.837
87195W        W50952  21.178  19.154   3.185
87196W        W50953  38.068   2.856  12.974
87197W        W50954  19.608  27.642   4.169
87198W        W50955  16.626  19.236  11.548
87199W        W50956  34.555  41.877   3.363
87200W        W50957  42.425  37.444  10.991
87201W        W50958   0.299   0.748  11.474
87202W        W50959  43.796  37.888   2.318
87203W        W50960  19.735  39.864  12.481
87204W        W50961  31.143  42.836   3.844
87205W        W50962  33.453   1.461   1.847
87206W        W50963  18.791  22.558   2.817
87207W        W50964  34.100  29.458   4.211
87208W        W50965  37.869   4.390  14.917
87209W        W50966  34.444  20.737   1.297
87210W        W50967   8.771  11.321   3.635
87211W        W50968  30.513   8.219  11.926
87212W        W50969  17.587  40.912   2.181
87213W        W50970   0.979  22.747   2.397
87214W        W50971  16.312  39.859   3.376
87215W        W50972   7.900  27.181   4.638
87216W        W50973  31.435  10.236  13.515
87217W        W50974  41.858  40.326  10.468
87218W        W50975  24.131   5.725   0.479
87219W        W50976  34.405  37.443   4.283
87220W        W50977  18.290  17.717  13.803
87221W        W50978  27.953  30.003   4.809
87222W        W50979  20.219  30.415   4.760
87223W        W50980  24.071   7.370  10.110
87224W        W50981  41.819  33.104  10.576
87225W        W50982  30.628  40.340  11.376
87226W        W50983  13.320   9.236  11.027
87227W        W50984  30.012  33.626   1.711
87228W        W50985  19.070  23.097   4.713
87229W        W50986  24.190  15.612   4.200
87230W        W50987  27.022  39.451  12.060
87231W        W50988   5.881   0.429   1.780
87232W        W50989  14.301  27.004   2.878
87233W        W50990  40.510  16.569  10.987
87234W        W50991  26.953  22.215  14.310
87235W        W50992   2.410   8.247   1.444
87236W        W50993   4.317  16.570  14.880
87237W        W50994  27.539  44.813   0.736
87238W        W50995   1.306  36.945  13.935
87239W        W50996  16.163  38.041   2.337
87240W        W50997   3.881  23.033  11.945
87241W        W50998  39.359  34.566  10.417
87242W        W50999  39.862   5.911   2.859
87243W        W51000  12.830  37.505  11.040
87244W        W51001  28.948  28.598   4.811
87245W        W51002  27.125  28.596  14.885
87246W        W51003  24.480  10.185   2.257
87247W        W51004  16.727  32.439   0.409
87248W        W51005  21.163  20.175  13.351
87249W        W51006  33.515  38.881   2.757
87250W        W51007   6.300  40.016  11.968
87251W        W51008   3.830  14.181  10.572
87252W        W51009  41.307  27.626  13.889
87253W        W51010  41.868  10.815   1.767
87254W        W51011   0.376  36.589  13.478
87255W        W51012  42.853  39.921  11.965
87256W        W51013  32.895  11.868  13.988
87257W        W51014  21.726  26.557  11.063
87258W        W51015  12.215  28.514   1.247
87259W        W51016  29.080  29.584   2.757
87260W        W51017  32.979  21.543   2.851
87261W        W51018  34.062  24.058   3.326
87262W        W51019   8.698   0.290  12.938
87263W        W51020   2.966  29.059  11.481
87264W        W51021  23.730  30.943  11.988
87265W        W51022  44.371  37.881   0.831
87266W        W51023  39.458   8.774   4.789
87267W        W51024  42.994  18.159  14.994
87268W        W51025  41.522  19.687  13.521
87269W        W51026  30.490   5.204  11.398
87270W        W51027   2.927  38.995  13.915
87271W        W51028  38.047  38.326  14.322
87272W        W51029  39.047   7.304   0.421
87273W        W51030  42.802   5.689  11.915
87274W        W51031   1.895  37.026  13.931
87275W        W51032  30.004  38.895   4.239
87276W        W51033  37.357  27.178  11.409
87277W        W51034  11.631  37.876   4.775
87278W        W51035  32.132  12.302   4.702
87279W        W51036  21.258  38.023   0.427
87280W        W51037  14.150  21.053   4.134
87281W        W51038  32.011   0.336  14.979
87282W        W51039   7.796  21.107   2.686
87283W        W51040  26.976  14.307  10.000
87284W        W51041  20.722   0.946  10.572
87285W        W51042  20.238   5.210   1.260
87286W        W51043  10.771  41.396  11.386
87287W        W51044  44.881  26.160   3.185
87288W        W51045  13.196  41.409   3.865
87289W        W51046  12.744   9.279   0.272
87290W        W51047  32.887  20.576   0.278
87291W        W51048  29.670  15.112   0.840
87292W        W51049  43.875  23.001  14.369
87293W        W51050  31.507  12.757   0.868
87294W        W51051  42.515  12.652  11.600
87295W        W51052   0.759   4.844   1.698
87296W        W51053  40.952  36.958  13.965
87297W        W51054  19.241  23.077   0.348
87298W        W51055  16.669  37.553   0.371
87299W        W51056   4.797  34.898  13.028
87300W        W51057   5.743  30.044  11.422
87301W        W51058   6.257  26.633  14.504
87302W        W51059  15.258  25.647  14.989
87303W        W51060  18.231   1.732   2.183
87304W        W51061   9.387  32.569  12.421
87305W        W51062  30.923  26.560   3.323
87306W        W51063   6.424  16.685  10.930
87307W        W51064  23.693  17.121   4.765
87308W        W51065  35.442  31.899   0.251
87309W        W51066  41.877  10.701  11.888
87310W        W51067   1.948  15.153   3.635
87311W        W51068  34.508  28.439  13.320
87312W        W51069  27.970  12.265  12.391
87313W        W51070  37.411   3.424   2.391
87314W        W51071   3.219  39.023  11.099
87315W        W51072  44.320   3.803   1.288
87316W        W51073  33.131  19.079   2.812
87317W        W51074   3.339  21.663  13.872
87318W        W51075  11.227  19.215   3.819
87319W        W51076  38.387  27.102   4.645
87320W        W51077  18.576   5.840  13.867
87321W        W51078   4.254   6.917   3.654
87322W        W51079  34.471  23.078  13.500
87323W        W51080   8.775  40.039   0.418
87324W        W51081  33.041  25.565  12.940
87325W        W51082  12.696  27.139  14.955
87326W        W51083  30.127  28.106   2.205
87327W        W51084  20.158   0.400  10.452
87328W        W51085  23.104  23.594   1.442
87329W        W51086  18.789  31.436  11.523
87330W        W51087  25.547  20.714  11.515
87331W        W51088  21.754  29.033   0.280
87332W        W51089  32.444  14.191   4.344
87333W        W51090  15.277   3.227  12.380
87334W        W51091  28.619   2.377  11.071
87335W        W51092  42.862  34.118  12.409
87336W        W51093  30.020  15.747  12.977
87337W        W51094  28.603   1.280  12.392
87338W        W51095  35.009   5.415  11.116
87339W        W51096  31.576  19.652   2.772
87340W        W51097  10.659   9.320   2.842
87341W        W51098  39.001   3.832  12.439
87342W        W51099   6.789  31.426  14.295
87343W        W51100   9.229  12.751   2.207
87344W        W51101  21.686   3.715  10.434
87345W        W51102  42.900  38.507   2.766
87346W        W51103  34.936  20.589  10.590
87347W        W51104  30.075  38.328  14.504
87348W        W51105  30.502   6.725  11.380
87349W        W51106   8.381  31.616  11.495
87350W        W51107  37.343  42.454  14.793
87351W        W51108  35.560  40.979   4.737
87352W        W51109  18.545  41.537   5.183
87353W        W51110  15.139  33.529   4.816
87354W        W51111  27.027  10.229   1.329
87355W        W51112  42.944  42.330   3.743
87356W        W51113  40.809  23.073  13.358
87357W        W51114  21.163  42.486   3.844
87358W        W51115   3.877  33.457   2.784
87359W        W51116  31.900  13.181   3.176
87360W        W51117  30.502  25.035   4.165
87361W        W51118  37.552  36.069  10.412
87362W        W51119   7.775   0.374  10.469
87363W        W51120  30.426  24.128   2.839
87364W        W51121  37.338  25.048   9.922
87365W        W51122   7.220  39.905   0.251
87366W        W51123  19.138  19.777   2.271
87367W        W51124  11.159  44.462   4.305
87368W        W51125  13.121  40.393   1.731
87369W        W51126  21.676  23.003  11.441
87370W        W51127  21.251  43.827   2.380
87371W        W51128  16.786  27.099  14.351
87372W        W51129   6.684  32.941  14.816
87373W        W51130  31.460   5.398   3.164
87374W        W51131   2.281  14.772  12.388
87375W        W51132  21.182  40.540   1.246
87376W        W51133  22.519   4.891  14.483
87377W        W51134  15.706  28.632  13.317
87378W        W51135   2.962  32.034   1.744
87379W        W51136  12.733  20.092  13.803
87380W        W51137  38.963  24.975  13.868
87381W        W51138  18.188  13.646  11.443
87382W        W51139  38.914   0.445  13.947
87383W        W51140  17.680  20.729   1.833
87384W        W51141  13.342   3.732   1.728
87385W        W51142  15.274  39.316   0.348
87386W        W51143  20.700  26.673   3.752
87387W        W51144  37.392  11.797  10.911
87388W        W51145  40.909   2.757  12.383
87389W        W51146  18.265  31.513   2.802
87390W        W51147  21.208  20.606   2.289
87391W        W51148   7.218  30.018  13.309
87392W        W51149  44.843  27.068   0.850
87393W        W51150  41.398  24.569  13.016
87394W        W51151  21.758  32.995   5.148
87395W        W51152   7.186  17.741   0.331
87396W        W51153  10.673   5.388   3.684
87397W        W51154  15.306   3.283  11.991
87398W        W51155  30.158   4.230  11.920
87399W        W51156  42.938  38.838  11.396
87400W        W51157  21.724  28.052  14.760
87401W        W51158  25.158  39.879  13.944
87402W        W51159  15.286  40.498  10.956
87403W        W51160  27.450   7.259  12.046
87404W        W51161  26.625  10.356   1.813
87405W        W51162  15.685  30.592  10.958
87406W        W51163   0.363   6.701  13.451
87407W        W51164  40.878  22.193   0.479
87408W        W51165   3.949  27.611   3.300
87409W        W51166  10.634   7.175  11.994
87410W        W51167  26.109  20.525   0.875
87411W        W51168  42.510   6.835  14.340
87412W        W51169   7.684  15.758  10.003
87413W        W51170   4.336  22.640   4.702
87414W        W51171  25.505  14.181  13.472
87415W        W51172  41.956  37.397   3.786
87416W        W51173   2.764   2.273   1.296
87417W        W51174  22.070  36.366   0.368
87418W        W51175  35.368  33.935   4.330
87419W        W51176  43.815  17.770  10.995
87420W        W51177  42.311  26.641   1.288
87421W        W51178   4.412   1.940  10.969
87422W        W51179  29.501  41.032   1.853
87423W        W51180  25.094  20.259  10.521
87424W        W51181  29.116  15.759   3.269
87425W        W51182  39.474   2.724   3.825
87426W        W51183  13.319  41.344  14.344
87427W        W51184   1.924  34.499  11.049
87428W        W51185  40.821  33.462  13.547
87429W        W51186  42.290  21.052   2.289
87430W        W51187  20.610  19.629  10.920
87431W        W51188  39.938   8.827  11.864
87432W        W51189  10.684  13.650   1.902
87433W        W51190  38.837  15.095  12.364
87434W        W51191  20.159   5.356   4.709
87435W        W51192  25.711   6.730  11.576
87436W        W51193   6.909  24.974   0.314
87437W        W51194   0.785  36.010   9.920
87438W        W51195  18.750  42.845   0.468
87439W        W51196  36.553  17.772  12.917
87440W        W51197   6.704   5.749   4.704
87441W        W51198  40.503  42.893   5.100
87442W        W51199   0.346  24.643   0.948
87443W        W51200  17.601  34.119  13.514
87444W        W51201  35.449  14.275  11.500
87445W        W51202  35.554   2.385  14.433
87446W        W51203  19.699  28.186   4.306
87447W        W51204  41.828  29.497   2.254
87448W        W51205   6.184   9.711   3.201
87449W        W51206   2.393   2.829   4.173
87450W        W51207  12.829  27.084  12.036
87451W        W51208  38.473  12.640   1.897
87452W        W51209  29.156  28.516   3.330
87453W        W51210  38.014  31.004  10.923
87454W        W51211  39.832  31.592   2.183
87455W        W51212  20.716  12.362  10.916
87456W        W51213  27.507  25.170  11.508
87457W        W51214  25.047  41.819   4.125
87458W        W51215   8.256  40.976   2.839
87459W        W51216  27.168  40.931   1.399
87460W        W51217  15.148  34.469  13.545
87461W        W51218  11.793  14.290   4.252
87462W        W51219  13.705  17.290   3.692
87463W        W51220  27.965   1.428  10.087
87464W        W51221  41.320  10.214   4.298
87465W        W51222   8.363  22.582  13.525
87466W        W51223  19.635  32.436   2.795
87467W        W51224  32.423  12.830  14.500
87468W        W51225  35.541   3.432  10.498
87469W        W51226  19.663  20.076   0.266
87470W        W51227   2.881  14.306   0.457
87471W        W51228  36.420  20.692  12.472
87472W        W51229  16.142   8.708  11.114
87473W        W51230  43.330  36.563   0.953
87474W        W51231  12.732  29.063   3.210
87475W        W51232  15.607   0.446  13.362
87476W        W51233   7.761  25.966  12.437
87477W        W51234  16.135  30.417   1.432
87478W        W51235  31.403  26.966   4.705
87479W        W51236  37.550  31.142  14.769
87480W        W51237   0.429  38.898  14.853
87481W        W51238  24.715  16.669   1.448
87482W        W51239  20.123   1.358  11.040
87483W        W51240  18.626   1.351   2.676
87484W        W51241  35.966  34.021   3.197
87485W        W51242  14.653   5.385  14.303
87486W        W51243  34.440  17.688   1.351
87487W        W51244  18.215  25.136   0.279
87488W        W51245  33.472  29.050  12.085
87489W        W51246   4.391  25.687  12.090
87490W        W51247  16.263  39.827  14.417
87491W        W51248  30.933   4.375   0.394
87492W        W51249  12.666   8.676   2.239
87493W        W51250  42.456  21.751   2.201
87494W        W51251  16.207  25.065   5.305
87495W        W51252  33.600  34.896   3.300
87496W        W51253  23.715  37.922   4.796
87497W        W51254  43.307   9.843  10.567
87498W        W51255  40.977  36.550   3.354
87499W        W51256  25.214   3.868   4.617
87500W        W51257   6.897  41.907   2.834
87501W        W51258  23.206  13.134  13.453
87502W        W51259  10.670  17.795   3.380
87503W        W51260  44.473   5.195   2.751
87504W        W51261  32.964  43.439  13.999
87505W        W51262  16.789   3.416   0.315
87506W        W51263  18.712  44.956   0.378
87507W        W51264   8.801  23.582  11.381
87508W        W51265  25.213  38.468   1.413
87509W        W51266  18.580  42.864  10.446
87510W        W51267  18.596  33.389   2.360
87511W        W51268  18.200   3.911   0.891
87512W        W51269  40.389  33.474   0.463
87513W        W51270  15.159   9.832  11.598
87514W        W51271  39.870  39.465   3.326
87515W        W51272  21.573  23.234  10.420
87516W        W51273   1.803  43.857  12.443
87517W        W51274  19.632  21.560   2.414
87518W        W51275  33.507  44.801  14.278
87519W        W51276  29.944  44.956  13.815
87520W        W51277  40.385  22.690   1.225
87521W        W51278  20.029  10.384  11.951
87522W        W51279   9.369   7.879  13.840
87523W        W51280  20.531   9.302   0.473
87524W        W51281  22.044  36.522  11.972
87525W        W51282  12.287  26.619   3.359
87526W        W51283  44.375  13.109   4.281
87527W        W51284   9.174  17.718   3.260
87528W        W51285  11.319  13.153   0.801
87529W        W51286  38.856  35.025  14.440
87530W        W51287  32.462  34.589  10.890
87531W        W51288   1.814  26.573  14.997
87532W        W51289   9.202  31.104   0.754
87533W        W51290  30.954  41.343  12.885
87534W        W51291   0.775   3.430   9.937
87535W        W51292  16.170  22.600   3.783
87536W        W51293  13.152  13.122   2.811
87537W        W51294  11.778  43.911  14.940
87538W        W51295  27.508  10.276  12.995
87539W        W51296   9.873  31.143   0.345
87540W        W51297  44.366  32.082   2.694
87541W        W51298   0.871  42.406  14.917
87542W        W51299  41.897  26.660   4.709
87543W        W51300  39.915   3.423   2.778
87544W        W51301   6.194  34.021   1.372
87545W        W51302   1.282  42.823   4.333
87546W        W51303  37.991  41.390  12.421
87547W        W51304  10.275  18.237   2.287
87548W        W51305  32.917  19.146  12.058
87549W        W51306  10.357  25.533   0.942
87550W        W51307  44.924  37.406   5.260
87551W        W51308   2.367   8.347  10.949
87552W        W51309   7.816   2.231  12.496
87553W        W51310  27.501  10.319   0.452
87554W        W51311   2.876  26.640  10.129
87555W        W51312  25.033  32.135  14.902
87556W        W51313   5.801  14.236   0.303
87557W        W51314  29.034  38.049   1.309
87558W        W51315   9.782  28.980   0.873
87559W        W51316  17.725  22.547   2.419
87560W        W51317  35.429  30.152  14.950
87561W        W51318  34.439  32.072  10.015
87562W        W51319  18.673  35.905  11.034
87563W        W51320  41.326  11.139   3.706
87564W        W51321  28.626  32.907   2.847
87565W        W51322  23.236  28.160  13.986
87566W        W51323  12.791  26.174   0.326
87567W        W51324  43.995  16.082   1.445
87568W        W51325  39.431   3.878   2.688
87569W        W51326  31.424  43.768  11.868
87570W        W51327  43.891  15.821   2.838
87571W        W51328  10.331  38.400   1.814
87572W        W51329  16.072   8.205   1.378
87573W        W51330  13.279   9.645   4.318
87574W        W51331   5.887  23.660  13.545
87575W        W51332  33.107  32.526   4.299
87576W        W51333  43.366  25.636  13.879
87577W        W51334   7.259  32.445  14.364
87578W        W51335  37.444  34.413  14.403
87579W        W51336  17.798   5.201   4.292
87580W        W51337  11.218  39.440  11.432
87581W        W51338  25.600  16.173  14.384
87582W        W51339   5.206  36.884   0.368
87583W        W51340  22.024  11.372  11.481
87584W        W51341  14.783   2.332  11.056
87585W        W51342  14.692   8.777   2.749
87586W        W51343   9.734  22.167  10.915
87587W        W51344  21.048  16.136  10.406
87588W        W51345  11.670  11.809  13.548
87589W        W51346  21.058   1.457   0.871
87590W        W51347  11.195  34.575   1.899
87591W        W51348  44.443  29.521  12.090
87592W        W51349  23.613  32.456   1.272
87593W        W51350  14.729   0.347  10.974
87594W        W51351  21.545  12.229   3.314
87595W        W51352  33.889  25.550  11.030
87596W        W51353  40.012  26.988   3.740
87597W        W51354  10.717  29.496   3.819
87598W        W51355  43.985  34.027   2.720
87599W        W51356  38.339  24.102   3.309
87600W        W51357  29.513   7.342   1.780
87601W        W51358  40.433   6.382  12.931
87602W        W51359   2.235  23.521   4.353
87603W        W51360  41.913   6.911  13.844
87604W        W51361  12.224  23.623  13.974
87605W        W51362   7.736  14.750   5.097
87606W        W51363  22.667   8.867   0.378
87607W        W51364  18.257  25.992  12.869
87608W        W51365  39.518  22.094  12.469
87609W        W51366  25.202  18.682   1.892
87610W        W51367  20.590  44.477  11.915
87611W        W51368  40.824   2.234  10.585
87612W        W51369  36.461   1.776   3.708
87613W        W51370  34.087  42.017   4.325
87614W        W51371  29.478  17.569  13.541
87615W        W51372  17.659  38.392  13.964
87616W        W51373  10.229  19.740  13.398
87617W        W51374   2.299  33.914   0.402
87618W        W51375  42.792  32.991  10.434
87619W        W51376  25.605  43.443  11.109
87620W        W51377  38.053  38.865  12.032
87621W        W51378  19.664   0.942  12.368
87622W        W51379  27.073  15.801  11.409
87623W        W51380  12.138  25.116  10.468
87624W        W51381  39.556  39.472   4.727
87625W        W51382   4.845  25.568   2.183
87626W        W51383  31.595  19.543   4.245
87627W        W51384  29.606  23.183   2.754
87628W        W51385  34.524   1.246  10.928
87629W        W51386  28.489  26.183  12.438
87630W        W51387  43.909   0.404   4.319
87631W        W51388  18.184  26.615   3.860
87632W        W51389  39.848  21.032   1.272
87633W        W51390  38.900  41.514  11.013
87634W        W51391  13.218  34.026   4.678
87635W        W51392  34.959  33.469  12.493
87636W        W51393  34.010  32.631  11.574
87637W        W51394  41.959   7.778   3.827
87638W        W51395  40.356  15.201   3.681
87639W        W51396  12.773  12.655   4.164
87640W        W51397  44.505  40.957   1.218
87641W        W51398   2.753  28.493  10.415
87642W        W51399  33.914  39.048  11.449
87643W        W51400  13.275  23.223  14.834
87644W        W51401  22.029  19.089   0.879
87645W        W51402  30.599  14.830  11.861
87646W        W51403   4.934   6.905   1.807
87647W        W51404  15.699  30.555   5.235
87648W        W51405   6.182  22.501  14.911
87649W        W51406  22.620   0.788   2.336
87650W        W51407   2.889  35.446   4.644
87651W        W51408  35.089  24.609  14.501
87652W        W51409   6.773  14.247  10.906
87653W        W51410  40.306   2.469  13.322
87654W        W51411  31.907   7.899  13.872
87655W        W51412  14.223   1.794   1.279
87656W        W51413  13.638   6.402   2.710
87657W        W51414  12.262  24.667  12.034
87658W        W51415  13.167   3.944   0.322
87659W        W51416  16.228  36.076   2.876
87660W        W51417   0.355  41.949   1.343
87661W        W51418   9.856  18.291  14.808
87662W        W51419  22.701  29.983  11.981
87663W        W51420  10.368  37.038   3.811
87664W        W51421  15.761  40.545   5.283
87665W        W51422   8.247  15.706   4.113
87666W        W51423  22.528   1.821   0.938
87667W        W51424  15.585  44.784  11.035
87668W        W51425   4.290  16.672  12.539
87669W        W51426  28.963  24.643  11.988
87670W        W51427   3.775  22.062   3.695
87671W        W51428   6.893  27.682  12.840
87672W        W51429  35.908  29.037   2.272
87673W        W51430  20.082   5.780   0.291
87674W        W51431  26.582  35.456  10.464
87675W        W51432   7.256  40.314  12.472
87676W        W51433   1.853  15.741  12.552
87677W        W51434  14.248  28.677   2.297
87678W        W51435  23.100  44.336   1.864
87679W        W51436  22.542  41.331   3.856
87680W        W51437  23.721   7.386  10.438
87681W        W51438  11.623  27.173   1.228
87682W        W51439   1.921  29.555   1.429
87683W        W51440  33.066  21.563   3.321
87684W        W51441  31.585  22.057  11.855
87685W        W51442  22.630  39.362   4.258
87686W        W51443  23.999  38.380   1.323
87687W        W51444  10.334  11.679   5.265
87688W        W51445   8.218  41.014   4.622
87689W        W51446  15.744  37.575  10.609
87690W        W51447   8.790   6.422   5.207
87691W        W51448  11.339  36.090   1.306
87692W        W51449  34.005  31.936   3.303
87693W        W51450   7.364  11.823   3.720
87694W        W51451  32.141  40.447   0.441
87695W        W51452   9.367  13.129  10.556
87696W        W51453  14.631  38.844   1.233
87697W        W51454  30.473   0.338  14.827
87698W        W51455  18.630  29.587   0.260
87699W        W51456  23.687  23.579   1.712
87700W        W51457   1.325  24.521   2.407
87701W        W51458  38.358  21.083  12.896
87702W        W51459  30.083  28.998   4.796
87703W        W51460   4.919  27.447   4.324
87704W        W51461  23.082   5.808   4.683
87705W        W51462  21.595   1.477  13.446
87706W        W51463   4.737  30.055  14.834
87707W        W51464  42.781   6.216   4.829
87708W        W51465   9.349  33.568   9.958
87709W        W51466  26.471  12.269   1.743
87710W        W51467  21.249  41.337  12.859
87711W        W51468   8.179  30.434   2.789
87712W        W51469  13.616   5.225  11.505
87713W        W51470  14.155  21.693   1.423
87714W        W51471  35.527  15.632  12.984
87715W        W51472  36.371  16.675   1.838
87716W        W51473  31.571  22.569   1.716
87717W        W51474  28.603  10.254   0.395
87718W        W51475   4.724  23.543  14.961
87719W        W51476  12.797  34.912   4.227
87720W        W51477  31.003  28.441   3.335
87721W        W51478  28.658  34.978   0.844
87722W        W51479  20.218  25.699  13.038
87723W        W51480   6.878  26.648   4.289
87724W        W51481  33.573   9.687   2.319
87725W        W51482   5.298   4.398   0.337
87726W        W51483   5.330   7.869  12.568
87727W        W51484   2.322   5.199   3.256
87728W        W51485   7.285  29.934  12.418
87729W        W51486  14.207   1.818  10.457
87730W        W51487  40.453  34.905   1.792
87731W        W51488  39.474   4.731  12.482
87732W        W51489  37.364  19.609  11.570
87733W        W51490   5.895   6.891   2.732
87734W        W51491   9.779   7.789   4.151
87735W        W51492  39.851  40.005   2.312
87736W        W51493  35.499   0.369   2.222
87737W        W51494  27.119  27.020   1.391
87738W        W51495  23.176  30.520   1.857
87739W        W51496   5.357  11.309  11.928
87740W        W51497   4.307  29.438   1.730
87741W        W51498  35.425  32.474  13.873
87742W        W51499  19.695   2.441   0.761
87743W        W51500  25.169  23.621   3.211
87744W        W51501  13.211  32.512   2.305
87745W        W51502  39.348  15.124  12.541
87746W        W51503  28.168  30.614  10.092
87747W        W51504  34.965  11.223  14.771
87748W        W51505   3.237  13.138   2.868
87749W        W51506   2.849  13.653   4.821
87750W        W51507  32.140   6.373   4.269
87751W        W51508  23.652  38.470   2.372
87752W        W51509  27.057   4.430   3.337
87753W        W51510  25.552  21.530  10.945
87754W        W51511  42.491   4.367   4.197
87755W        W51512  37.519  28.009   0.847
87756W        W51513  12.126  26.194  12.531
87757W        W51514  42.433  44.358  11.437
87758W        W51515  17.211   6.905   3.356
87759W        W51516  41.983  40.445  12.494
87760W        W51517  18.262  20.094  12.978
87761W        W51518  42.458  23.132  10.552
87762W        W51519  13.840  18.689   0.454
87763W        W51520  23.172  40.862   0.293
87764W        W51521  44.929  21.746  14.845
87765W        W51522  29.016  22.638  14.411
87766W        W51523  28.500   0.937   4.611
87767W        W51524  20.700  16.650   4.652
87768W        W51525   1.859  32.930   4.709
87769W        W51526  32.032   6.760  12.949
87770W        W51527  18.588  19.676   2.341
87771W        W51528  21.702  27.987   1.925
87772W        W51529  29.531  21.031   1.215
87773W        W51530  16.756  14.274  11.901
87774W        W51531  36.879  43.471  11.502
87775W        W51532  29.955  18.675  13.490
87776W        W51533  24.547   4.446   4.218
87777W        W51534   0.450  23.189   4.670
87778W        W51535  24.125  23.630   4.824
87779W        W51536   5.910   6.354  13.047
87780W        W51537  17.557  16.228   4.628
87781W        W51538  43.790  37.903  11.861
87782W        W51539  16.138  41.044  12.002
87783W        W51540  20.601  15.702  10.518
87784W        W51541  43.452  44.818   1.302
87785W        W51542  43.424  42.361  14.295
87786W        W51543  15.710  14.265  12.976
87787W        W51544  35.072   3.807  11.041
87788W        W51545  23.042  12.267   1.786
87789W        W51546  42.888  20.606   3.634
87790W        W51547  30.520  41.842  12.568
87791W        W51548  20.031   8.275   1.736
87792W        W51549  28.516  19.602   2.677
87793W        W51550  43.336  36.024  14.410
87794W        W51551  36.420  14.164   1.822
87795W        W51552  24.659  23.514   4.251
87796W        W51553   9.187   0.810  11.521
87797W        W51554  20.621  37.430  13.520
87798W        W51555  11.201  44.306   0.433
87799W        W51556  12.335  34.057  11.886
87800W        W51557  25.120  34.378  13.807
87801W        W51558  11.200  32.464   3.350
87802W        W51559  40.390   9.683  13.931
87803W        W51560  18.545  39.442   0.351
87804W        W51561  43.883  11.845  11.054
87805W        W51562  37.419   8.185   4.329
87806W        W51563   4.833  24.100  12.934
87807W        W51564   8.808  26.603  11.427
87808W        W51565   5.422  18.108   9.983
87809W        W51566  22.177  31.956   1.427
87810W        W51567  29.989  43.287  12.534
87811W        W51568   2.843  39.417  10.989
87812W        W51569   6.293  29.154   2.703
87813W        W51570  16.800  21.744   2.296
87814W        W51571  13.683  25.965  12.568
87815W        W51572  36.020  30.911  10.959
87816W        W51573  18.707  27.506  11.984
87817W        W51574  35.594   4.448   3.829
87818W        W51575  15.726  37.068  13.357
87819W        W51576  23.532   6.889  12.007
87820W        W51577  10.780  32.592  12.996
87821W        W51578  11.631  18.713   1.438
87822W        W51579  44.820  42.889  12.427
87823W        W51580  40.000   2.471  13.384
87824W        W51581  40.860   0.906  14.454
87825W        W51582  36.015  10.356  13.474
87826W        W51583  20.688   7.338   0.396
87827W        W51584  18.561  11.175   4.604
87828W        W51585  30.444  11.836   3.702
87829W        W51586  24.504  34.548  12.960
87830W        W51587   7.277  12.232  13.391
87831W        W51588  11.784  36.517  14.457
87832W        W51589   8.306  19.191   2.883
87833W        W51590  14.766  30.552  14.853
87834W        W51591  19.187   4.746   2.698
87835W        W51592  25.618   2.276   3.870
87836W        W51593  15.755  40.845  14.821
87837W        W51594  13.825  17.250  13.360
87838W        W51595  15.303  38.402   1.737
87839W        W51596  28.564   4.397  14.023
87840W        W51597  23.522  32.981   2.298
87841W        W51598   8.888  41.396  12.853
87842W        W51599  17.565  34.442   0.483
87843W        W51600  23.204  14.752   3.259
87844W        W51601  21.210   5.744   1.228
87845W        W51602  28.635  38.006   3.353
87846W        W51603  43.835  29.999  11.998
87847W        W51604  20.104  23.199   1.402
87848W        W51605  37.849   2.940  11.064
87849W        W51606  28.139  29.529  13.881
87850W        W51607  35.370  30.120   0.760
87851W        W51608  37.572  36.987  14.472
87852W        W51609  11.640   9.790   0.736
87853W        W51610  23.190  21.058   1.296
87854W        W51611   5.869  12.148  12.403
87855W        W51612   5.430  28.562  11.980
87856W        W51613   2.274  41.019   2.782
87857W        W51614   8.695  19.220   1.223
87858W        W51615  37.564  42.813  14.919
87859W        W51616  44.378  21.125  14.490
87860W        W51617  31.075  16.808   3.740
87861W        W51618  33.489  13.347   3.367
87862W        W51619  40.516  44.292   2.663
87863W        W51620  35.016  42.928  12.417
87864W        W51621  10.699  11.760   2.877
87865W        W51622  25.168  36.573   4.123
87866W        W51623  38.508  35.002  14.806
87867W        W51624  26.662  26.477   1.294
87868W        W51625  42.312  26.975   3.672
87869W        W51626  34.901  21.643  11.531
87870W        W51627  19.656   3.765   1.435
87871W        W51628  16.281   1.426  13.503
87872W        W51629  19.752  26.597  14.333
87873W        W51630  15.767  25.693  10.602
87874W        W51631   8.897  34.451   0.871
87875W        W51632  26.045  20.062  13.826
87876W        W51633  12.754  28.176   2.254
87877W        W51634  32.606   7.320  12.513
87878W        W51635  22.117   7.400   0.900
87879W        W51636  12.264  26.592   2.883
87880W        W51637   5.415  41.506  12.940
87881W        W51638  18.126   3.308   2.390
87882W        W51639  31.130   8.265  13.328
87883W        W51640  19.115  28.611  13.943
87884W        W51641  13.258  18.764   2.303
87885W        W51642  33.077  28.562  14.795
87886W        W51643  29.132  19.046   3.229
87887W        W51644  33.476  29.049   5.620
87888W        W51645   2.263  20.746   0.301
87889W        W51646  32.538  31.978  10.617
87890W        W51647  21.178  39.418   2.695
87891W        W51648   9.680   7.358  14.483
87892W        W51649  13.735  28.038  13.837
87893W        W51650  44.812   6.415  14.923
87894W        W51651  10.838  16.791  14.375
87895W        W51652   4.736  39.013  14.369
87896W        W51653  36.497  44.339   1.814
87897W        W51654   2.958   3.767   3.205
87898W        W51655  44.383  10.861  14.896
87899W        W51656  22.195  15.100  12.914
87900W        W51657   4.807  13.105   4.307
87901W        W51658  28.632  22.202  13.524
87902W        W51659  34.953  40.310  11.007
87903W        W51660  23.213  43.361  12.343
87904W        W51661  41.538  13.767   2.366
87905W        W51662  22.166  40.326   4.761
87906W        W51663  30.085  43.811  11.605
87907W        W51664  28.582   7.184  10.573
87908W        W51665   6.306  30.999   4.329
87909W        W51666  25.040  23.606   3.722
87910W        W51667  16.731  28.640   1.844
87911W        W51668  36.843  27.618   4.733
87912W        W51669   1.818   7.346   1.245
87913W        W51670  35.034   2.468  14.411
87914W        W51671  39.884   4.349   4.216
87915W        W51672  12.767  42.888  10.422
87916W        W51673  21.697  29.451   2.672
87917W        W51674  37.985  20.126   1.785
87918W        W51675   1.792  35.562   2.757
87919W        W51676  30.106  42.835   1.740
87920W        W51677  44.772  14.635  14.455
87921W        W51678  39.985  14.774   4.182
87922W        W51679  30.946   1.959  14.925
87923W        W51680  30.130  19.747   3.321
87924W        W51681  16.708  29.977   0.483
87925W        W51682  26.047  16.091   4.129
87926W        W51683   6.297  15.175  11.052
87927W        W51684   7.747   7.323  14.860
87928W        W51685  39.972  42.856   5.272
87929W        W51686   9.311   5.431   0.943
87930W        W51687  44.970   4.814   2.383
87931W        W51688  24.611  30.052   4.675
87932W        W51689  26.583  29.602  11.405
87933W        W51690  43.830  44.313   4.306
87934W        W51691  20.678  28.977  13.527
87935W        W51692   5.924  27.541   1.398
87936W        W51693  38.528  17.777   1.357
87937W        W51694  10.207  26.961   2.723
87938W        W51695  44.856   9.238  13.529
87939W        W51696   4.877   2.302   2.825
87940W        W51697  20.671  15.812  11.586
87941W        W51698   3.332  21.093   4.207
87942W        W51699   3.414  16.737   0.965
87943W        W51700   5.712  20.647   2.239
87944W        W51701  32.117  18.090  13.063
87945W        W51702  21.629   5.907  11.539
87946W        W51703  11.666  24.683   0.729
87947W        W51704  39.010  10.745   9.965
87948W        W51705   3.866  38.372   4.137
87949W        W51706  15.252  40.311   4.714
87950W        W51707  32.932  44.924   0.396
87951W        W51708   0.398   0.303  13.466
87952W        W51709   6.226  41.016  12.531
87953W        W51710   7.310  11.331  12.029
87954W        W51711  43.926  38.525   1.309
87955W        W51712   4.863  40.854  13.435
87956W        W51713   7.176  18.292   0.944
87957W        W51714  43.462  20.139  13.013
87958W        W51715  21.517  33.904   3.753
87959W        W51716   2.395  41.504  10.152
87960W        W51717  44.268   3.945  11.921
87961W        W51718   3.831  25.617   1.824
87962W        W51719  17.063  11.270  10.520
87963W        W51720  37.044  27.142   3.640
87964W        W51721  12.763   5.913   3.369
87965W        W51722  25.668  14.816  11.468
87966W        W51723  12.783  20.590  12.882
87967W        W51724  33.390   3.432  13.797
87968W        W51725  21.068  10.260  13.537
87969W        W51726  41.364   3.932  11.957
87970W        W51727  39.369   0.835  11.112
87971W        W51728   9.822   0.762  14.919
87972W        W51729  29.989   4.443  14.498
87973W        W51730  25.597   1.814  12.004
87974W        W51731   8.767  19.644   0.862
87975W        W51732  37.029  31.026   4.212
87976W        W51733  31.017  13.820   2.772
87977W        W51734  42.323   4.742  14.415
87978W        W51735   1.836  12.119  13.371
87979W        W51736   5.784  23.118  14.499
87980W        W51737  27.654  14.744   2.364
87981W        W51738  22.697  35.047   2.685
87982W        W51739  23.172  23.600   2.194
87983W        W51740  36.348  34.075  14.291
87984W        W51741   4.395  23.125   1.232
87985W        W51742  38.919   8.732   0.478
87986W        W51743  15.783  33.395  12.896
87987W        W51744  11.826  27.045   4.811
87988W        W51745  18.568  19.632  13.938
87989W        W51746  16.102   2.790  13.386
87990W        W51747  42.288  39.466   3.214
87991W        W51748  20.698  16.131   2.752
87992W        W51749  40.378   5.340   0.785
87993W        W51750   5.691  22.176  12.975
87994W        W51751  24.013   8.365   2.377
87995W        W51752   6.395  10.854   3.671
87996W        W51753  43.875  25.070   5.139
87997W        W51754  35.575  10.697   0.904
87998W        W51755   1.923  37.522   5.096
87999W        W51756   5.213  34.090   1.848
88000W        W51757   7.811   6.908  13.529
88001W        W51758  38.538  33.958  10.894
88002W        W51759  41.336  18.081   3.231
88003W        W51760  40.866  21.138  13.390
88004W        W51761  14.819  10.878  13.472
88005W        W51762  13.314  21.659   1.382
88006W        W51763  35.480  21.066  11.528
88007W        W51764  11.835  37.413  12.983
88008W        W51765  22.576  44.383   5.272
88009W        W51766  25.022  24.603   3.289
88010W        W51767  43.018  15.744   2.776
88011W        W51768  38.478   0.261  12.919
88012W        W51769  23.086   6.386   0.363
88013W        W51770   0.432  10.363  14.476
88014W        W51771   1.772   0.744  14.947
88015W        W51772  25.154   4.925  12.436
88016W        W51773  13.758   3.757  14.358
88017W        W51774  33.530  14.808   0.918
88018W        W51775  29.023  26.200   2.341
88019W        W51776  33.399  28.162  12.033
88020W        W51777  43.454   3.359   0.285
88021W        W51778  14.731  13.110  11.548
88022W        W51779  25.013  32.460  11.869
88023W        W51780  22.239  28.129   4.653
88024W        W51781  40.906   2.395   4.682
88025W        W51782   3.797   8.730  13.478
88026W        W51783   0.373  42.375   0.833
88027W        W51784  10.877   1.446   2.318
88028W        W51785   7.784  41.435  13.335
88029W        W51786  26.586  20.557   2.716
88030W        W51787  22.226  26.644  14.296
88031W        W51788   2.235  17.249   3.652
88032W        W51789  12.173   2.751   4.679
88033W        W51790  31.137   4.768  11.392
88034W        W51791  37.580  38.904  13.013
88035W        W51792  24.074  11.689   5.275
88036W        W51793   5.430  20.246   1.735
88037W        W51794   4.933  24.116   4.640
88038W        W51795  23.997  22.141  12.504
88039W        W51796  35.457   6.411   3.333
88040W        W51797  26.105  25.567   4.221
88041W        W51798  23.104  36.012  11.040
88042W        W51799   1.833   8.182  12.577
88043W        W51800   4.206   5.255   0.409
88044W        W51801  35.036  29.547  11.593
88045W        W51802  42.520  33.921   4.355
88046W        W51803  22.082   1.931   1.777
88047W        W51804  13.277  24.085  14.369
88048W        W51805  44.259   9.327  12.027
88049W        W51806  35.046  19.095  12.440
88050W        W51807  21.573  29.657   1.274
88051W        W51808  37.873   6.301  10.582
88052W        W51809  22.159   3.790   2.255
88053W        W51810  40.830  38.508  13.809
88054W        W51811  39.898  25.966   3.226
88055W        W51812   7.250  36.549  11.451
88056W        W51813   4.789  31.983   1.321
88057W        W51814  37.420  23.668  14.402
88058W        W51815  31.570  12.359  11.573
88059W        W51816  14.253  33.939   3.660
88060W        W51817  41.791  38.399  12.564
88061W        W51818   9.392  11.249  12.396
88062W        W51819   5.376  40.841   4.351
88063W        W51820  32.396  19.581  11.930
88064W        W51821  12.797  25.143   1.270
88065W        W51822  43.968  25.591   1.743
88066W        W51823  23.043   8.238  11.944
88067W        W51824  30.152  15.688  12.007
88068W        W51825  25.579   4.747  14.005
88069W        W51826  36.864  37.476   1.312
88070W        W51827  34.071  25.043   3.707
88071W        W51828  39.060  24.032  10.934
88072W        W51829  21.150   2.278   1.793
88073W        W51830  35.039  41.023   0.874
88074W        W51831   4.216  16.238   4.765
88075W        W51832  35.596  10.253   3.727
88076W        W51833  12.207  31.908   3.325
88077W        W51834  11.732   6.777   1.314
88078W        W51835  12.342  12.666   0.901
88079W        W51836  18.717   3.225  11.409
88080W        W51837   6.706  16.653   2.869
88081W        W51838   7.731  32.886   0.862
88082W        W51839  28.631  20.148  10.892
88083W        W51840  21.699   9.174  13.312
88084W        W51841  32.634  34.563  13.987
88085W        W51842   8.665  37.951  14.022
88086W        W51843  34.926  32.920   0.345
88087W        W51844   5.756  42.778  11.421
88088W        W51845   4.426  23.066   1.697
88089W        W51846  37.915  16.755   3.321
88090W        W51847  29.603  13.271  11.945
88091W        W51848   3.312  32.104  14.278
88092W        W51849  17.235  23.558   1.438
88093W        W51850  10.379  38.966   0.246
88094W        W51851   4.387  34.404  12.871
88095W        W51852  10.198  44.296  10.510
88096W        W51853   7.808  25.617   0.879
88097W        W51854  27.959  20.586  13.474
88098W        W51855  31.083  31.506  14.993
88099W        W51856  39.387  22.729   3.219
88100W        W51857   7.406  44.389  11.921
88101W        W51858   6.922   9.788   4.796
88102W        W51859  41.963  18.222   4.326
88103W        W51860  42.963   1.304   3.297
88104W        W51861  24.973  16.226  13.902
88105W        W51862  26.701   6.831  14.316
88106W        W51863   6.257  29.578  11.567
88107W        W51864  16.772  41.432  14.012
88108W        W51865   1.758   2.927   3.790
88109W        W51866  42.912  12.318  11.586
88110W        W51867  26.639   6.368   0.262
88111W        W51868   4.788   4.890  12.975
88112W        W51869   9.876  44.961  12.381
88113W        W51870  19.775  35.545  11.523
88114W        W51871  31.425  28.658   4.166
88115W        W51872  18.100   7.214  12.895
88116W        W51873  10.320   4.743  10.007
88117W        W51874   1.884  22.725  12.996
88118W        W51875  14.598  30.116  10.456
88119W        W51876  36.462  38.341  12.536
88120W        W51877  34.597  19.734  13.944
88121W        W51878   2.933  40.542   4.668
88122W        W51879  34.889  39.874  10.432
88123W        W51880  14.649  40.482   1.349
88124W        W51881  38.990   6.213   0.360
88125W        W51882  35.511  28.963   1.288
88126W        W51883   5.256   0.364   0.802
88127W        W51884  23.524  26.613   2.298
88128W        W51885  12.813  31.424  11.873
88129W        W51886  16.761  41.027  12.868
88130W        W51887   2.733  11.270   3.183
88131W        W51888  37.879   6.689  14.277
88132W        W51889  37.957  24.135   9.987
88133W        W51890  24.225   8.901   0.800
88134W        W51891  10.298  15.318   2.259
88135W        W51892  43.013  34.484   0.803
88136W        W51893  39.441   7.193  14.280
88137W        W51894  34.443  35.966  14.002
88138W        W51895   0.949  14.696  13.422
88139W        W51896   2.360  24.995  10.015
88140W        W51897   2.468  10.862   0.908
88141W        W51898   3.880  38.553   3.162
88142W        W51899  11.772  18.776  11.400
88143W        W51900  22.563  17.235   2.223
88144W        W51901  26.647   1.867   2.891
88145W        W51902  21.583   3.335   1.322
88146W        W51903  33.552  38.415  13.346
88147W        W51904   4.738  26.103   2.323
88148W        W51905   9.811   6.907  11.449
88149W        W51906  31.066  27.980   2.405
88150W        W51907  30.037  13.761   4.180
88151W        W51908   4.780  22.094  13.481
88152W        W51909  42.339  11.234   4.831
88153W        W51910   5.753   2.958  12.951
88154W        W51911   6.771   7.181   2.740
88155W        W51912  41.007   5.410   4.738
88156W        W51913   9.386  26.028   0.884
88157W        W51914  30.590  42.374  10.937
88158W        W51915   1.244  19.089  11.612
88159W        W51916   2.897   0.799   0.248
88160W        W51917  26.520  23.047  10.483
88161W        W51918  26.124  32.032   4.748
88162W        W51919   9.160   4.245   1.295
88163W        W51920  12.360  24.223  14.352
88164W        W51921  11.130   4.814   2.190
88165W        W51922  20.535   9.880   4.281
88166W        W51923  17.278  14.120  12.996
88167W        W51924  29.017   0.295  12.579
88168W        W51925  13.336   7.797  11.506
88169W        W51926  21.718  12.360   1.904
88170W        W51927  21.086  31.557   2.368
88171W        W51928  41.997  30.488   0.840
88172W        W51929   3.350  17.275  10.640
88173W        W51930  30.455  21.546   4.325
88174W        W51931  42.928  18.591   2.831
88175W        W51932  18.738   1.941  12.050
88176W        W51933   2.291   4.703   4.791
88177W        W51934  24.124  33.430   2.291
88178W        W51935   2.452   5.714   9.997
88179W        W51936  29.080  14.600  11.594
88180W        W51937  25.144  36.041   1.896
88181W        W51938  27.575  25.560   4.602
88182W        W51939  10.764  40.875  12.515
88183W        W51940   9.385  36.058  12.535
88184W        W51941  18.210  16.133   2.278
88185W        W51942  20.679   7.177  12.447
88186W        W51943  24.692  29.068   3.743
88187W        W51944  22.135  36.953  14.969
88188W        W51945  37.916   8.817   1.852
88189W        W51946  40.473  41.531  12.837
88190W        W51947  23.684   3.877  13.856
88191W        W51948   9.855  37.464  10.944
88192W        W51949  22.717  34.502  13.339
88193W        W51950  18.102  21.517   1.755
88194W        W51951  44.973  26.126  11.927
88195W        W51952  40.838  42.907  13.850
88196W        W51953   6.304   5.819   2.875
88197W        W51954  42.012   0.981   1.883
88198W        W51955  23.106  37.073   5.724
88199W        W51956  29.547  25.469   9.956
88200W        W51957  41.934  11.726   1.258
88201W        W51958  19.710  30.999   2.250
88202W        W51959  41.518  17.247   2.666
88203W        W51960   4.901   4.943   2.840
88204W        W51961  41.476  29.918  13.363
88205W        W51962  20.544  17.693  13.037
88206W        W51963  42.443   5.924   3.729
88207W        W51964  21.145  28.983   3.314
88208W        W51965  16.226  36.593  10.627
88209W        W51966   7.179  30.973   0.351
88210W        W51967   8.755  13.236   4.837
88211W        W51968   2.915  37.069  11.008
88212W        W51969  13.729  14.183   3.249
88213W        W51970  43.483  40.810   3.838
88214W        W51971  16.155  42.394   1.736
88215W        W51972   0.343  38.991   1.775
88216W        W51973  40.812  15.188  11.060
88217W        W51974  43.917  11.781  12.367
88218W        W51975  28.515  35.369  12.000
88219W        W51976   7.382  18.628  12.874
88220W        W51977   0.963  38.964   2.277
88221W        W51978  43.372   6.914   2.359
88222W        W51979  36.567  31.050  10.945
88223W        W51980  29.512  33.899  12.095
88224W        W51981   7.804  26.101   4.699
88225W        W51982  17.106  22.114   4.701
88226W        W51983  25.614   1.380   1.708
88227W        W51984   3.409  34.110  10.480
88228W        W51985   8.683  40.872   3.371
88229W        W51986   0.746  40.487  11.599
88230W        W51987   1.290  26.208   0.307
88231W        W51988  43.873  27.115  13.013
88232W        W51989  13.132  19.746   0.305
88233W        W51990  14.814  21.090  11.915
88234W        W51991  19.065  37.420  10.022
88235W        W51992  19.210  12.319  12.376
88236W        W51993  43.277  22.637   2.263
88237W        W51994  36.892  38.404   3.734
88238W        W51995  40.381  27.558  13.487
88239W        W51996  42.885  36.893   0.296
88240W        W51997  13.766  44.310   0.273
88241W        W51998   4.382  14.740  14.352
88242W        W51999  35.366  40.322   2.869
88243W        W52000  43.791   1.475  12.947
88244W        W52001  22.615  37.933  12.458
88245W        W52002  43.917  37.889  10.479
88246W        W52003  29.002  44.356   3.176
88247W        W52004  21.658  38.952   3.646
88248W        W52005   2.385  37.949   0.378
88249W        W52006  16.598  18.210   2.396
88250W        W52007   4.928  40.519   4.237
88251W        W52008  38.445  40.549  13.933
88252W        W52009   4.264   2.470  13.508
88253W        W52010   9.312  10.343   0.287
88254W        W52011  19.118  34.948   1.225
88255W        W52012  34.375  10.804  10.969
88256W        W52013   9.712   9.164  12.918
88257W        W52014  32.439  25.983   4.820
88258W        W52015  12.360   7.797  10.477
88259W        W52016  28.539   9.764   0.958
88260W        W52017   3.330  40.458   4.766
88261W        W52018  34.890  10.224   2.699
88262W        W52019  23.550  44.448  11.091
88263W        W52020  26.617  26.512  12.484
88264W        W52021  38.954  28.041   4.121
88265W        W52022  11.131  39.340   1.749
88266W        W52023  27.139   2.329   0.396
88267W        W52024   6.263   0.861   4.715
88268W        W52025  29.937  38.958  11.898
88269W        W52026  30.562   2.844   2.264
88270W        W52027  26.540  15.616  13.395
88271W        W52028  33.027  21.116   3.655
88272W        W52029  35.039  36.518   2.350
88273W        W52030  21.020  43.848  10.102
88274W        W52031   8.265  11.334   1.816
88275W        W52032  38.037  19.751  13.443
88276W        W52033  31.025  17.610  11.380
88277W        W52034  44.336   3.378  14.854
88278W        W52035  18.104  42.517  13.842
88279W        W52036  13.763  39.002  11.100
88280W        W52037  15.181  36.544  12.979
88281W        W52038   7.217  27.645   2.902
88282W        W52039  28.115  36.480  11.553
88283W        W52040  23.196  16.797   3.190
88284W        W52041   1.758  26.513   4.310
88285W        W52042  38.830  14.746   1.796
88286W        W52043  37.336  16.121  13.485
88287W        W52044  18.709  14.189  13.381
88288W        W52045   0.761  39.928   4.774
88289W        W52046  37.443  42.425  11.008
88290W        W52047  15.212  32.534  13.521
88291W        W52048  34.534  11.692   4.119
88292W        W52049  42.018  11.147   1.339
88293W        W52050  16.203  42.922   1.777
88294W        W52051  41.407  31.091  14.803
88295W        W52052   1.863  35.974  10.896
88296W        W52053  24.483   3.826  11.575
88297W        W52054  42.297  40.499   3.166
88298W        W52055   1.259   2.242   2.312
88299W        W52056   6.366  14.222   3.178
88300W        W52057   5.690  23.631   0.918
88301W        W52058  42.873  41.786  10.992
88302W        W52059  43.456  43.986  12.049
88303W        W52060  21.116  34.468  13.840
88304W        W52061  19.208   2.842   4.259
88305W        W52062  16.611   8.794   2.675
88306W        W52063   5.908  23.703  14.387
88307W        W52064  29.140  36.988   3.800
88308W        W52065   5.748  10.876  12.502
88309W        W52066  43.304   6.343   3.796
88310W        W52067  15.127  35.443  12.865
88311W        W52068  11.621  12.147   1.793
88312W        W52069  24.698  43.475  13.987
88313W        W52070  12.276  39.498  12.504
88314W        W52071  24.534  30.074   0.249
88315W        W52072  32.111   4.857   1.776
88316W        W52073  23.091   4.236   3.762
88317W        W52074   5.196  38.386  11.407
88318W        W52075  17.259  32.496  13.057
88319W        W52076  20.608  24.518  13.011
88320W        W52077   4.826  11.372   0.455
88321W        W52078  41.008  39.058   0.352
88322W        W52079   5.302  42.854   2.227
88323W        W52080  35.110   6.791  13.835
88324W        W52081  43.294  14.142   3.343
88325W        W52082  23.631  42.851  14.870
88326W        W52083   6.396  36.879  13.353
88327W        W52084  29.483  40.346  13.036
88328W        W52085  44.781  18.062  13.538
88329W        W52086  11.763  18.116  13.885
88330W        W52087   9.704  11.298  12.844
88331W        W52088   1.783  30.487  13.316
88332W        W52089   7.392  28.972  12.009
88333W        W52090   7.300  28.585   4.770
88334W        W52091  20.691  29.664   3.342
88335W        W52092  17.236  27.956   0.452
88336W        W52093  11.187  26.695  11.418
88337W        W52094  26.114  17.773   0.797
88338W        W52095  12.318   1.266  12.061
88339W        W52096  38.429   6.228  13.852
88340W        W52097   9.360  25.658  12.033
88341W        W52098   9.185  26.578   1.763
88342W        W52099  12.150  28.132   2.336
88343W        W52100  14.145  17.738   3.861
88344W        W52101  15.301  19.553  10.439
88345W        W52102   3.913  27.131  11.556
88346W        W52103  37.919   5.866  12.096
88347W        W52104  43.298  36.871  13.033
88348W        W52105  33.507  12.171   1.883
88349W        W52106  15.207  17.604   0.762
88350W        W52107  19.742  34.035   2.870
88351W        W52108  12.762   2.948  14.890
88352W        W52109  28.064   1.915   0.297
88353W        W52110  36.964  16.670  10.481
88354W        W52111  18.552  22.220   4.251
88355W        W52112  18.677  24.064   2.787
88356W        W52113  37.048  33.930   0.425
88357W        W52114  37.012  35.109   3.767
88358W        W52115  20.622  25.666   4.270
88359W        W52116  11.246  30.492  11.567
88360W        W52117  16.715  16.143   1.821
88361W        W52118   8.692  30.067   3.747
88362W        W52119  41.850  36.527  13.027
88363W        W52120  43.331  15.581   2.395
88364W        W52121   3.236   0.795   0.302
88365W        W52122  23.157  26.119   1.447
88366W        W52123  13.181  35.591  10.623
88367W        W52124  19.212  17.729   0.912
88368W        W52125  11.134  19.189   2.228
88369W        W52126  29.930  33.519  10.888
88370W        W52127  32.139  37.529   3.631
88371W        W52128   4.285   4.744  12.461
88372W        W52129  11.749  34.503   1.387
88373W        W52130   2.408  21.174  12.077
88374W        W52131   6.304   1.316   3.861
88375W        W52132  33.093  26.669   4.346
88376W        W52133  33.097  20.595   2.202
88377W        W52134  40.991  40.017   2.824
88378W        W52135  25.638  23.068  12.496
88379W        W52136  39.903  36.509   4.208
88380W        W52137  12.763  24.227   2.398
88381W        W52138  18.708   1.897   4.667
88382W        W52139   7.678  40.894  13.823
88383W        W52140  15.624  35.530   3.647
88384W        W52141  10.869   3.949  12.061
88385W        W52142  38.344  44.460   0.482
88386W        W52143   9.317  35.601  10.909
88387W        W52144  22.012   7.296   4.669
88388W        W52145   0.405  18.674  10.445
88389W        W52146  44.011   7.771  11.886
88390W        W52147  23.694  19.119  13.501
88391W        W52148  25.063  18.272   2.252
88392W        W52149   8.315   4.313   0.946
88393W        W52150  26.022   8.661  10.456
88394W        W52151  27.515  40.972   1.313
88395W        W52152   7.738  42.346   5.670
88396W        W52153  39.937  29.618  14.837
88397W        W52154  17.136  38.958   2.773
88398W        W52155  10.339  25.126   0.362
88399W        W52156  25.560  41.850   1.275
88400W        W52157  38.062   4.913  11.950
88401W        W52158  11.228  29.473   2.861
88402W        W52159  37.378  24.153  12.924
88403W        W52160  32.116  29.148  11.957
88404W        W52161  33.955  20.084  11.066
88405W        W52162  34.947  35.601  11.084
88406W        W52163  12.846  44.888  11.564
88407W        W52164  18.668  31.914  10.115
88408W        W52165  33.412   5.907   0.790
88409W        W52166   0.808   2.722  11.486
88410W        W52167   5.793   8.786  13.903
88411W        W52168   2.868  12.809  14.423
88412W        W52169  34.404  30.640   1.330
88413W        W52170   0.420   1.286   2.257
88414W        W52171   3.259  12.690  14.315
88415W        W52172  44.330  44.265  10.632
88416W        W52173   7.816  33.606   2.378
88417W        W52174  10.340  38.994  12.406
88418W        W52175  44.831   7.363  14.277
88419W        W52176  19.767   4.903   2.801
88420W        W52177   2.472  21.578   1.717
88421W        W52178  19.141  11.723  13.912
88422W        W52179  11.155  35.874   3.254
88423W        W52180  17.295  41.933   4.328
88424W        W52181   7.840  25.066  11.422
88425W        W52182  23.513  13.647   3.692
88426W        W52183  18.763  34.946   0.247
88427W        W52184  27.685  25.618  10.982
88428W        W52185  21.094  41.408  12.478
88429W        W52186  23.013  31.136  13.869
88430W        W52187  29.943  34.556   2.373
88431W        W52188  39.348  42.417  11.911
88432W        W52189  16.104  14.666   0.947
88433W        W52190  12.804  17.281   1.876
88434W        W52191  23.119  21.070   3.158
88435W        W52192  27.481  41.505   2.367
88436W        W52193  41.911  36.000  13.991
88437W        W52194  25.681  43.946  11.419
88438W        W52195  12.645  12.336   3.176
88439W        W52196  18.127  43.412   4.823
88440W        W52197  34.536  40.983   3.701
88441W        W52198  15.804  43.019  13.830
88442W        W52199  15.618  21.082  10.437
88443W        W52200  30.910  15.608  11.043
88444W        W52201  43.973  20.746   3.265
88445W        W52202  39.051  10.758   3.311
88446W        W52203  40.901  27.178   4.652
88447W        W52204  13.797  40.541  13.469
88448W        W52205  40.533   9.752  14.333
88449W        W52206   8.806  10.268  13.494
88450W        W52207   7.251   6.761  11.998
88451W        W52208   2.448   8.243  14.334
88452W        W52209  40.811  44.798  12.513
88453W        W52210  44.476   3.408  13.461
88454W        W52211  17.654  21.226   1.859
88455W        W52212  29.508  22.696   4.722
88456W        W52213  16.110   8.742  13.805
88457W        W52214  12.828   6.888   2.706
88458W        W52215  17.619   4.788   3.230
88459W        W52216   8.350  15.778  14.349
88460W        W52217   9.734  22.582   0.954
88461W        W52218  21.577   4.356  13.974
88462W        W52219  31.588  11.718  13.429
88463W        W52220  14.149  25.994  14.420
88464W        W52221  28.154  24.494  13.309
88465W        W52222  11.334  32.964  12.997
88466W        W52223   2.367  35.092   2.895
88467W        W52224  37.084  43.813  14.491
88468W        W52225  23.015  40.516   2.188
88469W        W52226  23.699  13.181  11.003
88470W        W52227  32.014   1.473   3.678
88471W        W52228  17.777  44.347  12.375
88472W        W52229  16.659   6.736  12.073
88473W        W52230   7.272   9.809   2.265
88474W        W52231  39.400  20.086   3.323
88475W        W52232  44.808   5.724  10.568
88476W        W52233  18.705  40.466  14.495
88477W        W52234   0.842  19.051  12.345
88478W        W52235  27.956  30.103  10.958
88479W        W52236  18.253  17.684   0.871
88480W        W52237  29.062  36.893   4.220
88481W        W52238  31.010  44.965   2.742
88482W        W52239  33.972  16.204   2.297
88483W        W52240   4.772  42.522  11.506
88484W        W52241  23.598   8.381   2.773
88485W        W52242  20.149   4.442  12.369
88486W        W52243  25.017  26.972   4.192
88487W        W52244  21.090  33.602   3.300
88488W        W52245   9.334  27.079  12.360
88489W        W52246  34.569  12.856   4.598
88490W        W52247   2.791   5.795  11.020
88491W        W52248  42.452   8.697   3.254
88492W        W52249  41.420  44.483  14.431
88493W        W52250  32.980  12.625   3.374
88494W        W52251  38.384  22.694   3.307
88495W        W52252  42.447  39.414   4.597
88496W        W52253  19.123  33.918  11.912
88497W        W52254  35.856  14.125   3.263
88498W        W52255  26.187  42.405  12.866
88499W        W52256   7.269   7.285   3.152
88500W        W52257  31.603  43.409   0.885
88501W        W52258  27.996  13.705   3.261
88502W        W52259  34.963  28.170   0.957
88503W        W52260   2.237   9.324  13.371
88504W        W52261  14.138  26.598   2.886
88505W        W52262  10.282  35.920   0.905
88506W        W52263  11.240  31.407   1.738
88507W        W52264   5.233  16.586  12.560
88508W        W52265  36.982  27.092   4.161
88509W        W52266  15.218  38.544  11.984
88510W        W52267  24.487  40.858   4.229
88511W        W52268  14.121   1.733  14.435
88512W        W52269   5.225  24.582   0.814
88513W        W52270   9.809  11.214  10.441
88514W        W52271  21.550  34.920  13.383
88515W        W52272   2.894  38.442  10.953
88516W        W52273  17.272  10.840   0.417
88517W        W52274  18.135  40.547   0.798
88518W        W52275  22.186  19.550  13.877
88519W        W52276   2.805   8.269   3.232
88520W        W52277   2.389  40.918   1.862
88521W        W52278  11.168   8.737  13.861
88522W        W52279  12.634  30.042   0.268
88523W        W52280  27.582  33.969   2.398
88524W        W52281   7.408  20.737  13.802
88525W        W52282   2.443  32.026  10.457
88526W        W52283  34.453   7.693  13.968
88527W        W52284  42.512  10.669   3.711
88528W        W52285   7.331  34.598   0.845
88529W        W52286  41.469  25.132   3.848
88530W        W52287   1.969  22.635   0.306
88531W        W52288  10.794  25.536   1.293
88532W        W52289  32.099   6.782   2.688
88533W        W52290  41.929  24.032   3.287
88534W        W52291   3.721   6.722  12.007
88535W        W52292   6.872  19.245   2.310
88536W        W52293   2.763  25.102   1.746
88537W        W52294  30.043   1.425   3.863
88538W        W52295  37.479   0.878  14.365
88539W        W52296  43.365  26.657   3.294
88540W        W52297  36.495   2.916  13.379
88541W        W52298  27.004  31.964   3.302
88542W        W52299  18.161  32.508   1.850
88543W        W52300  32.427  28.166   0.344
88544W        W52301  31.561   6.860  11.538
88545W        W52302  41.341  12.640  12.947
88546W        W52303   4.398  30.590   1.407
88547W        W52304   8.202  32.044   0.275
88548W        W52305   0.840  13.204  10.418
88549W        W52306  40.847  41.890   2.209
88550W        W52307  32.015  11.250   9.995
88551W        W52308  36.444  17.723   3.781
88552W        W52309  35.387  12.812   1.312
88553W        W52310  32.568   4.850  14.418
88554W        W52311  17.080   8.251  10.892
88555W        W52312  29.605  37.835   2.218
88556W        W52313   9.819  11.742   1.451
88557W        W52314  31.991  17.139   0.400
88558W        W52315  34.449  16.150   1.439
88559W        W52316  29.528   1.933   3.703
88560W        W52317   7.872  23.998  13.020
88561W        W52318  13.658  10.375  12.973
88562W        W52319  21.618  29.058  12.037
88563W        W52320  14.807  28.546   4.793
88564W        W52321  17.677  23.082  13.323
88565W        W52322  15.214  12.138   2.669
88566W        W52323  33.536   7.277   0.949
88567W        W52324  38.948  21.665   0.911
88568W        W52325  34.458   5.758  14.827
88569W        W52326  31.044  14.188  10.039
88570W        W52327  40.812  10.874   2.282
88571W        W52328  15.202  42.990   2.390
88572W        W52329   7.772  35.527  13.842
88573W        W52330  10.376  14.184  11.897
88574W        W52331  11.864  30.926   2.388
88575W        W52332   3.289   2.721  12.879
88576W        W52333  25.468  40.808   2.850
88577W        W52334  16.301   6.380  12.448
88578W        W52335  14.316  23.008   2.785
88579W        W52336   9.165   6.878   0.809
88580W        W52337   0.979  31.617  10.997
88581W        W52338  32.577  23.655   2.281
88582W        W52339   2.419  25.502  13.933
88583W        W52340  22.505   9.803  14.823
88584W        W52341  22.114  12.637   3.193
88585W        W52342   9.155  38.485   2.901
88586W        W52343   8.320  27.114   0.920
88587W        W52344   6.865  33.617  10.544
88588W        W52345  39.381  40.820   4.238
88589W        W52346   1.240  16.214   1.344
88590W        W52347  14.620  44.765  12.459
88591W        W52348  14.669  22.528  10.001
88592W        W52349  40.316   0.326   4.807
88593W        W52350   8.305  22.618  12.001
88594W        W52351  16.150   3.331  11.400
88595W        W52352  18.707  43.346   1.904
88596W        W52353  44.779  16.250   0.861
88597W        W52354  41.467   0.357  14.845
88598W        W52355  43.874  37.551  11.114
88599W        W52356  30.042  20.668   1.745
88600W        W52357  40.827  20.242  14.432
88601W        W52358  18.091  33.878  13.819
88602W        W52359  37.078  27.503   0.931
88603W        W52360  32.020  17.566   0.360
88604W        W52361  25.147  29.031   1.404
88605W        W52362  31.444   1.816   4.836
88606W        W52363  28.140   8.212   3.739
88607W        W52364  29.579  10.815   1.792
88608W        W52365  13.307  19.694  13.854
88609W        W52366  13.248   5.876   0.452
88610W        W52367  23.654   3.744  14.909
88611W        W52368  43.801  21.566   1.353
88612W        W52369  34.465  14.686   4.609
88613W        W52370  25.697   6.224  10.525
88614W        W52371  33.071  43.021   1.397
88615W        W52372  17.800  19.772   3.354
88616W        W52373   7.844   5.288  13.543
88617W        W52374  11.149   5.342   0.247
88618W        W52375  23.006  14.699   3.758
88619W        W52376  40.914   5.240   1.867
88620W        W52377  41.328  36.973   1.713
88621W        W52378  20.635  29.045   4.144
88622W        W52379  14.231  39.518  13.905
88623W        W52380  16.580  11.735  12.451
88624W        W52381   7.268  33.102   4.304
88625W        W52382  36.492   0.986  13.028
88626W        W52383  32.901  29.143  13.988
88627W        W52384  37.395  23.147   4.121
88628W        W52385  33.532  20.115  13.875
88629W        W52386  12.149  41.293   3.749
88630W        W52387  13.776  21.165  12.563
88631W        W52388  26.597  32.478  10.976
88632W        W52389   9.661  10.249  10.409
88633W        W52390   4.350  24.664   3.810
88634W        W52391  30.930   5.401   0.873
88635W        W52392  16.239  23.236  14.007
88636W        W52393  36.849  12.775  11.069
88637W        W52394  37.515  42.012  13.521
88638W        W52395  24.478   2.835   1.861
88639W        W52396  31.605   5.384  14.437
88640W        W52397  38.880   0.248  12.540
88641W        W52398  20.575  21.666   3.157
88642W        W52399  17.123  35.392   0.963
88643W        W52400  32.461  40.510  10.998
88644W        W52401  39.968  24.189   3.254
88645W        W52402  44.482   0.435  12.020
88646W        W52403   4.345  35.472   0.422
88647W        W52404   2.467  43.824   0.362
88648W        W52405   3.849  16.195  13.950
88649W        W52406   6.875  44.505  11.567
88650W        W52407  25.669  10.662  11.417
88651W        W52408  37.900  34.606   1.914
88652W        W52409  18.731  32.142   5.173
88653W        W52410  37.934   8.208  12.959
88654W        W52411   7.237  16.754  11.568
88655W        W52412   1.771  31.598   2.881
88656W        W52413  18.188  30.450   2.857
88657W        W52414  29.014  43.427   3.728
88658W        W52415  22.736  17.764  12.865
88659W        W52416  18.050  25.586   4.221
88660W        W52417  23.077   0.380  14.794
88661W        W52418   2.831  42.472  12.871
88662W        W52419  19.778  26.477   2.396
88663W        W52420  28.037  43.813  12.416
88664W        W52421  32.079   7.858   4.276
88665W        W52422  38.060  28.089  13.043
88666W        W52423  13.748  23.003  12.578
88667W        W52424  40.529   7.834   0.405
88668W        W52425  29.011   2.472   1.291
88669W        W52426  37.485  11.368   0.285
88670W        W52427  33.082  33.381   2.802
88671W        W52428  10.693  26.457  10.600
88672W        W52429  29.125   6.743  13.045
88673W        W52430  33.037  15.184   3.636
88674W        W52431  42.369  11.350   0.869
88675W        W52432  19.053   5.368  13.031
88676W        W52433   4.937  38.916  12.912
88677W        W52434  27.453  20.525  11.505
88678W        W52435  15.710   6.215  11.552
88679W        W52436  29.163  23.170  10.107
88680W        W52437  43.881   8.166  13.315
88681W        W52438  10.725  28.979  11.990
88682W        W52439  23.986  40.895  11.510
88683W        W52440  25.214  15.609  14.297
88684W        W52441   6.864  24.152  14.782
88685W        W52442   2.782  43.782  14.441
88686W        W52443  42.327  31.121  14.350
88687W        W52444  41.999  13.339  14.477
88688W        W52445  38.841  38.021  13.841
88689W        W52446  17.098  28.529  12.041
88690W        W52447  27.152   2.288  11.120
88691W        W52448   7.814  28.522  12.466
88692W        W52449  34.955  31.104  12.063
88693W        W52450  11.849  20.273   4.775
88694W        W52451   7.732   1.435  12.360
88695W        W52452  38.871   4.441  12.894
88696W        W52453   7.254   3.307  10.485
88697W        W52454  32.566  20.077   4.246
88698W        W52455  38.388   8.346  10.477
88699W        W52456   6.349  33.947   0.823
88700W        W52457   1.954  42.012   3.761
88701W        W52458  36.060  13.753  13.866
88702W        W52459  29.165  16.616   3.806
88703W        W52460  21.705   0.878  11.519
88704W        W52461  40.316  17.202   1.721
88705W        W52462  29.511  34.011  14.345
88706W        W52463   7.223  30.962   0.753
88707W        W52464  31.559  29.965   0.866
88708W        W52465   4.729  29.497  12.877
88709W        W52466  18.637   3.885  13.864
88710W        W52467  29.132   5.790   0.436
88711W        W52468  10.813   2.819   4.812
88712W        W52469   4.817  43.019  10.060
88713W        W52470  23.575  40.338  14.903
88714W        W52471  24.605  41.494   4.833
88715W        W52472  36.359  17.300   1.726
88716W        W52473  25.172  35.961  10.605
88717W        W52474   8.396  30.431  11.561
88718W        W52475  20.056  10.358   3.381
88719W        W52476  10.343  26.565   4.630
88720W        W52477  13.722  15.189  14.826
88721W        W52478  10.148  17.739   3.804
88722W        W52479  13.287  24.553   4.181
88723W        W52480   1.810  23.689  13.002
88724W        W52481  14.741  43.477  13.059
88725W        W52482   6.232  37.544  13.548
88726W        W52483  25.999  41.014   4.346
88727W        W52484  30.476   0.944  14.378
88728W        W52485  22.526   3.332   4.225
88729W        W52486  35.388   6.784   0.755
88730W        W52487  33.972  36.060  13.451
88731W        W52488   3.903   8.774  11.062
88732W        W52489  13.185  40.049  12.445
88733W        W52490  23.523  39.428  11.451
88734W        W52491  28.006  13.218  13.431
88735W        W52492  35.449   9.351   0.873
88736W        W52493  13.344  28.154  11.608
88737W        W52494  16.234   0.817   9.979
88738W        W52495  31.422  37.523  12.484
88739W        W52496  24.524   0.792   0.959
88740W        W52497   0.270  21.540  13.401
88741W        W52498  18.202   7.881  10.464
88742W        W52499   6.415  39.028   1.861
88743W        W52500  33.593  25.069  11.103
88744W        W52501  28.636  38.459  12.347
88745W        W52502  40.420  34.423   1.241
88746W        W52503   8.696  42.851   1.796
88747W        W52504  33.532  24.008   3.374
88748W        W52505  40.005  12.737   1.846
88749W        W52506   1.311  34.560  11.872
88750W        W52507  34.426  31.127   3.718
88751W        W52508  21.218  39.549   4.136
88752W        W52509  17.219  22.197   0.255
88753W        W52510  21.522  20.106  11.097
88754W        W52511  12.149  13.223  10.498
88755W        W52512   9.305  14.296  10.513
88756W        W52513  10.732  15.316  10.958
88757W        W52514  24.146   4.427  10.952
88758W        W52515  21.140  21.731  12.416
88759W        W52516  41.938  38.539  13.448
88760W        W52517  33.927  41.006   1.273
88761W        W52518  33.561  34.958   4.668
88762W        W52519  42.507  31.567  10.890
88763W        W52520  18.777  13.302  11.869
88764W        W52521  28.451  24.149   4.129
88765W        W52522  27.631  30.129  13.367
88766W        W52523   7.884  35.492  13.465
88767W        W52524  13.226   5.356   3.241
88768W        W52525  19.272  40.424  14.351
88769W        W52526  39.386   9.358   2.197
88770W        W52527  14.269   2.237  12.960
88771W        W52528   4.906  34.951  12.354
88772W        W52529  12.215   8.853  11.898
88773W        W52530  17.719  37.415  14.885
88774W        W52531  20.158  28.120  11.053
88775W        W52532  29.934  17.218  11.118
88776W        W52533  10.834  43.766  12.398
88777W        W52534  18.214   5.791  12.472
88778W        W52535  21.622  44.279  12.568
88779W        W52536  29.035  18.567   5.218
88780W        W52537  11.182  43.286  10.428
88781W        W52538  40.850  44.934   1.740
88782W        W52539  25.987  19.160  12.340
88783W        W52540  17.223  31.907   1.393
88784W        W52541  14.337  24.589   1.414
88785W        W52542  23.229  26.518   3.246
88786W        W52543  22.699  11.197  13.471
88787W        W52544  23.121  23.016  11.950
88788W        W52545  35.975   8.857   4.675
88789W        W52546   5.794  38.935   0.812
88790W        W52547   3.408  33.528   4.691
88791W        W52548   5.270   7.392   0.347
88792W        W52549  22.611  28.014  13.881
88793W        W52550  32.126  44.878  14.300
88794W        W52551  15.642  39.910  10.004
88795W        W52552  15.328  28.506  10.561
88796W        W52553  36.491  15.633  12.093
88797W        W52554  42.019  15.280  14.996
88798W        W52555  15.127   3.955   4.205
88799W        W52556  12.671  35.483  11.436
88800W        W52557  33.991  41.977   2.200
88801W        W52558  29.102  42.782   2.798
88802W        W52559   6.341   7.891   1.266
88803W        W52560  13.840  42.811   3.366
88804W        W52561   8.762   6.409  14.874
88805W        W52562   3.930  10.713   1.777
88806W        W52563  24.586  13.843  11.097
88807W        W52564   5.692  36.985   2.757
88808W        W52565  11.718   0.427  10.014
88809W        W52566   0.374  28.536  13.845
88810W        W52567   4.870   1.308  12.442
88811W        W52568  18.252   9.368   4.181
88812W        W52569  26.185  25.008   3.817
88813W        W52570  27.460  43.384   4.329
88814W        W52571   2.241  29.646   0.437
88815W        W52572  38.894   8.690  13.015
88816W        W52573  10.367  11.821  12.435
88817W        W52574  21.637  21.216   4.777
88818W        W52575  38.411  38.905   0.966
88819W        W52576  31.008  35.061  10.531
88820W        W52577   9.670  14.255   2.741
88821W        W52578  23.095  13.217   0.903
88822W        W52579  44.915  33.010  10.503
88823W        W52580  10.860  15.181  13.330
88824W        W52581  40.053  41.842  13.412
88825W        W52582  25.996  21.094   3.659
88826W        W52583  16.080  12.676  11.871
88827W        W52584  32.433   9.827  10.970
88828W        W52585  22.642   6.860  12.067
88829W        W52586  34.001  10.337   1.791
88830W        W52587  39.887  12.329   0.905
88831W        W52588  44.464  40.384   2.852
88832W        W52589   5.828  19.247  14.782
88833W        W52590   4.754  19.278   3.695
88834W        W52591  43.342  25.607   2.306
88835W        W52592  11.656  12.156  13.842
88836W        W52593   0.875  15.814   0.895
88837W        W52594  31.491  35.541  13.467
88838W        W52595  42.366  27.093   4.651
88839W        W52596  36.428  35.037  11.597
88840W        W52597  26.095  21.664   3.755
88841W        W52598   9.168   9.239   4.118
88842W        W52599  24.178   0.413   3.249
88843W        W52600  31.508  26.047   4.289
88844W        W52601  13.110   8.200  11.900
88845W        W52602  40.331  19.766  12.978
88846W        W52603  25.515  24.527   1.783
88847W        W52604  40.320  26.592   0.250
88848W        W52605   4.732  33.451  11.475
88849W        W52606  42.837  36.935   3.676
88850W        W52607  41.835  12.633  14.386
88851W        W52608  41.340  10.710  11.398
88852W        W52609  37.528  30.633   0.391
88853W        W52610   8.691  31.528   3.209
88854W        W52611  43.487  20.562   1.829
88855W        W52612  17.304  14.592  11.982
88856W        W52613  40.808  43.362  14.313
88857W        W52614  22.196  12.219  10.991
88858W        W52615   8.840   6.200  12.008
88859W        W52616  16.774  12.184  14.492
88860W        W52617  40.509  35.426   2.849
88861W        W52618   5.307   9.806  13.827
88862W        W52619  10.873  14.680   3.164
88863W        W52620  41.850   1.739  10.094
88864W        W52621   3.900  24.602  12.915
88865W        W52622  43.979   7.340  12.566
88866W        W52623  18.715  25.602   2.709
88867W        W52624   6.772  23.043  13.814
88868W        W52625  35.865  12.779   3.254
88869W        W52626  15.729   6.871  14.826
88870W        W52627  42.474  40.015   2.889
88871W        W52628  10.741  33.527  12.014
88872W        W52629   2.241  15.609  11.006
88873W        W52630  25.127  30.592  11.871
88874W        W52631  16.781  12.650   4.705
88875W        W52632  14.713  39.825   3.343
88876W        W52633  30.594  23.072  14.002
88877W        W52634  24.597  26.175   4.745
88878W        W52635   7.197  27.461  13.363
88879W        W52636  34.919  23.731   3.819
88880W        W52637  16.135  30.100  14.823
88881W        W52638  38.003  40.040   0.727
88882W        W52639  41.028  18.705  11.078
88883W        W52640   6.324  26.561   1.865
88884W        W52641   5.740  28.453   2.266
88885W        W52642  15.636  21.513   0.403
88886W        W52643  16.269  22.065   3.184
88887W        W52644  25.147  11.273  11.072
88888W        W52645   4.936   2.403   1.378
88889W        W52646  44.802  32.101  12.088
88890W        W52647   9.264  18.770  10.495
88891W        W52648   0.866  18.646   2.755
88892W        W52649   3.288   2.335  13.034
88893W        W52650   5.369   8.729   3.776
88894W        W52651  27.561  16.194   2.348
88895W        W52652  29.175  35.365   0.804
88896W        W52653   4.760  27.674  12.543
88897W        W52654  30.506  11.129   3.713
88898W        W52655   0.281  44.777   1.815
88899W        W52656  16.659  26.679  11.011
88900W        W52657  44.281   0.484   3.304
88901W        W52658  30.618  11.861  11.421
88902W        W52659  28.466  21.095  12.996
88903W        W52660  13.628   8.288  13.419
88904W        W52661  44.396  11.210  13.430
88905W        W52662  33.997  41.986   3.348
88906W        W52663  42.933  17.222  14.789
88907W        W52664  11.167  42.872   3.303
88908W        W52665  23.613   2.307  13.495
88909W        W52666  38.548  38.840  14.770
88910W        W52667  20.039   4.774   2.276
88911W        W52668   2.354   8.862  12.575
88912W        W52669  30.013  36.556  14.500
88913W        W52670   9.869  42.313   0.739
88914W        W52671  26.114  22.246   5.096
88915W        W52672  26.581  20.538   4.353
88916W        W52673  39.878  24.616   0.419
88917W        W52674   0.481   1.892  11.550
88918W        W52675  26.613  14.799   2.744
88919W        W52676   2.744  25.695   0.291
88920W        W52677  31.517  25.577  10.941
88921W        W52678  22.186  44.962  14.008
88922W        W52679  35.361   6.775  10.954
88923W        W52680  39.410  23.504   4.261
88924W        W52681   9.837   3.296   0.832
88925W        W52682  38.820  38.378  10.620
88926W        W52683  29.520  27.941  11.983
88927W        W52684  35.039  39.350   0.860
88928W        W52685  29.634  23.695   2.881
88929W        W52686  35.908  24.662  14.466
88930W        W52687  33.131  24.067  14.315
88931W        W52688  17.089  43.468   2.901
88932W        W52689  41.786  12.781   0.276
88933W        W52690  23.128  16.715   1.824
88934W        W52691  24.979   5.789   4.680
88935W        W52692  39.435   8.294  14.976
88936W        W52693  10.377  34.398   0.322
88937W        W52694  23.613  22.238   2.772
88938W        W52695   1.941  23.530  14.929
88939W        W52696  14.599  39.395   0.841
88940W        W52697  28.615  16.107   3.835
88941W        W52698  10.188  37.960   4.131
88942W        W52699   8.708  29.968  12.981
88943W        W52700  25.637  44.000  14.312
88944W        W52701  34.590   3.459   4.233
88945W        W52702  15.803  11.649   3.188
88946W        W52703  12.788  26.054   1.931
88947W        W52704  16.807  13.154   1.903
88948W        W52705  27.957  35.419   1.309
88949W        W52706  27.611  38.966   3.196
88950W        W52707  40.312  19.722  11.026
88951W        W52708   6.865   0.804  12.891
88952W        W52709   0.757  13.630   3.787
88953W        W52710  44.287  25.047  11.983
88954W        W52711  34.966  14.135   3.689
88955W        W52712  38.425   6.324  14.441
88956W        W52713  15.649  34.464   3.809
88957W        W52714  28.653   0.973  11.533
88958W        W52715  37.429  39.416   0.250
88959W        W52716  16.783  31.151   1.704
88960W        W52717   5.422   9.760  12.026
88961W        W52718  33.401  21.711  10.465
88962W        W52719   8.346  37.981   4.770
88963W        W52720   8.215   4.843  10.464
88964W        W52721   4.393  24.059  12.378
88965W        W52722  17.596  42.781   1.287
88966W        W52723   8.364   1.904  13.324
88967W        W52724  39.055  31.528  12.518
88968W        W52725  43.877  19.557   1.716
88969W        W52726  22.234  29.608   0.282
88970W        W52727  40.442  31.489   3.339
88971W        W52728  28.037  23.568  13.949
88972W        W52729  38.868  30.460   1.331
88973W        W52730  15.782  11.638  13.402
88974W        W52731  29.561   3.908   2.285
88975W        W52732  23.611  28.643   1.812
88976W        W52733  33.606  35.507   2.328
88977W        W52734  32.085  24.654  12.378
88978W        W52735   7.290   1.397   3.734
88979W        W52736  12.263  26.206  11.127
88980W        W52737  33.486  41.973   2.855
88981W        W52738  14.335   7.292  14.868
88982W        W52739   6.802  33.918   3.709
88983W        W52740  24.656   9.773   4.643
88984W        W52741  38.955  19.608   2.280
88985W        W52742   2.396  41.944   3.799
88986W        W52743  43.368  25.965   2.298
88987W        W52744  19.103  25.041   4.633
88988W        W52745  42.363  26.188  11.901
88989W        W52746  43.842   7.713   1.744
88990W        W52747  40.933  29.936  11.608
88991W        W52748  41.840  32.068   2.692
88992W        W52749  10.364  35.457   4.330
88993W        W52750  26.039  25.065  13.524
88994W        W52751  11.781   8.284   3.255
88995W        W52752  16.160  42.827   4.821
88996W        W52753  42.469  34.065  12.469
88997W        W52754  14.615  12.718  13.859
88998W        W52755   9.689   4.938   4.245
88999W        W52756   9.199   1.423  14.330
89000W        W52757  14.606   6.347  14.880
89001W        W52758  20.033  31.584   4.224
89002W        W52759  24.098   4.742  11.525
89003W        W52760   8.765   5.223  11.462
89004W        W52761  15.597   4.880   1.934
89005W        W52762  30.447  17.301   3.782
89006W        W52763  42.382  16.660   4.766
89007W        W52764  29.164  13.128   3.192
89008W        W52765  14.190  19.064  10.619
89009W        W52766  26.962  26.174  14.869
89010W        W52767  11.645  28.024   1.879
89011W        W52768  44.975  22.123  12.433
89012W        W52769  16.642  23.591  14.351
89013W        W52770  42.947   8.870  12.019
89014W        W52771   9.370   2.930  14.348
89015W        W52772  37.436  42.858   0.478
89016W        W52773   2.796  26.131   2.779
89017W        W52774  41.901  37.365  12.366
89018W        W52775  21.686  29.132   1.721
89019W        W52776  35.046  29.015  12.477
89020W        W52777  16.277   4.723   3.277
89021W        W52778  15.304  20.639   2.277
89022W        W52779  39.977  32.092  14.781
89023W        W52780  30.640  22.739  11.466
89024W        W52781  30.083  38.487   0.820
89025W        W52782  14.176   0.970  13.460
89026W        W52783  10.275   7.352  10.911
89027W        W52784  16.649  44.466   5.625
89028W        W52785  40.798   5.823  11.003
89029W        W52786  44.006  13.822   0.836
89030W        W52787   4.256  35.476  13.844
89031W        W52788  20.614   6.360   3.230
89032W        W52789  35.569   6.410  12.031
89033W        W52790  34.973   1.902   3.375
89034W        W52791  38.067   2.226   1.309
89035W        W52792  22.717  20.162   3.178
89036W        W52793  21.583  38.914   1.298
89037W        W52794  39.517  18.679  14.895
89038W        W52795   1.392  18.671  14.331
89039W        W52796  31.006  12.652  13.031
89040W        W52797  40.051  28.643   0.479
89041W        W52798  43.456  14.302  14.763
89042W        W52799  20.715  14.623   0.960
89043W        W52800   8.758  22.518  11.912
89044W        W52801  22.200  16.224  11.086
89045W        W52802  33.438   2.389   4.178
89046W        W52803  37.549  26.503  14.384
89047W        W52804  35.484   6.862   1.879
89048W        W52805  43.499  43.799   1.410
89049W        W52806   4.417  39.977   0.957
89050W        W52807   6.247   9.673  14.292
89051W        W52808   9.735  15.144   3.308
89052W        W52809  39.508   6.731  11.463
89053W        W52810   7.175  31.414  13.466
89054W        W52811  36.480   7.745  14.936
89055W        W52812  26.005  30.600   0.402
89056W        W52813  30.911  30.518  11.090
89057W        W52814  43.423  17.138  10.500
89058W        W52815  29.522  16.607   1.920
89059W        W52816   0.816  14.287   2.369
89060W        W52817  32.562  15.601  11.415
89061W        W52818   2.359  18.265  14.481
89062W        W52819  15.584  10.839  12.398
89063W        W52820  40.914  42.023  11.607
89064W        W52821  24.127  25.619  12.866
89065W        W52822  36.956  17.065  14.774
89066W        W52823   3.818   4.767  10.992
89067W        W52824  38.391  16.593  10.448
89068W        W52825  10.714  37.039  14.351
89069W        W52826  25.576  34.455   4.347
89070W        W52827  43.454  31.584   0.733
89071W        W52828  42.463  35.983   0.862
89072W        W52829   9.256   1.261  11.388
89073W        W52830  11.723  19.634  10.131
89074W        W52831  16.106   5.320   4.322
89075W        W52832  20.721  21.537   1.282
89076W        W52833  21.237  33.964  13.907
89077W        W52834  37.929  44.353   3.792
89078W        W52835  31.617   7.761  12.510
89079W        W52836   6.252  25.539   0.868
89080W        W52837  44.800  23.199   3.387
89081W        W52838  27.119  38.355  10.489
89082W        W52839  11.366  15.705   0.277
89083W        W52840   3.935  41.967  13.827
89084W        W52841   4.440   3.881  12.518
89085W        W52842  14.728  15.649  12.460
89086W        W52843  36.998  40.874  12.561
89087W        W52844  35.589  28.673   0.390
89088W        W52845   4.266  30.062   1.305
89089W        W52846  33.519  15.088  13.983
89090W        W52847  35.525   8.215  14.353
89091W        W52848  12.795  11.222  12.938
89092W        W52849   2.403  11.173   2.289
89093W        W52850  11.655   3.410   2.815
89094W        W52851  35.487  24.085   2.337
89095W        W52852  25.991  14.274   1.411
89096W        W52853  29.621  44.447   4.798
89097W        W52854   1.252   5.386  10.535
89098W        W52855  22.139  13.198   4.763
89099W        W52856  29.165  11.280   3.829
89100W        W52857  27.587   2.733   2.773
89101W        W52858  21.554  37.361   4.346
89102W        W52859  29.037  26.021   1.870
89103W        W52860  14.826   5.868  10.514
89104W        W52861  44.449  19.699   0.936
89105W        W52862  12.676  23.231  14.349
89106W        W52863   3.338  36.999  13.839
89107W        W52864  38.494   2.319   0.801
89108W        W52865  22.689  23.707   0.874
89109W        W52866  22.656  36.960  14.897
89110W        W52867  11.622  25.995  13.015
89111W        W52868   1.907  36.937   3.676
89112W        W52869  26.653  16.790   2.695
89113W        W52870  43.361  11.143   4.296
89114W        W52871  12.756  44.982  14.844
89115W        W52872  21.594  27.618   3.176
89116W        W52873  23.005  15.249  10.959
89117W        W52874  34.388  40.457   4.792
89118W        W52875  18.566  36.547  12.572
89119W        W52876  44.418  38.566  10.027
89120W        W52877  17.093  30.453  14.507
89121W        W52878  29.943  31.915  14.943
89122W        W52879   0.293  11.252  12.471
89123W        W52880  15.219   9.823  13.984
89124W        W52881  14.214  35.100   0.350
89125W        W52882  41.425  39.923  11.887
89126W        W52883  20.619  34.584  11.472
89127W        W52884  32.616  42.829  11.401
89128W        W52885  22.705  34.445  13.910
89129W        W52886   3.457  37.957   1.383
89130W        W52887   9.784  33.534   4.660
89131W        W52888  26.141  13.680  13.837
89132W        W52889  15.741  35.924   0.387
89133W        W52890   6.202   5.263   4.660
89134W        W52891  14.283  28.039  11.058
89135W        W52892  20.272  12.311   5.801
89136W        W52893  28.966  14.311   2.416
89137W        W52894  19.040  34.513  12.093
89138W        W52895  36.404  16.713   2.339
89139W        W52896  33.545   4.713  13.008
89140W        W52897   1.329  34.881   0.869
89141W        W52898  32.028   9.354  11.430
89142W        W52899  12.720  23.168  12.943
89143W        W52900   0.890  13.707  12.861
89144W        W52901  41.302  40.019  13.864
89145W        W52902  33.440   8.712   0.369
89146W        W52903  43.427  20.548   4.140
89147W        W52904  40.031   3.831   4.199
89148W        W52905  34.431  37.428  12.948
89149W        W52906  24.546  12.655   1.433
89150W        W52907  26.524  23.623   3.308
89151W        W52908   6.728   5.310  13.862
89152W        W52909   1.863  34.602  12.005
89153W        W52910  36.576  30.529  10.592
89154W        W52911   4.852  19.548  12.569
89155W        W52912  29.458  13.142   2.358
89156W        W52913   7.350  37.367  11.916
89157W        W52914   2.275   0.916  14.481
89158W        W52915  34.864  10.825   0.447
89159W        W52916  36.528   7.389  10.067
89160W        W52917  12.774   5.359   2.333
89161W        W52918  40.341   5.403   3.312
89162W        W52919  11.690  37.529   2.763
89163W        W52920  25.975  12.187   1.816
89164W        W52921  12.753  36.055   2.892
89165W        W52922   4.214  37.926  10.565
89166W        W52923  24.112   4.221   4.117
89167W        W52924  29.452  41.425   5.135
89168W        W52925  26.628  17.760  10.071
89169W        W52926  29.937  16.098   1.419
89170W        W52927  23.185  20.695  12.565
89171W        W52928  38.514   8.685  12.966
89172W        W52929   7.782  31.401  13.504
89173W        W52930  41.911  33.467   4.289
89174W        W52931  18.197  39.840   1.776
89175W        W52932  16.228   9.220  12.954
89176W        W52933  24.223   1.260   4.117
89177W        W52934  22.517  42.875   0.473
89178W        W52935  35.010  22.690  11.449
89179W        W52936  36.483   2.419   4.250
89180W        W52937  26.679  33.966   2.692
89181W        W52938  39.060  41.927   4.331
89182W        W52939  15.661  32.590  12.854
89183W        W52940   3.359  31.907  11.541
89184W        W52941  13.611  36.019   0.836
89185W        W52942  21.111  41.038   3.310
89186W        W52943  12.653  26.489  13.006
89187W        W52944  22.743   3.304  14.310
89188W        W52945  16.193  19.747  12.020
89189W        W52946  11.649  24.718   1.402
89190W        W52947  42.875  10.318   0.747
89191W        W52948  13.639  40.040  13.344
89192W        W52949   0.395   7.823  11.053
89193W        W52950  29.588  16.636  11.973
89194W        W52951   4.910  35.540  13.873
89195W        W52952   8.206  16.085  10.551
89196W        W52953   8.263  35.018   3.833
89197W        W52954  26.079  32.549   2.821
89198W        W52955  43.925  33.894   1.744
89199W        W52956   7.806  30.030  10.611
89200W        W52957  14.745  34.960   3.807
89201W        W52958  21.596  12.198   1.221
89202W        W52959  27.942  16.283  12.442
89203W        W52960  17.577  43.844   0.776
89204W        W52961  42.968   9.866  13.883
89205W        W52962  17.582  21.155   3.673
89206W        W52963  13.753  26.627   3.705
89207W        W52964  42.341  25.540   1.345
89208W        W52965  30.939   8.678   0.864
89209W        W52966   1.757  40.471  13.904
89210W        W52967  21.070  20.534  14.004
89211W        W52968  19.254  36.552   2.315
89212W        W52969  34.498  25.525   3.652
89213W        W52970  37.892   8.760  14.028
89214W        W52971   0.957   7.780  10.487
89215W        W52972  10.230   3.839   3.787
89216W        W52973   9.857  26.039  11.116
89217W        W52974  25.090  43.300  14.806
89218W        W52975  32.548  10.850   4.649
89219W        W52976   8.707   2.939  13.853
89220W        W52977  42.483  26.198   3.320
89221W        W52978  25.024  16.655   2.860
89222W        W52979   2.326  30.429  10.012
89223W        W52980  17.598  23.181   3.243
89224W        W52981  19.560  28.985   4.178
89225W        W52982  30.102  18.581  13.957
89226W        W52983  31.632   3.860   3.729
89227W        W52984  23.003  43.462   0.463
89228W        W52985  22.530  42.784   3.342
89229W        W52986  33.401   6.395   0.279
89230W        W52987  39.850  28.023   1.708
89231W        W52988   4.352  25.494   1.440
89232W        W52989  37.526  29.976   4.662
89233W        W52990  30.984  32.964   1.412
89234W        W52991  15.279  24.490  12.503
89235W        W52992  22.092  23.506   2.892
89236W        W52993  29.027  24.091  14.993
89237W        W52994  20.759  28.998  10.505
89238W        W52995   0.463  11.845   1.744
89239W        W52996  10.173  22.660   3.240
89240W        W52997  29.001  15.582   1.244
89241W        W52998  23.636  21.567  11.897
89242W        W52999  36.043  13.638  14.871
89243W        W53000  27.088  17.560   1.793
89244W        W53001  28.522  26.532   0.952
89245W        W53002  28.030  23.670   3.387
89246W        W53003  28.181  20.570   3.681
89247W        W53004  22.113   2.959   2.719
89248W        W53005  18.241  33.095  12.479
89249W        W53006  37.376  18.094  11.943
89250W        W53007  17.261   8.235   2.846
89251W        W53008  24.213  15.094   0.898
89252W        W53009  35.875   6.307   2.850
89253W        W53010   5.766   8.214  10.539
89254W        W53011   2.248  22.625  13.946
89255W        W53012  12.719  22.161   1.408
89256W        W53013   5.344   7.899  14.328
89257W        W53014  27.610  14.593  11.043
89258W        W53015  13.350  30.148   3.755
89259W        W53016  35.859  36.477   4.763
89260W        W53017  39.496  23.147   2.257
89261W        W53018  37.552  24.480   3.265
89262W        W53019   5.895  14.131   4.686
89263W        W53020  37.857  26.109   3.744
89264W        W53021  24.225  27.640  12.090
89265W        W53022  43.417  23.530  14.840
89266W        W53023  22.530  44.483   2.844
89267W        W53024   5.267  40.348  10.638
89268W        W53025  15.288  26.105   1.922
89269W        W53026  42.909  14.297   5.245
89270W        W53027  13.172  35.490   0.271
89271W        W53028   7.721  29.584  11.026
89272W        W53029  10.714  31.448   4.742
89273W        W53030  39.976  40.381   3.740
89274W        W53031  34.049  28.182   0.947
89275W        W53032  22.551  37.004  13.457
89276W        W53033  41.931  13.173  12.958
89277W        W53034  42.507  33.575   2.821
89278W        W53035   3.386  30.122   4.122
89279W        W53036  15.161  24.535   1.406
89280W        W53037  41.833   4.403  13.924
89281W        W53038   4.883  40.453   2.790
89282W        W53039  31.554  19.628   4.735
89283W        W53040  23.190   3.255   0.459
89284W        W53041   5.347   7.846   3.731
89285W        W53042  32.525   0.389   2.236
89286W        W53043   0.440  42.308  11.124
89287W        W53044  35.911  37.860   3.358
89288W        W53045   9.384  39.037  10.947
89289W        W53046   0.269  20.742  11.075
89290W        W53047  19.240  22.998  13.804
89291W        W53048  32.496  19.181   4.249
89292W        W53049  40.886  21.643   1.293
89293W        W53050  42.003  26.985   2.782
89294W        W53051  23.491  20.172  12.906
89295W        W53052   9.245  36.562  13.323
89296W        W53053   1.853  16.265  13.506
89297W        W53054  13.741  18.742  14.431
89298W        W53055  43.361  25.007  11.101
89299W        W53056  12.170   8.794  11.453
89300W        W53057  36.475  32.442  12.475
89301W        W53058  12.315   9.214   1.395
89302W        W53059  37.473  32.000   5.297
89303W        W53060   8.730  40.856   1.696
89304W        W53061  19.180  28.544   3.205
89305W        W53062   6.817  30.460  13.045
89306W        W53063  31.503  14.796   3.311
89307W        W53064   4.910  29.443   3.234
89308W        W53065  20.756   8.798   4.231
89309W        W53066  16.217  35.981   0.900
89310W        W53067  14.118  33.887  13.004
89311W        W53068  18.553  34.396  13.379
89312W        W53069   2.822  34.444   2.204
89313W        W53070  28.454  12.687   4.738
89314W        W53071   3.261  36.947  11.580
89315W        W53072  22.707  38.863   2.303
89316W        W53073  39.513  17.236  12.837
89317W        W53074  11.326  11.627  11.562
89318W        W53075  36.380  10.270  13.842
89319W        W53076  44.383  17.594  12.022
89320W        W53077  26.110  39.323  11.587
89321W        W53078  13.237   7.762  13.986
89322W        W53079  36.933  42.965   0.358
89323W        W53080  17.263  25.611  12.867
89324W        W53081  27.101  10.234   3.217
89325W        W53082  31.443  22.517   3.719
89326W        W53083  23.051  42.840   2.186
89327W        W53084  18.584  34.870   1.297
89328W        W53085   6.693  14.100   2.186
89329W        W53086  33.588   7.322  11.485
89330W        W53087   7.716  22.659  12.874
89331W        W53088  31.130  18.184   1.852
89332W        W53089  35.098  33.510   5.242
89333W        W53090   5.827  17.146   4.823
89334W        W53091   4.382  18.553   2.419
89335W        W53092  34.923  23.196  12.384
89336W        W53093  23.002  11.713   4.190
89337W        W53094  26.605   6.768   4.180
89338W        W53095  24.655  37.397  13.360
89339W        W53096  21.229   1.439   3.292
89340W        W53097  11.780  12.333   2.900
89341W        W53098  34.522   2.879  11.478
89342W        W53099   5.928   3.788   4.598
89343W        W53100  32.971   5.290  12.552
89344W        W53101   6.255  35.387  11.874
89345W        W53102  27.498  13.237   5.309
89346W        W53103   7.242  21.159   4.250
89347W        W53104  19.550   7.293  14.913
89348W        W53105  17.271  10.714  11.922
89349W        W53106  30.107  19.608  12.544
89350W        W53107  12.123  12.684   0.271
89351W        W53108  13.739   7.358  12.579
89352W        W53109  32.464  20.148  14.290
89353W        W53110   9.207   7.857   2.184
89354W        W53111   4.883  43.439   1.850
89355W        W53112  31.902  20.263  11.881
89356W        W53113  31.492  15.652  12.999
89357W        W53114  24.693  30.050   3.740
89358W        W53115  16.718  23.016   1.357
89359W        W53116  30.058  43.767   1.362
89360W        W53117   9.787  32.017   4.192
89361W        W53118  31.024  20.764  12.034
89362W        W53119  25.136  43.961  13.922
89363W        W53120  29.587   7.854  12.899
89364W        W53121  20.661   7.217  14.812
89365W        W53122  19.042  43.342   3.791
89366W        W53123  20.537   3.375  10.610
89367W        W53124  42.913  40.000  11.559
89368W        W53125   7.861  11.218   4.736
89369W        W53126  38.938   7.698  13.885
89370W        W53127  38.465   3.923   3.664
89371W        W53128  38.061  28.535   4.230
89372W        W53129  16.761  42.021  14.278
89373W        W53130  12.753  33.082  13.001
89374W        W53131  21.053  16.110   3.789
89375W        W53132  23.128  44.278   4.307
89376W        W53133  44.361   2.362  12.415
89377W        W53134  18.621  14.735   3.673
89378W        W53135  40.484   0.251   1.318
89379W        W53136  36.447  18.693   9.964
89380W        W53137  42.375  42.499   0.372
89381W        W53138  26.079  20.620  12.879
89382W        W53139  11.646  42.912   0.760
89383W        W53140  21.094  44.387   0.426
89384W        W53141  15.664   6.831   2.368
89385W        W53142   8.763  39.005   4.702
89386W        W53143  30.133   3.836   3.807
89387W        W53144  12.147  10.227   3.825
89388W        W53145  40.957  23.120   4.752
89389W        W53146  29.969  11.786  12.355
89390W        W53147  40.918   5.408   1.410
89391W        W53148  14.653  40.473   0.749
89392W        W53149  13.332  19.709  10.120
89393W        W53150  10.837  23.541  11.558
89394W        W53151  21.516  29.171   3.344
89395W        W53152  44.424   6.774   2.721
89396W        W53153   3.816  42.943  13.500
89397W        W53154   9.840  11.185   0.268
89398W        W53155  34.984  38.484  14.984
89399W        W53156  44.962  12.669   3.748
89400W        W53157  23.640  21.677  10.900
89401W        W53158  37.551  34.937   4.309
89402W        W53159  10.359  31.629  10.583
89403W        W53160  36.887  23.030   2.698
89404W        W53161  23.590   0.868   2.298
89405W        W53162  28.127  26.037   3.797
89406W        W53163   9.746  43.972  10.505
89407W        W53164  12.857  17.612  10.618
89408W        W53165   6.825   4.354  13.497
89409W        W53166  40.354  42.326  12.428
89410W        W53167  30.602  39.953  14.846
89411W        W53168  22.110  34.477   4.164
89412W        W53169   7.816  33.909   4.324
89413W        W53170  18.052   1.865  13.022
89414W        W53171  26.067  44.986  13.346
89415W        W53172  25.161  36.462  13.002
89416W        W53173  44.499  11.228  10.609
89417W        W53174  28.500   4.384  11.571
89418W        W53175  30.432  40.496   5.143
89419W        W53176  38.005   5.915   0.760
89420W        W53177  31.914   3.790   3.193
89421W        W53178  16.751   1.255  14.900
89422W        W53179  22.710  18.742   3.787
89423W        W53180  42.840  20.697   4.623
89424W        W53181  39.888  30.130  13.899
89425W        W53182  42.448   2.768  12.500
89426W        W53183  36.495  13.725   3.362
89427W        W53184  10.143  42.828  12.029
89428W        W53185   1.914   0.277   2.327
89429W        W53186  33.611   4.294  10.121
89430W        W53187   5.793   7.223   1.215
89431W        W53188  28.513  25.485   1.881
89432W        W53189  39.494  39.825  10.610
89433W        W53190  44.786  43.916   0.922
89434W        W53191  27.668  40.832  12.968
89435W        W53192  14.114   8.189  12.847
89436W        W53193  36.973  10.189  10.929
89437W        W53194   7.280   0.939   2.678
89438W        W53195  26.609  26.067  10.059
89439W        W53196   7.805  35.002  13.999
89440W        W53197  19.756  41.408  14.435
89441W        W53198  43.290   9.167   3.638
89442W        W53199   5.920  41.896  14.945
89443W        W53200  43.985  38.452   4.666
89444W        W53201  14.768  21.751   1.362
89445W        W53202  18.626  21.118  11.127
89446W        W53203  24.142  14.270  14.007
89447W        W53204  37.061  39.815  14.496
89448W        W53205   1.742  22.540   5.145
89449W        W53206  25.658  35.855  14.304
89450W        W53207  17.675  25.691  13.822
89451W        W53208  10.180   4.856   0.787
89452W        W53209  19.658  25.571  11.859
89453W        W53210  31.073   6.758   3.218
89454W        W53211  38.533  22.228   4.791
89455W        W53212   2.778  33.925  11.023
89456W        W53213  30.917   5.788  12.082
89457W        W53214  14.622  41.503   3.195
89458W        W53215  33.964  21.706   3.254
89459W        W53216  33.492  17.600   2.875
89460W        W53217  19.073   6.369  13.416
89461W        W53218   8.740  16.074   2.768
89462W        W53219  24.582  36.421  12.875
89463W        W53220  38.916   1.400   9.924
89464W        W53221   7.768  36.005   3.772
89465W        W53222  26.515  12.237  14.853
89466W        W53223  39.974  23.573   2.837
89467W        W53224  15.328  29.515  14.932
89468W        W53225   1.839  33.499  14.789
89469W        W53226  20.609  41.897   1.328
89470W        W53227  40.407  28.150   3.257
89471W        W53228  29.058  16.083   0.402
89472W        W53229  10.250  36.979   0.906
89473W        W53230   1.931  38.884   1.261
89474W        W53231  26.118  21.132  11.595
89475W        W53232  18.651  25.616  13.518
89476W        W53233  42.397  10.737   3.147
89477W        W53234  34.499  12.207   1.407
89478W        W53235  22.029  23.239  11.042
89479W        W53236  33.520   5.240  12.876
89480W        W53237  37.973  23.585  14.015
89481W        W53238  36.940   0.332   3.823
89482W        W53239   5.804   9.382  12.914
89483W        W53240  11.692   2.285   1.847
89484W        W53241  25.212  22.230  10.421
89485W        W53242  31.117  28.618  11.918
89486W        W53243  33.395   4.385   4.243
89487W        W53244   9.805  40.491   4.306
89488W        W53245  34.081  41.026  12.514
89489W        W53246  14.765  37.031  10.889
89490W        W53247  13.832   4.383   1.911
89491W        W53248  34.588  24.618  14.921
89492W        W53249   3.361  34.950  11.550
89493W        W53250  22.074  40.975   2.781
89494W        W53251   8.288  27.189   3.736
89495W        W53252  10.190  21.136  12.360
89496W        W53253  33.496  29.645  12.993
89497W        W53254   3.715  25.639  12.985
89498W        W53255  11.260  24.001  14.957
89499W        W53256  32.929  40.378   0.771
89500W        W53257   1.242  28.653  12.361
89501W        W53258  34.611  13.271  13.792
89502W        W53259  24.124  34.528  13.792
89503W        W53260  26.985  15.771  14.482
89504W        W53261   3.908   2.962  10.599
89505W        W53262  22.626   4.924   3.248
89506W        W53263  31.978  40.950   0.278
89507W        W53264  40.895  43.938  11.561
89508W        W53265  23.630   6.292   2.736
89509W        W53266  18.138  15.739  12.508
89510W        W53267  19.678  11.365  12.929
89511W        W53268  40.536   8.671  14.368
89512W        W53269   7.670  32.557  13.507
89513W        W53270  39.398   8.822   5.275
89514W        W53271  20.639   8.350  13.317
89515W        W53272  27.112  19.205  14.771
89516W        W53273  26.146  19.122  14.783
89517W        W53274  38.331  30.031  14.443
89518W        W53275  18.180  36.555   1.269
89519W        W53276  15.624  34.049  13.398
89520W        W53277  40.919  27.665  12.542
89521W        W53278  21.044  33.018   1.331
89522W        W53279  31.067  12.318   4.222
89523W        W53280   6.235  27.583   1.801
89524W        W53281  41.838  23.217   4.227
89525W        W53282  30.080  28.000  13.905
89526W        W53283   9.257  19.758  12.419
89527W        W53284   8.374   4.340  12.511
89528W        W53285  26.185   2.308  11.863
89529W        W53286  19.283  37.574  12.836
89530W        W53287   3.259  29.138   4.626
89531W        W53288  44.860   9.177  12.032
89532W        W53289  34.512  21.597  12.523
89533W        W53290  26.640  16.567  11.560
89534W        W53291  14.200  39.493  13.036
89535W        W53292  33.601  33.881   2.697
89536W        W53293  35.377   7.189  12.017
89537W        W53294  41.877  37.546  12.847
89538W        W53295  11.247  40.936   2.899
89539W        W53296  26.472   2.378   4.646
89540W        W53297  44.931   2.261  11.119
89541W        W53298  43.969  43.438   1.909
89542W        W53299  31.486  17.281  11.086
89543W        W53300  39.042  30.146  12.396
89544W        W53301   7.408   9.709  13.485
89545W        W53302  14.107  27.533   1.339
89546W        W53303  17.574   9.326   4.196
89547W        W53304  35.417  16.570   4.341
89548W        W53305   0.299  24.160  12.568
89549W        W53306   8.809  34.418   3.760
89550W        W53307   4.400   6.801  12.922
89551W        W53308  24.144  43.344   1.731
89552W        W53309  26.678  39.936   3.338
89553W        W53310  38.862  17.175  13.916
89554W        W53311  31.947  41.950   2.406
89555W        W53312  37.965  38.063   4.222
89556W        W53313  32.391  29.521   4.600
89557W        W53314  14.337   1.391  11.548
89558W        W53315  40.006  13.609  14.030
89559W        W53316  14.116  30.472   4.246
89560W        W53317  17.077  10.832   4.331
89561W        W53318  43.290  19.226  14.474
89562W        W53319   7.744  22.106   1.425
89563W        W53320  25.508  26.112   0.404
89564W        W53321  36.518  32.126  13.031
89565W        W53322  17.121  21.185  14.789
89566W        W53323   3.444   0.982   3.345
89567W        W53324  28.159  18.692  13.982
89568W        W53325  30.539  43.368   4.121
89569W        W53326  22.032  37.521  11.375
89570W        W53327  31.071  24.586  14.778
89571W        W53328  28.934   8.693   1.791
89572W        W53329   4.347  19.558   1.853
89573W        W53330   1.764  35.514   0.341
89574W        W53331   0.745  42.974  11.548
89575W        W53332  13.338   4.887  12.494
89576W        W53333  16.679   4.448   3.203
89577W        W53334  16.683  23.494   1.383
89578W        W53335  37.025  39.945  11.515
89579W        W53336  11.248  13.248   2.677
89580W        W53337   3.395  44.886   1.830
89581W        W53338   7.902   7.823   1.823
89582W        W53339  11.721  25.509  13.988
89583W        W53340  30.976  23.655  10.989
89584W        W53341  40.843   8.266   1.698
89585W        W53342  28.549  10.704   2.323
89586W        W53343  36.354  15.608   0.807
89587W        W53344  14.766  30.653   1.806
89588W        W53345  20.532  33.030   2.791
89589W        W53346  27.518  44.356  13.348
89590W        W53347  24.628  34.504   0.452
89591W        W53348  19.737  39.339   3.271
89592W        W53349  24.692   8.341   4.822
89593W        W53350  25.089  38.358  14.336
89594W        W53351   2.757   8.162   2.290
89595W        W53352  11.257  40.433   2.224
89596W        W53353  32.602  25.002  14.768
89597W        W53354  42.327  23.227   3.776
89598W        W53355   4.216  40.485  13.473
89599W        W53356   8.208   7.189  14.901
89600W        W53357   9.366  17.646  12.993
89601W        W53358  15.315  22.023   3.346
89602W        W53359   7.727  32.495   0.347
89603W        W53360  22.727  39.543  13.961
89604W        W53361  43.869  35.423  14.766
89605W        W53362  37.883  33.030  12.856
89606W        W53363  12.784   9.840   0.745
89607W        W53364  23.180  10.654   2.745
89608W        W53365   4.771   2.936  14.299
89609W        W53366  36.919  39.525   0.356
89610W        W53367  11.711  26.022   3.372
89611W        W53368  20.034   1.455   3.657
89612W        W53369   4.443  24.517  11.018
89613W        W53370  44.344  15.172  11.387
89614W        W53371  11.790  23.561  10.518
89615W        W53372  42.947   6.239  10.616
89616W        W53373   7.750  42.888   4.767
89617W        W53374  21.600  20.274  11.420
89618W        W53375   2.759   5.730   1.812
89619W        W53376  34.441  13.280  11.916
89620W        W53377  16.759  29.029   1.331
89621W        W53378  41.483  12.337  12.094
89622W        W53379  42.503  22.546   0.393
89623W        W53380   0.378  38.028  12.981
89624W        W53381  33.415  18.564   0.366
89625W        W53382  19.727  39.920   3.340
89626W        W53383  39.979  11.792  11.013
89627W        W53384  34.926  34.957  13.851
89628W        W53385  18.659  29.480   3.324
89629W        W53386  31.055   0.296  13.008
89630W        W53387  12.351  15.104  13.806
89631W        W53388  25.972  24.155  12.847
89632W        W53389  22.582  38.877   3.758
89633W        W53390  23.215   0.402  13.413
89634W        W53391  31.635  39.404   3.716
89635W        W53392  13.249  22.204   2.879
89636W        W53393  18.070   4.829   2.283
89637W        W53394  25.494  44.827   4.318
89638W        W53395  37.557  22.676   2.848
89639W        W53396  39.318   3.422   1.340
89640W        W53397   7.252  13.294   0.410
89641W        W53398  33.454  22.024  13.460
89642W        W53399  39.989  29.027  14.331
89643W        W53400  36.466   8.405   1.281
89644W        W53401   1.283  43.297  11.530
89645W        W53402  25.007  10.722   0.730
89646W        W53403  28.675  23.075  10.477
89647W        W53404  38.951  36.977   4.776
89648W        W53405  30.138  40.896  13.465
89649W        W53406  43.361  20.633  14.468
89650W        W53407  12.338  40.303  11.383
89651W        W53408   3.914   0.755  13.999
89652W        W53409  15.270   9.258   2.194
89653W        W53410  31.966  32.621   3.355
89654W        W53411  23.014  39.368   4.215
89655W        W53412  40.513   2.797   5.636
89656W        W53413   8.303  33.929   1.450
89657W        W53414  42.865  39.900   4.739
89658W        W53415  36.062  11.257  12.377
89659W        W53416  44.333   0.761   4.652
89660W        W53417  32.545   3.224  13.436
89661W        W53418  23.073  25.073  14.851
89662W        W53419   6.689   3.287  14.780
89663W        W53420   4.331  35.083  13.512
89664W        W53421  28.643   5.896  12.082
89665W        W53422  26.492  19.084  12.436
89666W        W53423   5.273  37.065  12.081
89667W        W53424  33.929  33.001   3.656
89668W        W53425  42.312  23.720   3.374
89669W        W53426  10.820  30.098   4.678
89670W        W53427   1.794  24.603   3.743
89671W        W53428  39.371   0.486   3.225
89672W        W53429   6.303  41.856   3.383
89673W        W53430  35.489   1.805   3.253
89674W        W53431  27.058  35.992   0.944
89675W        W53432  22.079  40.305  13.937
89676W        W53433  18.557   9.874   1.293
89677W        W53434  35.434   7.382   1.379
89678W        W53435   9.752   6.206   3.863
89679W        W53436  34.551   3.220   3.277
89680W        W53437  33.918  42.330   1.321
89681W        W53438   7.718   9.864  11.106
89682W        W53439  44.358   9.178  13.062
89683W        W53440   2.957  16.715  11.104
89684W        W53441  25.564  17.640  11.492
89685W        W53442   6.892  35.508  12.538
89686W        W53443  19.726  39.446  14.758
89687W        W53444  25.113  35.597  12.467
89688W        W53445   7.791  23.101  10.642
89689W        W53446  39.034  23.520  13.518
89690W        W53447   0.906  11.724   0.763
89691W        W53448  25.516   7.185  14.315
89692W        W53449  32.130  28.970  11.115
89693W        W53450  40.428  27.463  10.606
89694W        W53451  27.573  17.232  13.495
89695W        W53452  22.519   4.923  12.482
89696W        W53453  12.335  12.173   0.784
89697W        W53454  22.187  14.601   4.179
89698W        W53455  32.120   2.417  13.881
89699W        W53456  43.828  44.765   4.716
89700W        W53457   0.394  15.284   3.861
89701W        W53458  24.501  29.037   4.242
89702W        W53459   7.371   3.898   0.398
89703W        W53460  22.023  18.175   2.208
89704W        W53461  44.438  14.783   4.258
89705W        W53462   7.697  10.672   0.468
89706W        W53463  36.844   4.939  12.872
89707W        W53464   2.259  16.258   3.279
89708W        W53465  10.221  33.905   0.746
89709W        W53466  44.996  35.859   3.248
89710W        W53467   6.419  34.963   0.830
89711W        W53468   3.818   1.774   2.267
89712W        W53469  16.727  27.963   3.810
89713W        W53470  36.381  23.492   0.258
89714W        W53471  35.434  19.184  13.017
89715W        W53472   4.425  44.380  12.394
89716W        W53473  22.725  18.256   1.431
89717W        W53474  17.624  13.710  11.522
89718W        W53475   5.791  16.597  13.815
89719W        W53476  17.286   5.218  11.412
89720W        W53477  43.833  18.236  11.407
89721W        W53478  36.412  35.943   4.344
89722W        W53479   0.343  17.277   1.365
89723W        W53480   8.167   7.859   4.692
89724W        W53481  25.156  20.531  10.471
89725W        W53482  30.952  42.491  14.841
89726W        W53483   7.892  31.586  11.422
89727W        W53484  44.872  11.364  14.028
89728W        W53485  27.046  20.037  13.873
89729W        W53486   8.822  29.484  14.488
89730W        W53487  39.897  38.444  13.801
89731W        W53488  28.503   9.203  10.463
89732W        W53489  26.078  16.750  14.778
89733W        W53490  22.014  34.101  12.461
89734W        W53491  31.612   4.748  12.856
89735W        W53492  39.532  43.015   2.197
89736W        W53493  23.615  41.880   4.215
89737W        W53494  14.269  25.130   3.376
89738W        W53495  26.630  34.970   2.366
89739W        W53496  19.756  32.886   2.406
89740W        W53497  14.337  24.017  14.000
89741W        W53498  37.968  31.903   0.727
89742W        W53499  27.599  30.643   1.354
89743W        W53500  40.865   6.254   0.409
89744W        W53501  13.298   6.422   9.925
89745W        W53502   8.235  15.292  11.859
89746W        W53503  27.611  17.662   0.255
89747W        W53504  42.332   2.963   4.771
89748W        W53505  13.227  33.436   5.147
89749W        W53506   4.332  36.054   0.320
89750W        W53507   4.777  10.152  11.500
89751W        W53508   8.804  34.422   4.355
89752W        W53509   0.282  23.142  12.844
89753W        W53510  16.194  32.111  10.506
89754W        W53511  44.324  43.502   5.315
89755W        W53512   6.266  26.485   3.802
89756W        W53513   7.320  10.199  11.472
89757W        W53514  10.878  36.492  13.886
89758W        W53515   5.786  23.676   3.332
89759W        W53516  10.689  21.021  13.352
89760W        W53517  23.573  25.662   2.272
89761W        W53518  11.270  36.051  14.481
89762W        W53519   3.938   9.153   3.820
89763W        W53520   5.388   9.393   1.424
89764W        W53521   2.237  19.562  13.014
89765W        W53522  17.211  44.451   4.210
89766W        W53523   8.715  43.988   4.781
89767W        W53524  35.491  33.441   4.221
89768W        W53525  41.485  41.382   4.182
89769W        W53526  31.040  14.665   0.748
89770W        W53527  43.408   5.812   0.730
89771W        W53528   8.849   1.432   0.964
89772W        W53529  35.360  41.792  11.512
89773W        W53530  39.420  14.804   0.914
89774W        W53531   7.306   1.915   0.396
89775W        W53532  35.958  41.964   1.777
89776W        W53533  18.667   3.854  14.772
89777W        W53534  33.061  34.469   1.724
89778W        W53535  17.627  14.824   0.249
89779W        W53536  33.961  26.205  12.372
89780W        W53537  42.843  29.086  13.457
89781W        W53538  26.959  43.869  12.056
89782W        W53539   8.172  28.036   3.841
89783W        W53540   0.866  11.742   0.286
89784W        W53541  27.538  31.923  10.982
89785W        W53542   3.818  42.292  13.961
89786W        W53543  14.113   6.713  12.974
89787W        W53544  34.377  35.972  11.578
89788W        W53545  35.009  36.553  14.977
89789W        W53546  30.525   1.279   5.310
89790W        W53547  20.691  44.493   2.825
89791W        W53548   1.787   0.771  14.025
89792W        W53549  30.507   0.958   5.250
89793W        W53550  34.045  27.995   2.370
89794W        W53551  39.812  10.711  13.992
89795W        W53552   6.710  13.746  11.055
89796W        W53553  28.973  27.470  12.371
89797W        W53554   4.270  35.551  12.441
89798W        W53555   3.444  39.449   4.807
89799W        W53556   3.883  39.491   4.298
89800W        W53557  37.987  15.183  12.435
89801W        W53558   8.777  34.437   0.441
89802W        W53559  35.052  38.022  11.870
89803W        W53560   9.293  44.298  13.866
89804W        W53561  10.849  20.053   0.754
89805W        W53562  35.040   0.850  10.419
89806W        W53563  35.943  26.591  11.019
89807W        W53564  29.538  36.075  12.012
89808W        W53565  10.247   8.327   1.887
89809W        W53566   5.917  31.996  12.386
89810W        W53567   9.270  41.926  10.465
89811W        W53568  16.173  15.639   1.438
89812W        W53569   1.789  40.849   1.324
89813W        W53570  11.314   2.856  12.015
89814W        W53571  15.632   2.468  14.887
89815W        W53572  38.363  27.143   4.176
89816W        W53573   4.442  41.437   1.360
89817W        W53574   6.724  28.603   3.856
89818W        W53575   8.769  21.024  14.399
89819W        W53576  10.247  30.426  11.559
89820W        W53577  17.189  24.680  10.921
89821W        W53578  21.522  28.603  11.501
89822W        W53579  13.109  42.852  12.931
89823W        W53580   4.381  38.850  14.355
89824W        W53581  33.463  14.681  10.978
89825W        W53582  26.071  18.244  10.568
89826W        W53583  39.940  37.058   3.381
89827W        W53584  38.906   4.863  13.927
89828W        W53585  12.673   8.793  11.123
89829W        W53586   9.839  10.813   2.349
89830W        W53587  13.779   6.292  10.426
89831W        W53588  41.459  10.143   5.284
89832W        W53589  29.649  30.546   5.159
89833W        W53590  27.163  29.576   4.315
89834W        W53591  34.050   2.386   1.716
89835W        W53592  40.998  14.653   3.295
89836W        W53593  25.648  19.276  10.432
89837W        W53594   6.906  38.445   0.399
89838W        W53595   2.925   9.286  12.019
89839W        W53596  13.200  15.741   2.708
89840W        W53597  42.315  33.015  12.399
89841W        W53598  22.632  13.150  13.425
89842W        W53599  36.582  32.424   1.768
89843W        W53600  11.185  16.582  13.517
89844W        W53601  29.649  36.070  11.097
89845W        W53602   1.467  44.405   4.295
89846W        W53603   6.691  34.034  14.802
89847W        W53604  29.636  43.295   0.323
89848W        W53605   4.336  42.919   0.275
89849W        W53606  15.669   9.876   0.764
89850W        W53607  43.826  13.712  11.028
89851W        W53608  32.114  17.228   5.249
89852W        W53609  12.151  36.374  12.481
89853W        W53610  24.594  42.853  11.910
89854W        W53611  24.587  17.295  14.906
89855W        W53612   0.431  13.670   2.300
89856W        W53613   5.218  22.161  11.506
89857W        W53614  18.625  12.804   1.919
89858W        W53615   7.718   8.196   3.691
89859W        W53616  30.541  36.925  14.510
89860W        W53617  42.906  21.021  10.951
89861W        W53618  40.426   0.310  12.489
89862W        W53619  25.643   0.388   3.715
89863W        W53620  40.936  12.289   3.358
89864W        W53621   5.325  37.068   1.344
89865W        W53622  23.046  37.078  14.822
89866W        W53623  25.713  29.113  10.561
89867W        W53624  11.189  39.411  13.348
89868W        W53625  37.996  29.117   4.319
89869W        W53626  12.285  22.040  14.312
89870W        W53627  41.504  27.068   3.691
89871W        W53628  42.473   0.382  12.948
89872W        W53629   5.410  14.741  10.935
89873W        W53630  34.012  28.529  13.342
89874W        W53631  17.797  24.585   3.287
89875W        W53632   8.371  43.389  13.024
89876W        W53633   1.401  35.543  11.500
89877W        W53634  35.469   4.770   4.172
89878W        W53635  16.314  42.284  12.077
89879W        W53636  28.091   8.893  12.391
89880W        W53637   9.251  25.612  13.860
89881W        W53638  29.044   4.439  13.823
89882W        W53639   4.265  35.865  12.477
89883W        W53640  26.146  20.124   4.157
89884W        W53641  15.821  19.765   2.291
89885W        W53642  27.193  12.167  12.489
89886W        W53643  35.373   6.737  13.855
89887W        W53644  13.312  16.297   3.852
89888W        W53645  37.382   3.320   1.861
89889W        W53646   4.860   0.873  11.384
89890W        W53647  14.760  35.390   0.801
89891W        W53648   3.839  20.085  13.998
89892W        W53649  10.271  14.190   2.218
89893W        W53650  42.794  44.008   3.801
89894W        W53651   3.715   9.666   3.668
89895W        W53652  12.617  37.927   3.368
89896W        W53653  38.350  11.670   1.929
89897W        W53654  35.026  12.747  13.426
89898W        W53655   1.443  19.063   0.290
89899W        W53656  21.098  31.504  12.425
89900W        W53657  25.014  40.937  12.957
89901W        W53658  24.006  26.086  12.842
89902W        W53659  28.625   9.697  14.470
89903W        W53660  40.827  21.543  10.583
89904W        W53661  26.537  44.786   1.852
89905W        W53662  18.578   3.876   4.180
89906W        W53663  22.098   8.845   1.338
89907W        W53664  32.913  16.576   4.201
89908W        W53665  16.099   3.351   4.622
89909W        W53666   5.359   6.889   4.320
89910W        W53667  25.094  32.541  12.521
89911W        W53668  31.411  17.733   1.246
89912W        W53669  33.402   8.701  12.023
89913W        W53670  32.082  20.769   3.792
89914W        W53671   9.204  26.476  11.569
89915W        W53672   7.212  25.635  12.408
89916W        W53673  24.092  39.977   2.285
89917W        W53674  26.022  28.469   4.796
89918W        W53675  29.060  42.285  13.521
89919W        W53676  13.284  25.980   2.814
89920W        W53677  32.108  40.823   2.395
89921W        W53678  42.857  14.191  10.923
89922W        W53679   1.949  43.491   1.761
89923W        W53680  28.498  42.517   2.767
89924W        W53681   8.669  22.247   4.814
89925W        W53682  21.078   4.701   2.700
89926W        W53683  38.567  15.641   2.397
89927W        W53684  10.847  41.989   1.897
89928W        W53685   6.359  26.098   0.864
89929W        W53686  10.348   7.282   4.623
89930W        W53687  15.777   9.722  10.152
89931W        W53688  40.390  33.112   4.648
89932W        W53689  41.999  24.147   2.218
89933W        W53690  41.497   5.752  11.858
89934W        W53691   6.314  37.436   0.400
89935W        W53692  13.228  30.579   0.868
89936W        W53693  34.436   3.782   2.729
89937W        W53694  23.521  43.841  13.469
89938W        W53695  40.412   2.894   2.349
89939W        W53696  39.885  25.217   2.796
89940W        W53697  33.920  25.991   0.800
89941W        W53698  14.255  28.095  13.431
89942W        W53699  11.632  40.437  12.566
89943W        W53700  19.705  36.010  12.003
89944W        W53701   1.957  24.499   4.138
89945W        W53702   5.259  39.439   3.179
89946W        W53703  22.570  29.613   1.853
89947W        W53704  27.669  27.691   4.213
89948W        W53705  30.999  28.547   5.795
89949W        W53706  39.388  35.871  12.559
89950W        W53707  40.368  21.752  12.981
89951W        W53708  20.244  14.101   9.584
89952W        W53709   9.739  36.968   4.833
89953W        W53710  14.616  21.653  12.462
89954W        W53711   0.255  35.930  12.429
89955W        W53712  16.813  14.604   4.240
89956W        W53713   2.373  34.390   3.817
89957W        W53714  37.336   5.345  11.523
89958W        W53715  18.224  21.649   2.836
89959W        W53716   6.870   2.372  13.498
89960W        W53717  41.517  31.528   4.787
89961W        W53718  14.717   6.881  10.415
89962W        W53719  28.613  34.456  11.380
89963W        W53720   3.397   6.679   3.368
89964W        W53721  31.521   6.413  10.930
89965W        W53722  34.561  14.749   3.379
89966W        W53723  41.339  16.251   3.775
89967W        W53724  20.650   1.778  11.931
89968W        W53725  30.504  23.723  14.966
89969W        W53726  20.675  14.771  11.538
89970W        W53727  18.608  29.050   1.346
89971W        W53728  24.089  12.830  12.454
89972W        W53729  37.928   1.237   9.610
89973W        W53730   5.764  18.585   2.270
89974W        W53731  22.574   5.882   0.411
89975W        W53732  15.721  30.420  12.943
89976W        W53733   3.732  28.106  14.927
89977W        W53734  43.430  21.177   9.958
89978W        W53735   2.938  16.219   1.778
89979W        W53736  36.086   2.441  11.078
89980W        W53737   5.318  16.757   9.571
89981W        W53738   0.387  36.054  11.947
89982W        W53739   1.413   8.331   0.295
89983W        W53740   8.170  20.636   2.303
89984W        W53741  28.998   7.384   3.700
89985W        W53742  11.628  42.888   4.224
89986W        W53743  39.548  16.264  14.963
89987W        W53744  17.203  35.509  12.565
89988W        W53745   7.334  40.457   0.393
89989W        W53746  14.190  15.821  12.983
89990W        W53747  14.156  29.540  14.407
89991W        W53748  28.161  12.180  12.868
89992W        W53749  23.145  23.228   2.796
89993W        W53750  32.045  39.824   1.796
89994W        W53751  37.490  28.602  13.406
89995W        W53752  28.160  28.446  14.938
89996W        W53753  38.336  36.478   2.285
89997W        W53754   0.489  15.186  13.379
89998W        W53755  13.683  18.783  14.779
89999W        W53756  26.059  37.028  10.496
90000W        W53757  28.553  12.150   3.359
90001W        W53758  22.072  35.422  11.428
90002W        W53759  42.335  12.621  14.826
90003W        W53760  13.776  40.334  12.995
90004W        W53761  26.980  40.849  12.855
90005W        W53762  29.641  15.685  12.843
90006W        W53763  17.638  42.383   1.311
90007W        W53764  28.155  33.611  13.398
90008W        W53765  26.702  40.040  13.882
90009W        W53766  21.593  30.554  14.953
90010W        W53767  10.740  34.060  13.473
90011W        W53768  25.171  42.781  13.341
90012W        W53769   5.222  21.208  14.286
90013W        W53770  18.170  39.487   1.798
90014W        W53771  26.660  16.715   4.291
90015W        W53772   7.767  19.730  10.539
90016W        W53773  30.421  29.158   3.386
90017W        W53774   5.296   9.291   1.879
90018W        W53775  35.984  29.106  13.950
90019W        W53776  26.990   6.742  14.023
90020W        W53777  15.806  14.218   2.333
90021W        W53778   2.879  44.767  14.437
90022W        W53779   4.767  43.965   2.393
90023W        W53780  22.049  14.781  13.967
90024W        W53781  22.116  43.979  11.549
90025W        W53782  21.141  12.693   1.348
90026W        W53783  39.393  31.069  11.434
90027W        W53784  19.663  19.649   4.663
90028W        W53785  36.938   3.259   5.248
90029W        W53786  43.802  24.501  12.917
90030W        W53787  37.431  40.335   5.106
90031W        W53788   8.262   7.698   3.855
90032W        W53789  39.363  32.536  12.917
90033W        W53790  19.618   2.882   3.214
90034W        W53791   9.184   1.789  13.395
90035W        W53792   8.856   3.716   2.247
90036W        W53793  29.550  37.367   0.464
90037W        W53794   4.290  22.185  13.370
90038W        W53795  44.493  23.685  13.886
90039W        W53796  18.142   4.386  14.862
90040W        W53797  31.918  29.426  14.814
90041W        W53798  44.753  38.063  14.917
90042W        W53799  33.424   6.378  11.871
90043W        W53800  42.854  23.693   3.830
90044W        W53801  41.314  12.668  14.395
90045W        W53802   0.318  29.464  14.490
90046W        W53803  11.836   9.197  13.954
90047W        W53804  26.083  20.623   4.147
90048W        W53805  11.818  29.548  14.428
90049W        W53806   1.470  20.625   4.206
90050W        W53807  10.243  14.738  13.488
90051W        W53808  38.863  35.942   1.247
90052W        W53809  41.334  36.005  13.912
90053W        W53810  42.779   7.229   1.846
90054W        W53811  38.428  20.270   3.290
90055W        W53812  28.071  22.712  14.889
90056W        W53813   6.761  10.764   0.737
90057W        W53814  35.479  17.243  13.038
90058W        W53815  28.624  25.182  13.323
90059W        W53816  33.413  30.463  14.287
90060W        W53817  29.608   8.385   2.314
90061W        W53818  10.316  40.849   4.202
90062W        W53819  24.085  36.872   0.483
90063W        W53820   1.734  33.453   4.177
90064W        W53821  39.942  37.387   3.303
90065W        W53822  19.555  10.199   4.289
90066W        W53823  16.231  28.497   4.261
90067W        W53824  15.645  32.392   1.703
90068W        W53825  38.392  36.575   2.802
90069W        W53826  10.798  30.632   1.240
90070W        W53827  19.730  12.723  13.891
90071W        W53828  30.544  40.373  12.567
90072W        W53829  15.179  34.017  14.901
90073W        W53830   2.410   8.893  13.923
90074W        W53831  22.114  16.127   3.644
90075W        W53832  32.450  43.960  12.980
90076W        W53833  15.761  25.594  11.538
90077W        W53834  25.069  21.640  12.907
90078W        W53835  35.071  13.776   2.383
90079W        W53836  44.258  13.781   2.215
90080W        W53837  12.279  29.503  13.485
90081W        W53838  34.387   9.217   3.175
90082W        W53839   9.235  27.657  10.928
90083W        W53840  36.936  20.061   1.772
90084W        W53841  11.704  12.240   4.670
90085W        W53842  33.091   2.735  14.762
90086W        W53843  28.611   5.829   0.335
90087W        W53844  32.437  42.824  14.820
90088W        W53845   9.243  43.287  11.939
90089W        W53846  26.040  40.440   4.719
90090W        W53847  21.238  32.894  12.950
90091W        W53848  27.085  33.974   3.652
90092W        W53849   3.879  36.969  14.021
90093W        W53850  21.547  25.185  13.916
90094W        W53851  19.118  35.445  11.966
90095W        W53852   8.670   6.764  14.947
90096W        W53853   7.669  31.527  11.855
90097W        W53854  24.067  29.093   0.910
90098W        W53855  42.289   6.920  13.890
90099W        W53856  42.359   6.280  10.585
90100W        W53857   6.690   8.195  11.405
90101W        W53858   4.448  22.045  11.371
90102W        W53859  34.024  29.080   3.288
90103W        W53860  18.556  26.501  10.448
90104W        W53861  26.133   8.372   4.130
90105W        W53862  31.020  33.034  10.912
90106W        W53863  17.558  44.827  10.596
90107W        W53864  43.325  37.335   4.797
90108W        W53865  11.371   9.341   1.695
90109W        W53866  34.434  41.359   1.857
90110W        W53867  11.634  10.289  12.874
90111W        W53868  15.782  24.680  14.912
90112W        W53869  28.938  17.775   5.627
90113W        W53870  12.303  11.863   3.814
90114W        W53871  40.863  38.979  12.024
90115W        W53872  18.200  38.029  13.410
90116W        W53873   3.215   2.942  12.351
90117W        W53874  16.072  35.091  14.378
90118W        W53875   8.719  16.149  14.491
90119W        W53876  21.744  20.734  13.459
90120W        W53877  19.130  33.380  11.913
90121W        W53878  18.603  27.555   3.715
90122W        W53879  30.137  21.585  11.419
90123W        W53880  43.831  40.932  12.999
90124W        W53881  28.549  36.401  13.356
90125W        W53882   8.812  27.996   0.819
90126W        W53883  30.472  11.853  13.944
90127W        W53884  34.016  20.229  14.381
90128W        W53885  30.607   1.963   5.207
90129W        W53886  22.018   7.891  10.631
90130W        W53887  12.790  36.045   1.720
90131W        W53888  11.768   1.264   1.812
90132W        W53889  42.981  27.592   0.454
90133W        W53890   3.235   0.750   4.716
90134W        W53891  23.552  31.011   1.435
90135W        W53892   2.409  28.182  12.436
90136W        W53893   7.719   3.235  13.444
90137W        W53894  41.338  27.594  10.540
90138W        W53895  18.701   4.791   1.779
90139W        W53896   4.352  44.499   4.838
90140W        W53897   6.410  30.427  10.501
90141W        W53898  34.473  44.952   2.247
90142W        W53899  12.659  16.214   2.180
90143W        W53900  10.224  17.181   4.152
90144W        W53901  15.587  44.322   2.313
90145W        W53902  26.552  31.148  12.076
90146W        W53903  28.522  41.456   1.794
90147W        W53904  16.151  30.027  11.066
90148W        W53905  24.124  25.057   2.750
90149W        W53906   1.754  36.954   1.834
90150W        W53907   7.757  11.623  13.877
90151W        W53908  41.916  30.587  14.981
90152W        W53909  42.795   0.431  14.984
90153W        W53910  18.664  36.856   0.340
90154W        W53911  10.745  44.792  14.443
90155W        W53912  14.104  37.407  10.624
90156W        W53913  21.205  13.735  13.993
90157W        W53914  42.882  35.066   2.280
90158W        W53915  36.478  31.421  14.965
90159W        W53916  24.116  10.768  14.018
90160W        W53917  39.035  42.020  11.051
90161W        W53918  26.490  38.854   5.107
90162W        W53919  33.975  32.455   1.254
90163W        W53920   0.388   4.328  13.884
90164W        W53921  40.509  12.689   5.304
90165W        W53922  30.420  12.776  14.285
90166W        W53923   9.355  36.925  14.773
90167W        W53924  44.357  40.964   0.822
90168W        W53925  36.415  26.104   1.319
90169W        W53926  22.691  17.142  13.928
90170W        W53927   1.330  12.117   2.883
90171W        W53928  34.444  34.503  14.883
90172W        W53929  30.093  33.571   3.765
90173W        W53930  11.231  15.172   0.351
90174W        W53931  31.031  31.133   2.182
90175W        W53932   5.898   2.271   3.353
90176W        W53933  24.699  44.348  11.462
90177W        W53934  32.517  11.364  12.861
90178W        W53935  31.985  40.843  10.957
90179W        W53936  11.221  21.724  12.051
90180W        W53937   3.226  33.420  11.882
90181W        W53938  30.916  43.308   2.783
90182W        W53939  12.757  44.915  13.049
90183W        W53940  26.991  14.337  14.451
90184W        W53941  25.548  10.333  11.077
90185W        W53942  21.048   8.166  11.468
90186W        W53943  38.895  43.773  12.495
90187W        W53944  31.513  44.845  14.931
90188W        W53945  44.985  25.511  10.496
90189W        W53946   7.327  26.109   1.829
90190W        W53947  17.710   7.730   1.831
90191W        W53948  20.582  29.648   1.826
90192W        W53949   6.332  34.967  12.997
90193W        W53950  10.320  26.592  11.052
90194W        W53951  20.553  18.574   3.331
90195W        W53952   3.306  36.397  11.531
90196W        W53953   5.407  26.186  10.982
90197W        W53954  44.368   2.729  12.414
90198W        W53955  18.168   2.343  13.365
90199W        W53956  28.052  29.171  13.380
90200W        W53957  25.127   3.263  10.900
90201W        W53958  17.563  17.248  12.385
90202W        W53959   5.298   0.845   1.236
90203W        W53960  44.880   1.441   1.241
90204W        W53961   6.686  32.420   2.364
90205W        W53962  32.037  26.498   2.258
90206W        W53963  33.391   7.296  14.994
90207W        W53964   0.287   1.324  11.986
90208W        W53965   4.438  40.940   2.248
90209W        W53966  19.549  23.490   4.671
90210W        W53967  44.420  36.477  10.458
90211W        W53968  38.015  27.079   4.696
90212W        W53969  44.761  15.606   3.773
90213W        W53970  38.896  12.681  10.089
90214W        W53971  42.519   9.316  12.866
90215W        W53972  23.020  16.754  11.003
90216W        W53973  16.280   0.852   1.285
90217W        W53974  31.402  11.130  10.620
90218W        W53975  28.488  17.670  11.433
90219W        W53976  13.332  10.776  12.566
90220W        W53977  37.362  37.008  10.490
90221W        W53978  19.538  36.889  11.014
90222W        W53979  16.138  23.081   0.917
90223W        W53980  18.686  35.600   0.918
90224W        W53981  39.925  43.430   1.323
90225W        W53982  28.181  30.467  12.065
90226W        W53983   0.799  27.688  12.341
90227W        W53984  20.116  16.208   0.305
90228W        W53985  36.513   7.859   3.259
90229W        W53986   8.761  18.675   1.442
90230W        W53987  38.070  24.100   3.348
90231W        W53988  33.455  14.222  10.105
90232W        W53989  39.837   0.910   1.333
90233W        W53990  26.688  29.169  13.337
90234W        W53991  15.194  26.106  11.932
90235W        W53992  14.672  39.919   0.729
90236W        W53993  22.212  22.698   3.149
90237W        W53994   0.261   6.204   1.797
90238W        W53995   5.852  36.935   3.794
90239W        W53996  32.128  17.696   4.159
90240W        W53997   8.897  36.383   0.959
90241W        W53998  31.401  15.106  14.991
90242W        W53999  24.698  42.922   1.906
90243W        W54000  41.961  23.701   5.129
90244W        W54001   5.926   0.920  11.951
90245W        W54002  21.221  25.114   3.724
90246W        W54003  24.221  10.838   0.462
90247W        W54004  38.904  40.371  10.921
90248W        W54005   0.248  29.147  13.318
90249W        W54006  24.223  33.498  13.985
90250W        W54007  41.877  15.672   4.220
90251W        W54008   7.706  10.839  14.799
90252W        W54009   1.912  27.110   1.298
90253W        W54010   6.352  36.417   0.843
90254W        W54011  21.612  15.190   3.167
90255W        W54012   2.358  30.632  12.424
90256W        W54013  20.225  28.174   0.339
90257W        W54014  10.161   1.398  12.094
90258W        W54015  38.871   7.718  11.456
90259W        W54016  34.504  18.122  13.019
90260W        W54017  36.092  10.843  10.413
90261W        W54018   6.727  13.713   2.252
90262W        W54019   1.336   0.408   0.244
90263W        W54020  31.119   2.237   1.767
90264W        W54021  39.048  14.639   2.263
90265W        W54022  13.232  37.913   1.399
90266W        W54023   2.447  27.692  11.555
90267W        W54024  22.224  31.987   1.871
90268W        W54025  13.152   1.291  14.826
90269W        W54026  18.717  33.584   3.383
90270W        W54027   3.349   7.666   2.325
90271W        W54028  28.960  19.217   1.855
90272W        W54029  10.639  42.327   2.797
90273W        W54030   6.763  19.048  12.365
90274W        W54031   5.818  39.930  11.438
90275W        W54032   5.908   2.292   1.889
90276W        W54033  21.578   4.288  11.433
90277W        W54034  27.645  17.577  10.935
90278W        W54035  43.316  15.172   4.682
90279W        W54036  20.588  37.954  11.023
90280W        W54037  41.509  26.959   0.775
90281W        W54038  37.032  23.534   2.236
90282W        W54039  40.407  18.106  14.328
90283W        W54040   5.377  14.115   2.382
90284W        W54041  43.810   2.804   0.431
90285W        W54042  16.615  41.878   1.729
90286W        W54043   1.930   3.307   2.818
90287W        W54044   5.692   8.886  14.416
90288W        W54045  20.565  20.148  11.535
90289W        W54046  42.938  44.374  14.510
90290W        W54047  32.486  11.818  10.936
90291W        W54048  19.052  40.396  13.967
90292W        W54049   9.652  35.945  14.399
90293W        W54050  22.532  13.648   2.367
90294W        W54051  36.973  39.443  11.585
90295W        W54052  21.142  12.227   2.284
90296W        W54053  35.070  18.080   1.292
90297W        W54054  35.862  32.562   5.162
90298W        W54055   6.787   7.177  14.340
90299W        W54056   8.373  14.613   3.728
90300W        W54057  27.074  12.359  12.927
90301W        W54058  24.061  32.001   1.747
90302W        W54059   4.809  37.508  14.325
90303W        W54060  12.741  18.142   1.299
90304W        W54061  30.508  28.176  10.586
90305W        W54062  43.988  26.658  10.974
90306W        W54063  25.540  17.238  12.038
90307W        W54064  10.783  10.368  13.346
90308W        W54065  16.612  27.479   2.807
90309W        W54066  20.038  13.654  13.981
90310W        W54067  26.188  41.504   1.413
90311W        W54068  20.603  16.649  13.021
90312W        W54069   4.273  16.280  12.468
90313W        W54070  17.064  31.493  11.586
90314W        W54071  21.191  13.754  13.535
90315W        W54072  10.692   6.723   1.339
90316W        W54073  28.536  27.034   1.271
90317W        W54074  12.204   2.322  13.019
90318W        W54075  38.326   5.264  10.900
90319W        W54076  20.189  27.638  13.930
90320W        W54077  13.800  35.874   4.600
90321W        W54078  39.367   4.748  14.464
90322W        W54079  27.494  36.947   3.713
90323W        W54080  10.320  27.504  13.063
90324W        W54081  38.896  22.191   2.363
90325W        W54082   1.241  25.553  14.324
90326W        W54083  35.431  20.616  14.314
90327W        W54084   8.849   2.900  12.922
90328W        W54085  20.146  24.538   0.437
90329W        W54086  22.535  25.990  14.922
90330W        W54087   8.719  37.413   2.760
90331W        W54088   3.915   3.372  11.100
90332W        W54089  44.423  37.866  11.448
90333W        W54090   4.295  36.589  13.508
90334W        W54091  42.373  27.462   4.730
90335W        W54092   4.360  14.134  11.410
90336W        W54093   6.692  43.972   0.287
90337W        W54094   6.361  29.100  13.937
90338W        W54095  12.256   8.266  11.603
90339W        W54096  25.173   3.769  12.953
90340W        W54097  33.086  13.282   2.735
90341W        W54098  31.464  12.345  12.850
90342W        W54099  22.061  41.424  12.019
90343W        W54100  23.723  17.643   3.277
90344W        W54101   3.335  13.234  10.411
90345W        W54102  28.138  33.562   1.846
90346W        W54103   6.911  16.302  12.388
90347W        W54104   6.729  18.571   3.634
90348W        W54105   1.925  44.455  12.361
90349W        W54106  43.320   3.295   1.262
90350W        W54107  30.531  15.137   0.922
90351W        W54108  11.645   1.811   2.226
90352W        W54109  13.618  18.664   3.159
90353W        W54110  40.945  17.746  10.525
90354W        W54111  34.554  20.738  10.581
90355W        W54112  19.741  33.441  14.919
90356W        W54113  36.458  34.443  12.529
90357W        W54114  14.138  23.021  11.898
90358W        W54115  27.104  33.496  13.919
90359W        W54116   8.672  21.758  14.776
90360W        W54117   4.368  40.429   1.233
90361W        W54118  35.437   6.244   3.663
90362W        W54119  26.204   7.674  14.828
90363W        W54120  11.674   8.821  10.582
90364W        W54121  16.197  23.210   3.802
90365W        W54122  27.014  11.297   1.920
90366W        W54123  35.013  26.079  10.571
90367W        W54124  10.767  10.283   0.853
90368W        W54125  16.771  40.798  13.523
90369W        W54126  42.378  16.756   4.228
90370W        W54127  36.548  14.327  10.588
90371W        W54128  19.547  28.002  14.801
90372W        W54129  38.048  33.581  13.960
90373W        W54130  41.416  29.936  12.965
90374W        W54131  32.141  36.507   2.768
90375W        W54132   2.730   7.795  10.556
90376W        W54133  19.609   6.872   3.681
90377W        W54134  39.907   0.764   1.726
90378W        W54135  14.798  19.191  12.867
90379W        W54136  40.949  36.088  11.373
90380W        W54137  14.791  19.599   2.315
90381W        W54138  31.623  34.427   3.284
90382W        W54139  25.995  13.778  12.456
90383W        W54140  15.223   0.966  11.427
90384W        W54141   7.173  34.889   3.759
90385W        W54142  27.139  34.960  14.825
90386W        W54143  42.848   8.159  13.994
90387W        W54144   6.758  18.225  14.369
90388W        W54145   6.210  18.568  13.814
90389W        W54146   9.225  10.734  10.620
90390W        W54147  13.346   9.830  12.886
90391W        W54148  20.749  40.527   0.891
90392W        W54149  11.741  33.992   3.715
90393W        W54150  35.878  35.087  14.819
90394W        W54151  27.958  26.019  10.889
90395W        W54152  27.687  38.507  10.572
90396W        W54153  19.698  31.568   0.401
90397W        W54154  24.581  18.762   4.648
90398W        W54155  15.229  24.168  14.507
90399W        W54156   7.321  14.285  14.439
90400W        W54157  39.809   8.257  13.543
90401W        W54158  38.400  36.570  14.288
90402W        W54159  24.487  22.073  11.559
90403W        W54160  38.503   9.342   4.630
90404W        W54161  35.593  32.963  12.833
90405W        W54162  25.560   8.666  10.561
90406W        W54163  35.393  18.289  12.935
90407W        W54164  14.217  27.046  13.534
90408W        W54165  22.085  33.094  12.512
90409W        W54166  38.984   7.377  12.830
90410W        W54167  43.492  26.546  13.034
90411W        W54168  21.568  21.642   3.870
90412W        W54169  22.712  10.380  10.577
90413W        W54170  34.489  35.559   0.419
90414W        W54171  35.062  37.991  14.973
90415W        W54172  12.813  15.765   9.960
90416W        W54173  13.693  15.309  11.547
90417W        W54174  39.985  38.417  11.553
90418W        W54175  19.660  41.918   3.715
90419W        W54176  18.082  31.016  12.544
90420W        W54177  15.648  41.343   3.187
90421W        W54178  38.484  16.074  10.554
90422W        W54179   6.701  43.966   1.742
90423W        W54180  19.202  26.108   4.640
90424W        W54181   2.398  43.870  11.974
90425W        W54182  39.446  10.768  12.905
90426W        W54183  18.110   3.342   4.708
90427W        W54184  28.172  10.359   1.362
90428W        W54185  31.985   8.397   1.210
90429W        W54186  41.882  20.659  11.391
90430W        W54187   4.873   7.750   0.471
90431W        W54188  38.476  37.343  12.892
90432W        W54189  26.996   8.214   3.856
90433W        W54190  31.097  43.844  13.958
90434W        W54191  36.883  30.643   0.734
90435W        W54192  28.961  29.424   3.766
90436W        W54193   2.735   4.313  14.305
90437W        W54194  22.684  20.574  14.993
90438W        W54195  10.796  37.838   1.445
90439W        W54196  38.947  44.433  12.443
90440W        W54197  32.468  41.296  10.553
90441W        W54198  21.633   2.919  13.461
90442W        W54199  27.175  34.503  14.920
90443W        W54200  18.721  16.304   2.875
90444W        W54201  27.610  32.009   3.236
90445W        W54202  24.226  21.581  13.527
90446W        W54203  33.874  20.718   4.729
90447W        W54204  10.236  15.605  12.949
90448W        W54205  28.939   3.778   9.491
90449W        W54206  35.898  23.151   3.342
90450W        W54207  31.941   7.787   3.172
90451W        W54208  25.513  34.980  13.374
90452W        W54209  33.574  35.513  11.032
90453W        W54210  16.629  38.968   2.223
90454W        W54211  41.980  19.593   1.762
90455W        W54212  19.744  29.156   0.274
90456W        W54213  34.988  35.598  10.422
90457W        W54214   0.752  33.503  12.358
90458W        W54215  29.630  23.592   2.307
90459W        W54216   3.354   4.263  14.995
90460W        W54217  42.494  40.488  14.764
90461W        W54218   0.762   4.304   0.893
90462W        W54219   2.753  37.554  10.901
90463W        W54220  43.002  26.999   3.273
90464W        W54221  17.086  41.040  14.953
90465W        W54222  41.367  23.136  14.319
90466W        W54223  21.525   1.394  12.368
90467W        W54224  20.182   5.880   2.396
90468W        W54225  11.152  13.750   3.713
90469W        W54226  35.373  19.640   4.192
90470W        W54227   6.425  11.815   1.930
90471W        W54228  39.489   4.266  11.498
90472W        W54229  10.658  29.025   2.895
90473W        W54230  33.589  40.398   2.312
90474W        W54231   6.885  31.036   2.813
90475W        W54232   7.770  35.516   3.338
90476W        W54233   0.975  14.235   4.800
90477W        W54234   1.458  10.333   3.354
90478W        W54235   8.369  26.562   4.764
90479W        W54236  41.363   9.226  10.521
90480W        W54237  27.184  11.806   4.130
90481W        W54238  35.359   2.859  14.279
90482W        W54239  22.189  40.011   0.252
90483W        W54240  34.477  25.095   1.449
90484W        W54241  37.489  43.776   4.312
90485W        W54242   1.895  27.032   3.722
90486W        W54243   3.238  29.581   3.323
90487W        W54244  17.067   3.215   3.697
90488W        W54245   2.738   9.888  10.910
90489W        W54246   6.360  20.041   3.828
90490W        W54247   8.364  40.339  12.988
90491W        W54248   3.831  42.006  14.418
90492W        W54249  17.749   3.862   3.822
90493W        W54250  28.508  25.056   1.380
90494W        W54251  29.457  11.626   0.952
90495W        W54252  38.441   2.797  10.469
90496W        W54253  30.495   4.407   2.270
90497W        W54254  20.763  43.864  14.282
90498W        W54255  14.773   6.195   3.202
90499W        W54256  37.434  30.458   0.743
90500W        W54257   3.434  25.613   2.300
90501W        W54258  11.811  13.296   2.311
90502W        W54259   1.823  35.460   3.732
90503W        W54260  26.084  16.764   2.312
90504W        W54261  29.918  28.454   0.320
90505W        W54262  38.424  27.488  13.051
90506W        W54263   5.369  36.018   1.702
90507W        W54264   1.258   6.867   2.193
90508W        W54265  10.809   7.855   0.286
90509W        W54266  29.153  26.683   1.850
90510W        W54267  38.903  14.723   3.751
90511W        W54268  23.520   5.706  14.874
90512W        W54269   8.331  38.499   4.661
90513W        W54270  26.091  28.181  12.556
90514W        W54271  38.935   2.845  10.151
90515W        W54272  20.094  43.409  11.105
90516W        W54273  40.799  32.110   1.348
90517W        W54274  24.059  37.834   1.831
90518W        W54275   3.363   0.317  10.910
90519W        W54276  37.409  29.547   4.137
90520W        W54277  14.134   4.797   0.318
90521W        W54278  14.744  25.541   0.728
90522W        W54279  15.114  17.243   0.360
90523W        W54280  23.998  25.705   2.202
90524W        W54281   0.831  32.527  10.949
90525W        W54282  19.067  14.202   0.332
90526W        W54283  19.107  27.092   1.715
90527W        W54284  36.529   6.771  13.481
90528W        W54285  30.989  38.555   4.164
90529W        W54286  13.202  35.550   2.249
90530W        W54287  20.067   5.800  14.353
90531W        W54288  32.132  12.125  14.014
90532W        W54289  38.497   4.229  10.580
90533W        W54290  32.953  26.991   2.890
90534W        W54291  28.147  16.618  14.505
90535W        W54292  44.787   8.246  14.435
90536W        W54293  13.637  12.720   1.413
90537W        W54294  42.402   8.669   3.736
90538W        W54295  38.401  34.899  13.323
90539W        W54296  18.787   4.312   2.235
90540W        W54297  24.133   6.199  10.620
90541W        W54298   8.190  15.697  12.895
90542W        W54299  40.862  40.535   1.394
90543W        W54300  15.092  28.626  14.406
90544W        W54301  42.880   8.741   2.207
90545W        W54302  36.423  30.464   1.863
90546W        W54303  44.324  41.512   0.391
90547W        W54304  10.339  23.025  11.495
90548W        W54305   8.184  29.062  14.389
90549W        W54306  38.024   9.358  13.447
90550W        W54307  40.010  12.720  14.980
90551W        W54308  26.595  41.470  10.598
90552W        W54309  20.031  35.092   0.343
90553W        W54310  35.362  40.938   1.448
90554W        W54311  16.290  16.778   1.755
90555W        W54312  16.708  16.620  14.798
90556W        W54313  13.190  29.119   2.859
90557W        W54314  20.558  34.396  14.029
90558W        W54315  11.254  26.679  10.123
90559W        W54316  41.018  22.593  11.909
90560W        W54317   3.318  43.480   1.237
90561W        W54318  35.416  12.670   4.837
90562W        W54319  27.114  41.378   4.695
90563W        W54320  32.398  28.152  12.854
90564W        W54321  17.113  31.965   3.706
90565W        W54322  29.128  40.818   2.229
90566W        W54323  32.132  29.166  13.849
90567W        W54324   6.870  13.742   3.816
90568W        W54325   2.933   7.903   3.867
90569W        W54326   3.263  39.328   2.898
90570W        W54327   6.329  36.076   3.213
90571W        W54328  42.983  19.554  14.475
90572W        W54329  26.593  12.666  13.974
90573W        W54330  23.689  17.091   1.717
90574W        W54331   2.906   7.667  10.929
90575W        W54332  27.145  13.692   0.960
90576W        W54333  20.741  11.798  10.902
90577W        W54334   1.476  25.066  14.371
90578W        W54335  40.397  14.140  10.544
90579W        W54336   4.911  35.598  14.846
90580W        W54337  22.573  30.460  13.412
90581W        W54338  32.924  24.071  14.018
90582W        W54339   9.370  21.098   3.776
90583W        W54340  20.541  12.215  14.507
90584W        W54341  19.155  28.154   1.773
90585W        W54342   6.726  12.233   2.300
90586W        W54343  18.650   4.834   2.743
90587W        W54344  33.104  33.471  11.580
90588W        W54345  44.457   4.334  10.644
90589W        W54346   3.715  42.339   1.897
90590W        W54347  28.656  36.876  13.041
90591W        W54348  16.753  30.909  14.016
90592W        W54349   8.752  11.359  11.083
90593W        W54350  42.970  31.481  10.916
90594W        W54351   7.174   7.179  14.487
90595W        W54352  27.630   6.255   4.128
90596W        W54353  29.443  25.623   3.861
90597W        W54354  26.564  34.541  11.936
90598W        W54355   9.284   3.783  13.851
90599W        W54356  23.234  27.965   4.741
90600W        W54357  29.576   5.256  13.489
90601W        W54358  21.126  28.071   4.598
90602W        W54359  19.713  29.606   3.648
90603W        W54360   5.291  10.701  11.445
90604W        W54361   9.712  37.515   4.674
90605W        W54362  40.471   3.236   1.719
90606W        W54363   7.241  19.730  10.493
90607W        W54364   8.177  30.024  12.396
90608W        W54365  17.601  16.116  12.842
90609W        W54366  13.769  31.116  14.763
90610W        W54367  40.392  22.627   2.751
90611W        W54368  12.162  44.949  11.374
90612W        W54369   5.394  37.929  12.440
90613W        W54370  16.306  42.946  13.475
90614W        W54371  43.935  34.536  10.892
90615W        W54372  22.157  24.184  12.543
90616W        W54373  18.762   6.809  13.398
90617W        W54374  10.713  42.015  13.802
90618W        W54375  31.533   1.969   3.748
90619W        W54376   7.876  10.333  12.368
90620W        W54377  30.602   4.425  11.481
90621W        W54378  24.613  20.633  10.936
90622W        W54379  40.517  44.782   3.813
90623W        W54380  34.082  11.249  10.464
90624W        W54381  29.947  13.216   3.673
90625W        W54382   0.260  12.833  12.459
90626W        W54383   3.863   5.324  10.608
90627W        W54384  31.918  37.417  14.017
90628W        W54385  30.554  29.929  12.912
90629W        W54386  18.732  12.800  14.301
90630W        W54387   4.206  15.689  13.809
90631W        W54388   2.933   5.748  12.955
90632W        W54389  34.599   7.806  11.099
90633W        W54390  25.009  40.439   3.349
90634W        W54391   3.903  34.925  13.885
90635W        W54392  31.069  15.230  11.472
90636W        W54393   8.194  13.628  11.883
90637W        W54394  23.997   1.395   4.601
90638W        W54395  21.070  22.599   4.625
90639W        W54396   7.800  18.089  12.887
90640W        W54397  44.452   5.891   1.333
90641W        W54398  11.135  15.317   2.347
90642W        W54399  31.898  28.080   2.903
90643W        W54400  20.767   4.770  13.912
90644W        W54401  21.084   1.301   1.740
90645W        W54402  25.211  23.146  11.904
90646W        W54403  23.185  36.038  14.446
90647W        W54404  14.156   9.775  12.016
90648W        W54405  35.547  28.678   1.809
90649W        W54406  31.039   5.424  12.353
90650W        W54407  42.495  16.120   2.750
90651W        W54408  44.959  13.656  10.895
90652W        W54409  10.369  21.626   0.305
90653W        W54410  38.538  14.686  10.928
90654W        W54411  36.084  33.539  10.022
90655W        W54412  27.586  13.335   3.820
90656W        W54413  15.746  16.259  10.519
90657W        W54414   9.848  20.572   4.678
90658W        W54415  42.012  43.994   4.800
90659W        W54416  29.612   0.751  11.466
90660W        W54417  27.611  36.978  13.334
90661W        W54418  33.939   4.365   3.175
90662W        W54419   0.262  22.229   3.358
90663W        W54420   8.321   2.240  12.915
90664W        W54421  36.850  21.219   2.276
90665W        W54422  35.889   6.248  12.425
90666W        W54423  15.284  26.182   3.651
90667W        W54424  37.391  23.058   4.685
90668W        W54425  27.623  39.452   0.297
90669W        W54426  37.935  24.157  10.916
90670W        W54427  26.034  16.767   1.861
90671W        W54428  24.483  44.960   2.767
90672W        W54429  28.019  18.229   0.285
90673W        W54430   1.876   5.767   4.734
90674W        W54431  22.244  24.527   1.389
90675W        W54432  32.522  34.441  11.523
90676W        W54433  20.724   9.247  11.944
90677W        W54434  32.581  16.128   2.197
90678W        W54435   2.258  40.478   0.790
90679W        W54436  31.972   8.888  14.323
90680W        W54437   1.458   9.650  13.517
90681W        W54438  36.474  40.910  14.457
90682W        W54439  10.670  14.327   3.154
90683W        W54440  40.515  40.326   4.788
90684W        W54441  13.238  13.790   4.201
90685W        W54442   0.453  23.493   2.238
90686W        W54443   1.825  36.091   1.303
90687W        W54444  13.141   4.339   4.340
90688W        W54445  26.633   8.799   2.375
90689W        W54446  41.835  14.326  13.051
90690W        W54447  23.167   3.834   4.207
90691W        W54448   8.688   8.206   0.307
90692W        W54449  24.663   5.784   1.251
90693W        W54450  38.962   7.765   0.838
90694W        W54451  35.949  26.639  10.637
90695W        W54452   3.818   0.358   2.409
90696W        W54453  35.959  40.838   0.441
90697W        W54454  24.204  12.221   1.315
90698W        W54455  10.203  39.559  14.760
90699W        W54456   0.756   2.752   1.888
90700W        W54457  15.818  43.920   0.354
90701W        W54458  37.572  25.617  12.034
90702W        W54459  11.848  43.792   4.646
90703W        W54460  20.737  42.867  10.977
90704W        W54461  25.120  22.227  14.831
90705W        W54462  37.545  19.765  14.907
90706W        W54463  18.610  21.556   0.312
90707W        W54464   6.818  41.399  14.915
90708W        W54465   8.868  34.918  11.586
90709W        W54466   5.767   5.748  12.463
90710W        W54467  16.691  13.165  10.132
90711W        W54468  35.057   6.792   1.733
90712W        W54469  20.219  26.036  11.512
90713W        W54470  33.068  19.630  13.472
90714W        W54471  25.036   8.680   1.735
90715W        W54472   7.723  44.869   4.333
90716W        W54473  18.145  31.403   4.265
90717W        W54474  33.570  31.063   1.866
90718W        W54475   9.765  28.584   1.382
90719W        W54476  11.809  16.103  12.461
90720W        W54477  19.610  27.652  11.512
90721W        W54478  29.087  20.182  12.476
90722W        W54479   1.944  22.530  11.857
90723W        W54480  23.621  36.086   4.311
90724W        W54481  18.691  23.543   0.920
90725W        W54482  14.198   6.263  12.923
90726W        W54483   8.331  18.227   4.187
90727W        W54484  16.779   8.307  14.822
90728W        W54485  40.463  18.123  10.963
90729W        W54486  30.934  39.460   2.665
90730W        W54487  33.962  10.823   0.324
90731W        W54488  41.800  35.049   5.259
90732W        W54489  16.167  39.368  11.393
90733W        W54490  37.955  24.613  11.563
90734W        W54491   1.947  43.924   2.329
90735W        W54492  13.198   1.311  10.509
90736W        W54493   9.656  10.269  13.955
90737W        W54494   9.662  41.949  11.381
90738W        W54495  40.457   1.380   4.633
90739W        W54496  12.256  22.100  10.533
90740W        W54497  36.083  30.117  14.772
90741W        W54498   2.852   5.872   4.687
90742W        W54499   3.318  23.024  10.473
90743W        W54500   4.900  20.703  13.409
90744W        W54501  32.477  41.791   1.877
90745W        W54502  16.260  26.634   0.382
90746W        W54503  43.491  39.808  12.546
90747W        W54504  14.149  27.677   4.200
90748W        W54505  36.857  19.095  10.489
90749W        W54506   0.326  30.157   3.683
90750W        W54507   9.682  16.092   1.413
90751W        W54508  25.145  37.525   2.740
90752W        W54509   1.479   6.747  13.064
90753W        W54510  29.558  10.149  14.284
90754W        W54511   4.290  30.416  11.955
90755W        W54512   3.323  24.979   2.673
90756W        W54513  13.708  39.496   0.258
90757W        W54514  19.570  16.594  13.809
90758W        W54515  43.297  15.608   0.861
90759W        W54516  31.935  36.527   4.680
90760W        W54517  36.888  43.826  10.622
90761W        W54518  39.915   8.261  12.870
90762W        W54519  39.457   9.789   0.744
90763W        W54520  39.849   0.491   3.689
90764W        W54521  14.151   0.829   1.435
90765W        W54522  35.589  14.255  10.504
90766W        W54523   6.246  14.661  11.514
90767W        W54524  30.050  30.602  11.071
90768W        W54525  12.276  10.328   4.119
90769W        W54526  42.363  26.639  11.922
90770W        W54527  13.212  29.918   4.334
90771W        W54528  30.000  17.757  14.837
90772W        W54529   3.861  44.924  11.947
90773W        W54530  32.974  41.519  11.904
90774W        W54531  34.401  14.139   4.245
90775W        W54532   1.239  34.500  11.567
90776W        W54533  38.010  29.949   4.625
90777W        W54534  29.013  39.394   2.737
90778W        W54535   2.309  27.962  14.403
90779W        W54536   3.760   0.876   3.662
90780W        W54537  39.381  44.398   1.720
90781W        W54538  28.929  17.178   4.824
90782W        W54539  36.035  33.615   0.329
90783W        W54540  24.042  44.275  14.472
90784W        W54541  26.043  32.948   4.640
90785W        W54542  30.557  40.029   3.302
90786W        W54543   5.439  14.704   3.662
90787W        W54544  16.597   2.304   2.687
90788W        W54545  40.422  16.572   2.340
90789W        W54546  17.117   3.904  14.338
90790W        W54547  13.728  33.478   4.333
90791W        W54548  42.017  14.297   4.837
90792W        W54549  40.977   6.765   1.893
90793W        W54550  18.194   5.372  14.803
90794W        W54551  34.074  42.937   0.345
90795W        W54552   1.315  11.768   2.234
90796W        W54553  31.085  25.982   4.750
90797W        W54554  42.974  31.577   4.134
90798W        W54555  17.114   5.288  14.889
90799W        W54556  26.133  42.308  10.952
90800W        W54557  23.132  26.568   5.290
90801W        W54558  32.959   8.164  11.524
90802W        W54559  34.033  13.350   2.691
90803W        W54560   4.894  39.410  14.946
90804W        W54561  32.139  38.502  10.123
90805W        W54562  22.151  19.113  10.413
90806W        W54563  38.945  21.555   1.371
90807W        W54564   2.296  25.079  12.865
90808W        W54565  26.166  33.573   3.731
90809W        W54566  19.120  38.400  12.919
90810W        W54567  10.860  36.436  12.479
90811W        W54568   0.846  33.899  10.422
90812W        W54569  33.885  38.547   3.790
90813W        W54570  25.094   5.328   1.771
90814W        W54571  24.138  34.006   4.831
90815W        W54572   6.798  38.491   2.277
90816W        W54573  17.705  32.542  10.641
90817W        W54574  36.489  38.001  11.531
90818W        W54575  40.545   3.459   4.606
90819W        W54576  30.140  14.685   5.301
90820W        W54577  26.022  14.766  13.852
90821W        W54578   7.209  31.552   0.285
90822W        W54579   8.900   4.879  12.005
90823W        W54580  40.836   7.410   3.261
90824W        W54581  35.581  16.264   2.669
90825W        W54582  39.817  35.062   1.432
90826W        W54583  25.644   3.894  14.502
90827W        W54584  12.291  44.962   0.295
90828W        W54585  17.099  35.378   2.858
90829W        W54586  20.743  33.416   0.410
90830W        W54587  36.025  35.889  14.449
90831W        W54588   8.275   3.774   0.276
90832W        W54589   0.301  22.532  10.423
90833W        W54590  41.890  17.306   3.836
90834W        W54591   8.791   9.716  12.089
90835W        W54592  19.146  22.610   2.268
90836W        W54593   0.813   2.892   0.861
90837W        W54594  37.512  30.064  10.951
90838W        W54595  23.726  22.519   0.823
90839W        W54596  37.032  42.941  11.465
90840W        W54597  25.636   3.229  12.898
90841W        W54598  31.533  37.005  13.312
90842W        W54599  35.518  25.190   2.744
90843W        W54600  25.051  33.423  11.388
90844W        W54601  29.621   5.382   4.314
90845W        W54602   5.293  17.559  14.787
90846W        W54603  27.643  20.558  11.906
90847W        W54604   9.883  39.468  12.926
90848W        W54605  16.283  39.470  14.017
90849W        W54606  12.248  31.504  11.972
90850W        W54607  22.615  13.763   3.679
90851W        W54608  41.401   4.317  11.449
90852W        W54609   6.304  31.426   0.349
90853W        W54610  28.660  27.174  14.847
90854W        W54611  29.577  29.435   4.293
90855W        W54612  12.324  36.472   0.871
90856W        W54613  34.118  34.096   2.369
90857W        W54614  44.454  14.645   1.379
90858W        W54615  41.913  44.355  11.939
90859W        W54616  36.403   3.363  11.046
90860W        W54617   0.954  11.128  12.474
90861W        W54618  19.147  13.804   2.349
90862W        W54619  14.759   2.438   4.346
90863W        W54620  21.514  23.135  14.448
90864W        W54621  35.901  44.370  13.423
90865W        W54622  13.315  12.326  14.454
90866W        W54623  17.750  18.578   3.748
90867W        W54624  40.972  16.756   4.676
90868W        W54625  26.647   4.796   5.222
90869W        W54626  22.660  25.566   0.729
90870W        W54627  42.785  42.468  11.856
90871W        W54628   3.293  16.570   1.860
90872W        W54629  26.607  28.574   0.461
90873W        W54630  11.217  34.900   3.235
90874W        W54631   7.327  26.469   2.844
90875W        W54632  42.503  10.796  10.602
90876W        W54633  11.222  31.024  11.926
90877W        W54634  15.731  37.503   4.691
90878W        W54635  30.051  16.617  13.058
90879W        W54636  12.239   6.256   3.631
90880W        W54637   2.896  43.342   4.131
90881W        W54638  30.422  20.234   0.443
90882W        W54639  25.168   9.246  14.814
90883W        W54640  18.604  44.425   2.354
90884W        W54641  44.439   1.369   3.372
90885W        W54642  14.292  19.190   3.163
90886W        W54643  26.535   1.411   3.171
90887W        W54644  13.207   3.951  12.069
90888W        W54645  33.104  43.953  14.429
90889W        W54646  10.702   1.737  14.900
90890W        W54647  33.043   6.803  12.522
90891W        W54648  40.983  11.235   4.181
90892W        W54649  34.917  22.200   2.193
90893W        W54650  29.111  26.629   4.350
90894W        W54651  36.088  13.815   1.919
90895W        W54652  22.590  40.999   4.834
90896W        W54653  24.502   9.653   1.867
90897W        W54654  34.522  12.132   0.894
90898W        W54655  30.457  28.954  10.924
90899W        W54656  20.156   7.270  10.581
90900W        W54657  39.475   8.356  12.079
90901W        W54658   9.684  25.632   3.731
90902W        W54659  26.596  39.950   3.750
90903W        W54660  31.913  39.460   1.819
90904W        W54661   7.259  36.355  12.992
90905W        W54662  10.871  22.698  13.962
90906W        W54663  38.991  44.761  12.956
90907W        W54664   3.932  18.786   2.372
90908W        W54665  27.996  27.626   1.718
90909W        W54666   6.280  28.151  14.904
90910W        W54667  16.654  44.345   1.765
90911W        W54668   3.391  35.914  10.491
90912W        W54669  25.581  34.047   0.951
90913W        W54670  31.916  13.773  11.378
90914W        W54671   0.750  12.142   4.247
90915W        W54672  24.687  25.016   5.260
90916W        W54673  36.381  11.246  14.297
90917W        W54674  31.116   7.785  14.396
90918W        W54675  24.578   6.269  14.482
90919W        W54676  13.649   5.688   3.198
90920W        W54677  22.648  15.172   2.859
90921W        W54678  29.154  26.629   0.808
90922W        W54679  17.267   0.254   5.688
90923W        W54680  41.801   5.871  13.467
90924W        W54681  16.074  41.823  11.055
90925W        W54682  23.619  22.998   3.854
90926W        W54683  37.395  18.736   1.792
90927W        W54684  30.116  13.644   0.792
90928W        W54685  22.093  17.166  10.532
90929W        W54686  29.627  22.234  14.406
90930W        W54687  35.102  20.680  14.296
90931W        W54688  39.973  25.169   3.268
90932W        W54689   6.806  32.571   3.769
90933W        W54690  31.611  18.182   4.287
90934W        W54691  32.123  22.099  12.343
90935W        W54692  20.184  31.980   0.448
90936W        W54693  12.352  32.941  12.059
90937W        W54694  43.297   6.690   0.920
90938W        W54695  28.619  32.448  11.597
90939W        W54696   3.793  17.691   2.698
90940W        W54697  14.094  24.710  12.883
90941W        W54698   2.236  15.303  12.560
90942W        W54699  29.966  44.293   3.196
90943W        W54700  19.743  42.307   4.806
90944W        W54701  30.560  30.129   1.346
90945W        W54702   7.674  26.657  14.807
90946W        W54703   2.374  33.082  13.364
90947W        W54704  43.844  44.981   3.798
90948W        W54705   8.795  33.887   0.262
90949W        W54706  27.685  32.970  13.969
90950W        W54707   9.873  42.910  10.109
90951W        W54708  40.814   9.165  14.780
90952W        W54709  21.560   2.427   4.698
90953W        W54710  30.991   9.166  13.864
90954W        W54711  33.602  43.826  10.119
90955W        W54712  16.132  27.543   2.185
90956W        W54713  43.351  13.293   4.829
90957W        W54714  20.273   7.853   2.827
90958W        W54715  13.621   4.799   1.308
90959W        W54716  40.050  34.107  12.060
90960W        W54717  29.564  25.197  13.452
90961W        W54718   6.365  27.120   0.300
90962W        W54719  28.021  20.719  11.083
90963W        W54720  23.187   3.759   0.358
90964W        W54721  33.617   3.294   3.724
90965W        W54722  25.553  42.283   2.850
90966W        W54723  33.415  32.943  13.901
90967W        W54724  44.333  38.570  14.471
90968W        W54725  39.946  34.395   3.267
90969W        W54726  16.594   1.375   1.443
90970W        W54727  13.768  17.280   2.899
90971W        W54728   2.954   6.284  12.522
90972W        W54729  15.233  36.393   3.151
90973W        W54730  27.060  32.627   1.399
90974W        W54731   7.734   8.713  10.980
90975W        W54732  34.507   5.203   9.497
90976W        W54733  44.788  19.710  13.463
90977W        W54734   8.299  25.648  14.027
90978W        W54735  30.611  19.603  10.502
90979W        W54736   0.928  20.640   0.957
90980W        W54737  11.302  27.053   4.284
90981W        W54738   2.950  44.467   3.240
90982W        W54739  39.322   8.771  14.322
90983W        W54740   0.814  13.261  13.890
90984W        W54741  39.420  36.064  11.042
90985W        W54742   8.825  44.294   2.803
90986W        W54743  32.042  17.161   2.351
90987W        W54744   5.825  43.350  12.010
90988W        W54745   9.834  37.439   1.885
90989W        W54746  44.363  14.314  10.985
90990W        W54747  22.534  13.343   1.416
90991W        W54748   7.733  19.765   3.796
90992W        W54749  29.941  13.220  12.504
90993W        W54750  40.383  23.044   1.322
90994W        W54751   6.388   8.845   1.261
90995W        W54752  39.504  38.880  12.904
90996W        W54753  20.621  29.168  14.489
90997W        W54754   9.835  30.515   2.317
90998W        W54755  23.704   3.899  12.495
90999W        W54756   0.841  38.451   1.289
91000W        W54757  32.918  33.124  13.920
91001W        W54758  39.426  37.391  14.021
91002W        W54759  35.861  19.049  13.839
91003W        W54760  33.933  23.728   2.787
91004W        W54761  27.123  20.056   3.348
91005W        W54762  43.502  32.926   2.350
91006W        W54763  19.730  27.060  11.029
91007W        W54764  20.633  38.400  10.556
91008W        W54765  24.713  16.299  13.460
91009W        W54766  13.264  29.625  10.988
91010W        W54767  43.514  30.001  10.463
91011W        W54768  42.015   9.751   4.148
91012W        W54769  39.059  33.993   4.652
91013W        W54770   5.420  44.009  12.023
91014W        W54771  18.706  18.193   2.310
91015W        W54772   2.809  23.648   1.856
91016W        W54773  29.005  23.102  12.909
91017W        W54774  11.184  23.680   2.737
91018W        W54775  18.220  27.523  10.503
91019W        W54776   1.875   7.887   0.911
91020W        W54777  20.593  38.957  12.007
91021W        W54778  41.832  43.881   2.739
91022W        W54779  31.046  29.967   4.147
91023W        W54780  13.773   1.935  14.023
91024W        W54781   2.853  15.217   0.798
91025W        W54782   7.282  10.340   0.448
91026W        W54783  38.061  36.097  10.453
91027W        W54784   2.251   0.923   1.222
91028W        W54785  33.493  39.046  12.019
91029W        W54786  30.030   1.736  10.448
91030W        W54787  20.608  10.724   4.326
91031W        W54788  33.387  11.309   1.392
91032W        W54789  14.649  22.014   0.335
91033W        W54790   2.843  13.812   0.817
91034W        W54791  41.461  17.061   0.452
91035W        W54792  23.217  40.437   3.331
91036W        W54793  23.220   9.742   4.751
91037W        W54794  34.922  13.241   5.129
91038W        W54795   0.280  13.230  12.834
91039W        W54796  24.218  31.409   2.256
91040W        W54797   5.253  25.661   1.364
91041W        W54798  18.189  26.630  11.073
91042W        W54799   3.260  36.456  13.534
91043W        W54800   2.747  27.172   4.653
91044W        W54801  34.487  23.721  12.062
91045W        W54802  34.496  28.081  13.536
91046W        W54803  12.229  29.432   4.290
91047W        W54804  27.690   7.795   3.158
91048W        W54805  20.553  16.189  13.477
91049W        W54806  39.968  43.847   3.351
91050W        W54807  14.340  22.595   3.839
91051W        W54808  31.407  20.761  12.528
91052W        W54809   7.337  13.675   1.930
91053W        W54810  12.825   5.200   4.754
91054W        W54811  43.921  41.410   4.252
91055W        W54812  41.895  43.413  13.429
91056W        W54813  33.392  21.208   0.373
91057W        W54814  18.711   9.239  14.886
91058W        W54815  29.109  12.853   2.891
91059W        W54816   4.771  25.656   5.132
91060W        W54817  29.045  23.546   5.300
91061W        W54818  29.141  10.687   2.823
91062W        W54819  25.159  17.745   1.817
91063W        W54820  21.196  10.310  12.465
91064W        W54821  25.620  36.471   2.232
91065W        W54822   0.967  28.514  13.468
91066W        W54823  14.214  12.746   0.831
91067W        W54824  40.442  44.312  14.303
91068W        W54825  28.139  25.128   1.874
91069W        W54826  39.928   5.361  12.484
91070W        W54827   7.321  27.046  12.343
91071W        W54828  29.660  23.097  11.410
91072W        W54829  37.057  16.218   1.738
91073W        W54830  12.820  12.349   3.801
91074W        W54831  28.529  26.490   3.722
91075W        W54832   2.839  15.141   4.808
91076W        W54833  43.827  31.605  11.451
91077W        W54834   4.425  13.157  14.405
91078W        W54835  21.628  24.546   2.200
91079W        W54836  32.937  31.446  14.939
91080W        W54837  28.007  11.169  13.804
91081W        W54838  34.494  33.887   3.349
91082W        W54839   3.922   4.267  10.462
91083W        W54840  26.164  17.103   1.369
91084W        W54841  31.463  23.103   0.253
91085W        W54842   9.299  35.519  14.310
91086W        W54843  25.696   7.852  10.958
91087W        W54844   6.201  10.354  10.487
91088W        W54845  18.228  31.554   2.246
91089W        W54846  18.287  29.505   2.679
91090W        W54847   9.729  37.392   3.239
91091W        W54848   2.740  43.476  11.410
91092W        W54849  24.118  23.111   5.570
91093W        W54850  26.673  44.922  12.825
91094W        W54851  35.539  12.241  10.553
91095W        W54852  44.838  12.784   2.300
91096W        W54853  21.573  30.548  13.037
91097W        W54854  41.507   6.833   0.863
91098W        W54855  16.704   4.835  14.970
91099W        W54856  32.025  23.635  12.899
91100W        W54857  41.504  31.642   0.421
91101W        W54858  21.709  33.061   1.289
91102W        W54859  37.918   0.366   5.233
91103W        W54860  34.961  10.737   2.663
91104W        W54861   1.374   7.910  12.493
91105W        W54862  25.637  16.211   0.335
91106W        W54863  42.487  15.579   1.221
91107W        W54864  18.719  26.042  11.902
91108W        W54865  19.651  33.431   4.215
91109W        W54866  15.745  35.397   2.745
91110W        W54867  28.576  29.980  10.488
91111W        W54868  39.492  35.099  10.144
91112W        W54869   3.274  33.963   1.777
91113W        W54870  11.220  21.190  14.855
91114W        W54871   6.260  20.651  13.014
91115W        W54872  37.457   5.421   3.674
91116W        W54873  23.577  22.666   1.413
91117W        W54874   6.425  36.523   1.438
91118W        W54875  41.023   6.392  11.439
91119W        W54876  44.480   5.712  12.955
91120W        W54877  14.683  15.694   3.261
91121W        W54878  29.550  14.253   4.628
91122W        W54879  35.899  42.781   0.808
91123W        W54880  26.488  38.023   3.670
91124W        W54881  29.921  38.929  13.380
91125W        W54882  12.129  27.691  13.524
91126W        W54883   5.844  23.024  13.426
91127W        W54884   5.390  28.587  12.539
91128W        W54885  40.955  18.728  14.405
91129W        W54886  22.213  27.964   1.729
91130W        W54887  32.138  38.005  10.482
91131W        W54888  12.213  15.634   4.221
91132W        W54889  41.401  32.397   2.208
91133W        W54890  16.255   3.276   4.225
91134W        W54891  34.045   6.843  10.576
91135W        W54892   7.382   2.887   2.378
91136W        W54893  19.557  29.479  11.445
91137W        W54894   7.406   3.895   1.923
91138W        W54895   2.803  22.630   3.694
91139W        W54896  37.048  25.566   1.277
91140W        W54897  36.360   5.909  13.493
91141W        W54898  22.049  19.780   1.751
91142W        W54899  44.339  44.969  13.043
91143W        W54900  35.932  37.521  13.467
91144W        W54901  24.999  18.647  12.082
91145W        W54902   1.482  29.479   3.168
91146W        W54903  16.084  13.135  13.835
91147W        W54904  10.840  14.595  14.024
91148W        W54905  13.677  17.632   1.917
91149W        W54906  13.164  23.988   2.818
91150W        W54907  36.949  27.646  10.513
91151W        W54908  10.706  12.670  11.568
91152W        W54909  29.623  30.457  14.282
91153W        W54910  29.640  44.784   3.867
91154W        W54911  24.142   4.434  11.902
91155W        W54912  12.318  41.499   3.363
91156W        W54913   3.830  43.873   0.358
91157W        W54914  35.873  18.790  14.949
91158W        W54915   7.850  13.191   4.317
91159W        W54916  21.042  32.062  11.068
91160W        W54917  12.633  25.666   3.642
91161W        W54918   0.447  26.177   2.852
91162W        W54919  30.122  28.599   4.179
91163W        W54920  10.368   5.286  10.893
91164W        W54921   6.294  27.989  10.121
91165W        W54922  18.629  44.437   9.951
91166W        W54923   5.914   7.727   0.781
91167W        W54924  32.939  43.500  10.615
91168W        W54925  14.595  38.343  12.900
91169W        W54926  31.911  26.656   3.168
91170W        W54927  38.048  13.107  14.514
91171W        W54928  12.845  41.853   0.404
91172W        W54929  37.951   5.411  13.352
91173W        W54930  10.171  12.332   1.314
91174W        W54931  16.672  19.281   0.904
91175W        W54932  12.335  24.218   3.839
91176W        W54933  44.330   8.392   4.235
91177W        W54934  25.551   3.348   2.851
91178W        W54935   6.405  30.995  14.943
91179W        W54936  10.636   3.751   3.754
91180W        W54937  18.260  12.241  12.545
91181W        W54938  19.189   9.306   3.719
91182W        W54939  27.674  27.003  10.994
91183W        W54940  36.997  36.542   0.464
91184W        W54941  42.871  43.841  11.043
91185W        W54942   2.330  44.809  13.376
91186W        W54943   9.194  39.388  12.550
91187W        W54944  26.003  28.628   4.230
91188W        W54945  38.550  19.179  11.079
91189W        W54946  22.502  42.852   2.838
91190W        W54947   7.177  27.986   2.284
91191W        W54948   9.305  22.622   0.460
91192W        W54949  30.553   1.742   4.615
91193W        W54950  40.545  28.059   1.238
91194W        W54951  14.327  36.083  11.043
91195W        W54952  11.127  28.606  11.989
91196W        W54953   2.415  39.482  14.011
91197W        W54954  20.132  10.813  11.449
91198W        W54955  28.642  16.232  11.876
91199W        W54956  21.742  32.052   4.162
91200W        W54957  44.765  12.198   1.894
91201W        W54958  28.142   1.381   2.353
91202W        W54959  32.123  26.692   3.685
91203W        W54960  27.161  13.813  13.941
91204W        W54961  17.301  11.700   2.188
91205W        W54962   4.423  10.164  13.491
91206W        W54963  35.418  23.074   3.651
91207W        W54964  26.693  26.018   3.639
91208W        W54965  44.809  42.324   4.214
91209W        W54966  23.543  17.247   2.191
91210W        W54967  22.671  27.194  13.458
91211W        W54968  35.917  23.526   0.295
91212W        W54969  15.743  12.177   0.414
91213W        W54970  41.909  21.618   2.740
91214W        W54971  39.361   9.288   4.629
91215W        W54972  14.783  12.142  13.906
91216W        W54973  38.530  12.856  10.907
91217W        W54974  43.993  26.960  11.509
91218W        W54975  42.410  38.447   0.365
91219W        W54976  13.728  19.561  12.444
91220W        W54977   4.887  19.268  13.317
91221W        W54978   5.915   2.835  14.944
91222W        W54979   9.369  20.710  11.531
91223W        W54980  36.577  27.532  10.631
91224W        W54981  30.969  29.029  12.359
91225W        W54982  42.298   2.232   3.827
91226W        W54983  22.637  35.892  12.533
91227W        W54984  18.202  17.689   4.170
91228W        W54985  37.343   7.250   0.379
91229W        W54986  32.403   9.820   2.718
91230W        W54987   0.371  24.136   1.928
91231W        W54988  17.754  24.615   1.723
91232W        W54989  16.694  28.525  10.559
91233W        W54990   9.668  19.108  11.077
91234W        W54991  17.566  11.143  12.467
91235W        W54992  10.825  33.084  13.527
91236W        W54993  38.395  14.642  10.512
91237W        W54994  39.964  17.713  12.392
91238W        W54995  25.109  37.510  12.000
91239W        W54996   5.753  22.529   3.185
91240W        W54997   1.421  39.374  12.552
91241W        W54998  13.646  33.991  12.969
91242W        W54999  22.677   0.416  10.958
91243W        W55000   9.388  29.002   1.270
91244W        W55001  10.231  39.844  11.600
91245W        W55002   4.210  34.094   3.745
91246W        W55003  25.963  15.685  14.899
91247W        W55004  15.621  32.959   2.824
91248W        W55005  15.279  31.027  10.602
91249W        W55006  20.252  13.683   0.444
91250W        W55007   5.224   1.786  12.549
91251W        W55008  39.502  19.752  13.052
91252W        W55009  15.703  23.591   3.653
91253W        W55010   2.921  15.277  13.457
91254W        W55011  37.573  21.589  12.509
91255W        W55012  43.370   5.320   0.395
91256W        W55013  34.579  18.247  12.061
91257W        W55014   2.879  27.962  14.436
91258W        W55015  23.176  13.688   0.403
91259W        W55016  39.351  29.170   2.863
91260W        W55017  11.761  40.338   3.217
91261W        W55018  24.678  33.943   1.441
91262W        W55019  32.989   4.741  14.792
91263W        W55020   4.743  19.175  12.464
91264W        W55021  32.887  35.049   3.331
91265W        W55022   2.379  42.281   2.693
91266W        W55023  15.643   5.247  12.051
91267W        W55024  12.721   2.401  12.447
91268W        W55025   8.859  15.793   2.204
91269W        W55026  10.635  27.533   4.645
91270W        W55027   9.733  39.865   1.796
91271W        W55028  17.788  15.235  14.837
91272W        W55029  35.869  38.001  13.038
91273W        W55030  24.578   6.721   3.806
91274W        W55031  40.918   0.405   1.449
91275W        W55032  34.958   8.312   3.151
91276W        W55033  38.499   7.880   3.813
91277W        W55034  40.495  16.226   1.295
91278W        W55035  36.538  22.559  12.096
91279W        W55036  41.402  43.984  12.826
91280W        W55037  28.122   6.216   4.203
91281W        W55038  10.763  22.119   3.645
91282W        W55039   5.282  40.324   3.349
91283W        W55040   9.740   2.335  14.904
91284W        W55041  26.974  39.982   5.316
91285W        W55042  36.055  17.121  12.420
91286W        W55043  41.366  20.645   2.284
91287W        W55044   3.853  43.910  10.467
91288W        W55045  41.384  13.648  12.939
91289W        W55046   1.753  16.073  12.393
91290W        W55047  10.753  37.868   2.345
91291W        W55048  29.587  32.527  14.326
91292W        W55049  32.072  33.562  11.557
91293W        W55050  42.964  37.001   2.862
91294W        W55051  10.337  41.944  10.566
91295W        W55052  29.600   5.341  13.928
91296W        W55053  32.526   0.941   4.333
91297W        W55054  34.438  10.852   2.828
91298W        W55055  38.872  22.547  12.849
91299W        W55056  25.546   1.905   1.778
91300W        W55057  28.150  17.628  13.825
91301W        W55058  20.546  35.983  11.048
91302W        W55059  31.979  31.025   1.289
91303W        W55060  13.838  20.539  14.896
91304W        W55061   1.252   2.272   3.863
91305W        W55062  38.477  33.082   0.771
91306W        W55063  30.002   7.178   0.906
91307W        W55064  38.411  35.477  10.998
91308W        W55065   3.789  14.732   1.784
91309W        W55066   6.224   2.731  13.998
91310W        W55067  35.107  24.199   4.599
91311W        W55068  24.711  11.649  14.909
91312W        W55069  21.598  39.899   2.255
91313W        W55070  33.032  43.472   2.343
91314W        W55071  25.692  14.198  12.468
91315W        W55072  23.545  40.833  13.800
91316W        W55073   6.707  36.931   0.296
91317W        W55074  39.338  17.729   2.843
91318W        W55075   2.253  10.765   1.792
91319W        W55076  41.510   2.795   3.714
91320W        W55077  24.665   3.748   4.250
91321W        W55078  21.682   9.693   4.641
91322W        W55079   1.898  43.967  11.067
91323W        W55080   9.743  34.533   0.747
91324W        W55081  18.256  23.734   4.268
91325W        W55082  26.498  40.938  14.998
91326W        W55083   9.250   4.366   2.402
91327W        W55084  33.121  35.856  12.036
91328W        W55085  14.320  36.368  12.356
91329W        W55086  32.091  15.811   4.838
91330W        W55087  34.984  22.711   0.741
91331W        W55088  33.595  27.139  10.894
91332W        W55089  22.695   0.281   0.410
91333W        W55090   2.360  39.859   3.311
91334W        W55091  28.027   1.458   2.847
91335W        W55092   5.210  21.726   2.375
91336W        W55093  35.596   7.780  11.401
91337W        W55094   9.269   6.265  12.053
91338W        W55095  22.047  19.055  12.879
91339W        W55096  12.248  27.686   3.151
91340W        W55097  28.574  28.473   0.858
91341W        W55098  19.679  13.228   2.839
91342W        W55099  33.551  12.282  12.042
91343W        W55100   9.208   3.217   4.796
91344W        W55101  30.064  17.114   4.681
91345W        W55102   5.921  16.594  11.127
91346W        W55103  33.564  27.662   9.998
91347W        W55104  43.955  37.378  12.414
91348W        W55105  37.492  11.842  13.518
91349W        W55106   5.238  34.869  11.564
91350W        W55107  42.411  20.194   0.294
91351W        W55108  33.912  30.599  12.462
91352W        W55109  36.993  36.555   1.424
91353W        W55110   2.736  37.552  11.580
91354W        W55111  19.236  12.337   4.648
91355W        W55112  14.186  30.094  14.915
91356W        W55113  30.436   7.874   0.924
91357W        W55114  14.643  18.190   2.214
91358W        W55115  34.996  30.431   2.884
91359W        W55116  32.022  20.568  14.430
91360W        W55117   9.316  39.314  14.407
91361W        W55118  26.542   2.811  13.798
91362W        W55119   6.281  19.110  12.049
91363W        W55120   2.241   8.358  13.880
91364W        W55121   6.370  19.696   4.708
91365W        W55122   1.246  35.496  12.374
91366W        W55123  32.910  25.981  10.472
91367W        W55124   4.270  15.730   1.431
91368W        W55125  30.595  25.162   0.243
91369W        W55126   2.796  37.483  12.348
91370W        W55127  41.873  36.925   0.419
91371W        W55128  31.932  12.121  14.329
91372W        W55129  31.131  20.555   1.342
91373W        W55130  23.570  35.072   2.408
91374W        W55131  10.679  18.068   0.958
91375W        W55132   1.732  21.755   4.745
91376W        W55133  30.622  28.164   3.172
91377W        W55134  44.768  15.752   0.752
91378W        W55135  14.147  27.675  12.496
91379W        W55136   0.790   2.464   3.729
91380W        W55137   2.960  30.007   0.351
91381W        W55138   8.885  12.818  13.328
91382W        W55139  12.684   4.409   3.843
91383W        W55140  28.581  28.033  13.322
91384W        W55141  17.165   1.359  10.456
91385W        W55142  11.218  32.519  11.597
91386W        W55143  36.856  29.616   4.226
91387W        W55144  10.316  16.178  12.921
91388W        W55145  36.505  16.083   2.775
91389W        W55146  28.084  35.432   0.264
91390W        W55147  12.716  41.515  13.873
91391W        W55148   8.775  15.327  13.812
91392W        W55149   2.791  28.970  11.941
91393W        W55150  35.076  30.007  11.071
91394W        W55151   9.265  17.773   2.842
91395W        W55152  28.555  27.156   0.477
91396W        W55153  21.616  26.048  14.465
91397W        W55154  33.097  24.080  14.774
91398W        W55155  40.449  21.131  14.307
91399W        W55156   5.358  31.053   2.407
91400W        W55157   8.368   1.414   3.246
91401W        W55158   1.783  11.156  11.409
91402W        W55159  16.161  14.173  13.030
91403W        W55160  36.902  11.230   4.827
91404W        W55161  43.841  24.527   1.870
91405W        W55162  28.678  24.053  12.339
91406W        W55163  35.388   9.355  14.941
91407W        W55164  38.931  22.509  11.498
91408W        W55165  18.085  43.841  13.328
91409W        W55166   2.284   1.948   5.177
91410W        W55167  42.986  12.178  12.855
91411W        W55168  43.021  15.218  14.029
91412W        W55169  27.166  24.631  12.936
91413W        W55170   2.830  15.085   3.668
91414W        W55171  16.308   6.796  13.919
91415W        W55172  17.791  44.869  13.495
91416W        W55173  33.574  44.274   5.193
91417W        W55174  41.937  23.514   0.386
91418W        W55175  37.336   9.763  14.866
91419W        W55176   5.207  34.996  10.953
91420W        W55177   0.396  30.536  12.539
91421W        W55178   2.311  32.118   1.831
91422W        W55179  13.258  11.350   1.821
91423W        W55180   7.204  27.047   2.301
91424W        W55181  22.627  38.935   4.709
91425W        W55182  34.087  13.163   4.649
91426W        W55183   0.764  39.530   3.860
91427W        W55184   1.938  11.245  14.282
91428W        W55185  36.496  33.543   0.243
91429W        W55186  19.078  13.267   9.488
91430W        W55187  44.825  23.064   1.213
91431W        W55188   0.323   0.449  11.965
91432W        W55189  41.331   4.799  11.495
91433W        W55190   9.206  31.040  14.810
91434W        W55191  25.132  38.535   0.438
91435W        W55192  40.488   1.966  10.153
91436W        W55193  33.571  31.011   5.157
91437W        W55194   2.360  34.484   2.221
91438W        W55195  33.014   8.322  12.016
91439W        W55196  39.499  28.639   0.820
91440W        W55197  40.040  29.929   3.216
91441W        W55198   0.343  11.803   4.232
91442W        W55199  23.206  17.269  14.886
91443W        W55200  10.277  34.090  11.855
91444W        W55201  15.672  11.773   4.650
91445W        W55202  19.207  24.587   3.810
91446W        W55203  42.293  11.728  11.084
91447W        W55204   4.748  19.543  13.917
91448W        W55205  25.145  41.531   1.846
91449W        W55206  21.719  28.443  10.526
91450W        W55207  10.321  27.496  10.524
91451W        W55208  44.845  24.552   0.449
91452W        W55209  29.607  27.092  13.357
91453W        W55210  35.602  21.522   0.814
91454W        W55211  32.903  13.167  11.125
91455W        W55212  37.385  13.133  10.537
91456W        W55213   1.775  29.973   1.787
91457W        W55214   3.956  22.744  12.961
91458W        W55215  21.538  37.458   3.360
91459W        W55216   0.972   4.363   4.715
91460W        W55217  18.290  38.392  14.929
91461W        W55218   9.757  19.588  12.463
91462W        W55219  32.084   0.371   1.849
91463W        W55220   7.203  42.383  13.864
91464W        W55221   5.323  35.894   3.197
91465W        W55222  26.146   2.871   3.856
91466W        W55223  38.832  38.871   0.475
91467W        W55224   4.309   3.937   2.380
91468W        W55225  23.671  18.152   2.867
91469W        W55226  32.916   9.339  12.885
91470W        W55227  10.323   4.753   0.394
91471W        W55228  14.304   3.919  11.087
91472W        W55229  22.061  23.680  12.987
91473W        W55230  32.885  42.355   2.259
91474W        W55231   1.332  26.578  12.405
91475W        W55232  18.199  43.917  12.543
91476W        W55233  34.561   4.795  14.009
91477W        W55234   2.804  40.958  12.940
91478W        W55235  28.056  32.599  14.862
91479W        W55236  24.028   4.705   3.191
91480W        W55237  30.967  13.663  12.414
91481W        W55238  26.017   7.798  12.506
91482W        W55239  11.852  41.430  10.928
91483W        W55240   1.311  16.095  13.438
91484W        W55241  28.489   4.839  12.885
91485W        W55242   2.248  43.464  10.568
91486W        W55243  38.394  38.406   2.888
91487W        W55244   0.354  14.219   3.265
91488W        W55245  20.528   9.267  14.939
91489W        W55246  40.037  31.974  12.438
91490W        W55247  21.676  12.821   3.651
91491W        W55248   2.775  24.136  14.514
91492W        W55249  14.193   1.474   0.480
91493W        W55250   4.876   7.784   3.719
91494W        W55251   1.931  10.634   4.151
91495W        W55252  17.684  37.968  14.389
91496W        W55253  19.540   7.257   3.302
91497W        W55254  36.846  17.610   2.259
91498W        W55255  25.498  28.074  12.388
91499W        W55256  14.191  16.665   0.293
91500W        W55257  26.028   3.312  14.352
91501W        W55258  26.679   4.728   0.898
91502W        W55259  14.738   3.807  13.957
91503W        W55260   1.869   5.862  12.848
91504W        W55261   6.802  35.055   0.294
91505W        W55262  20.541  24.574   1.216
91506W        W55263  15.821  13.822   0.270
91507W        W55264  15.727  44.763   3.665
91508W        W55265  44.777  41.322   2.201
91509W        W55266  44.293   4.340   2.724
91510W        W55267  20.647  29.548   4.160
91511W        W55268  43.921  42.918  10.964
91512W        W55269  27.046  33.981  12.981
91513W        W55270  26.465  25.108  10.451
91514W        W55271   0.281  36.997  10.614
91515W        W55272  43.272  20.640  10.635
91516W        W55273  33.944  25.600   3.683
91517W        W55274  37.567  30.577   3.769
91518W        W55275   6.791  24.002   0.958
91519W        W55276   6.768  18.056   0.752
91520W        W55277   6.242  43.008  13.939
91521W        W55278  11.243  32.440   2.839
91522W        W55279  11.277   1.403  12.458
91523W        W55280   3.228  26.616   4.234
91524W        W55281  12.145  30.604   4.184
91525W        W55282  16.268  16.176  14.920
91526W        W55283  13.655   8.320   3.852
91527W        W55284  41.424   3.739   5.152
91528W        W55285  36.924  17.134  10.592
91529W        W55286  25.159  17.304   2.671
91530W        W55287  13.734  38.841  10.432
91531W        W55288   8.767  14.835   5.697
91532W        W55289  25.499  17.162   2.673
91533W        W55290  40.934   7.261   3.803
91534W        W55291   5.886  20.067  11.990
91535W        W55292  13.834  18.239  13.907
91536W        W55293  21.542  33.387  14.281
91537W        W55294  26.698  32.608  12.024
91538W        W55295  23.066  17.145   4.664
91539W        W55296  30.567  25.118   1.910
91540W        W55297  33.521   0.378  14.815
91541W        W55298   7.226  15.103  12.489
91542W        W55299  12.633  17.185   3.367
91543W        W55300  10.178   4.356  10.500
91544W        W55301   5.361  40.826   0.341
91545W        W55302  21.705  35.869   5.171
91546W        W55303   3.711  32.438  12.444
91547W        W55304   1.305  36.077  12.359
91548W        W55305  15.646  27.633  14.406
91549W        W55306  27.083  22.041   0.358
91550W        W55307   0.282  10.674   4.710
91551W        W55308   7.876  21.042  10.559
91552W        W55309  27.578  16.696  13.912
91553W        W55310   2.880  10.270  10.406
91554W        W55311  11.658   7.295   0.960
91555W        W55312  22.098  17.205  13.000
91556W        W55313   2.412  36.021   3.653
91557W        W55314  25.083  15.325   0.330
91558W        W55315  10.711  13.176  12.377
91559W        W55316  26.141   9.767   2.750
91560W        W55317  31.027   6.221  12.437
91561W        W55318  15.663  43.929   2.891
91562W        W55319  13.131  19.095  11.050
91563W        W55320  19.211  32.618  12.407
91564W        W55321  17.240  34.959   0.329
91565W        W55322  33.453  43.817   2.675
91566W        W55323  22.731  16.310   4.303
91567W        W55324  29.136  35.091   3.302
91568W        W55325  12.258  28.442   0.292
91569W        W55326  15.809  22.613  14.349
91570W        W55327  12.709  17.271   2.796
91571W        W55328  13.664  18.113  14.887
91572W        W55329  44.291  40.798   3.241
91573W        W55330  11.631  29.940   3.844
91574W        W55331  19.718  32.952  14.820
91575W        W55332  40.472  32.629  10.573
91576W        W55333  32.402  21.239  12.924
91577W        W55334  26.116  12.668   3.830
91578W        W55335  44.808   1.810  11.427
91579W        W55336  39.010   0.319  10.601
91580W        W55337   5.874   6.323   1.341
91581W        W55338  19.157  44.904  11.429
91582W        W55339  11.825  12.618   5.141
91583W        W55340  44.003   5.822   4.822
91584W        W55341   7.184  11.324   1.357
91585W        W55342   8.230  14.282   3.835
91586W        W55343   1.793  20.642  13.435
91587W        W55344  36.028   4.913   5.255
91588W        W55345  34.529  21.176   3.634
91589W        W55346  18.553  30.512  11.388
91590W        W55347  37.994   7.818  14.998
91591W        W55348  20.757   1.964   4.822
91592W        W55349  28.008  25.481  11.888
91593W        W55350  22.625  44.278  10.454
91594W        W55351  25.589   6.219   3.690
91595W        W55352  29.087  14.202   3.856
91596W        W55353   5.350  24.695   3.382
91597W        W55354  10.827   9.678   2.364
91598W        W55355  29.559  37.920   0.294
91599W        W55356   1.251  21.236   2.407
91600W        W55357   5.223  20.130   0.425
91601W        W55358   8.714  14.200   1.429
91602W        W55359  21.630  31.572  13.394
91603W        W55360  42.327  15.179  11.508
91604W        W55361   6.677  41.006   1.869
91605W        W55362  17.227  37.057   4.759
91606W        W55363  22.030  22.109  12.357
91607W        W55364  27.547  37.039  12.047
91608W        W55365  27.176  42.429   3.219
91609W        W55366  33.497  15.661   1.719
91610W        W55367  40.420  20.630   1.331
91611W        W55368  43.411  21.223   4.810
91612W        W55369  36.384  11.171  11.940
91613W        W55370   2.868   2.751   1.754
91614W        W55371   2.396  25.483   1.342
91615W        W55372  29.485  30.605  13.935
91616W        W55373  43.966  23.620   3.772
91617W        W55374  32.422   7.288  10.591
91618W        W55375  29.451  29.438  14.989
91619W        W55376  42.932  22.601   2.785
91620W        W55377  13.185  43.457  11.931
91621W        W55378  18.689  15.594   0.411
91622W        W55379  33.598  26.597  14.809
91623W        W55380  30.600   6.719   1.287
91624W        W55381   8.707  34.050  11.396
91625W        W55382   1.881  35.873   4.248
91626W        W55383  16.090  29.650  12.040
91627W        W55384  42.876  40.328   2.321
91628W        W55385  29.106  32.442  14.465
91629W        W55386  40.938   3.331   9.560
91630W        W55387   4.441  21.747  12.572
91631W        W55388   5.858  17.302  10.454
91632W        W55389  38.439  10.366  11.008
91633W        W55390  13.342   0.753   4.334
91634W        W55391  38.358   6.304  11.059
91635W        W55392  13.809  39.440   1.805
91636W        W55393  37.511  26.471  11.381
91637W        W55394  29.012  34.597   0.739
91638W        W55395  11.658  26.084   4.205
91639W        W55396  26.975  21.556   1.262
91640W        W55397  44.986  44.826   4.251
91641W        W55398  25.008  24.561   4.781
91642W        W55399   8.254  42.498  14.503
91643W        W55400  43.878  21.576   0.251
91644W        W55401  34.076   8.808  13.409
91645W        W55402  36.465  15.613   3.310
91646W        W55403  15.620  36.060  14.446
91647W        W55404  26.069  36.359   0.737
91648W        W55405  38.428  35.938  14.000
91649W        W55406  35.511   9.227   4.753
91650W        W55407  16.668  41.865  11.403
91651W        W55408  19.115  27.089  13.011
91652W        W55409  41.815  21.699   2.391
91653W        W55410  29.497   7.247  12.042
91654W        W55411  23.046  35.946  12.941
91655W        W55412  24.698  17.630  13.372
91656W        W55413  22.519  26.533   4.210
91657W        W55414  24.551   4.417   1.219
91658W        W55415  21.719   0.954   0.385
91659W        W55416   0.297   4.402  14.911
91660W        W55417  38.555  36.456  11.122
91661W        W55418  34.402  26.168   4.223
91662W        W55419  13.315  19.106   4.803
91663W        W55420  24.483  31.645   3.779
91664W        W55421   8.225  39.550   1.285
91665W        W55422  42.294  29.985  14.369
91666W        W55423  26.580   7.358   3.195
91667W        W55424  24.030  30.623  11.507
91668W        W55425  21.262  40.364   2.879
91669W        W55426  40.943  29.026  11.927
91670W        W55427  15.771  22.563  14.015
91671W        W55428  26.004  16.649  12.942
91672W        W55429  37.570  42.483  13.354
91673W        W55430  18.195  29.975   3.679
91674W        W55431  28.560  34.086  10.433
91675W        W55432  43.375   8.748   0.351
91676W        W55433  25.001  34.501  14.963
91677W        W55434  43.982  38.363   0.311
91678W        W55435   9.811  26.195  13.350
91679W        W55436   2.841  18.631   4.693
91680W        W55437  15.814  25.626   4.810
91681W        W55438  35.423   4.736  12.943
91682W        W55439  32.054   0.436   3.204
91683W        W55440  13.668   8.314   1.837
91684W        W55441  21.518  37.482  14.315
91685W        W55442  44.275  23.553   3.702
91686W        W55443  35.513  36.929   3.675
91687W        W55444  30.501   0.300  12.057
91688W        W55445  37.521  30.655  13.823
91689W        W55446  14.161  15.616  14.278
91690W        W55447  12.352  42.484  11.990
91691W        W55448  32.405  28.935   4.702
91692W        W55449  34.936  21.064  14.021
91693W        W55450  12.218  21.512   1.749
91694W        W55451  40.931  40.969   1.747
91695W        W55452  34.115   2.862   3.859
91696W        W55453  23.121  19.541   4.708
91697W        W55454   2.387   8.314  10.598
91698W        W55455  24.121  41.513   5.124
91699W        W55456  39.819   6.307   1.731
91700W        W55457   5.401  10.704  12.863
91701W        W55458  15.706   2.238  12.372
91702W        W55459  40.033  15.722   0.287
91703W        W55460   2.912  28.037   4.117
91704W        W55461  31.058  37.556   0.860
91705W        W55462   8.888  14.115  13.885
91706W        W55463  34.113  15.745   3.265
91707W        W55464  37.889  36.533  14.940
91708W        W55465  44.430  12.775  10.513
91709W        W55466  42.400   1.341   4.173
91710W        W55467  36.515  17.662  11.472
91711W        W55468   6.739  23.570   2.723
91712W        W55469   7.745  21.709  14.302
91713W        W55470  40.961  14.624  11.981
91714W        W55471  24.158   2.960   1.711
91715W        W55472   4.239  41.938   0.417
91716W        W55473  10.786  43.352  13.409
91717W        W55474  34.602  18.766   0.308
91718W        W55475  40.809  10.811   2.765
91719W        W55476   8.216  24.165  11.948
91720W        W55477  26.570  28.161  14.969
91721W        W55478  11.201  44.806  11.503
91722W        W55479  10.668  29.533   2.333
91723W        W55480  21.567  43.331   1.436
91724W        W55481  38.474  40.858  13.845
91725W        W55482  18.762  24.112   2.287
91726W        W55483  10.177  33.032   2.711
91727W        W55484  37.404  37.909   2.820
91728W        W55485   1.793   4.861  11.108
91729W        W55486  42.478  31.565   0.933
91730W        W55487  24.569   5.786  13.810
91731W        W55488  20.658  19.652  14.400
91732W        W55489   3.909  25.695  13.474
91733W        W55490  26.135   0.279  14.952
91734W        W55491  17.686   0.747   9.612
91735W        W55492   9.173   4.245  14.328
91736W        W55493  35.575  38.886  10.615
91737W        W55494   9.665  18.727   1.294
91738W        W55495   3.928  15.249  14.498
91739W        W55496  43.961   2.373  13.466
91740W        W55497  19.074  18.106   0.836
91741W        W55498  20.124  44.794  11.609
91742W        W55499  28.140   3.841  11.013
91743W        W55500  23.194  22.726   4.306
91744W        W55501  20.133   6.817  11.416
91745W        W55502  28.086  15.697   2.278
91746W        W55503  17.580  26.967   1.864
91747W        W55504  24.636  11.186  11.989
91748W        W55505  13.765   1.905  13.046
91749W        W55506  43.786  43.769  13.510
91750W        W55507   0.873  40.010  13.404
91751W        W55508   3.353   8.890  14.981
91752W        W55509  29.600  36.903   3.196
91753W        W55510  39.334  15.204  11.948
91754W        W55511  17.269  13.770   3.670
91755W        W55512  12.650  23.185  11.919
91756W        W55513  14.635  44.353   4.326
91757W        W55514  18.585  25.128  10.082
91758W        W55515  29.069  40.519   1.337
91759W        W55516  23.685   0.919   4.316
91760W        W55517  41.930  22.093   3.727
91761W        W55518   6.827  17.187   1.412
91762W        W55519  40.549  11.145   3.178
91763W        W55520  29.598  27.479  12.921
91764W        W55521   9.663  11.128   4.835
91765W        W55522  22.995  37.567  11.531
91766W        W55523  10.147  27.692  13.876
91767W        W55524  20.146  39.902  11.440
91768W        W55525   2.909  33.386  12.509
91769W        W55526  43.293  18.708   3.740
91770W        W55527   2.751  44.504  14.841
91771W        W55528   9.705  20.684  11.516
91772W        W55529   6.852  34.078  11.465
91773W        W55530   6.911   0.851   1.260
91774W        W55531  16.072  44.325   1.763
91775W        W55532  33.903  10.812  11.386
91776W        W55533  32.490   6.230   2.408
91777W        W55534  24.157   6.271   2.903
91778W        W55535  13.197  13.304   1.713
91779W        W55536  24.000  25.516  14.389
91780W        W55537  16.674  36.010   0.424
91781W        W55538  41.480   8.708   3.864
91782W        W55539  14.751  33.003   0.843
91783W        W55540   0.915   7.172   3.147
91784W        W55541  37.360  29.108   4.607
91785W        W55542  10.869  40.907   0.424
91786W        W55543  26.113  43.007   2.241
91787W        W55544   3.761  31.463   1.316
91788W        W55545  35.966   7.847  13.352
91789W        W55546   0.827  22.612   4.738
91790W        W55547  37.366  32.391   1.862
91791W        W55548  13.288   3.735  12.357
91792W        W55549  23.074  21.022  12.886
91793W        W55550   2.906   1.302  13.414
91794W        W55551  37.558  24.487  14.473
91795W        W55552  19.719   9.298  14.315
91796W        W55553  18.238   4.241  13.045
91797W        W55554  20.231  20.744   2.238
91798W        W55555  41.446  23.606  13.896
91799W        W55556   0.884   0.841  12.376
91800W        W55557  18.050   1.272   0.916
91801W        W55558  10.649   6.251   1.870
91802W        W55559  15.167  37.532   3.659
91803W        W55560   5.728  23.038   2.821
91804W        W55561  32.102   3.385  13.402
91805W        W55562  38.923   3.710   3.782
91806W        W55563  26.149   0.881  12.388
91807W        W55564   2.806  34.579   4.816
91808W        W55565   7.864  21.708   0.281
91809W        W55566  29.052  24.090   2.288
91810W        W55567  10.180  19.260  11.031
91811W        W55568  39.958  26.507  13.888
91812W        W55569  32.892   9.345   0.822
91813W        W55570  41.987  19.680  11.927
91814W        W55571  35.588  11.274  13.934
91815W        W55572  32.545  19.194   1.310
91816W        W55573  21.228  28.510   4.347
91817W        W55574  24.514   1.740  10.493
91818W        W55575  28.602  22.624   2.866
91819W        W55576   3.312   4.398  12.430
91820W        W55577   4.349  17.792  11.934
91821W        W55578  21.103   3.834  11.953
91822W        W55579   2.248  23.689   2.710
91823W        W55580  15.089  36.057  12.355
91824W        W55581  38.992  40.374  14.361
91825W        W55582   0.292   9.690   4.241
91826W        W55583  36.034  35.559   4.192
91827W        W55584  32.530   6.677   4.166
91828W        W55585  10.316  44.305   5.094
91829W        W55586   3.877  44.970   4.193
91830W        W55587  18.607  37.420  12.385
91831W        W55588  22.246  32.541   1.769
91832W        W55589   5.299  24.031   4.320
91833W        W55590  18.706   4.424  10.990
91834W        W55591   2.792  29.654   2.183
91835W        W55592  19.221   2.752   0.793
91836W        W55593  41.863  20.733   4.316
91837W        W55594  34.579   8.703  12.869
91838W        W55595   4.348  21.580   4.664
91839W        W55596  40.468  31.625   1.316
91840W        W55597  33.017  14.632  10.596
91841W        W55598  39.023  17.230   3.209
91842W        W55599  16.170  30.910  10.962
91843W        W55600  29.532  17.565   3.859
91844W        W55601  29.003   8.849  13.826
91845W        W55602  43.941  34.922  14.460
91846W        W55603   8.869  21.193   3.290
91847W        W55604  26.470  35.413   4.313
91848W        W55605  37.555   1.933   4.205
91849W        W55606  25.973  36.347  13.010
91850W        W55607   9.741  43.278  12.966
91851W        W55608  43.372  31.091  11.046
91852W        W55609  18.144  22.068   0.417
91853W        W55610   8.764  37.379  12.416
91854W        W55611  36.505  34.029  11.530
91855W        W55612  26.538   9.336  10.894
91856W        W55613  38.351  27.954   1.716
91857W        W55614  15.628  17.765   0.344
91858W        W55615  28.125  42.996   0.808
91859W        W55616  43.907  20.766   2.267
91860W        W55617   2.285  14.660  11.969
91861W        W55618  26.488  42.958   1.411
91862W        W55619  43.483  40.023   0.324
91863W        W55620  38.910  39.511  11.555
91864W        W55621   3.417  29.920   1.885
91865W        W55622  24.630  24.048   3.734
91866W        W55623  19.605   8.351   4.238
91867W        W55624  35.454   0.380   1.874
91868W        W55625  11.747  33.948   3.163
91869W        W55626  10.270  41.987  13.522
91870W        W55627  22.060  10.872  10.522
91871W        W55628  12.330   8.354   2.671
91872W        W55629  32.017  28.604  13.332
91873W        W55630  35.400  23.046  13.880
91874W        W55631   1.331   9.297  14.018
91875W        W55632   7.803  10.704  12.035
91876W        W55633  38.561  13.306  11.061
91877W        W55634  12.751   7.266  14.902
91878W        W55635  23.033  10.728   3.323
91879W        W55636  33.582  24.188  10.461
91880W        W55637  13.642  33.972  11.517
91881W        W55638  26.056  20.641   2.765
91882W        W55639  30.928   4.780  13.828
91883W        W55640  41.411  34.536   3.340
91884W        W55641  20.615   9.760  11.984
91885W        W55642  28.139  42.860   0.366
91886W        W55643  32.427  31.098  13.966
91887W        W55644  29.036  33.581  12.453
91888W        W55645   5.390  14.639   1.754
91889W        W55646  18.101  19.570   4.689
91890W        W55647  38.435   6.820  10.897
91891W        W55648  27.541  44.369   1.210
91892W        W55649  32.599   3.277  11.427
91893W        W55650  37.017  43.293   1.346
91894W        W55651  38.365  21.253  13.375
91895W        W55652  23.012   2.767   0.855
91896W        W55653  43.414  11.251  13.905
91897W        W55654   3.453  12.155   4.185
91898W        W55655  18.122  20.749   0.430
91899W        W55656  20.175  28.073  12.975
91900W        W55657  14.213  26.466  14.966
91901W        W55658  40.467  40.954  12.836
91902W        W55659   6.394  29.502  11.856
91903W        W55660  44.357  40.527   0.807
91904W        W55661   0.378   7.893   2.264
91905W        W55662  19.695   8.362   0.813
91906W        W55663  11.315  43.975   4.177
91907W        W55664  28.950   1.962   1.297
91908W        W55665   7.376  41.363   0.428
91909W        W55666  17.227  13.317  14.400
91910W        W55667  26.017   2.841  14.766
91911W        W55668  30.544  34.373  14.020
91912W        W55669  42.941   4.785   4.312
91913W        W55670  42.355  39.397   3.724
91914W        W55671  17.063   4.855   3.223
91915W        W55672  16.173  22.713   0.954
91916W        W55673  29.485  38.903  13.014
91917W        W55674  17.700   3.362   4.816
91918W        W55675  32.027  17.712  10.500
91919W        W55676  30.537  41.924  11.956
91920W        W55677  33.504  10.265   4.115
91921W        W55678  30.513  42.819  13.485
91922W        W55679  35.080  43.775   1.795
91923W        W55680  16.252  13.831  12.060
91924W        W55681   4.344  38.847  11.007
91925W        W55682  30.561  20.037   1.426
91926W        W55683  40.345  24.484   0.926
91927W        W55684  34.077  15.209   4.290
91928W        W55685  18.555   2.429   2.872
91929W        W55686  16.307   7.227  11.607
91930W        W55687  21.204  24.009  13.406
91931W        W55688  19.152   6.715  13.475
91932W        W55689  28.080  32.995  14.770
91933W        W55690  20.038  33.069   0.471
91934W        W55691   9.232  15.773  10.895
91935W        W55692   5.698  15.682   4.326
91936W        W55693  32.405  34.471  12.059
91937W        W55694   6.328  18.059   4.327
91938W        W55695   1.237  18.607  14.809
91939W        W55696   4.882   9.755  11.109
91940W        W55697  24.214   4.729  13.018
91941W        W55698  13.280  24.114   5.162
91942W        W55699  35.067  19.685  13.511
91943W        W55700  25.200  24.634  12.469
91944W        W55701  39.494  33.122   0.794
91945W        W55702   2.893  21.093   3.773
91946W        W55703  32.904   0.354  13.364
91947W        W55704  23.998  43.270  13.433
91948W        W55705  27.188  39.423   0.355
91949W        W55706  21.147  24.632  13.456
91950W        W55707  32.409  26.545  14.775
91951W        W55708  41.822  19.562   3.261
91952W        W55709  43.924  15.136  11.493
91953W        W55710   5.435  13.715   1.844
91954W        W55711  24.495  42.456   2.355
91955W        W55712   1.812  38.843   0.266
91956W        W55713  21.252  22.071  13.342
91957W        W55714  30.452   9.185   4.688
91958W        W55715   0.910   9.790   2.888
91959W        W55716  40.475  11.152  12.417
91960W        W55717  24.154  26.977   3.759
91961W        W55718  23.702  23.017   0.902
91962W        W55719  13.185  17.646   2.740
91963W        W55720   8.350  44.501  11.433
91964W        W55721   3.714  15.212   0.310
91965W        W55722  25.673   0.968  11.993
91966W        W55723   9.161  43.788  12.416
91967W        W55724   4.842  13.158  14.344
91968W        W55725   1.934   0.788  11.943
91969W        W55726  37.878  34.894   2.664
91970W        W55727  27.499  35.597   2.902
91971W        W55728  40.039  12.809  14.007
91972W        W55729  34.016  10.227   3.672
91973W        W55730   1.401   4.771  11.526
91974W        W55731  39.413  40.030  11.385
91975W        W55732  38.843  16.251   0.350
91976W        W55733   4.281   2.895  11.908
91977W        W55734  34.089   9.699   2.218
91978W        W55735  38.449  41.351  13.539
91979W        W55736  13.697  37.432   0.408
91980W        W55737   3.322  20.735   4.260
91981W        W55738  40.015   2.333   2.665
91982W        W55739  25.065  22.651  11.008
91983W        W55740  41.996  14.143  10.110
91984W        W55741  16.145   2.386   4.268
91985W        W55742   9.848  20.196   3.237
91986W        W55743  35.585   3.337   5.105
91987W        W55744  27.497  35.884  12.446
91988W        W55745  28.537   3.460  12.836
91989W        W55746   0.473  25.000   4.319
91990W        W55747  20.198  17.120   0.904
91991W        W55748   6.729  27.595  14.472
91992W        W55749  16.294  35.459   2.263
91993W        W55750  36.489  12.809  13.390
91994W        W55751  16.205  34.111   2.664
91995W        W55752  44.810  20.703   1.872
91996W        W55753  18.668  24.197  12.036
91997W        W55754   0.462  13.140   0.746
91998W        W55755  43.936  35.865  14.978
91999W        W55756  37.437  21.233   3.312
92000W        W55757   7.669  42.387   9.654
92001W        W55758   6.689  21.072   2.682
92002W        W55759   7.239   8.899   0.359
92003W        W55760  21.533  36.500  14.837
92004W        W55761  14.202   2.961  11.881
92005W        W55762   1.855  12.235   1.760
92006W        W55763   7.702   0.890   0.738
92007W        W55764  34.602  30.549   3.297
92008W        W55765  22.026   9.736   3.689
92009W        W55766   4.811   9.304   2.251
92010W        W55767  21.057  14.669   4.691
92011W        W55768  44.414  44.942  14.847
92012W        W55769  41.794  24.500  14.882
92013W        W55770  17.739  13.781   2.196
92014W        W55771  14.832  35.470   1.761
92015W        W55772  38.997  16.720  12.580
92016W        W55773  37.441   6.379   4.627
92017W        W55774  43.409  42.883   3.819
92018W        W55775   5.241  30.123   3.773
92019W        W55776  22.247   6.318   0.382
92020W        W55777  41.381  36.589   1.338
92021W        W55778  26.092  31.900  11.011
92022W        W55779   9.707   0.250  13.364
92023W        W55780  11.758  10.379  10.902
92024W        W55781  42.906  42.990  11.924
92025W        W55782  20.240  33.542   0.948
92026W        W55783  37.871  17.248   2.710
92027W        W55784   8.700  43.879  13.050
92028W        W55785   6.282  33.040   4.130
92029W        W55786  26.609  24.134   2.178
92030W        W55787  41.934  25.105   0.916
92031W        W55788   2.870  31.492  14.832
92032W        W55789  25.974  34.455   1.894
92033W        W55790  39.434  14.116  12.859
92034W        W55791  31.926  22.222   2.258
92035W        W55792  19.538  10.673  11.425
92036W        W55793  30.595  30.525   4.644
92037W        W55794  14.815  16.579   3.247
92038W        W55795  29.620  21.628  11.959
92039W        W55796   9.694  40.934  11.111
92040W        W55797  38.884  20.589  12.526
92041W        W55798   4.450  35.453   2.884
92042W        W55799  19.744  43.368   0.965
92043W        W55800  36.530  22.012   4.814
92044W        W55801  26.593  21.754  13.349
92045W        W55802   7.374  28.441  11.068
92046W        W55803  17.281  37.916  13.856
92047W        W55804  43.967  19.669   2.837
92048W        W55805   5.756  30.139   2.340
92049W        W55806  25.561  30.947   2.788
92050W        W55807  39.849  35.887   0.420
92051W        W55808  35.877  11.817  10.573
92052W        W55809  38.372  25.523  13.342
92053W        W55810  32.551   3.415  13.033
92054W        W55811  34.976   0.304   3.760
92055W        W55812   4.925  25.492   2.766
92056W        W55813   6.880  22.584  10.614
92057W        W55814   1.958  11.727  14.384
92058W        W55815  40.866  22.169   3.364
92059W        W55816  28.548   3.424   3.689
92060W        W55817   7.181   6.818  13.900
92061W        W55818  20.675  35.598  12.536
92062W        W55819   4.295  21.690   0.260
92063W        W55820  24.674   1.910   4.714
92064W        W55821  31.109  34.073  10.580
92065W        W55822  32.531   6.787  10.096
92066W        W55823  26.644   0.748   1.410
92067W        W55824   5.927  40.990  14.348
92068W        W55825   8.853  39.999   9.984
92069W        W55826  14.638  43.402  14.014
92070W        W55827  32.935  25.468  13.874
92071W        W55828   7.229  13.713   0.828
92072W        W55829  15.086  17.679   4.752
92073W        W55830  20.609   2.411  14.904
92074W        W55831  38.530  17.278   3.303
92075W        W55832   4.840  12.781  12.340
92076W        W55833  13.679  15.296  14.312
92077W        W55834  20.702  11.245  11.996
92078W        W55835   6.728   4.363   0.330
92079W        W55836  25.207   2.326   4.774
92080W        W55837  39.047  34.492  12.518
92081W        W55838  30.145   0.813  13.832
92082W        W55839  37.573  37.349  11.413
92083W        W55840  12.122  27.947   4.826
92084W        W55841  42.963  21.529   1.812
92085W        W55842   2.861  11.226  14.451
92086W        W55843  37.408  44.308   3.761
92087W        W55844  33.441   2.841  14.323
92088W        W55845  43.853  21.249  11.982
92089W        W55846  16.106  33.129  13.017
92090W        W55847  11.210   5.708  11.522
92091W        W55848  41.453  28.619  13.991
92092W        W55849  18.109  12.333  10.623
92093W        W55850   3.855   9.365   1.881
92094W        W55851  25.617  26.994  10.951
92095W        W55852   6.218  11.700   1.306
92096W        W55853  44.821  34.060   0.405
92097W        W55854  43.873   0.802   3.228
92098W        W55855  29.624  36.073  10.143
92099W        W55856  37.070   2.885   2.399
92100W        W55857  44.306   2.318  14.877
92101W        W55858   9.179  38.392   4.717
92102W        W55859  32.906  20.717  10.556
92103W        W55860  44.313  27.952   1.904
92104W        W55861  19.778   7.342  12.047
92105W        W55862  13.687   7.731  12.091
92106W        W55863  23.707  33.967   5.110
92107W        W55864  43.311  15.201  13.446
92108W        W55865   9.292   6.764   1.425
92109W        W55866  37.515  21.025   0.900
92110W        W55867   8.769  28.566   1.432
92111W        W55868   9.295  14.103  14.279
92112W        W55869  41.798  11.332  13.407
92113W        W55870  17.270  11.141   0.779
92114W        W55871  30.502  42.303   3.792
92115W        W55872  24.707  44.277  10.644
92116W        W55873  31.918   4.734   1.434
92117W        W55874  21.736  28.603  14.322
92118W        W55875  26.658  24.603   3.378
92119W        W55876  39.857  41.846   4.605
92120W        W55877  11.318   4.930   3.774
92121W        W55878  18.276   0.258  11.566
92122W        W55879  21.179  17.183  12.540
92123W        W55880  33.619   9.379  13.020
92124W        W55881  22.054  19.087   3.808
92125W        W55882  42.380   2.899   1.316
92126W        W55883  30.973   3.422  12.452
92127W        W55884  41.428  24.132   5.106
92128W        W55885  21.228  40.971  10.552
92129W        W55886  21.629  39.987  13.475
92130W        W55887  15.794   8.312   4.132
92131W        W55888  20.169  34.445   3.208
92132W        W55889  14.777  29.470  14.983
92133W        W55890   2.826  40.047   0.343
92134W        W55891  43.508   8.345   4.783
92135W        W55892  42.794  14.789  12.026
92136W        W55893  10.754  17.762  13.012
92137W        W55894  32.637  44.379   3.781
92138W        W55895  27.652  20.120   0.871
92139W        W55896  18.608  41.534  11.421
92140W        W55897   5.789   0.943  13.421
92141W        W55898  15.233  14.279   3.362
92142W        W55899  31.493  22.229   2.840
92143W        W55900  36.845   7.880   3.696
92144W        W55901   6.248  13.739  10.461
92145W        W55902  16.781   9.719  12.892
92146W        W55903   7.224  40.526  11.378
92147W        W55904  28.117   9.385  13.816
92148W        W55905   2.830  10.720  12.371
92149W        W55906   1.797  25.679   0.927
92150W        W55907  11.665  24.075   2.856
92151W        W55908  38.068  20.575  11.596
92152W        W55909  34.451   9.318  13.501
92153W        W55910   6.321  33.061   1.443
92154W        W55911  26.511  37.892   1.765
92155W        W55912  40.961  22.052  10.627
92156W        W55913   6.857   5.341   1.265
92157W        W55914   6.798   1.789  13.911
92158W        W55915   2.943  34.060  12.438
92159W        W55916  11.784   4.744  12.902
92160W        W55917  22.594  27.463   0.303
92161W        W55918  12.784  13.724   3.672
92162W        W55919  41.479   1.288  14.505
92163W        W55920  31.572  25.008   3.157
92164W        W55921   1.832  24.635   1.242
92165W        W55922  37.012   3.243  12.838
92166W        W55923  24.686  29.482  13.903
92167W        W55924   3.447  15.218   1.870
92168W        W55925  36.494  42.823  14.311
92169W        W55926  33.405  15.298  10.999
92170W        W55927  11.354  20.567   1.307
92171W        W55928  28.585  43.367  14.829
92172W        W55929  40.365  10.798  12.849
92173W        W55930  15.760  25.125  12.432
92174W        W55931  24.976  42.831   4.114
92175W        W55932  29.053  10.764   3.768
92176W        W55933  39.386  42.999   0.437
92177W        W55934  27.488  43.432  13.057
92178W        W55935   2.444  18.762  13.414
92179W        W55936  14.130  38.543  10.633
92180W        W55937  28.036  39.410   2.850
92181W        W55938  25.167  38.493   4.201
92182W        W55939  35.017  39.438  11.892
92183W        W55940  40.031  36.984   2.723
92184W        W55941  24.996  15.199   1.851
92185W        W55942  23.169  15.097  11.962
92186W        W55943   4.735   7.246   3.647
92187W        W55944  16.757  32.551   2.262
92188W        W55945  22.180   2.310  11.482
92189W        W55946  26.535  17.219  10.519
92190W        W55947  35.399   5.859  13.442
92191W        W55948  31.010  22.072   4.234
92192W        W55949  38.396  12.721  11.878
92193W        W55950  42.860  39.044   5.206
92194W        W55951   7.356  31.953  13.429
92195W        W55952  39.356  42.487   0.939
92196W        W55953  32.947   6.281   1.701
92197W        W55954  35.865  28.523  14.444
92198W        W55955  43.809  24.068  13.825
92199W        W55956  12.319  38.461  11.523
92200W        W55957  17.693  22.060   2.343
92201W        W55958  19.678  26.998  14.481
92202W        W55959  27.531  37.956  11.566
92203W        W55960   3.282  40.008   1.742
92204W        W55961  22.670   2.848  14.973
92205W        W55962  27.052  11.327  13.046
92206W        W55963  41.844  38.331   1.755
92207W        W55964  18.239  16.103   0.270
92208W        W55965  22.505  42.327   2.272
92209W        W55966  11.796  19.224   1.720
92210W        W55967  19.045  39.518  13.885
92211W        W55968  24.204  28.465   1.884
92212W        W55969  14.752  32.019  13.539
92213W        W55970   4.710  22.222  11.903
92214W        W55971  38.992  39.052   5.141
92215W        W55972  27.003   8.822   4.681
92216W        W55973  10.693  24.640  12.994
92217W        W55974  39.835  22.124  13.855
92218W        W55975  39.014  36.545   2.803
92219W        W55976  42.471  23.711  14.354
92220W        W55977  23.514  31.479  11.113
92221W        W55978  16.639  32.553   3.344
92222W        W55979  12.743  15.802   2.268
92223W        W55980  13.111   6.920   1.279
92224W        W55981  29.980  17.101   1.370
92225W        W55982  13.241  36.866  14.862
92226W        W55983   5.727  25.541   4.115
92227W        W55984  13.791  38.984  13.856
92228W        W55985   3.863  36.534  13.494
92229W        W55986  38.376  41.787   3.359
92230W        W55987  14.233  25.508   2.361
92231W        W55988  21.107  10.150   2.789
92232W        W55989  39.399  16.227   3.735
92233W        W55990  24.170  30.416  11.126
92234W        W55991  42.520   7.183  12.496
92235W        W55992  22.717  22.032   1.212
92236W        W55993  39.041   4.403  11.585
92237W        W55994   2.377  33.914  13.461
92238W        W55995  23.667  21.224   1.404
92239W        W55996   1.397  34.591   1.319
92240W        W55997  23.228  34.482  13.351
92241W        W55998  25.080  33.468   1.263
92242W        W55999  41.440  16.145   1.401
92243W        W56000  11.200   5.339  11.917
92244W        W56001  32.050  37.542  14.335
92245W        W56002  37.087  34.470   0.455
92246W        W56003  17.061  25.016   2.894
92247W        W56004   2.377  19.723   3.365
92248W        W56005  25.478  17.719   4.705
92249W        W56006  10.660  24.118   0.871
92250W        W56007  14.220  13.712  12.921
92251W        W56008  37.529  24.628  10.914
92252W        W56009  35.881   2.963  12.016
92253W        W56010   0.845  16.161   1.748
92254W        W56011   2.864   7.191  10.584
92255W        W56012  21.713  44.895   4.786
92256W        W56013  15.729  30.085   4.691
92257W        W56014  10.354  27.183  14.985
92258W        W56015  14.258  21.633   4.669
92259W        W56016   6.382  36.462  12.035
92260W        W56017   8.323   1.258   0.914
92261W        W56018   1.800   8.715  13.464
92262W        W56019  43.775  33.062   3.709
92263W        W56020  21.108  16.695   2.369
92264W        W56021  27.671  26.696  10.581
92265W        W56022   1.920  26.198   2.665
92266W        W56023  12.252  24.119  13.530
92267W        W56024  24.631  26.482   2.364
92268W        W56025  39.923  41.828   4.164
92269W        W56026   2.364   0.460   2.393
92270W        W56027  40.954  34.473  13.839
92271W        W56028   1.377  15.614   3.276
92272W        W56029  44.870   0.746   4.743
92273W        W56030  43.821  39.968  13.323
92274W        W56031  40.505   6.794   4.676
92275W        W56032   0.773  38.976  10.557
92276W        W56033  22.128  14.743   0.374
92277W        W56034   6.264  35.883  10.520
92278W        W56035  16.760  21.058   5.185
92279W        W56036  33.400  23.100  14.921
92280W        W56037   4.431  38.404  13.865
92281W        W56038  19.627  15.824   2.696
92282W        W56039  28.013  27.565  12.073
92283W        W56040  38.336   1.915  11.561
92284W        W56041  16.283  12.189  14.849
92285W        W56042  38.560  44.406   1.340
92286W        W56043  33.943  14.632  12.910
92287W        W56044   5.700   2.446  12.491
92288W        W56045  19.701  25.201   4.766
92289W        W56046  42.469  16.288  12.964
92290W        W56047  14.744   1.738  14.290
92291W        W56048  29.929  36.940   0.942
92292W        W56049  24.720  28.531   3.774
92293W        W56050  28.134  33.108  10.441
92294W        W56051  44.476  27.575   1.450
92295W        W56052  10.328   8.875  11.401
92296W        W56053  16.753   5.274   0.335
92297W        W56054  24.028  18.225   0.816
92298W        W56055   4.419  33.080  13.022
92299W        W56056  14.340  25.093   0.418
92300W        W56057  33.962  18.286  11.010
92301W        W56058  42.923  26.175   4.744
92302W        W56059   7.353  11.809  12.908
92303W        W56060  14.652  11.336  14.443
92304W        W56061  34.099   0.468  14.763
92305W        W56062  13.206  29.539   2.727
92306W        W56063  38.398  42.454   3.830
92307W        W56064   6.374  43.364  10.974
92308W        W56065   3.378  25.041  11.984
92309W        W56066  28.649   6.254   0.764
92310W        W56067  38.550  42.948   2.752
92311W        W56068   8.325   0.417  13.823
92312W        W56069   0.867   9.252   4.172
92313W        W56070  35.860  28.597  12.083
92314W        W56071   9.328  32.501   2.368
92315W        W56072  14.296   4.395   1.778
92316W        W56073  15.594  10.668   0.891
92317W        W56074  34.603   1.287  13.852
92318W        W56075   8.261  29.472  12.910
92319W        W56076  18.670  19.257   2.264
92320W        W56077  23.671   3.373   2.842
92321W        W56078  35.588  22.605  12.420
92322W        W56079  12.252  43.442  11.959
92323W        W56080  17.760  28.598   4.126
92324W        W56081  43.332  33.992   2.321
92325W        W56082   6.704  31.558  11.405
92326W        W56083  30.114   7.675  13.895
92327W        W56084  11.767  21.026   4.261
92328W        W56085  25.128  32.078   2.395
92329W        W56086  35.025  17.716   4.793
92330W        W56087  20.105  23.710  10.629
92331W        W56088  29.152  20.230   0.897
92332W        W56089  35.891  14.814   3.699
92333W        W56090  26.134  40.422   1.906
92334W        W56091  31.492   4.368   4.663
92335W        W56092   4.751  25.675  14.354
92336W        W56093  36.500  29.988   2.400
92337W        W56094  16.180  26.585   4.793
92338W        W56095  26.173  24.214  14.967
92339W        W56096  16.231  19.121  12.850
92340W        W56097  34.381  35.926   3.232
92341W        W56098  29.017  35.894   4.146
92342W        W56099  13.295  39.499  14.864
92343W        W56100  23.117  37.422   1.361
92344W        W56101  37.573   8.330  10.922
92345W        W56102  14.689  25.173   2.667
92346W        W56103  40.997  43.308  11.562
92347W        W56104  37.011   5.215   3.279
92348W        W56105  37.554  37.939  13.455
92349W        W56106   7.749   0.968   2.227
92350W        W56107  15.247  24.536  12.029
92351W        W56108   8.257  21.244   0.728
92352W        W56109  17.265  30.463  14.912
92353W        W56110   4.743  15.798   2.407
92354W        W56111  31.450  37.486   3.673
92355W        W56112  37.033  17.580  13.832
92356W        W56113  32.393  25.030   1.406
92357W        W56114  44.839  20.528   2.278
92358W        W56115  14.325  41.787   3.709
92359W        W56116  37.916  29.165  12.511
92360W        W56117  26.049   8.276   3.721
92361W        W56118  21.629  42.338  11.406
92362W        W56119   8.397   7.673   1.275
92363W        W56120  23.198  30.112   2.837
92364W        W56121  40.004  26.175   4.279
92365W        W56122  12.820   5.296  10.428
92366W        W56123  25.488  19.152  12.043
92367W        W56124   8.349  12.776   1.415
92368W        W56125   4.328  28.095   3.640
92369W        W56126   5.343  43.479  11.121
92370W        W56127  32.610  22.571  10.586
92371W        W56128  28.127  11.740  13.879
92372W        W56129   2.771  32.592   2.348
92373W        W56130   1.889  15.227  10.433
92374W        W56131  29.643  40.495  14.311
92375W        W56132  25.119   1.863   4.834
92376W        W56133  22.206   0.339  10.573
92377W        W56134  13.624  23.097  13.369
92378W        W56135   5.826  42.932   5.083
92379W        W56136  38.385  18.752   2.312
92380W        W56137  14.729  33.545  10.149
92381W        W56138  17.063  16.698  12.863
92382W        W56139  19.049   7.716  10.481
92383W        W56140  25.099  41.831   3.861
92384W        W56141  32.005  27.692   2.380
92385W        W56142  31.088  24.202   3.769
92386W        W56143  33.589   8.195   1.358
92387W        W56144  19.080  43.769   0.929
92388W        W56145  33.925  29.514   0.481
92389W        W56146  14.257  23.099   3.841
92390W        W56147   9.847   2.902  10.970
92391W        W56148   3.766  19.681   2.707
92392W        W56149  28.096  37.941   2.785
92393W        W56150   9.212  40.933   0.889
92394W        W56151   3.893  19.771   4.146
92395W        W56152  43.811  27.094   0.275
92396W        W56153  14.792  21.051   2.302
92397W        W56154  34.441   9.333   1.928
92398W        W56155  36.873   1.418  12.922
92399W        W56156  36.349  27.540   2.324
92400W        W56157  28.020  36.378   3.306
92401W        W56158  43.931  39.828   2.684
92402W        W56159  32.985   5.314  11.093
92403W        W56160   1.299  13.664  12.392
92404W        W56161   3.829   8.737   0.739
92405W        W56162  44.769  34.375   1.324
92406W        W56163  37.436  32.409   2.361
92407W        W56164  37.962   7.382  12.435
92408W        W56165  11.211  29.979   3.697
92409W        W56166  23.534  20.067  11.913
92410W        W56167  35.860  38.949   3.757
92411W        W56168  27.663  12.801  14.973
92412W        W56169  13.125   4.886   2.416
92413W        W56170  44.804   6.410   1.241
92414W        W56171  31.045  14.792  13.366
92415W        W56172  19.266  40.877  13.917
92416W        W56173   3.890  21.750  14.842
92417W        W56174  38.824  10.735   0.308
92418W        W56175  20.753   6.275   0.964
92419W        W56176  10.702  18.082   3.870
92420W        W56177  17.680  22.059  11.916
92421W        W56178  23.003  40.540  11.415
92422W        W56179   0.362   9.391  11.950
92423W        W56180  24.511  43.880  11.093
92424W        W56181   3.951  33.534  12.345
92425W        W56182  37.972   8.182  11.411
92426W        W56183   7.197  39.536   1.813
92427W        W56184  32.417  16.164   1.291
92428W        W56185   4.220  11.319  11.991
92429W        W56186  13.204  31.973   0.402
92430W        W56187   9.343  12.164  14.015
92431W        W56188  31.623  44.766  11.526
92432W        W56189  18.547  23.094   2.207
92433W        W56190  14.645   2.846   9.966
92434W        W56191  13.748  29.062   2.333
92435W        W56192  13.828  36.955  13.310
92436W        W56193  25.114  38.399  14.908
92437W        W56194  24.673   0.786  14.031
92438W        W56195  39.010  24.677  11.060
92439W        W56196  36.549  27.128  13.819
92440W        W56197  38.446  39.497   2.785
92441W        W56198  28.948  29.021  10.418
92442W        W56199  32.627  22.162   0.795
92443W        W56200   7.406  35.552   4.838
92444W        W56201  40.325   3.261   5.242
92445W        W56202  43.777  21.675  12.406
92446W        W56203  26.563  34.543   4.129
92447W        W56204  21.198  32.973  13.328
92448W        W56205  40.879  24.187  13.930
92449W        W56206   7.859  18.297  13.408
92450W        W56207  24.515  22.133   3.250
92451W        W56208  33.094  24.568   3.377
92452W        W56209  42.392  30.015   1.855
92453W        W56210  34.612  43.921  10.889
92454W        W56211  14.191  16.640  13.860
92455W        W56212  44.328   8.769  12.458
92456W        W56213  26.503  21.572  11.525
92457W        W56214  32.968  10.383  13.367
92458W        W56215  34.916  19.123  14.413
92459W        W56216  28.995  41.365  11.387
92460W        W56217  28.168  26.124  10.515
92461W        W56218  22.645  14.729   1.370
92462W        W56219  30.439   6.844   1.833
92463W        W56220   7.781  43.341   0.785
92464W        W56221  33.013  40.900   3.682
92465W        W56222  26.127  13.218  14.403
92466W        W56223  15.627   8.793   0.887
92467W        W56224  42.826  38.910  10.948
92468W        W56225  42.480  15.589   3.227
92469W        W56226   9.854  42.855  14.876
92470W        W56227   9.355  17.194   0.400
92471W        W56228   4.780  24.633  12.478
92472W        W56229   3.348   6.296   0.264
92473W        W56230  15.622   1.239  14.422
92474W        W56231  28.457   5.348   3.837
92475W        W56232  23.681  13.599   0.353
92476W        W56233  37.967  16.746   3.841
92477W        W56234  11.137  14.814  10.515
92478W        W56235   5.899  12.353   4.669
92479W        W56236  34.468   8.175   3.212
92480W        W56237  12.126  21.177   3.771
92481W        W56238  37.949  41.038   1.402
92482W        W56239  23.044   9.716  12.048
92483W        W56240   8.193  35.874   1.778
92484W        W56241  38.449  24.185  14.782
92485W        W56242   9.229  10.796   2.367
92486W        W56243  12.301  22.048  11.406
92487W        W56244   7.322  20.158   2.361
92488W        W56245  29.640  43.401  12.830
92489W        W56246   7.174  16.686  11.935
92490W        W56247  20.193  17.670   0.933
92491W        W56248  37.903  30.117  10.983
92492W        W56249  13.741  35.368   4.616
92493W        W56250  28.162  33.105   1.356
92494W        W56251  20.610  14.162   9.620
92495W        W56252  33.935  34.000   0.306
92496W        W56253  28.677  25.699   0.243
92497W        W56254   7.344  19.697   3.173
92498W        W56255  42.951  16.186  10.444
92499W        W56256  29.448  40.847  11.119
92500W        W56257   8.878   0.879   0.480
92501W        W56258  30.649   0.872   3.712
92502W        W56259  18.751  23.157   1.709
92503W        W56260  28.084  38.504  12.957
92504W        W56261  32.451  38.415  10.427
92505W        W56262  20.093  35.925  10.499
92506W        W56263  37.876  33.582   2.336
92507W        W56264  30.066  11.713   3.782
92508W        W56265  20.700  42.800   0.793
92509W        W56266  28.552   5.374  12.408
92510W        W56267  30.920  12.251  12.557
92511W        W56268  41.815  18.162   3.154
92512W        W56269  34.877  17.638   1.791
92513W        W56270  11.641  27.038   2.762
92514W        W56271  37.922   2.347   2.226
92515W        W56272  40.354  22.569  14.880
92516W        W56273  23.707  41.426  11.930
92517W        W56274  40.013  21.669  10.910
92518W        W56275  12.640  33.898   0.413
92519W        W56276  25.685  12.673   2.687
92520W        W56277  12.824   7.800  13.380
92521W        W56278  25.632  19.717  10.535
92522W        W56279  28.470   7.171  13.055
92523W        W56280  13.118  43.310  13.839
92524W        W56281  11.812  31.140   2.678
92525W        W56282  23.554   2.269   0.918
92526W        W56283   9.785   1.315  11.573
92527W        W56284  13.230  43.916   3.345
92528W        W56285  17.071  36.353  11.997
92529W        W56286  25.621  16.650   2.328
92530W        W56287  32.034  31.143  14.484
92531W        W56288  21.581  40.385   0.893
92532W        W56289   2.733  16.257  12.001
92533W        W56290  25.663  15.713   0.873
92534W        W56291   0.417  24.608   2.390
92535W        W56292  19.241  24.724   1.880
92536W        W56293  15.693   0.787   0.452
92537W        W56294  12.333  20.159  14.846
92538W        W56295  25.606  14.284   3.774
92539W        W56296  33.478  10.845   3.755
92540W        W56297   2.357  43.299  12.049
92541W        W56298  28.007  16.145   3.233
92542W        W56299  43.941  28.986  10.582
92543W        W56300  28.596  12.254   2.730
92544W        W56301  11.708  17.658  10.966
92545W        W56302   6.747  33.550   0.752
92546W        W56303   0.947  13.757  11.392
92547W        W56304  33.388   8.368   2.361
92548W        W56305   0.864  31.978   1.380
92549W        W56306  23.687  14.604   1.732
92550W        W56307  26.059  44.837  12.980
92551W        W56308  24.103  36.589   4.335
92552W        W56309  33.411  16.136  13.492
92553W        W56310  44.427  22.142   4.341
92554W        W56311  15.133  31.603  12.479
92555W        W56312  25.055  43.896   3.762
92556W        W56313  22.032  10.140  12.452
92557W        W56314   8.307   5.913  14.391
92558W        W56315  29.027  39.359   1.889
92559W        W56316   0.327  43.443   4.604
92560W        W56317  43.406  28.502  11.518
92561W        W56318   3.314  30.629  13.531
92562W        W56319   6.333   8.830   2.340
92563W        W56320  32.020  38.822   1.776
92564W        W56321  44.280   1.822   1.821
92565W        W56322  41.814  43.836  10.423
92566W        W56323  42.928  24.122  13.035
92567W        W56324   8.727  19.120   4.256
92568W        W56325  27.094   9.741   2.220
92569W        W56326  38.959  11.714  10.889
92570W        W56327   7.379  11.254   2.336
92571W        W56328  23.713  26.135   2.778
92572W        W56329  44.890  17.213  11.046
92573W        W56330   9.712  18.779  14.465
92574W        W56331  13.751  27.140   2.307
92575W        W56332  40.053  31.938  12.954
92576W        W56333  18.681   0.291  13.425
92577W        W56334  39.475  19.636   4.270
92578W        W56335  35.410   4.341   1.424
92579W        W56336   7.373   6.836  12.466
92580W        W56337   2.792  42.811   4.257
92581W        W56338   0.266   1.347  11.503
92582W        W56339  36.357   5.910  10.978
92583W        W56340  17.625  14.703  13.820
92584W        W56341   0.837  16.112  13.393
92585W        W56342  31.097  36.355  11.027
92586W        W56343  18.563  10.878   3.706
92587W        W56344   6.854  21.150  13.455
92588W        W56345   1.237   4.449   4.135
92589W        W56346  12.828  14.168  14.499
92590W        W56347  40.970   8.671   1.229
92591W        W56348  44.282  10.742  11.080
92592W        W56349  15.276  44.757   0.473
92593W        W56350  15.127  26.099   0.419
92594W        W56351   5.843   5.264   1.909
92595W        W56352  40.375  23.490   3.645
92596W        W56353  23.607  32.397  10.976
92597W        W56354  33.926  22.622  12.414
92598W        W56355  16.183  41.305   4.329
92599W        W56356  33.406  13.839   2.404
92600W        W56357   8.322   2.443   3.296
92601W        W56358  33.006   8.388  14.490
92602W        W56359  15.168  38.412   3.376
92603W        W56360  10.334   5.726  13.434
92604W        W56361  19.072   2.256   2.382
92605W        W56362   6.836  12.761   1.428
92606W        W56363  24.076  40.957  11.967
92607W        W56364   7.271  10.734   0.824
92608W        W56365  10.829  11.725  10.499
92609W        W56366  18.202  36.528   4.805
92610W        W56367  13.715  36.553  14.474
92611W        W56368  34.487  39.925   3.673
92612W        W56369  35.029  24.167   0.343
92613W        W56370  40.032  14.712   2.900
92614W        W56371  35.951  24.027   2.674
92615W        W56372  38.868  12.223   4.706
92616W        W56373  33.025  11.269   2.219
92617W        W56374  24.638   3.333  13.389
92618W        W56375  17.724  42.928  11.402
92619W        W56376  43.915  29.658   4.620
92620W        W56377  30.554   1.938  13.971
92621W        W56378  24.699  20.194   3.634
92622W        W56379   5.433  20.083  11.474
92623W        W56380  43.928  15.700  13.850
92624W        W56381  41.991  26.080   0.892
92625W        W56382  36.912  31.494   2.222
92626W        W56383  11.255  28.474  13.410
92627W        W56384  18.711  35.060  10.602
92628W        W56385   2.273  14.332  11.060
92629W        W56386   8.727  20.153   9.453
92630W        W56387   5.314  11.683   2.780
92631W        W56388   8.833   7.742   0.964
92632W        W56389  40.466  33.431  10.403
92633W        W56390  30.594   6.356  13.861
92634W        W56391   7.278  35.509   1.277
92635W        W56392  21.595  20.701   0.347
92636W        W56393  30.432   7.285  14.788
92637W        W56394  18.727  35.565   1.748
92638W        W56395  23.089  30.561  14.761
92639W        W56396  18.257   4.362  14.357
92640W        W56397  44.906  22.576   1.707
92641W        W56398   2.957  13.762  14.380
92642W        W56399   7.283  37.055   4.226
92643W        W56400  32.491   4.326  11.589
92644W        W56401  13.791  10.769  12.383
92645W        W56402  34.379  13.713   2.726
92646W        W56403  25.485  17.607   0.764
92647W        W56404  24.977  10.207  14.025
92648W        W56405   1.896  43.981  14.413
92649W        W56406  21.662  35.598  13.976
92650W        W56407  35.068  34.034   1.379
92651W        W56408   3.778  17.192  14.843
92652W        W56409   5.932  37.491   3.218
92653W        W56410  42.427  10.146  10.933
92654W        W56411  38.343  17.275   4.821
92655W        W56412  13.606   9.250   0.399
92656W        W56413   1.927  27.520   2.375
92657W        W56414  14.271  13.138   2.855
92658W        W56415  37.491  21.060   4.655
92659W        W56416  44.369   5.200   3.161
92660W        W56417  10.632  35.085   1.787
92661W        W56418  32.442   5.278  10.030
92662W        W56419  19.630  25.039   1.721
92663W        W56420  29.031  30.051   0.307
92664W        W56421   6.678  37.907  14.011
92665W        W56422  10.163  21.053   0.332
92666W        W56423  13.139  38.378  12.907
92667W        W56424  17.301  16.739  10.924
92668W        W56425  21.641   2.864  10.598
92669W        W56426   6.182  17.657  10.476
92670W        W56427  39.497  17.062   2.671
92671W        W56428  36.587  36.926  12.350
92672W        W56429   3.866  22.102  10.436
92673W        W56430  42.362  22.069  11.025
92674W        W56431  27.031  22.152  10.149
92675W        W56432   7.907  19.571   2.394
92676W        W56433  36.976  11.306   0.288
92677W        W56434  17.277  35.571  13.984
92678W        W56435   6.228  17.138  10.917
92679W        W56436   7.361  27.943   0.787
92680W        W56437  19.084  15.739  11.400
92681W        W56438  14.191  18.287   4.346
92682W        W56439  11.263   0.340   1.452
92683W        W56440  36.492  42.344   3.346
92684W        W56441  21.126  13.822  12.373
92685W        W56442  14.786   5.742  12.914
92686W        W56443  37.504  11.727   0.805
92687W        W56444  39.342   1.399   1.877
92688W        W56445  19.550   2.351  10.599
92689W        W56446  37.003   0.909   3.775
92690W        W56447  33.098   4.409  11.436
92691W        W56448  40.850   2.923  13.881
92692W        W56449  20.618  21.528  10.937
92693W        W56450   7.391  14.605  14.424
92694W        W56451   8.288  24.554   2.327
92695W        W56452   1.438  40.808   3.795
92696W        W56453  42.321  17.572  12.366
92697W        W56454  38.956  39.061  14.865
92698W        W56455  12.283  25.012   3.292
92699W        W56456  43.772  43.364   2.868
92700W        W56457  33.402  44.821   0.778
92701W        W56458  36.933   0.963   3.155
92702W        W56459   8.660   0.893  14.926
92703W        W56460  25.983   7.790   1.732
92704W        W56461  38.891  29.952   4.344
92705W        W56462  37.023  18.143   4.144
92706W        W56463  37.472  39.466  13.517
92707W        W56464  39.480  11.704  13.350
92708W        W56465   1.418  24.597   1.381
92709W        W56466  19.612   4.324  13.480
92710W        W56467   0.907   6.809   2.305
92711W        W56468  12.668  32.544   2.748
92712W        W56469   2.269   2.295  11.011
92713W        W56470   5.423   0.798   9.928
92714W        W56471   8.375  30.502  10.423
92715W        W56472  17.205  43.271  12.406
92716W        W56473  32.104  15.317  11.550
92717W        W56474  19.718  27.589   2.664
92718W        W56475  39.900  33.918   0.410
92719W        W56476  14.306   2.752  14.968
92720W        W56477  27.074   5.785  12.454
92721W        W56478  37.913  21.146   0.963
92722W        W56479   3.448  39.471  13.014
92723W        W56480  39.463  12.220  13.820
92724W        W56481   1.341  22.136   2.853
92725W        W56482  36.590  38.511  11.026
92726W        W56483   5.745   4.308  11.593
92727W        W56484  18.253  10.163   3.656
92728W        W56485   0.358  42.444   3.651
92729W        W56486   7.394   3.353   4.243
92730W        W56487  38.474  20.759  10.965
92731W        W56488  39.332   6.227   0.790
92732W        W56489   9.786  19.107   1.899
92733W        W56490  24.974  13.652   2.179
92734W        W56491  43.818  21.699   3.160
92735W        W56492  31.405  23.546  11.968
92736W        W56493  35.857  27.483   1.407
92737W        W56494  40.851   9.875  14.454
92738W        W56495  11.621  16.151  14.774
92739W        W56496   6.698   4.365   4.708
92740W        W56497  42.985  33.464  11.444
92741W        W56498  25.075   4.307  14.427
92742W        W56499   8.251  18.274   2.279
92743W        W56500  17.798  25.136   1.394
92744W        W56501  41.339  43.004  12.363
92745W        W56502  30.508  41.529  11.936
92746W        W56503   8.336  37.046   4.311
92747W        W56504  23.111  32.910   5.178
92748W        W56505  22.085   0.951  14.850
92749W        W56506  20.263  15.231   4.712
92750W        W56507   7.843  30.997   3.647
92751W        W56508  15.786  14.275   4.324
92752W        W56509   0.905  36.578  12.552
92753W        W56510  27.683  20.149   4.660
92754W        W56511  24.190   1.340  11.121
92755W        W56512  30.610  14.772  14.317
92756W        W56513  21.165   9.880   0.301
92757W        W56514   8.800  42.001  12.480
92758W        W56515  38.375   3.833  11.564
92759W        W56516   4.262  42.877   1.257
92760W        W56517  20.172   7.804  14.894
92761W        W56518  12.286   5.284   2.299
92762W        W56519  15.217  14.322  14.929
92763W        W56520  38.923  26.645   3.359
92764W        W56521  22.072  29.517   2.884
92765W        W56522  10.164  33.533  11.972
92766W        W56523  36.855  33.122  14.995
92767W        W56524  12.133  14.802   2.210
92768W        W56525  15.201  24.118  11.486
92769W        W56526  18.726  12.743   3.229
92770W        W56527   3.911  27.521   3.673
92771W        W56528  39.429  28.475  10.525
92772W        W56529  12.184   0.744  13.870
92773W        W56530  19.143  16.166  14.283
92774W        W56531   3.276  36.958   0.436
92775W        W56532  38.561  10.383   2.676
92776W        W56533   4.264  37.841   2.665
92777W        W56534  17.717  44.282   3.777
92778W        W56535  26.461   4.936  10.478
92779W        W56536  38.871  39.346  10.927
92780W        W56537  18.736  30.501  10.915
92781W        W56538  33.995  19.564   4.609
92782W        W56539  24.089   0.479   4.708
92783W        W56540   9.718  39.017   0.416
92784W        W56541  13.190  36.937   4.599
92785W        W56542  17.732  43.396  13.910
92786W        W56543   4.231  23.001  12.040
92787W        W56544  40.023  20.035   0.438
92788W        W56545  29.495  34.078  13.894
92789W        W56546  43.843  32.575  14.873
92790W        W56547  24.207  14.817  14.458
92791W        W56548  24.093  12.324   0.732
92792W        W56549   4.244  26.510   4.722
92793W        W56550  27.458  15.089   3.751
92794W        W56551  18.068   4.828  13.958
92795W        W56552  44.991  19.271   2.806
92796W        W56553  24.981   4.403  13.461
92797W        W56554   2.445  32.910  12.535
92798W        W56555  13.813  41.807   1.881
92799W        W56556   9.833   9.885   4.288
92800W        W56557   5.916  19.545   2.784
92801W        W56558   5.903  15.319  12.525
92802W        W56559  41.364  39.382   3.361
92803W        W56560  44.345  40.319  13.475
92804W        W56561   2.300  41.013  12.351
92805W        W56562   1.352  29.076   1.763
92806W        W56563  33.417   9.394   2.741
92807W        W56564   8.852  32.460   3.283
92808W        W56565   5.787  10.257   4.668
92809W        W56566  20.557  11.248  14.906
92810W        W56567  34.925  14.190   1.883
92811W        W56568  24.643  19.743   0.443
92812W        W56569  12.622   2.225  10.082
92813W        W56570  36.875   3.749   1.816
92814W        W56571  15.804  39.964   3.381
92815W        W56572   7.758  31.071   1.412
92816W        W56573  16.128  11.633   2.377
92817W        W56574  19.696  38.864   0.744
92818W        W56575  38.833  30.116   4.836
92819W        W56576  36.564  17.274   2.419
92820W        W56577  32.535  16.635  10.888
92821W        W56578  30.943  15.211  12.047
92822W        W56579  25.047   9.735   3.227
92823W        W56580  12.314   2.812  14.995
92824W        W56581  24.541   3.353   0.820
92825W        W56582  37.073   9.301   3.694
92826W        W56583   6.867  42.306  11.013
92827W        W56584  17.284  32.601  11.487
92828W        W56585  18.119  32.903   3.840
92829W        W56586  23.690  21.757  14.410
92830W        W56587  31.612  21.174  12.441
92831W        W56588  20.534  30.968  11.011
92832W        W56589   1.836   9.279   4.314
92833W        W56590  42.026  21.113   0.916
92834W        W56591  20.550  39.466   4.642
92835W        W56592  11.718  13.736   2.698
92836W        W56593  39.059   7.343  11.948
92837W        W56594  36.030  40.305  12.410
92838W        W56595   7.381  41.952  14.492
92839W        W56596  37.963  34.537  14.945
92840W        W56597  13.239  37.002  13.387
92841W        W56598  34.931  27.000  13.947
92842W        W56599  19.244  17.177   4.154
92843W        W56600   4.713  31.496  12.858
92844W        W56601   8.304   6.371   3.319
92845W        W56602   2.771  34.054  13.808
92846W        W56603  24.595  44.955   3.852
92847W        W56604  13.137  31.122   3.287
92848W        W56605  18.192  21.252  13.851
92849W        W56606  26.958   5.324   1.792
92850W        W56607   8.305  41.500  11.874
92851W        W56608   6.690  32.450   1.756
92852W        W56609  23.149   6.698   2.314
92853W        W56610  16.297  43.920   0.803
92854W        W56611  20.233  20.667   0.347
92855W        W56612  25.099  22.677   5.314
92856W        W56613  29.147  14.272   1.845
92857W        W56614  12.171   0.763  14.965
92858W        W56615   8.359  15.750   5.632
92859W        W56616   8.263  20.095  10.503
92860W        W56617  40.314  36.519  12.901
92861W        W56618  38.434  36.075   2.334
92862W        W56619  23.595   2.857  10.528
92863W        W56620  15.326  31.991   3.666
92864W        W56621  33.489  22.559   5.177
92865W        W56622   3.873  43.354   3.345
92866W        W56623  12.814   3.788   0.348
92867W        W56624  31.116  27.008   3.368
92868W        W56625  10.356   2.411   0.385
92869W        W56626  36.483  20.588   4.223
92870W        W56627   2.345  20.680   3.224
92871W        W56628  10.343   9.286   4.224
92872W        W56629  28.631  17.606   5.188
92873W        W56630   8.809   7.298  10.598
92874W        W56631   7.215  20.053  13.394
92875W        W56632  16.231  12.213  13.029
92876W        W56633  16.650  37.569  13.503
92877W        W56634  20.583  44.355   1.775
92878W        W56635  24.139  17.261  12.056
92879W        W56636  39.450  23.011  12.557
92880W        W56637   3.337  17.719  13.479
92881W        W56638  17.265  13.120  13.355
92882W        W56639  13.614   6.315  12.996
92883W        W56640  19.667   9.734  10.629
92884W        W56641   7.881  32.959   1.746
92885W        W56642  35.053  36.013   2.287
92886W        W56643  10.155  37.563   2.211
92887W        W56644  28.638  32.424   4.813
92888W        W56645  33.590  20.052   0.943
92889W        W56646   5.255  31.548  11.126
92890W        W56647  13.806   0.256  14.360
92891W        W56648   6.818  20.654  14.797
92892W        W56649  18.138  33.060  10.483
92893W        W56650  28.654  18.629   2.253
92894W        W56651  22.695  12.311  14.771
92895W        W56652  29.921   7.246   2.355
92896W        W56653  17.685  25.128   3.677
92897W        W56654  23.649  23.207  10.451
92898W        W56655   1.855  39.811  11.036
92899W        W56656  28.072   7.741  10.896
92900W        W56657  21.173  29.654   2.255
92901W        W56658  14.238  22.731   1.265
92902W        W56659   1.373  26.685  10.956
92903W        W56660  24.977  33.061  14.369
92904W        W56661  44.958  22.140  12.972
92905W        W56662  32.941  24.182   3.780
92906W        W56663  22.742  28.648  13.492
92907W        W56664  35.375  39.369  13.414
92908W        W56665  37.874   8.314  13.975
92909W        W56666  22.081  19.694   0.865
92910W        W56667   9.370  31.593  13.919
92911W        W56668   0.383  21.583   1.888
92912W        W56669   3.370  31.103   0.384
92913W        W56670  10.198   1.800  12.361
92914W        W56671  11.319  12.228  14.400
92915W        W56672   2.925  33.475  11.070
92916W        W56673  22.088  40.053  13.502
92917W        W56674   3.387  26.991  13.970
92918W        W56675   8.252  40.034  10.118
92919W        W56676   6.841  42.353   3.829
92920W        W56677  42.888  33.982   1.389
92921W        W56678   6.709  42.477  13.359
92922W        W56679  34.454  12.835  10.504
92923W        W56680   1.972  30.972   1.922
92924W        W56681  15.808  19.633  13.382
92925W        W56682  19.606  18.646  13.063
92926W        W56683  25.077   7.743   4.813
92927W        W56684  12.298  27.166  11.553
92928W        W56685  30.074   7.814  12.009
92929W        W56686   0.387  13.185   1.446
92930W        W56687  31.572  29.533  11.044
92931W        W56688  35.532  24.224  13.902
92932W        W56689   1.379  28.481  12.031
92933W        W56690  17.260   2.893  10.513
92934W        W56691  42.340   7.283  10.461
92935W        W56692  13.774  24.226  10.461
92936W        W56693   7.274  44.915  13.334
92937W        W56694  18.078   8.357   4.658
92938W        W56695  11.361   7.706   0.387
92939W        W56696  21.702  42.880   1.383
92940W        W56697  36.503  24.674  11.988
92941W        W56698  41.842  33.941   2.855
92942W        W56699  30.481  21.130  12.047
92943W        W56700   4.769  43.492   3.739
92944W        W56701  25.120  24.155  10.949
92945W        W56702  25.476  31.933  12.944
92946W        W56703   2.400  29.429   3.761
92947W        W56704  40.322  27.986  12.064
92948W        W56705  15.612  11.128   4.206
92949W        W56706  42.488  36.459   0.362
92950W        W56707   5.724  10.235   2.402
92951W        W56708   6.261  21.189   2.389
92952W        W56709  24.657  20.639   0.382
92953W        W56710  32.052  27.003   1.314
92954W        W56711  27.506   6.249  14.417
92955W        W56712  36.950  32.084   0.759
92956W        W56713  38.517  26.168   1.918
92957W        W56714  42.474  10.189   4.114
92958W        W56715  43.341  31.063  12.917
92959W        W56716  19.604  33.028   2.778
92960W        W56717  38.927  34.457   4.241
92961W        W56718   7.410  16.577  13.450
92962W        W56719  40.351  10.184   4.604
92963W        W56720  33.082   4.874  13.816
92964W        W56721  12.120  19.709   3.744
92965W        W56722  39.331  39.887  14.890
92966W        W56723  36.969  41.340   1.757
92967W        W56724  16.185  40.911   3.228
92968W        W56725  32.052   1.752  11.553
92969W        W56726   5.247   0.470   3.373
92970W        W56727  33.554   1.977   4.738
92971W        W56728  43.895  27.040   0.736
92972W        W56729  10.312  22.215   3.805
92973W        W56730   4.919   4.724  11.114
92974W        W56731  40.530  41.829   3.662
92975W        W56732  16.264  29.024  10.573
92976W        W56733  29.936  35.496  12.849
92977W        W56734  44.791   3.721   1.271
92978W        W56735  41.880  19.048  11.528
92979W        W56736  32.591  26.534   9.981
92980W        W56737  20.117  33.544   3.173
92981W        W56738  30.540  24.061  11.968
92982W        W56739  29.575  41.401   1.388
92983W        W56740  41.020   4.338   4.781
92984W        W56741   5.288  14.307   5.193
92985W        W56742  39.845   1.467  14.332
92986W        W56743   8.247  16.628  12.341
92987W        W56744  19.646   5.930   2.268
92988W        W56745   4.394  18.283  13.982
92989W        W56746  44.952  18.249  12.384
92990W        W56747   9.378  40.967   5.236
92991W        W56748  13.107   7.787   3.870
92992W        W56749  41.440  42.028  10.577
92993W        W56750   2.379  44.871   4.139
92994W        W56751  21.059  24.116   4.671
92995W        W56752  41.994  20.068  14.825
92996W        W56753  25.484  36.416   4.340
92997W        W56754  31.972   2.231   4.283
92998W        W56755  36.042   3.252   3.642
92999W        W56756  18.173  33.922   0.858
93000W        W56757   4.799  28.057  12.358
93001W        W56758  16.699   7.861  12.448
93002W        W56759  32.482   0.770   1.367
93003W        W56760   9.253   8.771  14.876
93004W        W56761  21.041  29.158  14.372
93005W        W56762  26.547  21.584  12.395
93006W        W56763   5.419   2.800   3.383
93007W        W56764  20.535  22.547   2.308
93008W        W56765  41.995  14.185   3.718
93009W        W56766  22.066  36.923   1.694
93010W        W56767  25.997  22.228   5.767
93011W        W56768  27.124  11.162  10.924
93012W        W56769  29.937  25.633   1.832
93013W        W56770  42.893  42.013   0.272
93014W        W56771  27.041  36.072  14.846
93015W        W56772  20.042  35.881  13.951
93016W        W56773   3.775  19.549  10.584
93017W        W56774  27.646  20.675   4.235
93018W        W56775  24.694  17.302   2.324
93019W        W56776  36.511  13.218   4.220
93020W        W56777   9.692  24.155   2.773
93021W        W56778  23.720  36.352   1.783
93022W        W56779  22.197   1.441  11.407
93023W        W56780  10.716   6.724  12.490
93024W        W56781  18.735   2.427   5.116
93025W        W56782  42.512   5.250   3.802
93026W        W56783  40.460   2.293  14.443
93027W        W56784  12.290  35.878   3.700
93028W        W56785  13.241  13.802  12.461
93029W        W56786  37.850  35.006   2.181
93030W        W56787  26.488  32.399   1.384
93031W        W56788   3.791  34.005   3.297
93032W        W56789  44.899  21.519   0.274
93033W        W56790  11.812  13.838  14.372
93034W        W56791   6.754  29.477   3.387
93035W        W56792  44.360  21.751   4.235
93036W        W56793  30.462  37.865   3.741
93037W        W56794  24.999  31.443   4.232
93038W        W56795  20.237  23.134  12.500
93039W        W56796  29.601  32.440  12.575
93040W        W56797  36.852  24.067   1.829
93041W        W56798  43.834   1.818  12.087
93042W        W56799  16.783   1.790   5.293
93043W        W56800  29.924  43.358   1.294
93044W        W56801  13.217  27.643   4.161
93045W        W56802  44.988  15.787   1.262
93046W        W56803  38.514  37.932  11.526
93047W        W56804  33.586  33.082   1.440
93048W        W56805  14.158  32.896   4.638
93049W        W56806  23.146   5.712  11.879
93050W        W56807  22.655  30.009   0.244
93051W        W56808  22.634   1.833   9.974
93052W        W56809  34.924  27.691  11.128
93053W        W56810  18.716  38.936   2.299
93054W        W56811  12.185  16.718  12.526
93055W        W56812  28.448   6.249  10.889
93056W        W56813   5.920   9.270   3.714
93057W        W56814  20.634  11.338   0.868
93058W        W56815  26.542  10.348   3.756
93059W        W56816  11.759  21.075  12.464
93060W        W56817  38.389   7.289   3.725
93061W        W56818  25.694   5.922   0.737
93062W        W56819  12.644  15.119  11.996
93063W        W56820  24.207  32.118   0.335
93064W        W56821  44.906  23.093   4.236
93065W        W56822  29.155   9.189  11.534
93066W        W56823  32.921   3.712  11.039
93067W        W56824  43.321  10.290   2.349
93068W        W56825  10.701  31.618   3.665
93069W        W56826   3.402  27.501  11.578
93070W        W56827   0.259  42.510  14.297
93071W        W56828  29.164  17.576  13.931
93072W        W56829   3.330   3.822  11.949
93073W        W56830  19.278   8.700   2.295
93074W        W56831  16.585  17.086  12.972
93075W        W56832   0.421  44.424  14.950
93076W        W56833   0.966  15.596  10.038
93077W        W56834  18.755   7.680   0.729
93078W        W56835  43.282  28.501   1.372
93079W        W56836   1.305  28.461  14.798
93080W        W56837  38.352  30.139   3.151
93081W        W56838  31.429  25.121   1.437
93082W        W56839  13.136  10.666  11.052
93083W        W56840   8.280   0.291   3.733
93084W        W56841  40.458  23.596   3.239
93085W        W56842   2.722  44.399  10.645
93086W        W56843   1.831  43.455  13.462
93087W        W56844   4.331  11.689  12.875
93088W        W56845  28.622   5.838   4.347
93089W        W56846  25.212  23.499   4.305
93090W        W56847  30.501  36.917  14.874
93091W        W56848  18.204  12.764   5.302
93092W        W56849   0.749   6.182  11.554
93093W        W56850   4.320  29.974  13.795
93094W        W56851   7.744  14.213  13.346
93095W        W56852   7.361  14.763   4.599
93096W        W56853  25.707  17.685   2.397
93097W        W56854  29.632  10.834   0.358
93098W        W56855  27.609   3.714  13.406
93099W        W56856  30.106  23.085  10.624
93100W        W56857  14.705  15.325   1.761
93101W        W56858  16.194  11.184  12.524
93102W        W56859  10.831  29.146   0.265
93103W        W56860  23.076  13.816  11.126
93104W        W56861  38.888  31.434   4.611
93105W        W56862   8.840   7.366  13.350
93106W        W56863  42.447  36.548  14.943
93107W        W56864  36.098  43.463   4.277
93108W        W56865   7.711   9.737  11.450
93109W        W56866  17.655  42.473   4.605
93110W        W56867  13.263  11.216  11.892
93111W        W56868  36.062  35.528  13.447
93112W        W56869  41.446  11.856   1.935
93113W        W56870  43.393  26.991  11.415
93114W        W56871  31.903  41.419  14.828
93115W        W56872  19.279  11.266  14.972
93116W        W56873  33.936   8.248   3.292
93117W        W56874  13.845  35.573  11.547
93118W        W56875  41.423   4.290  12.037
93119W        W56876  17.085  42.911  12.435
93120W        W56877  17.197  15.196  14.816
93121W        W56878  33.930  41.953  12.564
93122W        W56879  15.161  33.614   0.358
93123W        W56880  30.635  22.006   4.189
93124W        W56881  22.603   2.755   0.839
93125W        W56882   1.943  31.943  13.469
93126W        W56883  27.553  37.364  11.564
93127W        W56884  40.451  31.476   0.294
93128W        W56885  20.576  17.692   2.861
93129W        W56886  39.434  24.625   3.315
93130W        W56887  36.444  27.692   2.700
93131W        W56888  10.638   2.961   2.178
93132W        W56889   1.780  40.881  12.435
93133W        W56890  37.007  21.256  14.468
93134W        W56891  33.967  28.930  10.995
93135W        W56892   9.245  32.900  11.935
93136W        W56893  24.634  29.100   2.333
93137W        W56894  37.860  12.181  14.932
93138W        W56895  14.289  33.482  14.946
93139W        W56896  23.160  27.619   3.310
93140W        W56897  19.670  20.212  11.553
93141W        W56898  25.598  37.460  11.893
93142W        W56899   1.272   9.172  11.565
93143W        W56900  41.395  21.736  12.026
93144W        W56901  31.575  31.622   3.660
93145W        W56902  32.028  17.114  14.812
93146W        W56903  40.832  35.984   2.796
93147W        W56904  36.348  19.734   1.726
93148W        W56905  10.340  40.894  13.369
93149W        W56906   3.229  29.585   1.424
93150W        W56907  35.895   8.260  13.962
93151W        W56908  32.634  32.413  11.952
93152W        W56909  41.835  14.324  11.093
93153W        W56910  41.904  44.767   2.180
93154W        W56911  41.296  22.050  10.906
93155W        W56912  12.141  11.745  11.042
93156W        W56913  17.663  42.950  14.878
93157W        W56914   0.301   3.290  12.349
93158W        W56915   9.363  26.122  11.060
93159W        W56916  13.644  41.374  13.911
93160W        W56917  38.868  36.490  11.429
93161W        W56918  17.604  23.674   2.410
93162W        W56919  27.659  23.547  10.966
93163W        W56920  32.891  34.919   4.205
93164W        W56921  25.988   9.150   1.234
93165W        W56922  15.158  29.055   4.171
93166W        W56923   0.873  17.128  12.384
93167W        W56924  31.085  44.331   4.255
93168W        W56925  22.725  40.971  11.390
93169W        W56926  20.668  13.791   2.269
93170W        W56927  10.633  44.811  12.541
93171W        W56928  39.541  13.126  11.399
93172W        W56929  36.046   5.747   2.700
93173W        W56930  10.356  26.186   3.357
93174W        W56931  42.320  43.926   3.787
93175W        W56932  32.602   4.748   2.188
93176W        W56933   9.266  40.377   1.786
93177W        W56934  23.131  36.904  11.090
93178W        W56935  36.055  31.048   3.369
93179W        W56936  33.588  28.991  14.378
93180W        W56937   0.827  28.610  10.555
93181W        W56938  43.477  36.974   2.208
93182W        W56939  22.109  14.288   0.890
93183W        W56940  18.053  36.496   0.329
93184W        W56941  36.359  43.792   3.677
93185W        W56942  36.348  32.516  14.507
93186W        W56943  28.944  10.300   1.334
93187W        W56944  43.911   2.424  12.987
93188W        W56945  24.604  28.622   2.380
93189W        W56946   4.778  34.457   0.393
93190W        W56947  37.971  36.947  11.931
93191W        W56948  16.227  24.061   4.793
93192W        W56949  14.686   9.174  11.915
93193W        W56950  21.629  36.467  12.465
93194W        W56951  28.052  15.696   1.883
93195W        W56952  16.074   1.330   4.293
93196W        W56953  21.193  35.891  13.004
93197W        W56954  38.538   6.360   1.747
93198W        W56955   9.169  19.204   0.845
93199W        W56956  36.358  31.093  13.854
93200W        W56957  14.828  12.213   4.764
93201W        W56958  19.076  25.089   3.836
93202W        W56959  41.440  41.925   2.786
93203W        W56960  25.074  13.111  11.055
93204W        W56961  21.600  40.917  13.884
93205W        W56962  23.574  17.676  12.392
93206W        W56963  10.344  26.603   0.356
93207W        W56964  39.829  16.778  11.904
93208W        W56965   6.700  10.864  13.043
93209W        W56966  37.928  37.368  14.421
93210W        W56967  41.880  36.900   1.291
93211W        W56968  29.458  16.665   4.716
93212W        W56969  17.082  37.433   2.188
93213W        W56970  15.779  41.914   1.831
93214W        W56971  26.068   1.813  14.342
93215W        W56972  14.324  21.704  11.490
93216W        W56973   6.400  30.532   0.959
93217W        W56974  12.174  33.907   0.414
93218W        W56975  38.879  27.075   0.267
93219W        W56976  18.084  15.679   5.724
93220W        W56977   1.473  13.115   2.358
93221W        W56978  38.901   8.263   1.698
93222W        W56979  20.059  23.491   2.894
93223W        W56980  32.067   1.346   3.169
93224W        W56981  31.579  43.303   4.714
93225W        W56982  29.609  32.442   2.809
93226W        W56983  25.039   6.744  12.527
93227W        W56984  37.374  36.868  10.957
93228W        W56985  39.456  44.364  10.414
93229W        W56986  10.333  44.806  13.544
93230W        W56987  41.890  28.546  10.546
93231W        W56988  38.335  44.328  14.938
93232W        W56989  44.005  41.350   3.656
93233W        W56990  32.395   1.426   4.790
93234W        W56991  32.419  42.797   0.762
93235W        W56992  17.645  23.006  12.071
93236W        W56993  41.374  24.092   0.967
93237W        W56994  23.651   0.923  13.988
93238W        W56995  21.711  24.230   4.798
93239W        W56996  40.054  15.311   1.708
93240W        W56997  11.676  21.160   5.282
93241W        W56998  39.917   4.853   3.759
93242W        W56999  41.870  21.525  11.118
93243W        W57000  21.156  25.523   2.201
93244W        W57001  13.108   6.761  14.759
93245W        W57002  14.182   8.283   2.865
93246W        W57003   4.400  42.422   1.423
93247W        W57004  23.168  23.530   3.638
93248W        W57005  32.015  15.120   1.700
93249W        W57006  23.139  27.047   4.188
93250W        W57007  25.682  29.464  13.802
93251W        W57008  25.680  34.865  13.022
93252W        W57009  44.319  40.885   2.728
93253W        W57010  25.691  35.551   2.898
93254W        W57011   9.257  25.583   2.418
93255W        W57012  42.400  44.897  12.570
93256W        W57013  38.972  26.048   2.837
93257W        W57014  23.240  44.258   3.644
93258W        W57015   1.754  32.893   1.232
93259W        W57016   5.762  20.134  11.075
93260W        W57017   0.358  10.877   2.203
93261W        W57018   3.448  11.664  11.060
93262W        W57019  13.636  32.528   3.370
93263W        W57020  18.125  20.147   0.948
93264W        W57021  42.509  19.220  13.034
93265W        W57022  20.744  19.169  14.358
93266W        W57023  16.140   2.466   0.750
93267W        W57024   4.808  36.091   3.702
93268W        W57025  11.209  10.186  12.496
93269W        W57026  25.988  37.480  14.819
93270W        W57027  30.620  36.362  11.934
93271W        W57028   9.275  32.600   0.875
93272W        W57029  19.553  25.130  11.464
93273W        W57030   5.278  12.194   2.682
93274W        W57031  26.153  33.479  12.938
93275W        W57032   8.213  23.180   0.774
93276W        W57033  36.401  33.571  10.615
93277W        W57034   2.430  44.898   3.171
93278W        W57035  13.148  33.968   1.224
93279W        W57036  43.779  30.994   4.754
93280W        W57037  17.592  30.651  13.889
93281W        W57038  28.954  43.937   1.743
93282W        W57039  44.795   4.372  11.025
93283W        W57040   5.354   8.747   3.238
93284W        W57041   8.351  13.201   1.405
93285W        W57042   4.301  24.181   2.842
93286W        W57043  32.986  32.005   4.215
93287W        W57044  12.307   1.800  11.608
93288W        W57045   7.713  39.925   0.371
93289W        W57046  12.251  43.897  10.419
93290W        W57047  21.225  31.561  10.620
93291W        W57048  31.643  32.926   3.810
93292W        W57049  39.996  22.550   1.279
93293W        W57050   8.807  38.433   0.882
93294W        W57051   8.244  31.639  14.336
93295W        W57052  10.237  34.472  14.869
93296W        W57053   8.820   5.258   0.775
93297W        W57054  33.905  43.420   2.202
93298W        W57055  30.986  15.134   2.770
93299W        W57056  32.989  23.151  12.010
93300W        W57057  35.517  18.707   3.849
93301W        W57058  40.833  29.135   3.204
93302W        W57059  12.634  40.432   1.404
93303W        W57060  15.704  29.567   2.223
93304W        W57061  21.680  17.204   1.837
93305W        W57062  33.092  10.228   3.189
93306W        W57063   0.370  44.886  11.054
93307W        W57064  22.586   1.264  12.571
93308W        W57065  24.498  26.035   2.739
93309W        W57066  43.899  35.068  10.895
93310W        W57067  43.912  24.221   2.184
93311W        W57068   0.286  29.095   1.328
93312W        W57069  12.713   8.164   3.698
93313W        W57070  34.370  39.435  10.917
93314W        W57071  35.935   2.802  14.004
93315W        W57072  36.504   2.456  14.004
93316W        W57073  23.619  16.713   2.739
93317W        W57074  28.119  35.432   0.882
93318W        W57075  20.766  14.137   3.769
93319W        W57076  13.331  17.111  10.554
93320W        W57077  17.071  32.415   0.406
93321W        W57078  36.492  43.004   1.255
93322W        W57079  38.431  28.139  13.326
93323W        W57080  22.094  23.704   1.425
93324W        W57081  16.750  43.909  12.419
93325W        W57082  24.981  13.258   2.263
93326W        W57083  11.316  42.383   2.187
93327W        W57084   5.346  34.108   2.899
93328W        W57085  31.945  25.037   1.733
93329W        W57086  36.022   8.877   1.919
93330W        W57087  15.751   1.275   2.720
93331W        W57088  23.672  34.956  13.802
93332W        W57089  22.692  12.730   2.369
93333W        W57090  11.628  23.707   3.327
93334W        W57091  39.991  17.752  12.900
93335W        W57092   1.902  29.548  12.881
93336W        W57093  15.657  21.630   4.768
93337W        W57094  30.108  30.550  12.579
93338W        W57095   9.324  24.003   3.340
93339W        W57096   4.724  44.787  12.823
93340W        W57097  28.119  28.061  14.333
93341W        W57098  24.168   9.354   4.172
93342W        W57099  33.422  38.024  14.378
93343W        W57100  30.975  18.220   0.965
93344W        W57101   4.276  31.638   3.264
93345W        W57102  22.625  13.842   0.803
93346W        W57103  17.625  30.500  14.862
93347W        W57104  39.432   3.403   3.659
93348W        W57105  41.536   3.714   2.671
93349W        W57106   7.377  18.625   3.826
93350W        W57107  43.919  32.969  11.061
93351W        W57108  28.110  33.619   0.400
93352W        W57109  38.396   8.655   0.853
93353W        W57110  27.985  38.432   3.350
93354W        W57111  15.658  19.062  11.515
93355W        W57112  17.698   6.796  14.794
93356W        W57113  28.157  25.003  14.351
93357W        W57114  38.903  38.392  12.933
93358W        W57115  37.063  35.493  13.792
93359W        W57116  29.939  43.829  11.889
93360W        W57117  28.565  44.307   0.448
93361W        W57118  23.118  25.495  11.989
93362W        W57119  35.412  39.393  12.002
93363W        W57120  17.632  16.221  14.896
93364W        W57121  33.935  18.265   0.853
93365W        W57122  18.115  27.999   1.730
93366W        W57123  26.029  37.443  11.426
93367W        W57124  43.397  31.968   1.398
93368W        W57125  40.506  16.794   2.742
93369W        W57126  33.549  11.854   4.623
93370W        W57127   1.445  29.991  12.905
93371W        W57128  24.045  16.617  14.901
93372W        W57129   5.917  29.031  12.853
93373W        W57130  20.212  34.481   2.365
93374W        W57131  12.237  21.712  13.383
93375W        W57132  22.246  30.645  12.562
93376W        W57133   6.874   2.760  13.938
93377W        W57134   0.895  30.021   4.750
93378W        W57135   4.938  42.783  12.835
93379W        W57136  18.138  22.502   3.860
93380W        W57137  23.169   2.403  11.595
93381W        W57138  32.611   1.270  11.418
93382W        W57139  10.671  27.470  13.014
93383W        W57140   7.860  20.612  12.074
93384W        W57141   6.282  28.170   2.772
93385W        W57142   0.967  35.108  14.380
93386W        W57143  42.292  41.925  12.368
93387W        W57144  19.585   0.743   2.198
93388W        W57145  33.590   1.746  10.605
93389W        W57146  41.527   2.922   1.726
93390W        W57147   2.319  16.250  10.928
93391W        W57148  30.538  15.325   3.235
93392W        W57149  17.785  39.945  13.817
93393W        W57150  40.366  33.523   5.198
93394W        W57151  14.722   7.712   2.416
93395W        W57152  44.323  18.061  11.873
93396W        W57153  24.714  15.261   1.218
93397W        W57154  31.011   6.746   4.268
93398W        W57155   4.831  29.653   4.300
93399W        W57156   4.907  32.517  11.938
93400W        W57157  34.392  16.223   0.787
93401W        W57158  24.603  30.021  10.613
93402W        W57159  43.388   3.915   3.658
93403W        W57160  19.180   9.191   0.779
93404W        W57161  43.937  32.610   0.445
93405W        W57162  26.536  23.132   4.723
93406W        W57163  35.402  11.297  11.405
93407W        W57164  12.678  25.515   1.438
93408W        W57165   7.823  15.686  13.829
93409W        W57166   9.312  38.899   4.150
93410W        W57167  25.578  10.762   3.177
93411W        W57168  44.295   4.216  11.525
93412W        W57169  41.894  25.020   0.469
93413W        W57170  22.167  27.174  11.091
93414W        W57171  17.797  39.378  10.595
93415W        W57172  24.486   7.299   3.734
93416W        W57173  30.933   3.249  13.469
93417W        W57174  25.001  30.131   0.778
93418W        W57175  10.815  24.652   0.377
93419W        W57176   2.906  27.123   1.706
93420W        W57177  24.620  23.095   9.525
93421W        W57178  17.115  28.027   4.826
93422W        W57179  33.510   6.368   3.276
93423W        W57180  36.348   0.454   4.142
93424W        W57181  11.837  29.665   1.394
93425W        W57182  25.682  29.004  12.380
93426W        W57183  24.099  40.945   2.665
93427W        W57184  44.960   1.869  11.122
93428W        W57185  18.178   1.784   4.208
93429W        W57186   5.852  40.011   1.753
93430W        W57187   9.863  18.762   4.146
93431W        W57188  25.518   9.350   3.240
93432W        W57189  39.355  27.611  10.977
93433W        W57190   3.284  11.768   5.275
93434W        W57191  35.020  35.901  14.297
93435W        W57192  15.199  13.826   9.528
93436W        W57193  33.407  36.446  10.550
93437W        W57194  11.138  15.666   2.667
93438W        W57195  24.593  41.991   4.143
93439W        W57196  15.320   1.909  14.901
93440W        W57197   4.858  10.861   3.655
93441W        W57198  24.526  36.527   1.256
93442W        W57199  10.352  12.274  12.354
93443W        W57200   0.779   1.393  11.022
93444W        W57201  24.225  41.948  10.563
93445W        W57202  37.498  27.080   1.831
93446W        W57203   0.800  17.102   4.289
93447W        W57204  38.427  17.208  14.324
93448W        W57205  27.080  16.179   2.889
93449W        W57206  36.971  12.637   1.431
93450W        W57207  33.891   1.917  10.429
93451W        W57208  39.063  34.076   0.802
93452W        W57209  22.643  23.077  11.440
93453W        W57210  41.506  42.417  12.920
93454W        W57211  17.061   0.888   4.122
93455W        W57212  13.673  27.603   1.433
93456W        W57213  26.674  10.371  10.604
93457W        W57214  33.433   6.723   1.817
93458W        W57215  32.411  28.083   2.802
93459W        W57216   8.759  37.549  11.385
93460W        W57217  41.021   2.459  10.933
93461W        W57218   7.231  26.984   2.865
93462W        W57219  33.486  16.305  13.899
93463W        W57220  37.085  25.046  12.490
93464W        W57221  44.307  20.557   0.342
93465W        W57222  19.681  37.533   5.282
93466W        W57223   6.820   8.331   4.308
93467W        W57224   6.829  11.846  13.990
93468W        W57225  20.669   9.777   3.257
93469W        W57226  20.736  37.557  12.540
93470W        W57227  37.556  39.392   2.753
93471W        W57228  16.115  21.604   1.888
93472W        W57229  44.460  19.544  12.396
93473W        W57230  14.768  26.088   1.883
93474W        W57231  32.074   5.383   3.215
93475W        W57232   9.724  16.274   0.869
93476W        W57233  38.383   0.915  12.877
93477W        W57234  28.519  32.584   3.363
93478W        W57235  14.246  22.719   2.687
93479W        W57236   5.742   2.410   1.432
93480W        W57237   6.416  20.633   4.210
93481W        W57238  27.065  28.654   4.324
93482W        W57239  10.246   5.751   1.713
93483W        W57240  21.188   1.346  12.925
93484W        W57241   5.231  28.520   2.757
93485W        W57242  42.376  10.783  14.281
93486W        W57243  39.824  16.279   1.889
93487W        W57244  17.125  20.033  11.916
93488W        W57245  31.647  36.910  11.529
93489W        W57246   8.713  10.766  11.062
93490W        W57247   6.717  11.267  13.340
93491W        W57248  14.699  43.310  11.456
93492W        W57249  29.984  32.032  12.856
93493W        W57250  22.500   8.863   9.928
93494W        W57251  20.553  28.448   0.286
93495W        W57252  30.558   6.863  10.062
93496W        W57253  32.621  26.681   1.894
93497W        W57254  29.594  36.994  11.095
93498W        W57255   4.840   1.898  14.944
93499W        W57256   0.467  39.359   1.855
93500W        W57257  44.913  44.992   2.685
93501W        W57258  44.467   0.283   1.236
93502W        W57259  12.806  32.606   4.672
93503W        W57260   4.440  41.892   9.526
93504W        W57261   4.847  40.497  11.571
93505W        W57262  39.505  27.517  13.399
93506W        W57263  35.071  43.428   1.440
93507W        W57264   7.821  23.130   3.373
93508W        W57265  13.661  21.653  11.593
93509W        W57266   7.180  26.198  10.508
93510W        W57267  21.240  17.610  11.874
93511W        W57268  14.811  32.524  14.427
93512W        W57269  24.610  11.775  14.378
93513W        W57270  14.115  39.526  14.394
93514W        W57271  32.920  34.593  12.376
93515W        W57272  24.548   8.762   0.263
93516W        W57273  19.780  13.840   1.740
93517W        W57274   3.456  15.110  11.105
93518W        W57275  38.457  37.485  13.877
93519W        W57276  39.551  19.571  10.458
93520W        W57277   6.261   3.300  11.531
93521W        W57278  21.656  42.797  10.438
93522W        W57279  29.061  28.662   2.674
93523W        W57280  14.635  15.111   2.722
93524W        W57281   9.761  26.092   4.211
93525W        W57282  33.462   3.819   3.286
93526W        W57283   0.769  24.042   4.137
93527W        W57284  20.091  36.891  13.844
93528W        W57285  37.530   2.303  11.111
93529W        W57286  42.378  33.491  12.947
93530W        W57287  14.189  34.869  10.596
93531W        W57288   9.274   0.323  13.537
93532W        W57289  42.470  27.606   3.753
93533W        W57290   6.876   3.899  14.855
93534W        W57291  19.278  41.815   1.371
93535W        W57292  24.125  26.203  12.481
93536W        W57293   9.224  44.473   4.262
93537W        W57294  25.538   4.289   3.666
93538W        W57295  37.025  44.328  11.437
93539W        W57296  31.586   8.841   4.677
93540W        W57297  10.293  24.204   4.175
93541W        W57298  27.450  28.501  11.471
93542W        W57299   9.396  33.989  11.580
93543W        W57300  18.212   4.924   4.197
93544W        W57301   1.451  21.547   3.253
93545W        W57302  42.295  33.034  13.874
93546W        W57303  44.380   8.799   3.200
93547W        W57304  38.076  30.635  13.340
93548W        W57305   8.813  33.033  14.278
93549W        W57306  35.875  29.056  13.487
93550W        W57307   9.673   3.220  11.093
93551W        W57308  15.677  17.287   4.151
93552W        W57309  11.320  31.553  14.927
93553W        W57310  27.023  17.640   4.603
93554W        W57311  20.695  28.962   1.399
93555W        W57312  20.268  30.630   4.156
93556W        W57313  21.631   7.667  14.854
93557W        W57314   4.909  43.446   2.844
93558W        W57315  25.007  39.883  10.413
93559W        W57316  35.079  31.556  12.880
93560W        W57317  38.063  24.619   4.723
93561W        W57318   1.789  19.115   1.401
93562W        W57319  16.083  30.585  14.362
93563W        W57320  35.451  44.762  11.563
93564W        W57321  16.625  41.037  11.042
93565W        W57322  22.514   5.867   2.333
93566W        W57323  44.908  25.677  14.910
93567W        W57324  37.883  37.483  10.891
93568W        W57325   1.876   7.375  10.641
93569W        W57326   1.763  30.090  14.977
93570W        W57327  18.556  21.709   4.726
93571W        W57328  12.141  28.597  14.353
93572W        W57329   9.858  21.250   4.724
93573W        W57330  24.002   3.862   4.678
93574W        W57331  30.080  43.366   3.831
93575W        W57332  41.963  44.344   4.184
93576W        W57333  26.191  41.506   3.754
93577W        W57334  18.556  25.160   0.784
93578W        W57335  24.533   0.275   1.298
93579W        W57336  41.006  23.538   1.832
93580W        W57337  11.767  44.843   0.470
93581W        W57338  18.605  43.869  11.980
93582W        W57339   1.362  18.215  13.510
93583W        W57340  10.208   9.180  13.460
93584W        W57341  28.650   8.770  10.990
93585W        W57342  16.732  33.881  12.512
93586W        W57343   8.692  42.350  14.958
93587W        W57344  19.617  31.596   1.348
93588W        W57345  22.233   6.705   1.915
93589W        W57346  31.499  15.712   5.283
93590W        W57347  37.349  42.017   2.293
93591W        W57348  15.757   2.332   5.178
93592W        W57349  10.287   0.894   2.197
93593W        W57350  15.743  41.793   0.316
93594W        W57351  16.310  33.529  11.406
93595W        W57352  21.607  27.132   4.200
93596W        W57353  26.550  39.872  11.866
93597W        W57354   3.420  13.838   0.335
93598W        W57355  24.583  22.237   5.289
93599W        W57356  24.624  25.712  14.923
93600W        W57357  39.844  10.156   1.901
93601W        W57358  44.363  35.051   0.388
93602W        W57359  37.373  31.939  14.471
93603W        W57360  39.425  37.463   3.280
93604W        W57361  28.103  44.267   4.280
93605W        W57362  25.006   5.365  13.910
93606W        W57363  21.593   6.260   2.738
93607W        W57364  35.533  42.027   1.734
93608W        W57365  36.429  34.478  14.924
93609W        W57366  23.550   1.860  11.102
93610W        W57367  35.438   0.960   0.311
93611W        W57368  31.118  23.534   3.231
93612W        W57369  42.000  36.865  13.385
93613W        W57370  35.070  13.127  11.923
93614W        W57371  33.957  15.230  13.987
93615W        W57372  34.954  28.523  11.104
93616W        W57373  34.967  31.104   0.276
93617W        W57374   5.308  38.549  14.423
93618W        W57375  35.554  10.790  13.845
93619W        W57376  33.126   6.355  12.055
93620W        W57377  41.930   1.761  10.431
93621W        W57378  28.158  44.874  13.035
93622W        W57379   6.373  20.554   1.296
93623W        W57380  40.825  41.440   0.796
93624W        W57381  43.821  12.713  12.457
93625W        W57382  37.953  24.988   4.741
93626W        W57383  22.194   9.770  13.052
93627W        W57384   5.700  12.610   4.247
93628W        W57385  28.544  35.909   1.759
93629W        W57386  42.410  11.785   0.863
93630W        W57387   4.235  34.046  10.571
93631W        W57388   6.228  29.110  11.460
93632W        W57389  10.786  26.048   1.835
93633W        W57390  29.080   6.274   0.752
93634W        W57391  21.026  35.918   3.161
93635W        W57392  24.988  34.887  13.802
93636W        W57393  24.086  16.193   1.856
93637W        W57394  18.100  13.130   2.348
93638W        W57395  30.059  31.605   2.282
93639W        W57396   1.762  43.987   1.913
93640W        W57397   3.391  30.528   1.834
93641W        W57398  11.191  42.510   3.830
93642W        W57399   0.801   3.342   3.706
93643W        W57400  37.371  30.151   2.375
93644W        W57401  43.945  19.170   4.744
93645W        W57402  11.746  29.997  12.412
93646W        W57403  26.172  40.857   1.793
93647W        W57404  44.815  19.657  14.458
93648W        W57405  10.184  29.609  11.117
93649W        W57406   5.783   2.464  13.979
93650W        W57407   3.297  40.537   0.372
93651W        W57408  29.161  31.123   3.794
93652W        W57409   8.195  21.235  11.426
93653W        W57410  13.222  22.022   3.815
93654W        W57411  14.258  39.010  12.830
93655W        W57412  24.095   5.822  12.988
93656W        W57413  20.722  12.670   4.236
93657W        W57414  18.692  23.223   0.967
93658W        W57415   3.220  18.593  11.478
93659W        W57416  30.070  31.055  14.293
93660W        W57417  25.635   2.441  10.569
93661W        W57418   8.370   6.407  14.012
93662W        W57419  42.420   4.438  12.851
93663W        W57420  11.192  32.513  12.506
93664W        W57421  26.020  13.802   2.894
93665W        W57422  29.959   4.886  10.980
93666W        W57423  31.151  12.764   4.818
93667W        W57424  18.784   0.254  14.846
93668W        W57425  15.132  35.496  10.542
93669W        W57426  23.731   8.348  10.473
93670W        W57427  44.882  32.908   4.276
93671W        W57428  31.580  22.667   2.707
93672W        W57429  39.427  21.754   2.778
93673W        W57430   4.410  11.363  13.315
93674W        W57431  13.205  13.206  10.447
93675W        W57432  10.272  26.038  10.470
93676W        W57433  20.087  14.628   0.888
93677W        W57434  30.119  34.611   1.708
93678W        W57435   7.332  27.449  11.916
93679W        W57436  26.472  27.527   3.698
93680W        W57437   9.781  17.263  14.294
93681W        W57438  12.154  24.529  12.869
93682W        W57439  20.573  27.449  14.324
93683W        W57440   2.947  31.109  12.879
93684W        W57441  42.377  34.519   3.713
93685W        W57442  20.584  44.842  12.987
93686W        W57443  43.405  34.003   0.286
93687W        W57444  32.478  38.535   3.755
93688W        W57445  39.381  44.759   4.636
93689W        W57446  22.652   2.311   4.232
93690W        W57447  34.450  26.684   2.710
93691W        W57448  27.629  17.100  12.396
93692W        W57449  39.345  12.256  14.972
93693W        W57450  29.641   2.469   0.956
93694W        W57451   0.259  23.609  12.341
93695W        W57452  14.729  27.135   4.223
93696W        W57453   2.793  37.884   1.892
93697W        W57454  40.879  11.851  11.388
93698W        W57455  34.992  12.825  14.829
93699W        W57456   9.665  31.080  10.983
93700W        W57457  22.204  27.527   0.731
93701W        W57458  31.962  30.003   1.776
93702W        W57459  30.635  26.682   3.274
93703W        W57460  31.460  43.507   4.294
93704W        W57461   6.228  21.191  13.471
93705W        W57462  20.156   2.345  14.911
93706W        W57463  44.786  29.006   3.710
93707W        W57464  37.924  40.398   0.935
93708W        W57465  10.324   5.726  11.070
93709W        W57466  24.510   6.394   4.278
93710W        W57467   3.309  43.402  12.465
93711W        W57468  36.083  20.252   4.328
93712W        W57469  17.641  15.790   2.207
93713W        W57470  44.319  33.580   4.206
93714W        W57471  43.344  43.003   0.310
93715W        W57472  26.161  14.225   4.788
93716W        W57473  18.561   6.271   9.997
93717W        W57474   2.465   1.381  13.373
93718W        W57475  15.718  31.922   4.806
93719W        W57476   7.212  19.243   0.870
93720W        W57477  18.565  31.064  14.903
93721W        W57478  14.339  19.109   1.760
93722W        W57479  13.130  23.692  12.436
93723W        W57480  11.623  25.600   2.689
93724W        W57481   6.226  31.576   3.856
93725W        W57482  27.041  21.526  10.005
93726W        W57483  29.602   0.980  14.032
93727W        W57484  12.770  10.771   0.328
93728W        W57485  38.352   4.924  10.466
93729W        W57486  19.545  30.445   3.695
93730W        W57487   5.374  38.978  11.929
93731W        W57488   9.778  23.213  14.482
93732W        W57489  41.836  11.703   1.725
93733W        W57490  28.072   3.449   4.655
93734W        W57491  18.606  10.166  13.361
93735W        W57492  37.402  40.341   0.852
93736W        W57493   8.672  14.279  11.580
93737W        W57494  24.026  17.224   3.795
93738W        W57495  26.057  35.929  13.827
93739W        W57496  30.499  17.124  14.922
93740W        W57497   3.423  36.430   0.292
93741W        W57498  33.540  12.840   1.758
93742W        W57499  17.174  44.899   0.790
93743W        W57500   6.207  25.473  14.032
93744W        W57501  26.067   4.228   1.414
93745W        W57502  29.474  23.545   0.250
93746W        W57503  19.754  10.250   3.190
93747W        W57504   2.227  37.928  11.016
93748W        W57505  41.494  23.693  11.478
93749W        W57506  20.251  29.963   3.807
93750W        W57507  25.080   9.216   4.768
93751W        W57508  25.001  26.030  14.845
93752W        W57509  31.476   7.756  13.439
93753W        W57510   2.335  19.605   2.849
93754W        W57511  21.620  33.609  11.371
93755W        W57512  26.095  12.656  12.833
93756W        W57513  10.213  17.303  13.443
93757W        W57514   4.886  30.458  12.388
93758W        W57515  25.513  39.997  12.475
93759W        W57516  23.055   3.297  14.455
93760W        W57517   0.283  35.016   1.904
93761W        W57518  32.445  39.404  11.375
93762W        W57519  17.680  30.012   2.233
93763W        W57520  17.176   2.396  11.908
93764W        W57521  31.604  37.395   0.381
93765W        W57522  33.432   5.380   2.789
93766W        W57523   1.286  35.570   2.893
93767W        W57524  43.910  37.954   2.779
93768W        W57525  43.491   6.239  14.004
93769W        W57526  18.781   1.411  13.799
93770W        W57527  34.022  18.668   2.316
93771W        W57528   5.750   1.962   0.857
93772W        W57529   0.299  35.512  11.526
93773W        W57530  14.772  44.418  10.592
93774W        W57531   3.310   6.880   4.642
93775W        W57532   7.702   5.832  12.538
93776W        W57533  10.210   6.280  12.472
93777W        W57534  18.103   9.825  10.970
93778W        W57535  20.567  33.920   3.848
93779W        W57536  16.709  42.283   3.249
93780W        W57537  37.382  26.646   2.694
93781W        W57538  19.203  14.204   2.704
93782W        W57539   1.833  12.288  12.092
93783W        W57540   2.383   0.812  11.946
93784W        W57541   5.909  37.084  10.502
93785W        W57542   5.702   0.352  12.882
93786W        W57543  41.415   7.683   2.216
93787W        W57544  16.257  14.610   4.312
93788W        W57545  22.027  21.207   4.721
93789W        W57546  21.252  24.227   1.418
93790W        W57547   2.383   3.913   2.683
93791W        W57548  22.703  19.156  14.873
93792W        W57549  37.928  14.185   3.865
93793W        W57550  21.709   1.749  11.438
93794W        W57551  36.396  43.361   4.332
93795W        W57552  22.187   6.214  11.414
93796W        W57553  19.667  25.627  10.567
93797W        W57554  28.155  27.176   2.789
93798W        W57555  17.697  41.485   1.274
93799W        W57556  34.431  33.925   0.338
93800W        W57557  33.423  11.339   2.204
93801W        W57558  44.953  24.527  10.513
93802W        W57559  28.528  17.160  12.563
93803W        W57560  25.516  36.974  10.939
93804W        W57561   4.896  10.305   4.772
93805W        W57562  43.794  28.982   3.772
93806W        W57563   0.754   6.754  14.504
93807W        W57564  34.448  30.125   3.357
93808W        W57565  16.718  43.923   4.750
93809W        W57566  12.325  13.271   1.286
93810W        W57567  26.150  19.225   0.934
93811W        W57568  22.183  40.384  11.102
93812W        W57569  27.005  21.044  11.445
93813W        W57570  22.535  36.842  14.449
93814W        W57571  33.603   0.342  13.893
93815W        W57572  44.291  35.949   2.784
93816W        W57573  28.636  12.613  10.588
93817W        W57574  37.503  35.507   4.142
93818W        W57575  31.128   6.270   9.526
93819W        W57576  18.165   6.361  13.447
93820W        W57577  42.363  13.786   2.415
93821W        W57578   8.820  13.659   0.733
93822W        W57579  19.579   3.836  12.874
93823W        W57580  11.711  31.934  11.922
93824W        W57581  40.504  22.558   2.227
93825W        W57582  13.713   5.244   3.705
93826W        W57583  26.162   8.715   2.416
93827W        W57584  39.850   5.294   0.829
93828W        W57585   7.775  23.528  14.328
93829W        W57586  33.550  35.990   2.370
93830W        W57587  33.926   5.842   2.843
93831W        W57588  25.998  32.393   1.914
93832W        W57589   2.249  39.487  10.959
93833W        W57590   2.460  32.410   1.371
93834W        W57591  36.046   3.440   3.165
93835W        W57592  12.837  35.591   2.884
93836W        W57593  36.983  26.083  13.400
93837W        W57594  15.125  29.660  11.486
93838W        W57595  38.368  22.604   4.771
93839W        W57596  21.678   4.776   3.275
93840W        W57597  33.410   8.734  13.902
93841W        W57598   0.480  21.032  14.907
93842W        W57599  41.377  20.748  13.795
93843W        W57600  31.521  15.659  14.866
93844W        W57601  20.564   0.902   0.814
93845W        W57602  37.003   7.693  11.455
93846W        W57603  43.991  31.089  14.303
93847W        W57604  42.503  14.807  12.877
93848W        W57605   3.807   5.409  14.389
93849W        W57606   5.819  27.572   0.882
93850W        W57607   3.833  24.073  12.067
93851W        W57608  44.495  36.911  14.825
93852W        W57609  40.867  42.459  13.945
93853W        W57610  18.193   5.706  11.036
93854W        W57611  28.152  16.713   1.904
93855W        W57612   9.879  36.416   2.255
93856W        W57613   0.770   8.787   1.768
93857W        W57614  15.702  31.403   2.806
93858W        W57615  38.471  23.583  13.973
93859W        W57616  23.684  11.310  13.355
93860W        W57617  44.803  37.433   0.444
93861W        W57618  24.657   0.899  14.357
93862W        W57619  39.326  33.891   2.799
93863W        W57620  37.873   8.265   3.164
93864W        W57621  30.588  11.843  14.960
93865W        W57622  15.637   2.349   4.347
93866W        W57623  25.041   9.177  10.488
93867W        W57624  18.561  16.573   1.322
93868W        W57625  24.041   1.400   0.465
93869W        W57626   3.938  21.109   1.901
93870W        W57627   7.307  38.069   1.872
93871W        W57628  11.732  13.769   1.764
93872W        W57629  38.869  37.545   0.275
93873W        W57630  11.621  42.021   4.245
93874W        W57631  41.466  31.033  11.438
93875W        W57632   0.284  40.913   3.714
93876W        W57633  34.086  27.551  11.489
93877W        W57634  21.629  22.526  12.897
93878W        W57635   8.847  39.902   4.217
93879W        W57636  44.861   8.784  11.585
93880W        W57637   7.899  26.508   1.928
93881W        W57638  25.692  29.580  11.023
93882W        W57639  36.085   7.874   0.820
93883W        W57640   1.975  43.435   1.235
93884W        W57641   1.378  43.355  14.827
93885W        W57642  35.999  29.171  10.567
93886W        W57643   0.936  25.713   2.722
93887W        W57644   1.880  13.332  13.500
93888W        W57645  25.152  21.178   4.201
93889W        W57646  18.631   5.922   4.122
93890W        W57647  43.896   3.456   2.881
93891W        W57648  23.139  39.372   1.715
93892W        W57649  18.210  37.445   2.713
93893W        W57650   6.312  15.815   0.331
93894W        W57651   0.819  28.173  12.427
93895W        W57652  19.225   4.858   0.845
93896W        W57653   2.320  26.042   3.744
93897W        W57654  23.052  29.173   3.654
93898W        W57655  28.041  22.171  13.988
93899W        W57656  18.651   0.439  13.004
93900W        W57657  14.716  19.621   0.879
93901W        W57658   1.281  27.185   1.770
93902W        W57659   3.710  34.118  12.973
93903W        W57660   0.937  30.490   2.181
93904W        W57661  12.731   4.728   2.796
93905W        W57662  13.839  23.007   4.763
93906W        W57663  19.710  29.144   2.838
93907W        W57664  12.117  31.598   0.879
93908W        W57665  11.641   4.320   2.859
93909W        W57666  22.033   8.330   1.392
93910W        W57667  28.172  10.327  12.837
93911W        W57668  32.544   2.355   2.199
93912W        W57669  42.026  35.491  11.996
93913W        W57670  15.669  14.740   2.376
93914W        W57671  42.500   4.819   4.615
93915W        W57672  14.160   4.249   0.775
93916W        W57673  12.293  27.039  12.080
93917W        W57674  30.150  25.034   3.833
93918W        W57675   0.987  43.875  12.970
93919W        W57676  35.921   3.386  14.437
93920W        W57677  25.481  42.447   3.853
93921W        W57678   6.279  29.589   0.928
93922W        W57679  22.245   7.417  14.303
93923W        W57680  35.866   6.223  13.843
93924W        W57681  27.497  33.580  12.983
93925W        W57682  28.454  41.001  12.994
93926W        W57683  34.980  31.934   3.264
93927W        W57684  18.771  40.477  12.552
93928W        W57685  20.601  21.118   0.303
93929W        W57686   4.804  42.432   1.789
93930W        W57687  36.556  33.557   1.315
93931W        W57688  16.603  19.702   3.352
93932W        W57689   1.930  17.632   4.758
93933W        W57690  31.432   8.754   1.364
93934W        W57691  44.337   4.291  11.889
93935W        W57692  44.270  24.525   3.696
93936W        W57693  15.327  14.197  14.275
93937W        W57694   0.401  39.812  14.889
93938W        W57695  31.051  26.172  13.034
93939W        W57696  25.997   9.671   1.757
93940W        W57697  25.117  16.652  11.499
93941W        W57698   6.810  37.014   1.770
93942W        W57699  39.916  14.683  14.867
93943W        W57700  33.580  24.130  11.870
93944W        W57701  33.013  37.061  13.878
93945W        W57702   6.428  17.661  13.000
93946W        W57703  43.903  23.217  10.546
93947W        W57704  34.534   6.798   3.850
93948W        W57705  24.521   4.912   0.417
93949W        W57706  31.622  15.735  11.511
93950W        W57707  40.949  29.948  14.458
93951W        W57708  39.917  15.702  10.454
93952W        W57709  43.276  17.688  13.038
93953W        W57710   5.411   2.398   2.341
93954W        W57711  34.941   0.278  12.888
93955W        W57712  37.029   6.317   0.429
93956W        W57713  21.707  36.467  13.489
93957W        W57714   5.921   9.878   4.618
93958W        W57715  39.049  32.889  13.527
93959W        W57716  23.992  26.068  10.418
93960W        W57717  37.978   2.374  12.831
93961W        W57718   7.769   1.920   3.745
93962W        W57719  10.866   5.797  11.108
93963W        W57720  12.613   8.197   4.140
93964W        W57721  14.243   2.916   0.419
93965W        W57722  31.048   5.318   1.694
93966W        W57723  37.049  18.167   1.866
93967W        W57724  21.617  43.424   3.240
93968W        W57725   4.814   5.366  13.427
93969W        W57726  38.994  14.178   2.277
93970W        W57727  10.270  36.937  13.339
93971W        W57728  12.169  24.510   4.752
93972W        W57729  14.599   1.838  11.481
93973W        W57730  39.526   6.692  10.530
93974W        W57731  42.928   5.320   3.183
93975W        W57732  12.653  15.803   4.209
93976W        W57733  40.427  29.139  10.971
93977W        W57734  25.495  32.133  13.321
93978W        W57735  22.010  12.343   3.697
93979W        W57736  19.636  27.524   3.191
93980W        W57737   1.358  10.351   9.951
93981W        W57738  27.571  18.245   2.769
93982W        W57739   6.795  21.065   0.844
93983W        W57740  19.669  24.184   3.211
93984W        W57741  34.559  29.140   3.862
93985W        W57742  17.132  31.581  11.120
93986W        W57743  36.352  41.938  13.328
93987W        W57744  43.474  26.695  11.021
93988W        W57745  13.707  36.868   2.790
93989W        W57746  23.662  43.015   2.214
93990W        W57747  18.686  31.103   3.248
93991W        W57748  44.305   9.220   9.937
93992W        W57749   5.396  29.441  11.577
93993W        W57750  35.578  40.371  10.892
93994W        W57751  21.597  30.123  12.427
93995W        W57752  15.086  28.992  13.342
93996W        W57753  27.465   6.736  13.822
93997W        W57754  38.900   3.865  10.891
93998W        W57755  35.598  28.935   1.869
93999W        W57756  35.938   9.646  10.983
94000W        W57757  40.946  34.037  14.392
94001W        W57758  26.007  15.137   3.363
94002W        W57759  23.562   8.773   3.161
94003W        W57760  40.983  17.600  10.973
94004W        W57761  12.117  41.520  13.821
94005W        W57762  37.402  17.195  12.833
94006W        W57763  32.435  34.894   1.404
94007W        W57764  21.073  27.967   5.091
94008W        W57765  33.032   6.797   3.213
94009W        W57766   3.746  27.678  11.613
94010W        W57767  11.638  36.475  10.986
94011W        W57768  20.662  22.064  11.531
94012W        W57769  23.183  29.567  11.972
94013W        W57770  12.630  19.745   0.797
94014W        W57771  33.566   8.728   4.189
94015W        W57772  36.371  22.730  14.351
94016W        W57773  24.642   2.854  11.933
94017W        W57774  24.229   3.834   0.336
94018W        W57775  12.849   9.730  11.889
94019W        W57776  31.996   0.493  14.480
94020W        W57777  33.394   0.313   0.927
94021W        W57778  33.426  41.953   2.324
94022W        W57779  31.513  22.212  11.602
94023W        W57780  14.098  28.598   4.828
94024W        W57781  16.757  14.833   9.470
94025W        W57782  24.717  18.233   0.742
94026W        W57783  40.892  32.995  10.476
94027W        W57784   8.378  32.416  10.610
94028W        W57785  18.089  27.168   4.310
94029W        W57786  13.171   7.759  12.497
94030W        W57787  10.670  10.153   2.388
94031W        W57788  42.022  13.804   2.302
94032W        W57789  40.989   5.824   0.372
94033W        W57790  36.540  10.340   3.226
94034W        W57791  22.510  35.895   1.826
94035W        W57792  24.506   3.757   0.346
94036W        W57793   8.173  13.758  13.960
94037W        W57794  31.076  25.676   2.845
94038W        W57795  38.566  34.989   3.162
94039W        W57796   5.369  18.294   1.329
94040W        W57797  12.334  13.127  12.383
94041W        W57798  41.484  12.733   1.235
94042W        W57799  28.614  37.417  11.599
94043W        W57800  27.504  35.915   3.817
94044W        W57801  17.682  35.456  12.861
94045W        W57802  35.976  38.865   3.156
94046W        W57803   1.845  40.546  11.519
94047W        W57804  19.077  30.920   4.656
94048W        W57805   4.364  22.651   2.253
94049W        W57806   5.833   4.352  10.426
94050W        W57807  41.343  25.057  14.314
94051W        W57808  39.927  14.183   4.310
94052W        W57809  41.019   3.859   1.786
94053W        W57810   9.717  30.582  12.997
94054W        W57811   3.716  41.834   4.791
94055W        W57812  20.528  31.452   1.375
94056W        W57813   4.212  23.545   0.406
94057W        W57814  32.900  20.538   1.912
94058W        W57815  22.625  42.881  10.537
94059W        W57816  25.122  28.040  11.567
94060W        W57817  41.882  44.961  14.975
94061W        W57818  42.888  20.093  10.891
94062W        W57819  39.538  12.729  14.470
94063W        W57820   9.338  33.622  13.325
94064W        W57821   3.269  26.614  10.478
94065W        W57822  38.478  14.688  12.869
94066W        W57823  31.145  30.509   5.190
94067W        W57824  22.129  24.158   4.793
94068W        W57825  40.350  28.656  12.004
94069W        W57826  28.948  22.630  12.911
94070W        W57827  32.621  12.238  14.348
94071W        W57828  33.014  41.817   4.194
94072W        W57829  44.772  12.158  11.120
94073W        W57830  44.281  12.319  14.352
94074W        W57831   2.881  26.117  11.475
94075W        W57832  33.949   5.349   4.822
94076W        W57833  21.665   3.460   5.299
94077W        W57834  17.767  36.855   4.598
94078W        W57835  33.059  44.287  11.911
94079W        W57836  34.024   8.341  14.388
94080W        W57837   0.759  16.738  14.900
94081W        W57838  33.483  23.155  12.948
94082W        W57839  22.030   7.903   1.910
94083W        W57840   7.186  16.789   1.261
94084W        W57841  18.186  15.300   1.270
94085W        W57842  41.366  36.364   0.873
94086W        W57843  21.168  41.947   2.360
94087W        W57844  31.939  18.282   4.319
94088W        W57845  34.120  38.413   3.185
94089W        W57846  17.145  31.115   2.831
94090W        W57847  29.039  44.816   0.903
94091W        W57848  29.655  12.751  11.443
94092W        W57849  20.637   7.738  11.446
94093W        W57850  16.695   4.807   1.303
94094W        W57851  33.565  36.418   0.742
94095W        W57852  44.907   7.269   4.664
94096W        W57853  39.025  16.285   1.289
94097W        W57854  37.426  34.498  11.434
94098W        W57855  39.324  32.049  14.794
94099W        W57856   1.374  25.203  12.533
94100W        W57857  26.029  44.407   1.707
94101W        W57858  38.493  14.631  13.997
94102W        W57859  32.637  20.240  11.857
94103W        W57860  26.585   5.829   2.182
94104W        W57861  41.515   2.906  13.894
94105W        W57862  10.746  23.987  11.071
94106W        W57863  15.622   6.340   3.338
94107W        W57864   6.901  43.937   2.406
94108W        W57865   8.894   4.217   1.768
94109W        W57866   7.758  34.931   1.220
94110W        W57867  41.851  21.170   3.786
94111W        W57868  23.553  24.087  14.340
94112W        W57869  13.695  21.074  14.456
94113W        W57870  34.502  10.158   2.182
94114W        W57871  44.820  11.827   3.207
94115W        W57872  17.162  17.691  13.345
94116W        W57873  38.054  14.598   2.847
94117W        W57874  18.218  36.396   1.858
94118W        W57875  18.593  31.128  13.889
94119W        W57876  15.599  33.453  10.547
94120W        W57877  14.684  41.942  14.313
94121W        W57878  33.007  31.088   2.307
94122W        W57879  18.774   7.220  13.979
94123W        W57880  23.653  10.818  11.011
94124W        W57881  41.466  23.004  12.547
94125W        W57882  27.961  14.599   0.288
94126W        W57883   8.230  34.111  14.461
94127W        W57884   1.899  27.462   0.483
94128W        W57885  38.436  16.713   0.881
94129W        W57886  17.289   1.435   0.813
94130W        W57887  39.468  24.108   2.847
94131W        W57888   2.923   5.263  14.462
94132W        W57889  39.392  21.079   4.191
94133W        W57890  24.199  30.464  12.876
94134W        W57891  26.063  13.716   5.112
94135W        W57892  33.562   2.281  12.996
94136W        W57893  11.201  15.240  11.991
94137W        W57894  21.242  42.011   0.253
94138W        W57895  36.031   2.786   4.239
94139W        W57896  43.858   5.421  10.943
94140W        W57897  17.265  19.044  11.020
94141W        W57898  10.657  14.178  12.353
94142W        W57899   4.229  19.096   3.238
94143W        W57900  41.895  25.708   3.721
94144W        W57901  24.156  27.568  14.913
94145W        W57902  24.195  37.470  10.121
94146W        W57903   9.851  39.408  11.888
94147W        W57904  29.029  29.998   4.611
94148W        W57905  30.624   1.783  11.968
94149W        W57906   0.803   8.380   2.761
94150W        W57907  11.830   0.491   4.217
94151W        W57908  12.701  30.526  10.610
94152W        W57909  40.526   6.230   3.303
94153W        W57910  15.285   2.424   4.243
94154W        W57911  22.998  25.479   4.756
94155W        W57912  36.939   5.274   2.887
94156W        W57913  14.096  21.551  12.398
94157W        W57914  16.791  13.172  14.306
94158W        W57915  11.135  11.831   2.185
94159W        W57916  33.941  27.983   1.331
94160W        W57917   4.785  25.540  14.959
94161W        W57918   1.925  17.716   1.786
94162W        W57919  12.135  28.502  11.949
94163W        W57920   0.389  17.274   0.323
94164W        W57921  29.995  21.044  11.608
94165W        W57922  33.100  37.866   3.354
94166W        W57923   5.278  32.074  14.027
94167W        W57924   8.855  21.547   1.724
94168W        W57925  38.473  19.601   2.244
94169W        W57926  11.759  22.187  13.920
94170W        W57927  40.961  29.604  13.980
94171W        W57928  21.167  43.447  12.514
94172W        W57929  30.555  11.237  13.880
94173W        W57930  29.175  23.997  12.448
94174W        W57931   3.426  14.315   0.931
94175W        W57932  25.515  40.389   0.917
94176W        W57933  42.319  40.456  12.430
94177W        W57934  10.817  27.618   1.777
94178W        W57935  18.110  27.943  11.025
94179W        W57936   1.396  37.363   1.406
94180W        W57937  30.999  39.322   0.783
94181W        W57938   2.752  36.847   0.752
94182W        W57939  12.631  38.970  10.580
94183W        W57940   3.282  12.208  10.560
94184W        W57941  32.962  35.974  13.036
94185W        W57942  25.476  43.431   4.776
94186W        W57943  20.641  26.207  11.471
94187W        W57944  18.131  14.303  13.899
94188W        W57945  12.295  17.281  13.850
94189W        W57946  37.936  10.773   4.768
94190W        W57947  29.075  26.056   2.844
94191W        W57948  27.009  24.499   3.642
94192W        W57949  43.951  27.467  14.422
94193W        W57950   1.366   3.823   1.261
94194W        W57951  28.503  15.124   2.331
94195W        W57952  40.391  44.955   2.754
94196W        W57953  12.720  21.697   0.939
94197W        W57954   7.852  30.491  12.921
94198W        W57955   6.765  42.359  11.488
94199W        W57956  28.102   0.337   1.752
94200W        W57957  34.081   8.802   2.412
94201W        W57958   3.886   6.704   0.360
94202W        W57959  39.870  40.991  14.948
94203W        W57960   8.265  43.447   0.354
94204W        W57961  31.632   9.243  13.382
94205W        W57962  14.780  32.098   0.244
94206W        W57963  32.474  15.097  12.505
94207W        W57964  10.864  43.319   0.894
94208W        W57965  22.688  26.187   4.801
94209W        W57966   1.921  33.521  13.817
94210W        W57967   2.307  21.064  14.316
94211W        W57968   6.922  18.066  12.487
94212W        W57969  29.944  23.518   0.411
94213W        W57970  43.384  38.427  12.427
94214W        W57971   6.841  19.587   4.659
94215W        W57972  20.193  37.489  14.367
94216W        W57973   5.696  16.617   4.299
94217W        W57974  17.191  12.188  12.974
94218W        W57975   2.399  27.952   2.743
94219W        W57976   3.431  15.686  12.539
94220W        W57977   9.663  15.269  12.546
94221W        W57978  12.152  38.982  13.383
94222W        W57979  40.312   2.811   0.284
94223W        W57980  29.041   8.742  14.435
94224W        W57981  35.047  20.556   1.386
94225W        W57982  44.791  26.952   1.224
94226W        W57983  16.137  41.472  12.577
94227W        W57984  22.024  10.674   3.304
94228W        W57985   5.325  34.041   4.740
94229W        W57986  21.628  44.785  13.520
94230W        W57987   6.285   7.374   4.155
94231W        W57988   7.770   3.748   0.783
94232W        W57989  28.028   2.348  12.434
94233W        W57990  39.559  10.730  14.821
94234W        W57991  36.052  10.171   0.297
94235W        W57992  11.839   5.222   0.838
94236W        W57993  44.375  32.922   3.294
94237W        W57994  40.890  35.536   0.764
94238W        W57995  23.209   1.381   4.798
94239W        W57996  19.077  23.594  13.839
94240W        W57997  17.559  42.424  10.476
94241W        W57998  11.860  24.536   4.228
94242W        W57999  14.760  41.835  13.016
94243W        W58000  24.123  33.621  12.842
94244W        W58001  41.792   3.354   0.328
94245W        W58002  25.672  37.404   1.254
94246W        W58003   5.328  37.881  10.910
94247W        W58004  30.996  14.645   3.842
94248W        W58005  23.698  14.177  10.503
94249W        W58006  25.473  35.388   3.827
94250W        W58007  16.246  43.480  12.347
94251W        W58008  25.174  28.668   4.231
94252W        W58009  30.486  29.566  11.480
94253W        W58010   1.292  21.605  11.120
94254W        W58011  24.208  19.267  14.846
94255W        W58012   9.232  42.453   2.737
94256W        W58013  33.503  38.349   1.356
94257W        W58014   6.367  34.488  10.041
94258W        W58015  15.281  38.369  10.958
94259W        W58016  22.162  22.546  14.894
94260W        W58017  22.683  14.332  10.439
94261W        W58018  40.518   1.413   1.344
94262W        W58019  31.108  19.765   1.910
94263W        W58020  33.419  26.693   0.785
94264W        W58021   5.889  35.060   0.256
94265W        W58022  22.746  12.241  13.468
94266W        W58023  22.158  24.218   0.746
94267W        W58024   7.727  37.959  12.856
94268W        W58025  25.201  29.085   4.665
94269W        W58026   0.921  14.297  12.460
94270W        W58027   0.893  20.090   4.167
94271W        W58028  11.173  15.739   3.686
94272W        W58029  14.727   0.978  14.948
94273W        W58030  14.665  23.028  10.597
94274W        W58031  22.729  15.718   3.297
94275W        W58032   8.178  39.041  10.903
94276W        W58033  34.118   8.306  12.413
94277W        W58034  13.732  36.918  13.952
94278W        W58035  28.092  24.691  11.514
94279W        W58036   4.786   0.852   4.128
94280W        W58037  11.795  32.628   3.784
94281W        W58038  21.639  40.384   2.254
94282W        W58039  21.029  36.977   1.780
94283W        W58040   3.453  13.792   1.722
94284W        W58041   7.696  28.186  11.885
94285W        W58042  22.722  16.308   9.970
94286W        W58043  13.787  22.240   2.861
94287W        W58044  21.158  41.981   2.756
94288W        W58045  41.294  40.954  11.490
94289W        W58046   4.397  33.408   1.451
94290W        W58047  31.033  12.150   2.750
94291W        W58048  40.518  42.298   4.790
94292W        W58049  28.103  33.456   2.320
94293W        W58050   3.360  14.805   1.245
94294W        W58051  13.765  20.706  13.908
94295W        W58052  17.076  29.131   0.742
94296W        W58053  17.288   8.848   5.111
94297W        W58054   7.675  28.514   1.730
94298W        W58055  12.805  13.640  12.096
94299W        W58056  17.651   0.878   5.106
94300W        W58057  41.951  26.485   3.779
94301W        W58058  34.503  42.899  12.857
94302W        W58059   6.825   8.765   4.822
94303W        W58060   3.383   3.765   1.741
94304W        W58061  27.074  42.506  14.291
94305W        W58062  36.384  26.700  10.004
94306W        W58063  33.926  40.369  14.760
94307W        W58064   7.253  30.125   3.377
94308W        W58065  40.420  21.672  13.928
94309W        W58066  28.134  32.490   1.438
94310W        W58067  26.197   3.261   4.273
94311W        W58068   5.201  21.239  13.944
94312W        W58069   4.701  18.586   1.395
94313W        W58070  13.142   5.282  10.922
94314W        W58071  33.379  31.920  14.845
94315W        W58072  19.738  16.616   4.751
94316W        W58073   2.782  21.665  11.418
94317W        W58074  22.031  11.640  13.004
94318W        W58075  18.674  24.130  11.373
94319W        W58076  42.330  18.150  12.533
94320W        W58077  43.448  16.758   1.749
94321W        W58078  19.267  18.258  13.522
94322W        W58079  31.611  34.408  10.464
94323W        W58080   0.869  33.925   2.780
94324W        W58081  44.801   9.273  12.466
94325W        W58082   3.349   2.256   0.786
94326W        W58083  29.139   8.294   1.315
94327W        W58084  34.490  12.247   4.693
94328W        W58085  20.708  15.680   4.261
94329W        W58086  10.801   8.312   2.247
94330W        W58087  40.833  28.536   0.261
94331W        W58088  39.327  33.493   0.866
94332W        W58089  34.507  37.977   1.230
94333W        W58090  39.062  24.543  11.574
94334W        W58091  36.090  32.478  11.909
94335W        W58092  24.978  18.738   0.374
94336W        W58093  39.560  39.543  10.617
94337W        W58094  17.222   5.815   4.701
94338W        W58095  37.476  43.777   2.386
94339W        W58096  35.010  36.398  11.874
94340W        W58097  32.540   9.747   0.479
94341W        W58098  18.706   4.351  14.028
94342W        W58099  35.456  32.392   3.645
94343W        W58100   5.751  15.713  12.955
94344W        W58101  26.472  19.585   9.941
94345W        W58102  20.715  21.076  14.295
94346W        W58103   6.219   6.198   4.621
94347W        W58104  33.499  25.166  14.802
94348W        W58105  44.398  24.645  12.996
94349W        W58106  44.362  11.186  10.080
94350W        W58107   9.292  31.081  13.474
94351W        W58108  44.281  16.671  11.911
94352W        W58109  33.479  23.591   1.849
94353W        W58110  38.921  37.946  10.149
94354W        W58111   1.839  21.073  10.521
94355W        W58112   3.911  21.565  13.021
94356W        W58113  20.525  43.483  12.396
94357W        W58114   4.897   6.871   5.211
94358W        W58115  44.009  18.184   1.921
94359W        W58116   8.704  16.633   3.323
94360W        W58117  11.178  21.108   2.402
94361W        W58118  40.418   1.324  10.610
94362W        W58119  41.525  40.386  12.872
94363W        W58120   1.777  34.465  11.429
94364W        W58121  35.453   8.708  10.921
94365W        W58122  43.949   9.795  10.619
94366W        W58123   1.376   5.719  12.531
94367W        W58124  23.508  32.493  13.394
94368W        W58125  15.285   3.329  11.598
94369W        W58126  29.471   8.840  11.612
94370W        W58127  22.643  31.900  12.442
94371W        W58128  21.059   0.769  14.838
94372W        W58129  29.102  13.105   4.638
94373W        W58130  29.142   9.178  10.468
94374W        W58131  21.027  36.519  13.350
94375W        W58132  40.846   3.369   5.669
94376W        W58133   2.765   5.239  12.431
94377W        W58134   9.653   3.890   2.843
94378W        W58135  11.264  36.879  11.928
94379W        W58136  41.848  17.614   4.817
94380W        W58137  39.357  17.567  11.862
94381W        W58138  44.292  32.125  10.524
94382W        W58139  19.715  15.683  12.413
94383W        W58140  35.885  16.192  10.596
94384W        W58141  39.865  40.497   0.846
94385W        W58142  30.621  37.977  12.407
94386W        W58143  12.141  33.412   2.828
94387W        W58144  13.210  35.976  12.498
94388W        W58145   3.921  28.640   3.226
94389W        W58146  38.010  25.505   4.721
94390W        W58147  27.156  15.145  13.378
94391W        W58148   8.708   6.409   3.254
94392W        W58149  14.787  43.904   0.857
94393W        W58150   9.311   5.784  12.899
94394W        W58151  18.670   9.681   3.784
94395W        W58152  17.660   6.794   1.747
94396W        W58153  27.112   1.876  12.872
94397W        W58154   9.755  30.036  10.915
94398W        W58155  41.867  40.491  14.317
94399W        W58156  43.490  12.740   1.345
94400W        W58157   9.793  29.156  13.377
94401W        W58158  41.027  10.265   0.799
94402W        W58159  27.969  14.278  11.395
94403W        W58160  41.364  10.635  10.415
94404W        W58161  27.061   7.906   2.310
94405W        W58162   3.329   6.857  14.809
94406W        W58163  25.624  44.912   2.179
94407W        W58164  31.641  21.070  14.492
94408W        W58165  42.953   7.343  13.877
94409W        W58166  24.076  31.133  12.553
94410W        W58167  37.364  37.054   1.291
94411W        W58168  32.460  17.633  13.042
94412W        W58169  17.619  19.257  12.576
94413W        W58170   0.466  19.747  11.534
94414W        W58171  32.017   0.300   3.813
94415W        W58172  38.054  18.732  14.964
94416W        W58173   2.383   0.761   4.750
94417W        W58174  24.169  21.665  10.438
94418W        W58175  13.154  10.782  10.556
94419W        W58176  11.318   9.266   0.277
94420W        W58177   9.305  26.008  10.463
94421W        W58178   3.729  25.976   4.233
94422W        W58179  35.031  32.636  14.777
94423W        W58180  11.638   9.713  10.637
94424W        W58181  28.502  36.455  11.004
94425W        W58182   1.341  38.402  11.553
94426W        W58183  18.732  20.690   4.217
94427W        W58184  19.228  27.983   3.365
94428W        W58185  30.108  18.659  14.870
94429W        W58186  13.676  40.022   2.282
94430W        W58187  36.377  18.225   4.619
94431W        W58188  34.506  42.363  13.832
94432W        W58189  10.249   3.764   3.250
94433W        W58190  31.615   5.927  13.539
94434W        W58191  24.004  23.218   4.788
94435W        W58192  29.599  14.153   2.331
94436W        W58193   2.226  38.932   2.284
94437W        W58194  14.720  29.945   0.774
94438W        W58195  26.116   7.819   0.406
94439W        W58196  21.125  10.354   1.281
94440W        W58197  31.971  43.909   4.756
94441W        W58198   4.822   9.178  10.001
94442W        W58199  42.526   8.257  12.990
94443W        W58200   1.957  33.020  10.977
94444W        W58201  30.083  26.649   3.339
94445W        W58202   7.795  23.528  13.985
94446W        W58203  32.522  42.408   0.293
94447W        W58204   0.850  35.366   4.177
94448W        W58205  44.767  31.630   0.752
94449W        W58206  33.434   3.256   1.242
94450W        W58207  36.964  30.505  12.497
94451W        W58208  10.646   1.834  12.558
94452W        W58209  27.509  11.228   2.322
94453W        W58210  43.911  21.111   3.356
94454W        W58211  44.305  38.400   4.272
94455W        W58212  19.258  30.056  13.435
94456W        W58213   9.793  15.730   3.218
94457W        W58214   2.755  22.048   2.286
94458W        W58215   4.945  29.478   2.821
94459W        W58216  37.531   9.313  14.353
94460W        W58217  29.000  31.142  14.887
94461W        W58218  40.535  36.957   3.151
94462W        W58219  39.400  29.092  12.365
94463W        W58220  15.281   5.389   1.340
94464W        W58221  35.949   8.191   1.856
94465W        W58222  32.046  42.437   0.821
94466W        W58223  33.504  36.907   4.609
94467W        W58224  30.936  30.577   2.195
94468W        W58225  28.967  18.720   5.651
94469W        W58226   9.759  44.455  13.477
94470W        W58227   3.386  31.971  12.848
94471W        W58228  20.571  35.399   0.411
94472W        W58229  29.517   5.919   4.231
94473W        W58230  23.194  13.740   1.383
94474W        W58231   6.738  37.522  14.340
94475W        W58232  11.268  28.482  10.465
94476W        W58233  28.089  32.572  13.818
94477W        W58234  25.559   4.709   0.251
94478W        W58235  15.215   4.885   9.933
94479W        W58236  39.504   7.371   2.214
94480W        W58237  27.569  11.328   3.379
94481W        W58238  44.412   6.889  11.591
94482W        W58239   6.380   6.268  13.831
94483W        W58240  38.345  43.996   1.248
94484W        W58241  38.876   5.260  12.980
94485W        W58242  15.099  23.002   2.774
94486W        W58243  27.159  10.284  11.498
94487W        W58244   6.350  30.067  14.992
94488W        W58245  15.740  25.106   1.361
94489W        W58246  35.512  11.692   4.788
94490W        W58247  35.563  33.964  11.944
94491W        W58248  41.000  44.981   4.710
94492W        W58249  16.633  33.565  14.360
94493W        W58250  26.082   0.263  14.383
94494W        W58251  24.980   3.717   3.639
94495W        W58252  27.145  33.621   3.668
94496W        W58253  19.169  20.610   3.851
94497W        W58254  35.911  40.870  10.598
94498W        W58255   5.826  16.682  12.565
94499W        W58256   2.316  21.047   2.291
94500W        W58257  12.694   0.374   3.750
94501W        W58258  34.110  17.566   3.218
94502W        W58259  20.601  15.727   3.689
94503W        W58260   3.852  13.256   0.476
94504W        W58261  29.002   7.404   2.838
94505W        W58262  39.337  37.992   0.935
94506W        W58263   6.715  35.025  13.512
94507W        W58264  40.915  36.074  13.490
94508W        W58265  42.491  29.425   0.472
94509W        W58266  12.731  27.990  11.424
94510W        W58267   0.458  30.656  11.976
94511W        W58268  11.866  34.931  13.320
94512W        W58269  36.851   2.812  13.312
94513W        W58270  30.949  19.600  10.978
94514W        W58271  27.614  12.818   3.859
94515W        W58272   0.978  31.580  12.343
94516W        W58273  36.411   0.318   4.606
94517W        W58274  13.293   6.697  10.551
94518W        W58275  26.184  14.241   2.703
94519W        W58276  33.080  32.956  13.011
94520W        W58277  14.704  34.532   4.673
94521W        W58278  14.616   3.757   2.396
94522W        W58279  26.105  32.535   1.274
94523W        W58280  15.727  24.081  11.972
94524W        W58281   4.699   1.243  11.880
94525W        W58282  23.179  24.527  12.429
94526W        W58283   9.222  43.510   0.399
94527W        W58284   0.363  16.685   2.733
94528W        W58285  11.823  14.245  11.492
94529W        W58286  35.090  33.068  10.952
94530W        W58287   4.859   0.467   2.700
94531W        W58288  30.001  10.364   0.919
94532W        W58289  36.551  27.531   3.644
94533W        W58290   6.842   0.320  12.546
94534W        W58291   0.377  28.017   0.254
94535W        W58292   0.774   3.385   0.962
94536W        W58293  12.172  19.632  14.367
94537W        W58294  19.283   8.371   2.317
94538W        W58295  28.486  41.443   2.367
94539W        W58296   6.422  10.748   4.252
94540W        W58297  38.409   0.805   3.209
94541W        W58298  16.617  23.494   4.146
94542W        W58299   3.424   4.342  11.480
94543W        W58300  36.090  20.204  10.447
94544W        W58301  35.552  37.446  13.513
94545W        W58302  31.585  32.948  11.578
94546W        W58303  20.599  21.634  12.047
94547W        W58304  35.988  15.800  10.981
94548W        W58305  10.754  41.523   2.856
94549W        W58306  17.170  29.142  14.995
94550W        W58307  17.139  15.677   2.399
94551W        W58308  18.678  14.622  13.933
94552W        W58309  39.998  25.132  13.465
94553W        W58310  17.802  35.521   3.797
94554W        W58311  22.660  23.523  10.061
94555W        W58312   9.354  27.514  11.471
94556W        W58313   6.862   5.393  14.871
94557W        W58314  24.150  44.493   2.306
94558W        W58315  11.263  36.570   1.241
94559W        W58316  44.917  35.873  14.889
94560W        W58317  19.575   1.901  13.527
94561W        W58318   2.403  31.970  10.045
94562W        W58319  40.820   1.307  10.114
94563W        W58320  34.971   8.690  13.010
94564W        W58321   6.195  23.089   1.294
94565W        W58322  38.414  26.528   0.779
94566W        W58323  42.298  31.549   1.273
94567W        W58324  19.539  14.199   3.150
94568W        W58325  35.452  16.743  14.942
94569W        W58326   4.919   0.921   4.752
94570W        W58327  26.669  37.921  12.997
94571W        W58328   6.362   5.798   1.214
94572W        W58329  24.024  37.570   2.708
94573W        W58330  24.175   1.827  14.488
94574W        W58331  42.364   0.271   2.790
94575W        W58332  17.232  18.644   1.370
94576W        W58333   5.397   4.312  11.997
94577W        W58334   1.805  42.940   2.315
94578W        W58335  14.120  27.602  14.933
94579W        W58336  21.213  41.883  11.412
94580W        W58337  27.023  42.024  14.465
94581W        W58338  34.072  11.368   2.290
94582W        W58339  30.574   3.327   0.827
94583W        W58340  23.176   4.897   0.837
94584W        W58341  41.014  34.497  11.458
94585W        W58342  20.126  36.404   1.420
94586W        W58343   2.836  27.592  14.907
94587W        W58344  39.964   1.268   4.772
94588W        W58345  31.047  35.106  14.763
94589W        W58346  17.288  39.462   3.279
94590W        W58347  44.806  36.395  14.808
94591W        W58348  31.104  26.626  12.509
94592W        W58349  16.719  35.063  12.533
94593W        W58350  18.087  26.017   1.447
94594W        W58351  12.216  35.471  11.870
94595W        W58352  33.121  35.922   2.775
94596W        W58353   9.828  38.353  14.502
94597W        W58354   1.854  18.073   2.200
94598W        W58355   0.819  16.580   4.195
94599W        W58356  27.466  13.105  11.925
94600W        W58357  30.158  44.503  10.132
94601W        W58358  26.680  39.482  10.963
94602W        W58359  23.611   5.797  11.028
94603W        W58360   6.182  26.993  14.308
94604W        W58361  17.300  13.841   0.401
94605W        W58362  17.131  35.527  11.558
94606W        W58363  28.615  17.642   0.356
94607W        W58364  19.220  26.500  14.315
94608W        W58365  37.875  18.702   2.696
94609W        W58366  44.305  14.115  11.944
94610W        W58367  29.443   2.886   0.285
94611W        W58368  38.468  23.502  11.083
94612W        W58369   9.201  14.258   1.276
94613W        W58370  31.152  29.554  11.483
94614W        W58371  19.048   9.331   4.211
94615W        W58372  10.187  38.069  13.372
94616W        W58373  41.367  23.163   0.346
94617W        W58374  20.156  41.008   1.768
94618W        W58375   3.885  29.053   0.315
94619W        W58376  18.770  43.398   2.729
94620W        W58377  22.130  15.590  11.978
94621W        W58378  38.566  37.530   3.736
94622W        W58379  12.132  22.576   0.398
94623W        W58380  34.060  39.313  10.502
94624W        W58381  32.945   6.191  10.524
94625W        W58382   6.703  29.630  13.801
94626W        W58383  33.061  16.592   2.224
94627W        W58384  17.570  41.013   1.327
94628W        W58385   6.287  40.330   5.782
94629W        W58386  15.174  42.353   1.349
94630W        W58387   8.193  31.022  11.907
94631W        W58388  42.329   3.824   3.275
94632W        W58389   5.918  17.231  14.404
94633W        W58390  13.711   8.401  13.812
94634W        W58391  33.066  14.134  13.406
94635W        W58392   9.196   2.901  12.410
94636W        W58393  34.517  11.221   3.727
94637W        W58394  38.417  27.979   4.615
94638W        W58395  29.987  29.610  10.440
94639W        W58396  41.349   8.258  14.285
94640W        W58397  32.470  39.353   0.903
94641W        W58398   7.333  25.066   3.797
94642W        W58399  36.953  35.041  11.429
94643W        W58400   8.250   3.712   1.354
94644W        W58401  12.692  28.005   1.342
94645W        W58402  28.026   2.881   2.890
94646W        W58403   7.335  19.694  14.377
94647W        W58404  24.128  37.013   2.198
94648W        W58405  43.392   2.817   3.261
94649W        W58406  28.165  24.620   1.858
94650W        W58407  28.113   4.217   4.602
94651W        W58408  12.692  35.084   3.777
94652W        W58409  11.336  26.977   2.754
94653W        W58410  44.464  18.788  14.873
94654W        W58411  13.345  18.186   0.403
94655W        W58412  19.643   3.952   2.747
94656W        W58413  23.088  28.551  13.485
94657W        W58414   0.879  14.821   2.679
94658W        W58415  32.480  17.185  10.446
94659W        W58416  17.579  30.422  13.357
94660W        W58417  16.080   0.420   3.379
94661W        W58418  28.040  14.761   2.387
94662W        W58419  16.303  18.100   3.643
94663W        W58420  19.104  31.526   4.207
94664W        W58421  40.038  20.195   1.844
94665W        W58422  13.226   8.792  10.978
94666W        W58423  10.860   6.305  11.087
94667W        W58424  42.866  17.787  11.508
94668W        W58425  42.967  24.031  13.400
94669W        W58426  13.188  29.996  14.793
94670W        W58427   4.838  14.310  11.378
94671W        W58428  41.504  26.098  11.541
94672W        W58429  10.785  17.202  10.497
94673W        W58430  21.193   7.260  12.002
94674W        W58431  21.694  26.469  12.420
94675W        W58432   2.366  17.692  11.874
94676W        W58433  12.360   9.789   4.324
94677W        W58434   5.868  14.606  13.461
94678W        W58435   7.181  10.774  10.904
94679W        W58436  37.569  27.586   4.302
94680W        W58437  44.364  13.666   1.705
94681W        W58438  38.056  22.079   2.218
94682W        W58439  19.127   3.282  14.503
94683W        W58440  19.742  26.124  12.546
94684W        W58441  28.003  38.880  13.509
94685W        W58442  29.935   9.269   4.653
94686W        W58443  39.385  23.239  14.966
94687W        W58444  17.146  10.324  14.787
94688W        W58445  35.549  42.395  14.500
94689W        W58446   7.325  25.506  11.608
94690W        W58447  22.045  44.856   0.403
94691W        W58448  15.278  44.794  10.971
94692W        W58449  23.503  33.054  10.148
94693W        W58450  17.755  34.520  12.548
94694W        W58451  29.137  29.958  13.014
94695W        W58452   6.735  24.138   4.818
94696W        W58453  35.977  40.389   1.871
94697W        W58454  39.527  32.887  13.959
94698W        W58455  40.490  43.513  11.026
94699W        W58456   7.234  13.248   4.760
94700W        W58457   6.243  22.215   3.837
94701W        W58458  36.917   7.365   2.759
94702W        W58459  12.737  31.404  11.536
94703W        W58460  21.720   2.961  12.519
94704W        W58461   5.223   6.274   2.304
94705W        W58462   0.867  42.381  12.035
94706W        W58463  43.917  27.045  13.504
94707W        W58464  43.953  30.017   0.266
94708W        W58465   8.270  26.618   1.704
94709W        W58466  39.044  23.636   1.292
94710W        W58467  28.667  30.451   3.680
94711W        W58468  20.748   0.355  12.879
94712W        W58469   6.767  42.784   2.260
94713W        W58470   8.281  43.329   1.873
94714W        W58471   4.340  23.054  13.888
94715W        W58472  38.948   0.962  14.287
94716W        W58473  18.263  26.500  12.023
94717W        W58474  39.535   9.268   3.843
94718W        W58475  10.327   8.396   4.807
94719W        W58476  44.787   0.312   3.793
94720W        W58477   7.806  43.003  11.932
94721W        W58478  13.705   6.816  11.447
94722W        W58479  42.307  35.039  13.527
94723W        W58480  11.727  22.252   1.709
94724W        W58481  17.572   9.844   4.126
94725W        W58482  44.754  21.706   3.793
94726W        W58483  11.249  11.223  12.011
94727W        W58484   8.384  12.163   2.671
94728W        W58485  24.008  28.143  10.464
94729W        W58486  16.303  44.003   4.341
94730W        W58487   6.302  15.627   4.131
94731W        W58488   7.254  14.805   2.243
94732W        W58489   6.811  34.931   3.734
94733W        W58490   8.369  44.863   2.382
94734W        W58491  12.327  44.779  13.930
94735W        W58492  17.610  37.366  14.349
94736W        W58493  30.536   3.397   2.181
94737W        W58494   9.322   4.900   0.837
94738W        W58495  29.618   7.263   5.258
94739W        W58496  21.133  39.476  12.995
94740W        W58497  25.975  16.595   1.215
94741W        W58498  44.415  16.637  14.307
94742W        W58499  39.541  23.196   4.296
94743W        W58500  41.945  39.829  12.985
94744W        W58501  32.060  10.786  14.496
94745W        W58502  23.507  11.221  12.476
94746W        W58503  41.841  28.165  11.064
94747W        W58504  39.983  41.293   0.776
94748W        W58505  40.846  27.174   0.404
94749W        W58506   0.454  44.409   1.337
94750W        W58507  22.220  43.834  13.470
94751W        W58508  16.305  42.799   3.201
94752W        W58509  23.563   2.356   0.346
94753W        W58510  43.938  22.519   2.242
94754W        W58511  16.592  24.043  10.474
94755W        W58512  43.274   3.356   4.799
94756W        W58513   5.199   7.288   1.296
94757W        W58514  18.605  33.011  12.965
94758W        W58515  36.501  18.106  13.370
94759W        W58516  18.059   6.838  12.570
94760W        W58517  40.505  40.010  10.622
94761W        W58518  28.619  27.479  14.447
94762W        W58519  43.399  30.082  13.435
94763W        W58520  28.554  44.483   4.114
94764W        W58521  38.449   7.275   2.794
94765W        W58522   0.935  36.527  11.098
94766W        W58523  19.163   1.242   1.422
94767W        W58524  34.393  21.052  14.386
94768W        W58525  18.087  18.134   0.827
94769W        W58526  10.163   3.271   0.834
94770W        W58527  17.121   7.704   5.126
94771W        W58528  28.574  43.898  14.337
94772W        W58529  28.570  13.813  13.898
94773W        W58530  42.805  26.187  14.282
94774W        W58531  41.031  21.607   3.254
94775W        W58532   0.432  24.538  12.074
94776W        W58533  23.178  42.414  14.965
94777W        W58534   0.436  43.330  14.976
94778W        W58535   1.475  28.156   4.143
94779W        W58536  12.335  39.502   4.177
94780W        W58537  29.145  12.799  11.597
94781W        W58538  15.801   8.840  11.395
94782W        W58539  34.450   2.422   1.219
94783W        W58540   8.358  16.800  11.593
94784W        W58541  11.246  44.465  12.078
94785W        W58542  24.111  30.537   0.800
94786W        W58543  41.871  36.477   4.166
94787W        W58544  25.998  28.477   3.283
94788W        W58545  34.411  21.043   4.790
94789W        W58546   3.885  42.961   3.757
94790W        W58547  19.646   5.933  11.928
94791W        W58548  10.373  15.605  12.342
94792W        W58549   6.206  20.145  11.068
94793W        W58550  37.468  44.809  13.325
94794W        W58551  23.549  17.662   1.220
94795W        W58552   4.824   3.218   1.820
94796W        W58553  16.583  23.619   3.166
94797W        W58554  37.532  19.674  13.002
94798W        W58555   1.357  26.962  12.863
94799W        W58556   2.438   9.757  13.038
94800W        W58557  33.441  43.773  13.340
94801W        W58558  33.950   6.752   1.846
94802W        W58559  42.405   5.216  13.502
94803W        W58560  25.054  44.339  11.884
94804W        W58561   4.206  14.821  13.335
94805W        W58562  39.532  24.691  12.913
94806W        W58563  31.150  37.476  10.075
94807W        W58564  38.511  25.176   3.288
94808W        W58565   4.832  14.674  13.320
94809W        W58566  32.595   1.278  10.500
94810W        W58567  32.466  31.007   3.240
94811W        W58568  17.109   5.360   1.398
94812W        W58569  31.109  18.082   2.820
94813W        W58570  37.430   4.924  13.500
94814W        W58571  43.388   9.746  14.976
94815W        W58572  34.863  13.251  10.461
94816W        W58573   8.190  34.973   3.327
94817W        W58574   6.383  12.283   0.840
94818W        W58575  39.865  15.182  12.444
94819W        W58576   8.300   8.291   0.742
94820W        W58577   1.864  38.955   3.182
94821W        W58578  35.064  10.373   0.895
94822W        W58579  15.299  41.818   1.811
94823W        W58580  38.489  24.011  10.430
94824W        W58581  21.263  23.014   3.372
94825W        W58582  33.874  44.385  14.352
94826W        W58583  34.496  28.134  13.879
94827W        W58584  29.575  21.255  12.016
94828W        W58585   4.756  40.884  11.409
94829W        W58586  44.922   9.367   1.228
94830W        W58587  34.077   9.867  13.363
94831W        W58588  31.643  26.673  10.144
94832W        W58589  37.837  35.011   1.848
94833W        W58590  40.044  18.720  11.382
94834W        W58591  27.582   4.733   2.354
94835W        W58592   2.378  41.018   2.411
94836W        W58593  33.549  12.146   2.843
94837W        W58594  17.061  14.642  14.491
94838W        W58595  16.140   4.783  11.452
94839W        W58596  31.032  35.867  12.001
94840W        W58597   2.436   4.707   0.918
94841W        W58598   2.769  29.934   0.939
94842W        W58599  21.558   9.765   2.410
94843W        W58600  36.357  38.904  12.869
94844W        W58601   5.339   6.787  12.573
94845W        W58602   3.335   2.931   1.872
94846W        W58603  33.545  11.772   2.671
94847W        W58604  39.332   4.838  11.895
94848W        W58605  34.601  12.313  12.869
94849W        W58606   6.745  20.229  11.901
94850W        W58607  20.528   3.232  12.081
94851W        W58608   2.810  28.490   3.770
94852W        W58609  32.617   7.718  12.383
94853W        W58610  29.109  17.197   3.247
94854W        W58611   7.824   3.816  11.886
94855W        W58612  11.311  30.521   3.664
94856W        W58613   8.825   5.808   0.879
94857W        W58614   2.732  36.923   4.798
94858W        W58615  28.467  11.686   4.649
94859W        W58616   9.271   3.334  13.455
94860W        W58617  21.545   3.777   2.179
94861W        W58618  19.095  12.333  11.535
94862W        W58619  38.984  19.742   1.382
94863W        W58620  41.973  15.774   0.948
94864W        W58621  27.015  35.439   1.359
94865W        W58622   9.728  25.146   4.270
94866W        W58623  44.430   2.891  13.457
94867W        W58624  12.266   9.163   3.302
94868W        W58625  26.565  36.080  12.507
94869W        W58626  30.051  42.472   0.893
94870W        W58627   4.943  38.429   1.737
94871W        W58628  13.223  23.204   1.763
94872W        W58629  20.633  41.879  14.002
94873W        W58630  34.027   4.759   0.819
94874W        W58631  34.989  43.837   4.216
94875W        W58632  41.483  23.610  14.775
94876W        W58633  19.231  44.444  12.426
94877W        W58634  35.038  32.625   4.837
94878W        W58635  40.871   1.297  14.991
94879W        W58636  34.970  40.341   0.859
94880W        W58637  36.448  34.386   2.248
94881W        W58638  21.553  19.707   4.294
94882W        W58639  40.468  11.369  10.894
94883W        W58640  17.298   7.902   0.963
94884W        W58641  28.482  10.726   3.156
94885W        W58642  15.644  30.164  13.925
94886W        W58643  32.623  23.022   1.912
94887W        W58644  17.660  38.333   3.736
94888W        W58645  40.055   2.929  11.081
94889W        W58646  11.320  37.578   1.829
94890W        W58647   4.943  44.325  12.973
94891W        W58648   5.226  38.491  11.122
94892W        W58649   8.228  19.619  11.951
94893W        W58650   2.346  42.297  12.529
94894W        W58651  18.599  24.524   0.346
94895W        W58652  22.234   2.340   4.212
94896W        W58653  16.656  31.035   4.650
94897W        W58654  39.415   1.802   1.892
94898W        W58655  19.149  29.036   4.756
94899W        W58656  24.578  27.079  11.875
94900W        W58657  19.587  20.627  13.469
94901W        W58658  11.748  44.423  11.393
94902W        W58659   9.345  40.965   1.222
94903W        W58660  19.130   3.273  13.799
94904W        W58661  19.739  44.810   4.824
94905W        W58662  10.273   9.274   4.659
94906W        W58663  40.863  39.866   1.306
94907W        W58664  26.952  37.967  10.919
94908W        W58665  13.287   0.485   2.826
94909W        W58666  39.939  44.960   2.268
94910W        W58667  43.468  24.220  12.030
94911W        W58668  35.525   5.377   4.155
94912W        W58669   5.240  29.479   2.793
94913W        W58670   0.806   7.867  11.493
94914W        W58671  18.729  16.684  11.560
94915W        W58672  27.502  41.331   3.224
94916W        W58673  38.864  23.160  13.059
94917W        W58674   7.310  37.362  13.949
94918W        W58675  12.188  36.577  13.846
94919W        W58676  37.367  10.333   2.835
94920W        W58677  29.613  20.248  10.893
94921W        W58678  44.943  35.457  14.891
94922W        W58679   1.367  18.761  12.530
94923W        W58680  15.209  41.984  12.948
94924W        W58681   5.779  23.210   1.789
94925W        W58682  31.405  22.231  13.443
94926W        W58683  27.151  22.024   3.671
94927W        W58684  16.801   6.184  12.967
94928W        W58685  40.947  16.253   2.281
94929W        W58686  19.655  20.245  10.987
94930W        W58687  41.916  35.466   4.337
94931W        W58688  34.954  28.583  14.334
94932W        W58689   7.708  19.744  14.337
94933W        W58690   6.222  33.567   2.387
94934W        W58691  27.624   4.308   3.646
94935W        W58692  29.990  10.319  14.315
94936W        W58693   7.734   4.411   0.326
94937W        W58694  10.175  28.595   3.385
94938W        W58695  13.282  14.227   4.168
94939W        W58696  25.148  14.269   4.274
94940W        W58697  34.483  35.983   2.331
94941W        W58698  31.960  44.790  12.399
94942W        W58699  17.212  23.012  12.481
94943W        W58700  19.659  26.129  13.392
94944W        W58701  31.618   4.936   4.626
94945W        W58702   0.331  41.883   4.184
94946W        W58703  27.005  36.535  11.126
94947W        W58704  40.305  40.816   2.265
94948W        W58705   0.298  19.640  10.506
94949W        W58706   0.324   4.907   4.323
94950W        W58707  22.171   4.788   2.730
94951W        W58708   0.751  13.314  14.314
94952W        W58709   6.822   9.281  10.408
94953W        W58710  35.381  43.381  10.939
94954W        W58711  12.708   9.803  12.839
94955W        W58712  29.109  39.559   0.335
94956W        W58713  38.385   1.911  10.151
94957W        W58714  11.853  11.294   1.857
94958W        W58715  12.351  41.495   4.247
94959W        W58716  23.177  20.534   4.831
94960W        W58717  19.553   0.483   2.333
94961W        W58718  35.489   9.155  10.598
94962W        W58719  41.332  32.594  13.437
94963W        W58720  37.004  14.590  11.457
94964W        W58721  13.762   5.820   0.461
94965W        W58722  13.748  33.558  12.970
94966W        W58723  27.125  44.466  10.914
94967W        W58724  30.951  39.893  13.979
94968W        W58725  36.420  29.554   0.417
94969W        W58726   2.289  29.978  13.810
94970W        W58727   9.338  25.472  10.966
94971W        W58728  19.175  39.482  13.056
94972W        W58729  41.819  10.653   0.841
94973W        W58730  38.358  18.185   1.213
94974W        W58731  33.487  30.658  11.088
94975W        W58732   5.363   5.823   2.224
94976W        W58733  12.288  13.327   2.781
94977W        W58734  25.121   1.404  13.388
94978W        W58735  25.543  13.610   0.782
94979W        W58736  18.569  44.392  10.414
94980W        W58737  21.198  23.022   0.939
94981W        W58738  24.563   2.342  12.087
94982W        W58739   1.929  33.878   2.858
94983W        W58740  42.312   5.326   0.846
94984W        W58741  37.515  34.601  10.431
94985W        W58742  25.501  36.466   0.252
94986W        W58743  38.491  19.689   2.876
94987W        W58744  12.736  22.716  14.758
94988W        W58745  20.154  40.457   1.819
94989W        W58746  35.065  44.471  13.859
94990W        W58747  30.052  26.039   0.259
94991W        W58748  35.405  20.569  14.772
94992W        W58749   4.242  27.683  12.908
94993W        W58750  32.886  26.578  13.924
94994W        W58751  42.015  38.939  13.811
94995W        W58752  25.154   8.692   4.300
94996W        W58753  26.618  27.460   2.772
94997W        W58754  30.991   4.733  13.029
94998W        W58755   5.377  28.059   1.380
94999W        W58756  37.067  43.991  12.054
95000W        W58757  34.615  19.570   1.327
95001W        W58758  29.513   1.779  11.508
95002W        W58759  29.071  24.676  13.792
95003W        W58760   2.820  40.975  10.558
95004W        W58761  41.792   1.800   0.438
95005W        W58762  10.336  23.160  13.374
95006W        W58763  23.014  26.611  10.642
95007W        W58764  23.523  31.620   3.353
95008W        W58765  10.157  37.353   5.196
95009W        W58766   4.803  21.263  12.064
95010W        W58767   5.310   3.953  12.901
95011W        W58768  16.608  29.123  13.024
95012W        W58769  19.550  12.191  12.864
95013W        W58770  26.989  28.067   1.438
95014W        W58771   7.682  28.665   3.862
95015W        W58772  18.295  36.477  10.975
95016W        W58773  16.307  20.606  13.052
95017W        W58774   8.866  27.972  13.807
95018W        W58775  41.814  14.147   1.431
95019W        W58776  21.051  29.465  14.421
95020W        W58777  21.707  21.157  12.962
95021W        W58778  41.441  32.393  12.426
95022W        W58779  37.581  33.874  14.276
95023W        W58780  23.575  18.611  13.353
95024W        W58781   7.809  36.990   0.812
95025W        W58782  30.072   6.205   4.258
95026W        W58783  27.477  32.596   0.745
95027W        W58784  27.668   2.358  11.040
95028W        W58785  44.415  43.374  14.026
95029W        W58786  14.628  26.184   3.197
95030W        W58787  29.938  44.963   4.278
95031W        W58788   3.381  21.180   3.252
95032W        W58789  10.744  19.623   2.762
95033W        W58790  31.104   5.798   3.265
95034W        W58791  15.744   2.722   3.750
95035W        W58792  20.060  37.898  10.443
95036W        W58793  41.366  31.980  13.450
95037W        W58794  14.317   8.350  11.124
95038W        W58795   1.944  38.841  12.477
95039W        W58796   3.896  16.617   4.702
95040W        W58797  31.475   8.263   2.215
95041W        W58798  16.154  23.116  12.954
95042W        W58799  15.720  37.402   0.833
95043W        W58800  44.410  20.158  12.026
95044W        W58801  20.224  44.778   1.250
95045W        W58802  12.717  12.232   1.765
95046W        W58803  15.661   4.880   5.100
95047W        W58804  27.949   1.850  11.955
95048W        W58805  19.162  27.456   0.297
95049W        W58806  25.493  30.058  10.565
95050W        W58807  26.565   4.426  14.967
95051W        W58808   9.284  33.498   1.346
95052W        W58809  13.659  28.511   2.237
95053W        W58810  23.644   4.397  12.059
95054W        W58811  27.980  19.198   1.302
95055W        W58812  33.880  30.926   3.794
95056W        W58813  25.136   7.768   2.348
95057W        W58814  33.417   0.312   2.273
95058W        W58815  31.022  44.969   3.175
95059W        W58816  37.004  32.561   2.891
95060W        W58817  32.489  29.975  12.542
95061W        W58818  42.859   5.216   2.331
95062W        W58819  13.284  43.979  14.022
95063W        W58820   6.347  32.518   0.442
95064W        W58821  43.376  10.853   3.236
95065W        W58822   9.855  16.608   0.278
95066W        W58823  18.227  19.216   3.704
95067W        W58824  28.116  37.005  13.464
95068W        W58825  38.418   6.894   3.853
95069W        W58826   8.253  19.137  10.948
95070W        W58827  14.635  27.188  11.004
95071W        W58828  17.725  19.688  11.111
95072W        W58829  25.068   6.916  14.377
95073W        W58830  37.464   1.840  11.089
95074W        W58831  44.968  34.000  14.967
95075W        W58832  28.108  10.242  11.104
95076W        W58833  26.205  34.412   0.876
95077W        W58834   8.679  18.771  10.038
95078W        W58835  36.378   6.895  14.409
95079W        W58836   4.944  11.658   0.449
95080W        W58837  19.649   6.761  10.621
95081W        W58838  34.114  38.332  11.384
95082W        W58839  17.706   7.328  13.872
95083W        W58840   8.753  28.155   4.209
95084W        W58841  20.081  31.961   2.872
95085W        W58842  17.694   6.387   1.701
95086W        W58843   5.766  10.228  13.822
95087W        W58844  13.834  35.037   3.250
95088W        W58845  40.963  31.550  14.326
95089W        W58846  26.585   3.286   0.759
95090W        W58847  31.493  18.236   3.152
95091W        W58848  43.790  43.881   3.695
95092W        W58849   6.252   8.319   4.653
95093W        W58850  42.379  42.977  14.466
95094W        W58851  19.216   6.295  11.988
95095W        W58852  14.135   4.394   1.324
95096W        W58853  22.639  26.496  12.848
95097W        W58854  43.843   8.339   4.695
95098W        W58855   7.284  26.537  11.970
95099W        W58856   3.945  31.447   0.467
95100W        W58857   6.198  27.167   3.278
95101W        W58858  18.558  15.176   1.383
95102W        W58859  14.676  32.516  12.454
95103W        W58860  11.800  17.616  13.378
95104W        W58861  31.984  40.052   1.364
95105W        W58862  24.606  32.097  11.006
95106W        W58863  24.701  19.150   4.609
95107W        W58864  14.668   3.268  13.875
95108W        W58865  21.216  25.075  12.086
95109W        W58866  21.095  39.513   2.214
95110W        W58867  42.836  24.986   2.330
95111W        W58868  12.636   2.281  14.374
95112W        W58869  39.353  18.699  13.803
95113W        W58870  44.925  40.490  13.837
95114W        W58871  11.267   7.281  13.005
95115W        W58872  14.657  38.945  11.004
95116W        W58873  17.563  21.638   4.631
95117W        W58874  26.666  28.458   4.247
95118W        W58875  32.980  35.591  12.536
95119W        W58876   7.350  32.141  10.462
95120W        W58877  31.111  25.675   3.774
95121W        W58878   8.376  15.789   1.380
95122W        W58879  19.674   2.378   1.695
95123W        W58880  33.479  36.547   3.159
95124W        W58881  26.569  10.196  14.451
95125W        W58882  26.982  28.930  10.966
95126W        W58883  25.158  30.951  12.085
95127W        W58884  15.302  15.091   5.115
95128W        W58885   5.204  12.362  12.849
95129W        W58886  32.550  26.517   1.282
95130W        W58887  39.965   3.894  14.361
95131W        W58888  12.618  44.895  10.964
95132W        W58889   0.823   6.244  10.517
95133W        W58890  31.004  38.028  14.779
95134W        W58891   1.374  30.551   3.296
95135W        W58892  26.148  22.023  12.359
95136W        W58893  31.059  14.695   4.272
95137W        W58894  11.632  25.683   2.364
95138W        W58895   5.821  14.728  11.467
95139W        W58896  14.591  26.955  13.498
95140W        W58897  36.553  26.992   4.350
95141W        W58898  16.191  38.021   0.915
95142W        W58899  35.373  41.312   2.390
95143W        W58900  40.461  31.598   3.822
95144W        W58901  24.590   6.733  10.579
95145W        W58902  41.490  33.041  11.592
95146W        W58903  35.534  41.463   0.466
95147W        W58904  17.189  28.134  14.336
95148W        W58905  21.721  20.209   1.228
95149W        W58906  32.082   5.409  12.460
95150W        W58907   0.963  10.696  10.489
95151W        W58908   9.375  31.498   4.342
95152W        W58909  30.470  33.892   2.387
95153W        W58910  31.948  34.577  14.377
95154W        W58911  38.846  40.353   0.733
95155W        W58912  24.227  39.474  11.431
95156W        W58913  23.539   8.312  13.963
95157W        W58914  33.452   7.881  14.007
95158W        W58915  13.610  10.233   3.347
95159W        W58916  38.073  22.150   1.739
95160W        W58917  32.453  42.381  14.480
95161W        W58918  35.475   3.901  12.435
95162W        W58919  33.122  11.367   4.838
95163W        W58920  41.407   2.463   4.292
95164W        W58921  21.167  15.258  11.510
95165W        W58922  34.609   1.784   2.308
95166W        W58923   1.432  41.493  11.449
95167W        W58924  32.000   5.918  13.890
95168W        W58925  41.349   7.409  10.541
95169W        W58926  27.523   1.265  10.949
95170W        W58927   5.235   3.262  12.892
95171W        W58928  18.182  40.525  11.923
95172W        W58929  10.845  23.629  11.890
95173W        W58930  43.360  17.300  13.942
95174W        W58931  21.174  12.753  14.425
95175W        W58932  25.562  28.669   1.391
95176W        W58933  26.671   0.851   2.306
95177W        W58934  33.075  19.222   0.308
95178W        W58935  19.577  11.166   2.772
95179W        W58936   1.815  16.118  12.940
95180W        W58937  40.833   8.711   3.805
95181W        W58938  44.842  41.918  13.526
95182W        W58939  16.272  37.373   5.208
95183W        W58940  24.168  40.875  13.812
95184W        W58941  31.477  12.247   3.776
95185W        W58942   5.891  27.057   0.366
95186W        W58943   1.306  40.955  11.895
95187W        W58944  13.210  32.959  12.930
95188W        W58945  33.880  35.433  13.027
95189W        W58946  24.681  43.006  11.414
95190W        W58947   8.886  16.186   3.163
95191W        W58948  18.578  36.404  13.860
95192W        W58949  10.653  40.414   2.280
95193W        W58950  18.157  22.196  10.956
95194W        W58951  41.296  43.383  11.562
95195W        W58952  18.203  44.333   4.764
95196W        W58953   4.937  20.588   3.664
95197W        W58954  17.249  44.833  10.055
95198W        W58955  43.291  42.909   4.333
95199W        W58956  35.974  40.374  13.900
95200W        W58957  12.662   5.830   0.392
95201W        W58958  29.052  19.192   2.349
95202W        W58959  17.145  10.865  12.495
95203W        W58960  10.632  26.067   0.379
95204W        W58961  20.058  15.747   1.228
95205W        W58962  22.654  21.055   3.691
95206W        W58963  31.146  17.226  12.497
95207W        W58964   8.193  42.295  11.906
95208W        W58965   1.408  24.021  12.999
95209W        W58966  15.160  43.473   1.909
95210W        W58967  11.313  27.041   4.711
95211W        W58968   8.235  11.832  13.796
95212W        W58969   7.734  32.589   2.413
95213W        W58970  29.027  10.877  10.513
95214W        W58971  44.778  39.041   3.683
95215W        W58972   0.774  38.522  10.611
95216W        W58973  30.057   8.239  14.328
95217W        W58974  44.380  43.793  10.523
95218W        W58975  43.803  37.384   0.850
95219W        W58976  17.172  36.938  12.410
95220W        W58977  43.001   6.800  10.916
95221W        W58978  27.503  11.803  14.496
95222W        W58979   2.412  22.128   3.288
95223W        W58980   8.799  40.494   2.384
95224W        W58981  24.975   5.874   3.319
95225W        W58982   0.886  38.848   3.802
95226W        W58983  44.454  15.096  10.450
95227W        W58984  37.342  10.632  13.897
95228W        W58985   0.472  18.223   3.758
95229W        W58986  40.041  27.986  14.007
95230W        W58987  22.042  32.580  13.973
95231W        W58988   9.703  42.936   0.950
95232W        W58989   5.237  18.263  11.520
95233W        W58990  31.555  25.155   1.880
95234W        W58991  27.017  19.540   3.226
95235W        W58992  29.444   3.928   3.860
95236W        W58993  17.166  25.646  14.021
95237W        W58994  10.663  31.031   0.403
95238W        W58995  36.009  32.557  14.997
95239W        W58996  34.902  33.958  10.628
95240W        W58997  22.038  39.834   3.765
95241W        W58998  29.054  14.177   5.257
95242W        W58999   5.789  41.386  14.966
95243W        W59000  29.442   3.777  14.857
95244W        W59001  26.982  42.317  11.480
95245W        W59002  13.225  33.426   1.259
95246W        W59003  31.560  44.313  14.410
95247W        W59004  43.011  13.164  13.409
95248W        W59005  11.307   5.721   4.782
95249W        W59006  14.731  23.701  11.115
95250W        W59007  22.133  38.883  13.389
95251W        W59008  41.392  38.057  10.497
95252W        W59009   9.652  36.945  14.362
95253W        W59010  15.098  30.496  11.890
95254W        W59011  15.216   1.737   3.234
95255W        W59012  22.081  36.868  13.384
95256W        W59013  34.430  40.838  12.341
95257W        W59014  25.691  18.692   0.943
95258W        W59015  10.236  16.160  10.500
95259W        W59016  21.692   9.825  14.926
95260W        W59017  37.000  44.366   4.353
95261W        W59018  19.261   4.315   1.786
95262W        W59019   6.817  25.626  14.364
95263W        W59020  28.561  16.763   1.824
95264W        W59021  42.913  10.848  10.482
95265W        W59022   2.909  41.481  11.929
95266W        W59023  21.146  38.065  14.475
95267W        W59024  13.211   2.786  14.277
95268W        W59025  11.865  15.669   5.195
95269W        W59026  37.507  44.786  12.536
95270W        W59027   4.712  13.178  11.372
95271W        W59028  14.296   4.917  14.843
95272W        W59029  22.523   8.756  11.862
95273W        W59030  11.826  37.393   5.145
95274W        W59031  10.720  33.583  11.580
95275W        W59032  37.831  29.471   3.260
95276W        W59033  24.984  23.684  13.998
95277W        W59034   4.235  31.956  14.508
95278W        W59035  40.359  21.703   1.912
95279W        W59036  16.764  31.538  12.047
95280W        W59037   0.280  15.699   4.229
95281W        W59038   3.760   5.705  14.507
95282W        W59039  28.136  21.660  12.457
95283W        W59040  41.390  12.622   4.334
95284W        W59041  24.540  23.516   1.862
95285W        W59042  33.509   1.412   3.334
95286W        W59043  36.409  12.350   2.311
95287W        W59044   4.941  30.448   1.751
95288W        W59045  21.560  29.172  14.877
95289W        W59046  36.078  42.833   2.666
95290W        W59047  15.617  35.862   3.209
95291W        W59048  15.644  21.054   4.623
95292W        W59049   0.469  26.459   2.732
95293W        W59050  40.040  12.244  14.958
95294W        W59051  23.008  32.484   1.293
95295W        W59052  17.253  11.266  12.358
95296W        W59053  13.172  35.083   1.791
95297W        W59054  18.679  17.686   2.841
95298W        W59055  19.741  16.181  12.013
95299W        W59056  41.790  19.072  11.954
95300W        W59057   1.824  31.105   1.247
95301W        W59058   3.456  19.763  12.879
95302W        W59059  40.316   2.886   1.857
95303W        W59060   4.838  17.655   3.727
95304W        W59061   8.813  42.398   1.289
95305W        W59062   7.377   4.336  11.056
95306W        W59063  23.118  26.629  11.575
95307W        W59064   3.215  35.884   3.160
95308W        W59065  10.330  39.854   3.180
95309W        W59066  36.492  11.340  11.004
95310W        W59067  16.290  34.558  14.374
95311W        W59068  17.141  21.698  14.304
95312W        W59069  34.873  35.374  13.532
95313W        W59070  13.714  10.153  12.461
95314W        W59071  28.542   7.907  11.004
95315W        W59072  16.719  25.693  13.451
95316W        W59073  42.389  33.907  12.001
95317W        W59074  41.314  13.665  12.551
95318W        W59075  21.219  12.187  13.413
95319W        W59076  37.547  21.675  11.903
95320W        W59077  11.732  18.766   5.286
95321W        W59078  21.522  38.058   9.946
95322W        W59079  32.616  29.145   1.432
95323W        W59080  34.889   2.375   3.787
95324W        W59081  17.208  36.085   2.680
95325W        W59082  13.216  16.656  13.022
95326W        W59083  36.494  33.951  14.790
95327W        W59084  20.526   9.224   1.867
95328W        W59085  24.562  34.098  13.802
95329W        W59086  33.121   8.796  13.933
95330W        W59087  29.498  33.090   0.447
95331W        W59088  34.056  15.822   0.828
95332W        W59089   3.730   9.755   4.119
95333W        W59090  42.327   6.803  11.961
95334W        W59091  28.591  14.159  10.604
95335W        W59092  39.367   5.199   4.827
95336W        W59093  31.047   7.854  10.972
95337W        W59094  31.450   8.188  10.521
95338W        W59095  41.326  22.082   2.263
95339W        W59096   1.280  36.930  11.523
95340W        W59097  15.737  38.484  10.015
95341W        W59098  43.783  18.649  14.921
95342W        W59099   2.894  43.465  13.977
95343W        W59100  26.133  32.392   0.913
95344W        W59101  23.573   6.224  12.824
95345W        W59102  33.379  28.983  12.456
95346W        W59103  19.183  22.183  10.411
95347W        W59104  26.028  30.628  10.532
95348W        W59105  22.185  27.537  12.043
95349W        W59106   6.869  26.635   1.332
95350W        W59107  30.063  41.445   2.398
95351W        W59108  31.997   6.713   3.381
95352W        W59109  39.401  15.271   0.482
95353W        W59110  24.623  25.081  13.007
95354W        W59111  17.209  32.132   2.290
95355W        W59112  10.372   3.335  13.507
95356W        W59113  40.464  43.516   2.743
95357W        W59114  22.632  44.921   3.746
95358W        W59115  17.703  26.187  14.849
95359W        W59116  41.977  27.548   2.360
95360W        W59117   4.837  11.635   1.312
95361W        W59118  10.873   5.296   4.762
95362W        W59119  19.074  37.512  10.500
95363W        W59120  20.759   7.356  11.439
95364W        W59121  15.592  11.366  11.452
95365W        W59122  41.310  19.597  14.818
95366W        W59123  39.485  42.508   3.746
95367W        W59124   4.393  40.850  10.147
95368W        W59125  30.138  22.555  10.607
95369W        W59126  39.991   6.904   2.791
95370W        W59127   9.798  41.343   4.257
95371W        W59128  36.547  35.496   1.249
95372W        W59129  16.076  29.628   3.354
95373W        W59130  38.547   6.758   3.354
95374W        W59131  32.039  44.461   1.928
95375W        W59132  28.101   1.353  14.927
95376W        W59133   0.389  15.798  13.469
95377W        W59134  10.327  37.509   3.209
95378W        W59135  37.542   6.787   0.925
95379W        W59136  20.115   9.644   4.325
95380W        W59137  17.114  32.485  13.905
95381W        W59138  23.209  23.152   2.333
95382W        W59139  39.931  36.417   4.767
95383W        W59140  25.216  33.107   4.644
95384W        W59141  28.616  10.690  10.432
95385W        W59142  27.545  12.613   2.662
95386W        W59143  23.067  20.257  11.498
95387W        W59144  18.131  39.379  12.346
95388W        W59145   1.373  17.143  11.953
95389W        W59146   9.296  25.705  14.774
95390W        W59147  17.717   1.922   0.430
95391W        W59148  32.502  26.030   0.361
95392W        W59149  30.452   9.767   2.801
95393W        W59150  10.729  16.185  14.030
95394W        W59151  34.921   4.813  13.442
95395W        W59152   6.756  26.042   2.785
95396W        W59153  38.074  10.674   1.338
95397W        W59154  44.326  25.609   3.646
95398W        W59155  15.121  44.452   1.437
95399W        W59156  31.980  12.656   4.655
95400W        W59157  25.967  22.133   4.646
95401W        W59158  11.370  41.886   2.885
95402W        W59159   1.295  26.558   4.224
95403W        W59160  26.209  36.549   1.281
95404W        W59161   7.412  11.700   2.808
95405W        W59162  43.910  27.178  14.998
95406W        W59163  16.686   0.822   1.420
95407W        W59164  35.583  12.119  12.943
95408W        W59165   2.751  35.487   0.472
95409W        W59166  28.071  44.452  12.455
95410W        W59167  25.132  25.111   1.354
95411W        W59168  11.161  22.619   1.859
95412W        W59169   7.235  44.754  10.499
95413W        W59170   5.886  16.266   5.241
95414W        W59171  15.713   9.253  11.010
95415W        W59172  28.569  42.827  13.543
95416W        W59173  20.583  44.262   4.748
95417W        W59174   0.853   9.253   2.847
95418W        W59175  44.776  43.804  13.985
95419W        W59176   9.268  22.743  11.882
95420W        W59177   0.318  36.935   2.867
95421W        W59178  39.011  32.493  11.430
95422W        W59179  37.916  19.690  10.903
95423W        W59180  39.418  22.219   1.752
95424W        W59181   8.689  12.337   1.728
95425W        W59182  22.577  23.700   1.890
95426W        W59183  13.105  21.229  11.968
95427W        W59184   0.802  43.985  14.340
95428W        W59185  30.138  10.714   3.275
95429W        W59186  26.141   3.718   2.878
95430W        W59187  23.034  17.740   1.859
95431W        W59188  19.069   6.199   4.291
95432W        W59189  27.654  20.212   3.728
95433W        W59190   5.384  33.055  11.046
95434W        W59191   4.415  30.442   3.337
95435W        W59192   1.323  28.100   3.310
95436W        W59193   6.851  18.578   1.920
95437W        W59194  35.583  13.647  14.440
95438W        W59195  28.039  35.578  10.942
95439W        W59196   8.170  19.260   4.222
95440W        W59197  26.043  26.093   1.921
95441W        W59198  20.682  14.759   5.715
95442W        W59199  22.597   6.820   1.925
95443W        W59200   2.886  20.718   0.336
95444W        W59201  43.297  16.127   4.256
95445W        W59202  33.505  14.248  14.989
95446W        W59203   8.853  10.253   0.768
95447W        W59204  35.900  38.916  12.969
95448W        W59205  34.397  40.832  11.510
95449W        W59206  32.591  13.787   1.842
95450W        W59207  25.137  17.072   0.909
95451W        W59208   8.728  42.316  11.375
95452W        W59209  14.754   0.931  11.570
95453W        W59210  23.008  12.297  12.902
95454W        W59211  26.497  21.712  12.872
95455W        W59212  26.084  43.807  10.463
95456W        W59213  23.574  40.889  11.977
95457W        W59214  40.905  16.150  12.995
95458W        W59215  31.595  25.181   3.759
95459W        W59216  27.005   0.847  12.557
95460W        W59217   6.345   6.213   0.468
95461W        W59218  28.963  12.856   2.230
95462W        W59219  11.665   3.746   2.865
95463W        W59220   9.298   9.254  12.962
95464W        W59221   5.879  30.137   3.219
95465W        W59222  22.188  15.241   2.706
95466W        W59223  27.168  12.140   1.838
95467W        W59224  31.544  20.196   2.294
95468W        W59225  13.641  14.731  13.316
95469W        W59226  33.069  14.270   2.728
95470W        W59227  35.418  39.920  13.496
95471W        W59228  27.690  30.472   0.457
95472W        W59229  19.220  44.390   3.271
95473W        W59230  29.163  39.520   3.173
95474W        W59231  23.126  19.601  10.553
95475W        W59232  44.952   5.732  13.047
95476W        W59233  27.160  43.921   0.878
95477W        W59234  43.874  36.442  14.800
95478W        W59235  41.966  17.248   1.329
95479W        W59236  28.069  35.860  12.363
95480W        W59237   5.392  44.460  11.885
95481W        W59238  35.480   0.282   1.314
95482W        W59239  17.062   2.441   0.932
95483W        W59240  17.577   1.330  12.556
95484W        W59241  42.481  37.445  12.401
95485W        W59242  21.649  30.977   4.733
95486W        W59243  20.029   9.305   3.276
95487W        W59244  28.591  33.548   0.472
95488W        W59245  25.493  30.503   4.309
95489W        W59246   6.862  33.513  13.830
95490W        W59247  20.717  35.998   3.354
95491W        W59248  39.898  14.247  14.022
95492W        W59249   0.251  14.695  12.976
95493W        W59250   8.218  39.533  14.773
95494W        W59251  16.717  31.091   4.238
95495W        W59252   4.769  22.136   4.754
95496W        W59253  41.374  40.838  13.865
95497W        W59254  30.011  21.147  14.019
95498W        W59255  31.003  17.271   5.249
95499W        W59256   6.905  39.826   4.610
95500W        W59257   4.272  27.634  14.862
95501W        W59258   5.798  24.547  10.565
95502W        W59259   4.208  40.338  14.382
95503W        W59260   2.804  36.498   4.140
95504W        W59261  40.353  37.028  12.345
95505W        W59262   7.719  32.595   4.274
95506W        W59263  28.091  19.116  10.475
95507W        W59264  24.988  16.807  13.854
95508W        W59265  33.477  15.808   4.749
95509W        W59266  43.438  41.890   4.314
95510W        W59267  20.751  15.277  11.117
95511W        W59268  27.104  35.426  11.914
95512W        W59269  30.540   5.699  14.004
95513W        W59270   4.365  34.940   1.425
95514W        W59271  41.452   3.347   0.336
95515W        W59272  33.939  43.395   4.736
95516W        W59273  38.930   4.331  13.410
95517W        W59274  19.768  29.137   2.384
95518W        W59275  29.150   3.304  10.584
95519W        W59276  16.674  25.198  11.927
95520W        W59277  42.341  29.554  11.497
95521W        W59278  34.044  31.154  13.889
95522W        W59279  29.016  42.950  14.276
95523W        W59280   7.847  28.545  11.037
95524W        W59281   6.385  12.705  12.017
95525W        W59282  43.839   5.316  13.942
95526W        W59283  32.113  33.916   3.364
95527W        W59284  12.706  44.990   3.810
95528W        W59285  13.767  31.616  12.955
95529W        W59286   7.281  10.315   4.343
95530W        W59287  27.025  31.901  12.939
95531W        W59288  27.151  42.821   0.263
95532W        W59289  35.881  36.389   2.383
95533W        W59290  11.866  28.623   4.723
95534W        W59291  33.472  35.432  11.386
95535W        W59292  29.497   2.458  11.981
95536W        W59293  15.235  42.015   0.469
95537W        W59294   1.363  41.851   3.746
95538W        W59295  17.673  36.395  12.011
95539W        W59296   3.222  24.188   0.913
95540W        W59297  21.132  39.880   3.155
95541W        W59298  40.949  44.870   0.938
95542W        W59299  18.716  40.509  14.851
95543W        W59300  27.186   9.723  11.529
95544W        W59301  13.674  15.774   2.685
95545W        W59302  32.409  14.203   1.329
95546W        W59303  40.869   5.366  13.031
95547W        W59304  19.274  22.638  11.426
95548W        W59305  38.459  16.629  14.802
95549W        W59306  38.544  11.147   3.664
95550W        W59307   4.446  41.880  13.451
95551W        W59308  15.607  15.139   4.326
95552W        W59309  37.514  36.003   2.335
95553W        W59310  31.639  42.960  11.451
95554W        W59311  38.517  20.164  13.793
95555W        W59312   7.194  11.656   1.363
95556W        W59313  37.343  25.615   4.129
95557W        W59314  33.928   3.747   4.121
95558W        W59315  24.098   1.806   3.241
95559W        W59316  26.642  21.553   0.865
95560W        W59317  44.380  40.434  10.048
95561W        W59318  10.662  20.547  13.891
95562W        W59319  38.445  24.713  14.508
95563W        W59320  43.866   9.342  13.360
95564W        W59321   2.337  13.763   0.952
95565W        W59322   6.758  14.831  10.617
95566W        W59323  40.542  19.268  11.573
95567W        W59324  35.910  40.422   4.822
95568W        W59325  33.120  43.906   0.481
95569W        W59326  13.814   2.376  11.462
95570W        W59327  15.320  29.549   3.303
95571W        W59328   4.316  40.027  14.490
95572W        W59329   4.403   0.884   0.247
95573W        W59330  43.426   2.335  12.824
95574W        W59331   6.347  31.484   1.432
95575W        W59332  10.782  39.925  14.357
95576W        W59333  42.281  40.428   4.782
95577W        W59334   3.286  44.833   1.341
95578W        W59335  15.817   4.222  11.882
95579W        W59336   9.251  33.939  12.561
95580W        W59337  38.900  20.230   1.915
95581W        W59338  37.050  43.969   4.817
95582W        W59339  14.686   2.299   0.334
95583W        W59340  43.861  25.073   4.698
95584W        W59341   0.839  26.006   1.794
95585W        W59342  35.937   5.736   2.295
95586W        W59343   9.888   2.911  14.312
95587W        W59344  30.977  10.166  14.297
95588W        W59345  23.494  35.956  12.915
95589W        W59346  21.235  23.183  14.315
95590W        W59347  42.354  44.505   3.361
95591W        W59348  21.025  22.555  11.996
95592W        W59349  17.283  41.376   1.396
95593W        W59350  16.094   7.326   1.265
95594W        W59351  25.557   2.776   4.259
95595W        W59352  21.172  21.219   0.398
95596W        W59353   3.915  22.151  13.456
95597W        W59354  20.268  27.674  11.876
95598W        W59355   3.803   4.286  13.936
95599W        W59356  40.446  37.879   0.365
95600W        W59357   3.880   1.830   4.641
95601W        W59358  22.665  42.943   5.254
95602W        W59359   2.233  31.027  10.939
95603W        W59360   7.672   4.853   5.224
95604W        W59361  12.233   8.890   1.808
95605W        W59362   6.292  15.632  13.410
95606W        W59363  21.668  22.606   4.778
95607W        W59364  27.022  19.762  13.824
95608W        W59365  26.595   6.759   0.917
95609W        W59366   7.680  35.478   2.415
95610W        W59367  14.242  27.517   0.467
95611W        W59368   7.669  39.868   3.373
95612W        W59369  39.419  17.097   1.909
95613W        W59370  27.625   4.790   2.780
95614W        W59371  27.965  40.994  14.496
95615W        W59372   4.408  32.532  12.353
95616W        W59373  25.068  35.007  10.446
95617W        W59374  32.410   7.773   3.344
95618W        W59375  41.977   4.921  12.573
95619W        W59376  34.036   4.366  10.625
95620W        W59377  43.294  26.160  12.465
95621W        W59378   0.323  29.951   0.285
95622W        W59379  38.831  32.497   4.115
95623W        W59380  10.648  43.020  13.419
95624W        W59381  36.860  29.503   0.792
95625W        W59382   3.412  13.342   3.240
95626W        W59383  22.221  32.897  13.996
95627W        W59384  41.895  35.106  13.886
95628W        W59385  39.557  42.911   0.963
95629W        W59386  25.508   1.785   3.203
95630W        W59387   5.890   4.373  14.806
95631W        W59388  12.351   3.254   2.247
95632W        W59389  15.137  20.599   3.344
95633W        W59390  25.514  29.551  12.427
95634W        W59391  41.360  15.700   2.308
95635W        W59392  23.200  17.730   3.700
95636W        W59393  12.206  16.089  12.939
95637W        W59394  41.028   8.689  11.572
95638W        W59395  34.566  24.200  11.975
95639W        W59396  37.988   8.672   3.853
95640W        W59397  33.424  31.472   1.304
95641W        W59398  16.629  38.836   0.885
95642W        W59399  40.799  36.053  14.385
95643W        W59400  24.655   8.822   3.161
95644W        W59401  25.113  20.102  12.958
95645W        W59402  26.549  17.159  13.511
95646W        W59403  28.513  32.540  12.954
95647W        W59404  27.599  21.188   1.862
95648W        W59405  25.066   4.737   4.809
95649W        W59406  37.944  16.085  11.459
95650W        W59407   5.924  41.981   3.386
95651W        W59408  22.505  21.518  14.441
95652W        W59409  32.990   2.422   1.931
95653W        W59410   8.181  10.743   1.758
95654W        W59411  15.255   1.911   5.234
95655W        W59412  27.563  34.395   3.366
95656W        W59413  11.338  11.291   4.748
95657W        W59414  44.295  39.358   0.786
95658W        W59415  35.950  33.106   1.319
95659W        W59416  44.798  25.507  11.593
95660W        W59417  31.017  16.216   4.748
95661W        W59418  12.768  19.068   3.362
95662W        W59419  31.104  20.609  11.439
95663W        W59420   5.896   8.888   5.209
95664W        W59421  41.015  40.923  13.385
95665W        W59422  21.735  32.030  13.447
95666W        W59423  18.578   0.957  10.900
95667W        W59424  25.992  18.665  11.527
95668W        W59425  38.354  44.371  13.038
95669W        W59426   7.792   0.879  14.342
95670W        W59427  20.209   2.317   0.775
95671W        W59428  40.036  38.505  14.381
95672W        W59429  40.964  12.624  12.846
95673W        W59430   1.898   9.377   4.737
95674W        W59431  28.647  12.278  14.353
95675W        W59432  40.341  35.471  11.481
95676W        W59433  40.891  35.418   3.757
95677W        W59434  23.541  42.500   0.953
95678W        W59435  42.387   3.346  10.595
95679W        W59436  12.630   2.309  10.617
95680W        W59437  36.966  34.444   2.716
95681W        W59438  34.050  33.443  11.391
95682W        W59439   4.403  25.691   4.731
95683W        W59440  14.200   4.701  14.497
95684W        W59441  39.481   2.332  11.571
95685W        W59442  25.139   3.451   4.119
95686W        W59443  20.714  26.481  12.048
95687W        W59444  23.106   2.456  14.850
95688W        W59445  37.014  29.985  14.894
95689W        W59446  23.727   9.860   3.154
95690W        W59447  36.397  34.964  12.574
95691W        W59448  42.496  22.052   2.273
95692W        W59449  29.973  29.045  13.834
95693W        W59450   8.329   6.780   0.949
95694W        W59451  22.654  38.975  14.003
95695W        W59452   2.238  12.142  13.307
95696W        W59453  41.537  43.340   2.838
95697W        W59454  30.016  38.361  13.905
95698W        W59455   7.755   6.303   3.703
95699W        W59456  12.851  22.605   4.748
95700W        W59457  44.453  16.079   1.215
95701W        W59458   4.881  13.692  10.627
95702W        W59459   9.806  44.311  11.080
95703W        W59460  42.910  38.025   0.390
95704W        W59461  26.114  29.627   3.287
95705W        W59462   7.238   3.738  13.801
95706W        W59463  30.990  38.946  14.983
95707W        W59464  16.090  40.548   3.854
95708W        W59465  35.397  35.552   2.408
95709W        W59466  41.963  11.348  12.065
95710W        W59467  16.752  38.914   4.224
95711W        W59468  24.047  31.134   4.792
95712W        W59469  42.520   9.876  12.984
95713W        W59470   9.287  36.865  12.534
95714W        W59471  24.535  33.554   2.222
95715W        W59472  26.650  37.462  11.526
95716W        W59473  28.625  37.996   1.843
95717W        W59474  12.843   3.420   4.778
95718W        W59475  44.887   1.883   0.384
95719W        W59476  21.604  43.998   0.924
95720W        W59477  21.612  12.610  11.452
95721W        W59478  16.156  12.674   2.367
95722W        W59479   1.335  38.534  13.402
95723W        W59480  17.166  35.029   3.339
95724W        W59481  25.007  22.013  13.393
95725W        W59482  27.615  21.758  13.356
95726W        W59483  37.572  31.050   0.889
95727W        W59484  42.856  13.343   2.749
95728W        W59485  20.687   4.218  10.434
95729W        W59486  39.355  22.015   3.774
95730W        W59487   3.257  23.547   2.903
95731W        W59488  37.880  16.204  10.477
95732W        W59489  27.628  42.319   2.200
95733W        W59490  30.972  24.169   2.210
95734W        W59491   6.844  21.539  11.429
95735W        W59492  10.268  41.488   1.902
95736W        W59493  37.527   3.345   3.378
95737W        W59494  43.012   3.755   3.810
95738W        W59495  22.122   4.815  12.920
95739W        W59496   1.834   3.932  12.093
95740W        W59497  12.216  18.118  14.391
95741W        W59498  31.421   3.310  13.976
95742W        W59499  12.647  33.555   4.827
95743W        W59500  38.423  27.065  13.005
95744W        W59501  11.659  21.740   4.221
95745W        W59502  36.030  27.086  11.020
95746W        W59503  17.792  41.294  13.415
95747W        W59504  12.124  15.638   3.146
95748W        W59505  29.102  25.031   9.931
95749W        W59506  32.474  39.910   3.657
95750W        W59507  19.562  25.104   4.189
95751W        W59508   6.835  27.191  11.913
95752W        W59509  12.195  33.516  12.451
95753W        W59510   9.322  15.178  14.784
95754W        W59511  29.080  23.670   1.899
95755W        W59512   3.810  44.377  14.832
95756W        W59513  41.528  41.402   0.938
95757W        W59514  33.973  28.647   0.790
95758W        W59515  32.064  23.169   4.699
95759W        W59516  44.957  36.918   0.258
95760W        W59517  14.218  30.424   0.802
95761W        W59518  23.006  15.255  10.423
95762W        W59519  44.472  11.169   1.212
95763W        W59520  12.738   6.819  12.980
95764W        W59521  42.816  29.951  13.460
95765W        W59522  37.914   1.776   1.359
95766W        W59523  36.414  43.764  12.533
95767W        W59524  32.575  35.060  12.994
95768W        W59525   5.400  27.647   4.768
95769W        W59526  28.439  21.624   0.245
95770W        W59527  17.750  36.574   0.794
95771W        W59528  16.758  36.447   0.474
95772W        W59529  16.117   1.798   2.713
95773W        W59530  26.686  14.178  13.016
95774W        W59531  16.711  11.649   1.793
95775W        W59532  14.709  44.467   0.814
95776W        W59533  39.973  11.352   1.733
95777W        W59534  20.596   7.205  13.832
95778W        W59535  41.301  22.189  11.974
95779W        W59536   4.840  16.259  13.438
95780W        W59537  36.843  11.719  14.021
95781W        W59538  12.154  23.151  11.401
95782W        W59539  19.716  31.010  14.984
95783W        W59540  11.743  39.059  12.555
95784W        W59541  41.845  15.727   0.391
95785W        W59542  28.158  25.980  13.534
95786W        W59543  27.016  25.038   3.781
95787W        W59544  13.615  20.760  13.329
95788W        W59545  39.989   9.364  13.523
95789W        W59546   6.277  42.853  10.000
95790W        W59547  30.599  20.148  11.500
95791W        W59548  37.960   1.270  14.429
95792W        W59549  12.630  25.052  10.417
95793W        W59550   5.910   5.696   1.256
95794W        W59551  38.954  20.169   3.682
95795W        W59552   2.431   2.375   1.310
95796W        W59553   6.755   2.410   3.340
95797W        W59554  26.175  26.076  14.891
95798W        W59555  11.260  35.912  11.023
95799W        W59556  37.526  30.575  13.378
95800W        W59557  42.497  34.433  12.379
95801W        W59558  42.474  24.054  13.886
95802W        W59559  26.108  24.704  14.454
95803W        W59560  30.911  13.242   0.395
95804W        W59561  16.111  27.466   3.648
95805W        W59562  34.892  24.996  13.900
95806W        W59563  22.052  33.060   0.407
95807W        W59564  21.068  38.912  13.062
95808W        W59565  11.693   9.814   1.330
95809W        W59566  11.839  19.281  14.490
95810W        W59567  38.033  38.514   1.231
95811W        W59568  21.666   6.829   0.729
95812W        W59569  36.963  33.428   3.294
95813W        W59570  41.481   5.242  14.452
95814W        W59571  40.915  15.317  11.405
95815W        W59572  26.002  41.934   0.915
95816W        W59573  27.019  10.719  12.053
95817W        W59574   2.773  44.900   3.368
95818W        W59575   2.937  28.961  14.960
95819W        W59576   2.466  38.934   0.473
95820W        W59577  18.685  34.020  11.859
95821W        W59578  27.019  11.859  12.914
95822W        W59579   2.388   9.218  13.915
95823W        W59580  17.196   1.296   1.360
95824W        W59581   6.324  31.933   1.427
95825W        W59582  24.992  39.319   2.383
95826W        W59583  27.615   5.433  13.519
95827W        W59584  22.547  14.666   3.269
95828W        W59585  10.260  30.614   1.211
95829W        W59586  25.685  19.139   3.827
95830W        W59587  19.089  27.581  12.346
95831W        W59588  24.604  10.747  10.932
95832W        W59589  18.063  26.988   2.360
95833W        W59590  27.579  31.473   4.702
95834W        W59591  20.199  21.231  10.617
95835W        W59592  32.031   5.337  11.957
95836W        W59593  20.124  42.875   3.631
95837W        W59594  18.560  41.981  10.963
95838W        W59595  27.465  12.821  14.022
95839W        W59596  24.645  38.890   0.333
95840W        W59597  27.957  16.119  11.462
95841W        W59598  21.213   6.732  12.844
95842W        W59599   9.848  32.935  12.358
95843W        W59600  21.042  12.316   4.261
95844W        W59601  32.624  39.411   3.648
95845W        W59602  12.146   1.881   4.290
95846W        W59603  16.590  11.731  11.002
95847W        W59604  38.915  38.492   2.207
95848W        W59605  33.062  10.784   3.758
95849W        W59606  39.899  10.688   3.787
95850W        W59607  33.498   9.784   2.712
95851W        W59608  28.114   1.799   3.858
95852W        W59609  32.605  22.213  12.983
95853W        W59610   9.647  32.473  14.857
95854W        W59611  37.415  33.884   3.846
95855W        W59612  25.711   9.679   2.386
95856W        W59613   3.361  36.964   4.299
95857W        W59614  14.664  20.546  12.958
95858W        W59615  32.397   5.363   3.685
95859W        W59616   3.227  42.328  11.383
95860W        W59617   6.256  27.971   1.882
95861W        W59618  31.422  35.889   2.234
95862W        W59619  20.707  14.682  10.637
95863W        W59620   5.427  15.612  10.408
95864W        W59621   7.724  16.236   2.188
95865W        W59622   4.866  25.099  14.309
95866W        W59623   0.420   1.260  12.906
95867W        W59624  29.443  19.148  13.355
95868W        W59625  43.330  33.122   2.745
95869W        W59626  36.045  22.660  10.589
95870W        W59627  39.412  31.064  10.929
95871W        W59628   7.762  39.022   0.755
95872W        W59629  40.466  42.500   1.714
95873W        W59630  39.863  22.676  10.627
95874W        W59631  28.569  13.744   1.336
95875W        W59632  30.971  34.395  13.060
95876W        W59633  23.049  41.988  14.469
95877W        W59634  44.791  37.910   1.766
95878W        W59635  33.979  22.598   2.321
95879W        W59636  15.206   3.865  12.882
95880W        W59637  25.175   8.723  14.379
95881W        W59638  44.786  35.547  11.419
95882W        W59639  40.825  18.646   1.314
95883W        W59640  36.866  43.886   3.800
95884W        W59641  35.510   4.327   2.876
95885W        W59642  36.375  43.921  10.495
95886W        W59643  30.556  15.139   4.635
95887W        W59644  21.630  32.982  14.878
95888W        W59645  37.980  18.663  12.074
95889W        W59646  24.186  36.944   0.755
95890W        W59647   3.339  27.625   3.662
95891W        W59648   4.279  28.032  11.596
95892W        W59649  10.764  24.640   1.230
95893W        W59650  40.828  40.311   4.282
95894W        W59651  28.640   6.386   3.670
95895W        W59652   7.342   4.833  10.435
95896W        W59653  30.091   0.790  12.410
95897W        W59654   8.373   6.731   1.864
95898W        W59655   1.467  38.401  10.470
95899W        W59656  29.075   6.873   3.341
95900W        W59657   8.321  40.843  12.884
95901W        W59658  44.468  17.064   1.747
95902W        W59659  27.449   0.846  11.875
95903W        W59660  12.835  13.834   0.783
95904W        W59661  35.867   6.378  11.897
95905W        W59662  28.075   7.677   0.765
95906W        W59663  43.852  13.759  11.414
95907W        W59664  37.068  13.314  12.854
95908W        W59665  14.201  14.123  14.443
95909W        W59666  20.073  21.125  11.017
95910W        W59667  12.153  25.478   0.352
95911W        W59668  23.573   6.428   2.385
95912W        W59669  10.662  13.617   4.607
95913W        W59670   1.879   0.755   1.431
95914W        W59671  26.184  10.176   4.634
95915W        W59672  18.556  26.977   4.815
95916W        W59673   1.328  23.010  12.965
95917W        W59674  23.152   7.704  13.487
95918W        W59675  42.945  15.613   1.790
95919W        W59676  29.954  35.554  11.024
95920W        W59677  11.834  41.445   3.237
95921W        W59678   4.297  20.723  14.800
95922W        W59679  44.813  34.961  10.445
95923W        W59680  42.330  35.898   3.865
95924W        W59681  34.443  12.329   3.284
95925W        W59682  32.470   9.691   1.699
95926W        W59683  14.103  27.096  11.974
95927W        W59684  43.289  18.683  13.030
95928W        W59685  43.975  33.894  14.371
95929W        W59686  15.238   9.688   0.938
95930W        W59687  16.080   3.380  14.915
95931W        W59688  28.104   0.279  12.845
95932W        W59689  31.115  42.383  10.630
95933W        W59690  12.198   5.739   0.762
95934W        W59691  10.759  16.162   3.304
95935W        W59692  21.614  14.330  13.038
95936W        W59693  44.953  41.999  12.356
95937W        W59694   1.950  12.635   2.368
95938W        W59695   3.751  24.524  10.939
95939W        W59696  44.436  13.713  10.447
95940W        W59697  14.334  40.520  14.400
95941W        W59698  37.387   4.236   3.288
95942W        W59699  16.685   7.681   1.288
95943W        W59700  39.864  35.498   3.750
95944W        W59701   4.897   4.442  13.996
95945W        W59702  17.578  42.851   2.745
95946W        W59703   8.714  22.118   4.259
95947W        W59704  42.347  38.890   3.214
95948W        W59705  40.972  30.990   0.738
95949W        W59706  37.397   6.718  13.344
95950W        W59707  31.010  25.010   2.766
95951W        W59708   4.917   3.405   1.346
95952W        W59709  37.574  15.657  10.966
95953W        W59710  43.871  20.717  10.940
95954W        W59711  11.185  25.614  12.339
95955W        W59712  25.603  29.990   4.635
95956W        W59713  30.060  41.500  14.296
95957W        W59714  38.827  43.937   2.679
95958W        W59715  25.693  38.559  14.335
95959W        W59716  29.614  27.138   0.386
95960W        W59717  27.567  28.636   4.282
95961W        W59718  30.612  28.974  13.794
95962W        W59719   3.357  35.454  11.437
95963W        W59720  26.524  17.222   2.367
95964W        W59721  43.271   8.282   3.758
95965W        W59722  23.046  28.054   2.252
95966W        W59723  25.574   7.819   3.334
95967W        W59724   4.889  15.602   1.355
95968W        W59725  31.518   0.851  11.604
95969W        W59726  28.094   8.814  10.954
95970W        W59727  41.879  41.308   4.347
95971W        W59728  13.232  24.639  14.965
95972W        W59729  19.597  39.342  13.360
95973W        W59730  21.687  32.109   4.793
95974W        W59731  32.989  39.496   3.310
95975W        W59732  31.521  18.132  13.939
95976W        W59733  15.295  10.215   4.780
95977W        W59734  14.787  34.524   2.233
95978W        W59735  31.962   1.434   4.133
95979W        W59736   8.357  17.185   2.292
95980W        W59737  34.865   8.677  11.105
95981W        W59738  22.174  37.533  14.864
95982W        W59739  44.792  43.807   3.163
95983W        W59740  13.699   4.785  13.516
95984W        W59741   5.756   8.246   4.636
95985W        W59742  20.043   9.863   2.391
95986W        W59743  32.908   7.703   4.759
95987W        W59744  23.641  12.762   2.824
95988W        W59745  12.167  41.977  11.107
95989W        W59746  36.593  28.528   4.154
95990W        W59747  43.398  16.791   1.290
95991W        W59748   3.749  16.619   4.348
95992W        W59749  34.042  18.650  14.485
95993W        W59750   9.888  20.239  13.475
95994W        W59751  28.036   4.375  12.941
95995W        W59752   4.796   7.313  10.471
95996W        W59753  24.159  44.848   0.353
95997W        W59754  19.667  12.286   2.382
95998W        W59755  22.100  22.015   0.249
95999W        W59756  18.110   8.673  12.533
96000W        W59757  15.716  33.107  13.439
96001W        W59758  18.702  37.864  14.804
96002W        W59759  20.608  35.440   5.254
96003W        W59760  44.478  31.439   3.674
96004W        W59761  42.978  36.051  10.629
96005W        W59762   1.352   7.224   3.257
96006W        W59763  15.171  13.295  11.569
96007W        W59764  44.974  37.341  14.787
96008W        W59765   0.425  18.238  10.922
96009W        W59766  43.398   7.787   3.176
96010W        W59767  21.234  19.220  11.508
96011W        W59768   3.374  11.771   4.673
96012W        W59769   3.893   0.803   4.759
96013W        W59770  37.549  25.483   1.854
96014W        W59771  23.127  12.296  12.516
96015W        W59772  17.232  20.647   9.994
96016W        W59773  34.460   5.369  12.880
96017W        W59774  33.884  34.408  11.421
96018W        W59775  33.572  24.003  13.891
96019W        W59776  31.435  35.908  12.943
96020W        W59777   1.959  35.854   0.384
96021W        W59778  21.239  35.513  11.492
96022W        W59779   7.376  35.587   3.788
96023W        W59780  41.976  28.002  10.520
96024W        W59781  14.095  13.251   3.844
96025W        W59782  41.534  28.973   1.252
96026W        W59783  28.052   2.418   4.156
96027W        W59784   5.373  39.854  10.482
96028W        W59785   7.826  25.181   3.248
96029W        W59786  38.994   7.405  11.554
96030W        W59787   7.352  13.292  11.935
96031W        W59788  24.230  20.088  12.021
96032W        W59789  30.487  25.666   4.753
96033W        W59790  38.493  34.481   1.428
96034W        W59791  11.680   0.255  12.898
96035W        W59792  17.795   9.190   1.439
96036W        W59793  12.142  39.842   4.742
96037W        W59794  30.974  21.152   0.450
96038W        W59795  16.590   3.266  14.381
96039W        W59796  38.058  42.365   0.933
96040W        W59797  23.677  40.494   4.163
96041W        W59798  21.700  19.269   3.812
96042W        W59799  16.072  26.039  13.887
96043W        W59800  18.699  42.872   3.747
96044W        W59801  26.074   3.291  14.793
96045W        W59802  16.081  39.036  13.018
96046W        W59803  22.193  10.712  14.903
96047W        W59804  16.158  11.300   1.261
96048W        W59805  33.386  13.738   4.302
96049W        W59806  27.043   2.737  12.527
96050W        W59807  28.978  33.965  12.479
96051W        W59808  14.221  40.805  11.886
96052W        W59809  38.983   5.326  14.398
96053W        W59810  14.764  17.724  14.434
96054W        W59811  42.914  21.247   0.252
96055W        W59812  37.479   4.362  11.982
96056W        W59813  23.142  39.048  10.429
96057W        W59814  44.392  32.567  12.094
96058W        W59815  23.105  43.411   0.821
96059W        W59816  15.667  12.301  13.885
96060W        W59817  24.147  43.918   0.272
96061W        W59818  12.618   8.891  14.469
96062W        W59819  44.378  37.558  11.944
96063W        W59820  39.486   2.442  14.374
96064W        W59821  20.659  36.958   0.366
96065W        W59822  12.852  11.673   4.346
96066W        W59823  39.337  32.400   1.920
96067W        W59824  35.401  37.339   1.252
96068W        W59825   5.388  24.112   0.480
96069W        W59826  40.928  31.081  14.411
96070W        W59827   2.390  29.021  13.822
96071W        W59828  11.332   8.657  14.883
96072W        W59829   3.218  26.615  10.984
96073W        W59830  17.284   9.882   2.236
96074W        W59831   6.427   9.297   2.383
96075W        W59832   6.403   8.868  12.006
96076W        W59833  35.058   0.793   5.248
96077W        W59834   6.902  11.131   1.262
96078W        W59835   9.881  15.305  14.811
96079W        W59836  17.203  18.095  14.479
96080W        W59837   7.779   6.321  11.029
96081W        W59838  35.904  24.120  11.961
96082W        W59839  28.937  11.646  14.389
96083W        W59840  24.118  16.792   0.411
96084W        W59841  14.333  24.561  10.433
96085W        W59842  19.603   6.690  13.954
96086W        W59843  20.649  31.118  14.892
96087W        W59844  24.573  39.482   4.691
96088W        W59845  36.420  41.998   1.446
96089W        W59846  28.601  17.612  14.334
96090W        W59847   5.833  26.619  14.867
96091W        W59848  44.466  18.752   2.249
96092W        W59849  19.160  44.496  11.920
96093W        W59850  28.037  29.945  13.484
96094W        W59851   4.290  30.613  13.897
96095W        W59852  13.342  20.563  11.428
96096W        W59853  21.161  23.499  12.057
96097W        W59854  19.739  24.190   0.361
96098W        W59855  16.780  23.582   2.830
96099W        W59856   1.278  41.938  12.423
96100W        W59857  19.575  39.039  12.933
96101W        W59858  38.532   7.808   0.270
96102W        W59859  37.917  18.217   1.233
96103W        W59860  33.885  42.915  14.789
96104W        W59861  40.942  30.649   0.452
96105W        W59862  39.463  16.318   4.726
96106W        W59863   7.767   4.747  11.492
96107W        W59864  23.029  22.606  10.984
96108W        W59865   2.843  19.142  10.629
96109W        W59866  24.568   6.845  12.053
96110W        W59867  15.311   7.221   2.701
96111W        W59868   4.854  37.348   3.249
96112W        W59869  32.057   5.200  14.341
96113W        W59870  12.640  25.577   0.298
96114W        W59871  41.939  40.506   4.255
96115W        W59872  19.700  31.088  12.863
96116W        W59873  21.038   2.464   2.229
96117W        W59874   1.802   4.246  14.493
96118W        W59875  36.365  33.386   1.835
96119W        W59876  19.658  28.956  12.357
96120W        W59877  21.633   7.239  13.489
96121W        W59878  38.825  40.393   2.886
96122W        W59879  32.911   4.911   3.709
96123W        W59880  27.197  38.458  12.086
96124W        W59881   5.266  38.868  10.428
96125W        W59882  25.521   9.207  10.977
96126W        W59883   0.784  31.997  13.896
96127W        W59884  42.485   4.354   2.790
96128W        W59885  10.806   7.220   1.412
96129W        W59886  44.369   6.190  10.452
96130W        W59887  41.866  17.727   0.251
96131W        W59888   6.710  33.106   0.407
96132W        W59889  21.145   9.712   1.744
96133W        W59890  29.014  42.015  10.889
96134W        W59891  10.676  24.993   0.442
96135W        W59892  32.960  43.382   1.742
96136W        W59893  38.377  29.483  13.403
96137W        W59894   4.793  17.643  11.522
96138W        W59895  19.621   4.771  11.464
96139W        W59896  15.291  32.495   2.383
96140W        W59897   1.298  43.886  13.479
96141W        W59898  18.743   3.321  10.129
96142W        W59899   9.739  41.301  14.492
96143W        W59900  44.319  42.982   2.388
96144W        W59901  31.078   6.826  12.474
96145W        W59902  17.255  41.855   0.275
96146W        W59903  17.563  28.032   3.661
96147W        W59904  30.535  10.803   3.731
96148W        W59905  25.992  22.566   3.181
96149W        W59906  34.921  33.977  13.352
96150W        W59907  25.615   8.364  11.559
96151W        W59908  26.186  19.192  10.546
96152W        W59909  24.997   7.378   0.414
96153W        W59910  12.792   7.379  11.889
96154W        W59911  21.716  42.459  12.955
96155W        W59912  27.940  12.204  14.492
96156W        W59913  37.350  26.066  14.313
96157W        W59914  24.627  20.684  13.424
96158W        W59915  42.399  11.356   0.299
96159W        W59916  27.574  18.696  12.016
96160W        W59917  41.330  14.827  14.506
96161W        W59918   6.915  24.673  11.396
96162W        W59919   2.267   7.288   4.751
96163W        W59920  27.623   9.742   1.882
96164W        W59921  16.133  19.575   1.434
96165W        W59922  27.956  19.581  13.932
96166W        W59923  16.710  15.715   2.316
96167W        W59924   9.746  16.236  10.073
96168W        W59925   8.319  43.862  14.392
96169W        W59926  18.230   5.298   0.791
96170W        W59927  31.492   9.341  11.958
96171W        W59928  26.977  18.610   4.666
96172W        W59929   1.341  44.450  14.935
96173W        W59930  24.122  20.741   4.259
96174W        W59931  36.375  32.403  12.907
96175W        W59932   8.171  37.484   3.163
96176W        W59933  40.004   3.420   2.195
96177W        W59934  33.109  11.318  14.806
96178W        W59935   4.793  39.809  14.796
96179W        W59936  21.746   8.377  12.020
96180W        W59937  13.616  35.960   1.398
96181W        W59938  24.490  38.046   2.343
96182W        W59939  26.075  36.522   3.348
96183W        W59940  36.385  18.585   3.769
96184W        W59941   0.811  37.408   0.932
96185W        W59942  39.499  11.155   3.158
96186W        W59943  22.062   6.829  14.394
96187W        W59944  25.056   4.832   9.921
96188W        W59945  36.038  15.104  12.407
96189W        W59946   1.838  43.974  12.960
96190W        W59947  30.602  25.024   4.777
96191W        W59948   4.823  15.188  14.858
96192W        W59949  43.785   8.751  14.413
96193W        W59950  40.326  33.477   4.609
96194W        W59951  14.217  29.479   4.658
96195W        W59952  44.488  40.533  14.453
96196W        W59953  14.705  23.609  10.458
96197W        W59954  23.128   6.334  14.406
96198W        W59955   3.304   5.292   3.753
96199W        W59956  15.607   4.440   4.700
96200W        W59957   5.392  38.945   4.259
96201W        W59958  43.303  15.134   4.216
96202W        W59959   8.357  33.100  13.819
96203W        W59960  13.193  33.548   2.698
96204W        W59961  21.642  13.264  12.378
96205W        W59962  17.618  30.545   4.838
96206W        W59963   4.449  32.590  10.533
96207W        W59964  15.623  25.104  12.925
96208W        W59965  20.692  42.816  14.793
96209W        W59966  25.170  17.266   2.259
96210W        W59967   2.791   8.831  10.516
96211W        W59968  20.140  30.616   1.299
96212W        W59969  37.061   7.359   1.226
96213W        W59970   1.276  43.960  13.889
96214W        W59971  37.403  20.665  13.466
96215W        W59972  35.088   3.398  13.886
96216W        W59973   0.890  30.431   5.093
96217W        W59974  36.548  36.928   3.834
96218W        W59975  36.937  33.107   3.145
96219W        W59976  32.447   0.895  10.081
96220W        W59977  28.095  37.913  10.510
96221W        W59978  11.716  36.477   0.896
96222W        W59979  41.463  39.910   4.773
96223W        W59980  40.343   0.940   0.473
96224W        W59981  25.559  17.607   3.652
96225W        W59982  44.931  24.046   4.699
96226W        W59983  40.476   2.744   2.719
96227W        W59984  16.730  35.923  13.904
96228W        W59985  10.735   9.799  12.435
96229W        W59986  21.076  35.863   1.357
96230W        W59987  31.121  21.118  12.372
96231W        W59988  37.915  44.384  13.842
96232W        W59989   5.787  14.830  14.028
96233W        W59990  33.605  21.533   1.919
96234W        W59991  10.839  28.153  12.448
96235W        W59992   7.368  38.939   0.850
96236W        W59993   9.192  42.352  13.918
96237W        W59994  17.713  36.507  13.915
96238W        W59995  19.675  37.510   3.750
96239W        W59996  41.033   7.845   1.710
96240W        W59997  42.966   2.465   2.330
96241W        W59998  36.364  31.590   1.934
96242W        W59999   6.680   5.339   0.454
96243W        W60000  42.911  38.914   3.743
96244W        W60001  38.903  13.280  11.055
96245W        W60002  28.987   4.708  12.502
96246W        W60003  18.202   6.722   0.915
96247W        W60004  33.469  19.073  12.477
96248W        W60005   6.260  28.602   2.728
96249W        W60006  34.518  15.169   0.301
96250W        W60007  43.834  18.656   2.825
96251W        W60008  28.144   1.860  11.016
96252W        W60009  44.813  27.140  12.393
96253W        W60010  32.469   7.797  10.584
96254W        W60011  16.127  20.182   4.745
96255W        W60012   6.374   9.837  13.922
96256W        W60013  44.400  42.952   5.270
96257W        W60014   1.252   2.372  14.774
96258W        W60015  24.720   4.254   2.829
96259W        W60016   8.805   7.317  12.353
96260W        W60017  10.317  22.562  12.023
96261W        W60018  26.023  12.686   4.676
96262W        W60019  24.131  27.028   2.821
96263W        W60020  28.473  13.687   0.742
96264W        W60021   5.272  16.215   4.799
96265W        W60022  16.176  26.957  14.393
96266W        W60023  22.517  13.740  14.782
96267W        W60024   4.734  43.963   4.612
96268W        W60025  20.229  21.738  11.127
96269W        W60026  18.628  21.122   5.255
96270W        W60027  13.313  26.553  11.097
96271W        W60028  41.370  22.518  12.348
96272W        W60029  39.429  14.617   3.812
96273W        W60030  21.091  23.098  14.957
96274W        W60031   8.352  20.248  11.492
96275W        W60032   0.315  36.470   4.811
96276W        W60033  18.596   4.445   0.877
96277W        W60034  26.503  27.002  12.003
96278W        W60035   2.333  34.511   1.332
96279W        W60036  38.382   1.330  10.071
96280W        W60037  16.719   7.272  11.409
96281W        W60038   9.766   0.930  12.538
96282W        W60039   2.842  35.510  14.878
96283W        W60040   9.220  28.613   4.630
96284W        W60041   7.189  25.046  13.308
96285W        W60042   6.208  22.149   0.855
96286W        W60043  24.087  40.366   1.849
96287W        W60044  30.483  42.320  11.485
96288W        W60045  19.638  28.183   2.227
96289W        W60046  30.055   2.405   2.813
96290W        W60047   5.221  41.444   3.299
96291W        W60048   9.833  40.943   0.841
96292W        W60049  26.529   6.289  11.859
96293W        W60050  26.105   0.891   1.331
96294W        W60051  25.510  36.868  14.914
96295W        W60052   9.216  25.984   1.222
96296W        W60053   3.768  29.602  13.394
96297W        W60054   4.234  20.116   2.697
96298W        W60055   5.433   3.926   3.147
96299W        W60056  37.853  15.682  14.982
96300W        W60057  33.487  32.522   2.900
96301W        W60058  26.129  22.515  13.817
96302W        W60059  25.038  18.547  13.486
96303W        W60060  37.867  16.135   4.837
96304W        W60061  44.003  14.210  13.949
96305W        W60062  30.061   8.752  13.880
96306W        W60063  35.906  11.337   3.227
96307W        W60064  19.549  30.591  13.428
96308W        W60065  36.882  39.374   2.698
96309W        W60066  19.254   4.884   4.813
96310W        W60067   0.923  34.543   2.694
96311W        W60068  15.790  18.139  14.507
96312W        W60069   7.868  41.386  14.891
96313W        W60070  25.692  36.956   4.655
96314W        W60071  25.182   9.696  14.029
96315W        W60072  34.412  43.304  12.019
96316W        W60073  30.434   7.209  11.590
96317W        W60074  39.968  18.156  14.282
96318W        W60075  11.360  19.274  11.482
96319W        W60076   5.320  20.763  11.022
96320W        W60077  10.653  29.108  14.514
96321W        W60078  35.511   7.772  14.496
96322W        W60079   4.333  11.775   2.803
96323W        W60080  20.205  36.372  11.520
96324W        W60081  41.006  23.531   2.400
96325W        W60082  38.559   2.286  10.429
96326W        W60083  43.783  19.047   0.437
96327W        W60084  15.312  41.872  12.365
96328W        W60085   4.809   7.386  13.867
96329W        W60086  39.939  29.948   4.204
96330W        W60087  37.438  41.324   2.404
96331W        W60088  12.623  14.328  10.458
96332W        W60089  12.354  40.374   1.303
96333W        W60090   6.302   9.233  12.448
96334W        W60091  32.964   5.313  11.465
96335W        W60092   0.971  37.467  12.523
96336W        W60093   3.743  13.321   1.429
96337W        W60094  16.115  41.995   0.735
96338W        W60095  32.427  44.467   2.232
96339W        W60096  23.516  33.002   0.880
96340W        W60097  37.570   9.266  12.001
96341W        W60098  33.028  43.288  14.497
96342W        W60099  18.106  24.072   3.814
96343W        W60100  37.582  39.468   0.942
96344W        W60101  37.911  23.155  13.047
96345W        W60102  26.166  25.976   9.935
96346W        W60103  37.558  41.851   1.235
96347W        W60104   8.811  39.554   2.665
96348W        W60105  15.162  18.574  12.065
96349W        W60106  41.312  41.929  12.481
96350W        W60107  15.252  21.141  11.041
96351W        W60108  12.300  12.682  12.544
96352W        W60109   2.442  33.965   4.228
96353W        W60110   5.197  21.619  11.385
96354W        W60111  17.705  34.913  11.937
96355W        W60112  32.448  36.562  14.806
96356W        W60113  26.161  32.583   4.237
96357W        W60114  44.984  44.445  12.538
96358W        W60115  40.512  44.340   1.886
96359W        W60116  30.431  27.104  10.079
96360W        W60117   6.293  12.278  11.426
96361W        W60118  17.092   2.735   1.722
96362W        W60119  23.093  44.975  12.534
96363W        W60120   7.700   6.244  14.436
96364W        W60121   0.893  39.510   2.273
96365W        W60122  19.763  19.757  10.633
96366W        W60123  11.762  23.541  13.521
96367W        W60124   6.872   1.787   3.870
96368W        W60125  25.127  42.953  12.538
96369W        W60126   2.397  23.599  14.886
96370W        W60127  24.080   3.393   2.672
96371W        W60128  35.458  36.471  10.622
96372W        W60129  35.396  43.411  11.590
96373W        W60130  42.888  40.920  13.834
96374W        W60131  29.515  32.517  12.977
96375W        W60132  10.185   2.852  13.949
96376W        W60133  10.878  24.092  14.939
96377W        W60134   7.689  38.969   4.752
96378W        W60135  31.588  11.310  11.462
96379W        W60136  43.326  24.597  13.410
96380W        W60137  35.883  23.080  14.869
96381W        W60138  18.276   3.732  11.978
96382W        W60139  25.567  11.757  11.531
96383W        W60140  20.566  28.642  11.504
96384W        W60141   2.244  27.119  13.057
96385W        W60142  19.610   6.731   1.865
96386W        W60143   9.309   9.251   3.164
96387W        W60144  42.976  35.601   2.306
96388W        W60145  17.665  39.816   3.846
96389W        W60146  28.171  44.298  14.459
96390W        W60147  17.655  12.312  12.085
96391W        W60148  41.346  27.460  12.880
96392W        W60149   8.846  34.104  10.969
96393W        W60150  41.952  34.523   0.746
96394W        W60151  32.465  16.571  14.396
96395W        W60152  41.470  16.772   4.830
96396W        W60153  19.063  36.896  13.442
96397W        W60154   1.373  20.667  14.850
96398W        W60155  17.771   1.871   2.392
96399W        W60156  10.280  23.020   0.851
96400W        W60157  11.701  27.952  10.453
96401W        W60158   3.270  44.965  12.377
96402W        W60159   0.340  35.091  11.944
96403W        W60160  40.521   8.177  11.909
96404W        W60161   5.284  42.877   1.911
96405W        W60162  38.025  36.357   3.825
96406W        W60163   3.892  26.988   2.257
96407W        W60164  31.004  25.061  12.872
96408W        W60165  27.604  22.093   1.846
96409W        W60166  33.046  43.499  14.770
96410W        W60167  21.700   5.295   2.689
96411W        W60168  16.102  36.477   0.812
96412W        W60169  42.384  44.907   4.722
96413W        W60170  10.141  27.673   5.214
96414W        W60171  23.619   8.703  11.557
96415W        W60172  37.472  38.026   1.361
96416W        W60173  37.019  38.332  14.460
96417W        W60174  24.132   5.339   0.292
96418W        W60175  33.112  44.906  13.380
96419W        W60176  44.899  35.103  11.978
96420W        W60177  13.711  31.478  14.385
96421W        W60178  22.154  10.301   3.257
96422W        W60179  10.352  17.769  13.344
96423W        W60180  17.736  44.846   1.358
96424W        W60181  37.541   5.404  12.343
96425W        W60182  27.671  22.154  12.078
96426W        W60183   7.782  32.522  11.873
96427W        W60184  21.068  31.063   2.782
96428W        W60185  14.175  34.898  12.511
96429W        W60186   0.766  39.449   4.782
96430W        W60187  21.618   0.857   3.198
96431W        W60188  35.537   7.846   0.308
96432W        W60189   6.388  11.132  14.336
96433W        W60190  12.157  37.873   2.720
96434W        W60191  34.915   0.891   2.286
96435W        W60192  13.777  42.502  11.402
96436W        W60193  21.074  26.618   4.325
96437W        W60194  16.275  26.577  12.996
96438W        W60195  38.008   1.472   0.329
96439W        W60196  42.961   8.359   2.391
96440W        W60197  41.958  36.044   0.271
96441W        W60198  24.991  40.434  11.560
96442W        W60199  19.659   2.787  11.069
96443W        W60200  27.081  25.115   9.986
96444W        W60201  26.094  25.086  14.382
96445W        W60202  12.155   7.720  13.893
96446W        W60203  38.025  43.315   1.849
96447W        W60204  22.087  37.083  12.360
96448W        W60205  11.363  33.419   1.765
96449W        W60206  13.219   2.260  10.938
96450W        W60207   1.321  10.661   0.824
96451W        W60208  28.629  32.991   3.742
96452W        W60209  11.710  21.260  12.893
96453W        W60210   9.803  13.172  13.374
96454W        W60211   9.830  42.314   4.763
96455W        W60212  16.797  34.370   3.730
96456W        W60213  11.780   3.281  11.890
96457W        W60214  17.243  32.519   4.187
96458W        W60215  14.294  28.520  11.578
96459W        W60216  12.667  19.040  11.966
96460W        W60217   3.768  10.861  10.889
96461W        W60218   0.760  17.174   2.180
96462W        W60219  28.050  24.064   1.701
96463W        W60220   5.703  39.877  10.559
96464W        W60221  40.991  21.670   1.739
96465W        W60222   4.746  36.565   1.856
96466W        W60223  33.914  41.816  11.063
96467W        W60224  32.947  10.851   2.788
96468W        W60225  23.525   3.414  14.994
96469W        W60226  29.441  33.052  12.865
96470W        W60227  16.072  22.176   2.872
96471W        W60228   3.316  10.261   2.701
96472W        W60229   4.890   4.269  10.506
96473W        W60230   9.330   5.708   1.222
96474W        W60231   4.812  34.398  13.321
96475W        W60232  40.402  16.731  12.074
96476W        W60233  17.593  41.875   3.761
96477W        W60234  38.943  25.553   3.770
96478W        W60235  16.698   0.298   9.951
96479W        W60236  25.474  18.617   4.306
96480W        W60237  44.438  16.178  10.921
96481W        W60238  23.517  33.494   3.832
96482W        W60239  44.000  40.484  12.928
96483W        W60240  40.959  24.164   0.326
96484W        W60241  35.554  13.621   3.235
96485W        W60242  25.183  37.027   1.758
96486W        W60243  34.998  17.246  12.555
96487W        W60244  20.714  19.692   0.409
96488W        W60245  11.645   0.977   4.653
96489W        W60246   1.248  33.907  13.791
96490W        W60247  14.296   6.872   2.892
96491W        W60248  23.078  33.884   0.771
96492W        W60249   7.352  13.319  13.829
96493W        W60250  34.995   1.428   0.862
96494W        W60251  16.230   3.387   3.223
96495W        W60252  19.742  28.525  12.910
96496W        W60253  30.057  42.943  14.023
96497W        W60254  12.784  11.752  13.402
96498W        W60255   5.890   4.818   0.315
96499W        W60256  36.013  37.900  10.960
96500W        W60257   2.815   8.670  11.554
96501W        W60258  42.002  14.332   5.243
96502W        W60259  33.426  27.107   1.388
96503W        W60260  17.707  22.745  12.532
96504W        W60261   7.699  14.694  12.857
96505W        W60262  30.018  41.906  13.819
96506W        W60263  13.663   0.980   0.770
96507W        W60264   1.379  21.153  14.842
96508W        W60265  30.080  16.631   5.183
96509W        W60266  14.253   8.196  10.499
96510W        W60267  20.556  23.136   3.237
96511W        W60268  10.644  34.979  13.382
96512W        W60269  24.639  12.163   2.806
96513W        W60270  36.040  25.060   2.738
96514W        W60271   2.428  43.836   0.789
96515W        W60272   9.197  29.464  10.598
96516W        W60273   4.337  31.424  13.323
96517W        W60274   9.186  14.741  12.830
96518W        W60275  14.280  32.909  11.050
96519W        W60276  24.485  27.960   0.825
96520W        W60277   2.389   5.846  11.568
96521W        W60278  37.972  17.799  12.477
96522W        W60279   2.745   0.352  11.490
96523W        W60280  16.683  16.721   4.282
96524W        W60281  18.649   8.398  13.992
96525W        W60282   6.693  10.698  12.039
96526W        W60283  20.723  16.717   1.355
96527W        W60284  34.958  27.463  15.000
96528W        W60285   3.884  36.891   0.947
96529W        W60286  33.069  42.483  10.466
96530W        W60287  18.171  38.910   3.343
96531W        W60288  33.468  10.374   4.683
96532W        W60289  43.350  22.666  11.901
96533W        W60290  44.304  35.550  11.959
96534W        W60291  19.708  21.184   2.270
96535W        W60292  35.402  40.363   3.751
96536W        W60293   6.395  36.558   1.859
96537W        W60294  44.913  40.051   2.334
96538W        W60295  43.370  34.085   0.893
96539W        W60296  24.717  40.543   2.354
96540W        W60297  40.939  18.637  13.901
96541W        W60298  37.912  38.455  13.923
96542W        W60299  14.773  43.768  11.978
96543W        W60300  24.644  25.544   0.265
96544W        W60301  26.207  19.195  13.903
96545W        W60302  12.263   5.433   4.152
96546W        W60303  17.143  44.315  13.044
96547W        W60304  35.855   4.392   0.479
96548W        W60305   9.176  25.670   4.679
96549W        W60306  43.829  41.452  14.897
96550W        W60307  32.576   6.260   4.793
96551W        W60308  25.190  19.682   4.646
96552W        W60309  26.614  44.001   3.301
96553W        W60310  31.004  43.474  11.058
96554W        W60311   3.900   7.868  14.446
96555W        W60312   4.284   0.374   3.864
96556W        W60313  25.109   9.645  12.880
96557W        W60314   0.398   1.292  13.817
96558W        W60315  38.928  44.805  13.986
96559W        W60316  42.486  15.675   0.784
96560W        W60317  19.700  39.912   1.786
96561W        W60318  34.488  32.058  12.031
96562W        W60319   5.892  13.775  12.889
96563W        W60320   8.689  41.376   3.238
96564W        W60321   2.392  38.943   5.136
96565W        W60322  24.524  33.610  10.499
96566W        W60323  22.720  43.793  13.471
96567W        W60324  22.031   0.324  12.494
96568W        W60325  15.277  19.139   3.684
96569W        W60326   5.872   3.229  14.436
96570W        W60327  22.998  23.149  11.582
96571W        W60328  29.460   1.836   4.310
96572W        W60329  19.269  12.300   0.262
96573W        W60330   1.261   5.390   4.119
96574W        W60331  13.149  19.567  10.916
96575W        W60332  17.291  44.769   5.101
96576W        W60333  29.018  32.521  12.932
96577W        W60334  32.040   1.417   2.870
96578W        W60335  43.777  31.009   2.731
96579W        W60336  24.643  22.523  10.499
96580W        W60337  19.133  29.461  12.074
96581W        W60338  37.531  16.241   4.781
96582W        W60339  36.393  37.354   1.344
96583W        W60340  24.555  20.679   3.631
96584W        W60341   2.792  28.539   0.263
96585W        W60342  36.965  11.719  14.417
96586W        W60343   5.202  17.279  11.552
96587W        W60344  38.546  43.328   3.157
96588W        W60345  23.676  21.617  14.956
96589W        W60346  26.153   9.732  14.448
96590W        W60347  37.569  10.670   3.739
96591W        W60348  26.123  36.868   3.739
96592W        W60349   7.318  21.081   3.788
96593W        W60350  22.612  32.936   0.452
96594W        W60351  20.155  24.026  12.404
96595W        W60352   8.868  25.511  12.976
96596W        W60353  16.240   5.787   0.477
96597W        W60354  37.933  36.456   1.739
96598W        W60355  24.667  32.545   2.243
96599W        W60356  33.506  37.909   4.803
96600W        W60357  25.470  13.304   1.755
96601W        W60358  37.350  31.467   0.915
96602W        W60359  21.027  27.654   4.213
96603W        W60360   3.460  10.692   3.386
96604W        W60361  20.212  17.098  13.835
96605W        W60362   7.746  28.005   2.237
96606W        W60363   4.215   8.282  14.857
96607W        W60364  26.180  37.528   0.425
96608W        W60365  22.156  17.293  11.969
96609W        W60366  10.813  35.967  10.562
96610W        W60367  30.540  20.149   0.894
96611W        W60368  26.084  21.757  11.565
96612W        W60369  27.666   9.386  12.836
96613W        W60370   8.765  17.787  14.485
96614W        W60371  40.014  38.508  12.488
96615W        W60372  33.483  21.208  10.983
96616W        W60373  38.461  19.567   0.925
96617W        W60374  38.435  17.269  13.353
96618W        W60375  20.588  36.962  13.047
96619W        W60376  22.065  43.453  14.378
96620W        W60377  17.628  22.508   1.246
96621W        W60378  16.131  37.582   2.755
96622W        W60379  17.776  44.941   3.192
96623W        W60380   7.805  17.088  13.335
96624W        W60381  21.675  44.318  13.843
96625W        W60382  23.507  39.381  14.991
96626W        W60383  14.195   3.352  11.930
96627W        W60384  16.266  28.657  13.455
96628W        W60385  12.230   3.292  13.943
96629W        W60386  16.730  25.610  12.899
96630W        W60387  30.043  32.456  13.022
96631W        W60388   6.407  44.400   2.807
96632W        W60389  28.483  27.950  14.396
96633W        W60390  31.026   7.853  12.478
96634W        W60391  34.561   8.898  10.477
96635W        W60392   0.976  40.516  13.873
96636W        W60393  11.810  42.885  12.979
96637W        W60394  14.271  39.424   4.610
96638W        W60395  41.406  44.452   4.819
96639W        W60396  31.090  27.080   9.622
96640W        W60397  26.457   6.766  10.573
96641W        W60398  44.803  12.821  13.812
96642W        W60399  21.630  30.535  14.324
96643W        W60400  15.652   7.249  11.382
96644W        W60401  34.081  32.020  14.414
96645W        W60402  25.979  43.509   0.809
96646W        W60403  31.600   5.870  13.980
96647W        W60404   4.302  10.820  11.030
96648W        W60405   9.224  12.806   1.222
96649W        W60406  32.486  42.393   1.274
96650W        W60407  22.109   6.205   3.678
96651W        W60408  31.403  37.375  10.139
96652W        W60409   9.380  42.023   3.726
96653W        W60410  22.706  16.708  10.592
96654W        W60411  12.774  33.932  12.951
96655W        W60412  40.894  10.206  13.047
96656W        W60413  40.984   7.325  11.022
96657W        W60414   3.922  18.701  12.551
96658W        W60415  43.870  26.613   1.827
96659W        W60416  35.409  18.208   4.198
96660W        W60417   6.914  13.295   3.739
96661W        W60418  27.520  19.587  14.770
96662W        W60419  15.609  25.688   1.398
96663W        W60420  26.510  28.996  11.038
96664W        W60421  33.550  11.301   3.291
96665W        W60422  15.751  26.049  14.320
96666W        W60423  11.846  39.456   0.965
96667W        W60424  18.559  27.642  14.396
96668W        W60425  10.777   0.328  12.870
96669W        W60426  42.845  38.343  11.978
96670W        W60427  34.927  13.736  14.805
96671W        W60428  30.944  29.632  14.477
96672W        W60429   4.765  44.379   4.192
96673W        W60430  23.578  43.353  14.911
96674W        W60431  19.185  37.085   9.566
96675W        W60432  14.606   2.818   3.150
96676W        W60433  42.979  21.025  14.787
96677W        W60434  20.691  18.679  13.445
96678W        W60435   9.261  28.086   1.782
96679W        W60436  26.969  23.544  14.833
96680W        W60437   4.885  10.840  12.528
96681W        W60438  23.581  17.128   0.774
96682W        W60439  16.585  18.146   0.854
96683W        W60440   8.695   7.253  13.829
96684W        W60441  29.460   8.201   3.159
96685W        W60442   4.832  16.579   0.789
96686W        W60443  14.819  39.943  11.535
96687W        W60444  22.080  11.769  12.463
96688W        W60445  22.713  14.823  11.398
96689W        W60446  44.380  41.401  12.551
96690W        W60447  35.080  36.500  13.423
96691W        W60448  34.918  42.859   3.177
96692W        W60449  36.891  35.079   0.730
96693W        W60450  20.741  17.744   1.798
96694W        W60451   7.209   4.889   0.944
96695W        W60452  33.060  38.485  12.428
96696W        W60453  42.845  17.164  12.460
96697W        W60454  23.518  22.695   3.337
96698W        W60455   9.311  26.622  12.028
96699W        W60456  18.558   2.723  12.079
96700W        W60457   5.858  30.573  12.898
96701W        W60458   1.253   8.897  13.404
96702W        W60459   3.894   7.736  13.051
96703W        W60460  19.605  35.928   2.220
96704W        W60461   4.918  35.360  12.948
96705W        W60462  17.746  37.455   0.871
96706W        W60463   1.972  23.080   2.366
96707W        W60464  21.170  11.266   9.925
96708W        W60465  39.438  20.687   2.282
96709W        W60466  42.337  32.523  11.064
96710W        W60467   0.481  44.773   4.245
96711W        W60468  31.037  26.611   0.856
96712W        W60469  25.495  21.705   2.885
96713W        W60470   1.861  14.255  13.929
96714W        W60471   1.442  44.445   0.929
96715W        W60472  43.328  27.570  14.936
96716W        W60473  20.665  19.117  10.512
96717W        W60474  21.597  15.701  12.849
96718W        W60475  38.486  38.481  11.069
96719W        W60476   6.311   1.733  13.533
96720W        W60477  39.393  42.511   2.417
96721W        W60478  43.397  34.390  10.517
96722W        W60479   9.324  40.032  11.414
96723W        W60480  11.687  19.219  12.443
96724W        W60481  23.226  34.945  11.581
96725W        W60482  18.631  34.016  13.417
96726W        W60483  39.030  15.085  14.807
96727W        W60484   8.254  42.421  11.548
96728W        W60485  27.975   2.948   4.702
96729W        W60486  39.348   2.841  11.490
96730W        W60487  33.451  38.946   0.381
96731W        W60488  42.297  20.757  14.763
96732W        W60489  38.825  43.331  11.040
96733W        W60490  23.144  32.988  10.613
96734W        W60491  39.525   6.356   0.266
96735W        W60492  32.536   8.361  11.556
96736W        W60493  43.880   0.843   1.405
96737W        W60494  37.026   8.171  11.965
96738W        W60495  10.699  13.199  11.585
96739W        W60496  42.972  24.715  10.983
96740W        W60497  28.018   9.224  14.844
96741W        W60498  24.031  14.738   2.842
96742W        W60499  25.473  44.971  14.470
96743W        W60500   2.271   7.269  10.409
96744W        W60501   2.816  16.803  13.467
96745W        W60502   5.265  23.630  13.435
96746W        W60503  34.375  10.249  14.856
96747W        W60504   7.896  32.405  10.948
96748W        W60505  15.258  15.086  10.029
96749W        W60506  21.658  15.108  12.917
96750W        W60507  18.289  11.840   2.741
96751W        W60508   6.736   9.660  12.947
96752W        W60509  26.680  42.993   0.279
96753W        W60510  31.591  22.121   2.284
96754W        W60511  16.087  27.550  14.463
96755W        W60512  17.118   5.852   1.424
96756W        W60513  10.255   3.813  13.477
96757W        W60514   9.170  28.984  13.012
96758W        W60515   2.882  43.916  14.031
96759W        W60516  20.672  43.507  10.922
96760W        W60517   1.855  33.949  14.422
96761W        W60518   9.230  27.056   2.814
96762W        W60519  39.405   4.295   2.725
96763W        W60520   0.320  14.159   2.665
96764W        W60521  12.245  24.143  11.506
96765W        W60522  10.650   9.705  13.404
96766W        W60523  22.736  12.312  11.010
96767W        W60524   9.204  26.058  14.334
96768W        W60525  25.024  19.237   4.256
96769W        W60526  31.105  44.306   0.444
96770W        W60527  44.350   6.265   2.299
96771W        W60528  38.553   4.240   4.317
96772W        W60529   5.808  11.793   2.866
96773W        W60530  12.732  30.954  14.842
96774W        W60531  34.892   6.319   1.247
96775W        W60532  34.598  24.988   2.287
96776W        W60533  23.044  13.195   0.408
96777W        W60534  24.131  18.746   0.941
96778W        W60535  36.554  17.084  12.864
96779W        W60536  44.269  20.715  12.494
96780W        W60537  41.860  32.430   4.707
96781W        W60538   2.356   2.307  12.580
96782W        W60539  20.050  41.812   4.778
96783W        W60540   4.361  12.163  13.458
96784W        W60541  28.468  27.492  10.947
96785W        W60542   8.318   0.772   4.320
96786W        W60543   8.216   5.368   4.284
96787W        W60544  42.389   2.837  13.537
96788W        W60545  17.308  14.609   1.843
96789W        W60546  20.075  10.764   2.670
96790W        W60547  22.201  18.702   1.345
96791W        W60548  25.987  26.555  14.955
96792W        W60549  31.546  22.046   4.766
96793W        W60550  10.638  40.517   0.757
96794W        W60551  38.894  35.108  11.866
96795W        W60552  42.319   6.326   2.874
96796W        W60553  17.142   4.432  11.118
96797W        W60554  27.606  37.482   2.860
96798W        W60555  30.959  24.666  11.383
96799W        W60556  11.331  41.534   4.669
96800W        W60557  34.070  19.253   2.808
96801W        W60558  15.751   5.895   1.261
96802W        W60559  12.218   0.417   0.418
96803W        W60560  15.697  44.314   0.854
96804W        W60561   3.880  30.131  11.128
96805W        W60562  17.634  37.392  11.979
96806W        W60563  25.162  44.364   3.647
96807W        W60564  35.860  34.061   0.352
96808W        W60565  24.194  20.188   1.247
96809W        W60566   9.204  38.040  11.048
96810W        W60567  28.045  42.807   5.282
96811W        W60568  30.958  29.611  10.595
96812W        W60569   5.695  24.709  14.023
96813W        W60570  38.925  44.766  11.404
96814W        W60571  11.355   5.788   2.229
96815W        W60572  22.142  12.170   1.702
96816W        W60573  38.445  18.092  13.023
96817W        W60574  29.128  25.683   4.786
96818W        W60575  38.468  35.487   3.230
96819W        W60576  44.848  28.066   0.755
96820W        W60577  10.868  28.490   2.859
96821W        W60578  25.972  15.102  12.989
96822W        W60579  11.729   3.306  10.569
96823W        W60580  30.541  27.008  13.500
96824W        W60581   1.843  25.096   4.615
96825W        W60582  32.972  36.387   4.308
96826W        W60583  28.060  25.965   3.344
96827W        W60584  38.835  22.650   1.787
96828W        W60585  17.778  10.803   1.329
96829W        W60586  29.456  31.003  12.970
96830W        W60587  30.595  27.595  12.961
96831W        W60588  39.384  41.799   2.716
96832W        W60589  22.044  12.798   3.866
96833W        W60590  14.658   7.240   3.842
96834W        W60591   2.345  30.135  14.466
96835W        W60592   2.375  33.456   3.724
96836W        W60593  44.424  32.042   4.210
96837W        W60594   3.436  11.354  12.868
96838W        W60595  26.555  33.591   1.219
96839W        W60596  10.267  30.641   1.710
96840W        W60597  43.806  29.956  10.963
96841W        W60598  18.124   7.297   1.440
96842W        W60599   8.234   4.230   2.818
96843W        W60600  42.289   0.303   4.211
96844W        W60601  32.927  34.416   1.284
96845W        W60602  12.175   7.859   2.186
96846W        W60603  37.536  16.075  11.602
96847W        W60604   5.337  43.016  10.936
96848W        W60605  22.230  24.025  10.475
96849W        W60606  37.004   9.368  11.892
96850W        W60607   8.178   1.975   3.832
96851W        W60608  22.119   0.979   1.840
96852W        W60609  42.371  16.764   1.380
96853W        W60610  31.026  28.961  13.805
96854W        W60611  27.565  32.915   1.742
96855W        W60612  38.846   7.752  12.825
96856W        W60613  12.175  23.140  11.995
96857W        W60614  18.162  27.470  12.563
96858W        W60615   7.832  13.111  13.893
96859W        W60616  26.518   1.314  13.912
96860W        W60617  14.783  30.068   1.254
96861W        W60618   3.452  42.288   2.901
96862W        W60619  34.458  26.987   4.343
96863W        W60620  44.782   7.307  11.522
96864W        W60621  15.307   7.882   4.693
96865W        W60622   1.771  32.989  13.980
96866W        W60623  35.373  40.979  11.497
96867W        W60624  28.946  35.084  11.961
96868W        W60625  43.428   5.420  12.570
96869W        W60626  34.539  38.436  10.930
96870W        W60627  42.346  29.126  13.854
96871W        W60628  36.438   5.863   0.362
96872W        W60629  11.798   3.298   4.656
96873W        W60630   1.736  12.816   2.847
96874W        W60631  38.559  43.280   0.730
96875W        W60632   1.469  27.521  11.027
96876W        W60633  29.082  30.025  13.360
96877W        W60634  37.850  33.948   0.743
96878W        W60635   2.881   6.342  12.901
96879W        W60636  37.445  14.135   5.114
96880W        W60637  26.641  25.669  11.882
96881W        W60638   7.833  23.682  12.070
96882W        W60639  15.115  15.781   1.378
96883W        W60640  27.106  39.043  11.394
96884W        W60641  15.603  10.875  13.509
96885W        W60642  19.237  33.120  12.034
96886W        W60643  11.687  16.698   2.709
96887W        W60644  22.517  26.990  11.932
96888W        W60645  36.590  36.353   1.732
96889W        W60646  23.092   1.929   1.878
96890W        W60647  17.194   1.817  12.384
96891W        W60648  26.090  17.297   2.332
96892W        W60649  15.154  22.714   2.686
96893W        W60650  14.214  38.846   0.336
96894W        W60651  12.650  16.623   3.837
96895W        W60652   0.866  39.515  11.969
96896W        W60653  28.589  25.076  14.972
96897W        W60654  15.708  17.190   1.441
96898W        W60655  44.440   6.874   0.747
96899W        W60656  24.725  15.761  11.856
96900W        W60657   3.787   7.861   3.312
96901W        W60658  10.285  37.916  13.893
96902W        W60659   0.280  10.274   1.907
96903W        W60660  32.063  38.499   1.814
96904W        W60661  32.479  28.590  14.349
96905W        W60662  37.411  35.086   0.313
96906W        W60663  29.561  10.673   4.119
96907W        W60664  29.628   7.677  14.449
96908W        W60665  38.514  13.756  14.381
96909W        W60666   5.406   6.377   1.858
96910W        W60667  12.138  16.281   0.909
96911W        W60668  27.118  24.684  11.031
96912W        W60669  22.511   5.304   4.243
96913W        W60670  39.975  19.176   2.753
96914W        W60671  37.388   7.306  13.895
96915W        W60672  19.712   0.811  13.014
96916W        W60673  30.425  18.710  14.900
96917W        W60674  44.889  27.102  11.899
96918W        W60675  21.219   5.781  13.041
96919W        W60676   9.828  41.423   0.936
96920W        W60677   6.756  38.552   3.739
96921W        W60678  16.143  28.145   2.361
96922W        W60679  12.701  15.630  10.496
96923W        W60680  36.469  37.957   1.318
96924W        W60681  40.464  44.940   1.363
96925W        W60682   8.718   2.368  12.828
96926W        W60683  14.299  29.488   2.757
96927W        W60684  15.085   0.963   3.320
96928W        W60685  16.131  31.606  14.913
96929W        W60686  27.117  41.990   3.153
96930W        W60687  39.554  37.470  13.019
96931W        W60688   7.845  29.612   1.365
96932W        W60689  43.430  34.533  13.819
96933W        W60690  36.497  41.799   3.321
96934W        W60691  32.437   3.241   4.251
96935W        W60692   2.925  37.880  13.057
96936W        W60693  22.201  37.925   1.701
96937W        W60694  13.690  21.261  13.966
96938W        W60695  33.563   1.289  12.507
96939W        W60696  34.002  14.135   4.614
96940W        W60697  42.986  12.626  13.374
96941W        W60698  38.822   4.940   3.787
96942W        W60699  33.601  11.819  11.914
96943W        W60700  42.353  31.467   2.711
96944W        W60701  36.051  35.416  12.472
96945W        W60702  21.597  11.643   3.680
96946W        W60703  28.578   8.889  12.092
96947W        W60704  12.849   9.245  11.481
96948W        W60705  27.623  20.765  13.970
96949W        W60706  21.526  22.662   3.222
96950W        W60707  23.499  32.007  11.936
96951W        W60708  38.493  28.133   4.139
96952W        W60709  23.675   3.429   1.263
96953W        W60710  34.919  17.777  11.127
96954W        W60711  24.677  24.128  10.514
96955W        W60712  14.652  10.806   3.830
96956W        W60713  28.035  37.464   5.187
96957W        W60714  36.935  37.068   1.285
96958W        W60715  25.581   9.190  10.581
96959W        W60716   3.767  44.431   2.297
96960W        W60717  21.669  41.945   4.660
96961W        W60718   8.663  30.523  10.579
96962W        W60719   3.951   0.458  12.873
96963W        W60720  13.619  16.229  14.282
96964W        W60721  32.911  23.039  12.372
96965W        W60722  16.710   0.817  14.321
96966W        W60723  19.163   0.873  13.859
96967W        W60724  20.168  30.488  10.096
96968W        W60725  20.061  14.234   4.301
96969W        W60726  21.256   6.737  14.802
96970W        W60727  17.794  15.106   5.130
96971W        W60728  36.407  30.583  11.938
96972W        W60729  26.701  27.454   4.317
96973W        W60730  32.120  41.309  14.288
96974W        W60731  30.025  18.771  12.044
96975W        W60732  21.192  25.207  12.361
96976W        W60733  36.028  42.933   1.374
96977W        W60734   3.805  21.616   0.316
96978W        W60735  32.436  10.660   3.274
96979W        W60736   1.283  11.336  11.571
96980W        W60737  18.181  12.787  11.871
96981W        W60738  38.850  30.591   3.203
96982W        W60739  14.645  28.562   2.672
96983W        W60740   9.254   3.737   4.324
96984W        W60741  26.083  18.123   1.743
96985W        W60742  12.680  39.336   0.257
96986W        W60743   5.694  32.623   3.199
96987W        W60744  38.501  15.655  10.450
96988W        W60745  38.909  25.635  13.368
96989W        W60746  17.130   0.302   0.412
96990W        W60747  44.877   0.470  10.560
96991W        W60748  13.328  37.949   4.284
96992W        W60749  24.480  12.151   0.417
96993W        W60750   9.379  16.210   1.838
96994W        W60751   1.821   6.298   0.733
96995W        W60752  14.265   3.219  10.495
96996W        W60753   5.276  37.041   3.659
96997W        W60754   3.448   6.303  14.311
96998W        W60755  37.842  37.516  13.429
96999W        W60756  19.669  35.510  14.342
97000W        W60757  24.037  35.493   5.120
97001W        W60758  38.409  25.051  10.591
97002W        W60759   5.223   9.800   3.234
97003W        W60760  43.330  11.193  10.505
97004W        W60761  18.069   1.421  13.430
97005W        W60762  10.379  41.395  11.556
97006W        W60763   8.310  40.996   3.268
97007W        W60764  22.591  24.105  13.884
97008W        W60765  14.722  19.279   4.617
97009W        W60766   9.195   2.345  12.537
97010W        W60767  19.564  26.635  13.995
97011W        W60768  15.096   8.713  14.441
97012W        W60769  23.679  32.402  11.961
97013W        W60770  37.518   7.821  11.081
97014W        W60771  36.844  41.478   0.253
97015W        W60772   8.401   3.296  10.050
97016W        W60773  25.991  33.413  12.381
97017W        W60774  20.560  24.973   2.227
97018W        W60775  34.867  26.520  14.946
97019W        W60776  28.540  12.253   0.369
97020W        W60777  12.817  30.483  12.970
97021W        W60778  16.736   0.257   0.895
97022W        W60779  13.630  19.178  10.978
97023W        W60780   0.940  38.384   0.450
97024W        W60781   6.743  16.800   4.223
97025W        W60782  14.295  12.122   3.636
97026W        W60783  13.329   7.714   0.245
97027W        W60784  34.419  39.381  14.317
97028W        W60785   5.890  24.492   4.242
97029W        W60786  44.929   0.311   5.171
97030W        W60787   4.792  30.425  13.888
97031W        W60788   2.781  18.546  14.824
97032W        W60789  26.642  42.292  14.348
97033W        W60790  22.636   2.439  13.887
97034W        W60791  19.749  40.028  14.885
97035W        W60792  41.478   1.922   4.604
97036W        W60793  40.548  29.474  14.976
97037W        W60794  40.501   7.312   2.186
97038W        W60795  23.529  24.085  11.079
97039W        W60796  41.519  43.821   2.855
97040W        W60797  16.645  11.733   4.815
97041W        W60798  26.630  11.243   1.738
97042W        W60799   0.812   5.410   2.822
97043W        W60800   9.255  32.622   1.928
97044W        W60801   4.765   8.183  10.497
97045W        W60802   9.721   3.889   1.732
97046W        W60803  18.164  32.593  11.116
97047W        W60804  29.429  15.643  11.577
97048W        W60805   2.381  16.709  10.936
97049W        W60806  22.709   6.289   2.688
97050W        W60807  13.719  43.836  13.426
97051W        W60808   1.433   7.668   2.778
97052W        W60809  39.541  23.718  11.984
97053W        W60810   5.859  20.145   2.258
97054W        W60811   8.833  35.569   2.384
97055W        W60812  42.463  26.655  11.468
97056W        W60813  12.200  37.007   2.667
97057W        W60814  44.771   2.869  14.811
97058W        W60815  10.319  10.684   0.749
97059W        W60816   1.276  41.000   0.430
97060W        W60817  24.691  19.583  11.453
97061W        W60818   8.355  21.096   4.155
97062W        W60819  43.308  35.525   2.862
97063W        W60820  31.044  32.096   5.119
97064W        W60821  34.906   2.229   3.367
97065W        W60822  28.482   4.401   3.654
97066W        W60823  39.869  37.492   1.442
97067W        W60824   2.388  34.913  13.900
97068W        W60825  29.997  32.562  14.511
97069W        W60826  19.270   0.379   4.348
97070W        W60827  11.361  26.566  14.891
97071W        W60828  24.692  35.488   1.733
97072W        W60829  17.560  14.602   1.835
97073W        W60830  30.466  29.944   4.172
97074W        W60831  25.971  41.295   3.248
97075W        W60832  18.234   0.854   1.843
97076W        W60833  43.020  41.859   2.781
97077W        W60834   9.670  19.763   4.735
97078W        W60835  15.267   7.346  14.357
97079W        W60836  35.601  21.053   0.453
97080W        W60837  30.910  26.981   5.303
97081W        W60838   7.906   2.460   2.306
97082W        W60839  18.650  25.035   4.825
97083W        W60840  13.704  10.238   0.304
97084W        W60841   3.923  30.051   0.813
97085W        W60842  28.609  23.493   1.874
97086W        W60843  10.811  15.797   2.877
97087W        W60844  10.851  19.184  10.570
97088W        W60845   3.356   7.846  12.410
97089W        W60846  32.563  34.024   0.413
97090W        W60847  27.141  29.984   0.813
97091W        W60848  43.306  19.265  11.013
97092W        W60849  28.449  40.897   1.777
97093W        W60850  16.268  38.537  11.527
97094W        W60851  25.579  10.753   2.680
97095W        W60852   7.393   4.446  10.524
97096W        W60853  26.981  29.583   0.420
97097W        W60854  10.320  16.314  13.376
97098W        W60855  29.546  41.978   3.193
97099W        W60856  44.472  25.714   4.280
97100W        W60857  21.695  12.268  13.321
97101W        W60858   8.259  38.010  12.402
97102W        W60859  22.616  36.457  13.991
97103W        W60860  15.596  17.105  13.039
97104W        W60861  18.117  10.838  10.890
97105W        W60862  18.211  17.132   1.712
97106W        W60863   0.461   1.779   4.776
97107W        W60864  29.487  19.599  14.811
97108W        W60865  27.035  25.610  12.388
97109W        W60866  33.989   7.272   3.842
97110W        W60867  21.620   0.964   4.653
97111W        W60868   9.247  43.284  13.418
97112W        W60869   4.837  17.745  12.525
97113W        W60870  37.870  14.659  11.862
97114W        W60871  13.640  34.940   0.843
97115W        W60872   5.401   2.272  13.046
97116W        W60873  17.571   7.717  13.359
97117W        W60874  40.319   2.438   0.468
97118W        W60875  20.061   3.433  14.998
97119W        W60876  20.131  18.170   4.622
97120W        W60877  43.820  25.582  12.357
97121W        W60878  37.375  44.914  11.476
97122W        W60879  19.698  15.301   9.997
97123W        W60880  13.338  39.380   0.394
97124W        W60881  34.506  22.589  12.843
97125W        W60882   3.297  42.897  14.368
97126W        W60883  28.101   9.269   2.780
97127W        W60884  39.881  20.589  10.454
97128W        W60885   2.861  22.616   3.320
97129W        W60886  35.481  34.030   0.388
97130W        W60887  26.201  18.225   4.162
97131W        W60888  41.873  34.568   4.230
97132W        W60889  37.447  30.955   0.327
97133W        W60890  10.793  36.937  12.838
97134W        W60891  25.087   1.352  12.472
97135W        W60892  21.229  18.098  10.120
97136W        W60893  24.720  41.473   4.267
97137W        W60894  27.176  44.440  11.381
97138W        W60895  28.607   2.351  14.429
97139W        W60896  34.544   8.864   1.760
97140W        W60897   1.394  28.453   4.169
97141W        W60898  39.394  13.774   0.857
97142W        W60899   3.906  23.576  10.159
97143W        W60900  31.925  42.941  13.482
97144W        W60901   8.768  25.521   1.430
97145W        W60902  40.841  15.294   3.372
97146W        W60903  23.141  34.391   1.742
97147W        W60904  34.465   8.338   4.820
97148W        W60905  41.901   1.906  12.446
97149W        W60906  34.092  15.235   4.653
97150W        W60907  36.369  42.822   4.837
97151W        W60908  12.260  25.681   0.934
97152W        W60909  34.418  41.851  11.502
97153W        W60910  17.791   5.311   0.958
97154W        W60911  42.344  15.802  11.600
97155W        W60912   1.949  33.034   2.735
97156W        W60913  34.578  24.088  10.905
97157W        W60914  29.991  42.427  11.998
97158W        W60915  30.963  41.854   2.900
97159W        W60916   2.848  17.066  10.573
97160W        W60917  20.726   0.762   2.310
97161W        W60918  35.480  24.192   3.847
97162W        W60919   8.392   3.888  11.013
97163W        W60920  23.714   3.814  11.955
97164W        W60921  18.198  13.171  14.947
97165W        W60922   2.427  30.913  14.873
97166W        W60923  17.221   6.262   1.306
97167W        W60924  29.979  35.406   0.248
97168W        W60925   7.757  34.610   0.779
97169W        W60926   6.338  19.634   1.431
97170W        W60927  15.732  24.648  11.972
97171W        W60928  18.741   9.219  11.991
97172W        W60929  15.692  37.409  12.954
97173W        W60930  42.911  10.222   1.213
97174W        W60931  40.499   2.277  11.470
97175W        W60932  24.575  31.946   1.451
97176W        W60933  23.174   3.791   4.715
97177W        W60934  30.056  33.429  12.852
97178W        W60935  35.587  35.902   2.194
97179W        W60936  39.388   9.364   4.350
97180W        W60937   9.283  14.598  13.923
97181W        W60938  36.060  27.498   3.645
97182W        W60939  24.689  30.417   2.719
97183W        W60940   9.820  42.028   1.779
97184W        W60941  40.947   9.861   1.289
97185W        W60942   1.939   2.736   4.320
97186W        W60943  17.296  43.993  13.322
97187W        W60944   5.841  36.041   4.749
97188W        W60945  24.977  38.903   0.949
97189W        W60946  11.184  22.160   2.217
97190W        W60947   9.239  12.771  13.023
97191W        W60948   3.935  12.124   4.157
97192W        W60949  10.687   9.368  12.558
97193W        W60950  44.853  18.671   0.437
97194W        W60951  17.747   0.298  12.423
97195W        W60952   5.905   6.360   4.201
97196W        W60953  21.034  14.167   3.191
97197W        W60954  43.456   8.295   0.319
97198W        W60955  30.565  15.810   3.336
97199W        W60956   9.889  40.511   3.693
97200W        W60957  14.276  11.824  13.959
97201W        W60958   7.283  15.270  11.589
97202W        W60959  24.518  42.328   3.723
97203W        W60960  23.511  24.982   0.252
97204W        W60961   1.400  18.076  11.460
97205W        W60962   7.685  38.009  12.533
97206W        W60963  24.710  35.958   3.361
97207W        W60964  44.775  12.622  12.971
97208W        W60965   2.734  17.160  12.079
97209W        W60966  44.420   7.208   3.715
97210W        W60967  44.304  30.496  10.620
97211W        W60968  31.906   5.197   1.772
97212W        W60969  18.565  15.709   1.817
97213W        W60970  35.939   9.713  14.848
97214W        W60971  31.447   2.961  11.950
97215W        W60972  13.326  27.104   1.243
97216W        W60973   0.858  39.863  11.489
97217W        W60974  15.189  33.940   0.768
97218W        W60975  44.435  28.055   5.103
97219W        W60976  13.669  18.274  10.532
97220W        W60977   2.415  15.817  12.915
97221W        W60978   4.396  13.329  13.036
97222W        W60979  31.104  10.764  11.883
97223W        W60980   0.403  22.565  13.808
97224W        W60981  36.098   8.338   0.951
97225W        W60982  31.140  44.505   4.791
97226W        W60983  14.177  44.945  11.487
97227W        W60984  16.108  25.707   4.196
97228W        W60985  15.707   4.846   0.305
97229W        W60986  16.753  36.403   2.308
97230W        W60987  21.228  30.054  10.617
97231W        W60988  28.464   0.451  14.367
97232W        W60989  44.427  21.218  14.863
97233W        W60990  34.931  37.447  10.036
97234W        W60991   3.359  12.246   4.809
97235W        W60992  29.958  25.500  11.911
97236W        W60993   6.875  10.165  10.520
97237W        W60994   6.782   0.762  10.414
97238W        W60995  23.639  33.034  12.578
97239W        W60996  36.585   3.833   4.142
97240W        W60997  37.568  22.504  14.991
97241W        W60998  32.102  16.107   4.175
97242W        W60999  37.435  24.108   1.774
97243W        W61000  35.478  12.283  10.929
97244W        W61001  12.174  24.044   1.699
97245W        W61002  13.154  18.552   0.763
97246W        W61003   5.905  37.570   0.937
97247W        W61004  36.444  22.655   2.772
97248W        W61005   6.391  18.585  14.853
97249W        W61006   3.270  18.771   0.934
97250W        W61007  22.652  13.278  10.472
97251W        W61008   8.302  27.457   1.334
97252W        W61009  39.836  10.223   2.875
97253W        W61010   8.359  11.742   2.350
97254W        W61011  36.435  16.642   0.341
97255W        W61012  39.825  10.349  12.076
97256W        W61013  13.824  16.152   4.650
97257W        W61014   8.881  19.580   3.165
97258W        W61015  32.915  43.872  12.513
97259W        W61016  26.539  32.028   1.868
97260W        W61017  25.626  37.523   2.830
97261W        W61018  44.467   0.794   4.170
97262W        W61019  42.902   6.873  12.843
97263W        W61020  26.597  44.431   4.622
97264W        W61021  42.947  43.361   4.150
97265W        W61022  41.974  35.017  12.034
97266W        W61023   8.825  27.529  13.968
97267W        W61024  44.836   6.790  10.608
97268W        W61025  37.541   2.721   0.419
97269W        W61026  28.933  16.282   2.751
97270W        W61027  18.229  15.757  12.888
97271W        W61028  30.963  24.196  11.071
97272W        W61029  33.991  10.176  14.919
97273W        W61030   2.843  31.111   3.200
97274W        W61031  23.679  22.705  14.996
97275W        W61032   3.740   6.292   3.645
97276W        W61033  40.307  17.218  11.379
97277W        W61034  18.129   7.391  10.431
97278W        W61035  34.461  20.758   1.766
97279W        W61036  21.586  24.225   1.849
97280W        W61037  42.910  35.420  12.487
97281W        W61038  16.761  19.543   1.384
97282W        W61039  42.843  23.706   4.615
97283W        W61040  15.189   1.973  11.926
97284W        W61041  12.239  12.255  14.444
97285W        W61042  10.286  33.503  10.535
97286W        W61043  42.409  36.363   0.861
97287W        W61044  12.185   9.834  14.028
97288W        W61045  10.344   0.402  13.803
97289W        W61046   9.723  26.543  14.769
97290W        W61047  33.903  27.970  13.948
97291W        W61048  32.041   0.467  13.400
97292W        W61049  43.360  15.756   1.281
97293W        W61050  23.079  27.519   1.257
97294W        W61051  20.528  20.578  12.970
97295W        W61052  27.486  31.969   1.876
97296W        W61053  20.246  26.156  14.918
97297W        W61054  27.584   7.283   0.746
97298W        W61055  33.498   9.349  14.976
97299W        W61056  33.481  11.293   4.737
97300W        W61057  32.945   5.286   2.333
97301W        W61058  42.497   8.787  11.610
97302W        W61059  22.075  38.331  13.509
97303W        W61060   5.775  21.032  11.472
97304W        W61061  35.525   0.306  13.369
97305W        W61062  33.618  23.209   2.254
97306W        W61063  13.309  39.013  12.447
97307W        W61064  17.198   0.983  10.043
97308W        W61065  36.537   9.284   0.434
97309W        W61066  31.958  33.546   0.457
97310W        W61067  16.810  19.111  13.538
97311W        W61068  39.864  11.206   0.843
97312W        W61069   7.301  30.120   2.713
97313W        W61070  14.593  17.168   2.691
97314W        W61071  42.431  28.103   4.665
97315W        W61072  35.539  43.853  11.053
97316W        W61073  13.701   1.798  14.836
97317W        W61074  22.618  40.966   3.213
97318W        W61075  10.212  40.403  10.559
97319W        W61076  15.225  24.619  12.842
97320W        W61077  29.133  30.523  13.316
97321W        W61078  34.949  29.601   4.781
97322W        W61079  30.914  40.501  12.938
97323W        W61080  16.149  33.016   2.716
97324W        W61081   8.352   2.759  12.516
97325W        W61082   3.354  22.996   2.386
97326W        W61083  43.807  21.610   4.698
97327W        W61084  23.172  18.692   1.356
97328W        W61085   5.897  41.443  10.926
97329W        W61086  32.552  37.448  10.096
97330W        W61087  14.725  38.503  13.830
97331W        W61088  14.111  12.287  14.837
97332W        W61089  38.076  27.517  10.923
97333W        W61090  26.661   3.935   1.930
97334W        W61091  25.635  37.489  14.939
97335W        W61092   6.217  18.270  11.466
97336W        W61093  13.733  42.338  13.909
97337W        W61094  27.485  36.550  11.406
97338W        W61095  28.019  23.085  14.303
97339W        W61096  38.364  29.457  12.863
97340W        W61097  19.042   7.351  10.641
97341W        W61098  24.195  32.585  10.463
97342W        W61099  43.421  11.770   2.745
97343W        W61100  21.148  26.518   4.623
97344W        W61101  14.607  42.355  10.628
97345W        W61102  20.161  43.868  10.637
97346W        W61103  31.923   3.347  12.078
97347W        W61104   4.758  35.009   1.921
97348W        W61105  16.620   5.208  14.852
97349W        W61106   1.273  18.120  11.099
97350W        W61107  37.489  25.103   2.416
97351W        W61108   9.745  28.977   4.331
97352W        W61109   0.811  40.528   0.827
97353W        W61110  44.318  31.971  11.546
97354W        W61111  34.489  27.062   1.240
97355W        W61112  43.448  29.094   3.382
97356W        W61113   3.459  19.245   3.184
97357W        W61114  24.487  17.115  10.950
97358W        W61115  13.306  14.273  14.820
97359W        W61116   8.701   9.767   3.638
97360W        W61117   2.331  40.373   0.303
97361W        W61118  29.946  41.007  10.577
97362W        W61119  22.139  32.997   4.225
97363W        W61120  30.059   6.889   0.957
97364W        W61121  31.147   9.748   1.858
97365W        W61122  25.066  29.656   1.731
97366W        W61123  43.010  24.620   0.248
97367W        W61124   8.831  19.242  10.125
97368W        W61125   2.779  23.528  10.918
97369W        W61126  10.342  13.242  13.309
97370W        W61127  38.492  27.596   1.861
97371W        W61128  35.560   7.877  12.570
97372W        W61129  13.805  15.205  13.481
97373W        W61130  25.973  26.073   2.829
97374W        W61131  19.197  42.908   4.669
97375W        W61132  33.399  43.438   3.299
97376W        W61133  36.908   2.830  12.571
97377W        W61134  21.616  38.859   2.876
97378W        W61135   0.342  33.407   3.150
97379W        W61136   9.383   6.390   4.269
97380W        W61137  25.691  37.993   2.829
97381W        W61138  41.975   3.360   1.772
97382W        W61139   8.714  14.640  11.948
97383W        W61140  40.020  12.764   0.925
97384W        W61141  14.634  28.174   0.896
97385W        W61142   1.906  25.538  13.478
97386W        W61143   3.913   2.287  13.460
97387W        W61144  43.906  30.449   3.258
97388W        W61145  18.179  30.989   2.413
97389W        W61146   5.802   7.285   4.172
97390W        W61147  35.522  26.957  14.444
97391W        W61148  43.430  10.176  13.806
97392W        W61149  35.954  11.685   2.727
97393W        W61150  13.690  19.166  10.463
97394W        W61151  35.428  39.045   1.901
97395W        W61152   2.873  41.992   3.169
97396W        W61153  11.290  27.078  11.528
97397W        W61154  26.670  16.263   5.108
97398W        W61155   9.870  22.729  14.479
97399W        W61156  16.121  18.563   1.226
97400W        W61157  19.734   9.719   1.307
97401W        W61158  24.654  28.004   2.865
97402W        W61159  26.633   6.280   2.314
97403W        W61160  16.116  42.469   5.172
97404W        W61161  42.469  37.357  14.377
97405W        W61162  13.120  11.355   4.803
97406W        W61163  25.613  40.947  13.332
97407W        W61164  27.459  42.797   0.426
97408W        W61165   5.812  22.105  11.977
97409W        W61166   2.781   0.920  13.360
97410W        W61167  25.019  28.037  13.985
97411W        W61168  42.439  18.280   2.295
97412W        W61169  31.609  16.193   2.373
97413W        W61170  12.172  12.325   1.872
97414W        W61171  41.864   1.422  12.519
97415W        W61172  28.120  18.206  13.841
97416W        W61173  18.091  27.639  14.378
97417W        W61174  28.498  34.095   4.339
97418W        W61175  10.818  36.057   1.308
97419W        W61176  24.645  29.531  12.049
97420W        W61177  10.378  43.888   0.417
97421W        W61178  33.530  13.209   0.445
97422W        W61179  24.524   2.796   1.373
97423W        W61180  24.219  14.634  12.370
97424W        W61181  41.475  22.742  13.310
97425W        W61182   6.850   3.355   4.830
97426W        W61183   7.674  33.054  13.031
97427W        W61184  16.713  27.670  11.080
97428W        W61185  26.680  37.041   2.662
97429W        W61186  10.177  35.528   1.779
97430W        W61187  25.098   0.306   1.414
97431W        W61188  43.838  35.551  10.409
97432W        W61189  25.510  38.466   1.294
97433W        W61190  35.078  21.740   2.682
97434W        W61191   8.334   7.849  14.849
97435W        W61192  11.813   0.864   1.879
97436W        W61193  19.133  26.967   2.215
97437W        W61194  33.128  35.596   0.460
97438W        W61195  36.844  17.759   4.748
97439W        W61196  38.942  13.606   3.725
97440W        W61197   3.901  34.002  11.425
97441W        W61198  40.520  34.587   4.169
97442W        W61199  21.123  17.694  12.454
97443W        W61200  19.084  40.498   0.284
97444W        W61201  39.488  32.072   3.774
97445W        W61202  22.517  21.685   4.717
97446W        W61203  16.112  14.259  12.390
97447W        W61204  29.587   2.859   3.367
97448W        W61205  24.127  21.615   1.222
97449W        W61206  39.376  18.739   2.675
97450W        W61207  25.647  29.018  14.321
97451W        W61208  33.571   6.738   0.928
97452W        W61209  17.695  41.039  12.899
97453W        W61210  40.380  37.487  13.542
97454W        W61211   9.254  12.355  14.986
97455W        W61212  37.887  28.500  10.637
97456W        W61213  35.518  42.297  11.993
97457W        W61214   4.329   4.826  11.607
97458W        W61215  26.019   3.914  12.985
97459W        W61216  44.453   9.693   0.279
97460W        W61217  43.019  40.391   3.829
97461W        W61218  38.864  14.195   1.297
97462W        W61219  23.586  40.353  14.409
97463W        W61220   6.915  26.600   0.301
97464W        W61221  28.184  18.670  12.521
97465W        W61222  39.560   8.813  13.331
97466W        W61223  21.714  11.328  14.406
97467W        W61224   7.809  18.166  10.521
97468W        W61225  15.732  28.533   2.711
97469W        W61226  40.486  41.826   2.773
97470W        W61227  18.087  29.518   3.317
97471W        W61228  25.097  16.680  10.486
97472W        W61229  11.662  25.650  11.454
97473W        W61230   7.697  27.569   2.828
97474W        W61231  41.351  19.075  12.916
97475W        W61232  36.491  44.969  13.381
97476W        W61233  16.586  27.953  13.430
97477W        W61234  17.197  17.631   3.170
97478W        W61235   2.350   9.333   0.277
97479W        W61236  40.412  15.110   3.258
97480W        W61237  14.283  36.420   4.244
97481W        W61238  37.951  11.648  13.866
97482W        W61239  32.592  40.797  12.551
97483W        W61240  35.019  41.411   1.920
97484W        W61241  29.518  28.986   1.768
97485W        W61242  42.477  24.502   1.393
97486W        W61243   3.929  31.636  14.456
97487W        W61244   1.770  37.963   2.326
97488W        W61245   3.314  32.986   1.366
97489W        W61246  28.072  33.978   4.770
97490W        W61247  11.823   7.221   1.297
97491W        W61248  35.419  18.590   0.290
97492W        W61249  29.649  35.031   3.769
97493W        W61250  32.490   8.859   1.358
97494W        W61251   5.869  11.701   4.833
97495W        W61252  17.171   8.372   1.909
97496W        W61253  19.552  38.920   3.685
97497W        W61254  43.015  38.542   4.660
97498W        W61255  24.202  35.003  12.990
97499W        W61256  25.661  37.384  14.298
97500W        W61257  38.993  42.451  12.384
97501W        W61258  21.602  28.664   4.208
97502W        W61259  24.070  35.491   2.380
97503W        W61260  21.181  27.627  10.639
97504W        W61261  16.306  30.629  12.836
97505W        W61262  42.454   1.308   2.343
97506W        W61263  14.592  20.035  11.984
97507W        W61264  33.924   5.309  13.518
97508W        W61265  16.628  31.628   0.337
97509W        W61266   3.820  40.416  10.550
97510W        W61267  42.966  16.673   4.629
97511W        W61268  20.620  27.148   3.348
97512W        W61269  19.753  24.082  10.509
97513W        W61270  29.551   3.384  13.798
97514W        W61271   7.738  11.786   4.265
97515W        W61272  40.933  20.229   4.237
97516W        W61273  27.589  39.828   0.426
97517W        W61274  32.490   2.919  12.540
97518W        W61275  25.608  35.555  10.516
97519W        W61276  15.113  37.086   1.238
97520W        W61277  13.352  11.793  11.112
97521W        W61278   7.677  19.751   3.248
97522W        W61279  33.550  40.542  10.525
97523W        W61280  36.483   6.322  13.507
97524W        W61281  26.584  11.659   1.369
97525W        W61282  26.592   0.344  13.387
97526W        W61283  11.681   8.321  11.861
97527W        W61284   8.658  25.990   2.250
97528W        W61285  34.542  10.301  14.019
97529W        W61286  18.219   4.447   4.155
97530W        W61287  10.310  24.619  11.127
97531W        W61288  13.120  39.487  14.329
97532W        W61289   3.869  35.461  13.808
97533W        W61290  24.640  33.404  12.956
97534W        W61291   7.367  38.334   3.869
97535W        W61292   9.875  24.597   2.824
97536W        W61293  39.025   0.898   4.756
97537W        W61294   3.814  38.852  11.567
97538W        W61295  30.427   2.826   0.879
97539W        W61296   0.891   1.836  11.883
97540W        W61297  22.722  23.601  10.972
97541W        W61298  32.489   8.367   0.392
97542W        W61299  16.798  26.577  10.501
97543W        W61300  32.395  40.929  10.888
97544W        W61301  19.208  18.189   2.279
97545W        W61302   5.287  41.835  14.913
97546W        W61303  36.090  41.864   2.832
97547W        W61304   5.240  19.768  13.412
97548W        W61305   4.812   2.366  12.383
97549W        W61306  23.560  14.268   4.820
97550W        W61307  41.492  40.544  13.316
97551W        W61308  18.761  41.921  14.426
97552W        W61309  43.886  22.100  12.497
97553W        W61310   3.793  12.843   3.757
97554W        W61311  28.029  30.461   3.263
97555W        W61312  40.974  18.270  12.377
97556W        W61313   8.866  19.737   0.249
97557W        W61314  23.561  13.612  12.939
97558W        W61315  40.363  34.370  12.975
97559W        W61316  43.477  28.600  13.929
97560W        W61317  39.932   9.180  11.461
97561W        W61318  18.149  38.984  11.990
97562W        W61319  13.205  25.687  11.096
97563W        W61320   1.294  10.864   3.149
97564W        W61321  34.881  27.156  14.871
97565W        W61322  30.907  17.783  14.858
97566W        W61323  31.992  19.583   4.699
97567W        W61324  17.564  18.703   0.442
97568W        W61325   6.752   1.896   0.739
97569W        W61326   2.352  31.026   1.700
97570W        W61327  37.072  26.609  14.326
97571W        W61328  17.628  33.550   2.273
97572W        W61329  25.497  16.692   3.289
97573W        W61330   5.212  27.159   4.222
97574W        W61331  32.414  24.707   2.293
97575W        W61332   3.455  41.512   3.799
97576W        W61333  41.338   9.846   4.263
97577W        W61334  11.811  31.956  11.445
97578W        W61335  39.372  36.966  11.458
97579W        W61336  24.645  35.953  10.515
97580W        W61337  24.174  44.977  12.453
97581W        W61338  35.994  36.842  10.921
97582W        W61339  15.087   5.310  13.853
97583W        W61340  30.014   4.806   3.703
97584W        W61341  15.132   1.318   0.747
97585W        W61342   2.410   0.748  12.421
97586W        W61343  15.615  33.126  13.947
97587W        W61344   0.953  21.147  13.018
97588W        W61345  30.041  24.123   3.297
97589W        W61346  32.014  18.067   4.763
97590W        W61347  42.809   4.796   0.853
97591W        W61348  22.509  44.314  13.540
97592W        W61349  14.239  20.079   4.245
97593W        W61350   5.881  14.288  12.505
97594W        W61351  12.252  10.150  14.370
97595W        W61352  24.482  31.963  14.505
97596W        W61353  35.561  11.219  11.923
97597W        W61354  29.011  18.173  11.041
97598W        W61355  19.546   7.907   1.907
97599W        W61356  37.546  11.325  14.880
97600W        W61357  38.391  44.920  12.471
97601W        W61358  16.733  16.681  11.056
97602W        W61359  18.791  21.106   1.726
97603W        W61360  44.445   7.847  13.933
97604W        W61361  18.262  21.756  14.274
97605W        W61362  18.245  21.637  10.419
97606W        W61363  26.022  30.963   1.699
97607W        W61364  15.238  41.883  10.620
97608W        W61365   5.750  25.105  14.504
97609W        W61366  18.222  40.876   1.818
97610W        W61367  38.924   6.727   3.750
97611W        W61368  35.528  37.050  11.415
97612W        W61369   6.224  42.011   2.771
97613W        W61370  19.699   8.836  13.983
97614W        W61371  40.831  22.050  11.498
97615W        W61372  37.996  19.108   1.298
97616W        W61373  16.632   8.295   2.201
97617W        W61374  42.473  12.138   1.376
97618W        W61375  15.229  13.794  14.771
97619W        W61376   6.380  23.572  13.828
97620W        W61377  13.692  16.217  12.949
97621W        W61378  40.880   9.200   1.300
97622W        W61379  11.189   3.293   1.804
97623W        W61380   3.832  23.504  13.398
97624W        W61381  23.083  14.268   3.209
97625W        W61382  24.500  44.331   1.347
97626W        W61383  23.213  35.892  12.049
97627W        W61384  19.236  44.006   0.479
97628W        W61385   6.361  19.664  11.995
97629W        W61386  36.448  37.402  14.822
97630W        W61387   9.182  38.023   4.193
97631W        W61388  22.554  43.859  14.287
97632W        W61389   0.321  20.184  13.974
97633W        W61390  25.965  25.126   2.387
97634W        W61391  32.948   9.252   1.397
97635W        W61392  20.072  13.208   0.369
97636W        W61393   2.900  37.476   0.475
97637W        W61394  11.274   0.751  13.990
97638W        W61395  20.732   8.877   0.805
97639W        W61396  19.265  21.594   0.844
97640W        W61397  34.513  33.458  10.636
97641W        W61398  35.990  36.024  10.954
97642W        W61399   8.804  24.658  12.491
97643W        W61400  14.734  40.850   0.864
97644W        W61401  15.103  32.109   0.450
97645W        W61402  16.668  21.714   1.711
97646W        W61403   0.318  15.199   0.935
97647W        W61404   3.862   4.230  13.316
97648W        W61405  44.885  37.510  10.561
97649W        W61406  34.379  42.382  12.829
97650W        W61407  29.088  13.820  11.507
97651W        W61408  12.669  44.434   2.827
97652W        W61409  36.040  15.209   0.393
97653W        W61410   0.247  18.560  14.805
97654W        W61411  42.515  35.911   1.863
97655W        W61412  13.843   7.234   0.420
97656W        W61413   3.387  33.621  12.500
97657W        W61414   2.933  38.977   2.371
97658W        W61415   7.278  44.976  14.807
97659W        W61416  15.105  21.618   3.348
97660W        W61417  12.719  42.460  12.470
97661W        W61418  44.894  21.170  12.045
97662W        W61419  43.845  23.723   3.320
97663W        W61420  26.991   3.271  13.872
97664W        W61421  29.968  26.981  13.364
97665W        W61422  21.543  21.744   4.824
97666W        W61423   8.891   7.684   1.257
97667W        W61424  17.732  26.033   3.232
97668W        W61425  44.463  16.153   0.258
97669W        W61426  33.559  27.195  10.473
97670W        W61427  40.903   4.910  14.508
97671W        W61428   4.777  30.444   2.827
97672W        W61429  23.516  34.050  12.575
97673W        W61430  17.760  23.159  13.814
97674W        W61431  44.259  44.867   4.807
97675W        W61432   0.357   9.291   0.306
97676W        W61433  29.133  39.035   2.214
97677W        W61434  32.609  23.553  10.936
97678W        W61435  44.753  10.325   0.904
97679W        W61436  38.392   1.347   9.650
97680W        W61437  15.174  39.506   2.412
97681W        W61438  29.670   2.876  10.456
97682W        W61439  40.797  20.089  14.889
97683W        W61440   1.960   5.308   3.301
97684W        W61441   6.820  13.618  13.421
97685W        W61442  10.361  19.575   3.708
97686W        W61443  32.450  44.349   4.286
97687W        W61444  12.789   9.153   3.314
97688W        W61445  44.978  29.094  11.118
97689W        W61446  42.890  32.469  10.915
97690W        W61447  31.432  23.009  14.289
97691W        W61448  31.940  15.300  12.879
97692W        W61449  35.963  10.238   1.763
97693W        W61450  21.094  22.655  14.764
97694W        W61451  16.610  24.112   3.712
97695W        W61452  22.521  32.441   4.602
97696W        W61453  29.476   8.373  13.800
97697W        W61454   5.340  35.508  13.817
97698W        W61455  22.688   2.730   2.882
97699W        W61456  26.577   5.414   4.632
97700W        W61457  25.585   0.925   5.179
97701W        W61458  44.365   6.310   2.698
97702W        W61459  42.933  36.407   4.597
97703W        W61460   5.759  42.880  13.453
97704W        W61461  39.536  28.036  12.966
97705W        W61462  10.140  41.396   2.755
97706W        W61463  42.899  33.995  10.949
97707W        W61464   7.838   7.719  10.489
97708W        W61465  34.942  12.132  11.120
97709W        W61466   1.938   0.406  14.782
97710W        W61467  33.594  32.508  14.006
97711W        W61468  20.066  12.716   0.441
97712W        W61469   0.392  44.951   0.321
97713W        W61470   6.190  23.237   4.607
97714W        W61471  44.281  41.298  12.877
97715W        W61472  21.693  19.146   0.453
97716W        W61473  39.995  21.693  10.574
97717W        W61474   6.846   6.291   0.893
97718W        W61475  32.565  16.260   1.721
97719W        W61476   0.805  28.619   1.698
97720W        W61477  21.034   4.228   4.795
97721W        W61478  15.146  15.810   4.204
97722W        W61479  32.598   7.907  13.541
97723W        W61480   4.798   0.483   3.339
97724W        W61481  40.485  20.118  10.639
97725W        W61482   8.237  39.341   0.792
97726W        W61483  17.717  41.515   0.800
97727W        W61484  18.545  38.454   0.404
97728W        W61485  25.175  27.509   1.785
97729W        W61486  21.703  10.252  11.496
97730W        W61487  30.064  29.143  12.537
97731W        W61488  32.418  37.345   2.213
97732W        W61489   2.884  23.707   3.649
97733W        W61490  32.603   8.842  13.903
97734W        W61491   0.379   8.384  12.462
97735W        W61492  15.328  34.427   4.827
97736W        W61493  30.495  40.980  11.866
97737W        W61494  15.256  16.275  13.346
97738W        W61495   3.431  31.501   4.281
97739W        W61496  42.373  33.027  12.880
97740W        W61497  13.783  27.951   4.291
97741W        W61498  20.542  12.689  14.844
97742W        W61499  37.005  22.018  13.812
97743W        W61500  44.793  38.364   3.225
97744W        W61501  28.448  42.905   3.270
97745W        W61502  40.885  29.980  11.049
97746W        W61503  15.752   7.373   3.832
97747W        W61504  35.413  14.110   1.276
97748W        W61505  33.598   3.935   1.715
97749W        W61506  34.025  12.285  11.500
97750W        W61507  34.488  18.282   1.918
97751W        W61508   7.328  40.800  12.927
97752W        W61509  39.337  33.607   4.658
97753W        W61510   3.230   2.931   3.816
97754W        W61511  16.619  23.158  10.983
97755W        W61512   0.481  24.177   0.779
97756W        W61513  16.164   4.381  10.935
97757W        W61514  10.751   0.405   1.699
97758W        W61515  18.124  18.760   1.879
97759W        W61516  22.159  43.347  14.818
97760W        W61517  42.434  24.984   0.314
97761W        W61518  21.736  32.918   2.266
97762W        W61519  36.050  22.025   4.332
97763W        W61520  39.512  12.737   1.366
97764W        W61521   3.886  16.798  10.000
97765W        W61522  25.711  30.999   4.247
97766W        W61523   3.343   8.893   0.284
97767W        W61524  14.725  33.566   4.250
97768W        W61525  37.854  18.110  13.943
97769W        W61526  21.117   7.718  14.493
97770W        W61527   8.280  29.981   1.817
97771W        W61528  44.480  33.487  11.424
97772W        W61529  20.674  11.155   0.254
97773W        W61530  41.351  34.943  14.014
97774W        W61531  24.117  39.963  14.908
97775W        W61532  42.331  28.005  10.539
97776W        W61533  19.704  33.884  13.051
97777W        W61534  11.709  29.609   4.825
97778W        W61535  39.896   9.819   3.356
97779W        W61536  44.968  22.044   3.677
97780W        W61537  19.058  23.501   2.358
97781W        W61538  27.464   3.336   0.900
97782W        W61539  22.164  40.855   0.352
97783W        W61540  28.551  25.523   3.354
97784W        W61541  43.325   8.379  13.410
97785W        W61542   8.703   2.913   2.352
97786W        W61543   1.887  40.516   0.867
97787W        W61544  39.479  14.175  14.885
97788W        W61545  41.331  17.153   1.233
97789W        W61546  38.383  12.682  13.800
97790W        W61547   8.263  29.559   0.363
97791W        W61548   5.931  44.968  14.404
97792W        W61549  27.191  36.920  14.488
97793W        W61550  40.395  24.537  13.046
97794W        W61551  18.753   0.795  13.415
97795W        W61552  15.759  20.669   0.305
97796W        W61553   8.825  28.640   1.772
97797W        W61554  20.546  20.115   3.287
97798W        W61555  25.516  36.854   2.665
97799W        W61556  38.369  41.884   2.282
97800W        W61557   9.881  11.792   1.744
97801W        W61558  43.316   6.786  11.501
97802W        W61559  44.343   9.329  11.056
97803W        W61560  18.140  34.881  13.422
97804W        W61561  19.727  12.313  10.582
97805W        W61562  25.507  25.109  14.785
97806W        W61563  12.759  21.755  14.500
97807W        W61564   9.766  12.771   4.330
97808W        W61565  43.352  21.108  11.489
97809W        W61566  31.632  20.052  14.352
97810W        W61567   0.461  26.672  10.968
97811W        W61568  14.279  44.271  14.469
97812W        W61569  29.491  12.802   9.927
97813W        W61570  20.618  14.667  13.465
97814W        W61571   5.197   9.209  12.827
97815W        W61572  38.327   8.709  11.017
97816W        W61573  36.410   8.820  12.557
97817W        W61574  16.796  33.100   2.686
97818W        W61575   3.760  23.490  14.926
97819W        W61576  31.004  35.921   4.793
97820W        W61577  35.557  10.666   1.352
97821W        W61578  31.638  40.465  14.352
97822W        W61579   8.837  14.336  10.620
97823W        W61580   7.837  16.097   4.275
97824W        W61581   8.314  14.641   2.678
97825W        W61582  32.925  30.655  12.068
97826W        W61583  11.697   3.812   1.338
97827W        W61584  15.753   9.301   0.345
97828W        W61585  36.549  23.099  10.907
97829W        W61586  33.037  38.408   3.188
97830W        W61587  37.384  17.221   0.358
97831W        W61588  43.003  11.356   3.200
97832W        W61589  33.100   6.760  10.413
97833W        W61590  32.127  38.830   5.222
97834W        W61591  30.972  11.263   4.769
97835W        W61592  18.770   2.328  13.021
97836W        W61593  20.154   0.803   2.818
97837W        W61594  31.479  41.515  10.592
97838W        W61595   7.709   7.255  10.587
97839W        W61596  41.465   8.297   1.709
97840W        W61597  28.147  12.196   4.217
97841W        W61598  26.562  24.507  13.836
97842W        W61599   1.976  13.201  11.611
97843W        W61600  13.824  36.970   0.908
97844W        W61601  16.778  38.859  12.831
97845W        W61602  16.643  16.608   4.706
97846W        W61603  17.729   2.901   1.433
97847W        W61604  11.364  40.309   4.230
97848W        W61605   1.264  37.398   0.842
97849W        W61606  19.275  21.120   1.385
97850W        W61607  41.824  21.147  12.011
97851W        W61608   8.828  38.838   3.690
97852W        W61609  37.337  21.596   3.796
97853W        W61610  15.725  43.422   3.333
97854W        W61611  43.012   6.782   4.244
97855W        W61612  12.734  44.946   1.297
97856W        W61613  13.207  31.407  11.448
97857W        W61614  24.692  35.372   0.479
97858W        W61615   3.316   9.840  11.930
97859W        W61616  37.402  33.499   4.692
97860W        W61617  42.803  26.594   0.807
97861W        W61618  34.503  41.840  10.595
97862W        W61619   6.315  14.640   4.598
97863W        W61620  34.055  24.196  14.824
97864W        W61621  35.984  17.218   2.392
97865W        W61622  23.984  23.575  14.981
97866W        W61623   7.296  34.066   0.431
97867W        W61624   2.228   1.911  14.485
97868W        W61625  17.628   3.350  10.492
97869W        W61626  42.938  26.973   4.352
97870W        W61627  42.847  16.097  14.810
97871W        W61628  41.467   6.413   2.900
97872W        W61629  38.510  28.019  11.059
97873W        W61630   4.919  17.115   2.205
97874W        W61631  15.182   3.406   3.841
97875W        W61632  18.713  28.989   3.371
97876W        W61633  31.591   8.322   4.351
97877W        W61634  41.536  14.235  10.566
97878W        W61635  41.934  27.537  11.390
97879W        W61636  23.095  44.949  10.427
97880W        W61637  22.179  37.853  11.877
97881W        W61638  37.955   8.273   4.794
97882W        W61639  28.547  25.022  13.937
97883W        W61640  37.343  40.305  14.829
97884W        W61641  25.962  34.580   4.607
97885W        W61642  38.499  40.442   2.368
97886W        W61643  21.090  28.509  10.458
97887W        W61644  19.608   6.188  11.568
97888W        W61645  17.110  17.141  11.394
97889W        W61646  14.230  12.330   1.749
97890W        W61647  16.083  37.484  10.995
97891W        W61648  17.667  35.410  11.460
97892W        W61649   5.406  25.480   0.776
97893W        W61650  31.954  13.832  10.439
97894W        W61651   2.757  25.121   0.288
97895W        W61652  36.590   0.263   3.249
97896W        W61653  19.594  44.437   4.251
97897W        W61654  44.432  31.638   0.370
97898W        W61655  17.774  23.232  10.919
97899W        W61656  30.946   6.906   2.290
97900W        W61657  13.122  38.502   1.718
97901W        W61658   2.458  15.737   2.338
97902W        W61659  27.580   9.158   4.167
97903W        W61660  27.994  27.581   4.198
97904W        W61661  26.039  37.887   0.957
97905W        W61662  34.524   9.706  11.972
97906W        W61663  30.112  44.499  12.918
97907W        W61664  29.583   4.440   4.334
97908W        W61665  40.848  35.392  13.933
97909W        W61666   4.424  37.436   0.453
97910W        W61667  14.166  12.772   1.724
97911W        W61668  16.749  20.561   3.842
97912W        W61669  28.050   5.753  12.535
97913W        W61670  18.210  15.621  13.364
97914W        W61671   9.809  26.615   3.355
97915W        W61672  16.717  40.525   3.640
97916W        W61673  19.210   0.986  10.985
97917W        W61674  20.256  33.127  13.004
97918W        W61675  28.939   0.750   3.860
97919W        W61676  13.711   9.653  13.327
97920W        W61677   9.209  14.294   2.371
97921W        W61678  26.528   9.760   1.761
97922W        W61679  44.789   7.860   0.295
97923W        W61680  30.100  37.993   1.826
97924W        W61681   1.876  27.448   0.753
97925W        W61682  40.841  30.130   1.301
97926W        W61683  30.009  17.140  12.890
97927W        W61684  27.980   8.856   4.818
97928W        W61685   7.314  37.467   0.904
97929W        W61686  16.286  33.954  10.471
97930W        W61687  16.135  33.428  12.479
97931W        W61688  33.515  16.735  14.964
97932W        W61689  25.093  30.618   1.908
97933W        W61690  10.736  41.987   2.700
97934W        W61691  32.395  30.517  10.972
97935W        W61692  14.236   5.857  14.458
97936W        W61693   5.824  32.497  13.481
97937W        W61694  31.618  33.065  11.971
97938W        W61695  40.411  10.310  12.897
97939W        W61696  38.022   9.156  10.433
97940W        W61697  26.492   1.413  14.926
97941W        W61698  38.390   1.743   4.705
97942W        W61699  27.162   1.879   4.164
97943W        W61700   5.819  32.948  14.897
97944W        W61701  23.017  37.387   5.090
97945W        W61702  37.360   6.255  14.282
97946W        W61703  28.576  42.517  13.544
97947W        W61704  22.516  32.411  11.103
97948W        W61705  12.136  15.303  13.516
97949W        W61706  44.957   6.364  11.422
97950W        W61707  40.989  32.450   4.223
97951W        W61708  26.017  13.752  13.522
97952W        W61709  26.605   7.344  13.844
97953W        W61710  37.530  41.346   0.416
97954W        W61711   2.846  21.137   2.894
97955W        W61712   7.776  10.248  11.927
97956W        W61713  43.474   3.927  11.859
97957W        W61714  17.073  30.631   5.220
97958W        W61715  38.041   0.760  10.998
97959W        W61716  33.121  34.432  11.985
97960W        W61717  13.777  34.485  11.867
97961W        W61718  14.832  30.146   4.787
97962W        W61719  20.651  35.058  14.501
97963W        W61720  27.592  43.988  12.893
97964W        W61721  11.663   2.416  10.094
97965W        W61722  30.918  39.952   0.264
97966W        W61723  37.075   0.381  12.904
97967W        W61724  23.169  31.477   2.766
97968W        W61725  27.967  36.556  12.076
97969W        W61726  15.795   1.441   2.345
97970W        W61727  27.661  35.587  12.073
97971W        W61728  38.465   0.971   5.794
97972W        W61729  35.477   1.871   3.862
97973W        W61730  43.378  29.143   0.903
97974W        W61731  35.561   6.241  13.882
97975W        W61732  31.500  25.042  10.580
97976W        W61733  36.036  35.485  10.895
97977W        W61734  10.712  18.587   3.255
97978W        W61735  21.665  11.718  11.941
97979W        W61736  37.933  22.647  10.528
97980W        W61737  34.560  40.547  11.402
97981W        W61738   2.370  20.191  14.316
97982W        W61739  13.747  16.099  11.954
97983W        W61740   0.935   2.844  12.472
97984W        W61741  20.044  32.891   3.640
97985W        W61742  32.971  12.282   4.336
97986W        W61743  22.523  23.180   3.771
97987W        W61744  28.458  37.435  10.415
97988W        W61745  12.141  26.576  11.569
97989W        W61746  37.566  17.723  11.878
97990W        W61747   5.203  30.499   4.714
97991W        W61748   8.803   5.762  14.908
97992W        W61749  19.742  42.504   2.748
97993W        W61750  26.054  18.189   0.368
97994W        W61751  15.220  27.606  12.996
97995W        W61752  29.463  27.516  12.554
97996W        W61753   5.689   4.304   2.793
97997W        W61754  26.047   1.306   0.415
97998W        W61755  30.535  12.204   3.646
97999W        W61756  40.503  36.348  12.458
98000W        W61757   6.426  38.044  13.345
98001W        W61758   7.325   4.715  12.555
98002W        W61759  34.612  30.944  14.781
98003W        W61760  29.451  31.993   1.396
98004W        W61761  25.052  13.162  12.555
98005W        W61762  36.852  32.991  14.431
98006W        W61763  16.755  30.070  14.490
98007W        W61764  21.079  25.035   0.761
98008W        W61765  43.900  29.578   0.808
98009W        W61766   5.228   1.252   0.401
98010W        W61767  42.450  22.042   1.278
98011W        W61768  22.553  22.572  14.340
98012W        W61769  23.134   5.911  13.868
98013W        W61770  41.813  39.983  10.075
98014W        W61771  21.546   0.805  10.636
98015W        W61772  44.921  10.253  14.487
98016W        W61773  11.693  38.401   1.241
98017W        W61774   4.864   8.685  11.861
98018W        W61775  11.669  14.647   4.748
98019W        W61776  40.476   1.468   2.667
98020W        W61777  38.957   0.341   0.737
98021W        W61778  44.404  21.652  14.337
98022W        W61779   7.730  29.097   0.437
98023W        W61780  41.536   2.421  14.398
98024W        W61781   7.820   8.761  10.063
98025W        W61782  28.994   3.800   0.964
98026W        W61783   4.891   5.703   2.332
98027W        W61784  37.966   0.373  12.897
98028W        W61785  17.724   9.670  11.901
98029W        W61786  41.817  19.229   2.306
98030W        W61787  25.648  27.467  10.587
98031W        W61788  19.254  13.161   3.668
98032W        W61789  26.701  22.697   0.457
98033W        W61790  32.439  22.060  12.077
98034W        W61791  22.700   7.704  13.845
98035W        W61792  39.018  15.656   3.272
98036W        W61793   9.166  15.113   3.341
98037W        W61794   2.862   7.225   2.762
98038W        W61795  34.048   3.417  13.490
98039W        W61796  27.030   2.745   2.416
98040W        W61797   1.241  32.122  14.845
98041W        W61798   2.246  19.199   2.405
98042W        W61799  17.649  29.049   3.650
98043W        W61800  19.568  20.547  14.772
98044W        W61801  37.472   7.811  11.904
98045W        W61802  36.533  42.003  12.484
98046W        W61803  34.106  33.601  13.367
98047W        W61804  20.195  40.353   0.948
98048W        W61805   2.862  30.416   1.318
98049W        W61806  21.623  11.134   1.222
98050W        W61807   6.370  37.463   2.208
98051W        W61808  29.551  14.639   0.293
98052W        W61809  42.365   1.947   2.360
98053W        W61810  10.227  20.550   0.929
98054W        W61811  12.159  31.025  14.413
98055W        W61812  38.002  26.518   2.691
98056W        W61813  26.047  32.616  14.012
98057W        W61814  24.190  34.875  11.430
98058W        W61815  13.293  12.622  10.087
98059W        W61816  22.009  29.645  11.509
98060W        W61817  16.630  12.287  11.920
98061W        W61818  15.707  44.906  14.914
98062W        W61819  19.655  20.703   0.255
98063W        W61820  37.971  35.026  11.037
98064W        W61821  38.050  32.444  12.064
98065W        W61822  33.430   0.816  14.428
98066W        W61823  16.205  13.823   3.785
98067W        W61824  16.317  10.724   1.356
98068W        W61825  28.582  16.678   3.820
98069W        W61826  44.302  44.377  11.589
98070W        W61827  43.910  12.681   1.250
98071W        W61828  22.188  11.691  13.447
98072W        W61829  42.345  33.548  13.399
98073W        W61830  17.274  14.821  14.920
98074W        W61831   6.842  19.277   4.331
98075W        W61832  24.094  36.994   3.206
98076W        W61833   4.782  36.066  10.471
98077W        W61834   9.183  20.669   4.274
98078W        W61835   7.357   2.732   4.164
98079W        W61836  42.831  14.668  12.347
98080W        W61837  39.993  41.394   3.699
98081W        W61838  16.586  38.835  13.859
98082W        W61839  26.484  27.186  14.920
98083W        W61840  33.084  26.529   5.716
98084W        W61841  15.612  14.180   3.345
98085W        W61842  12.741   8.794  10.587
98086W        W61843   8.812  23.540  10.074
98087W        W61844  24.137  30.645  13.315
98088W        W61845  44.791  30.079   3.209
98089W        W61846  25.032  23.098   3.667
98090W        W61847  36.990   4.278  13.064
98091W        W61848  39.833  13.807   0.474
98092W        W61849  15.284  29.533   3.756
98093W        W61850  10.374  41.383  14.992
98094W        W61851  15.092   9.382  11.987
98095W        W61852  41.368  41.470   3.303
98096W        W61853  34.472  29.020   0.813
98097W        W61854   0.295   4.371   2.201
98098W        W61855  15.646  39.044   2.680
98099W        W61856   5.255  13.166  11.557
98100W        W61857  34.033  41.342   3.317
98101W        W61858  39.992  10.697   0.952
98102W        W61859  19.626  31.932  13.427
98103W        W61860  42.447  30.449  11.423
98104W        W61861  28.037   3.314   3.268
98105W        W61862  13.615  19.707   0.286
98106W        W61863  12.205  30.019  14.835
98107W        W61864  33.894  14.633   0.752
98108W        W61865  32.483   4.261  13.461
98109W        W61866   5.303  32.481  10.501
98110W        W61867  10.314  18.700  13.950
98111W        W61868   9.365  19.144   2.252
98112W        W61869   6.325  13.804  11.596
98113W        W61870  16.231  12.354   5.081
98114W        W61871  23.497  11.643   4.692
98115W        W61872  28.077  40.486  13.803
98116W        W61873  23.000  31.509  11.953
98117W        W61874   4.254  40.445  11.524
98118W        W61875  14.593  14.652  11.964
98119W        W61876  41.335   7.324   0.368
98120W        W61877   2.285  15.305   2.300
98121W        W61878  27.523  43.275   0.303
98122W        W61879  15.770  21.056  13.860
98123W        W61880  13.793  20.153  12.028
98124W        W61881  32.587  23.181   0.428
98125W        W61882  30.572  11.782   0.453
98126W        W61883   3.370  34.979   3.278
98127W        W61884  16.613  21.588  14.813
98128W        W61885  23.143   4.364  13.511
98129W        W61886  33.422  18.702   2.298
98130W        W61887  38.922   8.338   1.428
98131W        W61888  20.735  40.862  13.445
98132W        W61889  15.594  32.071   5.128
98133W        W61890  27.954  32.414  11.380
98134W        W61891  10.717  25.572   0.394
98135W        W61892  40.810   4.379   1.783
98136W        W61893  13.328  15.102   0.906
98137W        W61894  14.597  43.273   3.312
98138W        W61895  35.572  44.305   1.777
98139W        W61896  31.066  21.237  13.463
98140W        W61897  44.780   3.424  13.879
98141W        W61898  39.359   5.800  11.092
98142W        W61899  44.003  42.790   3.661
98143W        W61900  27.513  22.111   2.186
98144W        W61901  26.969  24.217   0.872
98145W        W61902   1.841   0.943   5.275
98146W        W61903  36.859   6.280  11.987
98147W        W61904  25.665  30.991   2.325
98148W        W61905  21.148  33.552   2.687
98149W        W61906  32.430  38.012   4.834
98150W        W61907  35.894  12.752  12.851
98151W        W61908   5.830  30.532   3.642
98152W        W61909  18.067  15.262  10.644
98153W        W61910  43.348  37.425   3.187
98154W        W61911  18.125  35.584   5.264
98155W        W61912  14.600   4.406  11.576
98156W        W61913  36.383  37.853  10.922
98157W        W61914   0.848   4.812  11.893
98158W        W61915  43.358  44.908  12.416
98159W        W61916  20.596  30.420   3.860
98160W        W61917  28.535  14.684  14.369
98161W        W61918  10.287  28.537  13.045
98162W        W61919   1.253  28.620  10.414
98163W        W61920  31.563  37.898   4.352
98164W        W61921  25.551  39.939   3.230
98165W        W61922  37.950  32.945   2.800
98166W        W61923   1.311  34.474   2.375
98167W        W61924  29.533   9.799  12.068
98168W        W61925  44.280  27.130  10.918
98169W        W61926  44.263  11.695   4.223
98170W        W61927  38.944   5.788   2.261
98171W        W61928  17.801  39.049  11.526
98172W        W61929  10.269   7.796   0.878
98173W        W61930  16.612  30.546  12.907
98174W        W61931  43.017  23.561  14.340
98175W        W61932  29.625  20.182   1.730
98176W        W61933   4.308   7.814  11.885
98177W        W61934   2.807  26.684  13.350
98178W        W61935  20.606   2.321  10.432
98179W        W61936  12.235   7.381  12.521
98180W        W61937  26.113  42.882   4.616
98181W        W61938   4.918  39.004  10.621
98182W        W61939  27.653  25.136   1.341
98183W        W61940  37.015  23.168  14.284
98184W        W61941  40.824  24.495   1.900
98185W        W61942  24.690   2.721  11.478
98186W        W61943  32.941  10.277  10.421
98187W        W61944  35.491  36.859  13.867
98188W        W61945  35.557   4.220  13.953
98189W        W61946  11.161  42.507  11.043
98190W        W61947  17.145  19.178  13.944
98191W        W61948  33.382   1.774  14.902
98192W        W61949  41.871  24.577   4.659
98193W        W61950   1.875  20.252  11.408
98194W        W61951  39.454  25.593   4.161
98195W        W61952  42.995  34.594  11.602
98196W        W61953  39.968   8.893  11.452
98197W        W61954   8.382  40.516   1.854
98198W        W61955  10.775   9.261   0.380
98199W        W61956  25.498  37.951  13.392
98200W        W61957  27.998  15.236   3.712
98201W        W61958  41.023   9.792  10.620
98202W        W61959   5.355  29.075   1.247
98203W        W61960   6.721  16.773  12.839
98204W        W61961  17.601  20.725  11.923
98205W        W61962  24.589   4.329  10.435
98206W        W61963  30.909  36.847   4.673
98207W        W61964  39.045  31.074  13.495
98208W        W61965  13.826  14.217  14.845
98209W        W61966  32.038  34.039   1.432
98210W        W61967  28.475  18.233  13.533
98211W        W61968   5.283   1.424  10.624
98212W        W61969  16.203  27.100  14.788
98213W        W61970  25.966  23.034   0.430
98214W        W61971  37.844  29.081  14.989
98215W        W61972  44.993  33.008  11.883
98216W        W61973  29.543   7.176   2.190
98217W        W61974  43.436  19.280  14.914
98218W        W61975  41.424  28.635   0.320
98219W        W61976  44.768   6.820   3.815
98220W        W61977  30.910  19.672   3.782
98221W        W61978  44.983   8.686   2.298
98222W        W61979  18.585  23.567  12.945
98223W        W61980  18.578  23.076  10.462
98224W        W61981  24.718  13.151  11.866
98225W        W61982  44.838  20.237   2.364
98226W        W61983  11.159  20.182  12.383
98227W        W61984  37.361  15.584   0.380
98228W        W61985  32.416  36.410   0.792
98229W        W61986   7.276  32.624  14.909
98230W        W61987   6.375  39.533   3.732
98231W        W61988   9.817   1.385   2.344
98232W        W61989  26.182  32.046  14.863
98233W        W61990  33.880   2.237   3.149
98234W        W61991  21.128  44.430  13.809
98235W        W61992  10.669  20.040   1.416
98236W        W61993  36.533   5.360   1.228
98237W        W61994   0.483  20.222  11.600
98238W        W61995  17.756   0.399  10.089
98239W        W61996   1.832   3.221   0.924
98240W        W61997  17.668  17.167   0.424
98241W        W61998  35.580  17.799   4.702
98242W        W61999  35.377  21.118   4.190
98243W        W62000  28.672   1.303   0.791
98244W        W62001  11.649  17.194  11.464
98245W        W62002   4.404  27.095   3.276
98246W        W62003  36.368   9.293   4.746
98247W        W62004   1.861   4.285   0.303
98248W        W62005  30.034  40.017   3.228
98249W        W62006  36.942  39.541  12.921
98250W        W62007   8.767  15.784  14.032
98251W        W62008  37.578  21.178  10.076
98252W        W62009  14.299  11.218  11.077
98253W        W62010  23.547  25.608   0.416
98254W        W62011  36.090  34.447   3.311
98255W        W62012  44.449   0.348  14.388
98256W        W62013  20.229  16.205  13.536
98257W        W62014  37.409  37.874   1.822
98258W        W62015   2.865  42.473   1.834
98259W        W62016  21.560   0.851   3.641
98260W        W62017  13.140  40.479   4.702
98261W        W62018   0.873  38.901  12.552
98262W        W62019  31.147  14.766  10.543
98263W        W62020  35.859   1.946  12.454
98264W        W62021  31.475  12.186   0.300
98265W        W62022  28.612  38.975  10.641
98266W        W62023  34.878  11.681   0.746
98267W        W62024  24.700  27.062  13.912
98268W        W62025  32.433  42.833   9.987
98269W        W62026  24.990  12.751   1.257
98270W        W62027  19.143  18.069   1.731
98271W        W62028  27.529  25.575   4.291
98272W        W62029   9.853  10.178  14.330
98273W        W62030  41.397   4.926   1.259
98274W        W62031  19.751  29.471   1.879
98275W        W62032  14.176  41.865  13.931
98276W        W62033  39.865  38.507  11.111
98277W        W62034  41.788   1.889   3.773
98278W        W62035  42.339  43.779   1.921
98279W        W62036  21.150  44.938   0.254
98280W        W62037  35.969  11.170   0.344
98281W        W62038  44.306   4.913   2.863
98282W        W62039  39.369  24.039  10.996
98283W        W62040  34.375  27.117  13.308
98284W        W62041  28.451   0.899   0.882
98285W        W62042  43.918   5.271  11.968
98286W        W62043  16.248  17.222   2.197
98287W        W62044   2.325   0.329  13.397
98288W        W62045  31.047  32.895   0.251
98289W        W62046  12.172  13.145  14.445
98290W        W62047  36.364   1.905   1.803
98291W        W62048  44.316  34.015   3.171
98292W        W62049  37.067  30.649  10.536
98293W        W62050  35.917  15.134   1.896
98294W        W62051  44.477  31.904  12.580
98295W        W62052   1.940  41.020   4.246
98296W        W62053   3.925  22.607   3.236
98297W        W62054  34.085  14.124   1.779
98298W        W62055   6.229  44.438  13.351
98299W        W62056  33.887  40.947  11.021
98300W        W62057  39.038  42.780   3.284
98301W        W62058  19.243  28.991  12.824
98302W        W62059  36.454  23.005  13.476
98303W        W62060  18.612  30.443   3.699
98304W        W62061   8.701  11.818  13.877
98305W        W62062  43.373  39.397   4.650
98306W        W62063   7.847  37.572  13.032
98307W        W62064  32.980  25.196   2.845
98308W        W62065  32.997  22.008   4.179
98309W        W62066  41.940  30.954  11.090
98310W        W62067  23.547  41.463   3.376
98311W        W62068   5.914  42.960  14.505
98312W        W62069  30.595  29.547  14.842
98313W        W62070  43.795  10.753  13.874
98314W        W62071  32.491   6.413  10.618
98315W        W62072  38.366  44.883   0.382
98316W        W62073  11.131  22.612   1.345
98317W        W62074  15.162  39.935  14.981
98318W        W62075   3.920  23.643  12.569
98319W        W62076  23.657   7.676   2.876
98320W        W62077  12.728  38.848   2.323
98321W        W62078  32.033  16.567  13.396
98322W        W62079   3.224  11.637   2.228
98323W        W62080  42.470  21.187  11.882
98324W        W62081  23.649  12.777   3.371
98325W        W62082   9.788  23.613  13.887
98326W        W62083   4.441  25.074  13.472
98327W        W62084  37.450   8.861   4.743
98328W        W62085  19.560  20.090   3.732
98329W        W62086  36.088  27.166   9.921
98330W        W62087  13.106  34.561  12.537
98331W        W62088  16.581  24.973  13.420
98332W        W62089  44.453  42.390   1.801
98333W        W62090   9.240   7.353   3.375
98334W        W62091  16.295   7.407  12.016
98335W        W62092  30.008  23.202   1.408
98336W        W62093  11.225   8.223  12.914
98337W        W62094  34.564  39.021   4.788
98338W        W62095  27.558  27.518   0.331
98339W        W62096  33.997  42.434   0.388
98340W        W62097  31.422  31.514   2.754
98341W        W62098  30.543   6.201  14.470
98342W        W62099  20.238  31.147   3.215
98343W        W62100  32.890  16.289   4.834
98344W        W62101  18.732  38.031  14.502
98345W        W62102   6.370  38.460   3.202
98346W        W62103   4.735  28.490  10.953
98347W        W62104  28.457  18.726  14.499
98348W        W62105  10.304  18.732  12.541
98349W        W62106   8.209  36.073   4.175
98350W        W62107  28.182  37.874   1.802
98351W        W62108  18.637  18.554   1.803
98352W        W62109  11.660   0.266   3.211
98353W        W62110  26.517   6.773  12.503
98354W        W62111  33.963   8.847  14.336
98355W        W62112  24.061  27.587  10.626
98356W        W62113  23.492  21.256   3.221
98357W        W62114  38.983  23.526   0.954
98358W        W62115  15.724  28.520  13.843
98359W        W62116  32.089   4.364  11.953
98360W        W62117  14.791  23.166   4.760
98361W        W62118  16.696  40.394   4.291
98362W        W62119  17.113  27.130   4.623
98363W        W62120  25.041  13.186   3.186
98364W        W62121   2.433  42.401  10.528
98365W        W62122  32.990  29.472   4.641
98366W        W62123   5.326   5.428  10.974
98367W        W62124  14.308  35.358   1.242
98368W        W62125  23.705  34.495   1.706
98369W        W62126  26.116  15.232   2.229
98370W        W62127  18.723  38.445   3.769
98371W        W62128   4.787  43.886   0.834
98372W        W62129  12.309  19.090   2.211
98373W        W62130  23.008  37.428   4.156
98374W        W62131  34.419  34.493  10.556
98375W        W62132  13.105   2.456   2.774
98376W        W62133  28.580  40.810  12.551
98377W        W62134  44.890  44.265   3.701
98378W        W62135  35.553   7.829  12.060
98379W        W62136  18.072  24.115  13.950
98380W        W62137  30.510  26.146   0.336
98381W        W62138   3.386   4.404   1.360
98382W        W62139  15.213   8.352   0.878
98383W        W62140   8.297  34.052   3.225
98384W        W62141  15.694   0.381   2.868
98385W        W62142   6.240  30.984   0.924
98386W        W62143   9.720  16.677  11.052
98387W        W62144   9.381  19.055   1.432
98388W        W62145  23.178  23.088  13.846
98389W        W62146  32.930   0.468   3.704
98390W        W62147  36.881  30.440   3.275
98391W        W62148  41.439  33.530  10.022
98392W        W62149   2.728  23.702   4.833
98393W        W62150  29.097  21.154   1.773
98394W        W62151  36.093  38.070  13.540
98395W        W62152   0.975   3.860   1.880
98396W        W62153   2.743  37.473   2.864
98397W        W62154   3.387  31.001  12.536
98398W        W62155  36.910   3.715   0.310
98399W        W62156  39.342   3.753  13.400
98400W        W62157   2.758  38.945   3.719
98401W        W62158  17.630   8.723  11.986
98402W        W62159  34.538  32.431  11.581
98403W        W62160  26.657  13.670   3.692
98404W        W62161  22.165  29.424   3.167
98405W        W62162  18.764  17.266   4.123
98406W        W62163  14.252  19.734   2.218
98407W        W62164  18.772  10.796   3.297
98408W        W62165  28.479  40.409   4.296
98409W        W62166  28.977  20.534   1.385
98410W        W62167  20.107  20.582  11.084
98411W        W62168  41.920  32.090  12.885
98412W        W62169  30.576  29.580  13.321
98413W        W62170  14.295  23.075  11.037
98414W        W62171  43.906  25.965  13.380
98415W        W62172   1.313  32.565   0.728
98416W        W62173  11.154   4.774   9.972
98417W        W62174  20.588  20.060   0.944
98418W        W62175   1.466  41.819  10.535
98419W        W62176   8.185  16.704   4.637
98420W        W62177  21.261  18.654   2.347
98421W        W62178   9.665  10.161   3.159
98422W        W62179  24.992  32.904   3.755
98423W        W62180  44.933   5.861   0.379
98424W        W62181  43.998  36.952  13.386
98425W        W62182  41.390  33.448   3.262
98426W        W62183  25.096  16.573   3.236
98427W        W62184  24.199  23.518   1.731
98428W        W62185  30.059  39.027   2.401
98429W        W62186   8.672   0.349   4.179
98430W        W62187  44.004  15.817  12.903
98431W        W62188   4.738  35.919   2.730
98432W        W62189  17.702  29.505  13.535
98433W        W62190   6.183  17.697   1.233
98434W        W62191  31.420  11.156   0.429
98435W        W62192  14.610  20.734   3.234
98436W        W62193  35.926  26.080   2.418
98437W        W62194   4.320  42.969   3.304
98438W        W62195  11.836  25.191  14.032
98439W        W62196  24.057  15.203   2.187
98440W        W62197  31.564  31.401   1.297
98441W        W62198   8.331  15.667   4.834
98442W        W62199  16.809  17.786  11.497
98443W        W62200  34.012  35.532   1.361
98444W        W62201  26.976  16.713   3.790
98445W        W62202  26.531  31.944  12.397
98446W        W62203  34.951  30.597  12.921
98447W        W62204  35.022  28.100  14.488
98448W        W62205  33.382  17.257   4.313
98449W        W62206  16.807   7.187   1.825
98450W        W62207   4.413  28.937   0.873
98451W        W62208  40.512  21.593   2.336
98452W        W62209  43.408  40.450   1.344
98453W        W62210   9.888  25.504  14.326
98454W        W62211  10.674  26.112  13.005
98455W        W62212   2.280  33.540   2.197
98456W        W62213  26.197   3.339  10.482
98457W        W62214  24.056  35.572   3.740
98458W        W62215  26.629  36.025  14.838
98459W        W62216   6.357   6.221   4.305
98460W        W62217  16.750  27.944  12.396
98461W        W62218  21.241  19.195  10.905
98462W        W62219  16.191  43.382   5.216
98463W        W62220  37.854  13.234  10.501
98464W        W62221  36.366  24.029   2.720
98465W        W62222  31.028  12.725   0.437
98466W        W62223  31.592  33.535  14.967
98467W        W62224   2.831   3.242  13.370
98468W        W62225   3.445  25.062  13.813
98469W        W62226   2.924  24.572  10.894
98470W        W62227   2.918   2.330   2.678
98471W        W62228  26.622  11.129  13.000
98472W        W62229  10.158   1.317   4.143
98473W        W62230  11.795  13.715  12.407
98474W        W62231  36.009   5.789  11.887
98475W        W62232   0.781   9.768  12.935
98476W        W62233  29.464  25.626   1.710
98477W        W62234   7.385  38.501  13.044
98478W        W62235  12.355   9.158   0.284
98479W        W62236  28.040  31.578  12.973
98480W        W62237  26.980   1.905   0.941
98481W        W62238  23.076  20.234  13.468
98482W        W62239  18.716  43.843  13.801
98483W        W62240  24.637  35.551   4.121
98484W        W62241  38.859  20.237   4.254
98485W        W62242  41.513  20.573  13.011
98486W        W62243  21.210  43.338  13.385
98487W        W62244  17.653   5.437   2.800
98488W        W62245  41.855  26.631   2.788
98489W        W62246   4.448  42.862   2.263
98490W        W62247   2.752   5.386   2.867
98491W        W62248  21.566  27.174  11.533
98492W        W62249  20.200  23.128   1.707
98493W        W62250  17.258  26.661   4.237
98494W        W62251  15.737  27.633  13.030
98495W        W62252  25.999  14.152  10.618
98496W        W62253  33.450  18.709  11.507
98497W        W62254  35.856  43.897  11.513
98498W        W62255  19.771   2.874  12.351
98499W        W62256  38.417  36.557   4.274
98500W        W62257   6.185   6.720  11.907
98501W        W62258  30.029  27.028   1.338
98502W        W62259   5.863  11.694   4.335
98503W        W62260  19.663  43.334  10.948
98504W        W62261   2.749  23.513   0.294
98505W        W62262  29.150   5.263   0.770
98506W        W62263  19.570  18.741  14.836
98507W        W62264  35.070  10.241   9.956
98508W        W62265  41.848  17.659   1.863
98509W        W62266  21.144  35.437  13.854
98510W        W62267  12.854  41.529   3.850
98511W        W62268  11.771  35.400  11.946
98512W        W62269   7.363  39.933  11.909
98513W        W62270  15.582  20.623   5.242
98514W        W62271  28.059   7.690  12.579
98515W        W62272  19.062  13.611   3.768
98516W        W62273  32.012  31.574  10.489
98517W        W62274  14.196  19.560  11.926
98518W        W62275  43.913  22.158  12.951
98519W        W62276  17.142  34.963  10.404
98520W        W62277  32.432   2.387   3.765
98521W        W62278  21.073  41.020   0.897
98522W        W62279  41.971  27.166   4.213
98523W        W62280   1.849  31.448  10.447
98524W        W62281  38.034  24.611   4.168
98525W        W62282  10.831  29.114  10.951
98526W        W62283  28.027  32.479  12.534
98527W        W62284   6.694  37.550   4.133
98528W        W62285  19.756   6.875  14.795
98529W        W62286   2.742   4.862  13.480
98530W        W62287  36.937  32.937   0.737
98531W        W62288  15.729  40.024  10.990
98532W        W62289  41.867   9.644  12.992
98533W        W62290   3.761  41.476   3.644
98534W        W62291  33.568  27.688   1.920
98535W        W62292   0.820   2.953   2.675
98536W        W62293  37.556  43.973   1.894
98537W        W62294  28.976  17.741   1.430
98538W        W62295   7.794   8.789   1.850
98539W        W62296  19.068  18.546   2.814
98540W        W62297  12.154   9.849  13.467
98541W        W62298  40.997   3.941   4.192
98542W        W62299  11.370  17.671  13.384
98543W        W62300  14.182  27.656   4.832
98544W        W62301  25.143  10.293   3.347
98545W        W62302  10.222  27.591   0.867
98546W        W62303  14.739  39.918  12.350
98547W        W62304  20.607   1.263  10.576
98548W        W62305   4.843  19.077  10.439
98549W        W62306  15.158  43.281  10.615
98550W        W62307  30.941  37.990  13.860
98551W        W62308  26.700  19.649   2.212
98552W        W62309  41.010   3.285   2.185
98553W        W62310   4.857   2.862  10.907
98554W        W62311  22.237  30.493  13.323
98555W        W62312  14.724  33.536  10.440
98556W        W62313  35.368  27.627  12.936
98557W        W62314  22.674   2.741  13.327
98558W        W62315  15.578  22.192   1.926
98559W        W62316  41.463  19.695   0.483
98560W        W62317  24.099  32.540  14.849
98561W        W62318  44.494  24.071  12.471
98562W        W62319  44.337  37.831   2.810
98563W        W62320   4.239  18.776  14.357
98564W        W62321  31.413  42.501   3.782
98565W        W62322  44.277  26.681   2.235
98566W        W62323  16.715  12.229  13.797
98567W        W62324  35.953  19.661  14.032
98568W        W62325  31.012   3.293   1.910
98569W        W62326  17.741   0.272  10.424
98570W        W62327  14.315   9.301  14.855
98571W        W62328  26.530   2.395  12.920
98572W        W62329  21.746  18.723  10.470
98573W        W62330   2.237  38.015  11.611
98574W        W62331   0.898  18.278   4.730
98575W        W62332  11.329  21.178  10.436
98576W        W62333  23.583  25.119   1.757
98577W        W62334  34.882  25.113  11.061
98578W        W62335   7.724  28.679  14.857
98579W        W62336   5.749  15.795   1.700
98580W        W62337  35.361   6.238   0.792
98581W        W62338  26.123   3.376  13.341
98582W        W62339  16.660  42.798  10.123
98583W        W62340   3.864  17.685  14.021
98584W        W62341  20.766  42.816  12.441
98585W        W62342  10.342  13.646   1.801
98586W        W62343   9.754  35.100   4.655
98587W        W62344  32.590  44.875   0.829
98588W        W62345  22.069  24.619  13.430
98589W        W62346   2.263  27.189  10.626
98590W        W62347   1.744  13.284  13.892
98591W        W62348  23.985  42.507   3.376
98592W        W62349  10.854  18.628   5.174
98593W        W62350  26.535  13.337  13.470
98594W        W62351   4.392  39.491  13.947
98595W        W62352   3.839  43.344  12.424
98596W        W62353  44.379  40.332   4.747
98597W        W62354  15.739  15.191  14.488
98598W        W62355  38.483  30.067   1.350
98599W        W62356  21.715  17.100   0.323
98600W        W62357  35.904   1.778   9.551
98601W        W62358  12.776  34.557   0.384
98602W        W62359   7.292  39.499  13.434
98603W        W62360  11.290  15.609   0.898
98604W        W62361   2.386  11.856   3.670
98605W        W62362  23.191  44.323   0.763
98606W        W62363  27.666  11.353  14.913
98607W        W62364   5.393  37.518   4.242
98608W        W62365  43.357  18.235  14.315
98609W        W62366   6.385  31.036  11.495
98610W        W62367  27.492   3.909  12.973
98611W        W62368  21.025  21.253  11.050
98612W        W62369  34.423  16.652  11.560
98613W        W62370  25.580  25.559   1.363
98614W        W62371  25.551   9.374   3.863
98615W        W62372  44.355   3.948  10.524
98616W        W62373  20.704  31.090  12.057
98617W        W62374   9.665   4.728  11.982
98618W        W62375  16.267  41.298  13.461
98619W        W62376   8.747  32.523  10.585
98620W        W62377  36.982  44.851  11.423
98621W        W62378  43.835  29.483  11.514
98622W        W62379  31.465  11.716  14.016
98623W        W62380  23.152  43.399  11.552
98624W        W62381  12.272  36.966   2.277
98625W        W62382   8.656  14.227   0.275
98626W        W62383  13.305  37.058   3.814
98627W        W62384  36.973   9.236   4.772
98628W        W62385   8.749   4.219   4.721
98629W        W62386  21.235  41.295   3.648
98630W        W62387   5.839  39.450   0.966
98631W        W62388   1.795  20.670  11.472
98632W        W62389  36.439  29.174  10.072
98633W        W62390  42.327   6.246  11.110
98634W        W62391  10.846  10.737  10.426
98635W        W62392  11.738  43.368   3.636
98636W        W62393  41.015  16.692  10.596
98637W        W62394  42.995  28.015  10.920
98638W        W62395  15.201  38.076  11.473
98639W        W62396   7.375   2.261  14.494
98640W        W62397  29.564  21.066   5.154
98641W        W62398  42.990   8.662  11.042
98642W        W62399  33.621  25.168   3.831
98643W        W62400  17.249  22.693  13.473
98644W        W62401  35.958   6.724  11.539
98645W        W62402  36.522  29.576   3.149
98646W        W62403  29.055   2.331   4.768
98647W        W62404   4.705   8.734   0.752
98648W        W62405   1.864   9.868   4.626
98649W        W62406   8.770  13.633   2.387
98650W        W62407   4.764  44.757   4.608
98651W        W62408   4.410  40.534  12.896
98652W        W62409  18.163   3.259   3.772
98653W        W62410  20.123   3.853   1.399
98654W        W62411  42.475  40.390   3.812
98655W        W62412  32.965   3.389   1.918
98656W        W62413  11.194  23.099   1.309
98657W        W62414  41.340  24.569  10.458
98658W        W62415   2.725  41.904  10.596
98659W        W62416  32.098  25.702   0.455
98660W        W62417  41.020  19.268   3.349
98661W        W62418   6.407  14.764   1.254
98662W        W62419  28.106  33.978   2.884
98663W        W62420  36.563  21.243  10.099
98664W        W62421  34.602  24.212  14.512
98665W        W62422  17.742  22.620  14.794
98666W        W62423  42.329  26.190   1.841
98667W        W62424  28.012  12.802  12.009
98668W        W62425  42.798   3.377   1.326
98669W        W62426  30.537  22.519  13.320
98670W        W62427  29.429  35.469   1.236
98671W        W62428  16.088  35.867  11.531
98672W        W62429  25.072  15.224   2.216
98673W        W62430  12.807   9.787   2.853
98674W        W62431  28.077  34.593   1.437
98675W        W62432   4.918  44.452  14.477
98676W        W62433  22.199  11.719  10.447
98677W        W62434  36.455  16.630  13.990
98678W        W62435  15.133   6.884   1.694
98679W        W62436  40.501  43.467   3.853
98680W        W62437  16.662   3.953  13.973
98681W        W62438  30.104  43.441   2.286
98682W        W62439  32.581  27.152  13.965
98683W        W62440  23.645  18.597  11.931
98684W        W62441  34.447  26.135  10.481
98685W        W62442  21.706  18.744  13.505
98686W        W62443   4.206  18.614   4.795
98687W        W62444  10.693  27.558   4.297
98688W        W62445  33.449  36.872   3.276
98689W        W62446  38.465  22.065  10.568
98690W        W62447  10.691  39.048  12.535
98691W        W62448   2.280  17.089  10.613
98692W        W62449  34.426  41.537  10.437
98693W        W62450  37.913  43.834  14.844
98694W        W62451   4.902  34.420  11.400
98695W        W62452   7.236  34.993  11.374
98696W        W62453  20.568  42.319  10.605
98697W        W62454  28.965  33.579   2.853
98698W        W62455  21.607  35.472   5.275
98699W        W62456  15.720  13.761   9.666
98700W        W62457  38.952  36.389   0.296
98701W        W62458  28.548  15.316   4.684
98702W        W62459  14.105   9.346   1.372
98703W        W62460  44.397  24.688  12.563
98704W        W62461  19.630   4.923   3.171
98705W        W62462  35.435  32.474   0.868
98706W        W62463  40.504  16.796   1.742
98707W        W62464  26.515  15.091   1.296
98708W        W62465  41.840   8.287   2.819
98709W        W62466  41.025  31.572   1.707
98710W        W62467   8.809   2.384   3.787
98711W        W62468  38.452   3.791  11.125
98712W        W62469  22.509   6.269   4.817
98713W        W62470  28.097  36.086  10.939
98714W        W62471  30.444  35.358  13.974
98715W        W62472  19.720  35.021   3.855
98716W        W62473  18.785   8.819   2.852
98717W        W62474   9.658   9.282   4.617
98718W        W62475  18.628  41.946  11.867
98719W        W62476   1.848  44.835  12.533
98720W        W62477  19.255  33.600  12.386
98721W        W62478  15.177  24.531  13.514
98722W        W62479   2.825   9.373  13.353
98723W        W62480   7.742   1.840   3.198
98724W        W62481  32.626  36.580   0.281
98725W        W62482  37.467   8.293   1.844
98726W        W62483   4.259  43.442  11.482
98727W        W62484  10.349  24.134  14.011
98728W        W62485  28.438  27.595   3.164
98729W        W62486  40.014   8.861   3.314
98730W        W62487  12.619   9.384   1.862
98731W        W62488  30.585  34.011  10.901
98732W        W62489  37.850  32.110  13.802
98733W        W62490  24.607   4.816   4.167
98734W        W62491  29.926  44.923  13.391
98735W        W62492  43.922  35.598  11.014
98736W        W62493   3.900   1.441   0.309
98737W        W62494  16.184   1.930   0.869
98738W        W62495  38.896  29.648   2.746
98739W        W62496  10.741  30.449   2.855
98740W        W62497  25.610  19.608  12.416
98741W        W62498  40.464  15.301  11.024
98742W        W62499  28.142  12.352   1.388
98743W        W62500  10.633   7.190  12.536
98744W        W62501  34.874  12.856   0.797
98745W        W62502  27.173  20.711   1.734
98746W        W62503  30.604  32.572   3.690
98747W        W62504  26.676  41.898  10.606
98748W        W62505  44.763   2.280  10.557
98749W        W62506  23.664  31.934  13.024
98750W        W62507  38.928  36.070   4.702
98751W        W62508  36.012  15.228  11.858
98752W        W62509  21.593  17.587   0.425
98753W        W62510  13.635   2.332  14.871
98754W        W62511  27.030  21.132   0.798
98755W        W62512   3.456  17.230  14.470
98756W        W62513   3.257  38.547  11.074
98757W        W62514  27.604  36.505   3.785
98758W        W62515  21.669  38.900  14.288
98759W        W62516  27.521  26.199  14.389
98760W        W62517  25.505  18.601  14.459
98761W        W62518   9.332  42.965  10.414
98762W        W62519   9.714   6.711  13.481
98763W        W62520   8.708  31.529  11.583
98764W        W62521  16.073  25.976  12.053
98765W        W62522   8.366  19.568  14.430
98766W        W62523  19.554  20.572  12.832
98767W        W62524  28.555  30.986  13.446
98768W        W62525  22.703   3.419   4.608
98769W        W62526   2.942  29.547  12.347
98770W        W62527  33.060  22.580  10.520
98771W        W62528  18.637  25.208  10.479
98772W        W62529  22.712  33.543   5.189
98773W        W62530  25.044  15.704  10.059
98774W        W62531   2.265  22.564   3.669
98775W        W62532  39.533  19.085  14.415
98776W        W62533   9.215  19.616   3.153
98777W        W62534  12.321  25.142   1.280
98778W        W62535  40.483   0.266  11.127
98779W        W62536  44.916  27.087  12.985
98780W        W62537  12.135   0.957  11.517
98781W        W62538  15.738  39.945  10.410
98782W        W62539  31.443  30.988  14.499
98783W        W62540  28.934  21.188  12.903
98784W        W62541  16.158  34.416   0.813
98785W        W62542  10.645   2.870   1.227
98786W        W62543  20.685   4.845   0.742
98787W        W62544  13.652  34.872   1.791
98788W        W62545  14.769  12.710   0.892
98789W        W62546  43.422   9.341   3.329
98790W        W62547  39.880   0.338  12.995
98791W        W62548  42.483  11.132   1.836
98792W        W62549  15.611  43.882   5.776
98793W        W62550  32.033  16.317   0.288
98794W        W62551   7.861  21.650   0.798
98795W        W62552  25.087  26.188  12.552
98796W        W62553  40.047  33.877   0.824
98797W        W62554  31.408  29.490   0.434
98798W        W62555   5.710  41.312  12.379
98799W        W62556   8.245  40.818   1.893
98800W        W62557  25.500  33.991  14.775
98801W        W62558  20.564   4.902   2.834
98802W        W62559  16.672  39.873  11.120
98803W        W62560  38.544  14.252   2.379
98804W        W62561  27.955  25.614   2.831
98805W        W62562   3.846   4.412   2.264
98806W        W62563  40.307   6.215   5.138
98807W        W62564  23.514   1.472   2.750
98808W        W62565  12.622  14.301  12.025
98809W        W62566   6.276   0.804  10.967
98810W        W62567  28.548  15.300  12.070
98811W        W62568  18.172  31.932  12.488
98812W        W62569   7.334  33.016  13.010
98813W        W62570  31.510  38.950   0.321
98814W        W62571  23.557  21.537   0.267
98815W        W62572  28.577  25.689  12.475
98816W        W62573  28.100  40.017  11.088
98817W        W62574  21.124  12.850  11.893
98818W        W62575  20.030  40.924  12.969
98819W        W62576  20.092  37.476  12.382
98820W        W62577   8.236   6.794  11.032
98821W        W62578  16.714  43.292   5.310
98822W        W62579   1.369  10.159  12.954
98823W        W62580  14.714   6.352   0.914
98824W        W62581   3.861   8.842  14.482
98825W        W62582  33.892  29.494  12.409
98826W        W62583   1.856  20.603  10.925
98827W        W62584  20.539  14.293  10.890
98828W        W62585  19.101   5.694   0.755
98829W        W62586   9.700  23.042  11.058
98830W        W62587  34.097  39.896  12.566
98831W        W62588  11.736  32.122   1.873
98832W        W62589  22.511  37.033   0.835
98833W        W62590  24.534   5.351   3.224
98834W        W62591  14.212  43.504   1.872
98835W        W62592  14.260  27.158  11.376
98836W        W62593  37.930   0.772   9.660
98837W        W62594  30.520  13.260  14.871
98838W        W62595  37.060  29.491  14.859
98839W        W62596  19.193   6.334  12.926
98840W        W62597   4.730  38.432   0.740
98841W        W62598   1.354   3.940  14.017
98842W        W62599  15.790  21.196  12.027
98843W        W62600  18.238   7.857  12.827
98844W        W62601  11.307   0.886   2.697
98845W        W62602  18.711   8.812  10.150
98846W        W62603  11.785   7.238   0.334
98847W        W62604  43.486  31.938   3.338
98848W        W62605  39.936  34.432  12.514
98849W        W62606  37.075  42.357   3.639
98850W        W62607  34.055  32.449  13.544
98851W        W62608   9.798  26.082   2.737
98852W        W62609   4.345   6.285   0.741
98853W        W62610  18.251  36.912   1.211
98854W        W62611  29.479  16.692  12.870
98855W        W62612   9.336  26.684   9.921
98856W        W62613  14.132  10.358   0.259
98857W        W62614  32.988  41.966  10.939
98858W        W62615  43.871  31.069   1.450
98859W        W62616  39.393  34.064  14.283
98860W        W62617  21.076  30.918  11.469
98861W        W62618  37.971   8.396   2.372
98862W        W62619   7.283  19.601   1.851
98863W        W62620   3.860   6.714   3.688
98864W        W62621  24.002  44.286   3.644
98865W        W62622  38.358   2.234   3.200
98866W        W62623  13.718   2.341   0.829
98867W        W62624  41.368   6.226   3.803
98868W        W62625  42.918  13.121   4.261
98869W        W62626  10.201  37.880  10.548
98870W        W62627  12.787  32.521  12.485
98871W        W62628  23.011  10.649  14.792
98872W        W62629  33.901  21.240   4.773
98873W        W62630  20.537  26.505   1.309
98874W        W62631   8.353  15.150  12.992
98875W        W62632  34.542  28.434  13.064
98876W        W62633  22.209   7.324  11.471
98877W        W62634  29.559  18.569  12.052
98878W        W62635  20.030  41.030   4.758
98879W        W62636  11.322  21.676  13.309
98880W        W62637  24.521   7.793   0.373
98881W        W62638  40.423  40.304  12.039
98882W        W62639  18.778   8.888  13.377
98883W        W62640  19.712  26.687  11.518
98884W        W62641  35.865  19.045  11.987
98885W        W62642  30.576   0.933  11.436
98886W        W62643  20.055  30.481  13.461
98887W        W62644  36.549  44.490  10.516
98888W        W62645   0.810  15.229   4.761
98889W        W62646  21.544  20.108   2.276
98890W        W62647  11.281  42.320  14.829
98891W        W62648  28.077   9.652   2.259
98892W        W62649   1.351  31.401   1.875
98893W        W62650   4.246  44.498  13.824
98894W        W62651   5.200  14.207  11.566
98895W        W62652  42.926  33.891  13.005
98896W        W62653  21.699  11.752  13.353
98897W        W62654  10.657  28.495   1.890
98898W        W62655  39.459   7.675  11.002
98899W        W62656  31.930  42.284  10.527
98900W        W62657  28.999  43.954   2.885
98901W        W62658  15.619   5.832   2.266
98902W        W62659   9.222  10.281  10.970
98903W        W62660   0.791   4.326  11.604
98904W        W62661  34.872  26.526  12.878
98905W        W62662  11.359  15.805  10.573
98906W        W62663  38.874  34.901  12.520
98907W        W62664   9.271  16.574   1.274
98908W        W62665  16.753  21.708  10.587
98909W        W62666  35.503  16.139   0.471
98910W        W62667  18.630   1.298  10.924
98911W        W62668   1.348   4.419   3.183
98912W        W62669  23.558  18.151  10.973
98913W        W62670  21.513  10.860   4.773
98914W        W62671  21.743  37.046  13.432
98915W        W62672  37.835  32.427   4.809
98916W        W62673  29.959  30.640  12.998
98917W        W62674  33.885  16.304  11.414
98918W        W62675  44.868   4.907  10.513
98919W        W62676  10.199  39.525   3.766
98920W        W62677  25.010  43.865  11.056
98921W        W62678  35.544   8.824  12.962
98922W        W62679   7.884  19.147   1.430
98923W        W62680  31.487   8.215  12.953
98924W        W62681  21.115   0.933  12.925
98925W        W62682   8.891  43.339   3.181
98926W        W62683  38.894  22.172   1.766
98927W        W62684  11.799   4.721  12.579
98928W        W62685  40.958   1.793   1.426
98929W        W62686  32.472  21.233   3.778
98930W        W62687   5.927  26.691  14.350
98931W        W62688  14.260  12.687  11.580
98932W        W62689  38.459   1.884  14.970
98933W        W62690   7.370  10.204  14.896
98934W        W62691  43.283   2.287   1.302
98935W        W62692  37.410  12.269   0.306
98936W        W62693   0.420   2.951   0.253
98937W        W62694  11.147  17.645  11.559
98938W        W62695  41.988   8.721  13.538
98939W        W62696   0.935  21.070  11.562
98940W        W62697  11.625   3.226  13.493
98941W        W62698   0.433  16.106   1.780
98942W        W62699  33.945  10.782   4.321
98943W        W62700  15.094  29.563   0.371
98944W        W62701  23.569   3.803   1.695
98945W        W62702  36.470  27.119   5.205
98946W        W62703  16.679  25.176   2.190
98947W        W62704  13.317  24.161  13.935
98948W        W62705  14.742  41.867   0.468
98949W        W62706  12.825  31.016   2.892
98950W        W62707  16.629  35.090   4.122
98951W        W62708   4.899  29.508  13.349
98952W        W62709  35.481   1.739  13.967
98953W        W62710   0.462  29.475  12.971
98954W        W62711  20.558  23.551   0.772
98955W        W62712  21.123   9.821   3.372
98956W        W62713   6.744  15.639   1.728
98957W        W62714  20.704  20.559  11.517
98958W        W62715  40.302  41.493   1.403
98959W        W62716   7.765   2.329  11.538
98960W        W62717  25.015  29.988  14.456
98961W        W62718  40.452  10.335   0.413
98962W        W62719  26.635  27.006   0.478
98963W        W62720  28.003  13.789   3.735
98964W        W62721  27.679  28.645   1.214
98965W        W62722  26.072  27.663   2.767
98966W        W62723  34.888   4.936  11.053
98967W        W62724  37.977  27.481  11.941
98968W        W62725  39.009   5.929   4.655
98969W        W62726  26.496  16.319   0.844
98970W        W62727  17.773  44.928  13.950
98971W        W62728   4.342  38.882   2.834
98972W        W62729  37.517  38.504  11.392
98973W        W62730  39.924   1.295   1.233
98974W        W62731  10.276  39.339   0.280
98975W        W62732   5.298  33.446  11.111
98976W        W62733  36.924  24.990   2.214
98977W        W62734  14.275   0.391   2.391
98978W        W62735  35.029  44.939  10.908
98979W        W62736  15.594   1.262  11.938
98980W        W62737  18.062  12.234  13.888
98981W        W62738  20.760  24.165  13.407
98982W        W62739   3.460   3.817  13.312
98983W        W62740  25.978  37.846   4.144
98984W        W62741   1.384  24.621   0.866
98985W        W62742   3.275   6.243   3.270
98986W        W62743  41.984  34.987  13.314
98987W        W62744   6.207  13.251   2.319
98988W        W62745   3.319   6.848  13.936
98989W        W62746  13.119  24.143   4.644
98990W        W62747  32.497  25.988  14.799
98991W        W62748  33.091  31.546  12.976
98992W        W62749   3.398  39.396   0.455
98993W        W62750  27.040  35.561   1.752
98994W        W62751  32.928  12.189  14.928
98995W        W62752  27.547  38.454   1.865
98996W        W62753  21.201  17.080   4.147
98997W        W62754  30.078  26.197   1.819
98998W        W62755  13.644   3.234   0.882
98999W        W62756   7.768  29.074  13.013
99000W        W62757  32.581  10.280   0.459
99001W        W62758   5.798  18.059  10.579
99002W        W62759  36.862  41.910  13.434
99003W        W62760  38.377  26.492   3.358
99004W        W62761  33.109  17.066  13.428
99005W        W62762  40.864  27.599   1.421
99006W        W62763  14.743  18.747   0.460
99007W        W62764  15.595  10.798   0.279
99008W        W62765  37.087  10.817   4.330
99009W        W62766  37.566  10.681  14.956
99010W        W62767   4.812  26.117  10.610
99011W        W62768  43.479  16.287  10.516
99012W        W62769  26.005  10.856  13.448
99013W        W62770  17.124  16.684   1.712
99014W        W62771  41.468   8.688   4.655
99015W        W62772  23.019   6.297   4.157
99016W        W62773   9.161  25.022  11.413
99017W        W62774  17.584  15.202  12.048
99018W        W62775  17.656  24.208   1.762
99019W        W62776  18.065  31.049   1.744
99020W        W62777  43.327  21.628  13.926
99021W        W62778  24.709  20.043   0.815
99022W        W62779  13.215   2.437  11.969
99023W        W62780  19.546  33.044   3.380
99024W        W62781  37.873  30.513  10.636
99025W        W62782  24.666  18.705  12.975
99026W        W62783  38.048  14.330  13.791
99027W        W62784  19.125  36.017  13.505
99028W        W62785   8.248  40.829  11.412
99029W        W62786   9.874  24.534   4.323
99030W        W62787   4.255  17.728   1.211
99031W        W62788  16.209  21.032   4.818
99032W        W62789  10.216  43.427   0.956
99033W        W62790  42.793  23.529  12.954
99034W        W62791  29.604  44.873  12.538
99035W        W62792  39.481  19.227   3.167
99036W        W62793  26.490  30.069  14.427
99037W        W62794  38.829  15.578   0.873
99038W        W62795   4.352   0.327   2.282
99039W        W62796  44.326   4.785   1.257
99040W        W62797   2.439  33.105   0.409
99041W        W62798  33.420  21.208  11.949
99042W        W62799  41.959  13.180   2.723
99043W        W62800  37.354  44.823  12.038
99044W        W62801  41.476  39.025  14.031
99045W        W62802  14.630   7.358   3.161
99046W        W62803  13.167  18.108  12.835
99047W        W62804  20.230   9.859   0.827
99048W        W62805  32.444  28.541   0.451
99049W        W62806  42.009  35.574  11.514
99050W        W62807  16.120  21.712  11.996
99051W        W62808  33.937  24.060   2.896
99052W        W62809   0.407   5.702   3.229
99053W        W62810  20.662  28.055  14.329
99054W        W62811  19.626  37.451  14.994
99055W        W62812  20.656  39.908  13.471
99056W        W62813  17.691   6.710  14.349
99057W        W62814  23.513  16.212   2.890
99058W        W62815  38.062   7.718  11.380
99059W        W62816   0.368  13.647   0.737
99060W        W62817   1.969   3.953  14.515
99061W        W62818  35.941   9.810  11.859
99062W        W62819  10.680  36.953   0.381
99063W        W62820   3.332  10.720  10.627
99064W        W62821  22.232  32.978  10.623
99065W        W62822   9.382  43.353   1.244
99066W        W62823  40.440  34.882   1.284
99067W        W62824   3.399   8.210   2.737
99068W        W62825   2.381  28.497  14.915
99069W        W62826  24.105  29.134   4.280
99070W        W62827  14.167  10.830   2.677
99071W        W62828  14.296  41.790   1.346
99072W        W62829  42.376  16.597  13.347
99073W        W62830   2.891  32.060  11.416
99074W        W62831  39.412  38.458  12.984
99075W        W62832  28.024  29.126  11.412
99076W        W62833   6.802  13.787  13.985
99077W        W62834  12.710  44.963  14.492
99078W        W62835  44.783  16.212   4.832
99079W        W62836  44.308  32.540  14.478
99080W        W62837  17.719  34.049   4.791
99081W        W62838   3.875  13.653   4.718
99082W        W62839  17.265   8.179  14.778
99083W        W62840  36.001  27.071   5.268
99084W        W62841  41.432  39.816  10.492
99085W        W62842  12.799  39.926  14.988
99086W        W62843  23.087  13.173  12.355
99087W        W62844  21.648   1.344   1.700
99088W        W62845   0.372  25.677  13.029
99089W        W62846  17.236  14.176   1.816
99090W        W62847  15.631   7.244   3.312
99091W        W62848   4.281  18.136   4.756
99092W        W62849  33.515   5.713  12.863
99093W        W62850  39.945  15.109   2.406
99094W        W62851  39.535  20.576  10.431
99095W        W62852  12.774  27.558  13.900
99096W        W62853  31.448   4.363  13.042
99097W        W62854  11.732  37.058  14.890
99098W        W62855  22.042  23.120  10.488
99099W        W62856   8.773  22.531  11.372
99100W        W62857  21.722  38.425  13.909
99101W        W62858   1.298  25.142   2.208
99102W        W62859  39.840  35.975   2.349
99103W        W62860   2.385  25.067   4.232
99104W        W62861   4.741  18.787  12.014
99105W        W62862   9.239  24.661  14.011
99106W        W62863  36.929  27.474  14.943
99107W        W62864   9.821  41.433  11.572
99108W        W62865  32.029  38.900  12.528
99109W        W62866   4.854  39.334  13.476
99110W        W62867  39.852  38.967  13.397
99111W        W62868  21.130  31.417   5.137
99112W        W62869  28.070  34.054   3.683
99113W        W62870  40.350  19.079   2.285
99114W        W62871  17.646  28.643  13.817
99115W        W62872  15.587  41.870  13.544
99116W        W62873  37.039  28.976   2.838
99117W        W62874   1.368  23.150   1.709
99118W        W62875   1.386  11.856  10.547
99119W        W62876  16.308  34.467   1.285
99120W        W62877   4.231  26.055   2.834
99121W        W62878  22.082  19.596  11.861
99122W        W62879  21.162   9.307   3.758
99123W        W62880  16.216  10.736   3.349
99124W        W62881  29.450  42.819  12.391
99125W        W62882  20.641  12.845  12.053
99126W        W62883  39.808  10.744  14.398
99127W        W62884  35.051   1.259   0.337
99128W        W62885  35.886  41.936   0.743
99129W        W62886  31.073  24.529   4.222
99130W        W62887  38.897  42.854  12.848
99131W        W62888   7.186   1.946  13.368
99132W        W62889  39.340  38.992   1.356
99133W        W62890   0.762   5.874   2.860
99134W        W62891   3.228  31.075  13.438
99135W        W62892  20.552  17.695  11.373
99136W        W62893  28.577   4.727  12.545
99137W        W62894   7.734   7.409   3.212
99138W        W62895  23.215  15.822   1.223
99139W        W62896  34.892   3.736  14.959
99140W        W62897   1.344  14.266  12.426
99141W        W62898  18.215   6.367   0.344
99142W        W62899  17.731  40.860  12.084
99143W        W62900   6.683  16.257   4.645
99144W        W62901  42.439  19.124  14.328
99145W        W62902  22.097   1.778   0.305
99146W        W62903  31.401  23.073   3.193
99147W        W62904  26.642   6.882   3.636
99148W        W62905  25.115  43.015  14.870
99149W        W62906   2.424  15.321   1.378
99150W        W62907  26.049  37.403   2.270
99151W        W62908  19.214  35.101  13.462
99152W        W62909  28.552   9.720   2.716
99153W        W62910  33.470  22.202   2.710
99154W        W62911  13.722  15.100   3.272
99155W        W62912  36.975  17.641  14.508
99156W        W62913   1.289  10.684   0.387
99157W        W62914  43.913  21.572   3.677
99158W        W62915  19.673  40.447  10.490
99159W        W62916  38.495   1.937   3.814
99160W        W62917  20.720  35.497  14.872
99161W        W62918  32.524  42.842   0.368
99162W        W62919   7.402  12.344  10.575
99163W        W62920  39.397  31.413  11.477
99164W        W62921  38.512  21.685  12.373
99165W        W62922   9.242   4.416   2.695
99166W        W62923  12.118  22.535   3.352
99167W        W62924  38.916  44.007  14.778
99168W        W62925  11.820  12.309  14.326
99169W        W62926  35.460   2.471   0.738
99170W        W62927   0.262  14.718   0.840
99171W        W62928  19.728  34.105   4.327
99172W        W62929  18.288  35.452   0.910
99173W        W62930  37.849  17.087  10.406
99174W        W62931  26.574  17.773  11.613
99175W        W62932  34.394  27.999   0.904
99176W        W62933  35.905  11.150  11.555
99177W        W62934  19.275  27.100   3.309
99178W        W62935  39.432  20.579  14.392
99179W        W62936  10.171  32.942  12.952
99180W        W62937  21.028  21.182   1.763
99181W        W62938  31.569  27.480   3.257
99182W        W62939  20.731  31.533  13.036
99183W        W62940  37.946  31.545   0.881
99184W        W62941   2.419  26.165  11.436
99185W        W62942  25.645   2.463   4.140
99186W        W62943  18.749  11.693   4.636
99187W        W62944   3.917  23.585   3.688
99188W        W62945  19.592   5.363  13.468
99189W        W62946  16.160  12.825  12.942
99190W        W62947  44.864  23.082   0.797
99191W        W62948  37.902  20.673  12.094
99192W        W62949  17.726  39.824  12.042
99193W        W62950  28.016  10.847   1.821
99194W        W62951  26.621  33.963  11.963
99195W        W62952   6.911   6.749   2.754
99196W        W62953  39.904  41.389  10.452
99197W        W62954   5.383  12.737  10.435
99198W        W62955   8.383   9.319   1.339
99199W        W62956   4.396  37.030  12.001
99200W        W62957  18.771  24.082   1.760
99201W        W62958  12.734  29.030  14.298
99202W        W62959  17.571  41.809   1.731
99203W        W62960  18.546  31.601   1.783
99204W        W62961   9.336  38.528   0.770
99205W        W62962  35.403  15.177  10.564
99206W        W62963  36.971  27.047   3.333
99207W        W62964   3.792  19.585  13.942
99208W        W62965  30.150   2.801   4.642
99209W        W62966   2.381  23.095  11.111
99210W        W62967  17.584   0.403   0.245
99211W        W62968  28.481  13.716  12.339
99212W        W62969  35.057   3.228  14.487
99213W        W62970  13.747  19.623  13.414
99214W        W62971   9.832  34.437   2.797
99215W        W62972  10.228  33.085   0.901
99216W        W62973  19.740   2.920   0.948
99217W        W62974   2.434  27.477  13.488
99218W        W62975  27.992  25.054   0.273
99219W        W62976  35.519  24.987  11.529
99220W        W62977  43.400   6.238   3.260
99221W        W62978  12.274   1.750   3.726
99222W        W62979  34.484  15.774  13.477
99223W        W62980   6.415  17.788   9.668
99224W        W62981  17.103  33.465   1.789
99225W        W62982  17.718  25.094  12.352
99226W        W62983  38.349   4.380  13.044
99227W        W62984   8.319  22.215   3.842
99228W        W62985  28.037  28.484   3.705
99229W        W62986  23.704   1.785  13.380
99230W        W62987  27.197  17.256  14.935
99231W        W62988  14.209  10.185   1.286
99232W        W62989  37.567   7.785  14.312
99233W        W62990   5.752  33.071  12.521
99234W        W62991  12.683  10.781   1.749
99235W        W62992  22.693  43.393   2.683
99236W        W62993  25.172  27.523   1.389
99237W        W62994   6.386  29.139   3.299
99238W        W62995  31.546  16.144  11.086
99239W        W62996  13.760  25.535   1.820
99240W        W62997   4.263   2.720   2.843
99241W        W62998  43.385  29.651  14.412
99242W        W62999  29.571  32.502  11.548
99243W        W63000   1.312  37.862   4.796
99244W        W63001  31.903  17.087  10.558
99245W        W63002  19.226  35.441   0.319
99246W        W63003  28.160  36.899   4.651
99247W        W63004  23.071  34.580  13.058
99248W        W63005  31.944  15.599   0.343
99249W        W63006   6.823  40.872  14.862
99250W        W63007  43.891  42.377   4.245
99251W        W63008  21.064  37.400  14.878
99252W        W63009  35.574  41.921   3.169
99253W        W63010  22.227  34.042   4.321
99254W        W63011  12.735   7.881  13.970
99255W        W63012  37.346  10.318   3.157
99256W        W63013   6.243  28.509  12.515
99257W        W63014  23.522  16.581   1.450
99258W        W63015  18.265  33.962   5.667
99259W        W63016  27.949   7.699  14.338
99260W        W63017  13.844  31.017  11.486
99261W        W63018  40.001  11.258  11.939
99262W        W63019   8.701  26.083  12.451
99263W        W63020   2.436  18.571   3.149
99264W        W63021  20.766  18.737  11.991
99265W        W63022   7.751  24.170  11.930
99266W        W63023  17.128  27.151  12.964
99267W        W63024  15.711  18.148  11.417
99268W        W63025  26.456  31.067   2.665
99269W        W63026  43.844  20.052   4.220
99270W        W63027  44.333  20.202   1.922
99271W        W63028  12.805  33.897  11.887
99272W        W63029   1.752  11.156   3.369
99273W        W63030  33.460  42.798   4.282
99274W        W63031   6.237  15.253   3.254
99275W        W63032  32.568  34.541   0.477
99276W        W63033   3.342  37.030  14.924
99277W        W63034  21.151   5.696  11.027
99278W        W63035  27.484   9.307   0.746
99279W        W63036  30.065  13.611   4.601
99280W        W63037  36.029  12.124  12.036
99281W        W63038  19.689  44.806  11.874
99282W        W63039   3.931  15.109   0.964
99283W        W63040   8.278  10.151  13.822
99284W        W63041   2.787  26.029   2.414
99285W        W63042   9.212  44.931   4.669
99286W        W63043  25.555  28.939   4.730
99287W        W63044  15.604  30.055  14.990
99288W        W63045   5.260  18.725  11.373
99289W        W63046   9.806  15.764   5.139
99290W        W63047  35.447   8.180  10.448
99291W        W63048  32.570  11.369  12.382
99292W        W63049  15.216   4.737  13.020
99293W        W63050  11.348  40.822   4.187
99294W        W63051  26.472  13.234  11.391
99295W        W63052  25.135   3.784   2.270
99296W        W63053  29.039   0.854  13.357
99297W        W63054  33.001  42.303   0.864
99298W        W63055  11.341  38.967   4.285
99299W        W63056  41.321  25.565  10.940
99300W        W63057  15.257  15.653  13.334
99301W        W63058  36.503  15.212  12.881
99302W        W63059  27.468  44.439   3.208
99303W        W63060   9.845   1.439  12.839
99304W        W63061  21.229   9.292   3.315
99305W        W63062  31.615  42.420   3.168
99306W        W63063  12.138  19.124   3.850
99307W        W63064  15.822  18.547  12.880
99308W        W63065   6.849   8.235  14.771
99309W        W63066  39.826  29.641   1.885
99310W        W63067   5.277  35.438   4.124
99311W        W63068  28.547  10.293   9.994
99312W        W63069   3.783  42.283  10.445
99313W        W63070  13.117  42.449   1.831
99314W        W63071  30.113   1.409   0.735
99315W        W63072   4.853  22.630   2.734
99316W        W63073  30.076   4.338  12.507
99317W        W63074  44.442  22.628  10.610
99318W        W63075  13.322  15.196   3.167
99319W        W63076  14.827  42.983   9.472
99320W        W63077  17.577  32.012   2.857
99321W        W63078  11.233  27.491  12.350
99322W        W63079  41.441  21.163   4.296
99323W        W63080  15.737  41.530   0.917
99324W        W63081   3.830  14.745  14.945
99325W        W63082  31.057  23.654   4.703
99326W        W63083  42.355  18.660   0.823
99327W        W63084  33.548   4.732   2.225
99328W        W63085  40.958   8.884  14.415
99329W        W63086   8.657  21.576  13.904
99330W        W63087  21.147  36.943  11.100
99331W        W63088  19.677   7.277  11.456
99332W        W63089   9.646  23.564  12.346
99333W        W63090  36.551   0.493  10.009
99334W        W63091  44.284  31.047  11.566
99335W        W63092  15.258   2.760  13.405
99336W        W63093  41.447  11.267  12.004
99337W        W63094  20.162   8.247  11.917
99338W        W63095  36.371  26.468   5.085
99339W        W63096  10.333  22.653  10.425
99340W        W63097  24.016  33.501  11.901
99341W        W63098  28.028  15.821  12.842
99342W        W63099  22.593  11.859   3.630
99343W        W63100  41.436  39.956   3.331
99344W        W63101  30.072  17.761   0.767
99345W        W63102  31.898  11.695   4.268
99346W        W63103  27.102  37.569  12.870
99347W        W63104  13.789  30.112  14.763
99348W        W63105  10.639   1.806  11.571
99349W        W63106  40.335  23.987  12.489
99350W        W63107  42.998   9.342   4.812
99351W        W63108  31.428   5.289   3.815
99352W        W63109  38.504  33.454   0.408
99353W        W63110  36.351  34.935  11.951
99354W        W63111  16.753   6.401  11.039
99355W        W63112  33.577  38.047  13.495
99356W        W63113  34.032  44.825   0.355
99357W        W63114  37.513  29.651  10.485
99358W        W63115  27.513  19.589   0.356
99359W        W63116  23.534  43.344   2.853
99360W        W63117  36.581  30.643  14.838
99361W        W63118  36.473  38.386   2.220
99362W        W63119  10.813  24.577  10.989
99363W        W63120  10.138   3.720  12.521
99364W        W63121  10.339  30.549  11.930
99365W        W63122   3.448  28.001  14.440
99366W        W63123   1.352  21.735   0.360
99367W        W63124  35.986  19.637   2.860
99368W        W63125  17.583  30.083   0.785
99369W        W63126  36.998  13.774   4.791
99370W        W63127  39.341   0.325   4.723
99371W        W63128  36.564   6.241   1.725
99372W        W63129  37.858  21.153  12.953
99373W        W63130  12.799  18.585   4.155
99374W        W63131   1.907   1.272  10.427
99375W        W63132   9.266  24.160  10.970
99376W        W63133  12.784  38.344  11.418
99377W        W63134   1.268  26.020   3.158
99378W        W63135  28.933   7.279  12.019
99379W        W63136   1.248  41.519  12.831
99380W        W63137  24.692  22.528   0.961
99381W        W63138  43.898  36.525  14.355
99382W        W63139  29.524  27.147  12.469
99383W        W63140  31.963  10.275  11.090
99384W        W63141   4.699  39.861   2.405
99385W        W63142  22.013  25.131   4.829
99386W        W63143  28.951  32.435   0.340
99387W        W63144  24.153  33.488   4.227
99388W        W63145  12.215   8.885   0.733
99389W        W63146  43.298  22.557   3.779
99390W        W63147  42.517  38.535  10.553
99391W        W63148  20.255  18.177  13.830
99392W        W63149  39.429  30.953  13.011
99393W        W63150  37.087  40.529   1.424
99394W        W63151  17.238  40.866   1.222
99395W        W63152   3.762   2.830  14.896
99396W        W63153  13.206  32.017  11.416
99397W        W63154   5.857  11.325  13.326
99398W        W63155  38.347  29.142   0.876
99399W        W63156  18.184   9.693   2.288
99400W        W63157   3.916  17.767   4.132
99401W        W63158  38.913  39.412  14.324
99402W        W63159  35.969  40.400  12.921
99403W        W63160  35.979   4.770  13.417
99404W        W63161  38.520   0.368   4.209
99405W        W63162   2.271  29.051   3.301
99406W        W63163  20.065  28.062   3.298
99407W        W63164   0.964  22.250   2.805
99408W        W63165  16.215   8.708   0.821
99409W        W63166  12.711  10.289   4.818
99410W        W63167  23.081  15.159  14.327
99411W        W63168  22.673  11.829   1.720
99412W        W63169  39.026  18.782  11.020
99413W        W63170  15.263  14.631  10.539
99414W        W63171  10.312  24.165   2.780
99415W        W63172   1.258   9.752   2.189
99416W        W63173  41.983  43.959  12.374
99417W        W63174  31.937  25.690   4.258
99418W        W63175  31.449  39.831   2.342
99419W        W63176  26.650   1.768   0.407
99420W        W63177   9.168  12.816  14.868
99421W        W63178  19.750   3.461   0.291
99422W        W63179  15.806   1.935  13.837
99423W        W63180   3.738  35.429   2.790
99424W        W63181  14.792  27.950  10.513
99425W        W63182  28.656  44.432   1.441
99426W        W63183  41.989  37.889   1.836
99427W        W63184  14.116   5.367  11.489
99428W        W63185   8.748  20.607  10.430
99429W        W63186  29.052   8.859   1.292
99430W        W63187  27.477   3.310   1.245
99431W        W63188   3.363  26.069  14.000
99432W        W63189  44.897  16.255   0.334
99433W        W63190  40.891  22.599  13.435
99434W        W63191  13.346  17.151   2.822
99435W        W63192  33.919  11.332   3.270
99436W        W63193  31.111   2.432  12.482
99437W        W63194  17.219   3.914   2.340
99438W        W63195   8.730  10.256  13.872
99439W        W63196  15.087  17.592   1.349
99440W        W63197   9.820   1.368   1.322
99441W        W63198  35.052  27.075   0.412
99442W        W63199  35.987  31.990  10.505
99443W        W63200  41.467  27.124   4.635
99444W        W63201  22.532  33.613  10.101
99445W        W63202  41.483  16.184  11.989
99446W        W63203  23.005   4.805  13.925
99447W        W63204  33.036  19.046   0.787
99448W        W63205  19.281  30.062  14.817
99449W        W63206  20.552  18.205  13.454
99450W        W63207  24.169   9.314   2.303
99451W        W63208   4.711  30.587   5.179
99452W        W63209  19.632  43.838  13.885
99453W        W63210   4.868  29.120   5.096
99454W        W63211  11.726  36.914  13.808
99455W        W63212  36.880  16.168   0.288
99456W        W63213   1.789   5.398  10.407
99457W        W63214  23.003  33.537  11.920
99458W        W63215  10.296  33.549  10.907
99459W        W63216  44.955  10.250  11.048
99460W        W63217  18.197  37.040  11.080
99461W        W63218  14.600  35.567  10.560
99462W        W63219   9.718  18.217  11.417
99463W        W63220  17.731  10.328  12.363
99464W        W63221   1.792  10.305   0.258
99465W        W63222   4.941   3.268   2.279
99466W        W63223  15.622  19.724   1.237
99467W        W63224   3.810  32.953  12.501
99468W        W63225  25.531  26.965  12.461
99469W        W63226  27.064  20.645  14.492
99470W        W63227  23.123   0.489  11.064
99471W        W63228  30.434  41.304   4.220
99472W        W63229  19.060  10.657  10.948
99473W        W63230   1.765  17.714   1.210
99474W        W63231  29.953  19.235   2.801
99475W        W63232  21.031  27.525  13.424
99476W        W63233  33.929   9.326  11.967
99477W        W63234  34.114  31.584   1.381
99478W        W63235  42.825  28.056  14.494
99479W        W63236  15.319   8.406   3.815
99480W        W63237  10.663  37.411  13.929
99481W        W63238   8.241  15.273   1.810
99482W        W63239  37.572  18.632  12.031
99483W        W63240  28.447  32.981   1.799
99484W        W63241  27.094  28.469  12.857
99485W        W63242   1.913  20.619  12.839
99486W        W63243  12.796  17.788  13.842
99487W        W63244  32.003   8.302   4.140
99488W        W63245   6.397  17.112  11.863
99489W        W63246  38.866  39.537   4.310
99490W        W63247  31.951  11.807  14.909
99491W        W63248   2.730  39.902   2.745
99492W        W63249  12.687  40.510  14.376
99493W        W63250  11.646  39.394  14.317
99494W        W63251  32.487  41.472   4.210
99495W        W63252  21.667  25.092   0.483
99496W        W63253  31.536   7.186  14.279
99497W        W63254  35.430  38.918   1.391
99498W        W63255  41.508  30.590  14.988
99499W        W63256   3.401   6.224  13.824
99500W        W63257   0.899   2.947   4.353
99501W        W63258   9.679  27.497  10.560
99502W        W63259  37.872  24.162  12.068
99503W        W63260  29.146   7.749   4.722
99504W        W63261   3.864  11.128   2.753
99505W        W63262  20.535   2.394   0.251
99506W        W63263   1.316   1.391  11.864
99507W        W63264  43.382  32.598   3.301
99508W        W63265  15.695  27.086  11.978
99509W        W63266   8.783  13.190   3.871
99510W        W63267  20.643  44.801  14.918
99511W        W63268   9.853  12.698  14.427
99512W        W63269  23.167  29.134  13.499
99513W        W63270   6.350  33.576   2.852
99514W        W63271  43.360  41.891  11.533
99515W        W63272  36.366  31.601  12.456
99516W        W63273  29.108   4.892  13.477
99517W        W63274  14.763  39.523  11.464
99518W        W63275  37.895   4.217  12.028
99519W        W63276  28.567  20.129  14.842
99520W        W63277   6.732   4.384   2.770
99521W        W63278   3.880  17.303  13.804
99522W        W63279  24.148  22.188   4.758
99523W        W63280  12.276  25.567  12.072
99524W        W63281  39.042   6.874   4.151
99525W        W63282  20.695  15.605  13.343
99526W        W63283  44.997  33.055   2.237
99527W        W63284  34.878  40.915  11.050
99528W        W63285   0.854   6.371  12.904
99529W        W63286  23.151  13.175   4.132
99530W        W63287  20.053  35.072   1.253
99531W        W63288  23.504  18.665  10.980
99532W        W63289  11.147  41.955  12.569
99533W        W63290  31.404  32.457   1.698
99534W        W63291  23.559  16.686  11.945
99535W        W63292   3.291   2.342  11.988
99536W        W63293  20.674  31.966   2.740
99537W        W63294  26.625  13.698   4.720
99538W        W63295  36.554   0.327   2.756
99539W        W63296  11.273  44.349   3.804
99540W        W63297   1.785  36.049  14.855
99541W        W63298  16.147   1.752   1.782
99542W        W63299  38.472  21.675   1.861
99543W        W63300  40.339  24.496   1.710
99544W        W63301  38.521   9.883   4.779
99545W        W63302   8.265  32.504   4.354
99546W        W63303  31.968  24.533   1.828
99547W        W63304  11.164  43.353  12.522
99548W        W63305  38.943  18.586  12.407
99549W        W63306  19.590   4.919   1.217
99550W        W63307  27.968  40.520  13.447
99551W        W63308   3.841  26.651  12.526
99552W        W63309   7.409  28.605  12.065
99553W        W63310  35.483  17.297   0.372
99554W        W63311  27.490   7.228   3.755
99555W        W63312  41.331  11.255  14.996
99556W        W63313  39.416  17.186  10.542
99557W        W63314   7.402  27.601  10.468
99558W        W63315  16.163   1.453   1.395
99559W        W63316  13.265  30.059   1.225
99560W        W63317  14.621  26.095  12.496
99561W        W63318   1.810  10.198  12.056
99562W        W63319   3.846  41.401  11.585
99563W        W63320  18.673  33.584  11.934
99564W        W63321   7.216  11.834  14.384
99565W        W63322  10.788  32.469   3.179
99566W        W63323  42.006   2.406  10.001
99567W        W63324   4.307  35.521   1.423
99568W        W63325   4.806  25.040  11.978
99569W        W63326  24.082  28.603  13.797
99570W        W63327  18.236  40.955  10.977
99571W        W63328  42.924   4.769  14.291
99572W        W63329  13.131  32.438  13.971
99573W        W63330  20.137   5.874  12.374
99574W        W63331   9.856   1.845   1.709
99575W        W63332   5.821  34.991  13.483
99576W        W63333  19.632  12.209   4.645
99577W        W63334  36.069  35.375   3.629
99578W        W63335  20.231  10.697  12.339
99579W        W63336  18.098  39.011  14.324
99580W        W63337  37.377  44.422   4.333
99581W        W63338  35.019  10.384  13.861
99582W        W63339   6.423   8.724   0.756
99583W        W63340   6.222  27.944   1.269
99584W        W63341   5.250  22.633  12.924
99585W        W63342   1.319  42.392   4.303
99586W        W63343  14.187   0.972  13.039
99587W        W63344  27.991  43.914  12.937
99588W        W63345  29.057  27.130  13.046
99589W        W63346   6.684  39.496  10.068
99590W        W63347  27.031  27.146  10.980
99591W        W63348  24.002   5.874  10.546
99592W        W63349   1.431  40.340  12.868
99593W        W63350  29.078  33.405  11.603
99594W        W63351  31.109  10.862  13.980
99595W        W63352   1.960  36.494  11.492
99596W        W63353  16.626  13.340   1.257
99597W        W63354  23.598  33.446  12.061
99598W        W63355  16.313  33.930  13.893
99599W        W63356  37.572  22.513  12.362
99600W        W63357  24.122  11.347   2.182
99601W        W63358  39.838   4.848  11.019
99602W        W63359  44.367  38.410  11.609
99603W        W63360  30.521  35.909   4.832
99604W        W63361  44.969  34.469  12.502
99605W        W63362  19.687   0.927   1.354
99606W        W63363   9.762   5.294   2.297
99607W        W63364   5.770  31.512  11.488
99608W        W63365  32.102   4.906   0.948
99609W        W63366   2.932  12.750  11.405
99610W        W63367   5.864  21.076   1.781
99611W        W63368  11.693  33.420   1.339
99612W        W63369  39.449  31.957  13.535
99613W        W63370  26.015  30.533   3.755
99614W        W63371  16.609  15.737  10.951
99615W        W63372  40.930  40.433   0.802
99616W        W63373  24.556  13.802  10.509
99617W        W63374   6.388  38.446  14.961
99618W        W63375  14.592  19.725   2.661
99619W        W63376   3.392  22.185  14.353
99620W        W63377  24.519  21.655   1.821
99621W        W63378  29.551  41.507   1.852
99622W        W63379  25.665  38.562  10.926
99623W        W63380  29.615  42.776   1.935
99624W        W63381  18.123  33.080  14.310
99625W        W63382  21.192  37.846   5.756
99626W        W63383  12.361  22.166   1.432
99627W        W63384  41.947  29.087   2.384
99628W        W63385  27.955  25.006   1.259
99629W        W63386  30.607  21.118  14.881
99630W        W63387   0.890   0.742  10.997
99631W        W63388  15.275  42.924   3.712
99632W        W63389  26.618  18.571   0.803
99633W        W63390  25.511  41.318   5.265
99634W        W63391  39.387  32.486  12.362
99635W        W63392  39.038   4.940  14.385
99636W        W63393  41.311  13.116   2.183
99637W        W63394  25.108  37.582  13.984
99638W        W63395  23.997  19.271   2.288
99639W        W63396  18.723  20.694   0.346
99640W        W63397  31.448   1.415  13.988
99641W        W63398  34.063  10.869  10.965
99642W        W63399  24.699   6.689   4.639
99643W        W63400   7.216  39.528  14.511
99644W        W63401   6.918  15.704  13.477
99645W        W63402  40.519  36.016  14.516
99646W        W63403  41.958  14.154  11.519
99647W        W63404   0.371   2.822   1.303
99648W        W63405  27.135  42.846   4.674
99649W        W63406  34.564  35.936  12.563
99650W        W63407   0.928   3.761   2.208
99651W        W63408  35.917  32.579   3.289
99652W        W63409  39.468  12.157   1.257
99653W        W63410  33.533  33.436  12.369
99654W        W63411  42.461  37.045   3.713
99655W        W63412  12.852  15.748   0.829
99656W        W63413  29.017  18.112   2.352
99657W        W63414  28.659   2.942   4.298
99658W        W63415  41.388  11.304  13.308
99659W        W63416  18.073   7.774  13.491
99660W        W63417   2.352   7.360   0.385
99661W        W63418  30.154  12.632   2.193
99662W        W63419  38.969  33.549  11.914
99663W        W63420  15.664  29.639   1.286
99664W        W63421  27.569  12.792  10.144
99665W        W63422  34.609  41.329  13.046
99666W        W63423  24.121   1.898  11.580
99667W        W63424  24.712  38.380   3.709
99668W        W63425   3.830  21.189   0.910
99669W        W63426  17.295   0.918  12.576
99670W        W63427   7.816  28.133  14.426
99671W        W63428   2.819  11.646  11.508
99672W        W63429  16.766  16.569   1.804
99673W        W63430  37.373  36.978   3.848
99674W        W63431  21.105   6.422  13.426
99675W        W63432  11.347  16.763   3.365
99676W        W63433   4.342  35.049   0.956
99677W        W63434  34.408  38.003  14.447
99678W        W63435   1.410  42.986  15.000
99679W        W63436   0.919  39.849  12.482
99680W        W63437  17.629  44.334  14.849
99681W        W63438  41.787   7.303  10.115
99682W        W63439  41.459   2.733   2.851
99683W        W63440   4.796   3.833  13.443
99684W        W63441   1.448  40.908   1.407
99685W        W63442  28.980   1.829  14.463
99686W        W63443  25.994  44.772  14.503
99687W        W63444  30.554   4.310   0.962
99688W        W63445   9.293   0.751   0.477
99689W        W63446  36.846  17.725   4.230
99690W        W63447   7.878  15.255  13.962
99691W        W63448  22.712   5.419  11.982
99692W        W63449  35.479  30.005  14.340
99693W        W63450  15.090  41.336  13.501
99694W        W63451   1.296  37.477  11.978
99695W        W63452  43.860  44.492   4.639
99696W        W63453  25.602   0.309   1.264
99697W        W63454  23.027   6.230  12.580
99698W        W63455  28.014  10.843  10.462
99699W        W63456  31.608  10.643   3.370
99700W        W63457  42.880  17.226   4.660
99701W        W63458  18.782  16.759   1.905
99702W        W63459  17.684   2.765   2.413
99703W        W63460  23.058   7.709  11.461
99704W        W63461  32.487  19.115   2.824
99705W        W63462   2.383  14.127   4.769
99706W        W63463   0.930  26.180  14.336
99707W        W63464   8.826  19.213  10.940
99708W        W63465  27.161  36.992  13.000
99709W        W63466  29.996  30.495   0.446
99710W        W63467  30.049   2.927  12.339
99711W        W63468  20.132   3.786  13.016
99712W        W63469  11.146  28.948   0.275
99713W        W63470  44.278  42.810  14.963
99714W        W63471  25.198   1.411  10.621
99715W        W63472  41.516  38.382   2.318
99716W        W63473   0.319  12.336   2.890
99717W        W63474  28.165  13.638   2.767
99718W        W63475  37.388  19.282   2.872
99719W        W63476  19.626  37.024   1.933
99720W        W63477  25.556  16.303   2.853
99721W        W63478  41.297  27.942  10.577
99722W        W63479  17.614   1.800   3.147
99723W        W63480  44.422  28.521  13.445
99724W        W63481  34.896  33.478  11.871
99725W        W63482  28.510  25.194  10.938
99726W        W63483   4.389  35.856  11.941
99727W        W63484  18.618  33.523   0.732
99728W        W63485  34.551  27.626   0.807
99729W        W63486   5.739  29.641  10.571
99730W        W63487  29.526  12.348   4.604
99731W        W63488   1.939   9.691   1.233
99732W        W63489  26.150   5.827   0.353
99733W        W63490  25.121   8.895   4.722
99734W        W63491  11.785  23.042   1.293
99735W        W63492  35.584   1.831   5.267
99736W        W63493  29.173  17.083  12.876
99737W        W63494  20.175  27.536  10.909
99738W        W63495   2.883  16.141  13.414
99739W        W63496  38.019  32.969   1.268
99740W        W63497  29.089  13.177   3.760
99741W        W63498   5.786  35.909  13.371
99742W        W63499   9.302   5.402   3.677
99743W        W63500  35.429  36.004  11.120
99744W        W63501  41.343  29.551   0.307
99745W        W63502  32.084  33.543   0.733
99746W        W63503  44.361  41.316  11.399
99747W        W63504  34.587  21.603  11.937
99748W        W63505  44.860  14.631   2.360
99749W        W63506  15.641  21.696   2.843
99750W        W63507  31.632  28.103   1.872
99751W        W63508   7.844  39.524  14.983
99752W        W63509  19.218   1.447  11.522
99753W        W63510   6.283  29.666   1.781
99754W        W63511  32.999  37.074   0.308
99755W        W63512   5.710  24.680   2.662
99756W        W63513  44.284   1.760  10.159
99757W        W63514  31.640  18.087  14.889
99758W        W63515  25.128  27.947  14.974
99759W        W63516  41.000  39.435   2.341
99760W        W63517   8.336  30.942   4.295
99761W        W63518  14.790  36.408   4.322
99762W        W63519  34.586  36.059  11.093
99763W        W63520  33.548  20.642   1.815
99764W        W63521   8.395  28.058  12.516
99765W        W63522   9.195  40.941  12.831
99766W        W63523  22.144  34.396  12.067
99767W        W63524   3.802   7.680   4.229
99768W        W63525   9.662  19.741   4.264
99769W        W63526  30.047  11.635  11.379
99770W        W63527  37.535  44.842  14.283
99771W        W63528   5.717  26.953   4.631
99772W        W63529  22.632  34.108   3.370
99773W        W63530   6.391   2.317   2.256
99774W        W63531  34.017  16.122   4.350
99775W        W63532  32.425  44.937  13.982
99776W        W63533  28.062   6.777  13.809
99777W        W63534  38.408  24.673   1.756
99778W        W63535  34.391  33.443   1.404
99779W        W63536  13.756  34.507   4.141
99780W        W63537   9.312   5.359  13.938
99781W        W63538  12.300  20.734  10.897
99782W        W63539  35.044   5.312   0.891
99783W        W63540  31.927  29.670  12.884
99784W        W63541  30.422   5.892  13.408
99785W        W63542  26.147  35.873  12.420
99786W        W63543  40.474  20.167  12.537
99787W        W63544  14.655  39.965  13.884
99788W        W63545  43.438  27.642  10.524
99789W        W63546  43.320  40.313  13.008
99790W        W63547  19.284  13.297   1.353
99791W        W63548  33.521  21.649   4.210
99792W        W63549  31.979   9.161   1.227
99793W        W63550  13.604  35.443   0.426
99794W        W63551  25.522  35.946   3.829
99795W        W63552  43.275  27.582  11.860
99796W        W63553  32.975   4.363   0.907
99797W        W63554  29.993  39.980   1.834
99798W        W63555   6.765  21.617  13.792
99799W        W63556  33.115  33.016   0.779
99800W        W63557  11.172   1.819  12.378
99801W        W63558  17.643  33.876   4.118
99802W        W63559  37.470   7.333  10.008
99803W        W63560   3.453  43.976   3.350
99804W        W63561  18.158  37.363  10.581
99805W        W63562   1.949   4.832   5.222
99806W        W63563  20.697   1.849  13.339
99807W        W63564   3.248  26.556   2.377
99808W        W63565  12.239   2.443   2.893
99809W        W63566  38.390   7.868   2.316
99810W        W63567   5.219  42.896  13.545
99811W        W63568  41.334  42.464   3.839
99812W        W63569   1.299  21.075  12.340
99813W        W63570  37.941  13.785   3.333
99814W        W63571  25.099  24.060   1.372
99815W        W63572   2.453  43.793   2.731
99816W        W63573  36.430  35.023  13.538
99817W        W63574  19.538   3.373  11.450
99818W        W63575  39.457   9.730   2.751
99819W        W63576   8.751   3.956  11.379
99820W        W63577  25.981  16.689  14.296
99821W        W63578  38.077  28.651   2.732
99822W        W63579   3.354   3.908   5.137
99823W        W63580   6.710  11.349  10.947
99824W        W63581  40.534   3.273  14.777
99825W        W63582  26.629  20.129  13.062
99826W        W63583  12.223   5.264  13.383
99827W        W63584  21.262  21.746  13.925
99828W        W63585  30.953  33.409  13.336
99829W        W63586  25.661  35.110   0.823
99830W        W63587  20.042  31.092  12.955
99831W        W63588  18.745  30.929  11.033
99832W        W63589  32.554  10.177  11.876
99833W        W63590  29.454  20.229   0.260
99834W        W63591  26.054  14.684  13.453
99835W        W63592  13.841  24.205  11.384
99836W        W63593  30.551  27.452  11.017
99837W        W63594  33.441  38.996  12.528
99838W        W63595  12.648  39.492  12.509
99839W        W63596  35.403   0.962  13.916
99840W        W63597   5.731  13.325   4.709
99841W        W63598  36.970  17.071  12.982
99842W        W63599  12.787  28.929   0.373
99843W        W63600  20.122  12.287  14.897
99844W        W63601  36.410   9.644   2.371
99845W        W63602  20.196  43.953  12.096
99846W        W63603  13.240  29.425   1.282
99847W        W63604  10.846  23.158   3.680
99848W        W63605  39.036  43.375  11.471
99849W        W63606  30.085  22.217   3.636
99850W        W63607  21.586  21.715  11.575
99851W        W63608  28.534  42.029   1.895
99852W        W63609  14.310   6.377   5.129
99853W        W63610  41.464  28.589   3.240
99854W        W63611   4.742  15.324  10.639
99855W        W63612  24.213  17.276   4.694
99856W        W63613  13.128  42.791   0.780
99857W        W63614  18.136  39.920  12.956
99858W        W63615  17.142  38.499  11.463
99859W        W63616   2.792  42.908  14.908
99860W        W63617  15.610   2.744  14.886
99861W        W63618  37.980  17.789  11.908
99862W        W63619  16.159   1.936  10.530
99863W        W63620  18.105  32.119  12.893
99864W        W63621   0.383   8.180   1.269
99865W        W63622  13.729  43.302   3.280
99866W        W63623  44.850  28.966  14.393
99867W        W63624  20.068  15.717   3.790
99868W        W63625  26.470  44.992  14.803
99869W        W63626  35.555  26.124   4.225
99870W        W63627  31.635  23.046   3.864
99871W        W63628   9.283   2.322   1.756
99872W        W63629  40.446  18.681  11.487
99873W        W63630  35.459  17.062   1.767
99874W        W63631  38.992  20.093   1.331
99875W        W63632  19.085  14.262  12.400
99876W        W63633  32.912  14.103  14.764
99877W        W63634  12.168  18.286   2.345
99878W        W63635  19.146  15.601  11.944
99879W        W63636  39.857  35.377   3.244
99880W        W63637  15.721  37.961   1.828
99881W        W63638  30.952  28.140   2.891
99882W        W63639  16.738  19.635   2.780
99883W        W63640   9.661  12.249  12.826
99884W        W63641  37.354  24.649   2.833
99885W        W63642  16.076  36.076   3.813
99886W        W63643  10.165  27.650   2.674
99887W        W63644  44.955  12.197  13.428
99888W        W63645  33.978  44.853  13.346
99889W        W63646  15.323   0.931  14.434
99890W        W63647   7.700  43.823  10.976
99891W        W63648  30.071  35.426   2.340
99892W        W63649   0.494  19.125  14.916
99893W        W63650   9.870  27.014   4.256
99894W        W63651  19.248  13.767  14.452
99895W        W63652   0.921  29.525  13.542
99896W        W63653  13.623  44.476  11.857
99897W        W63654   4.855  22.743  13.932
99898W        W63655  19.256   6.901  12.995
99899W        W63656  28.613  11.278   1.889
99900W        W63657  17.699   4.782   2.887
99901W        W63658  31.572   2.912   5.628
99902W        W63659  28.580  16.617   2.848
99903W        W63660  14.594  41.509   2.828
99904W        W63661  36.372  27.967   3.836
99905W        W63662   3.251   3.279  10.154
99906W        W63663  20.092  24.998  14.778
99907W        W63664  13.679   6.891   0.299
99908W        W63665   5.376  23.028   4.731
99909W        W63666  39.053  23.099  14.947
99910W        W63667  30.600  22.018  10.986
99911W        W63668  24.657  11.141  11.484
99912W        W63669  35.051  28.441  10.140
99913W        W63670   7.881  34.400   4.188
99914W        W63671  18.220  14.111   3.791
99915W        W63672  25.018  42.904   0.436
99916W        W63673  21.569  14.307   1.715
99917W        W63674   2.279  10.790   4.205
99918W        W63675  22.158   1.478  11.103
99919W        W63676  25.505  21.562  12.823
99920W        W63677   7.840  22.581   3.801
99921W        W63678  30.413  20.585   3.656
99922W        W63679  36.494   3.340  10.403
99923W        W63680  29.990  42.348   1.369
99924W        W63681  16.678  20.268   3.232
99925W        W63682   1.427  37.500   0.332
99926W        W63683  13.304   3.899  10.954
99927W        W63684  16.780  33.959  14.772
99928W        W63685  32.929   3.396   2.816
99929W        W63686   3.908  31.951  11.101
99930W        W63687  44.308  30.019  13.547
99931W        W63688  16.275  13.155  14.504
99932W        W63689  18.637  13.678  13.527
99933W        W63690  16.138   0.758  12.398
99934W        W63691  25.192   4.259   0.468
99935W        W63692  35.010  25.706  12.540
99936W        W63693  20.130  14.274   5.704
99937W        W63694   7.376   9.705  10.458
99938W        W63695  31.440  24.050   4.147
99939W        W63696  23.594  41.459  13.975
99940W        W63697  20.745  17.263   0.296
99941W        W63698  40.367  34.515  11.411
99942W        W63699  35.065  17.715   0.395
99943W        W63700   6.250  18.143  13.962
99944W        W63701  38.974  10.173   0.416
99945W        W63702  44.271  27.607  14.388
99946W        W63703  37.979  12.262  10.643
99947W        W63704  14.177   9.799  13.815
99948W        W63705  31.483  27.028   0.348
99949W        W63706  29.438  26.482   3.714
99950W        W63707  24.169  34.120   1.888
99951W        W63708   6.744   7.416  11.407
99952W        W63709   0.918  20.744   4.627
99953W        W63710  43.478  42.321  12.538
99954W        W63711  11.841   3.797  13.409
99955W        W63712  13.746  40.981  10.936
99956W        W63713  15.254  31.640  14.958
99957W        W63714   6.344  33.425  13.415
99958W        W63715  23.011  15.700  12.062
99959W        W63716  41.494   1.894  10.511
99960W        W63717  14.825  12.763  12.831
99961W        W63718  36.548  17.746   4.209
99962W        W63719  11.134   7.286  13.484
99963W        W63720   4.204  10.823  13.940
99964W        W63721  22.039  21.056  13.992
99965W        W63722  35.573  34.516   2.809
99966W        W63723  36.858  22.094  12.496
99967W        W63724  28.534  26.075  13.362
99968W        W63725  23.194   4.314  13.017
99969W        W63726  22.741  22.183   1.712
99970W        W63727  33.985   3.297  14.769
99971W        W63728  33.102  29.573   0.853
99972W        W63729  34.049  17.655   4.655
99973W        W63730  21.588  18.136   1.914
99974W        W63731   6.854  36.099   1.924
99975W        W63732   4.851  26.957  14.369
99976W        W63733  17.130  27.678   3.688
99977W        W63734   8.693  36.013   4.678
99978W        W63735  18.098   1.873   1.734
99979W        W63736  16.114  36.372  14.494
99980W        W63737  28.951  24.003  11.900
99981W        W63738  28.143  38.561   0.756
99982W        W63739  11.372  38.001   2.810
99983W        W63740  27.051   4.719  13.911
99984W        W63741  20.592   6.414   4.145
99985W        W63742  33.111  38.005  12.095
99986W        W63743  27.181  36.031  13.907
99987W        W63744   5.880  29.551  13.026
99988W        W63745  22.717  11.165   2.857
99989W        W63746  42.912  41.041  13.451
99990W        W63747  39.455  28.080   9.953
99991W        W63748  32.975  23.108   3.280
99992W        W63749  33.518  23.599  14.964
99993W        W63750  29.565   6.230   5.309
99994W        W63751  25.012   1.968  12.511
99995W        W63752   2.351  23.612  13.353
99996W        W63753  27.009   5.291   0.860
99997W        W63754  22.065  27.037   4.213
99998W        W63755  12.649  22.050  11.884
99999W        W63756  25.168  38.041   0.790
    0W        W63757  32.029  38.061  12.988
    1W        W63758   6.265   0.772  14.832
    2W        W63759  16.700  20.620  13.372
    3W        W63760   2.472   9.652   0.265
    4W        W63761   6.912  22.645   3.187
    5W        W63762   3.280  42.010  11.489
    6W        W63763  14.730  27.596   4.751
    7W        W63764  29.173   8.329  12.983
    8W        W63765  11.231  33.555   2.214
    9W        W63766  40.995  16.116   3.853
   10W        W63767  38.519  41.360   3.262
   11W        W63768  33.419  19.745  14.943
   12W        W63769  21.720  29.529  12.956
   13W        W63770  27.669  12.793  12.369
   14W        W63771   3.349   3.814   0.839
   15W        W63772  20.690  13.327  12.432
   16W        W63773   0.788  22.035  13.821
   17W        W63774  37.851  22.217   3.844
   18W        W63775  32.426  29.609  14.939
   19W        W63776  35.419   1.413   2.327
   20W        W63777   8.675  31.079   1.798
   21W        W63778  20.644  30.948  13.876
   22W        W63779  17.297  20.594  11.892
   23W        W63780  21.676  22.096  14.784
   24W        W63781  21.714  18.644   0.463
   25W        W63782  24.226  38.453  12.565
   26W        W63783   3.264  37.555  13.795
   27W        W63784  21.039  34.483   2.726
   28W        W63785  27.543  26.670  12.085
   29W        W63786  34.955  34.550   3.208
   30W        W63787   4.766   6.352   4.772
   31W        W63788   2.955   5.842  13.544
   32W        W63789  13.210   8.784  14.432
   33W        W63790  13.807  37.370  11.078
   34W        W63791  38.545  11.684   2.698
   35W        W63792   6.309   8.883   3.853
   36W        W63793  36.893  40.342   2.864
   37W        W63794  12.215  13.662  13.933
   38W        W63795  44.273  14.785  14.761
   39W        W63796  24.654  23.102   4.297
   40W        W63797  33.900  12.824   4.279
   41W        W63798  16.774  21.748   4.299
   42W        W63799   9.838  40.859   2.269
   43W        W63800  18.604  27.549   0.369
   44W        W63801  19.254  10.267  14.311
   45W        W63802  30.578   5.728  14.388
   46W        W63803  15.582   2.811   1.700
   47W        W63804  15.739  20.059  12.950
   48W        W63805   0.860  40.424   4.709
   49W        W63806  25.075  27.069   3.199
   50W        W63807  39.011   9.174  13.991
   51W        W63808  20.158  35.603   1.211
   52W        W63809   2.338  23.622   3.794
   53W        W63810  26.063   6.252   3.229
   54W        W63811  25.610  36.026   2.361
   55W        W63812  32.460  21.741   0.280
   56W        W63813  18.682  42.520  14.927
   57W        W63814  38.492  12.790   1.228
   58W        W63815   0.284  16.092   1.314
   59W        W63816  29.605  30.924   3.727
   60W        W63817  37.985  21.248  12.435
   61W        W63818  13.249  40.949   4.654
   62W        W63819   0.957  32.565   0.736
   63W        W63820  38.333   4.796   2.802
   64W        W63821  16.787  36.588   1.265
   65W        W63822  14.751   0.393   5.269
   66W        W63823   1.843  26.578  12.857
   67W        W63824  31.458  34.533  12.036
   68W        W63825  33.055  31.596  14.297
   69W        W63826   7.828  19.691  11.607
   70W        W63827  34.930  23.572  12.564
   71W        W63828  39.370  37.498  14.369
   72W        W63829   1.294  28.174   3.662
   73W        W63830   1.425  42.285  11.601
   74W        W63831  15.191   8.291   4.655
   75W        W63832   1.734   6.792   0.821
   76W        W63833   1.251  21.582  11.859
   77W        W63834  31.427   2.934   0.413
   78W        W63835  37.577  29.070  13.930
   79W        W63836   1.274  15.663  14.330
   80W        W63837  33.599  26.643  11.517
   81W        W63838  19.714   0.912   3.739
   82W        W63839  40.017  23.044   4.272
   83W        W63840   1.856  34.080   4.233
   84W        W63841  42.347   0.488  10.609
   85W        W63842  42.802  24.146  14.994
   86W        W63843  36.842  26.576   2.405
   87W        W63844   3.297  17.099   4.814
   88W        W63845  15.764   9.781  10.634
   89W        W63846  21.213  23.694   1.282
   90W        W63847  43.337  33.438  14.514
   91W        W63848   8.812  11.664  10.493
   92W        W63849   0.887  35.481  12.969
   93W        W63850  27.173  23.057   0.420
   94W        W63851  29.506  39.553   0.946
   95W        W63852  42.304   6.401   0.902
   96W        W63853  10.673   2.865  14.314
   97W        W63854  43.402   1.477  14.981
   98W        W63855  31.942  43.469  11.417
   99W        W63856  29.585  31.119  10.960
  100W        W63857  36.534  38.344   3.280
  101W        W63858  33.554   3.737  13.365
  102W        W63859  39.862  28.627  12.434
  103W        W63860  13.317  25.171  10.548
  104W        W63861  17.126  40.023  10.898
  105W        W63862  32.902  39.478  11.057
  106W        W63863   5.310  18.271   3.740
  107W        W63864   4.298  21.631  12.029
  108W        W63865  17.557  14.265   3.684
  109W        W63866  32.613   8.332   2.757
  110W        W63867  23.685  34.994  11.056
  111W        W63868  43.434  15.265   2.309
  112W        W63869  40.989  32.397  11.094
  113W        W63870   9.217   1.308   2.738
  114W        W63871  33.565  32.487  11.506
  115W        W63872   1.737  16.760  11.891
  116W        W63873  11.762  32.074   0.870
  117W        W63874  41.794  13.198   1.404
  118W        W63875  35.442  31.403   2.836
  119W        W63876  32.453   0.487  11.925
  120W        W63877   1.946   4.820   0.798
  121W        W63878  36.384  11.775  12.964
  122W        W63879  34.514  13.630  13.994
  123W        W63880  40.823  40.314   3.351
  124W        W63881   4.413  11.644  13.371
  125W        W63882  22.240  29.054  12.943
  126W        W63883  22.053  34.502  14.990
  127W        W63884   8.831  17.077   0.366
  128W        W63885  10.371  30.028  12.356
  129W        W63886  24.064  43.843   3.223
  130W        W63887   4.339  24.069  14.340
  131W        W63888   9.800  36.443  11.574
  132W        W63889  12.656  44.862  14.004
  133W        W63890   6.323   4.420  11.966
  134W        W63891  22.524  19.088   3.266
  135W        W63892  32.993  17.068   3.747
  136W        W63893  14.594  43.807   2.182
  137W        W63894  25.684  33.020  12.922
  138W        W63895  14.779   3.778   3.762
  139W        W63896  20.102  26.683   1.741
  140W        W63897  10.752   1.252  11.065
  141W        W63898  21.713   9.692   2.792
  142W        W63899  17.566  16.149  12.449
  143W        W63900  34.898  42.433   0.414
  144W        W63901  13.165  15.102   3.790
  145W        W63902   5.305   5.903   0.739
  146W        W63903  40.940  41.892  11.100
  147W        W63904   1.797  25.210  13.803
  148W        W63905   7.789  28.937  11.932
  149W        W63906  39.407  44.358  13.325
  150W        W63907   6.820   4.300  13.974
  151W        W63908   5.337  22.074  13.473
  152W        W63909  21.526   1.381   2.306
  153W        W63910  32.085  34.489  12.844
  154W        W63911  18.076   0.401   0.732
  155W        W63912  24.661  14.614   1.370
  156W        W63913  13.640  43.306   9.658
  157W        W63914  28.071  29.443   4.607
  158W        W63915  22.574   2.330  10.155
  159W        W63916  12.156   0.404  10.640
  160W        W63917  12.719  19.245  13.429
  161W        W63918  25.571   1.840   0.372
  162W        W63919  14.680  14.115  12.456
  163W        W63920  33.953  27.156   2.343
  164W        W63921  27.473  29.165   2.288
  165W        W63922   1.301   9.758   4.698
  166W        W63923  35.025  12.168  13.034
  167W        W63924  28.156  41.850   1.816
  168W        W63925  30.113  36.005   1.722
  169W        W63926  36.350   4.316  13.028
  170W        W63927  12.633   4.354  11.469
  171W        W63928  21.616   8.851  12.422
  172W        W63929   6.730  20.214   2.407
  173W        W63930  35.370  34.017  11.079
  174W        W63931   9.306   3.954  11.027
  175W        W63932  16.591  25.590  11.932
  176W        W63933  31.499   7.706  14.980
  177W        W63934  41.522  28.592   3.864
  178W        W63935  32.590  24.207  12.016
  179W        W63936  35.427   8.831   3.701
  180W        W63937  11.285  25.695  10.923
  181W        W63938  30.104  12.153   1.444
  182W        W63939  26.071  17.110   0.864
  183W        W63940  22.581   8.190   1.879
  184W        W63941  19.092  19.568   4.614
  185W        W63942  35.525  20.630   2.888
  186W        W63943  11.779  12.674   1.872
  187W        W63944  43.470  43.277  14.904
  188W        W63945  18.595  20.643  11.551
  189W        W63946  22.129  13.291  12.485
  190W        W63947  28.461  18.128  14.426
  191W        W63948   8.343  13.123   0.422
  192W        W63949   7.379  20.583   0.959
  193W        W63950   9.365   2.840   2.320
  194W        W63951  43.868   8.673   0.348
  195W        W63952  18.177  24.704  11.899
  196W        W63953   8.655  12.651  14.767
  197W        W63954  31.531  18.723  12.471
  198W        W63955  21.102   5.215   1.417
  199W        W63956   3.237  29.121   2.308
  200W        W63957  18.591  29.648   1.321
  201W        W63958  27.529  40.482  11.956
  202W        W63959  25.685   8.363  10.548
  203W        W63960  33.993  29.505  11.099
  204W        W63961   5.901  11.169  14.794
  205W        W63962  37.859  27.160   0.401
  206W        W63963  34.873  14.706  12.541
  207W        W63964   0.470   3.230  13.976
  208W        W63965  23.711  41.345  11.027
  209W        W63966  18.121  44.762  13.455
  210W        W63967  21.240   0.926   5.307
  211W        W63968  37.558  17.630   4.772
  212W        W63969  42.399  22.535  14.386
  213W        W63970  44.850  15.671  13.863
  214W        W63971  38.912  17.237  11.568
  215W        W63972  36.480  24.698   3.682
  216W        W63973  23.713  21.125  11.491
  217W        W63974  29.638  30.479   0.297
  218W        W63975  17.248   3.754  13.951
  219W        W63976  40.810  37.379   3.309
  220W        W63977  10.262  32.066   5.147
  221W        W63978  31.405   9.800   2.899
  222W        W63979  16.119  24.718  13.452
  223W        W63980  29.144   0.326  13.354
  224W        W63981   2.915  25.133   4.768
  225W        W63982   6.760  38.855  13.432
  226W        W63983  20.248  30.001   3.277
  227W        W63984   4.215   0.819  11.889
  228W        W63985  33.988  36.496   3.319
  229W        W63986  34.918  11.703   4.701
  230W        W63987  19.058  26.135   3.277
  231W        W63988   4.833   7.812   2.230
  232W        W63989   8.274  39.956   1.373
  233W        W63990   9.177  23.144  10.918
  234W        W63991  33.436  26.089   1.869
  235W        W63992  29.602  38.946  13.380
  236W        W63993  33.583  43.375  11.465
  237W        W63994   6.337  29.457  10.610
  238W        W63995  29.154  32.620  11.902
  239W        W63996  22.630  44.793   0.300
  240W        W63997  40.923  29.121   3.631
  241W        W63998   0.937  23.517   4.347
  242W        W63999  39.355   6.397   4.728
  243W        W64000  22.039   6.186  14.008
  244W        W64001  38.339  21.192   0.260
  245W        W64002   7.832   7.791   0.334
  246W        W64003  27.472  21.578  11.596
  247W        W64004   7.404  18.297   1.293
  248W        W64005  40.842  23.701   1.400
  249W        W64006  12.309  25.595   1.226
  250W        W64007  33.026  42.516  11.974
  251W        W64008  25.630   7.665  12.384
  252W        W64009   5.701   5.202  12.537
  253W        W64010   5.869  22.707   2.893
  254W        W64011  16.079  21.131  11.480
  255W        W64012  32.527  11.139  10.939
  256W        W64013  38.861  10.367  10.025
  257W        W64014  33.036   2.259   2.368
  258W        W64015   7.308  28.065  13.021
  259W        W64016  37.563   2.729  12.527
  260W        W64017  26.191  37.483   3.688
  261W        W64018  18.780  23.070   0.408
  262W        W64019  16.227  41.898   1.897
  263W        W64020  31.981  27.127   4.759
  264W        W64021  39.395   1.940   3.297
  265W        W64022  25.535  30.941   0.370
  266W        W64023   6.274  39.511  10.629
  267W        W64024  21.551   7.786  13.891
  268W        W64025  39.970  12.187  13.451
  269W        W64026  16.313  14.678  12.060
  270W        W64027  40.053  10.195  11.521
  271W        W64028  42.953  32.003   2.361
  272W        W64029  22.666  18.600   2.859
  273W        W64030  23.665  36.041   2.711
  274W        W64031   8.802  25.691   2.327
  275W        W64032  36.355  33.029  12.351
  276W        W64033  19.549  16.079  11.504
  277W        W64034  20.688  22.195   3.813
  278W        W64035  17.205  11.842   5.106
  279W        W64036  33.431   1.474   0.265
  280W        W64037  14.331  22.221   3.345
  281W        W64038   1.828  36.358   3.847
  282W        W64039  23.504  21.188  11.067
  283W        W64040  19.047   9.337  13.456
  284W        W64041  30.122  20.168  12.395
  285W        W64042  42.497  42.524   2.396
  286W        W64043  43.513  39.936  14.432
  287W        W64044  40.319   6.260   2.785
  288W        W64045  40.543  36.448  14.489
  289W        W64046  37.409  15.781   0.912
  290W        W64047  20.120  40.884  12.020
  291W        W64048  31.467   1.750  14.962
  292W        W64049   5.855  29.974   0.355
  293W        W64050  44.342   0.904  10.416
  294W        W64051  39.538   0.972   1.699
  295W        W64052  18.761  16.751   3.175
  296W        W64053  23.092  36.009   4.243
  297W        W64054  30.539   3.910  14.828
  298W        W64055  19.143  38.344  14.965
  299W        W64056  40.518  17.768   3.737
  300W        W64057  19.556  31.917   4.647
  301W        W64058   8.747  28.182   1.827
  302W        W64059  20.579  26.481   2.789
  303W        W64060  44.797  21.033   4.309
  304W        W64061  22.118  33.905  11.862
  305W        W64062   4.347  32.107   2.228
  306W        W64063  37.440  22.096   4.605
  307W        W64064   8.273  38.888  10.527
  308W        W64065  42.347  25.215   2.277
  309W        W64066  25.179  24.211   1.824
  310W        W64067  32.955  20.581  11.124
  311W        W64068   0.494  44.850  13.024
  312W        W64069  39.861  23.532  12.484
  313W        W64070   0.355  11.367  13.435
  314W        W64071  38.854  31.056  14.014
  315W        W64072  44.879  33.528  14.303
  316W        W64073  31.405  12.744   1.875
  317W        W64074  29.074  28.058   0.819
  318W        W64075  42.012  33.883   0.408
  319W        W64076  38.908  18.662  13.842
  320W        W64077  19.135   5.749   3.679
  321W        W64078  36.086  38.353  13.030
  322W        W64079   1.901   3.305   0.416
  323W        W64080  42.975  31.150   2.256
  324W        W64081   7.194  18.062  14.350
  325W        W64082  18.129  33.083   1.449
  326W        W64083   1.741  25.692   4.708
  327W        W64084   7.824  41.902   1.759
  328W        W64085  29.621  12.222  11.481
  329W        W64086  15.092  36.968  13.403
  330W        W64087  38.022  36.077  14.026
  331W        W64088   9.711  37.431  12.939
  332W        W64089  29.542  11.738   1.230
  333W        W64090  43.290  26.062   2.696
  334W        W64091   7.725  23.160  13.021
  335W        W64092  42.282  24.522  11.920
  336W        W64093  42.850  10.771   0.387
  337W        W64094   1.376   9.724  14.880
  338W        W64095   1.951   4.342   4.349
  339W        W64096  14.744  11.680   3.635
  340W        W64097  19.693  12.669   2.410
  341W        W64098  11.865  16.715  10.522
  342W        W64099  25.548  30.082  11.554
  343W        W64100   2.782  12.159   2.223
  344W        W64101  22.165  34.057   2.859
  345W        W64102  25.006   0.428   4.199
  346W        W64103  23.650  31.978   4.234
  347W        W64104  43.341   2.888   2.834
  348W        W64105  30.614  19.613  12.383
  349W        W64106  44.286   3.859   3.750
  350W        W64107  23.566  15.140  11.460
  351W        W64108  23.592  33.108   3.734
  352W        W64109   5.742   7.701   3.716
  353W        W64110  44.425   6.806   0.331
  354W        W64111   2.809   1.333  12.045
  355W        W64112   6.802  38.943   0.874
  356W        W64113   5.307  24.134  14.322
  357W        W64114  42.314  16.301  12.526
  358W        W64115  38.978  31.438   2.272
  359W        W64116   5.867  22.112   2.738
  360W        W64117   4.391  13.798   2.892
  361W        W64118  12.711  34.428  11.515
  362W        W64119  14.785  34.492  11.501
  363W        W64120  41.332  26.056  11.958
  364W        W64121  19.135   9.323  13.806
  365W        W64122  17.653   0.767   4.740
  366W        W64123  36.467  16.715   0.859
  367W        W64124  21.667  13.675   1.776
  368W        W64125  15.251  18.280  13.035
  369W        W64126  17.269  44.937   1.750
  370W        W64127  30.947   0.747   2.774
  371W        W64128   6.411  39.993  11.084
  372W        W64129   8.195  18.224   9.479
  373W        W64130  31.460  25.634  13.356
  374W        W64131   8.847  13.311  12.580
  375W        W64132  42.947  19.111   1.338
  376W        W64133  30.917  35.361   2.324
  377W        W64134  29.987  14.604  11.948
  378W        W64135  17.167   5.437  10.508
  379W        W64136  24.087  29.535  11.122
  380W        W64137  15.162  15.658   0.323
  381W        W64138  41.304   4.437  12.826
  382W        W64139  29.606  29.032  13.981
  383W        W64140  14.598   9.370  12.936
  384W        W64141  13.225  27.500   4.783
  385W        W64142  19.066  35.025   0.813
  386W        W64143  35.866   7.678   4.316
  387W        W64144   9.674  36.948  11.070
  388W        W64145  17.778  18.264  12.984
  389W        W64146   4.770  27.531  11.602
  390W        W64147  11.283  17.289  14.935
  391W        W64148   3.929  24.079  11.477
  392W        W64149  19.678  23.233  12.356
  393W        W64150  26.702  23.610  14.363
  394W        W64151  35.512  36.878  10.453
  395W        W64152  37.891  36.464  14.343
  396W        W64153   3.352  21.049   2.803
  397W        W64154  44.838  42.991  14.859
  398W        W64155  36.537  32.431   1.211
  399W        W64156  44.925  39.054   1.221
  400W        W64157  34.966  33.538   4.821
  401W        W64158   1.254  18.766  11.372
  402W        W64159  34.501   5.789   1.440
  403W        W64160  18.693  10.840   2.699
  404W        W64161  18.211  20.153  12.426
  405W        W64162   7.385  11.667   4.182
  406W        W64163  32.944   9.869  14.443
  407W        W64164  17.200  15.156  13.346
  408W        W64165  19.268  35.407  12.578
  409W        W64166   6.804   0.936  11.863
  410W        W64167   8.349  18.075   4.672
  411W        W64168  27.060  44.827   2.400
  412W        W64169   3.289  43.929   2.735
  413W        W64170   7.667  27.574   4.678
  414W        W64171   6.321  24.500  13.924
  415W        W64172   9.287  30.164   0.904
  416W        W64173   1.953  32.390   0.893
  417W        W64174  20.183  30.070  14.819
  418W        W64175   6.383  24.607   3.703
  419W        W64176  41.513  28.931   0.890
  420W        W64177  35.421   1.943   1.329
  421W        W64178  40.919  28.675   1.694
  422W        W64179  15.621  11.311   2.698
  423W        W64180  28.042   0.373   3.767
  424W        W64181  41.862  35.881  11.033
  425W        W64182  30.153  39.555   3.750
  426W        W64183  23.085  36.486   3.340
  427W        W64184  27.686  32.432  14.873
  428W        W64185  13.269  25.159  13.531
  429W        W64186  27.446  13.224  11.441
  430W        W64187  35.401  36.984   0.876
  431W        W64188   6.724  30.508  14.023
  432W        W64189  40.987  16.572  11.512
  433W        W64190   5.857  39.375   9.997
  434W        W64191  12.267  38.829   3.645
  435W        W64192   7.889  21.018  13.857
  436W        W64193  41.873  41.522   4.623
  437W        W64194  44.826  43.980  12.354
  438W        W64195  41.461  29.450  12.867
  439W        W64196   0.369  16.574  10.971
  440W        W64197  39.874   4.336   0.966
  441W        W64198  38.001   5.816  12.348
  442W        W64199  39.888  39.410  13.373
  443W        W64200  16.231  21.725   0.475
  444W        W64201  28.658  12.308  11.936
  445W        W64202   6.397  43.292   2.232
  446W        W64203   8.284  11.685  12.558
  447W        W64204  41.965   8.231  13.982
  448W        W64205  23.589  25.635   3.807
  449W        W64206  24.502   8.826  14.461
  450W        W64207  42.378  26.049   4.160
  451W        W64208   2.772  35.551  13.925
  452W        W64209  39.352  25.163  12.350
  453W        W64210   2.910  42.432  13.895
  454W        W64211  37.955  15.088  10.930
  455W        W64212   4.410  20.563  10.421
  456W        W64213  22.660  37.488   2.408
  457W        W64214  35.015  11.814  12.406
  458W        W64215   5.835  20.165   3.184
  459W        W64216  12.660  21.022  10.957
  460W        W64217  40.332  21.730  10.548
  461W        W64218  20.158  11.314  14.374
  462W        W64219  11.699  24.093  10.523
  463W        W64220  10.781   6.858   4.227
  464W        W64221  31.041  10.648   2.283
  465W        W64222  27.638  16.213  11.017
  466W        W64223  31.899  13.630   0.412
  467W        W64224  26.700  41.369  14.006
  468W        W64225  21.587  21.101   1.918
  469W        W64226  14.775  12.682   0.308
  470W        W64227  11.273  18.285  12.531
  471W        W64228  17.163   7.174  12.559
  472W        W64229   4.842  34.388  12.460
  473W        W64230  33.938  37.531   4.785
  474W        W64231  27.973  29.541   1.930
  475W        W64232  44.486  22.104  12.481
  476W        W64233  17.713  23.994  13.321
  477W        W64234  20.145   1.450   2.245
  478W        W64235  13.669  24.635   3.346
  479W        W64236  23.018   4.310   1.914
  480W        W64237  18.176   4.399  13.330
  481W        W64238  23.635   5.417  13.955
  482W        W64239  17.109  30.032   4.260
  483W        W64240  35.559  27.676   2.885
  484W        W64241   3.882  15.804   0.325
  485W        W64242  38.826  41.026  14.979
  486W        W64243  36.859  42.455   2.313
  487W        W64244  19.718  43.507  13.891
  488W        W64245  28.439  18.254   4.779
  489W        W64246  38.418  23.661   1.303
  490W        W64247  14.315  13.310   0.876
  491W        W64248   7.850  20.073   1.826
  492W        W64249  41.520  32.942   2.209
  493W        W64250  40.533  17.594  12.901
  494W        W64251  33.041   1.480   2.853
  495W        W64252   5.401  17.239  13.885
  496W        W64253  42.302  14.765  14.973
  497W        W64254  36.562   2.966   0.301
  498W        W64255  15.698  17.624  12.956
  499W        W64256  15.150   4.356   0.895
  500W        W64257  32.416  35.393   2.296
  501W        W64258   7.264  12.750  14.421
  502W        W64259  35.074  40.339   4.794
  503W        W64260  25.032  11.649  11.994
  504W        W64261  32.116   7.884   0.907
  505W        W64262  28.652  31.964   3.766
  506W        W64263  38.840   5.208   2.876
  507W        W64264   0.343  42.027  13.971
  508W        W64265  25.022  27.101  12.009
  509W        W64266  16.313  18.598  10.017
  510W        W64267  38.557   3.735  13.854
  511W        W64268  38.403   7.823  12.894
  512W        W64269  14.325   6.384  13.942
  513W        W64270  10.779  25.557   2.246
  514W        W64271  23.540  31.125  12.834
  515W        W64272   4.229  15.167   1.868
  516W        W64273  28.033  36.473   1.312
  517W        W64274  22.117  43.365   2.772
  518W        W64275  43.383  14.658   3.243
  519W        W64276  26.589  21.543   2.782
  520W        W64277   7.386  36.079  12.004
  521W        W64278  27.170  23.167   2.855
  522W        W64279  16.240  30.093  13.327
  523W        W64280   4.827   6.332  14.454
  524W        W64281  42.998  32.007  14.371
  525W        W64282  37.401  39.988  11.919
  526W        W64283  17.113  24.706  14.398
  527W        W64284   4.329  23.588   4.143
  528W        W64285  23.027  22.533  12.372
  529W        W64286  44.286  26.110  11.071
  530W        W64287  33.067  34.068  11.965
  531W        W64288  24.544  34.454  14.366
  532W        W64289   1.427  36.586  14.995
  533W        W64290  13.344  17.682  13.513
  534W        W64291  42.323  30.964   0.382
  535W        W64292   3.801  35.460  10.465
  536W        W64293  15.171  32.112  12.941
  537W        W64294  25.478  30.426  11.954
  538W        W64295  28.497  14.701  11.118
  539W        W64296  32.460  13.152  13.058
  540W        W64297  30.638  12.218  10.421
  541W        W64298  12.805  37.459  11.503
  542W        W64299  43.885   9.736   2.245
  543W        W64300   3.240  39.929  11.587
  544W        W64301  42.935  40.350  11.883
  545W        W64302  42.867  13.650   4.118
  546W        W64303   7.331  31.478   2.355
  547W        W64304   9.828   0.819   0.483
  548W        W64305  11.798  11.793  14.012
  549W        W64306  43.912  28.631   4.801
  550W        W64307   5.897  25.003  14.955
  551W        W64308  44.302  42.855  11.553
  552W        W64309  42.504  11.732   3.236
  553W        W64310  11.314  16.612   2.238
  554W        W64311  34.565  40.837  12.013
  555W        W64312  16.723  12.838  12.393
  556W        W64313  32.987  13.736  10.584
  557W        W64314  34.903  31.927  14.483
  558W        W64315  15.679   6.356   4.609
  559W        W64316  12.200  15.639   2.741
  560W        W64317  44.992  22.714  12.830
  561W        W64318  43.925  42.949   1.274
  562W        W64319  19.623  17.777   2.818
  563W        W64320   7.900   0.803   3.161
  564W        W64321  29.651  13.727  14.492
  565W        W64322  38.075  23.989   1.337
  566W        W64323   7.380  25.487   4.798
  567W        W64324  12.809   7.887  10.890
  568W        W64325  38.521   6.378  12.554
  569W        W64326  41.976  21.528   3.862
  570W        W64327  36.419   0.318  12.992
  571W        W64328   1.405  21.559   1.437
  572W        W64329  16.252  40.931   4.299
  573W        W64330  24.192   9.242  13.384
  574W        W64331  11.352  14.177   3.311
  575W        W64332  28.571  32.582   2.692
  576W        W64333   5.203  38.837   0.781
  577W        W64334   4.811  26.989   1.907
  578W        W64335  43.953   1.820   0.401
  579W        W64336  40.819   2.467   3.642
  580W        W64337  14.225  34.896   0.901
  581W        W64338   9.810  34.491   1.843
  582W        W64339  22.626   9.247  14.867
  583W        W64340  12.347  34.943  12.414
  584W        W64341   6.677   0.876   2.225
  585W        W64342   5.705   6.861  14.276
  586W        W64343  32.580  27.553   1.880
  587W        W64344  41.012  36.881  10.551
  588W        W64345  34.517   6.837   0.476
  589W        W64346  30.989  15.324  10.419
  590W        W64347  21.580  30.000   3.335
  591W        W64348  36.434   7.696   1.273
  592W        W64349  32.416  28.461   5.622
  593W        W64350  27.617   2.262   1.232
  594W        W64351  25.627  20.605  14.507
  595W        W64352   4.272  32.900  13.418
  596W        W64353  13.817  35.981   4.315
  597W        W64354  16.228  27.454  13.367
  598W        W64355  23.530  32.040  13.987
  599W        W64356   9.394   9.768  13.982
  600W        W64357   0.923  39.491  11.475
  601W        W64358   5.693  44.909   2.416
  602W        W64359  39.989  28.614   4.751
  603W        W64360  23.625  43.778   0.792
  604W        W64361  41.313   1.256   2.209
  605W        W64362   7.335  30.589  11.931
  606W        W64363  40.917  32.040  10.505
  607W        W64364   4.394  33.549   9.982
  608W        W64365  41.830  42.351   4.773
  609W        W64366  29.070   6.862   1.298
  610W        W64367  43.857  42.778  13.468
  611W        W64368  28.485  14.673  12.907
  612W        W64369  40.469  27.570   4.187
  613W        W64370  38.333  42.501  14.865
  614W        W64371  33.003   7.724  14.799
  615W        W64372  26.064  26.082   4.701
  616W        W64373  32.044   3.457  11.602
  617W        W64374  36.925  31.634  13.364
  618W        W64375  33.415  35.461   4.173
  619W        W64376  39.954  34.041   1.289
  620W        W64377  39.541   7.748   0.959
  621W        W64378  14.660   4.894  13.352
  622W        W64379  31.472  24.140   0.876
  623W        W64380  43.948  41.925   0.751
  624W        W64381  10.352  13.154  11.082
  625W        W64382   2.830  19.676  14.893
  626W        W64383  36.456  22.193  12.369
  627W        W64384   9.242  36.967   3.199
  628W        W64385  44.307   7.211  11.557
  629W        W64386  28.598  29.614  12.433
  630W        W64387   2.237   2.353   4.692
  631W        W64388   4.750  38.883   4.751
  632W        W64389  44.289   2.407   2.203
  633W        W64390  29.149  31.508   1.320
  634W        W64391   9.371   0.477   1.740
  635W        W64392  31.916  30.651  14.936
  636W        W64393  26.674  16.222  13.363
  637W        W64394   4.813  44.979   2.412
  638W        W64395   9.185   6.287   2.332
  639W        W64396  12.159   6.905  14.794
  640W        W64397  10.358  20.542  13.951
  641W        W64398   7.699  18.115  14.380
  642W        W64399  23.573  41.338   3.815
  643W        W64400  34.953  37.936  13.342
  644W        W64401   0.371  37.464   2.377
  645W        W64402  42.471  13.281   4.709
  646W        W64403   9.826  23.018  11.859
  647W        W64404  19.150   9.661  14.496
  648W        W64405  12.337  28.174   1.707
  649W        W64406  44.814   0.847   0.856
  650W        W64407  20.728  13.824   4.233
  651W        W64408  19.543  43.506  13.395
  652W        W64409   4.317   2.373   3.154
  653W        W64410  43.423  37.894   2.280
  654W        W64411  38.947   2.819   2.231
  655W        W64412  35.413   3.409  14.310
  656W        W64413  26.466  13.185  12.392
  657W        W64414  23.010   3.731  11.911
  658W        W64415  10.657  12.274   2.219
  659W        W64416   3.430  30.970   2.872
  660W        W64417  14.141  29.635  11.895
  661W        W64418  30.928  23.015  10.930
  662W        W64419  18.193  33.567  11.601
  663W        W64420  39.548  18.280   0.247
  664W        W64421  25.572  17.190  13.546
  665W        W64422  42.371  13.624   3.354
  666W        W64423  31.468   7.288  11.082
  667W        W64424  42.307  27.970  10.963
  668W        W64425   0.841   9.874   1.740
  669W        W64426  30.984   9.854   4.681
  670W        W64427  20.073  28.474  10.516
  671W        W64428   5.194  15.728   0.289
  672W        W64429  13.350  43.308   4.198
  673W        W64430  35.030  27.632   1.916
  674W        W64431  18.243  15.581  10.553
  675W        W64432  28.680   9.763  12.516
  676W        W64433   4.850   2.409  14.014
  677W        W64434  24.556  27.673  13.931
  678W        W64435  19.626  23.217  11.895
  679W        W64436  16.772  22.696  14.767
  680W        W64437   9.775  14.198   0.730
  681W        W64438  12.679  42.311   0.904
  682W        W64439  11.217  13.650  14.821
  683W        W64440  21.240   8.753  13.386
  684W        W64441  31.590  29.536  10.598
  685W        W64442  32.512  32.140   3.226
  686W        W64443  44.925  10.775   1.444
  687W        W64444   8.793  40.459   1.285
  688W        W64445  32.083  23.514  13.396
  689W        W64446  16.282   5.694  11.512
  690W        W64447  39.033   6.738   0.297
  691W        W64448  19.075  42.494   1.923
  692W        W64449  39.892  30.072  12.548
  693W        W64450  22.188   6.725  13.849
  694W        W64451  10.728   9.802  11.408
  695W        W64452  14.255  17.791  14.788
  696W        W64453   5.739  39.376   3.315
  697W        W64454  15.211  29.578  10.634
  698W        W64455  31.540  17.211  14.873
  699W        W64456   0.975  10.651   1.717
  700W        W64457   2.345  42.890  11.394
  701W        W64458  20.548  34.542   4.129
  702W        W64459  34.020  23.678  12.471
  703W        W64460   7.801   0.895  13.981
  704W        W64461  15.132  20.176  14.908
  705W        W64462  27.999  16.725  13.057
  706W        W64463  23.729  16.086  10.604
  707W        W64464  17.642  27.686   1.212
  708W        W64465  17.562  26.087  13.397
  709W        W64466  11.807  37.562   3.837
  710W        W64467   7.805  35.051   3.215
  711W        W64468  16.811   1.386  11.448
  712W        W64469   4.441  13.133   0.892
  713W        W64470  33.516  40.307  11.593
  714W        W64471   3.341  27.475   4.658
  715W        W64472  34.073  11.847   1.433
  716W        W64473   6.257  44.374   0.845
  717W        W64474   5.420  37.978  14.940
  718W        W64475  10.263   5.203  14.971
  719W        W64476  40.851   9.368  13.493
  720W        W64477  11.128  40.483   4.748
  721W        W64478   0.937   0.373   0.828
  722W        W64479  28.551  28.649  10.519
  723W        W64480  38.003  26.008   2.260
  724W        W64481  37.540   9.346   3.862
  725W        W64482  23.087  34.969   0.956
  726W        W64483  23.085  25.680  10.636
  727W        W64484  21.565  22.523   1.769
  728W        W64485  44.754  20.268   0.771
  729W        W64486   1.860  14.632  12.042
  730W        W64487  13.630  11.135  12.445
  731W        W64488  18.205  34.469   0.456
  732W        W64489  26.456   1.816  14.796
  733W        W64490  27.525   1.292   1.923
  734W        W64491  21.086  10.633  14.813
  735W        W64492  30.079  16.271  11.426
  736W        W64493   6.214   6.407  12.058
  737W        W64494   9.324  18.220   0.434
  738W        W64495  40.490   4.304  11.472
  739W        W64496  42.023  30.150   2.214
  740W        W64497   3.260  42.925  11.099
  741W        W64498  24.563  29.055  14.815
  742W        W64499   8.361  13.242  14.988
  743W        W64500  33.607   6.263   1.327
  744W        W64501  17.715   9.826  12.853
  745W        W64502  37.376   6.241   0.940
  746W        W64503  34.474   0.777  10.614
  747W        W64504  38.827  17.072  12.057
  748W        W64505  18.232  24.567  11.449
  749W        W64506  34.471  30.520  11.406
  750W        W64507  18.756  38.524  14.393
  751W        W64508  11.752  40.544   0.943
  752W        W64509  20.058   1.875   2.677
  753W        W64510  14.664   0.768  10.897
  754W        W64511  32.974  15.803  11.012
  755W        W64512  15.748  10.217  12.835
  756W        W64513  32.916  27.133  11.125
  757W        W64514  44.424   2.748  13.014
  758W        W64515  25.995  31.046  11.429
  759W        W64516   8.809  31.456   2.864
  760W        W64517  41.824   3.282   2.310
  761W        W64518  32.547  37.950   3.347
  762W        W64519  15.153  41.504  10.579
  763W        W64520  29.651   1.797  14.956
  764W        W64521   4.782  17.681   3.289
  765W        W64522   3.451  12.633  10.980
  766W        W64523   3.226  33.062  14.384
  767W        W64524   2.813   7.853   0.911
  768W        W64525   1.925  19.102  10.420
  769W        W64526  27.081   7.214   0.956
  770W        W64527  44.274  22.644   5.316
  771W        W64528  23.164  32.973   2.365
  772W        W64529   0.979  44.331  10.573
  773W        W64530  22.077  11.812  14.439
  774W        W64531   4.930  28.988  14.940
  775W        W64532   7.822  18.745  13.465
  776W        W64533  37.519  16.589  13.391
  777W        W64534  29.173  35.992  14.477
  778W        W64535   8.242   0.861   3.356
  779W        W64536   5.384  33.010  14.974
  780W        W64537  20.109  33.903  14.028
  781W        W64538  40.362  37.000  14.982
  782W        W64539  42.363  43.393   2.193
  783W        W64540  13.841  43.457   1.874
  784W        W64541   3.282  37.863   0.942
  785W        W64542  24.708   6.724  12.851
  786W        W64543   8.890  35.399   2.854
  787W        W64544  19.106  20.553   0.445
  788W        W64545  41.324  29.101  12.859
  789W        W64546  25.075  36.470  11.055
  790W        W64547  34.509  32.887  14.428
  791W        W64548  42.519   6.733   0.377
  792W        W64549  26.599   2.887  14.873
  793W        W64550  39.315  11.191   0.454
  794W        W64551  17.732   6.401  13.046
  795W        W64552   7.299  37.838   4.294
  796W        W64553   0.919   7.740  10.912
  797W        W64554  43.356  15.813   3.209
  798W        W64555  40.324  26.591   2.226
  799W        W64556  34.991  11.699  10.030
  800W        W64557  24.053  42.340   0.816
  801W        W64558  12.636   8.294  13.479
  802W        W64559   9.205  19.546  14.389
  803W        W64560  18.580   2.240  11.878
  804W        W64561  40.523   9.270   0.759
  805W        W64562  39.446  15.610   3.702
  806W        W64563   4.778  34.940   5.129
  807W        W64564  11.339  28.185   0.425
  808W        W64565  30.443  14.323  11.405
  809W        W64566  35.945   0.408  11.503
  810W        W64567  30.628   4.866   1.872
  811W        W64568  24.054  22.739  13.343
  812W        W64569  30.048   0.259   2.379
  813W        W64570  16.755  25.994   2.699
  814W        W64571  41.310  22.715   1.859
  815W        W64572  11.148  24.539   0.438
  816W        W64573  24.593   1.481  10.917
  817W        W64574  43.836  18.163   0.409
  818W        W64575   7.800  18.762   0.467
  819W        W64576   0.917   7.840  11.870
  820W        W64577  30.551  26.482   4.781
  821W        W64578  25.197   6.350   0.751
  822W        W64579  44.391  17.690  13.380
  823W        W64580   6.208  11.264  13.497
  824W        W64581  25.093  20.703  14.317
  825W        W64582  17.785   5.292  10.519
  826W        W64583  26.141  11.638  12.957
  827W        W64584  18.684  28.940  14.995
  828W        W64585  13.599  36.422  11.995
  829W        W64586  29.964   7.177  11.012
  830W        W64587  30.488   1.337   2.348
  831W        W64588  16.174  17.240  14.853
  832W        W64589   1.918  13.661   3.194
  833W        W64590  31.420  34.581   3.843
  834W        W64591  25.008  30.609   3.347
  835W        W64592  13.732  23.992   3.776
  836W        W64593  33.571  23.155   1.259
  837W        W64594  26.689  24.077  14.457
  838W        W64595   8.231  33.478  14.395
  839W        W64596  30.542  44.988  14.498
  840W        W64597   7.858  24.134  10.524
  841W        W64598   4.243   1.869   3.357
  842W        W64599  10.204  15.265  14.765
  843W        W64600  17.100   8.329   0.482
  844W        W64601   2.907  11.865   1.451
  845W        W64602  44.343  24.105   3.799
  846W        W64603  29.491  12.164   2.820
  847W        W64604   2.262   3.823  14.832
  848W        W64605  30.991  44.381   1.307
  849W        W64606  31.630  15.203   1.703
  850W        W64607  20.581  31.635  10.106
  851W        W64608  12.193  31.461  13.356
  852W        W64609  36.386  36.462  14.004
  853W        W64610  27.105   6.828  10.554
  854W        W64611   8.890  27.529  11.078
  855W        W64612   0.754  39.818  10.634
  856W        W64613  24.622  38.018  10.548
  857W        W64614  19.154  38.559  14.495
  858W        W64615  29.984  22.089  12.382
  859W        W64616  23.619  32.029  10.535
  860W        W64617  42.412  26.036  11.488
  861W        W64618  17.798   4.220   2.206
  862W        W64619  16.779  35.577   2.856
  863W        W64620  39.030  20.700  14.815
  864W        W64621  32.925  15.615  13.336
  865W        W64622  34.588   9.845   4.634
  866W        W64623  39.999  28.938   2.777
  867W        W64624  42.780  33.879  13.878
  868W        W64625  30.917   5.837  11.110
  869W        W64626  41.831  31.967   4.183
  870W        W64627  26.179   9.663  13.952
  871W        W64628   5.345  44.892   3.807
  872W        W64629  44.758  14.247  11.449
  873W        W64630   7.696  21.231   4.718
  874W        W64631  23.548   5.712   2.896
  875W        W64632  26.026  25.638   5.268
  876W        W64633  34.530  37.506   0.270
  877W        W64634  33.424  30.413   1.337
  878W        W64635   5.797  20.056   0.900
  879W        W64636  36.872   5.332   1.365
  880W        W64637  22.599  29.982  13.912
  881W        W64638  33.527  13.625  10.522
  882W        W64639  35.942  43.448  14.879
  883W        W64640  32.124  38.016  10.973
  884W        W64641   4.843  42.840  13.917
  885W        W64642   4.852  44.873   0.323
  886W        W64643  25.963   5.439   0.781
  887W        W64644  16.240   0.252   2.871
  888W        W64645  11.855   3.412   2.243
  889W        W64646  21.558  27.083   1.324
  890W        W64647  43.449  44.871   4.344
  891W        W64648  31.074  20.152  11.047
  892W        W64649  42.882  16.627  14.417
  893W        W64650  29.029  28.517  12.554
  894W        W64651  35.908  33.031   3.172
  895W        W64652  34.919  19.260   2.835
  896W        W64653  11.722   1.276  10.957
  897W        W64654  20.593  27.131   0.851
  898W        W64655  12.760  15.660   4.808
  899W        W64656   6.333  16.179  12.533
  900W        W64657  44.501  37.519   0.873
  901W        W64658   0.871   2.460  14.963
  902W        W64659  12.118  38.540  13.991
  903W        W64660  31.108  31.558  12.399
  904W        W64661  10.369   5.839   5.230
  905W        W64662   9.243   3.376   2.687
  906W        W64663   5.228  39.433   2.859
  907W        W64664   3.256  43.324  13.054
  908W        W64665  21.166  38.842  12.364
  909W        W64666  23.578  40.013   4.336
  910W        W64667  15.216  40.814  14.804
  911W        W64668  36.052  27.447  13.811
  912W        W64669   1.339  20.571   4.834
  913W        W64670  26.113  32.633   4.696
  914W        W64671  36.078   2.793  11.003
  915W        W64672   5.401  25.167   3.737
  916W        W64673   0.253  43.429   3.313
  917W        W64674  40.520   9.151  13.478
  918W        W64675  16.104  12.141  10.479
  919W        W64676  11.821  21.736  10.627
  920W        W64677  21.648  38.403  12.574
  921W        W64678   9.867  41.905  10.409
  922W        W64679  22.535  34.474  12.860
  923W        W64680   2.863  36.495  13.048
  924W        W64681  33.095   0.838   4.597
  925W        W64682  10.787   4.272   0.767
  926W        W64683  20.641  19.708   2.831
  927W        W64684  17.236   2.870   2.688
  928W        W64685  26.022   2.315   4.279
  929W        W64686  28.597  13.621  10.090
  930W        W64687  42.922  11.789   1.909
  931W        W64688  12.849  31.635  10.443
  932W        W64689   9.790  39.944   0.387
  933W        W64690  42.952   7.715  13.943
  934W        W64691  34.872  37.832  11.442
  935W        W64692   2.903  15.655  14.948
  936W        W64693  30.034  32.460   0.325
  937W        W64694   5.815  12.737   1.215
  938W        W64695  17.597  40.864   4.599
  939W        W64696  24.518  16.803   3.198
  940W        W64697  26.081  34.446  13.366
  941W        W64698  37.053  20.620  13.517
  942W        W64699  34.896  35.005   2.262
  943W        W64700  29.978  10.701   4.258
  944W        W64701  44.334  38.381   5.116
  945W        W64702  14.643   1.846  14.838
  946W        W64703  30.979  15.608   3.856
  947W        W64704  16.149  26.035   0.763
  948W        W64705  10.823   3.315   4.788
  949W        W64706   3.737  40.351   4.682
  950W        W64707  14.753  16.235   4.732
  951W        W64708  43.932  30.112  13.330
  952W        W64709  27.456  18.673   3.783
  953W        W64710   9.814  41.505   3.305
  954W        W64711  11.654   2.283  10.435
  955W        W64712  40.883  15.772  14.840
  956W        W64713  37.884  13.633  14.451
  957W        W64714  28.028   9.712   3.766
  958W        W64715  34.578  17.200   1.243
  959W        W64716  39.403  40.319  10.020
  960W        W64717  39.454  34.048   2.350
  961W        W64718  15.610  39.973  12.870
  962W        W64719  37.011  29.469  10.499
  963W        W64720  19.568  29.602  10.470
  964W        W64721   2.318  30.128   2.185
  965W        W64722  14.767  25.014   3.697
  966W        W64723  31.617  11.648   1.770
  967W        W64724  22.679  18.118  11.877
  968W        W64725  36.998   7.683  10.897
  969W        W64726  20.233  42.972   0.271
  970W        W64727  16.621  15.170  13.419
  971W        W64728   4.263   5.203   3.707
  972W        W64729   1.838  40.323   1.419
  973W        W64730   7.779   5.750  11.094
  974W        W64731  19.663  20.718   4.327
  975W        W64732  16.706   2.878  13.506
  976W        W64733  14.651  24.674   2.285
  977W        W64734  14.316   7.223   4.125
  978W        W64735   3.391  18.145   2.732
  979W        W64736  17.562  19.762  12.978
  980W        W64737  44.921   5.910   0.936
  981W        W64738  14.307  24.200   2.680
  982W        W64739  44.817  42.855  12.940
  983W        W64740  41.433  24.107   1.336
  984W        W64741  37.347   5.753  12.092
  985W        W64742  14.131   2.855   3.291
  986W        W64743  12.318   2.434   3.720
  987W        W64744  30.053  40.457  11.113
  988W        W64745  37.409  12.763  12.439
  989W        W64746  34.404  36.910   0.389
  990W        W64747  27.187  22.679   2.879
  991W        W64748  10.326  39.354   1.794
  992W        W64749   4.290  26.670   1.727
  993W        W64750  31.442  22.708  14.437
  994W        W64751  10.154  32.567   3.707
  995W        W64752   9.238  33.558   0.887
  996W        W64753  13.636   6.225   0.812
  997W        W64754   6.221  41.397   1.730
  998W        W64755  42.011   7.283  12.001
  999W        W64756  36.386   0.894   3.673
 1000W        W64757  33.448  43.907  14.355
 1001W        W64758  43.361   3.330  14.293
 1002W        W64759  30.577  38.416   4.193
 1003W        W64760  37.868  41.015  10.434
 1004W        W64761  17.640  19.110   0.731
 1005W        W64762   3.774  39.411   3.847
 1006W        W64763  37.522  12.645  12.004
 1007W        W64764  25.060  15.086  14.416
 1008W        W64765  18.190  22.684   0.321
 1009W        W64766   6.402  28.957  14.343
 1010W        W64767  16.763  30.603  13.426
 1011W        W64768   8.885  22.595  12.945
 1012W        W64769   5.314  31.610  13.986
 1013W        W64770  13.614   9.216  13.929
 1014W        W64771  31.632   2.269   3.283
 1015W        W64772  20.769   1.806  14.903
 1016W        W64773   6.747   7.250  13.867
 1017W        W64774  14.319  32.504   4.619
 1018W        W64775  18.136  18.635   2.838
 1019W        W64776  40.817  20.687  11.381
 1020W        W64777   6.245  28.460   4.783
 1021W        W64778  21.719  41.807   4.282
 1022W        W64779  22.563   2.291   3.366
 1023W        W64780  10.371  41.786   1.246
 1024W        W64781  30.450   7.296   3.744
 1025W        W64782   9.882  44.755  10.925
 1026W        W64783  25.146  16.767   0.927
 1027W        W64784  18.130  11.281  12.005
 1028W        W64785  41.895  18.715  11.034
 1029W        W64786   8.786  15.719  10.914
 1030W        W64787  24.027   5.336   4.755
 1031W        W64788  26.047  34.488  14.495
 1032W        W64789  18.563   7.862   2.699
 1033W        W64790  35.973  29.466   3.345
 1034W        W64791   1.892   3.877  12.400
 1035W        W64792  21.651  21.596  13.870
 1036W        W64793  26.996  19.567  13.015
 1037W        W64794   8.228  35.065  11.609
 1038W        W64795  44.817  22.731   0.798
 1039W        W64796  10.247  40.436  13.493
 1040W        W64797  16.580  36.373   3.213
 1041W        W64798  35.050  37.076  11.439
 1042W        W64799  21.114   2.806   2.860
 1043W        W64800  16.157  38.948  13.407
 1044W        W64801  27.687  38.365  13.477
 1045W        W64802  33.899  31.645  11.908
 1046W        W64803  13.738  14.607   3.716
 1047W        W64804  22.996  32.525  10.046
 1048W        W64805  17.187  30.104   4.749
 1049W        W64806   1.740  44.351   0.960
 1050W        W64807   8.396  39.416   2.730
 1051W        W64808   7.739  11.271   3.679
 1052W        W64809  16.708  14.249  10.985
 1053W        W64810  29.137  34.068  10.592
 1054W        W64811  16.748   6.911  12.577
 1055W        W64812   0.850  25.000  12.538
 1056W        W64813   9.806  10.248  12.984
 1057W        W64814  32.929  33.586  11.917
 1058W        W64815  42.384  37.010   0.729
 1059W        W64816  38.444   3.822  10.154
 1060W        W64817  22.641  11.697  12.546
 1061W        W64818  44.818  10.236   1.384
 1062W        W64819   2.409   3.318   1.255
 1063W        W64820  20.730   9.271   4.353
 1064W        W64821  26.653   0.808  12.949
 1065W        W64822  23.682  28.511   4.604
 1066W        W64823  12.190  26.003  13.892
 1067W        W64824  20.062  24.085  10.424
 1068W        W64825  36.072   8.831   2.259
 1069W        W64826  27.955  37.954   2.398
 1070W        W64827  16.315  43.295   1.300
 1071W        W64828  21.587  35.919   2.200
 1072W        W64829  26.621  24.512  11.865
 1073W        W64830  14.648  41.010   1.811
 1074W        W64831  38.896  39.945   2.790
 1075W        W64832   1.342  24.121   4.597
 1076W        W64833  43.826  11.798  13.493
 1077W        W64834  11.694  30.634   2.365
 1078W        W64835   6.214  30.485   1.853
 1079W        W64836  25.515  29.509  14.890
 1080W        W64837   2.927  18.559   1.339
 1081W        W64838  26.088  23.148   2.395
 1082W        W64839  37.903  11.730   0.793
 1083W        W64840  21.553  31.078  13.418
 1084W        W64841   8.208   0.291   2.200
 1085W        W64842  22.522  11.732  11.900
 1086W        W64843  24.667   6.796   0.831
 1087W        W64844  34.472  37.412   2.764
 1088W        W64845  10.369  12.800  13.498
 1089W        W64846  44.430  30.999   4.169
 1090W        W64847  11.206  32.427   1.785
 1091W        W64848  38.570  32.050  14.872
 1092W        W64849  20.100   8.760   4.828
 1093W        W64850  28.086  14.296  10.486
 1094W        W64851  10.871   4.335   0.296
 1095W        W64852  18.691  37.976  10.561
 1096W        W64853   7.392  42.831  13.974
 1097W        W64854  39.374  27.497   4.833
 1098W        W64855  42.871  30.993   1.231
 1099W        W64856  31.598  21.207   3.659
 1100W        W64857  38.047  35.417   4.303
 1101W        W64858  23.100  12.287   1.256
 1102W        W64859  21.652  22.192   1.229
 1103W        W64860  20.676   4.425  14.298
 1104W        W64861  18.710   6.241  12.970
 1105W        W64862  27.120  17.250  13.812
 1106W        W64863  29.590   3.947  11.446
 1107W        W64864   7.396  44.875  10.959
 1108W        W64865  24.639  20.057   2.255
 1109W        W64866  18.684  31.110  12.059
 1110W        W64867   0.315   8.792   4.318
 1111W        W64868  36.502  33.909  11.911
 1112W        W64869   3.459  30.616   0.855
 1113W        W64870   3.309  40.876  12.521
 1114W        W64871  32.424  42.030  14.349
 1115W        W64872   9.323  34.551  14.793
 1116W        W64873   4.811  29.014   3.311
 1117W        W64874  30.608  16.077  13.945
 1118W        W64875  39.424  15.652   9.921
 1119W        W64876   5.847   1.281  11.115
 1120W        W64877  31.412  44.897  10.482
 1121W        W64878  10.859   3.361   4.225
 1122W        W64879  25.004   2.887   1.744
 1123W        W64880  13.694   4.773   4.211
 1124W        W64881  43.311  28.490   3.354
 1125W        W64882   5.333  17.070   1.923
 1126W        W64883  36.491  22.104  14.013
 1127W        W64884   1.731  37.558   1.256
 1128W        W64885  23.622   8.347  10.901
 1129W        W64886  30.040  22.204  13.427
 1130W        W64887   8.673   9.352   0.470
 1131W        W64888   7.329  18.658   4.679
 1132W        W64889  24.976  23.644   1.306
 1133W        W64890  25.131  16.212   3.156
 1134W        W64891  24.015  41.033  14.353
 1135W        W64892  19.661   1.476   2.800
 1136W        W64893   7.678  13.351   1.748
 1137W        W64894  41.307  31.555  13.433
 1138W        W64895  27.102   1.786  10.583
 1139W        W64896  16.579  26.033   4.302
 1140W        W64897   4.753  36.433  12.434
 1141W        W64898  30.477  31.644   3.734
 1142W        W64899  20.170   8.734   0.873
 1143W        W64900   9.336  42.527   4.815
 1144W        W64901  36.593  37.422   4.321
 1145W        W64902  20.604  32.132   3.287
 1146W        W64903   8.259  41.480  13.325
 1147W        W64904   3.352  28.104   3.275
 1148W        W64905   2.913  24.675  13.936
 1149W        W64906   6.820  29.929   3.168
 1150W        W64907  37.399  32.044  10.054
 1151W        W64908  24.132  44.498  11.491
 1152W        W64909  29.527  11.307  11.125
 1153W        W64910   5.839  38.382   0.401
 1154W        W64911  12.616  19.147   4.284
 1155W        W64912  14.287   7.725  13.466
 1156W        W64913  43.329   5.237  13.991
 1157W        W64914  11.820   4.795   4.801
 1158W        W64915  23.515  37.002  13.498
 1159W        W64916  20.125  24.593  10.411
 1160W        W64917  35.519  44.498   0.419
 1161W        W64918  12.834  26.042   3.302
 1162W        W64919   8.833  25.660   5.253
 1163W        W64920   0.483  33.940   4.729
 1164W        W64921  39.899  20.529  12.557
 1165W        W64922  25.129  43.000  13.925
 1166W        W64923  43.509  20.139   3.287
 1167W        W64924  26.488  23.999  14.901
 1168W        W64925   0.777  13.645   1.826
 1169W        W64926  18.546  23.027  13.937
 1170W        W64927  24.044  28.468   2.314
 1171W        W64928   9.711  37.078  11.458
 1172W        W64929  43.437  27.524  14.320
 1173W        W64930   6.794  19.536  13.041
 1174W        W64931  14.738  13.188   3.778
 1175W        W64932  43.300  10.749   2.789
 1176W        W64933  35.466   9.310  10.957
 1177W        W64934  30.078  23.543   2.720
 1178W        W64935  13.210  30.941  10.642
 1179W        W64936  34.953  38.914   5.260
 1180W        W64937  34.398  18.206  13.488
 1181W        W64938  10.752  28.084   1.382
 1182W        W64939  33.053   1.391   3.190
 1183W        W64940  12.700  21.688  13.418
 1184W        W64941  15.103   2.376  14.281
 1185W        W64942  28.583  16.220   1.838
 1186W        W64943  30.136  35.108   2.385
 1187W        W64944  27.600  26.671   1.275
 1188W        W64945  37.523  18.265  14.881
 1189W        W64946  39.493   7.797  11.565
 1190W        W64947  12.320  34.094  13.037
 1191W        W64948  34.403   1.736  14.418
 1192W        W64949  38.506  23.609   0.918
 1193W        W64950  31.517   2.444  10.551
 1194W        W64951  41.819  20.703  11.013
 1195W        W64952   5.413   9.389   0.963
 1196W        W64953  17.197  11.845   0.949
 1197W        W64954  44.406  36.487   4.607
 1198W        W64955  24.708   4.771  12.936
 1199W        W64956  10.148  25.591   2.844
 1200W        W64957  10.818  37.348   4.256
 1201W        W64958  20.087  15.156  11.031
 1202W        W64959   2.271  14.280   1.800
 1203W        W64960  19.671   6.281   2.824
 1204W        W64961  35.416   3.761  14.942
 1205W        W64962   2.442  21.724   0.279
 1206W        W64963  39.020  41.912  13.445
 1207W        W64964   1.975   2.315   0.942
 1208W        W64965  12.355   7.274  12.951
 1209W        W64966   0.320  24.707  10.537
 1210W        W64967  22.601  41.870   1.765
 1211W        W64968  37.526   1.262  14.790
 1212W        W64969  34.088  22.542   3.267
 1213W        W64970   9.800  24.701  13.453
 1214W        W64971  41.803  44.442  12.395
 1215W        W64972  21.574   6.859   1.388
 1216W        W64973   2.791  40.453  13.982
 1217W        W64974  16.141  34.544  11.902
 1218W        W64975   5.416  34.586   3.254
 1219W        W64976  21.034  24.581  14.345
 1220W        W64977   2.826  33.000  14.928
 1221W        W64978  17.771  35.099  11.405
 1222W        W64979  17.646  11.365  11.537
 1223W        W64980  23.489  24.618   1.333
 1224W        W64981   7.402  15.711  10.476
 1225W        W64982   5.694  39.485  13.058
 1226W        W64983  28.020  15.604  11.460
 1227W        W64984  23.108  39.514   0.316
 1228W        W64985  27.021  27.528   0.385
 1229W        W64986  43.478  18.559  12.465
 1230W        W64987  24.706   4.313  12.042
 1231W        W64988   3.439  27.135  14.414
 1232W        W64989  28.534  40.411  13.855
 1233W        W64990  41.352   2.313   9.933
 1234W        W64991  26.138  33.500   2.863
 1235W        W64992  27.013  16.109  12.849
 1236W        W64993  39.019  27.151  14.399
 1237W        W64994  37.894  16.243   1.808
 1238W        W64995  36.880  30.463  11.053
 1239W        W64996  23.149  22.689  11.537
 1240W        W64997   6.208  15.613   1.402
 1241W        W64998   4.822   1.872  14.279
 1242W        W64999  36.370  18.221   2.408
 1243W        W65000  36.060  23.234  11.449
 1244W        W65001   7.708   9.265  12.861
 1245W        W65002  23.660  35.921  10.644
 1246W        W65003  34.591  21.159   0.868
 1247W        W65004  38.449  13.302   0.817
 1248W        W65005  16.721  16.283   3.163
 1249W        W65006   9.308  40.546  12.911
 1250W        W65007   3.291  30.937   3.635
 1251W        W65008   6.289  26.019   1.424
 1252W        W65009  42.388   0.342   3.182
 1253W        W65010  24.081  30.983   4.170
 1254W        W65011  44.399   9.748   9.999
 1255W        W65012  41.406  12.782   4.648
 1256W        W65013  36.565  15.141   4.607
 1257W        W65014  39.861   6.747  12.870
 1258W        W65015   6.184  30.023   2.887
 1259W        W65016  44.325  30.540   0.827
 1260W        W65017  44.382  12.187  12.826
 1261W        W65018  24.180   9.737   2.192
 1262W        W65019  28.978   1.942  12.423
 1263W        W65020  42.498  26.467   9.946
 1264W        W65021   8.395  11.364   1.429
 1265W        W65022  22.625  41.880  13.411
 1266W        W65023  33.102  41.434   0.940
 1267W        W65024  37.562   9.174   4.649
 1268W        W65025  26.488  40.830   3.296
 1269W        W65026  18.613  41.795   1.235
 1270W        W65027  24.597  30.659   1.318
 1271W        W65028  19.236  24.121  11.927
 1272W        W65029   5.841  35.461  12.990
 1273W        W65030   5.698  40.349  13.447
 1274W        W65031   0.864  28.642   2.399
 1275W        W65032  11.275  40.894   1.819
 1276W        W65033  37.074  13.234  12.040
 1277W        W65034   3.348  11.244  13.365
 1278W        W65035  22.648  12.703   0.462
 1279W        W65036  24.003  37.904  11.569
 1280W        W65037  42.023  39.455   0.794
 1281W        W65038  10.639   5.831   4.605
 1282W        W65039  16.719   9.772   4.129
 1283W        W65040  44.976   2.388  11.506
 1284W        W65041  11.685  14.650  12.841
 1285W        W65042  24.712  38.399  11.918
 1286W        W65043  27.028  29.449  11.422
 1287W        W65044   8.178  27.094  10.919
 1288W        W65045  39.941  39.847   4.768
 1289W        W65046  11.210  20.553   2.710
 1290W        W65047  30.511  34.581  10.454
 1291W        W65048   9.382  44.856   4.126
 1292W        W65049  12.651  32.981  12.519
 1293W        W65050   4.241  33.576  14.370
 1294W        W65051  25.605   2.855   1.698
 1295W        W65052  11.275  20.588  14.876
 1296W        W65053  11.761   7.318  13.023
 1297W        W65054  37.025  44.282   3.341
 1298W        W65055   2.429   0.951  12.949
 1299W        W65056  29.950  22.542  12.999
 1300W        W65057   3.350  15.170   4.653
 1301W        W65058  43.497   4.858  13.928
 1302W        W65059  38.834   1.326   2.865
 1303W        W65060   3.436   5.216   0.910
 1304W        W65061  35.891  19.579  11.464
 1305W        W65062  35.040  14.806   4.674
 1306W        W65063  23.009  15.588   4.753
 1307W        W65064   3.281  24.639  10.904
 1308W        W65065  29.645  38.820   3.814
 1309W        W65066  35.447  22.745  13.903
 1310W        W65067  31.476  39.840   3.653
 1311W        W65068  37.351  29.642   5.172
 1312W        W65069  21.532  41.889  11.892
 1313W        W65070   1.769  13.838  11.920
 1314W        W65071  20.721   5.231   0.390
 1315W        W65072  36.852   6.288   4.801
 1316W        W65073  34.081  24.135   4.195
 1317W        W65074   8.667  12.188  14.918
 1318W        W65075  15.203   3.787   2.712
 1319W        W65076  15.657  43.495   2.817
 1320W        W65077  24.094   0.833   2.754
 1321W        W65078   3.788  18.728   2.788
 1322W        W65079  43.942   9.690   0.754
 1323W        W65080   8.734  14.199  14.935
 1324W        W65081  38.895   3.812   1.298
 1325W        W65082  10.838   0.462   3.268
 1326W        W65083   8.678  33.587  13.796
 1327W        W65084  27.626  10.182  13.926
 1328W        W65085  11.832   4.365  13.518
 1329W        W65086  18.273  18.243  12.377
 1330W        W65087  40.823  31.530  13.367
 1331W        W65088  32.427  33.381  14.834
 1332W        W65089  33.014  41.428  13.425
 1333W        W65090   1.755  38.527   3.662
 1334W        W65091  44.922  26.196   4.816
 1335W        W65092   4.862  32.537  12.891
 1336W        W65093  25.499   7.842  10.486
 1337W        W65094  26.490  16.117  11.067
 1338W        W65095  44.788   0.867   2.292
 1339W        W65096  42.407  40.333   1.249
 1340W        W65097  17.183  18.592   1.911
 1341W        W65098  22.737  11.742  10.031
 1342W        W65099  17.616   5.832  13.358
 1343W        W65100  19.224  21.729  11.483
 1344W        W65101   5.251   7.849  12.951
 1345W        W65102   0.765  35.449   2.729
 1346W        W65103  15.240  29.611   2.884
 1347W        W65104  30.052   5.429  13.324
 1348W        W65105   7.222  22.212  13.838
 1349W        W65106  24.535  36.539  11.013
 1350W        W65107   6.888  10.286  11.461
 1351W        W65108   4.902  23.993   2.306
 1352W        W65109  23.494   4.323   1.826
 1353W        W65110  21.037  27.636  14.336
 1354W        W65111   7.293  42.295   3.718
 1355W        W65112  20.654  22.655  10.436
 1356W        W65113   3.426  28.061   0.286
 1357W        W65114  24.636  27.019   1.888
 1358W        W65115  40.474  15.326   1.256
 1359W        W65116  41.400  40.442  10.494
 1360W        W65117  12.336  30.023   3.189
 1361W        W65118  15.648  18.710   5.234
 1362W        W65119  44.993  27.459  14.427
 1363W        W65120  24.530   9.728   3.846
 1364W        W65121  27.573  36.917  14.294
 1365W        W65122   3.398  27.175   1.818
 1366W        W65123  38.918  12.715  11.587
 1367W        W65124   0.971  43.867  13.437
 1368W        W65125  31.914   9.192   5.322
 1369W        W65126  19.165   4.737  10.555
 1370W        W65127  13.190  12.658   3.151
 1371W        W65128  42.992  39.395   3.191
 1372W        W65129  22.218  35.583   1.790
 1373W        W65130  37.406  34.535   4.737
 1374W        W65131  17.565  40.514  11.979
 1375W        W65132   3.886   5.329   3.794
 1376W        W65133   1.390  34.906   1.372
 1377W        W65134  21.065  15.234   2.378
 1378W        W65135  15.734  34.549  14.483
 1379W        W65136   1.776  18.288  13.391
 1380W        W65137  34.598  29.097  13.476
 1381W        W65138   1.246  43.339   2.273
 1382W        W65139  23.114  26.113  14.443
 1383W        W65140  21.085   7.180  13.803
 1384W        W65141  40.411   3.254   4.157
 1385W        W65142   0.443  41.341   2.267
 1386W        W65143  25.621   8.248  14.841
 1387W        W65144  16.614  38.411   2.195
 1388W        W65145  24.497  34.393   1.884
 1389W        W65146   6.336   7.276   3.781
 1390W        W65147  35.109   4.930   0.389
 1391W        W65148  16.586  25.078   3.701
 1392W        W65149  29.599   5.766   1.772
 1393W        W65150  31.093  27.943  12.916
 1394W        W65151  14.254  31.008   4.193
 1395W        W65152  33.952  33.514  10.906
 1396W        W65153  41.844   2.443   4.815
 1397W        W65154  36.895   3.306   0.251
 1398W        W65155  15.790  17.205  11.875
 1399W        W65156  24.696  13.639  14.293
 1400W        W65157   6.676  44.927  12.442
 1401W        W65158  30.656  26.011  14.851
 1402W        W65159  23.699   3.238   0.808
 1403W        W65160  26.476  43.477   1.842
 1404W        W65161  14.757  13.616  10.922
 1405W        W65162  20.203   9.669   3.859
 1406W        W65163   6.357  26.597   4.281
 1407W        W65164   2.272   6.391  12.985
 1408W        W65165  25.113  22.124   0.742
 1409W        W65166   2.811  36.413   3.330
 1410W        W65167  24.172  16.726  10.500
 1411W        W65168  10.282  12.212   1.910
 1412W        W65169  38.020  15.611  12.399
 1413W        W65170  36.520  15.298  14.909
 1414W        W65171  42.924   1.450   1.386
 1415W        W65172  34.412  29.116   2.213
 1416W        W65173  34.103  30.048  13.450
 1417W        W65174  13.793  26.187  13.799
 1418W        W65175  10.241   4.231  11.525
 1419W        W65176  35.592  20.232  12.458
 1420W        W65177  28.541  11.192  13.478
 1421W        W65178   6.690  27.669  14.984
 1422W        W65179   3.843   7.764   2.367
 1423W        W65180  33.066   9.297  14.010
 1424W        W65181  33.904  35.369   4.611
 1425W        W65182   2.793  27.168   2.732
 1426W        W65183  35.900  17.620   3.772
 1427W        W65184  21.679  34.489  12.412
 1428W        W65185  20.582   7.811   1.789
 1429W        W65186  38.002  18.599   3.638
 1430W        W65187  40.913  21.204  13.797
 1431W        W65188  34.957  39.324  13.497
 1432W        W65189  26.072   2.275  12.867
 1433W        W65190  29.109  36.537  14.336
 1434W        W65191   9.229  14.589  14.336
 1435W        W65192   0.769  31.457  12.076
 1436W        W65193  39.337  40.304   4.756
 1437W        W65194  35.983  11.195   1.723
 1438W        W65195   6.918   8.739   2.839
 1439W        W65196  13.687   8.773   2.883
 1440W        W65197   5.268  31.096  10.418
 1441W        W65198  32.634   7.317  13.450
 1442W        W65199   1.812  17.208   2.186
 1443W        W65200  44.855  37.005   4.122
 1444W        W65201   0.797  18.726   5.281
 1445W        W65202  41.966  30.927   1.367
 1446W        W65203  26.084  29.637   1.250
 1447W        W65204  11.263  14.597   0.854
 1448W        W65205  18.234  18.791  11.417
 1449W        W65206  38.891   6.843   0.943
 1450W        W65207  12.136   4.414   4.283
 1451W        W65208   3.758  12.655  13.815
 1452W        W65209  21.752  13.233  13.423
 1453W        W65210  21.218  36.435   2.197
 1454W        W65211   9.683  41.993  12.511
 1455W        W65212  29.522  32.137   0.912
 1456W        W65213  32.507  37.909  13.044
 1457W        W65214  23.026  28.142   0.853
 1458W        W65215  20.068   4.389   0.250
 1459W        W65216  20.232  19.679  12.026
 1460W        W65217   8.862   3.895   4.718
 1461W        W65218  41.942  29.631  13.802
 1462W        W65219  27.604  43.804   0.745
 1463W        W65220  31.100  29.108  11.924
 1464W        W65221  41.538  13.322  14.928
 1465W        W65222  22.674  29.485   1.315
 1466W        W65223  14.834  26.012  10.500
 1467W        W65224   3.387   9.227   0.257
 1468W        W65225   5.313  29.555   1.730
 1469W        W65226  19.562  26.208  12.870
 1470W        W65227  34.909  23.178   3.692
 1471W        W65228   9.154  35.945   3.842
 1472W        W65229  42.363  15.670  13.328
 1473W        W65230  12.682   2.467  14.982
 1474W        W65231  20.179  25.545  11.867
 1475W        W65232  31.018  19.227  14.027
 1476W        W65233   3.254   7.371   3.682
 1477W        W65234  27.449  18.084   3.850
 1478W        W65235  41.440  14.759   3.791
 1479W        W65236   2.889  31.426  13.390
 1480W        W65237  11.356  15.787  11.054
 1481W        W65238  35.032  10.860   4.200
 1482W        W65239   3.789  18.251   0.748
 1483W        W65240  38.443  16.599  11.411
 1484W        W65241  20.033  14.327  11.384
 1485W        W65242  37.934  31.003  13.440
 1486W        W65243  32.397   9.769  14.314
 1487W        W65244   5.768  20.658  12.085
 1488W        W65245  44.838  40.518   4.154
 1489W        W65246  17.727  34.968   3.192
 1490W        W65247  42.867  37.898  12.969
 1491W        W65248  21.607   4.768   0.365
 1492W        W65249  16.107  37.925  13.370
 1493W        W65250  23.221  31.603   2.247
 1494W        W65251  20.257  26.081   2.666
 1495W        W65252  38.372  25.058  11.873
 1496W        W65253   5.832   6.281   0.811
 1497W        W65254  22.196  32.560   0.825
 1498W        W65255  16.166   2.255  12.572
 1499W        W65256  41.835  21.729  14.902
 1500W        W65257   8.177  44.786   4.641
 1501W        W65258  13.641  13.160   4.227
 1502W        W65259   1.914  19.599  14.382
 1503W        W65260  34.002  33.494  10.568
 1504W        W65261  30.488  16.808  14.001
 1505W        W65262  30.126   6.188   4.600
 1506W        W65263  44.777   6.307  14.338
 1507W        W65264   4.205   8.255   2.201
 1508W        W65265   7.415  33.399   5.129
 1509W        W65266  28.137  31.152   4.332
 1510W        W65267   7.215  36.969   4.673
 1511W        W65268   5.811  18.284  14.920
 1512W        W65269   0.326  41.895  14.917
 1513W        W65270  35.589  16.634  11.879
 1514W        W65271  31.461  14.195  12.397
 1515W        W65272  13.740  16.764   0.877
 1516W        W65273  34.045  26.653  10.889
 1517W        W65274  28.128  31.980  13.918
 1518W        W65275  34.368  10.714   4.185
 1519W        W65276  40.971   6.414   2.753
 1520W        W65277  23.222   8.169  14.347
 1521W        W65278  25.991  28.026   3.865
 1522W        W65279  21.130  40.933  11.908
 1523W        W65280  12.850  19.773   4.833
 1524W        W65281  43.835   1.363   3.182
 1525W        W65282  27.606   5.871  14.394
 1526W        W65283  13.778  11.860   4.218
 1527W        W65284  41.884  18.172  11.383
 1528W        W65285  28.178  29.108  12.849
 1529W        W65286  43.306  31.096  14.502
 1530W        W65287   6.777  32.576  12.919
 1531W        W65288  28.657  37.350   2.213
 1532W        W65289  29.045  21.525   3.379
 1533W        W65290   6.770  30.524   3.704
 1534W        W65291   5.899  34.433   3.638
 1535W        W65292   0.767  40.993   2.727
 1536W        W65293  27.473  16.157  11.869
 1537W        W65294   2.380  22.691  11.590
 1538W        W65295  29.125   6.381   3.703
 1539W        W65296  42.428  21.613  13.043
 1540W        W65297   3.908  44.999   2.315
 1541W        W65298  28.673   3.742  13.857
 1542W        W65299  24.647  10.245  11.933
 1543W        W65300  26.970   2.258  10.599
 1544W        W65301  26.975  17.562   2.719
 1545W        W65302  24.538  39.421   1.261
 1546W        W65303  38.466   3.429   1.396
 1547W        W65304  31.006  14.168  14.816
 1548W        W65305  39.039  28.183   2.838
 1549W        W65306  38.879   0.803   0.381
 1550W        W65307  35.883  22.216   0.887
 1551W        W65308  20.720  19.129   0.439
 1552W        W65309  43.945  23.521  13.310
 1553W        W65310  44.916  30.581   2.202
 1554W        W65311  23.615  15.599  13.449
 1555W        W65312  39.890  33.947   2.300
 1556W        W65313  29.434  21.062   0.283
 1557W        W65314   0.743  34.400   3.771
 1558W        W65315   8.671   7.760   4.280
 1559W        W65316  28.501  36.523  10.506
 1560W        W65317  42.473  15.176  13.797
 1561W        W65318  39.887   1.864   3.383
 1562W        W65319  24.074  26.981  10.425
 1563W        W65320  32.095  29.992   0.289
 1564W        W65321  31.579   7.325  11.513
 1565W        W65322  39.862  32.442   4.291
 1566W        W65323  37.551  39.434  10.462
 1567W        W65324  20.670  19.174   4.291
 1568W        W65325  32.112  17.636  10.997
 1569W        W65326  34.863  33.124  11.932
 1570W        W65327  15.603  10.139   3.234
 1571W        W65328  11.218  30.124  10.447
 1572W        W65329   1.244  31.602  10.580
 1573W        W65330  41.519  44.791   0.259
 1574W        W65331   5.313  14.824  14.894
 1575W        W65332   0.946  13.751   4.823
 1576W        W65333   5.275   2.966  11.120
 1577W        W65334  23.128  12.698   3.685
 1578W        W65335  37.354   9.830   4.643
 1579W        W65336  13.153  23.061  12.084
 1580W        W65337  39.412   5.881   2.353
 1581W        W65338  26.612  21.729  11.942
 1582W        W65339  37.911  38.870  10.620
 1583W        W65340   7.185   3.290   3.763
 1584W        W65341  31.982  36.515  13.022
 1585W        W65342  39.926  14.647  10.901
 1586W        W65343  14.635  16.619  13.443
 1587W        W65344   0.857  19.225   4.678
 1588W        W65345  13.669  35.446   2.817
 1589W        W65346  13.249  16.295  14.879
 1590W        W65347   0.979  11.631  10.056
 1591W        W65348  32.546  29.937   3.674
 1592W        W65349  17.664  24.627  14.762
 1593W        W65350  42.890   1.382  10.465
 1594W        W65351  17.073  32.991   4.713
 1595W        W65352  37.956   4.271  13.046
 1596W        W65353  34.402  15.656  14.357
 1597W        W65354   4.847   4.866   5.126
 1598W        W65355  27.145  39.910  14.391
 1599W        W65356   5.927  27.078  11.025
 1600W        W65357  17.258  37.412   1.221
 1601W        W65358  16.778  31.124   2.322
 1602W        W65359   6.325  33.578   1.280
 1603W        W65360  27.599  23.639  12.912
 1604W        W65361  25.065  33.930  14.508
 1605W        W65362  33.984   7.904   1.935
 1606W        W65363  13.207  41.824  13.020
 1607W        W65364  32.060  32.936   1.381
 1608W        W65365  19.561  34.895   3.323
 1609W        W65366  13.630  30.459  13.946
 1610W        W65367  18.599   6.236  11.862
 1611W        W65368  42.008  39.032  10.405
 1612W        W65369  25.168  22.694  12.041
 1613W        W65370  11.804  42.424   2.714
 1614W        W65371  12.336  31.544  12.985
 1615W        W65372  11.253   1.874   3.173
 1616W        W65373  42.524  23.042  13.035
 1617W        W65374  36.871  21.670  11.978
 1618W        W65375  42.473  17.615   4.236
 1619W        W65376  17.196  36.852  12.027
 1620W        W65377  27.560  39.839  12.347
 1621W        W65378  18.767  28.066  10.902
 1622W        W65379  42.506  37.556  15.000
 1623W        W65380  37.355  37.393   4.721
 1624W        W65381  10.765  37.482  12.892
 1625W        W65382  41.869  30.016   3.836
 1626W        W65383  34.578  29.446  12.927
 1627W        W65384  18.159  21.253   0.302
 1628W        W65385  44.935  34.377  11.458
 1629W        W65386   5.893  10.373   1.695
 1630W        W65387   7.343   0.348   3.221
 1631W        W65388  43.836  32.487   3.685
 1632W        W65389  15.137  42.901   1.922
 1633W        W65390  39.808   5.255  13.317
 1634W        W65391   3.954   8.706  14.841
 1635W        W65392   3.407  12.693   2.692
 1636W        W65393  35.911  21.735   3.210
 1637W        W65394  42.288  32.995   4.117
 1638W        W65395  16.243  41.517  14.013
 1639W        W65396   5.733  16.570  14.438
 1640W        W65397  38.348  15.668   4.124
 1641W        W65398  22.562  10.829   4.726
 1642W        W65399  34.490  41.408   2.304
 1643W        W65400   1.843  43.775   1.291
 1644W        W65401   8.195   7.855  14.371
 1645W        W65402  17.573  29.492  12.412
 1646W        W65403  20.579  36.503  14.487
 1647W        W65404  34.085  14.679  14.839
 1648W        W65405  31.088  35.402   3.226
 1649W        W65406   7.883   7.775   2.733
 1650W        W65407  36.040  31.034  10.531
 1651W        W65408  19.192  36.960  14.960
 1652W        W65409  26.079  25.494  10.072
 1653W        W65410  10.746  23.155  11.372
 1654W        W65411  40.549  33.021   0.760
 1655W        W65412  25.189   4.333   3.355
 1656W        W65413  24.170  27.541  12.514
 1657W        W65414  23.204  38.941   2.268
 1658W        W65415  37.960  22.052   4.272
 1659W        W65416  26.655  44.420   2.678
 1660W        W65417  10.678  26.186   4.314
 1661W        W65418  15.781   2.796  12.393
 1662W        W65419  39.537  16.668  10.607
 1663W        W65420  38.429  15.735  14.339
 1664W        W65421  33.949   8.315   0.953
 1665W        W65422  28.448   9.700   2.189
 1666W        W65423  22.505  32.070   5.220
 1667W        W65424   3.824  15.621  12.407
 1668W        W65425  31.904   5.802   5.600
 1669W        W65426  19.144   9.305  11.603
 1670W        W65427  20.169  22.041   0.771
 1671W        W65428   0.781  36.054   1.736
 1672W        W65429   3.846  28.971  11.565
 1673W        W65430  31.451  41.368   1.347
 1674W        W65431   9.821  31.070   2.703
 1675W        W65432   0.399  36.871   4.299
 1676W        W65433  14.762   4.771  13.007
 1677W        W65434   9.276  29.633   2.410
 1678W        W65435  25.647  15.674   1.249
 1679W        W65436   0.311  30.058  12.009
 1680W        W65437  30.455  24.978  13.504
 1681W        W65438  38.374  29.666  14.386
 1682W        W65439  38.012  25.474  13.896
 1683W        W65440  13.705   7.863   4.190
 1684W        W65441   2.427  21.729  13.465
 1685W        W65442   0.934  16.629   0.247
 1686W        W65443  22.669  28.562   1.442
 1687W        W65444  16.618   2.926  10.585
 1688W        W65445  40.798  43.483   2.285
 1689W        W65446  32.454  44.354   3.165
 1690W        W65447  42.910  11.839   0.858
 1691W        W65448  41.867  23.623  12.882
 1692W        W65449  40.482  32.920   3.800
 1693W        W65450   6.387  23.009  13.451
 1694W        W65451  12.194  37.478  14.351
 1695W        W65452  26.995   9.271  13.400
 1696W        W65453  41.478  10.241   3.748
 1697W        W65454  41.957  34.117  11.462
 1698W        W65455  13.347  19.103  12.532
 1699W        W65456  21.215  44.003   1.432
 1700W        W65457  39.922  18.167   4.772
 1701W        W65458   7.351   4.325  11.602
 1702W        W65459  20.708  36.890  12.076
 1703W        W65460  37.435  23.075  11.605
 1704W        W65461  10.776  17.657   2.872
 1705W        W65462  18.590  14.835   3.187
 1706W        W65463  32.906  11.276   3.322
 1707W        W65464  23.156  42.958   1.341
 1708W        W65465  27.061  32.905  14.341
 1709W        W65466  10.196   4.931   3.662
 1710W        W65467  25.963  39.954   1.427
 1711W        W65468  23.035  16.603  11.602
 1712W        W65469  10.147  40.549  12.016
 1713W        W65470  32.400  16.762  11.568
 1714W        W65471  14.726  39.400  13.320
 1715W        W65472  33.934  41.310  14.465
 1716W        W65473   4.304   0.477  11.044
 1717W        W65474  40.365  33.910   3.323
 1718W        W65475  11.267  34.915   2.769
 1719W        W65476  21.718  12.644   4.712
 1720W        W65477   1.361  17.627   3.784
 1721W        W65478  37.511  43.370  12.977
 1722W        W65479  36.349  35.520  10.972
 1723W        W65480  44.343  41.431   1.869
 1724W        W65481  43.361  28.581   4.251
 1725W        W65482   8.391  31.020  13.495
 1726W        W65483  21.129  16.264   1.774
 1727W        W65484   9.184  36.846  11.474
 1728W        W65485   1.781  30.417  14.276
 1729W        W65486   2.262  19.584   0.453
 1730W        W65487  17.162  44.347   2.747
 1731W        W65488  38.053  39.535  11.475
 1732W        W65489  13.714  14.673  10.888
 1733W        W65490   4.922  39.952  10.445
 1734W        W65491   3.242  28.956   3.701
 1735W        W65492  29.062  17.256   4.129
 1736W        W65493   1.774   5.350  11.006
 1737W        W65494  40.525   8.699   5.143
 1738W        W65495  31.127   4.912  11.923
 1739W        W65496  26.573  34.083  10.565
 1740W        W65497  25.186  28.667  10.527
 1741W        W65498   4.240  42.894   4.618
 1742W        W65499  24.119   2.407  10.551
 1743W        W65500   7.276  12.349  14.329
 1744W        W65501  42.293  17.703  13.507
 1745W        W65502  33.392  38.954  11.591
 1746W        W65503  16.586  20.598  13.806
 1747W        W65504  14.309   4.253  14.347
 1748W        W65505   5.713   1.442   0.299
 1749W        W65506  27.051   5.245   2.267
 1750W        W65507  27.669  26.638   0.362
 1751W        W65508  19.100  42.882   3.681
 1752W        W65509  23.001  16.744   0.292
 1753W        W65510  14.220   5.696  13.029
 1754W        W65511  34.968  14.708   0.844
 1755W        W65512  10.687  42.288   1.410
 1756W        W65513   8.353  23.704  10.949
 1757W        W65514  24.589  25.190  10.552
 1758W        W65515  41.942  18.632   2.184
 1759W        W65516  24.975  30.111   4.314
 1760W        W65517  17.149  41.472  10.464
 1761W        W65518  18.594   2.332  10.900
 1762W        W65519  30.050  28.010   1.229
 1763W        W65520  28.963  11.269  14.420
 1764W        W65521  35.365  12.771  13.355
 1765W        W65522  42.847  35.092  10.562
 1766W        W65523  33.077  36.443  13.450
 1767W        W65524   1.845  21.215   1.314
 1768W        W65525  11.677   9.386  14.386
 1769W        W65526  40.864  14.632  12.826
 1770W        W65527  15.281  29.048  11.940
 1771W        W65528   2.773  30.162  14.392
 1772W        W65529  17.203  34.474  13.874
 1773W        W65530  35.544  15.736  11.900
 1774W        W65531  42.861  25.117  14.777
 1775W        W65532  16.580  41.406  14.952
 1776W        W65533  43.306  19.672  11.518
 1777W        W65534  41.920   0.275  14.475
 1778W        W65535   4.813  23.006   0.329
 1779W        W65536  24.201  35.491   4.158
 1780W        W65537  38.869   3.911  11.981
 1781W        W65538  13.774  38.862  12.384
 1782W        W65539  31.993  20.038   1.714
 1783W        W65540  20.194  22.650  11.123
 1784W        W65541  39.889   3.302   5.233
 1785W        W65542  14.661  14.248   2.395
 1786W        W65543  34.510  34.536   1.317
 1787W        W65544  20.097  40.025   3.675
 1788W        W65545  36.349  42.993   2.397
 1789W        W65546  39.482  42.007   1.401
 1790W        W65547  34.413  28.126   1.848
 1791W        W65548   4.771  18.169  11.585
 1792W        W65549   9.655  18.185  12.018
 1793W        W65550  30.575  31.575   2.305
 1794W        W65551  12.239  38.876   1.844
 1795W        W65552  21.577  25.098  12.085
 1796W        W65553  21.659   9.323  11.070
 1797W        W65554   1.396  32.975   2.241
 1798W        W65555  32.034  35.046   1.372
 1799W        W65556  21.721  11.169  13.499
 1800W        W65557  23.004  40.879  12.029
 1801W        W65558  12.345  23.998  11.065
 1802W        W65559  44.838  19.714  14.990
 1803W        W65560   9.700  16.783  14.365
 1804W        W65561   7.318   9.348   1.799
 1805W        W65562  17.265  16.620  11.913
 1806W        W65563  13.778  24.551   2.409
 1807W        W65564  43.798  36.418   4.755
 1808W        W65565  12.183  32.594   2.205
 1809W        W65566   9.823  41.309  11.964
 1810W        W65567  11.147  22.251  12.938
 1811W        W65568   7.370  26.688  13.348
 1812W        W65569  23.115   4.298   0.336
 1813W        W65570   2.235   3.297  13.797
 1814W        W65571  43.393  44.295  10.083
 1815W        W65572  10.250  19.182   0.931
 1816W        W65573   6.185  17.303   1.817
 1817W        W65574  35.924  39.905  12.472
 1818W        W65575  18.051  25.099   2.203
 1819W        W65576  11.293  19.697   4.797
 1820W        W65577  28.548   1.930   0.408
 1821W        W65578  37.946   3.403  14.893
 1822W        W65579  40.971  42.407  13.310
 1823W        W65580  19.242  15.115  14.378
 1824W        W65581  13.270  42.895  13.337
 1825W        W65582  23.994  42.830  13.384
 1826W        W65583  42.404  23.149   1.325
 1827W        W65584  32.944  21.084   0.904
 1828W        W65585   4.900  28.538  14.483
 1829W        W65586  19.258   1.429   3.822
 1830W        W65587  43.460  30.128  13.807
 1831W        W65588  39.382  31.520  10.947
 1832W        W65589   6.763  14.214  12.436
 1833W        W65590  21.576   8.855  14.788
 1834W        W65591  31.555   1.884   2.244
 1835W        W65592   3.932  13.161   1.805
 1836W        W65593  12.253  43.357   0.471
 1837W        W65594  27.633  27.173   4.743
 1838W        W65595  41.804   2.800   4.671
 1839W        W65596  28.998  20.116  13.416
 1840W        W65597  26.530  38.528   0.459
 1841W        W65598  33.073  10.675   1.223
 1842W        W65599  29.643   9.366  14.515
 1843W        W65600   3.943   0.850  10.572
 1844W        W65601  28.447   6.688   4.777
 1845W        W65602   0.474   3.811  10.622
 1846W        W65603  35.049   2.352   2.666
 1847W        W65604  37.505   1.905   3.779
 1848W        W65605  26.122  13.844   1.854
 1849W        W65606  13.296  15.754  11.860
 1850W        W65607  11.827  17.106  14.787
 1851W        W65608  24.607  36.512   2.717
 1852W        W65609  25.678   9.762   3.259
 1853W        W65610  17.262  41.379   3.700
 1854W        W65611  31.962  16.595   3.293
 1855W        W65612  32.409  16.787   4.286
 1856W        W65613  36.398  42.327   2.389
 1857W        W65614  43.310  32.554   4.189
 1858W        W65615  19.716   5.746   1.777
 1859W        W65616   3.931   5.749   0.309
 1860W        W65617   9.371  37.855  12.464
 1861W        W65618  34.974  32.039  13.372
 1862W        W65619   2.790  41.533  10.602
 1863W        W65620   5.435  33.104   4.738
 1864W        W65621   6.694  36.872   2.782
 1865W        W65622   7.729  13.818   4.672
 1866W        W65623  43.420  37.836   1.370
 1867W        W65624  34.079   7.835   4.265
 1868W        W65625  17.693  25.495  12.486
 1869W        W65626   2.857  38.870  12.361
 1870W        W65627   3.715  13.815   0.383
 1871W        W65628  11.139  19.765   2.757
 1872W        W65629  17.177  33.909   1.283
 1873W        W65630  36.923  42.986   3.769
 1874W        W65631  32.028  35.957   0.362
 1875W        W65632   8.819  44.787   4.116
 1876W        W65633  13.116  26.564  10.137
 1877W        W65634  34.378   6.194  14.967
 1878W        W65635  41.374  38.074   4.708
 1879W        W65636   7.875  24.513  12.529
 1880W        W65637   7.215   4.904   4.827
 1881W        W65638  32.075  42.984   9.921
 1882W        W65639  33.589  41.971   3.666
 1883W        W65640  23.591  18.681   3.203
 1884W        W65641  36.005  37.881  12.461
 1885W        W65642  21.207  41.857  14.829
 1886W        W65643  21.050  20.135   1.752
 1887W        W65644  10.254  28.078  13.929
 1888W        W65645  23.154  37.490   0.285
 1889W        W65646  20.766  16.569  14.352
 1890W        W65647  39.349  42.863  11.481
 1891W        W65648  19.259  32.092   1.331
 1892W        W65649   3.760  14.628  13.021
 1893W        W65650  10.233   1.303  10.971
 1894W        W65651   1.767  23.205   0.285
 1895W        W65652  27.529  43.280   2.901
 1896W        W65653  27.580  23.680   2.350
 1897W        W65654  26.500  31.573  14.291
 1898W        W65655  19.700  43.410   3.702
 1899W        W65656  21.608   8.767   4.194
 1900W        W65657  39.018   5.755  10.977
 1901W        W65658  44.482  30.614   2.743
 1902W        W65659  36.579  10.678  14.510
 1903W        W65660  41.948  13.777  11.577
 1904W        W65661  30.441   1.850  14.863
 1905W        W65662  20.766  40.413  14.021
 1906W        W65663  44.846   6.424  11.901
 1907W        W65664  23.590  35.875  13.442
 1908W        W65665  17.188  36.055  12.088
 1909W        W65666   4.260   7.790  13.822
 1910W        W65667  36.070  37.538   5.263
 1911W        W65668  35.071   8.668   0.926
 1912W        W65669  33.132  24.696  13.312
 1913W        W65670  19.192  39.319  14.323
 1914W        W65671  15.657   3.919   4.235
 1915W        W65672   7.202  11.174  11.557
 1916W        W65673   5.780  30.945   2.834
 1917W        W65674  25.586  43.794  13.370
 1918W        W65675  41.933  11.761  14.397
 1919W        W65676  35.893  40.349   0.269
 1920W        W65677  38.352  16.567   2.206
 1921W        W65678   8.177   3.403  11.424
 1922W        W65679  23.986  30.958  13.860
 1923W        W65680   3.289  38.512  14.301
 1924W        W65681  16.161  27.040   2.837
 1925W        W65682  17.140  20.547  13.944
 1926W        W65683  14.301  11.245   0.308
 1927W        W65684  37.853  39.888   4.615
 1928W        W65685   5.370  21.074  10.937
 1929W        W65686  27.187  11.851   3.322
 1930W        W65687  40.004  21.685   4.729
 1931W        W65688  17.582  24.068  11.602
 1932W        W65689  22.063  35.909   4.118
 1933W        W65690  34.521  44.401   3.303
 1934W        W65691   2.259  32.093   0.733
 1935W        W65692  25.632   8.364  11.945
 1936W        W65693  16.667  20.678   1.367
 1937W        W65694  29.663  26.113  14.414
 1938W        W65695   1.265  27.466  13.910
 1939W        W65696  38.984   3.277  14.863
 1940W        W65697   8.687  20.522   3.707
 1941W        W65698  44.836   9.697   2.682
 1942W        W65699  35.593   1.460   9.602
 1943W        W65700   3.335  15.200  11.925
 1944W        W65701  11.843   2.392   4.352
 1945W        W65702  23.529  29.566   4.221
 1946W        W65703   0.897  27.605   3.635
 1947W        W65704  41.010  42.374   3.242
 1948W        W65705  42.431   0.419  13.532
 1949W        W65706  40.804   8.846   2.821
 1950W        W65707  38.015  35.994   0.828
 1951W        W65708  21.132  13.158  13.004
 1952W        W65709   4.838   3.446  11.071
 1953W        W65710  44.267   5.367   0.918
 1954W        W65711   2.310   6.726   1.378
 1955W        W65712  15.121  35.047  12.860
 1956W        W65713  22.013  13.707   3.150
 1957W        W65714  22.239  30.451   4.645
 1958W        W65715   7.801   1.815   0.320
 1959W        W65716  29.605  30.945   3.295
 1960W        W65717  34.039  34.581  14.284
 1961W        W65718  41.948  17.135  13.830
 1962W        W65719   8.667  29.152  12.475
 1963W        W65720  41.318  40.979   2.713
 1964W        W65721  23.515  16.739   3.783
 1965W        W65722  36.397  15.683   1.784
 1966W        W65723  29.479   0.749   4.658
 1967W        W65724  10.878   5.214   3.381
 1968W        W65725   3.261   9.255  12.897
 1969W        W65726  16.567  29.943   1.780
 1970W        W65727   0.833  24.025  10.898
 1971W        W65728  10.759  27.983  12.014
 1972W        W65729  25.554   8.715   5.237
 1973W        W65730  24.160  30.596   0.298
 1974W        W65731  27.995  32.396   4.764
 1975W        W65732  23.161  41.938  11.393
 1976W        W65733   7.797  14.207   1.923
 1977W        W65734  18.162   1.887  11.417
 1978W        W65735   8.349  41.989  11.555
 1979W        W65736  43.859  23.734   4.748
 1980W        W65737  22.637  34.416   4.250
 1981W        W65738   6.749   9.864  11.104
 1982W        W65739   5.914   4.936   1.742
 1983W        W65740  17.714   4.718  12.473
 1984W        W65741   6.261  18.081   2.238
 1985W        W65742   5.744   0.907  13.023
 1986W        W65743  33.507  26.684   4.115
 1987W        W65744  15.589  29.624  10.929
 1988W        W65745  18.779  41.506   1.418
 1989W        W65746  21.576  37.898   0.755
 1990W        W65747  33.383  41.513   1.372
 1991W        W65748  38.825  19.596   2.703
 1992W        W65749  24.174  34.372   4.745
 1993W        W65750  12.324  17.650   4.827
 1994W        W65751   3.778   7.287  11.095
 1995W        W65752  10.374  13.839  11.065
 1996W        W65753  31.438  31.070  12.581
 1997W        W65754  13.727  19.571  11.514
 1998W        W65755  22.639  38.897   0.248
 1999W        W65756  44.833   3.862   2.261
 2000W        W65757  23.220  38.366  12.397
 2001W        W65758  13.170  33.517  10.448
 2002W        W65759  17.132  12.654  12.358
 2003W        W65760  41.517  19.704   1.330
 2004W        W65761   6.886  40.515  13.928
 2005W        W65762  34.571  14.244   1.441
 2006W        W65763  12.847  14.274   5.088
 2007W        W65764  11.343  31.437   4.738
 2008W        W65765  38.381  36.956  14.482
 2009W        W65766   5.308   6.845  12.842
 2010W        W65767  12.770  11.217  11.444
 2011W        W65768  28.036  24.197   3.763
 2012W        W65769  20.535   5.243  14.857
 2013W        W65770  10.334   8.683   1.336
 2014W        W65771  20.257  24.602  10.936
 2015W        W65772   9.273   2.462  14.876
 2016W        W65773  38.046  20.751   0.267
 2017W        W65774  27.946  12.659   4.751
 2018W        W65775  19.226  24.154  14.465
 2019W        W65776  18.138  25.168   1.883
 2020W        W65777  43.285  26.547  11.884
 2021W        W65778  35.431   1.873   4.679
 2022W        W65779  24.198   3.882   3.224
 2023W        W65780  13.728  14.281  13.958
 2024W        W65781  11.689  42.381  14.332
 2025W        W65782  22.041  30.948  14.960
 2026W        W65783   1.427  31.917   1.793
 2027W        W65784  44.377   5.377   2.214
 2028W        W65785   0.981   9.157   1.270
 2029W        W65786  11.244   7.669   2.814
 2030W        W65787  27.173  15.293   3.249
 2031W        W65788  12.322  38.551  10.463
 2032W        W65789   7.802  18.594  11.082
 2033W        W65790  34.579  31.538  12.349
 2034W        W65791   9.317  18.294   3.831
 2035W        W65792  44.371  25.977   4.676
 2036W        W65793  22.095  10.354   1.341
 2037W        W65794  21.751  40.398   0.425
 2038W        W65795  22.568  28.081   5.170
 2039W        W65796  16.593  40.919  14.423
 2040W        W65797  36.964  10.806   2.338
 2041W        W65798  32.116   4.716  13.000
 2042W        W65799  24.118  24.666  13.796
 2043W        W65800  42.867  29.996   2.183
 2044W        W65801  21.141  24.127  10.639
 2045W        W65802   6.808  34.521   4.793
 2046W        W65803  26.470  32.504  11.435
 2047W        W65804  43.336  12.645   3.246
 2048W        W65805  20.069  42.511  10.960
 2049W        W65806  18.673  16.615   4.746
 2050W        W65807  44.910   8.202  10.908
 2051W        W65808   6.298   0.258   2.340
 2052W        W65809  14.272  40.867   0.277
 2053W        W65810  17.095  33.946  14.841
 2054W        W65811   4.873  22.678   9.986
 2055W        W65812  21.095  36.979  12.519
 2056W        W65813  26.635  20.065  13.984
 2057W        W65814  26.157  16.631   2.690
 2058W        W65815  29.575   4.859  13.419
 2059W        W65816  19.563  13.719  14.852
 2060W        W65817  20.564  20.265   3.673
 2061W        W65818  24.695   4.909  12.407
 2062W        W65819  21.572  44.296   1.707
 2063W        W65820  24.528  25.109   1.848
 2064W        W65821  17.176  35.855  14.008
 2065W        W65822  39.510  10.172   0.363
 2066W        W65823   8.388  16.702   0.479
 2067W        W65824  24.012   6.701   4.728
 2068W        W65825  41.928   8.714   1.378
 2069W        W65826   8.820  11.340  10.089
 2070W        W65827   6.273  34.464  13.037
 2071W        W65828   5.392  32.573  14.813
 2072W        W65829  29.934   5.195   2.863
 2073W        W65830  40.481  37.031  11.098
 2074W        W65831  28.060  23.204  12.083
 2075W        W65832  17.082   2.347   3.370
 2076W        W65833  42.948   4.322   2.760
 2077W        W65834  37.339  39.910   4.275
 2078W        W65835  34.463  43.918  11.476
 2079W        W65836  35.476  34.375   2.220
 2080W        W65837  15.637  41.872   3.760
 2081W        W65838  22.093  44.384  10.905
 2082W        W65839  22.735  15.801   2.361
 2083W        W65840  39.411  41.452  10.424
 2084W        W65841  40.812  20.554  13.995
 2085W        W65842  42.523  31.981  10.554
 2086W        W65843  28.674  19.062  14.997
 2087W        W65844  14.609  36.018   1.812
 2088W        W65845  19.073  17.214   3.184
 2089W        W65846   7.300   2.369  11.540
 2090W        W65847  18.149  20.221   2.877
 2091W        W65848  42.015   1.933  11.990
 2092W        W65849  43.982  42.780   0.307
 2093W        W65850  35.104   7.220   0.924
 2094W        W65851  16.683   9.356   1.280
 2095W        W65852  19.103  24.192   2.350
 2096W        W65853   1.957  39.844  11.930
 2097W        W65854   7.799  28.526  13.497
 2098W        W65855   3.236  43.354   5.136
 2099W        W65856  12.693  17.236  11.605
 2100W        W65857  42.922  25.168  13.914
 2101W        W65858  15.200  23.658   1.882
 2102W        W65859   5.778  16.238   3.711
 2103W        W65860  15.671  21.231   0.893
 2104W        W65861  25.207  41.425  14.832
 2105W        W65862   0.260  38.069   4.696
 2106W        W65863  26.065  37.054  12.437
 2107W        W65864  14.336   5.352   0.311
 2108W        W65865  16.100   2.785   2.846
 2109W        W65866  15.635   2.896  14.277
 2110W        W65867   3.379   4.776   2.793
 2111W        W65868  37.910   0.262  10.565
 2112W        W65869  20.242  33.083   5.143
 2113W        W65870  25.208  20.111   0.413
 2114W        W65871   0.288  27.458  10.505
 2115W        W65872  32.006  10.305   2.849
 2116W        W65873  21.574  13.158  13.041
 2117W        W65874  28.181  38.399  11.981
 2118W        W65875  19.555  24.556  13.851
 2119W        W65876  28.134   6.216  10.109
 2120W        W65877  34.603  40.040   3.362
 2121W        W65878   1.444  17.173  11.070
 2122W        W65879  19.605  43.918   1.401
 2123W        W65880  24.189   5.230  13.826
 2124W        W65881  34.395  41.337   3.721
 2125W        W65882  17.252  21.610  12.979
 2126W        W65883  12.354  15.143  14.462
 2127W        W65884  16.605   2.770   3.759
 2128W        W65885   3.766  32.570  11.046
 2129W        W65886  15.776  21.069  14.970
 2130W        W65887  18.580  38.901  10.140
 2131W        W65888  24.671  26.576   2.880
 2132W        W65889   9.165  19.675   1.887
 2133W        W65890   4.339  36.484  11.485
 2134W        W65891  10.724  33.940   4.140
 2135W        W65892  34.036  36.850  11.066
 2136W        W65893  19.146  19.064  13.509
 2137W        W65894   5.307  35.432   3.806
 2138W        W65895  36.880  38.361  14.806
 2139W        W65896  23.543  29.481  11.577
 2140W        W65897   7.844  35.039  13.374
 2141W        W65898  35.358  33.116  14.912
 2142W        W65899  17.304  42.391   4.696
 2143W        W65900  16.768   5.335   1.332
 2144W        W65901  38.992   1.761  14.817
 2145W        W65902  40.972  28.553   4.259
 2146W        W65903  29.473  32.103   4.281
 2147W        W65904  16.190   5.403   2.406
 2148W        W65905  20.241  15.199   5.280
 2149W        W65906   8.389  42.416   4.804
 2150W        W65907   4.913  12.142  12.354
 2151W        W65908  40.856  11.370   3.295
 2152W        W65909  36.527   6.356  11.588
 2153W        W65910  17.787  29.091  10.545
 2154W        W65911  28.072  22.062  12.460
 2155W        W65912  44.970  27.666   1.338
 2156W        W65913   8.848  43.382   4.349
 2157W        W65914  33.579  40.830  11.591
 2158W        W65915  24.714  11.807  11.521
 2159W        W65916   7.389  33.609   1.327
 2160W        W65917   8.270  39.043   0.372
 2161W        W65918   2.227  27.620   4.256
 2162W        W65919  43.414  38.017  13.399
 2163W        W65920   4.922  32.512   4.294
 2164W        W65921  26.681  17.656  12.007
 2165W        W65922  38.911  42.808   4.265
 2166W        W65923  36.848  44.426   4.791
 2167W        W65924  33.984   1.946   3.683
 2168W        W65925  22.210   9.312  11.538
 2169W        W65926   1.351  12.237  14.914
 2170W        W65927  33.554   6.906   4.225
 2171W        W65928  26.683  42.929   2.666
 2172W        W65929  10.235  10.680  11.373
 2173W        W65930  16.241   6.230   2.825
 2174W        W65931  24.030  16.242   0.351
 2175W        W65932  28.109  17.100   2.240
 2176W        W65933  26.187  12.140   0.902
 2177W        W65934   5.417  37.945  12.997
 2178W        W65935  34.886   5.715   3.869
 2179W        W65936  41.005  17.278   2.208
 2180W        W65937  42.912   0.963   2.901
 2181W        W65938  23.575  21.060  12.364
 2182W        W65939   3.369  40.808  13.372
 2183W        W65940  19.223   2.963  11.425
 2184W        W65941  42.899  37.837   4.638
 2185W        W65942   9.267   5.891   0.306
 2186W        W65943  12.189  34.876  14.441
 2187W        W65944  20.700  21.757  13.365
 2188W        W65945  17.087  25.128  13.309
 2189W        W65946   9.652   3.256  10.582
 2190W        W65947  16.630  24.166   0.470
 2191W        W65948   1.469  29.636   2.781
 2192W        W65949  22.124  38.480  10.998
 2193W        W65950   5.311  41.523   0.265
 2194W        W65951   3.287  15.674  11.943
 2195W        W65952  15.604  14.636   2.790
 2196W        W65953  38.909   9.240   1.743
 2197W        W65954  30.012  18.565   0.777
 2198W        W65955   7.806  35.952   0.773
 2199W        W65956   4.281  22.162  12.520
 2200W        W65957  16.576   1.757   5.699
 2201W        W65958  39.054  39.864   1.353
 2202W        W65959  21.515  36.452   2.895
 2203W        W65960  39.895  11.642   0.312
 2204W        W65961  24.076  32.109   5.281
 2205W        W65962  39.476  36.904  14.998
 2206W        W65963   3.912  14.758  11.039
 2207W        W65964  37.513  36.369  14.479
 2208W        W65965  26.611  35.884  10.573
 2209W        W65966   4.243  22.682   1.844
 2210W        W65967  13.789  23.506  13.041
 2211W        W65968  43.461  20.570   1.276
 2212W        W65969  15.110  26.529   0.918
 2213W        W65970  11.699  36.871   3.820
 2214W        W65971  40.378  42.933  10.500
 2215W        W65972  28.979  35.011  13.926
 2216W        W65973  13.272  40.407  12.991
 2217W        W65974  38.430  15.736   3.216
 2218W        W65975  44.359   9.229  14.024
 2219W        W65976  32.098   1.391  11.482
 2220W        W65977  37.515  10.737  11.491
 2221W        W65978  16.693  42.946  13.516
 2222W        W65979   6.199  31.520   1.725
 2223W        W65980   5.241  43.001   3.247
 2224W        W65981  36.980  31.966  13.408
 2225W        W65982  39.948  34.899  14.777
 2226W        W65983   2.868  12.202  12.000
 2227W        W65984  17.242   8.221   4.153
 2228W        W65985  40.810   3.397   0.861
 2229W        W65986  37.407  12.209  13.327
 2230W        W65987  22.619  36.525  14.977
 2231W        W65988  39.825  30.928  11.505
 2232W        W65989  44.839  28.654  11.549
 2233W        W65990  11.643  13.334  13.492
 2234W        W65991  34.443  42.353   2.211
 2235W        W65992  40.018  44.831  12.023
 2236W        W65993  40.328  35.040  14.465
 2237W        W65994   8.322  24.120   4.317
 2238W        W65995  15.620  22.531  11.496
 2239W        W65996  28.540  28.172   3.321
 2240W        W65997  20.130   4.844  12.411
 2241W        W65998   3.395  31.044  11.417
 2242W        W65999  24.642  39.485  11.003
 2243W        W66000  24.494  44.347  11.970
 2244W        W66001  20.063  39.518  12.842
 2245W        W66002  24.209   4.888   4.320
 2246W        W66003  40.037   9.364   3.335
 2247W        W66004  38.404  18.669  11.075
 2248W        W66005   6.818   0.909  13.311
 2249W        W66006   5.238   3.804  10.960
 2250W        W66007  35.879  12.266   1.249
 2251W        W66008   9.673  12.306   1.754
 2252W        W66009  17.772   4.446  12.555
 2253W        W66010  10.685  14.282   4.174
 2254W        W66011   4.375  29.452  11.895
 2255W        W66012  21.757  10.795  11.610
 2256W        W66013  30.643  15.680  10.510
 2257W        W66014   8.883   8.329   3.204
 2258W        W66015  11.851  26.575  10.903
 2259W        W66016  31.148   2.908   3.739
 2260W        W66017  41.403   7.377   0.835
 2261W        W66018  12.671  25.082   0.790
 2262W        W66019  28.094   6.196  14.834
 2263W        W66020  44.980  22.204   2.419
 2264W        W66021  26.609  36.014   0.922
 2265W        W66022  12.623  10.168   0.459
 2266W        W66023  10.284  32.096  11.922
 2267W        W66024  32.042  42.942   5.169
 2268W        W66025  15.157  40.824   0.792
 2269W        W66026  10.329  29.639   2.201
 2270W        W66027  41.490  25.048   4.790
 2271W        W66028  32.989  26.994   1.729
 2272W        W66029  30.598  21.023   3.177
 2273W        W66030  27.616   9.872   4.207
 2274W        W66031  23.064  43.445  13.845
 2275W        W66032  10.144  44.002   4.805
 2276W        W66033  21.182   5.286  10.526
 2277W        W66034  39.044  42.811   1.318
 2278W        W66035   8.391   2.808   0.820
 2279W        W66036   0.435  39.347  10.936
 2280W        W66037  33.042  25.487   2.896
 2281W        W66038   9.836  14.607   2.873
 2282W        W66039  20.636   7.288   3.386
 2283W        W66040  24.638  35.984   0.463
 2284W        W66041   5.811  27.547  14.343
 2285W        W66042  13.319  30.443  12.973
 2286W        W66043  35.065  34.921  11.928
 2287W        W66044  29.063  29.456   3.151
 2288W        W66045   9.210   3.805   1.752
 2289W        W66046  37.579  26.595   3.857
 2290W        W66047  26.185  27.512   3.157
 2291W        W66048  37.426  43.394  10.496
 2292W        W66049   3.453  36.381  14.398
 2293W        W66050   9.834  38.460  11.932
 2294W        W66051  15.111  25.578   4.296
 2295W        W66052  31.931  13.344   4.633
 2296W        W66053  14.832   0.855   1.420
 2297W        W66054  35.016  26.613  12.348
 2298W        W66055   4.269  21.593   3.800
 2299W        W66056  39.017  14.234   1.800
 2300W        W66057  26.046  42.983  13.450
 2301W        W66058  28.060  43.800   1.240
 2302W        W66059  10.708  22.729  14.865
 2303W        W66060  28.029   8.401   0.737
 2304W        W66061  24.104  14.732  10.631
 2305W        W66062  38.044  41.336   3.829
 2306W        W66063  14.677  41.793   2.352
 2307W        W66064   8.849   4.319   2.377
 2308W        W66065  38.065  19.566   3.224
 2309W        W66066  28.571  10.337   4.288
 2310W        W66067  43.847  36.923   2.785
 2311W        W66068  40.881  18.769   0.893
 2312W        W66069   0.931  26.109   1.317
 2313W        W66070  15.215   6.695  10.415
 2314W        W66071  11.728  17.096   9.972
 2315W        W66072   4.907  10.229   1.306
 2316W        W66073   1.287  23.598  13.890
 2317W        W66074  40.924  15.182   2.355
 2318W        W66075  42.779  26.658  11.462
 2319W        W66076  38.916  39.814   3.273
 2320W        W66077  42.337  15.289   2.311
 2321W        W66078  23.987   1.903  14.795
 2322W        W66079  27.571  26.629  11.077
 2323W        W66080  39.931  34.582   0.478
 2324W        W66081  28.183   8.747   2.736
 2325W        W66082  34.966  30.954   3.749
 2326W        W66083  18.711  11.749  14.330
 2327W        W66084   3.432   2.398  14.292
 2328W        W66085  29.968  40.353  14.389
 2329W        W66086   9.270  42.856  10.151
 2330W        W66087  43.873  20.756  12.374
 2331W        W66088   6.692  29.060  11.584
 2332W        W66089  31.152  30.987  12.977
 2333W        W66090  16.779  30.569  14.772
 2334W        W66091  43.914   7.387   3.797
 2335W        W66092  26.554   4.224   2.267
 2336W        W66093  17.260   0.468  13.972
 2337W        W66094  39.348   1.260  13.367
 2338W        W66095   7.701  29.008   3.735
 2339W        W66096   3.287   5.228   3.335
 2340W        W66097   6.786  33.117   4.631
 2341W        W66098  27.488  29.539  12.515
 2342W        W66099  21.728  27.054  14.937
 2343W        W66100  25.639  11.215  11.090
 2344W        W66101  16.086   8.897  11.858
 2345W        W66102  30.483  33.131  11.436
 2346W        W66103   8.878  22.022   0.879
 2347W        W66104  31.627  16.603  14.948
 2348W        W66105  17.072  42.898  11.995
 2349W        W66106  34.072   8.318  11.413
 2350W        W66107  37.977   5.228   3.172
 2351W        W66108  13.712  12.649   0.943
 2352W        W66109   5.247   0.823   2.249
 2353W        W66110   8.312  30.535  13.993
 2354W        W66111  28.459  31.618   0.945
 2355W        W66112  41.325  26.637  12.982
 2356W        W66113  21.737   7.375   3.782
 2357W        W66114  43.829  36.506   0.895
 2358W        W66115  25.076  17.788  13.847
 2359W        W66116  22.528  38.424   4.761
 2360W        W66117  43.466  27.015  13.948
 2361W        W66118   7.255  34.078   0.895
 2362W        W66119  17.717  19.204   1.728
 2363W        W66120  36.013  35.427   0.469
 2364W        W66121  44.305  44.305  14.772
 2365W        W66122  41.506   4.755  13.527
 2366W        W66123   6.412  37.385  10.451
 2367W        W66124  22.642  40.929   2.801
 2368W        W66125  12.289  30.578  14.848
 2369W        W66126  19.671  43.771   3.223
 2370W        W66127   8.197  21.658   4.162
 2371W        W66128  36.474  12.703   0.915
 2372W        W66129  42.005  14.830  12.995
 2373W        W66130  30.464  15.274  10.439
 2374W        W66131  12.225  27.627   2.397
 2375W        W66132  27.528   8.777  11.884
 2376W        W66133   6.263  11.663   3.243
 2377W        W66134  44.010  11.221   2.392
 2378W        W66135   2.317  29.138   1.699
 2379W        W66136  11.799  36.955   1.805
 2380W        W66137  42.951  16.775   3.861
 2381W        W66138  33.974  24.488  11.878
 2382W        W66139  22.156  14.153  13.925
 2383W        W66140  18.218  43.893  10.930
 2384W        W66141   5.367  18.556  10.618
 2385W        W66142  10.353  35.521  13.313
 2386W        W66143  44.994  11.800  12.825
 2387W        W66144  40.465  38.978   4.770
 2388W        W66145  16.738   5.895   3.787
 2389W        W66146  11.670  16.158  14.402
 2390W        W66147  19.659  23.229  10.887
 2391W        W66148   5.196  19.733   1.380
 2392W        W66149  39.834  20.113   2.814
 2393W        W66150  42.863  39.530  11.988
 2394W        W66151  13.326   4.392   2.375
 2395W        W66152  11.767  36.890  11.454
 2396W        W66153  17.794  35.972  13.995
 2397W        W66154   9.716  21.098  12.568
 2398W        W66155  16.256  33.493  13.807
 2399W        W66156  17.602  12.118   0.470
 2400W        W66157  18.180  37.445   4.322
 2401W        W66158  40.952  14.718  14.408
 2402W        W66159   2.864   4.383  13.352
 2403W        W66160  34.878   8.348   3.790
 2404W        W66161  15.276   7.725   1.723
 2405W        W66162  31.427   1.336   5.591
 2406W        W66163  43.437  31.108   4.768
 2407W        W66164  22.228  13.189   0.483
 2408W        W66165   2.747   5.344  13.811
 2409W        W66166  16.678   1.753  14.893
 2410W        W66167  28.568  25.605  10.453
 2411W        W66168  23.507  20.164  14.758
 2412W        W66169  14.759  34.037   3.340
 2413W        W66170   7.405   5.428   1.712
 2414W        W66171  24.092  17.300   2.319
 2415W        W66172  31.899   2.864  10.038
 2416W        W66173  37.992  14.122  11.059
 2417W        W66174   9.756  40.310  10.485
 2418W        W66175  40.026   6.271  12.570
 2419W        W66176   5.929   4.722  11.068
 2420W        W66177   9.206  26.606  13.907
 2421W        W66178  19.258  43.823  12.516
 2422W        W66179  38.959  27.592   1.930
 2423W        W66180  27.987  42.850  14.025
 2424W        W66181  32.051  43.407   2.401
 2425W        W66182   0.962  40.831  11.891
 2426W        W66183  20.524  44.409  10.406
 2427W        W66184   0.972   4.755   4.615
 2428W        W66185   6.252  12.716   3.826
 2429W        W66186   5.771  21.087  13.927
 2430W        W66187  32.485  29.601   2.343
 2431W        W66188  23.550  43.350   4.705
 2432W        W66189  17.292  23.551  14.972
 2433W        W66190  43.316   9.737   4.169
 2434W        W66191  40.425  32.079   3.857
 2435W        W66192  37.340  18.280   1.799
 2436W        W66193   4.919   4.916   3.147
 2437W        W66194   9.214  21.549  13.327
 2438W        W66195   2.941   1.823  11.519
 2439W        W66196  28.972  15.662   0.432
 2440W        W66197   0.902  29.607  11.573
 2441W        W66198  33.008  34.598   3.868
 2442W        W66199  14.284  24.062   4.145
 2443W        W66200  22.655   3.887  12.881
 2444W        W66201  33.462  36.093  12.042
 2445W        W66202  25.681  34.419   3.167
 2446W        W66203  14.211   6.390  11.867
 2447W        W66204  17.155  34.600   2.392
 2448W        W66205  38.062  24.994   3.813
 2449W        W66206  22.722   1.778   2.804
 2450W        W66207  40.520  20.749  12.096
 2451W        W66208  31.484  20.768   1.914
 2452W        W66209  32.923  19.680  10.957
 2453W        W66210  17.301  29.640  12.020
 2454W        W66211   9.271  19.585   9.551
 2455W        W66212  34.456   1.875  11.531
 2456W        W66213  41.349  10.165   0.482
 2457W        W66214   0.332  26.104  13.459
 2458W        W66215  25.597  32.615   4.180
 2459W        W66216   1.271  13.231  12.089
 2460W        W66217  39.915  28.182   4.316
 2461W        W66218  26.524  37.564   2.354
 2462W        W66219  43.445  17.800  11.510
 2463W        W66220  28.097  13.739  14.312
 2464W        W66221  40.798  43.396   0.424
 2465W        W66222  15.727  27.102  14.932
 2466W        W66223  40.347  34.906   3.810
 2467W        W66224  38.559  40.328   4.787
 2468W        W66225   4.361   6.822  14.278
 2469W        W66226  16.713   4.448  13.380
 2470W        W66227   2.880  23.080  12.477
 2471W        W66228  18.742  25.510   4.683
 2472W        W66229  37.903  42.837  12.966
 2473W        W66230   4.829  17.691  11.866
 2474W        W66231  25.969  33.387  11.945
 2475W        W66232  30.019  15.150  14.401
 2476W        W66233  42.015   0.471  11.567
 2477W        W66234  41.010   0.913  11.934
 2478W        W66235  14.716  35.025  13.958
 2479W        W66236  30.526  35.438   1.811
 2480W        W66237  35.069  20.263  10.486
 2481W        W66238  23.503  20.691  13.360
 2482W        W66239  27.635  22.133  12.944
 2483W        W66240  18.610  23.546  10.440
 2484W        W66241   6.339   7.196   0.741
 2485W        W66242  10.664  36.006   3.652
 2486W        W66243  19.140  25.206   2.855
 2487W        W66244  24.106  23.231  12.494
 2488W        W66245   7.297  39.975   2.364
 2489W        W66246  32.104  36.513  14.388
 2490W        W66247  32.458  44.756   2.801
 2491W        W66248  24.614  29.636  11.048
 2492W        W66249  14.168  14.094  12.357
 2493W        W66250   7.667  13.118  12.083
 2494W        W66251  32.066  13.790   3.657
 2495W        W66252  21.198  14.141  14.922
 2496W        W66253  13.683   7.727   3.689
 2497W        W66254  18.087  38.989   1.907
 2498W        W66255  18.227  18.735  14.855
 2499W        W66256  19.253  36.013   0.300
 2500W        W66257  43.823   3.798  11.028
 2501W        W66258   3.814  18.606  14.428
 2502W        W66259  11.132   5.426  14.862
 2503W        W66260  22.622  29.577  14.361
 2504W        W66261  16.220  36.525   4.293
 2505W        W66262   9.816   9.763  13.802
 2506W        W66263  33.431  26.494  14.377
 2507W        W66264   4.313  42.872  14.759
 2508W        W66265  44.933   5.284  10.530
 2509W        W66266  10.359  32.007  14.944
 2510W        W66267  37.931  37.406  10.549
 2511W        W66268  17.158  17.190   1.437
 2512W        W66269  28.586  30.617   1.280
 2513W        W66270  42.946  39.349   2.741
 2514W        W66271  30.645  31.494   4.767
 2515W        W66272   5.803  17.280   0.307
 2516W        W66273  44.882  27.967  10.054
 2517W        W66274  30.095  26.134  11.924
 2518W        W66275  16.095  42.354   4.744
 2519W        W66276  24.532  42.813  11.097
 2520W        W66277  38.037  39.560  13.993
 2521W        W66278  10.649  19.285  10.966
 2522W        W66279   1.840  10.221   4.299
 2523W        W66280  21.217  15.228  13.440
 2524W        W66281  43.003  28.672  12.913
 2525W        W66282  17.162   1.450  11.427
 2526W        W66283   6.207  30.943   0.378
 2527W        W66284  30.629  22.561   0.748
 2528W        W66285  28.131  30.637   1.758
 2529W        W66286  29.020   4.773  10.522
 2530W        W66287  32.611  37.506  10.982
 2531W        W66288  16.744  18.630  11.526
 2532W        W66289  13.813  21.109  10.056
 2533W        W66290  33.994   1.752  13.865
 2534W        W66291  44.479  23.716  11.415
 2535W        W66292  14.265  20.607  14.922
 2536W        W66293  10.759  29.936   4.138
 2537W        W66294  41.295  21.225  10.979
 2538W        W66295  13.216  36.099   2.801
 2539W        W66296   6.824   4.900   3.641
 2540W        W66297  23.096  37.479  12.040
 2541W        W66298  43.900   3.418   5.132
 2542W        W66299  33.423  43.961  11.858
 2543W        W66300   9.353  15.622  14.860
 2544W        W66301  42.785  41.529   2.395
 2545W        W66302  32.454  35.518  12.853
 2546W        W66303  36.009  22.662  12.427
 2547W        W66304   2.790  22.732   1.894
 2548W        W66305   2.373   6.207   2.727
 2549W        W66306   9.264  24.179   4.674
 2550W        W66307   8.190   2.804   4.284
 2551W        W66308  23.103  43.816   0.381
 2552W        W66309   4.249  23.120   2.302
 2553W        W66310  15.213   7.704  13.394
 2554W        W66311  12.230   7.877  12.088
 2555W        W66312  24.139  20.094  12.529
 2556W        W66313   1.895  36.552   2.751
 2557W        W66314  14.187  44.453  11.427
 2558W        W66315  22.727  28.048   2.398
 2559W        W66316  44.402  39.874  10.992
 2560W        W66317  30.604   5.704   2.242
 2561W        W66318  19.253   7.703  14.840
 2562W        W66319  27.536  32.099  13.801
 2563W        W66320  44.368  41.520  13.855
 2564W        W66321  25.677  34.589  11.463
 2565W        W66322  42.029   9.331   2.879
 2566W        W66323  38.832   8.365   3.150
 2567W        W66324  33.124  37.338  11.993
 2568W        W66325   6.194  42.829   0.848
 2569W        W66326  39.043  44.430  10.610
 2570W        W66327  21.704  16.100  10.588
 2571W        W66328  17.184  25.515   4.681
 2572W        W66329  20.240  16.675   4.672
 2573W        W66330  23.597  33.039   2.793
 2574W        W66331  13.329  12.695   0.255
 2575W        W66332   5.290  40.835   5.800
 2576W        W66333  40.430  33.492   3.713
 2577W        W66334  11.726  14.618  10.460
 2578W        W66335  26.566  29.470  10.999
 2579W        W66336  30.556  23.097   0.942
 2580W        W66337  43.414  36.929   1.290
 2581W        W66338   0.357  23.023   1.373
 2582W        W66339   4.312   3.718   4.287
 2583W        W66340  38.430  43.468   3.796
 2584W        W66341  20.768  39.488   2.228
 2585W        W66342  20.030  42.498   1.837
 2586W        W66343   0.380  42.411  13.918
 2587W        W66344  13.751  20.763   2.793
 2588W        W66345  28.143  26.956  11.509
 2589W        W66346   5.310  23.643  12.514
 2590W        W66347   1.959  17.093  13.462
 2591W        W66348  20.700  12.309   1.286
 2592W        W66349  27.031  23.706   4.192
 2593W        W66350  39.044  12.653   0.809
 2594W        W66351  24.627   0.411  10.589
 2595W        W66352  26.071  43.491   0.313
 2596W        W66353  44.877   6.828   4.121
 2597W        W66354  27.162  30.506  13.985
 2598W        W66355  42.408  14.810   2.318
 2599W        W66356   1.272  11.807   2.686
 2600W        W66357  28.643  33.036  11.017
 2601W        W66358   6.867  18.078   3.371
 2602W        W66359  23.241  18.091   4.263
 2603W        W66360   7.239  24.021   0.481
 2604W        W66361  38.022  12.662  11.938
 2605W        W66362  35.109   1.276   3.820
 2606W        W66363   3.279  13.198  12.073
 2607W        W66364  41.004   8.390  14.328
 2608W        W66365  42.372  23.009  14.837
 2609W        W66366  22.715  29.478   3.734
 2610W        W66367   1.333   4.441   3.783
 2611W        W66368  34.104  27.168  11.437
 2612W        W66369  29.624  41.882   0.795
 2613W        W66370  12.649  23.079  14.958
 2614W        W66371  24.601  43.934   1.255
 2615W        W66372  38.864   4.876   1.889
 2616W        W66373  29.175  17.721  12.892
 2617W        W66374  16.164  39.910  11.527
 2618W        W66375   8.781  26.148  13.431
 2619W        W66376  21.648  13.788  14.513
 2620W        W66377  15.189   5.352  11.858
 2621W        W66378   6.391  18.169  13.422
 2622W        W66379  37.340  16.153   0.789
 2623W        W66380  33.624   1.793  11.979
 2624W        W66381  43.468  42.420  11.990
 2625W        W66382  38.052  28.573  13.909
 2626W        W66383  34.009  44.430   4.600
 2627W        W66384  42.305   7.752  10.533
 2628W        W66385  43.812  27.589   2.404
 2629W        W66386  14.145  13.157   2.321
 2630W        W66387   7.877  41.471   3.158
 2631W        W66388  29.494  35.471   0.411
 2632W        W66389  34.586  32.945  13.511
 2633W        W66390  14.263  13.254  14.385
 2634W        W66391  42.524  43.917  10.477
 2635W        W66392  23.687  35.358   3.339
 2636W        W66393   6.366  28.042  11.382
 2637W        W66394  22.113   2.424   0.875
 2638W        W66395   7.906  25.143  14.345
 2639W        W66396  40.386  37.520   1.725
 2640W        W66397  13.203  25.536   3.863
 2641W        W66398  33.527  27.584   2.334
 2642W        W66399   8.788   7.350   0.886
 2643W        W66400  17.717  25.588  10.505
 2644W        W66401   6.814  42.784   4.623
 2645W        W66402   9.744  22.209  14.412
 2646W        W66403   6.352  38.364   1.715
 2647W        W66404   7.296  35.555  11.571
 2648W        W66405  32.930  30.108  12.980
 2649W        W66406  23.547  25.647   2.879
 2650W        W66407  20.665  25.600  14.362
 2651W        W66408   8.182  16.157   3.645
 2652W        W66409   7.254  15.584   0.870
 2653W        W66410  21.076  20.102  12.035
 2654W        W66411  18.143  26.073   0.760
 2655W        W66412  25.048  28.005  10.636
 2656W        W66413  27.012  34.894   3.158
 2657W        W66414  44.443  31.049   3.838
 2658W        W66415   6.920  14.617   3.208
 2659W        W66416  25.623  22.623   2.729
 2660W        W66417  32.550  18.599   2.187
 2661W        W66418   3.372  14.190   4.724
 2662W        W66419  34.576  25.154  10.406
 2663W        W66420  39.508  32.490   0.353
 2664W        W66421  42.884  35.451  11.406
 2665W        W66422  37.477  24.195   2.870
 2666W        W66423   0.295  42.340   3.376
 2667W        W66424  20.098  13.211   4.708
 2668W        W66425  10.704  20.114   4.334
 2669W        W66426  13.650  38.459  14.986
 2670W        W66427  30.486  39.553   4.301
 2671W        W66428  30.992  44.805   4.656
 2672W        W66429  15.093  33.598   2.269
 2673W        W66430   3.908  28.571  11.939
 2674W        W66431   2.815  39.820  10.508
 2675W        W66432   8.372  11.290  14.392
 2676W        W66433  21.653   8.297  10.588
 2677W        W66434  30.163   6.215  12.513
 2678W        W66435  21.750  31.519   0.776
 2679W        W66436  37.518  32.522   3.725
 2680W        W66437  17.630   2.880  14.510
 2681W        W66438  13.313  33.915  14.348
 2682W        W66439  14.782  44.830  13.343
 2683W        W66440   3.823  22.144  12.055
 2684W        W66441  19.188  41.395   2.837
 2685W        W66442   6.821  37.909   1.797
 2686W        W66443  21.101  33.549   9.446
 2687W        W66444  12.258  12.809  10.955
 2688W        W66445  28.579  15.808   2.738
 2689W        W66446  44.364   3.867   3.192
 2690W        W66447   4.907   8.366  14.321
 2691W        W66448   3.953  25.967   0.392
 2692W        W66449  29.956   1.970   5.163
 2693W        W66450  10.711  14.234  13.479
 2694W        W66451   8.834  36.894  13.840
 2695W        W66452  13.653  44.848   2.339
 2696W        W66453   8.294   9.847   1.696
 2697W        W66454  22.542  43.514  11.521
 2698W        W66455  38.958  26.052  14.454
 2699W        W66456   1.417  20.613  10.964
 2700W        W66457  15.814  13.731   4.166
 2701W        W66458   5.438  22.107   3.365
 2702W        W66459  20.157  25.496  10.599
 2703W        W66460  36.972  19.549   1.407
 2704W        W66461  34.877  26.701  12.047
 2705W        W66462  24.569  22.148  11.054
 2706W        W66463  20.121   5.389   0.791
 2707W        W66464  12.850  13.671  10.422
 2708W        W66465   1.789  43.781   3.818
 2709W        W66466  26.984  28.141  12.550
 2710W        W66467  18.095  15.789   9.497
 2711W        W66468  35.974  35.384  11.947
 2712W        W66469  40.926  19.123  13.849
 2713W        W66470  32.622  27.553   0.457
 2714W        W66471  24.692  39.878   3.181
 2715W        W66472   3.906  27.976   1.370
 2716W        W66473  39.518  28.159   1.793
 2717W        W66474   9.279  38.463   3.860
 2718W        W66475   4.296  28.459  12.917
 2719W        W66476   4.760  27.492  13.460
 2720W        W66477   4.792  19.601   0.890
 2721W        W66478   4.924  35.108   3.864
 2722W        W66479  10.729  28.490  11.017
 2723W        W66480  28.535  44.789  14.491
 2724W        W66481  41.037  40.834  14.330
 2725W        W66482  23.994  28.557  13.465
 2726W        W66483  11.824  31.014   3.193
 2727W        W66484  44.295   6.761   2.412
 2728W        W66485  44.479  40.812   2.222
 2729W        W66486  40.800  13.772   2.316
 2730W        W66487  24.024  28.526  12.414
 2731W        W66488  28.180  11.371  13.391
 2732W        W66489   5.258  12.316   0.389
 2733W        W66490   1.814  13.293  11.884
 2734W        W66491  36.490  24.547   0.873
 2735W        W66492  13.635  41.800  14.325
 2736W        W66493  11.131  13.779  13.855
 2737W        W66494  26.970  11.178  10.496
 2738W        W66495  39.414   8.262  14.379
 2739W        W66496   4.699  24.519  11.087
 2740W        W66497  29.478  31.147  13.501
 2741W        W66498  23.534  19.612   0.396
 2742W        W66499  11.190  33.499  12.497
 2743W        W66500  18.129  36.450  11.394
 2744W        W66501  19.681  16.212   1.428
 2745W        W66502  18.259  34.034  12.997
 2746W        W66503  43.879  43.998  12.034
 2747W        W66504   2.293  43.409   1.352
 2748W        W66505  43.922  22.635   4.769
 2749W        W66506  23.163  24.646  14.772
 2750W        W66507  14.780  25.481   3.737
 2751W        W66508  29.146   2.441   1.811
 2752W        W66509  35.095  34.082   3.699
 2753W        W66510  13.191  23.525  13.051
 2754W        W66511  23.130   3.259   2.205
 2755W        W66512  28.180   6.727   3.801
 2756W        W66513  41.294  14.137  13.947
 2757W        W66514  14.335  30.593  14.478
 2758W        W66515  22.026  35.920  11.898
 2759W        W66516  44.992   4.857   3.259
 2760W        W66517  44.494  36.592  12.958
 2761W        W66518  27.952  23.687  11.938
 2762W        W66519  15.083   2.794  10.553
 2763W        W66520  25.507   5.842   3.698
 2764W        W66521  20.074  27.973  13.354
 2765W        W66522  31.052  41.973   3.735
 2766W        W66523  29.645  25.611   1.284
 2767W        W66524  41.294   9.741   3.830
 2768W        W66525  13.181  15.209   4.325
 2769W        W66526  33.414   1.415  14.321
 2770W        W66527  41.528  18.782   2.866
 2771W        W66528  20.075  38.416   0.413
 2772W        W66529  11.172  43.395   1.228
 2773W        W66530  19.761   1.798  14.430
 2774W        W66531  31.976  15.625  14.288
 2775W        W66532  16.132  39.329   0.483
 2776W        W66533  40.329  25.061   1.804
 2777W        W66534  27.155   0.987   4.637
 2778W        W66535  18.669  14.206   1.815
 2779W        W66536  13.819  12.691  11.063
 2780W        W66537  19.662  44.792  10.600
 2781W        W66538  42.300  15.255   2.768
 2782W        W66539  29.949   7.252  11.996
 2783W        W66540  39.327  41.354  13.412
 2784W        W66541  18.783  14.802   0.935
 2785W        W66542  16.682  36.043   1.268
 2786W        W66543  22.686   7.358   0.465
 2787W        W66544  12.621  18.787   1.736
 2788W        W66545  41.408  28.467  11.479
 2789W        W66546  38.050  11.301  12.835
 2790W        W66547  43.366  30.586   4.712
 2791W        W66548  22.177  36.032  10.630
 2792W        W66549  38.966  17.291   0.309
 2793W        W66550   1.873  37.394  10.586
 2794W        W66551  13.625  18.756   4.132
 2795W        W66552  29.115  16.128   3.286
 2796W        W66553   9.828  35.385  13.355
 2797W        W66554   1.858   2.440  12.827
 2798W        W66555  14.239  17.197  11.114
 2799W        W66556  17.157   7.724   2.754
 2800W        W66557  36.923   0.925   4.298
 2801W        W66558   5.349  39.020   4.799
 2802W        W66559  15.209  38.055   3.261
 2803W        W66560  14.799  42.491   4.142
 2804W        W66561   6.293   1.732   5.265
 2805W        W66562  21.625  27.021   3.670
 2806W        W66563  28.092  22.107  10.508
 2807W        W66564  28.512  21.104   0.316
 2808W        W66565  27.967  23.626  13.310
 2809W        W66566  12.168  34.082  11.592
 2810W        W66567   2.240   7.869  13.333
 2811W        W66568   8.289  31.954  13.421
 2812W        W66569  14.642   9.384  12.523
 2813W        W66570  31.090  40.865  12.367
 2814W        W66571  35.586   4.885  11.447
 2815W        W66572  18.053   5.309   1.707
 2816W        W66573  13.826   5.290  10.412
 2817W        W66574  35.563   0.877   1.893
 2818W        W66575  10.769  21.241  14.940
 2819W        W66576  33.396  40.541   0.374
 2820W        W66577  36.896   9.851  11.421
 2821W        W66578  43.322  40.030   2.318
 2822W        W66579   0.775  42.416  11.437
 2823W        W66580  40.867  33.084  11.985
 2824W        W66581   9.852  41.447   2.200
 2825W        W66582   6.862   2.344   4.294
 2826W        W66583  42.345   1.915  12.398
 2827W        W66584  33.479  10.787   1.429
 2828W        W66585  31.065  11.309  13.377
 2829W        W66586  29.612  30.561   1.352
 2830W        W66587  39.955  25.651   2.291
 2831W        W66588  24.016   7.721  12.879
 2832W        W66589  30.484  32.536   5.236
 2833W        W66590  10.814   7.889   1.848
 2834W        W66591  26.067  43.841  14.016
 2835W        W66592   6.909  19.779  11.498
 2836W        W66593  39.464   9.243  14.432
 2837W        W66594   4.755  26.997  13.449
 2838W        W66595  18.718  21.687  14.927
 2839W        W66596  35.873  17.709   0.337
 2840W        W66597   2.897   4.319   2.882
 2841W        W66598  32.543  10.856   1.401
 2842W        W66599  32.926  27.484   0.363
 2843W        W66600  27.001  25.979   2.283
 2844W        W66601   5.926  28.071   1.704
 2845W        W66602  12.690  20.144  11.461
 2846W        W66603  30.147  27.473   0.889
 2847W        W66604   8.326  17.295  12.072
 2848W        W66605  28.637   5.358   2.680
 2849W        W66606  29.596  31.964   2.799
 2850W        W66607  28.461  19.746   0.287
 2851W        W66608   5.343  41.801  11.890
 2852W        W66609   6.359  30.142  12.957
 2853W        W66610  44.460  44.913   4.287
 2854W        W66611  22.710  21.041   4.138
 2855W        W66612   4.738  22.527   3.786
 2856W        W66613  34.942  42.808   2.198
 2857W        W66614  40.921  32.577   0.278
 2858W        W66615   3.761   1.483   4.190
 2859W        W66616   5.367  26.147  10.426
 2860W        W66617  13.222  40.372   3.294
 2861W        W66618  11.332   1.455  13.521
 2862W        W66619  40.459  31.424  12.487
 2863W        W66620  41.810  10.860  14.442
 2864W        W66621  27.536  25.487  14.490
 2865W        W66622  10.332  10.301   2.241
 2866W        W66623  36.933  42.338   1.790
 2867W        W66624   6.763  11.343   2.826
 2868W        W66625  24.485  11.163   1.421
 2869W        W66626   6.770  35.584   0.384
 2870W        W66627  22.560  21.097  11.976
 2871W        W66628  36.492  25.705  14.003
 2872W        W66629  41.915  36.518   0.911
 2873W        W66630   4.411  26.098  13.384
 2874W        W66631  12.141   4.868  10.147
 2875W        W66632  22.995   2.458   2.265
 2876W        W66633   4.883  13.180  11.871
 2877W        W66634  44.259  13.663   4.835
 2878W        W66635  20.544  34.065   2.748
 2879W        W66636  29.960  21.051  10.047
 2880W        W66637  39.469  13.275  13.356
 2881W        W66638   8.775  26.513   4.702
 2882W        W66639  10.320  35.875  10.446
 2883W        W66640  12.683   3.819  13.410
 2884W        W66641  15.795   2.961   2.672
 2885W        W66642  21.672  21.057  14.403
 2886W        W66643  36.592   9.776  10.416
 2887W        W66644  41.408  39.404   1.704
 2888W        W66645  42.323  21.203  12.394
 2889W        W66646  30.007  35.567  13.861
 2890W        W66647  43.357   4.246  14.371
 2891W        W66648  13.743  25.684  10.616
 2892W        W66649  39.035  16.188  12.864
 2893W        W66650  24.544  28.120  11.402
 2894W        W66651  39.423  27.004   2.870
 2895W        W66652  36.528  39.830   3.194
 2896W        W66653   1.385  39.443   3.662
 2897W        W66654  19.062   4.729   3.829
 2898W        W66655  32.012   5.405  11.104
 2899W        W66656   7.337   8.202   2.289
 2900W        W66657  21.106  25.566   0.785
 2901W        W66658   7.299  43.954   0.885
 2902W        W66659  14.228  36.877   0.777
 2903W        W66660  39.455   3.448   3.228
 2904W        W66661  31.608  37.056   1.236
 2905W        W66662  30.638   9.364   1.377
 2906W        W66663  26.114  41.796  12.931
 2907W        W66664  11.223  20.766   0.422
 2908W        W66665   4.256  41.019  13.332
 2909W        W66666  15.167  23.513   0.792
 2910W        W66667  40.499  36.973  10.634
 2911W        W66668   0.352  33.609  12.449
 2912W        W66669  26.564  23.532   4.334
 2913W        W66670  23.063   4.762   2.673
 2914W        W66671  28.649   7.799  14.869
 2915W        W66672  19.239   0.456  11.920
 2916W        W66673   2.417  36.033   4.297
 2917W        W66674   0.271  10.201   2.396
 2918W        W66675   6.910  10.757  14.278
 2919W        W66676   4.916  41.864  14.514
 2920W        W66677  37.082  43.987  10.913
 2921W        W66678  36.864  20.218   2.249
 2922W        W66679   6.394  11.258  12.056
 2923W        W66680   6.854   2.319  14.860
 2924W        W66681   0.428  25.035  13.488
 2925W        W66682  25.152   4.813  11.961
 2926W        W66683   1.278  22.036  12.919
 2927W        W66684   2.401  30.445  10.495
 2928W        W66685  20.089   2.867   2.827
 2929W        W66686  42.382  21.641   2.780
 2930W        W66687   5.230  16.267  12.959
 2931W        W66688  34.926   3.904   3.842
 2932W        W66689   0.974  28.447  12.578
 2933W        W66690  24.688  21.049  12.404
 2934W        W66691  10.735   5.904   1.244
 2935W        W66692  13.231  15.123  14.371
 2936W        W66693   5.259   6.693  10.585
 2937W        W66694  16.679   3.713  10.906
 2938W        W66695   3.738  37.407  14.360
 2939W        W66696  35.550   3.804   1.708
 2940W        W66697  12.803  42.846   5.274
 2941W        W66698  24.045  32.034   3.385
 2942W        W66699   2.784  34.613   3.792
 2943W        W66700  14.755  40.477  10.468
 2944W        W66701  41.398  12.670   2.316
 2945W        W66702  38.441  44.338  14.374
 2946W        W66703  37.422  15.228   3.847
 2947W        W66704  27.131  26.126   2.839
 2948W        W66705   8.807  10.678   3.244
 2949W        W66706  21.526  15.244  13.339
 2950W        W66707  43.776  24.527   1.419
 2951W        W66708  18.193  18.612  13.426
 2952W        W66709  43.787  43.786   0.772
 2953W        W66710  34.952  17.134  13.806
 2954W        W66711  18.064  14.610  13.309
 2955W        W66712  18.218  35.518  14.030
 2956W        W66713  43.485   9.849  12.070
 2957W        W66714  25.499  33.443   4.822
 2958W        W66715  38.927  31.970  13.823
 2959W        W66716  31.030   8.732   1.742
 2960W        W66717   0.846  40.809  11.524
 2961W        W66718  43.285  22.170  10.905
 2962W        W66719   3.725   4.288   0.386
 2963W        W66720  31.640  15.773   1.845
 2964W        W66721  26.619  41.355  12.996
 2965W        W66722  30.014   2.723  13.511
 2966W        W66723   4.318   9.251   0.335
 2967W        W66724  44.436  20.053  13.535
 2968W        W66725  30.084  32.522   4.684
 2969W        W66726  21.751  14.135   0.886
 2970W        W66727  32.119   7.378   4.732
 2971W        W66728  22.179  13.340  11.866
 2972W        W66729   1.965  40.873  14.964
 2973W        W66730   0.250  25.707   3.687
 2974W        W66731   6.697  16.207  11.464
 2975W        W66732  34.001   9.394   4.681
 2976W        W66733  29.013  25.644  13.327
 2977W        W66734  44.491  37.363   4.287
 2978W        W66735  10.865  31.057   4.333
 2979W        W66736  20.717  35.370  12.962
 2980W        W66737  10.238  14.118   4.330
 2981W        W66738  33.503  43.903   1.901
 2982W        W66739  10.837  19.166   3.761
 2983W        W66740  34.001  16.714   0.422
 2984W        W66741  14.105  34.542   1.711
 2985W        W66742  29.645  25.489   3.212
 2986W        W66743  43.792  36.945  12.877
 2987W        W66744  41.009   6.877   4.671
 2988W        W66745  18.287  21.599   3.368
 2989W        W66746   7.254  15.578  13.401
 2990W        W66747  35.970  13.667   3.651
 2991W        W66748  28.518  23.712  11.446
 2992W        W66749   8.884   5.282  13.372
 2993W        W66750  36.508  14.748   2.261
 2994W        W66751  14.663  21.035   4.767
 2995W        W66752  21.643  18.706  12.349
 2996W        W66753   1.925   7.409   0.845
 2997W        W66754  12.185   6.206  13.356
 2998W        W66755  30.982  14.216   4.248
 2999W        W66756   8.357   2.259  10.930
 3000W        W66757  11.819  38.017   9.990
 3001W        W66758   5.422  31.546   0.854
 3002W        W66759  11.343   4.433  12.511
 3003W        W66760  35.001  12.796  10.898
 3004W        W66761  36.527  27.657   4.220
 3005W        W66762  22.551  20.725  13.351
 3006W        W66763  10.267  16.154   4.141
 3007W        W66764  10.229  26.067   4.225
 3008W        W66765   3.290  32.602   2.212
 3009W        W66766  38.948  40.974  13.046
 3010W        W66767   4.277   7.314   2.782
 3011W        W66768  15.739   8.369  13.892
 3012W        W66769  20.581  25.698  13.355
 3013W        W66770  22.604  27.161   1.805
 3014W        W66771  15.237  26.999  14.508
 3015W        W66772  23.714  35.586  10.641
 3016W        W66773  31.919  25.088  12.067
 3017W        W66774  34.426  11.768   0.305
 3018W        W66775  24.184  40.303  10.978
 3019W        W66776  16.237   1.255   1.895
 3020W        W66777  42.450  13.680   4.215
 3021W        W66778  13.131   8.243   2.872
 3022W        W66779  42.319  39.937   3.665
 3023W        W66780  24.204  34.956   5.190
 3024W        W66781  20.160  13.190   3.250
 3025W        W66782   5.691  33.108  11.117
 3026W        W66783   6.282  29.612   4.237
 3027W        W66784  21.643  16.242   2.745
 3028W        W66785  13.830  43.926   0.349
 3029W        W66786  27.499   2.328  12.419
 3030W        W66787  33.411  27.146  14.788
 3031W        W66788  13.283  17.273   4.838
 3032W        W66789  34.872   3.847   1.377
 3033W        W66790  27.684  44.962  11.394
 3034W        W66791  11.234  42.361   2.689
 3035W        W66792  26.985   8.196   2.685
 3036W        W66793  20.245   6.308   4.714
 3037W        W66794   7.779  26.134   4.215
 3038W        W66795   0.362  10.145  12.524
 3039W        W66796  28.145  34.037   0.790
 3040W        W66797  25.045   4.845   0.823
 3041W        W66798  17.073  40.409   3.275
 3042W        W66799  33.446  44.856   3.210
 3043W        W66800  25.603  40.445   3.158
 3044W        W66801  39.346  23.153  10.416
 3045W        W66802  40.354  26.000   0.299
 3046W        W66803  31.950   8.818  12.841
 3047W        W66804  38.982   2.835   1.695
 3048W        W66805  41.982  21.134   2.223
 3049W        W66806  11.319  30.442   2.884
 3050W        W66807  13.658  44.369  11.604
 3051W        W66808  23.099   8.839  11.602
 3052W        W66809  33.897  34.426  13.328
 3053W        W66810  33.475  20.702  11.988
 3054W        W66811  27.446  43.469  14.400
 3055W        W66812  40.440  28.588  13.321
 3056W        W66813  27.622   6.353   2.736
 3057W        W66814  11.851  31.619   2.333
 3058W        W66815  36.396   0.474  14.421
 3059W        W66816  32.544   6.825   9.578
 3060W        W66817  27.460  40.459   4.166
 3061W        W66818  38.917   2.793   0.805
 3062W        W66819  30.581  41.011   3.807
 3063W        W66820  21.646  35.578   2.737
 3064W        W66821  24.123   1.448  13.401
 3065W        W66822   7.236  43.279   4.746
 3066W        W66823   5.374  20.549   2.681
 3067W        W66824  15.276  39.507  12.882
 3068W        W66825  19.122  17.785   0.447
 3069W        W66826  42.862   2.326   3.299
 3070W        W66827   5.263  18.658   2.717
 3071W        W66828  31.943  32.418  14.940
 3072W        W66829  20.608  15.090  13.882
 3073W        W66830  36.390  41.414  13.524
 3074W        W66831  33.970   7.818  14.781
 3075W        W66832  39.821  44.293  12.364
 3076W        W66833   6.393  29.424  14.445
 3077W        W66834  27.691  19.185  11.611
 3078W        W66835   3.778  34.579   0.891
 3079W        W66836  39.340   5.386  11.465
 3080W        W66837  15.579  24.564   4.599
 3081W        W66838  38.423  30.061  12.940
 3082W        W66839  23.512  37.506   2.195
 3083W        W66840  15.186  23.044  14.934
 3084W        W66841  43.468  34.543  14.789
 3085W        W66842   2.358  33.874  13.974
 3086W        W66843  14.723  40.843  11.021
 3087W        W66844   7.819   5.899   3.733
 3088W        W66845  10.143  22.096  12.900
 3089W        W66846  10.172  37.371   3.684
 3090W        W66847  27.964  19.146  10.969
 3091W        W66848  28.638  15.141  13.985
 3092W        W66849  34.540  25.477   3.284
 3093W        W66850  33.507  38.074  14.005
 3094W        W66851  42.010  11.296   1.730
 3095W        W66852  40.808  35.008  12.972
 3096W        W66853  44.410   2.380  14.498
 3097W        W66854   2.760  21.741  12.857
 3098W        W66855   7.711  37.002  12.062
 3099W        W66856   7.238  25.552  14.493
 3100W        W66857   5.717  17.284   5.666
 3101W        W66858  32.892  20.186   0.741
 3102W        W66859  37.920   8.868  14.381
 3103W        W66860  28.162  41.397   0.814
 3104W        W66861  26.491   2.231   1.335
 3105W        W66862  17.624   3.722  11.108
 3106W        W66863  44.836   2.305   3.792
 3107W        W66864  40.840  11.622   3.833
 3108W        W66865   8.678  33.583   1.305
 3109W        W66866   3.266  25.009  12.875
 3110W        W66867   9.824  39.525   0.941
 3111W        W66868   5.748   0.391  10.982
 3112W        W66869  22.549  10.692   2.253
 3113W        W66870   6.813   9.330  12.463
 3114W        W66871   6.692  13.779  11.374
 3115W        W66872   5.702  30.555  13.353
 3116W        W66873  36.505   1.862  12.478
 3117W        W66874  10.243  43.922   2.403
 3118W        W66875  36.074  44.883   4.770
 3119W        W66876  11.349   9.349   3.636
 3120W        W66877  12.698  28.019   3.239
 3121W        W66878   1.479  43.831   0.368
 3122W        W66879  16.180  36.509   0.400
 3123W        W66880   3.375  15.326   2.788
 3124W        W66881  42.513  37.901   4.135
 3125W        W66882  15.175   4.773   4.170
 3126W        W66883  17.731  26.478   5.232
 3127W        W66884   9.876  32.514   3.216
 3128W        W66885   3.450  39.428   2.194
 3129W        W66886  39.047  24.055  12.899
 3130W        W66887  13.826  33.548  13.396
 3131W        W66888  18.176  24.059  14.324
 3132W        W66889   2.349  22.677   4.293
 3133W        W66890  17.297  20.154   4.683
 3134W        W66891  22.605  11.187  14.436
 3135W        W66892   1.389  39.930  12.519
 3136W        W66893   3.246  22.703   1.277
 3137W        W66894  11.216  23.520   0.409
 3138W        W66895  11.164  15.792  13.885
 3139W        W66896  38.538   6.820  14.444
 3140W        W66897  37.554   2.430  13.497
 3141W        W66898  26.552  36.911  13.060
 3142W        W66899  14.593  17.753  10.645
 3143W        W66900  10.873   5.838  12.997
 3144W        W66901   6.423  34.992  12.497
 3145W        W66902   6.920  29.143  12.477
 3146W        W66903  25.542  41.835   0.345
 3147W        W66904  41.879  11.860  11.887
 3148W        W66905  15.111   0.301   0.350
 3149W        W66906   7.368  35.585  14.363
 3150W        W66907   1.777  21.085   4.746
 3151W        W66908  32.598   0.422   4.162
 3152W        W66909  20.230  33.538  11.408
 3153W        W66910  13.756  24.081  12.981
 3154W        W66911  43.350  44.837  14.828
 3155W        W66912  29.449  25.075  13.835
 3156W        W66913  37.956  32.626   0.359
 3157W        W66914  31.533  30.512  11.098
 3158W        W66915  29.633  31.524  11.934
 3159W        W66916  30.556  42.820  12.876
 3160W        W66917  38.842   5.846   0.264
 3161W        W66918  23.058  15.257  11.463
 3162W        W66919  30.112   5.833  13.522
 3163W        W66920  18.616   2.905  14.336
 3164W        W66921  10.349  22.552  14.956
 3165W        W66922  44.988  14.337   3.283
 3166W        W66923   6.382  24.129   0.833
 3167W        W66924  26.461   5.350  13.942
 3168W        W66925   1.479   9.339  13.317
 3169W        W66926  34.092  29.002   0.428
 3170W        W66927  31.583  35.968   3.350
 3171W        W66928  18.670  41.932   2.874
 3172W        W66929  32.089  23.210   2.297
 3173W        W66930  20.551  26.504  13.315
 3174W        W66931  16.703  10.274   3.373
 3175W        W66932  32.013  42.972   0.943
 3176W        W66933  23.046  18.190   4.603
 3177W        W66934  38.331  16.659  12.418
 3178W        W66935   0.383   6.337  13.005
 3179W        W66936  39.501   9.757  10.597
 3180W        W66937   7.773   4.383   4.808
 3181W        W66938  12.345  25.179  12.982
 3182W        W66939  26.647  19.242  11.948
 3183W        W66940   3.221  31.982  14.776
 3184W        W66941  25.050  23.149   0.388
 3185W        W66942  37.015  10.305  12.437
 3186W        W66943  25.607  23.235  11.092
 3187W        W66944  29.442  18.591   0.798
 3188W        W66945  28.939  32.945  14.872
 3189W        W66946   5.203  37.889  10.606
 3190W        W66947  40.044  43.888  11.521
 3191W        W66948  17.566  21.662   3.295
 3192W        W66949  18.099  30.034   1.306
 3193W        W66950  34.377  34.487   2.204
 3194W        W66951  37.466  14.142   2.775
 3195W        W66952  42.014  27.119  11.129
 3196W        W66953  24.722  37.948  13.494
 3197W        W66954  29.545  38.948   3.371
 3198W        W66955  40.023  15.185   4.196
 3199W        W66956  19.624   4.440  14.294
 3200W        W66957  27.628  23.545   1.211
 3201W        W66958   2.314   4.820  13.324
 3202W        W66959  41.480  41.393  14.854
 3203W        W66960  19.700   1.322   2.272
 3204W        W66961   4.366   9.890  10.492
 3205W        W66962  20.105  17.165   9.958
 3206W        W66963   5.298  21.214  13.361
 3207W        W66964  33.608  25.707   4.764
 3208W        W66965  29.107  42.360   0.849
 3209W        W66966  36.984  28.533   4.323
 3210W        W66967   1.871   7.254  12.914
 3211W        W66968  34.103  30.973   0.258
 3212W        W66969  20.609  19.239  14.768
 3213W        W66970  26.982  28.001  10.553
 3214W        W66971  38.423  11.188  11.867
 3215W        W66972   0.385  27.675  12.451
 3216W        W66973  25.205  38.383  13.902
 3217W        W66974  25.020   8.179  14.813
 3218W        W66975  25.477  28.556   3.807
 3219W        W66976  21.139  38.910  13.912
 3220W        W66977  11.624  39.432   3.634
 3221W        W66978   9.263  23.505  13.046
 3222W        W66979  32.564   2.780  14.398
 3223W        W66980  18.788  30.606  12.995
 3224W        W66981  18.783  17.071   2.679
 3225W        W66982  28.126   8.694   1.391
 3226W        W66983  25.199  14.271   2.715
 3227W        W66984  42.838   8.745  13.478
 3228W        W66985  41.331  37.453   4.704
 3229W        W66986  18.296  27.143   1.307
 3230W        W66987  25.999  38.000   0.470
 3231W        W66988  42.490   9.269  14.972
 3232W        W66989  29.093   0.897   0.435
 3233W        W66990   9.811  36.363   0.378
 3234W        W66991  34.432  38.354  14.328
 3235W        W66992   9.396  42.957   4.330
 3236W        W66993  25.668  26.672  11.522
 3237W        W66994  40.027   6.915  12.456
 3238W        W66995  33.555  15.172   3.712
 3239W        W66996  36.419  41.980  10.458
 3240W        W66997  22.198   8.374  13.428
 3241W        W66998  30.055  32.137  12.060
 3242W        W66999  13.599  35.467   4.173
 3243W        W67000  42.523   3.746   2.691
 3244W        W67001  23.145   8.671   5.198
 3245W        W67002  12.661  43.427   0.902
 3246W        W67003  11.703  33.602   4.633
 3247W        W67004  28.984  25.157   4.766
 3248W        W67005  28.628  24.997   3.292
 3249W        W67006  36.425  36.875  14.833
 3250W        W67007   3.854  44.981  11.438
 3251W        W67008  13.760  12.228   2.189
 3252W        W67009   1.943   9.783   2.257
 3253W        W67010  30.992  43.352   3.715
 3254W        W67011   2.768  41.946   4.752
 3255W        W67012  41.828  36.545  10.965
 3256W        W67013  41.826  44.971  13.008
 3257W        W67014   3.461  35.068  10.430
 3258W        W67015  17.729  12.737  10.422
 3259W        W67016  23.578   0.395   1.757
 3260W        W67017  30.432  29.582   4.164
 3261W        W67018   5.281   3.370   5.196
 3262W        W67019  41.407  14.768   5.174
 3263W        W67020  12.353   9.246  10.564
 3264W        W67021  26.034  39.924   3.786
 3265W        W67022  37.837  35.011  11.376
 3266W        W67023  15.734  17.214   1.916
 3267W        W67024  41.038  19.721  12.475
 3268W        W67025  27.452  39.493   4.199
 3269W        W67026   7.387   7.680  13.808
 3270W        W67027  40.931  42.517  14.850
 3271W        W67028  20.562   0.291   1.898
 3272W        W67029  31.153  18.102  11.981
 3273W        W67030  28.478  42.407  11.123
 3274W        W67031  21.692  41.512   0.328
 3275W        W67032  44.816  35.896   0.788
 3276W        W67033  39.441  24.077  11.981
 3277W        W67034  23.561  36.368  13.829
 3278W        W67035  35.561  14.814   4.744
 3279W        W67036  14.094  27.686   2.845
 3280W        W67037  31.408  33.586  14.028
 3281W        W67038  30.420  23.186   4.619
 3282W        W67039  17.795  17.259  14.837
 3283W        W67040  37.920  18.147  12.471
 3284W        W67041  34.433   1.781   2.772
 3285W        W67042  39.915  41.031  13.939
 3286W        W67043  31.135  34.869   4.247
 3287W        W67044  13.273   0.459  11.098
 3288W        W67045  16.810   0.978  14.951
 3289W        W67046  38.449  34.004   3.706
 3290W        W67047  37.044   4.311   1.391
 3291W        W67048  39.028  22.567  14.870
 3292W        W67049  27.155  33.952  11.862
 3293W        W67050   3.765  37.461   2.319
 3294W        W67051  33.402  21.076   3.169
 3295W        W67052  11.813  27.015  13.865
 3296W        W67053  20.084  30.910  10.449
 3297W        W67054  31.601  25.566   3.300
 3298W        W67055   1.787   3.221   3.207
 3299W        W67056  19.098  37.552   4.346
 3300W        W67057   0.453   9.791   4.612
 3301W        W67058  14.194  43.516   2.200
 3302W        W67059  13.654  11.364   4.207
 3303W        W67060   3.395  16.267   2.268
 3304W        W67061  18.773  33.122   1.300
 3305W        W67062   8.723   2.963  14.996
 3306W        W67063  13.788  31.938  11.054
 3307W        W67064   1.311  30.145  11.962
 3308W        W67065  12.635  25.993  12.402
 3309W        W67066  30.089  24.193  14.021
 3310W        W67067  42.335  17.633   3.153
 3311W        W67068  11.651  36.046  12.914
 3312W        W67069  37.383  32.048   1.413
 3313W        W67070  11.643  24.121   0.822
 3314W        W67071  21.739  11.240  12.850
 3315W        W67072  21.084  23.567  13.433
 3316W        W67073  36.354   4.207   3.212
 3317W        W67074  24.117  28.490   4.230
 3318W        W67075  15.123  33.105  10.600
 3319W        W67076  11.696   0.319  12.513
 3320W        W67077   3.249  17.164   2.893
 3321W        W67078  13.622  38.487   1.763
 3322W        W67079   5.876   9.749   1.723
 3323W        W67080  43.480  41.828   1.794
 3324W        W67081  11.665  25.678  13.474
 3325W        W67082   9.208  16.632   1.779
 3326W        W67083  16.257  37.964   3.840
 3327W        W67084   5.383  18.604  12.484
 3328W        W67085  38.905  28.042   0.821
 3329W        W67086  20.584  18.680   4.762
 3330W        W67087   0.774  34.042   3.773
 3331W        W67088  31.636   9.716   0.405
 3332W        W67089  19.064  37.440  13.840
 3333W        W67090  33.436  26.991   2.787
 3334W        W67091  34.871  29.443  12.064
 3335W        W67092   7.411  26.132   0.867
 3336W        W67093  33.043   7.394   1.402
 3337W        W67094  44.811  40.514  12.392
 3338W        W67095  31.617  16.750  13.973
 3339W        W67096  15.265  40.496   1.770
 3340W        W67097   0.981   0.783   1.778
 3341W        W67098  18.640   0.484  11.121
 3342W        W67099  19.662  42.017  14.914
 3343W        W67100  43.870   0.374   2.318
 3344W        W67101  35.515  44.011  11.557
 3345W        W67102  17.298  15.698  10.469
 3346W        W67103   5.787  22.504   4.187
 3347W        W67104   9.868   1.357   3.669
 3348W        W67105  40.345   1.795  11.582
 3349W        W67106  18.630  19.601   2.838
 3350W        W67107  44.412  36.573   3.775
 3351W        W67108  34.607  29.139   4.698
 3352W        W67109  12.237  32.458   0.960
 3353W        W67110   8.801  36.394   3.653
 3354W        W67111  42.465  35.517   2.769
 3355W        W67112  10.847  17.093  11.430
 3356W        W67113  27.546  25.041   4.189
 3357W        W67114   2.246  28.481  11.860
 3358W        W67115  31.039  26.205   0.379
 3359W        W67116   6.333  32.950  11.081
 3360W        W67117   3.414  11.839   4.317
 3361W        W67118  17.176  44.890   2.675
 3362W        W67119  13.613  42.994   0.413
 3363W        W67120  33.591  19.094  13.420
 3364W        W67121  16.283  23.071  14.419
 3365W        W67122  37.375  38.835   3.285
 3366W        W67123  15.737  31.531  11.869
 3367W        W67124   9.360  27.107  12.889
 3368W        W67125   8.390  42.412  12.475
 3369W        W67126  16.676  35.498   3.223
 3370W        W67127  10.217  26.993  12.923
 3371W        W67128  43.410  38.029  11.530
 3372W        W67129  14.304  15.330  12.481
 3373W        W67130  36.362  41.030   4.334
 3374W        W67131  32.959   2.770  10.935
 3375W        W67132   5.372  11.757  14.809
 3376W        W67133  22.133  37.003   3.345
 3377W        W67134  33.480  37.480   4.249
 3378W        W67135  19.086  36.072   3.365
 3379W        W67136  27.053   8.263  10.918
 3380W        W67137   5.238   5.692   0.279
 3381W        W67138   0.314  15.699  11.945
 3382W        W67139  12.348  24.031   4.677
 3383W        W67140  38.047  32.392  12.397
 3384W        W67141  29.110   2.906  10.003
 3385W        W67142  36.070  44.311  13.933
 3386W        W67143  27.168  23.712  12.531
 3387W        W67144  16.605  17.249   1.293
 3388W        W67145  10.827   1.942   5.193
 3389W        W67146  19.181   6.921   4.133
 3390W        W67147  30.974   3.290  13.964
 3391W        W67148  22.521   8.252  14.959
 3392W        W67149  44.287  13.155  10.508
 3393W        W67150  17.227  19.157   2.690
 3394W        W67151  14.184  10.703   1.708
 3395W        W67152  33.425  14.228   0.839
 3396W        W67153   7.248  18.734  11.974
 3397W        W67154  24.086  25.694   3.212
 3398W        W67155   3.427  29.960  14.976
 3399W        W67156  12.120   6.236   1.851
 3400W        W67157  34.549  39.826  11.434
 3401W        W67158   7.716  21.656  10.453
 3402W        W67159  15.321   0.306  12.435
 3403W        W67160  22.573  25.669   3.686
 3404W        W67161  35.886  35.076   4.216
 3405W        W67162  17.197  14.614   0.815
 3406W        W67163   4.208  33.992   2.380
 3407W        W67164   9.258  15.820  10.601
 3408W        W67165  39.963  28.151  11.539
 3409W        W67166  13.826  18.196  14.363
 3410W        W67167   8.381  18.246  10.113
 3411W        W67168  44.369  37.348   2.787
 3412W        W67169  41.913  18.260   1.898
 3413W        W67170  24.568  17.653   3.346
 3414W        W67171  17.708  34.000  11.108
 3415W        W67172  22.633  13.613   1.720
 3416W        W67173  13.269  28.656   4.633
 3417W        W67174   4.875   0.439  13.990
 3418W        W67175  36.970  12.779  10.632
 3419W        W67176   4.241   5.755  14.984
 3420W        W67177  29.609  22.115   2.348
 3421W        W67178  27.446  42.395   2.779
 3422W        W67179  21.185  26.006  11.891
 3423W        W67180   3.242   1.292   4.777
 3424W        W67181   0.294  17.243  10.975
 3425W        W67182   0.939  17.760  10.903
 3426W        W67183  29.451  27.582  14.320
 3427W        W67184   3.782  37.538   2.729
 3428W        W67185  12.689  26.628   1.224
 3429W        W67186  42.336  40.533   2.748
 3430W        W67187  13.261  12.650  11.948
 3431W        W67188   2.300   2.951  12.945
 3432W        W67189   6.742  10.759   3.306
 3433W        W67190  40.447  21.172   2.294
 3434W        W67191  19.667  21.032   4.286
 3435W        W67192  19.688  42.997  12.418
 3436W        W67193  34.031  28.934   0.917
 3437W        W67194  17.075  16.138   1.723
 3438W        W67195  36.589   2.415   2.306
 3439W        W67196  35.079   5.868   2.787
 3440W        W67197  35.578  31.500   4.800
 3441W        W67198  32.082   9.163  13.323
 3442W        W67199   1.883  10.707  14.387
 3443W        W67200  24.168  43.835  14.885
 3444W        W67201   9.866  44.772  14.990
 3445W        W67202  11.363  43.797   5.724
 3446W        W67203   5.772  40.015  12.991
 3447W        W67204  13.688  18.162  12.358
 3448W        W67205  13.819  26.068  12.013
 3449W        W67206   1.937  14.315   4.212
 3450W        W67207  16.626  21.135   2.662
 3451W        W67208  33.481  26.598   2.821
 3452W        W67209  18.086  36.965   2.743
 3453W        W67210  32.033   8.734   0.424
 3454W        W67211  42.391  28.492  12.443
 3455W        W67212   3.835  15.176  14.850
 3456W        W67213  26.185  23.083   1.865
 3457W        W67214  43.766  20.723   4.699
 3458W        W67215   9.190   1.296   3.730
 3459W        W67216   1.469  17.233   2.807
 3460W        W67217  16.740   6.398  12.096
 3461W        W67218   5.423  19.746   0.268
 3462W        W67219  17.585  26.155   2.345
 3463W        W67220  21.613   7.275  12.048
 3464W        W67221  18.712  10.313   4.785
 3465W        W67222  39.008  12.217  11.456
 3466W        W67223  30.500   0.393   2.283
 3467W        W67224  44.870  26.168  13.891
 3468W        W67225  32.095  43.310   1.934
 3469W        W67226  20.650   0.910   4.831
 3470W        W67227   8.379   0.910  14.818
 3471W        W67228  34.083  26.497  12.061
 3472W        W67229  37.937  44.299  14.847
 3473W        W67230   3.455  32.899   2.852
 3474W        W67231  34.455  22.700   2.816
 3475W        W67232   5.307  39.879   3.731
 3476W        W67233  18.569   0.486  14.378
 3477W        W67234  15.655  32.543  13.418
 3478W        W67235  27.031  41.969   0.348
 3479W        W67236   7.201  25.685   3.247
 3480W        W67237  18.683   6.717   0.767
 3481W        W67238  24.666  12.822  13.956
 3482W        W67239  14.123  29.172  10.905
 3483W        W67240  21.679  28.538  14.839
 3484W        W67241  28.605  11.135   4.150
 3485W        W67242  12.795  30.613   3.756
 3486W        W67243  11.705   7.814  11.379
 3487W        W67244  13.716  24.088   4.209
 3488W        W67245   2.364  24.485  10.954
 3489W        W67246  14.172  16.641  14.420
 3490W        W67247  16.228  22.081   3.711
 3491W        W67248  17.269   7.302  11.582
 3492W        W67249  10.812  37.921   0.341
 3493W        W67250   8.279  15.321   2.739
 3494W        W67251   0.903   5.414  14.009
 3495W        W67252  34.393  28.064  11.441
 3496W        W67253  32.931  20.535   4.354
 3497W        W67254  34.473  34.406  13.001
 3498W        W67255   8.754   3.236  12.925
 3499W        W67256   6.849  24.722   2.344
 3500W        W67257  40.968  42.404   0.314
 3501W        W67258   3.911   0.415   3.194
 3502W        W67259  44.315  37.582  14.830
 3503W        W67260   3.412  24.529   0.946
 3504W        W67261  11.148  15.127  13.392
 3505W        W67262  33.996   6.191  12.005
 3506W        W67263   6.404  33.592  12.395
 3507W        W67264   7.256  14.759   5.145
 3508W        W67265  37.912  31.003  12.967
 3509W        W67266  26.957  22.634  13.055
 3510W        W67267  30.998   9.380  10.547
 3511W        W67268  12.246   3.733  14.987
 3512W        W67269  14.825  40.975   2.369
 3513W        W67270  14.317  39.929  13.913
 3514W        W67271  19.682  42.439   3.349
 3515W        W67272   9.244  15.738  11.456
 3516W        W67273  19.205   5.277   3.656
 3517W        W67274  20.100  35.488  13.917
 3518W        W67275  11.262  39.927  11.393
 3519W        W67276   6.687  36.083  12.878
 3520W        W67277   8.674  20.754  14.898
 3521W        W67278  22.654   3.764   4.826
 3522W        W67279  10.851  27.130   3.340
 3523W        W67280  32.114   2.799   4.194
 3524W        W67281  14.674  19.777   4.816
 3525W        W67282  33.476  12.317   4.222
 3526W        W67283  35.564  24.054   1.705
 3527W        W67284  31.473  12.142   4.281
 3528W        W67285  27.997  27.628   0.883
 3529W        W67286   7.368  21.195  11.539
 3530W        W67287  11.837  36.010   3.793
 3531W        W67288  18.186  40.011  10.952
 3532W        W67289  10.703  34.577   2.698
 3533W        W67290  11.210  22.209   0.436
 3534W        W67291  35.934  36.095   4.772
 3535W        W67292  11.770  24.033  13.544
 3536W        W67293  42.009  34.576  14.010
 3537W        W67294  42.020   1.414  12.075
 3538W        W67295  17.298   5.910   3.287
 3539W        W67296  16.119  40.464   1.825
 3540W        W67297  25.613  14.306   4.341
 3541W        W67298  23.042  25.178  12.961
 3542W        W67299  31.607  35.405  14.438
 3543W        W67300   9.374  20.608   3.180
 3544W        W67301  16.167  37.448  12.551
 3545W        W67302  10.734  26.176  13.810
 3546W        W67303  36.081  25.175  11.966
 3547W        W67304  23.123  13.297  14.828
 3548W        W67305  44.837  21.229   4.742
 3549W        W67306   2.434   9.667   3.326
 3550W        W67307  31.101  10.238  11.538
 3551W        W67308   4.927   2.354   0.797
 3552W        W67309  37.937  18.072   0.858
 3553W        W67310  34.370  21.610   3.835
 3554W        W67311  36.973  16.281  13.915
 3555W        W67312  38.379  15.328  13.325
 3556W        W67313  22.118  22.701   4.631
 3557W        W67314  22.677   5.785  11.539
 3558W        W67315  40.439  22.120  14.998
 3559W        W67316  35.386   0.376   2.681
 3560W        W67317  16.726  23.099  10.551
 3561W        W67318  21.649  16.272  11.429
 3562W        W67319   2.396   1.469  12.013
 3563W        W67320  37.832  19.079   3.311
 3564W        W67321   5.292   6.878  11.467
 3565W        W67322  28.065  34.561  10.995
 3566W        W67323  29.092  44.370  14.281
 3567W        W67324  30.623   6.280  12.396
 3568W        W67325  11.201  33.403  14.845
 3569W        W67326  43.503  31.471  13.043
 3570W        W67327  31.641  37.386   3.333
 3571W        W67328  34.068  36.473  12.998
 3572W        W67329  15.136  12.676   4.124
 3573W        W67330  19.226  34.459   3.727
 3574W        W67331  13.198  32.526   0.792
 3575W        W67332  37.465  38.873  10.549
 3576W        W67333  43.444  11.363  14.467
 3577W        W67334  19.774  37.341  13.015
 3578W        W67335  12.647   5.394   2.894
 3579W        W67336  10.274   0.314   1.296
 3580W        W67337   3.425  14.319   1.894
 3581W        W67338  22.666  18.173  11.033
 3582W        W67339  43.997  20.092   3.380
 3583W        W67340  25.709   5.759   4.116
 3584W        W67341   0.423   4.839  10.611
 3585W        W67342  36.978  42.966  14.775
 3586W        W67343  13.315   5.241   1.862
 3587W        W67344  28.618   2.909   4.675
 3588W        W67345  26.105  22.020   9.588
 3589W        W67346   2.934  16.140  11.476
 3590W        W67347  11.144  33.521  13.857
 3591W        W67348  18.290  38.853  11.091
 3592W        W67349  26.988  33.425  11.856
 3593W        W67350  22.642  39.981  10.108
 3594W        W67351  42.031  15.625   2.340
 3595W        W67352  10.843   0.420  14.511
 3596W        W67353  22.548   4.342   0.359
 3597W        W67354  22.674   7.403   1.357
 3598W        W67355   0.933  24.141   5.165
 3599W        W67356  39.431   7.245   0.742
 3600W        W67357  24.213  11.284  12.967
 3601W        W67358  17.775  37.568  12.539
 3602W        W67359  15.728  20.160  13.476
 3603W        W67360  37.016  18.652   4.631
 3604W        W67361  19.763  39.844  13.981
 3605W        W67362  44.966  22.009   2.709
 3606W        W67363  17.694  41.346  14.004
 3607W        W67364  44.867  43.927  12.933
 3608W        W67365  13.294  10.318   0.463
 3609W        W67366  32.443  41.882   2.821
 3610W        W67367  36.520  30.981  14.423
 3611W        W67368  26.487  17.739   1.775
 3612W        W67369  35.372  44.964   3.147
 3613W        W67370  26.952  14.203   1.748
 3614W        W67371  12.138  28.612  10.412
 3615W        W67372   5.903   7.405  14.011
 3616W        W67373   7.898  39.974   3.724
 3617W        W67374  14.282  25.105   0.838
 3618W        W67375  34.109  28.556  12.057
 3619W        W67376  14.834  34.530   1.808
 3620W        W67377  43.974  27.123   4.173
 3621W        W67378  16.156  18.152  11.435
 3622W        W67379  33.949  44.321   1.722
 3623W        W67380  44.476  34.959  13.016
 3624W        W67381  42.468  36.526   4.796
 3625W        W67382  40.875  23.208   2.275
 3626W        W67383  36.430  44.799   1.711
 3627W        W67384   6.339  41.920  11.886
 3628W        W67385   1.789  14.677   4.200
 3629W        W67386  14.600  41.474  13.454
 3630W        W67387  13.258  21.534   2.217
 3631W        W67388   8.350  36.900   3.340
 3632W        W67389   7.817  22.686  14.877
 3633W        W67390  43.002  39.969   0.763
 3634W        W67391  16.726  13.732  12.008
 3635W        W67392  11.717   4.275  11.386
 3636W        W67393  19.615  10.802   0.325
 3637W        W67394   8.195  31.505  13.794
 3638W        W67395  16.179  22.144  12.463
 3639W        W67396  38.402  36.084   3.684
 3640W        W67397  12.742  27.624   1.410
 3641W        W67398  16.734   9.727   2.387
 3642W        W67399  29.044  13.808   4.290
 3643W        W67400  14.299   6.361   3.798
 3644W        W67401   0.835  32.477   4.696
 3645W        W67402   7.227   9.345   4.346
 3646W        W67403  34.615   8.351  11.982
 3647W        W67404  43.962   4.206  13.321
 3648W        W67405  37.571  24.980   2.708
 3649W        W67406  14.729  30.598   4.245
 3650W        W67407  18.286  34.521   2.200
 3651W        W67408  16.630  20.583   1.703
 3652W        W67409   8.226  40.465  11.955
 3653W        W67410  38.353  29.499  12.047
 3654W        W67411  36.997  19.269   4.661
 3655W        W67412  21.573  25.519   4.135
 3656W        W67413  29.999  31.100   0.822
 3657W        W67414  13.251  42.409   0.777
 3658W        W67415  26.010  10.751   4.153
 3659W        W67416  12.736  41.527  13.330
 3660W        W67417  11.312   2.737   2.328
 3661W        W67418   7.301  30.437   1.330
 3662W        W67419   0.435  34.474  12.984
 3663W        W67420  39.959  23.990   4.707
 3664W        W67421  32.057  20.707  10.052
 3665W        W67422  16.677  11.369  11.043
 3666W        W67423  37.955  21.570  11.889
 3667W        W67424   6.892  26.701  12.474
 3668W        W67425  18.752  43.774   0.248
 3669W        W67426   1.293  12.170   0.263
 3670W        W67427  11.162  18.625   4.805
 3671W        W67428  23.205  20.549  13.880
 3672W        W67429   4.299   0.973  14.283
 3673W        W67430  15.146  32.447  12.879
 3674W        W67431  32.022  22.214   0.270
 3675W        W67432  28.577  44.998  12.950
 3676W        W67433   6.279  19.583  12.490
 3677W        W67434  42.393  39.987  14.503
 3678W        W67435  26.155  25.070   3.349
 3679W        W67436  13.265  16.142   1.703
 3680W        W67437  19.625   4.346   1.709
 3681W        W67438   2.417  41.969   4.790
 3682W        W67439   8.873  37.411   5.249
 3683W        W67440  28.075  24.555   2.710
 3684W        W67441  20.039  22.036  13.442
 3685W        W67442  33.466  32.425  10.531
 3686W        W67443  17.147  11.835   3.705
 3687W        W67444  16.244  31.078  14.379
 3688W        W67445  39.471  22.009  10.637
 3689W        W67446  38.393  29.542  10.624
 3690W        W67447   5.809  36.384   1.440
 3691W        W67448  37.469  20.562   2.383
 3692W        W67449  10.745  16.159   1.316
 3693W        W67450  28.666  41.975  13.861
 3694W        W67451  20.701   6.359  14.767
 3695W        W67452  23.129  33.070   1.383
 3696W        W67453   5.743   6.821   3.790
 3697W        W67454  28.176  21.678  13.321
 3698W        W67455  38.369  10.843   2.714
 3699W        W67456  35.873  18.078   0.457
 3700W        W67457  11.219  19.061  12.486
 3701W        W67458   8.663   8.672  11.474
 3702W        W67459   5.705  43.275  14.298
 3703W        W67460   9.827   5.201   3.178
 3704W        W67461  22.087  38.550  11.934
 3705W        W67462   9.781  23.215   0.919
 3706W        W67463  37.911   5.846   1.314
 3707W        W67464   3.711  34.863  11.516
 3708W        W67465  43.846  37.569   2.783
 3709W        W67466  22.028  39.337   4.118
 3710W        W67467  24.153  19.588  13.449
 3711W        W67468   9.713  20.169   0.331
 3712W        W67469  29.535  23.216   5.260
 3713W        W67470  35.575  14.136   0.414
 3714W        W67471  13.807  38.923  14.884
 3715W        W67472  14.233  10.866   4.309
 3716W        W67473  20.742  29.501  12.340
 3717W        W67474  24.998  18.127   1.881
 3718W        W67475   9.376  25.070   1.837
 3719W        W67476  35.565  10.785   1.861
 3720W        W67477  10.322  22.579  11.400
 3721W        W67478  23.019  13.217   2.845
 3722W        W67479  15.132  27.185  12.957
 3723W        W67480  31.908   0.838  11.414
 3724W        W67481  42.399  25.122  13.438
 3725W        W67482  13.710   3.736  12.009
 3726W        W67483  29.048  18.781  14.786
 3727W        W67484  32.956  31.416   1.281
 3728W        W67485   8.767  44.820  13.470
 3729W        W67486  38.522  28.460   0.329
 3730W        W67487  41.849  41.926  10.930
 3731W        W67488  35.073   9.775   3.710
 3732W        W67489  13.771  12.798   4.813
 3733W        W67490   2.786  22.070  13.461
 3734W        W67491   6.318  37.429   5.314
 3735W        W67492   3.729   6.196   4.836
 3736W        W67493   2.292  42.015   2.203
 3737W        W67494  18.732  34.455   1.377
 3738W        W67495   7.285  28.132   0.271
 3739W        W67496  22.566   2.729   0.422
 3740W        W67497  37.499   8.747  14.301
 3741W        W67498  17.133  24.185   2.359
 3742W        W67499  28.099  38.500  13.349
 3743W        W67500  42.957  13.657  13.471
 3744W        W67501  26.645  29.162   2.302
 3745W        W67502  44.337   3.742  14.874
 3746W        W67503   7.217  29.531  10.481
 3747W        W67504  34.971  35.555   4.682
 3748W        W67505  26.075  30.042   3.327
 3749W        W67506  30.118   6.262  12.827
 3750W        W67507  20.639  18.650  13.806
 3751W        W67508  43.342   7.794  12.085
 3752W        W67509  16.276  32.003  14.397
 3753W        W67510  37.994  33.385  13.313
 3754W        W67511  25.579   7.808  13.370
 3755W        W67512  37.464  40.492  14.475
 3756W        W67513  39.983  22.153   2.837
 3757W        W67514  31.427   8.732  11.401
 3758W        W67515  13.792   2.793   0.288
 3759W        W67516  20.590   9.195  10.957
 3760W        W67517  10.360  35.924   3.849
 3761W        W67518  26.552  43.404   4.301
 3762W        W67519   0.454   9.200  13.426
 3763W        W67520   6.841  34.546  13.430
 3764W        W67521  27.486  35.603   4.125
 3765W        W67522  23.033   5.274   2.781
 3766W        W67523  38.440  17.570  14.382
 3767W        W67524  36.495  23.557  11.563
 3768W        W67525  28.505   5.709  11.096
 3769W        W67526  39.976   0.402  11.514
 3770W        W67527  29.937  20.620  14.462
 3771W        W67528  26.677  26.118  10.904
 3772W        W67529  33.548  10.647   2.385
 3773W        W67530  38.507  28.674   4.134
 3774W        W67531  19.598  38.503   3.298
 3775W        W67532   8.886  14.765   3.240
 3776W        W67533  10.842  34.996   2.720
 3777W        W67534  18.597  29.616  12.836
 3778W        W67535  10.795  31.528  12.459
 3779W        W67536  21.179  17.566   3.281
 3780W        W67537  15.278  19.753  11.997
 3781W        W67538  36.937  25.515   0.788
 3782W        W67539   1.963  11.645  13.515
 3783W        W67540   6.861  41.295   3.802
 3784W        W67541  21.541  27.093  10.483
 3785W        W67542  17.731  11.171   3.833
 3786W        W67543   7.681   1.737   4.600
 3787W        W67544  19.619  24.674   4.808
 3788W        W67545  39.808   6.188  13.406
 3789W        W67546  42.882  37.400  14.386
 3790W        W67547  36.485  10.660  10.557
 3791W        W67548  35.855  31.935  14.358
 3792W        W67549  42.022   0.953  11.492
 3793W        W67550  37.558  27.956   1.923
 3794W        W67551  13.348  41.923  13.337
 3795W        W67552  14.783  33.877  14.414
 3796W        W67553   0.808  30.628  11.979
 3797W        W67554  16.318  15.797   4.610
 3798W        W67555  16.290  13.707   3.200
 3799W        W67556  19.117   8.170  13.493
 3800W        W67557  15.324  37.551   4.690
 3801W        W67558   9.242  27.951  11.975
 3802W        W67559   0.782   8.800  12.516
 3803W        W67560  41.023  35.065   2.368
 3804W        W67561  27.465  40.978  14.279
 3805W        W67562  21.522  24.647  10.491
 3806W        W67563  34.981  36.020  14.018
 3807W        W67564   6.857  42.321  14.784
 3808W        W67565  26.120  40.035  12.517
 3809W        W67566  23.506  35.497   0.902
 3810W        W67567  25.470   5.232  12.544
 3811W        W67568  34.542  32.605  14.396
 3812W        W67569   6.226   3.787  13.833
 3813W        W67570  18.655  43.436   2.333
 3814W        W67571  22.651  22.629   1.850
 3815W        W67572  10.843   3.794  14.843
 3816W        W67573   5.206  18.181  13.505
 3817W        W67574  23.176   2.418  14.387
 3818W        W67575  29.102   6.889  11.475
 3819W        W67576  23.236  43.775   1.780
 3820W        W67577  34.500  35.454  13.353
 3821W        W67578  33.952  35.991   2.283
 3822W        W67579   2.761  35.999  14.865
 3823W        W67580  18.741  22.198   4.725
 3824W        W67581   8.726  14.609  12.893
 3825W        W67582  43.849  34.411  12.569
 3826W        W67583  33.569  44.935   2.313
 3827W        W67584  32.997  43.918   3.659
 3828W        W67585   7.802  27.681   4.260
 3829W        W67586  13.111  40.522  10.989
 3830W        W67587   9.832   9.176  14.834
 3831W        W67588   6.405  23.586  14.864
 3832W        W67589  32.486   7.412   4.346
 3833W        W67590  23.622  18.157   0.340
 3834W        W67591  27.089  32.906  13.854
 3835W        W67592  12.815  12.150   2.901
 3836W        W67593  43.821  44.830  12.984
 3837W        W67594   7.398   8.688   0.772
 3838W        W67595   1.970   4.920  14.444
 3839W        W67596  22.231   5.707   4.182
 3840W        W67597  17.738  14.168   1.351
 3841W        W67598  32.404  17.699   4.312
 3842W        W67599  10.633  43.428  12.888
 3843W        W67600   5.703   3.938  10.888
 3844W        W67601  35.446  20.669  11.085
 3845W        W67602   2.374  38.339   2.725
 3846W        W67603   9.750  41.378   4.806
 3847W        W67604  44.301  33.519   1.291
 3848W        W67605  35.427   5.734   0.755
 3849W        W67606  20.669  13.648  10.500
 3850W        W67607   1.891  36.842  14.387
 3851W        W67608   7.411   0.374  13.892
 3852W        W67609  15.820  32.097  12.501
 3853W        W67610  38.455  21.664   3.804
 3854W        W67611  17.104  41.890   2.887
 3855W        W67612  39.832   1.835   5.741
 3856W        W67613   8.759  41.883  10.503
 3857W        W67614  30.580  28.651  14.767
 3858W        W67615  31.037  18.781  11.891
 3859W        W67616  14.129  38.533   4.809
 3860W        W67617  36.983  29.075  10.577
 3861W        W67618   1.897  16.132  13.888
 3862W        W67619  31.583  33.474   2.844
 3863W        W67620   8.667  16.239  14.845
 3864W        W67621  26.675  38.847   2.785
 3865W        W67622   8.717  11.272  11.400
 3866W        W67623   4.331  33.439   1.858
 3867W        W67624  40.890  24.126  14.972
 3868W        W67625  28.607  24.590  11.581
 3869W        W67626  28.149   3.307  14.961
 3870W        W67627  26.672  36.505  13.892
 3871W        W67628  41.846  31.403  13.799
 3872W        W67629  13.195  20.146  12.840
 3873W        W67630  40.974  27.082  12.844
 3874W        W67631  18.681   2.240   2.388
 3875W        W67632  41.843  17.700  13.884
 3876W        W67633  30.112  13.685  13.445
 3877W        W67634  37.507  17.210   4.747
 3878W        W67635  10.240  29.165  10.629
 3879W        W67636  12.245   6.374  12.492
 3880W        W67637   5.775  32.475   0.856
 3881W        W67638   9.886  13.211   2.393
 3882W        W67639  31.138  34.885   3.762
 3883W        W67640  15.686  18.552  10.908
 3884W        W67641  29.087  44.792  13.530
 3885W        W67642  16.261  14.161  13.865
 3886W        W67643  23.145  24.191  14.917
 3887W        W67644  31.605  21.238  11.380
 3888W        W67645  26.583  15.124   1.809
 3889W        W67646   9.743  21.557  11.548
 3890W        W67647  18.693  36.497  10.945
 3891W        W67648  12.259  22.121   0.869
 3892W        W67649  30.524   4.749   1.332
 3893W        W67650   4.780  31.114   0.804
 3894W        W67651   5.248  37.913  14.030
 3895W        W67652  22.071  27.031   3.158
 3896W        W67653  22.609  33.880  14.338
 3897W        W67654  41.015  15.132   0.946
 3898W        W67655  44.969  38.379  11.436
 3899W        W67656  38.336  25.479  11.421
 3900W        W67657   4.365  43.015  10.968
 3901W        W67658  31.905  36.854   2.789
 3902W        W67659  26.611  13.770   3.249
 3903W        W67660   7.744  35.964  12.415
 3904W        W67661  39.492  44.358   1.408
 3905W        W67662  13.237  23.177  12.948
 3906W        W67663   1.371  11.335   2.205
 3907W        W67664  11.731  38.054   4.326
 3908W        W67665  11.362  27.176   1.227
 3909W        W67666  36.509  39.048  13.357
 3910W        W67667  28.966  41.839  13.007
 3911W        W67668  12.706  12.809  13.882
 3912W        W67669  34.583  32.403   3.868
 3913W        W67670  38.832   8.369   0.733
 3914W        W67671  27.983   9.222   3.318
 3915W        W67672  37.918  44.909  11.521
 3916W        W67673   4.204  10.761   1.301
 3917W        W67674   6.200   3.744  12.847
 3918W        W67675  25.092  43.941   2.207
 3919W        W67676  27.601   4.352  14.976
 3920W        W67677  42.923  21.222  12.408
 3921W        W67678  12.785   2.397   2.202
 3922W        W67679  27.195   1.340  11.453
 3923W        W67680  13.133  23.508   1.709
 3924W        W67681  30.954   4.271   3.327
 3925W        W67682   7.729  36.880   1.289
 3926W        W67683  35.477  22.579   4.130
 3927W        W67684  17.198  16.219  12.431
 3928W        W67685  27.520  40.311  10.451
 3929W        W67686  23.595  34.491  10.629
 3930W        W67687   3.305  41.506  10.470
 3931W        W67688  41.444  16.638   0.875
 3932W        W67689  41.531   9.323   3.813
 3933W        W67690  32.471  11.152  11.378
 3934W        W67691   3.894  29.429   3.158
 3935W        W67692  12.188  19.064   4.276
 3936W        W67693   8.362  39.339   1.851
 3937W        W67694  37.039   5.724  13.370
 3938W        W67695  38.067  24.716  13.539
 3939W        W67696  14.819  17.098   4.325
 3940W        W67697   2.357  31.049   0.835
 3941W        W67698  14.240  44.378   4.182
 3942W        W67699   5.812  14.682   1.802
 3943W        W67700  23.582  17.666   0.401
 3944W        W67701  39.548  27.192  12.034
 3945W        W67702  14.711  25.699  13.857
 3946W        W67703  38.833  22.613  12.391
 3947W        W67704  27.666   8.345   3.868
 3948W        W67705  38.870  30.017   2.242
 3949W        W67706  44.350  37.536   2.288
 3950W        W67707   5.318  21.547   1.347
 3951W        W67708  34.492  33.400  13.954
 3952W        W67709  43.463  32.528  11.000
 3953W        W67710  41.855   7.708   3.169
 3954W        W67711  33.495  44.361  13.357
 3955W        W67712  39.914   8.780   3.666
 3956W        W67713  39.504  38.377  14.346
 3957W        W67714   2.312  10.752  10.542
 3958W        W67715  13.205   5.229   2.254
 3959W        W67716   7.190   2.294  14.806
 3960W        W67717  26.021   3.803   4.659
 3961W        W67718   3.909  37.906   4.160
 3962W        W67719  42.367  24.689   4.347
 3963W        W67720  28.067  21.174  12.567
 3964W        W67721  31.545  42.471  11.119
 3965W        W67722  16.251  10.348   4.292
 3966W        W67723  36.066  43.295   0.300
 3967W        W67724  26.550  32.455  14.011
 3968W        W67725   5.209  37.536  11.456
 3969W        W67726  27.532  42.446   3.674
 3970W        W67727  21.184  15.301  14.426
 3971W        W67728  22.197   9.255  14.940
 3972W        W67729  34.978  37.914  11.040
 3973W        W67730  33.442  21.642  14.468
 3974W        W67731  10.361  32.609  12.988
 3975W        W67732  21.673   6.751  11.913
 3976W        W67733  18.757  24.591   3.845
 3977W        W67734  44.889  20.705  10.929
 3978W        W67735  14.813  15.678   4.320
 3979W        W67736  24.485  31.518  10.445
 3980W        W67737  27.975  15.210  12.044
 3981W        W67738  40.947  17.298  11.538
 3982W        W67739  14.255   3.243   2.378
 3983W        W67740  31.406   8.898  12.895
 3984W        W67741   5.750  34.897   2.243
 3985W        W67742  27.194   7.308  12.523
 3986W        W67743  18.074   9.344  11.089
 3987W        W67744   6.309  36.535  10.999
 3988W        W67745  28.494  43.495  14.500
 3989W        W67746  11.312  31.602  14.278
 3990W        W67747  37.903   8.172   3.651
 3991W        W67748  23.996  11.129   1.749
 3992W        W67749  35.007   1.391  11.882
 3993W        W67750  41.315  11.222  13.973
 3994W        W67751  15.784  26.073  13.063
 3995W        W67752  15.666   1.772   1.843
 3996W        W67753  32.104  24.216   3.164
 3997W        W67754  27.603   1.767   1.399
 3998W        W67755  36.357  42.907   5.199
 3999W        W67756   4.918  38.834   0.484
 4000W        W67757  21.156   3.429  11.417
 4001W        W67758  17.300   8.745   0.401
 4002W        W67759  22.679  36.969   1.352
 4003W        W67760  30.549  16.803   0.880
 4004W        W67761  38.998  40.916  13.977
 4005W        W67762  19.159  32.110   1.862
 4006W        W67763   2.908  16.312  12.386
 4007W        W67764   7.772  19.064   3.712
 4008W        W67765  27.676  16.706  13.385
 4009W        W67766  14.692  31.045  13.001
 4010W        W67767  39.851  32.591  14.350
 4011W        W67768  32.132  31.569   1.219
 4012W        W67769  12.263   0.407  11.968
 4013W        W67770  11.322   6.352  14.435
 4014W        W67771  22.509  40.434  13.366
 4015W        W67772  35.558  36.564  14.894
 4016W        W67773  24.204  17.711  14.366
 4017W        W67774  36.472   0.420  12.466
 4018W        W67775  32.007  30.007  14.973
 4019W        W67776  35.559  21.733   4.750
 4020W        W67777  42.377  21.673   1.928
 4021W        W67778  32.491   1.953  11.892
 4022W        W67779   8.363  43.450   3.815
 4023W        W67780   9.253  30.910   2.228
 4024W        W67781  36.863  28.532  13.327
 4025W        W67782  35.004  26.548  14.471
 4026W        W67783  40.314   7.322  14.970
 4027W        W67784  27.084  10.717   3.353
 4028W        W67785  16.255  40.858   1.397
 4029W        W67786  41.004  24.509  11.007
 4030W        W67787  42.506  40.987  11.963
 4031W        W67788  33.955  40.305   3.634
 4032W        W67789   0.293  33.121  14.377
 4033W        W67790  15.675   2.460  11.034
 4034W        W67791   3.794   4.283   4.346
 4035W        W67792  39.321  16.811  12.474
 4036W        W67793  38.387  41.312   4.143
 4037W        W67794  44.909  16.244   1.703
 4038W        W67795  39.347  22.557   0.397
 4039W        W67796  16.268   0.305  13.045
 4040W        W67797  20.136  31.596  10.959
 4041W        W67798  35.591  23.192   2.700
 4042W        W67799   4.440  29.532  11.401
 4043W        W67800  38.390   1.304  11.520
 4044W        W67801  30.957  31.925  13.890
 4045W        W67802  39.951  40.845   2.743
 4046W        W67803  24.679  12.186  12.958
 4047W        W67804   0.311  18.240   1.911
 4048W        W67805   8.824  25.627  14.851
 4049W        W67806  12.759  39.546   1.415
 4050W        W67807  17.632  15.192   1.452
 4051W        W67808   3.727  12.211   3.315
 4052W        W67809  19.087  18.220  12.340
 4053W        W67810   6.355  35.600  12.560
 4054W        W67811  31.418  11.325   0.888
 4055W        W67812  11.813  39.932  12.420
 4056W        W67813  29.582   7.851  10.965
 4057W        W67814   5.832  37.405  11.085
 4058W        W67815  44.776  27.017   4.124
 4059W        W67816  26.668  17.263  12.838
 4060W        W67817  12.326  13.780  12.034
 4061W        W67818  19.752   7.904   4.780
 4062W        W67819  14.599  44.784  13.887
 4063W        W67820  39.982  28.114  12.073
 4064W        W67821  39.972  30.459  13.850
 4065W        W67822  23.065  17.262  10.994
 4066W        W67823  44.934  44.885   4.770
 4067W        W67824  23.153   2.251   4.778
 4068W        W67825  33.441  30.949  14.309
 4069W        W67826  25.193  13.621  13.307
 4070W        W67827   9.366  14.618   5.673
 4071W        W67828  30.154  21.570   2.882
 4072W        W67829   3.219   0.404  10.569
 4073W        W67830  20.658  23.648  12.905
 4074W        W67831  37.457  16.808  11.970
 4075W        W67832  20.593  26.053  13.974
 4076W        W67833  13.193  12.701   0.771
 4077W        W67834  44.450  11.286  14.347
 4078W        W67835   3.325  33.560   3.173
 4079W        W67836  14.806  10.311  13.537
 4080W        W67837  19.070  37.348   4.613
 4081W        W67838   4.827  14.220   2.324
 4082W        W67839  39.048  24.661  12.957
 4083W        W67840   3.765  28.531   1.827
 4084W        W67841   7.352  24.687   2.180
 4085W        W67842   6.197  35.941  12.552
 4086W        W67843  11.847  10.310   2.892
 4087W        W67844   1.955  39.379  12.568
 4088W        W67845   4.396  27.156  14.776
 4089W        W67846  29.435  23.097  12.565
 4090W        W67847  34.397  30.120  13.413
 4091W        W67848   9.867  38.906  10.922
 4092W        W67849   2.762  23.169   3.798
 4093W        W67850  35.097  35.383  12.517
 4094W        W67851  25.689  38.355  14.933
 4095W        W67852  32.065  37.400   2.800
 4096W        W67853  42.790  33.083   0.862
 4097W        W67854   8.778  21.541  13.056
 4098W        W67855  23.558  40.869   4.708
 4099W        W67856   1.442  42.912  13.316
 4100W        W67857  18.703   6.709   3.297
 4101W        W67858  12.725  34.973   0.383
 4102W        W67859  34.603  31.469  14.487
 4103W        W67860  24.084   9.841  11.558
 4104W        W67861   7.214   9.360  14.478
 4105W        W67862  16.088  40.883   1.803
 4106W        W67863  10.809  19.040  13.484
 4107W        W67864  26.487  15.102   0.352
 4108W        W67865  33.067  34.557  13.953
 4109W        W67866   5.437  31.931  11.441
 4110W        W67867   5.913  21.724   1.721
 4111W        W67868  27.078   1.750   2.264
 4112W        W67869  14.806  30.138  14.410
 4113W        W67870  19.569  30.942  11.582
 4114W        W67871   3.365  12.769  13.502
 4115W        W67872  23.562  44.927   3.682
 4116W        W67873  10.243  11.262  12.931
 4117W        W67874   5.898  24.216   1.315
 4118W        W67875   8.892  13.171  14.319
 4119W        W67876  41.038  11.857  11.871
 4120W        W67877   6.824  12.744  13.509
 4121W        W67878   9.648  27.045   2.192
 4122W        W67879  44.986   2.830   3.840
 4123W        W67880  11.761  41.832   1.867
 4124W        W67881  39.336  34.542   1.372
 4125W        W67882  27.589   4.332  14.342
 4126W        W67883  38.466  32.499  13.042
 4127W        W67884  23.185  20.767  11.896
 4128W        W67885  28.086  35.965  11.875
 4129W        W67886  30.615  16.095   2.830
 4130W        W67887  34.425  42.913   4.338
 4131W        W67888  13.639  31.032  12.548
 4132W        W67889  31.067  22.541  14.465
 4133W        W67890   1.884   0.806  12.979
 4134W        W67891  39.923   8.705   0.931
 4135W        W67892  28.974  39.973   4.656
 4136W        W67893   3.338  23.519   4.757
 4137W        W67894   5.224   8.200   0.846
 4138W        W67895  34.971   8.892   4.830
 4139W        W67896  11.136  10.820   4.812
 4140W        W67897  30.572  13.638  12.830
 4141W        W67898  30.651  20.578   4.639
 4142W        W67899  39.505  35.972   3.740
 4143W        W67900  11.720  30.456   4.302
 4144W        W67901  22.578  18.118  12.379
 4145W        W67902  10.258  16.154   5.308
 4146W        W67903  10.156  13.701   0.844
 4147W        W67904   8.403  25.557  14.823
 4148W        W67905   5.262  36.364  12.515
 4149W        W67906  16.706  21.551  11.491
 4150W        W67907   7.297  34.064  13.361
 4151W        W67908  19.742  10.704  12.520
 4152W        W67909  31.533   5.849   0.856
 4153W        W67910  15.772  15.702  13.946
 4154W        W67911   0.885  10.825   0.467
 4155W        W67912  33.479  39.831  10.927
 4156W        W67913  25.019  19.695  12.556
 4157W        W67914  26.516  11.289   2.684
 4158W        W67915  10.172  38.058  12.490
 4159W        W67916  30.053  17.655   9.460
 4160W        W67917  20.061   6.413  11.899
 4161W        W67918   4.366  13.207  11.036
 4162W        W67919   3.224  40.934   2.208
 4163W        W67920  13.800   8.781   4.806
 4164W        W67921  15.628  36.350   2.782
 4165W        W67922   4.888  18.666  12.365
 4166W        W67923   2.965   9.357   0.799
 4167W        W67924  14.744  12.771   5.178
 4168W        W67925  42.329  25.536   1.851
 4169W        W67926  25.562  10.347   3.351
 4170W        W67927  19.716   4.765   0.259
 4171W        W67928  36.021   0.843   1.277
 4172W        W67929  26.062  33.427  14.032
 4173W        W67930  15.258  12.778   9.992
 4174W        W67931  43.818   5.372   1.870
 4175W        W67932  41.850   7.379  14.862
 4176W        W67933   7.402   3.217   2.297
 4177W        W67934  22.670  41.291  13.387
 4178W        W67935  10.273   6.693   1.816
 4179W        W67936  20.545  21.549   0.323
 4180W        W67937  15.703   3.822  12.932
 4181W        W67938  15.312   7.173   1.402
 4182W        W67939  40.429   1.877   0.849
 4183W        W67940  41.910  39.556  14.357
 4184W        W67941  28.559   0.358   3.200
 4185W        W67942   1.963   4.403   3.269
 4186W        W67943  27.973  26.648   1.269
 4187W        W67944   3.335  14.338  10.572
 4188W        W67945  34.942   8.695  14.424
 4189W        W67946  29.930  34.465   4.806
 4190W        W67947  33.092  26.195  11.451
 4191W        W67948   5.892   5.285  13.404
 4192W        W67949   1.321   1.975  10.534
 4193W        W67950  28.165   3.772   0.379
 4194W        W67951   3.789   0.295   0.394
 4195W        W67952  25.215  17.670  11.490
 4196W        W67953  38.017   0.952  12.997
 4197W        W67954  16.206  12.818  10.891
 4198W        W67955  11.155  26.181   0.370
 4199W        W67956  43.387  23.499  11.013
 4200W        W67957  27.067  10.240  11.948
 4201W        W67958  17.801  17.671   3.182
 4202W        W67959  24.626   0.300  11.571
 4203W        W67960  12.627  35.091  14.948
 4204W        W67961   2.261  21.173   3.673
 4205W        W67962  21.144  25.173   9.949
 4206W        W67963  14.300  20.536   2.720
 4207W        W67964  39.836  24.712  11.492
 4208W        W67965   2.951  19.217  11.610
 4209W        W67966  27.109  12.793  14.485
 4210W        W67967  29.448  12.275  14.006
 4211W        W67968  32.561   4.877  12.046
 4212W        W67969  39.526   3.291  12.933
 4213W        W67970  38.388   7.385   1.756
 4214W        W67971  33.573  17.698  11.894
 4215W        W67972  37.985  36.037   4.215
 4216W        W67973  17.724  18.096   0.754
 4217W        W67974  30.431  10.789  11.433
 4218W        W67975   6.192  24.016   4.135
 4219W        W67976  11.670  39.986   0.438
 4220W        W67977   9.649  43.461   4.683
 4221W        W67978  25.137  37.509  14.358
 4222W        W67979  18.619  16.083  10.951
 4223W        W67980  15.329   8.722  13.468
 4224W        W67981   7.752  30.024   3.167
 4225W        W67982   5.217   0.788   4.797
 4226W        W67983  31.110  22.117   2.216
 4227W        W67984   6.887  36.414  12.833
 4228W        W67985  11.643  35.470   1.358
 4229W        W67986   9.872  16.576   2.868
 4230W        W67987  17.778   7.691   4.304
 4231W        W67988   3.823  34.897   0.382
 4232W        W67989  25.065   9.325   2.873
 4233W        W67990  26.495  26.111   4.200
 4234W        W67991  38.055  44.911   4.275
 4235W        W67992  20.254  14.765  12.034
 4236W        W67993  16.770  15.280   0.401
 4237W        W67994  31.426  13.194  13.808
 4238W        W67995  18.676  11.843   5.307
 4239W        W67996  43.913   7.219  14.886
 4240W        W67997  16.808  15.641   2.845
 4241W        W67998  10.228   6.313  14.492
 4242W        W67999  16.744  43.342   4.826
 4243W        W68000  40.545  44.337  12.907
 4244W        W68001  29.616  33.021   4.618
 4245W        W68002  29.122  10.173   3.306
 4246W        W68003  17.112   3.439   2.875
 4247W        W68004  26.046  14.221  14.511
 4248W        W68005   4.448  12.799  12.824
 4249W        W68006  24.042  33.452  10.426
 4250W        W68007  10.167  13.746  12.521
 4251W        W68008  41.414  11.863  14.768
 4252W        W68009  24.139   6.382  10.933
 4253W        W68010   4.773  31.024  13.887
 4254W        W68011   0.338  27.077  14.011
 4255W        W68012  43.773  38.022  12.343
 4256W        W68013  18.593  42.964  13.326
 4257W        W68014  27.498  44.432  12.086
 4258W        W68015  14.299  16.196   2.331
 4259W        W68016  13.298  31.931   1.293
 4260W        W68017  37.985   7.289   3.337
 4261W        W68018  35.477   8.677   0.766
 4262W        W68019   2.921  21.193  14.458
 4263W        W68020  40.407  28.565   4.334
 4264W        W68021   8.773   7.814  13.980
 4265W        W68022  15.167  36.435   1.381
 4266W        W68023   8.197  44.782  13.491
 4267W        W68024  15.644  12.622  14.793
 4268W        W68025  35.587   2.764   4.144
 4269W        W68026  16.671  24.097  13.918
 4270W        W68027  30.484  37.495   5.103
 4271W        W68028  32.477  29.142  13.902
 4272W        W68029   7.717  16.773   2.790
 4273W        W68030  32.549  36.404  12.488
 4274W        W68031  15.615  20.198  10.586
 4275W        W68032  25.637   5.858  10.509
 4276W        W68033  21.243  31.543  11.414
 4277W        W68034  24.152  35.604  14.297
 4278W        W68035  17.065  16.203  14.315
 4279W        W68036   5.761  44.945   4.148
 4280W        W68037   0.778  40.318   2.787
 4281W        W68038  13.666   9.312   4.177
 4282W        W68039  12.178  41.518  10.927
 4283W        W68040  27.944  16.631  12.368
 4284W        W68041  40.983  15.092  13.344
 4285W        W68042  41.389   4.815   1.712
 4286W        W68043  11.695  41.428  11.523
 4287W        W68044  11.192  16.206   9.588
 4288W        W68045  32.506  37.379   2.673
 4289W        W68046   8.763  41.430  11.884
 4290W        W68047  41.401  18.720   4.215
 4291W        W68048  20.631  37.439   0.348
 4292W        W68049  20.200  13.706  13.489
 4293W        W68050  31.904  24.085   3.668
 4294W        W68051  38.895  39.057  10.561
 4295W        W68052  16.611  30.509   3.782
 4296W        W68053  44.802   9.324  10.954
 4297W        W68054  32.526  29.505   3.195
 4298W        W68055  10.853  36.532   3.773
 4299W        W68056   8.287  39.951  13.440
 4300W        W68057  37.514   0.752  13.973
 4301W        W68058   2.790  18.238   3.819
 4302W        W68059  24.527   8.169  12.501
 4303W        W68060  29.920  32.510  12.042
 4304W        W68061  36.353  37.562  10.460
 4305W        W68062  12.772  27.571  10.961
 4306W        W68063  25.163  36.860   3.820
 4307W        W68064  17.675  13.215  14.007
 4308W        W68065  29.938   2.898   2.812
 4309W        W68066   8.207  39.811   0.345
 4310W        W68067  44.413  43.473  14.468
 4311W        W68068   2.826  39.388  10.505
 4312W        W68069   1.403   6.327   1.217
 4313W        W68070  40.931  20.716  11.109
 4314W        W68071  34.968   4.910  11.549
 4315W        W68072  39.945  30.460   3.312
 4316W        W68073  21.159  39.497  14.393
 4317W        W68074   5.721  23.181  11.549
 4318W        W68075  28.181  34.608  12.890
 4319W        W68076   8.377   2.386   1.827
 4320W        W68077   9.847  22.718   2.378
 4321W        W68078  41.031  43.309  11.982
 4322W        W68079  32.557  19.053  13.518
 4323W        W68080  19.192  25.209   0.816
 4324W        W68081  40.046   9.307  10.518
 4325W        W68082  12.318  14.592   4.763
 4326W        W68083  24.015  36.858  11.512
 4327W        W68084  24.179  27.991   2.317
 4328W        W68085   5.330  24.134   3.305
 4329W        W68086   1.390  31.022   3.237
 4330W        W68087   8.373   6.314  10.633
 4331W        W68088  24.184  24.030   5.111
 4332W        W68089   3.329  44.957  11.441
 4333W        W68090  12.793  16.299  10.968
 4334W        W68091   7.877  26.672  10.995
 4335W        W68092  16.697  31.054   3.785
 4336W        W68093  26.492  26.136  14.815
 4337W        W68094  40.491  12.773  12.451
 4338W        W68095  43.010  32.420  12.388
 4339W        W68096  37.515  32.008  13.345
 4340W        W68097  33.554   2.962   0.784
 4341W        W68098  21.629  43.419   1.848
 4342W        W68099   8.364  16.577   2.194
 4343W        W68100  39.879   5.711   3.185
 4344W        W68101  44.001   8.716  14.917
 4345W        W68102  30.942  15.629   3.338
 4346W        W68103   7.846  21.187  14.957
 4347W        W68104   2.759  15.219  12.557
 4348W        W68105   4.437  27.970   0.436
 4349W        W68106   3.296   7.327  14.415
 4350W        W68107   0.490   7.764  12.910
 4351W        W68108  24.548  24.529   1.876
 4352W        W68109  39.057  37.434   4.306
 4353W        W68110  42.020  14.185   0.966
 4354W        W68111   8.852  35.989   0.750
 4355W        W68112  36.036  34.026   2.385
 4356W        W68113  25.503   6.812   4.271
 4357W        W68114  43.845  35.363   2.683
 4358W        W68115  13.113  43.792   1.896
 4359W        W68116  17.088  15.106  11.435
 4360W        W68117  24.504  37.850   0.960
 4361W        W68118  23.684  38.012   0.467
 4362W        W68119  28.087   9.251   1.419
 4363W        W68120  19.224  23.125   2.264
 4364W        W68121  19.760  26.974   0.448
 4365W        W68122   4.217  22.215   0.862
 4366W        W68123   6.395   7.694  13.792
 4367W        W68124  38.922  42.350   3.789
 4368W        W68125  33.882  31.139  10.495
 4369W        W68126  28.931   2.739  13.430
 4370W        W68127  43.304  17.722   3.670
 4371W        W68128  22.669   4.795  11.392
 4372W        W68129  23.237  22.728  13.791
 4373W        W68130   9.316  42.909   3.304
 4374W        W68131  37.904  13.649   0.295
 4375W        W68132  39.993  21.121  13.315
 4376W        W68133  43.366  37.559   0.878
 4377W        W68134  26.472   4.445  13.926
 4378W        W68135   4.800  39.955  14.008
 4379W        W68136  39.461  14.221  10.470
 4380W        W68137  24.618  19.135  11.584
 4381W        W68138   1.314   1.931   3.306
 4382W        W68139  20.658   8.846  11.407
 4383W        W68140  35.970  24.986   4.181
 4384W        W68141  43.809  19.172  13.950
 4385W        W68142  12.636  42.959  10.156
 4386W        W68143  33.088  33.426  13.372
 4387W        W68144   4.373   9.250   2.785
 4388W        W68145   5.870  24.644   0.837
 4389W        W68146  22.244  42.971  13.409
 4390W        W68147  42.874  12.309   4.773
 4391W        W68148  26.967  15.217   1.315
 4392W        W68149  43.306  18.572   0.865
 4393W        W68150  29.642  20.271   3.768
 4394W        W68151  39.430  18.093   1.901
 4395W        W68152   8.322  25.504   4.212
 4396W        W68153   0.771  42.829   3.151
 4397W        W68154  42.962  19.727  11.378
 4398W        W68155  22.999  37.076   9.453
 4399W        W68156  13.647   1.423  14.497
 4400W        W68157  11.672  22.121  14.356
 4401W        W68158  24.490  14.833   2.362
 4402W        W68159  36.972  38.906   3.643
 4403W        W68160  30.009  40.869   2.322
 4404W        W68161  13.292  33.552  13.826
 4405W        W68162  19.592  15.686   3.850
 4406W        W68163  21.539  24.521   2.705
 4407W        W68164  33.967  35.504   1.755
 4408W        W68165  21.641  39.993   2.856
 4409W        W68166  43.373  13.601  12.519
 4410W        W68167   0.848  44.754  14.424
 4411W        W68168  35.015   1.294  11.506
 4412W        W68169  42.322  34.590   0.766
 4413W        W68170  42.466  17.086   3.196
 4414W        W68171   1.966  27.168  10.409
 4415W        W68172  36.454   9.808   3.336
 4416W        W68173   6.896  38.400   0.818
 4417W        W68174  19.689   9.212  10.930
 4418W        W68175  23.155  24.661   3.753
 4419W        W68176  43.831  31.900  12.449
 4420W        W68177  23.706  16.132  13.406
 4421W        W68178  44.901  34.945   4.195
 4422W        W68179  35.872  15.686   0.310
 4423W        W68180  36.534  13.603  14.368
 4424W        W68181  32.029  24.187   1.894
 4425W        W68182  43.403   1.960  14.308
 4426W        W68183   4.897   8.659   5.144
 4427W        W68184  21.566  42.013  14.413
 4428W        W68185  38.837  22.050  10.907
 4429W        W68186  16.602  16.262   0.924
 4430W        W68187  33.102  13.163   1.802
 4431W        W68188  28.015  18.176  14.511
 4432W        W68189  27.659  27.607  14.497
 4433W        W68190  13.148  21.523  12.872
 4434W        W68191  12.313  29.084  13.403
 4435W        W68192  24.979  18.194   1.335
 4436W        W68193  30.968   9.188  11.402
 4437W        W68194  10.270  32.051  10.617
 4438W        W68195  32.132  43.500  12.055
 4439W        W68196  24.488  22.057   2.412
 4440W        W68197  17.116  30.572  10.434
 4441W        W68198  16.250  21.168   0.468
 4442W        W68199  13.814  18.665  11.412
 4443W        W68200   4.912  21.057  11.036
 4444W        W68201   3.218  14.646  11.023
 4445W        W68202  36.099  30.635  10.643
 4446W        W68203   5.397   1.391  13.921
 4447W        W68204   7.368  20.191   1.844
 4448W        W68205  37.495  28.590   2.366
 4449W        W68206  37.863   7.324  12.844
 4450W        W68207  15.107   8.696  14.931
 4451W        W68208  25.477  44.842   2.885
 4452W        W68209  38.977  37.520   2.347
 4453W        W68210  31.915   5.722  11.071
 4454W        W68211  25.559   2.856   1.320
 4455W        W68212  34.455   8.726   3.183
 4456W        W68213  27.601  12.322  13.513
 4457W        W68214  14.277  24.985  11.918
 4458W        W68215  36.422  18.763  11.931
 4459W        W68216  23.493  11.182   2.774
 4460W        W68217  14.645  24.518  14.814
 4461W        W68218   2.422  29.473  13.439
 4462W        W68219  12.826  27.498  14.904
 4463W        W68220  25.180   7.224   2.704
 4464W        W68221   6.253  35.090   2.699
 4465W        W68222  38.545  39.983   0.764
 4466W        W68223  30.931  24.194   4.708
 4467W        W68224   6.349  10.637  11.573
 4468W        W68225  40.364  34.453  13.376
 4469W        W68226   4.699  15.289  13.850
 4470W        W68227  11.147  43.808   2.233
 4471W        W68228  30.433  35.910   1.847
 4472W        W68229  24.039  36.499   9.959
 4473W        W68230  43.380  41.385   2.757
 4474W        W68231  29.944  32.635   2.376
 4475W        W68232  33.508   4.285   1.248
 4476W        W68233  42.448   3.946   1.270
 4477W        W68234   8.197   9.189   1.857
 4478W        W68235   8.234  19.585  14.927
 4479W        W68236  22.542  40.043   3.355
 4480W        W68237   7.256   1.858  14.377
 4481W        W68238  39.366   9.182  12.440
 4482W        W68239   3.720  27.197   3.815
 4483W        W68240  42.855  44.007   2.777
 4484W        W68241  41.393  18.629   0.749
 4485W        W68242  35.882  36.366  12.863
 4486W        W68243  24.055  39.370  13.417
 4487W        W68244  16.288  19.111   0.271
 4488W        W68245  35.981   2.284  12.504
 4489W        W68246  21.748   1.847  12.406
 4490W        W68247  11.139  26.196   2.376
 4491W        W68248  15.638   0.455   2.323
 4492W        W68249   9.214   2.754   4.282
 4493W        W68250  25.123  24.183   2.207
 4494W        W68251  23.519  37.927   1.735
 4495W        W68252  17.071   8.891  13.980
 4496W        W68253  21.112  28.608   2.347
 4497W        W68254  44.275  16.611   4.685
 4498W        W68255  10.272  32.605  13.492
 4499W        W68256  23.555  18.152   1.757
 4500W        W68257   2.342  16.712  10.435
 4501W        W68258  21.675  36.048   4.338
 4502W        W68259  23.674  10.226  12.561
 4503W        W68260   7.323   6.763   4.774
 4504W        W68261   0.327  24.068   0.468
 4505W        W68262  30.057   6.908   1.913
 4506W        W68263   0.949  37.083   1.394
 4507W        W68264  24.005  17.216  13.058
 4508W        W68265  11.278   8.845  11.051
 4509W        W68266  35.367  17.775   3.385
 4510W        W68267   4.424  44.764   0.835
 4511W        W68268  22.091  27.017   2.371
 4512W        W68269   0.784  11.354  11.482
 4513W        W68270  13.167  31.092   0.461
 4514W        W68271  18.674  30.503   5.241
 4515W        W68272  26.114  34.068   0.359
 4516W        W68273  41.040  13.207   1.321
 4517W        W68274  11.836  14.278   3.233
 4518W        W68275  10.741  44.955   1.893
 4519W        W68276   7.689   2.300  14.485
 4520W        W68277  22.634   0.436  10.608
 4521W        W68278  41.936  30.418   3.242
 4522W        W68279  40.510  40.366  10.478
 4523W        W68280  32.583  16.306   0.340
 4524W        W68281   8.360  18.211  12.447
 4525W        W68282  20.271   1.749  14.471
 4526W        W68283   4.769  25.132   0.470
 4527W        W68284  34.997   0.953  13.325
 4528W        W68285  26.484  32.057   5.165
 4529W        W68286  17.701  28.139   3.263
 4530W        W68287  18.705  21.029   2.772
 4531W        W68288  31.016  32.576  10.970
 4532W        W68289   7.847  32.919  11.389
 4533W        W68290  32.509  17.716   3.775
 4534W        W68291  30.514   5.439   3.827
 4535W        W68292  32.898   1.925   2.878
 4536W        W68293  34.876   2.247  13.877
 4537W        W68294  30.463  23.002   1.873
 4538W        W68295  43.907  42.805   2.774
 4539W        W68296   6.897  43.843  11.020
 4540W        W68297  34.878  13.172   1.393
 4541W        W68298  33.084  14.248  11.442
 4542W        W68299  19.581  16.308   3.237
 4543W        W68300  25.204  11.177   3.301
 4544W        W68301  19.248  36.015  13.820
 4545W        W68302  14.661  31.571   0.289
 4546W        W68303  34.975  40.909   4.645
 4547W        W68304  20.726  40.307   0.292
 4548W        W68305  27.590  33.620   2.230
 4549W        W68306  29.448  41.854   4.634
 4550W        W68307   1.314  12.271  11.431
 4551W        W68308  41.367  17.254  10.937
 4552W        W68309  11.843  17.208   0.791
 4553W        W68310  43.380   1.939   0.300
 4554W        W68311  37.075  25.668  14.807
 4555W        W68312  20.712   4.376   3.386
 4556W        W68313  29.166  34.894  11.605
 4557W        W68314  30.558  34.387   3.779
 4558W        W68315   3.927   9.841  12.926
 4559W        W68316  20.196  34.035   4.313
 4560W        W68317  19.628  37.350   1.927
 4561W        W68318  41.310  18.289   2.326
 4562W        W68319  26.563  25.218  13.402
 4563W        W68320  29.081  30.914  11.080
 4564W        W68321  44.931   8.733  12.471
 4565W        W68322  16.297  17.258  11.528
 4566W        W68323  28.578  13.693  13.439
 4567W        W68324  43.389  21.191   1.430
 4568W        W68325   4.311  39.388   3.711
 4569W        W68326  31.046  22.691   4.256
 4570W        W68327   5.884  34.941  13.887
 4571W        W68328  41.298   9.363  13.410
 4572W        W68329  27.475  41.510  13.934
 4573W        W68330  27.543  18.105   0.748
 4574W        W68331  41.806  37.476   2.292
 4575W        W68332   7.756  20.044  13.050
 4576W        W68333   9.819  28.172   4.666
 4577W        W68334  41.009  12.787   0.863
 4578W        W68335   1.976  33.958  11.941
 4579W        W68336  19.078  23.706  14.354
 4580W        W68337   6.397  14.304   4.252
 4581W        W68338  42.360  19.779   3.373
 4582W        W68339  17.559  42.925  11.881
 4583W        W68340  37.546  13.286  14.917
 4584W        W68341  28.624  13.104  12.971
 4585W        W68342  19.087  40.324   1.913
 4586W        W68343  38.031  24.016  13.357
 4587W        W68344   1.390  33.927   0.761
 4588W        W68345  31.595  29.539  11.998
 4589W        W68346   0.345  23.612  10.485
 4590W        W68347  32.924  15.192   2.210
 4591W        W68348  39.454  31.097  14.390
 4592W        W68349  37.994  24.008   2.324
 4593W        W68350  34.011  18.766   3.262
 4594W        W68351  26.971   6.382   2.693
 4595W        W68352  37.566   9.790   1.349
 4596W        W68353  31.071  29.444  14.902
 4597W        W68354   3.227   9.660   0.321
 4598W        W68355  11.833  29.930  11.410
 4599W        W68356  31.140  20.556   1.820
 4600W        W68357  39.008  15.806  14.846
 4601W        W68358  44.466   6.333  14.483
 4602W        W68359  35.464  15.714   1.706
 4603W        W68360  31.593  21.069  14.760
 4604W        W68361  14.651   0.878   4.796
 4605W        W68362  20.176  17.242  11.958
 4606W        W68363  17.635  21.613  14.009
 4607W        W68364  37.947  27.008   1.415
 4608W        W68365  31.946  41.448   0.760
 4609W        W68366  44.382   2.306   0.928
 4610W        W68367   9.836  31.001  14.995
 4611W        W68368  34.027  33.592  14.960
 4612W        W68369   0.804  10.277   0.808
 4613W        W68370   8.238   6.213   3.714
 4614W        W68371   0.316  32.545  11.026
 4615W        W68372  22.146  43.970  13.024
 4616W        W68373  18.625  39.526   4.251
 4617W        W68374   0.805  30.453   1.744
 4618W        W68375   9.286  12.782  12.071
 4619W        W68376  40.541  40.912  11.120
 4620W        W68377  13.320  43.454   4.712
 4621W        W68378   2.813  17.228  14.776
 4622W        W68379  21.552   9.719  12.903
 4623W        W68380  28.993  26.651  12.388
 4624W        W68381  42.799   4.706   3.146
 4625W        W68382  29.979  14.142   2.804
 4626W        W68383  16.790  27.034   4.776
 4627W        W68384  33.603   0.317   0.400
 4628W        W68385   8.789  21.680  12.057
 4629W        W68386  30.624  41.528   1.228
 4630W        W68387  28.627  36.589  11.390
 4631W        W68388  27.967   2.351  12.987
 4632W        W68389   7.724  31.522  11.074
 4633W        W68390  11.666  43.765   1.700
 4634W        W68391  35.868  44.856   4.271
 4635W        W68392  14.247  42.293  11.038
 4636W        W68393  24.106  17.705   1.218
 4637W        W68394   6.312  34.375  10.967
 4638W        W68395  14.318  42.450   1.882
 4639W        W68396  37.382  38.414  11.891
 4640W        W68397  23.057  38.482   2.886
 4641W        W68398   2.361  24.535  12.361
 4642W        W68399  15.579  25.148  13.811
 4643W        W68400  24.047  20.708  13.890
 4644W        W68401  34.906  26.698   2.831
 4645W        W68402  25.479  22.105   0.285
 4646W        W68403   5.235   2.792  12.910
 4647W        W68404   1.818  35.466  13.051
 4648W        W68405   3.221   4.336   4.808
 4649W        W68406  34.011  39.434  13.006
 4650W        W68407   6.350   5.801   2.241
 4651W        W68408   5.915  12.167   0.285
 4652W        W68409  10.711  40.411  11.926
 4653W        W68410  30.598  13.271   4.618
 4654W        W68411   5.762  32.945   4.340
 4655W        W68412  13.735  41.010   3.838
 4656W        W68413  10.675  15.092  12.018
 4657W        W68414  15.661  25.560   4.229
 4658W        W68415   9.838  14.165   3.192
 4659W        W68416  19.536  30.160   3.845
 4660W        W68417   8.239  17.733   3.857
 4661W        W68418  21.094  12.769  12.938
 4662W        W68419  33.876   7.194   2.766
 4663W        W68420  36.486  34.998  14.813
 4664W        W68421   3.728  34.086   1.221
 4665W        W68422  29.152   4.412  11.084
 4666W        W68423  21.649  32.563   3.160
 4667W        W68424  12.186  44.846   3.274
 4668W        W68425  31.078   2.270  11.378
 4669W        W68426   3.422  33.966  11.416
 4670W        W68427  20.091   2.869   4.332
 4671W        W68428  13.792  40.505   2.780
 4672W        W68429  33.570  27.535  13.483
 4673W        W68430   4.361  26.010   0.809
 4674W        W68431  38.849  32.086   5.233
 4675W        W68432  41.473   5.907   3.658
 4676W        W68433  37.507  28.479  11.126
 4677W        W68434   4.879  21.752  14.985
 4678W        W68435  20.196  35.515  12.040
 4679W        W68436  15.790  33.544  11.119
 4680W        W68437  27.528   5.725   1.876
 4681W        W68438  17.224   4.868  10.495
 4682W        W68439  41.958   7.385   5.295
 4683W        W68440  33.938  41.419   0.798
 4684W        W68441  24.169  14.725   3.310
 4685W        W68442   2.461  40.354  12.899
 4686W        W68443  34.609  10.707  11.381
 4687W        W68444   0.834  31.042  14.809
 4688W        W68445  20.598  24.573  11.573
 4689W        W68446  18.701  26.141  14.007
 4690W        W68447  37.936  28.021   1.817
 4691W        W68448  34.096  14.130  10.434
 4692W        W68449  35.428  16.639   1.752
 4693W        W68450  44.854  43.962   4.704
 4694W        W68451  29.670   8.364   4.348
 4695W        W68452   2.811   3.815  12.093
 4696W        W68453  21.064  36.419  11.471
 4697W        W68454  39.021  42.792  11.451
 4698W        W68455  33.482  14.220  14.479
 4699W        W68456  42.852   9.332  11.978
 4700W        W68457  30.557  44.469   3.712
 4701W        W68458  19.222  25.670   3.374
 4702W        W68459   1.422  13.201  13.809
 4703W        W68460  26.031   1.754   3.796
 4704W        W68461  43.315  23.501   0.451
 4705W        W68462  29.501  29.980  14.868
 4706W        W68463  12.646  36.517  11.396
 4707W        W68464  43.309  10.718   1.852
 4708W        W68465  33.423  40.395   2.756
 4709W        W68466   2.806  22.156  14.029
 4710W        W68467  31.609  44.891  12.059
 4711W        W68468  18.608  36.936   1.861
 4712W        W68469  30.158  40.505   3.255
 4713W        W68470  19.624  11.780   4.797
 4714W        W68471  20.709  24.497  12.466
 4715W        W68472  39.538  16.641  10.919
 4716W        W68473   7.740  28.948   1.237
 4717W        W68474  31.140  35.389   1.892
 4718W        W68475   1.274   3.758   2.207
 4719W        W68476  44.295  31.449   4.718
 4720W        W68477  35.933  13.834  12.912
 4721W        W68478  22.736  34.595   0.757
 4722W        W68479  38.886   5.751  11.608
 4723W        W68480  32.403  37.489   4.337
 4724W        W68481  15.699  28.133   4.198
 4725W        W68482  18.563  32.957  11.991
 4726W        W68483   2.447  23.014   3.847
 4727W        W68484  42.943   3.226   3.189
 4728W        W68485  38.388  10.365  14.438
 4729W        W68486  10.800  39.048   2.773
 4730W        W68487  23.119  23.713  13.380
 4731W        W68488   6.309   6.367   1.306
 4732W        W68489  27.576  22.688   3.800
 4733W        W68490   1.308  31.417  14.500
 4734W        W68491  35.014  32.429  11.898
 4735W        W68492  29.543  32.044  12.429
 4736W        W68493  19.082  33.107  10.569
 4737W        W68494  17.099  36.880  14.319
 4738W        W68495   4.310  22.725  11.427
 4739W        W68496  24.206  31.119  13.509
 4740W        W68497  43.386  31.996  12.573
 4741W        W68498  37.579  34.976   3.695
 4742W        W68499   8.688  31.627   0.440
 4743W        W68500  18.598  25.205   2.893
 4744W        W68501   1.816  39.494   1.447
 4745W        W68502  19.700  20.624   2.667
 4746W        W68503  10.690  34.908   0.415
 4747W        W68504   6.733  44.295  13.948
 4748W        W68505  31.090  31.588   1.337
 4749W        W68506  25.532  29.016  11.053
 4750W        W68507  30.546  34.043   0.387
 4751W        W68508   9.828  17.125   1.365
 4752W        W68509   0.942   9.228   2.218
 4753W        W68510  19.264  22.693  12.858
 4754W        W68511  37.043  28.520   0.460
 4755W        W68512  18.772  30.911   1.864
 4756W        W68513  19.262  25.126   5.249
 4757W        W68514  15.722   0.920  13.537
 4758W        W68515  23.045  18.205  10.928
 4759W        W68516  21.116   6.860   3.708
 4760W        W68517  43.816  10.814  12.087
 4761W        W68518  13.250  41.522  14.835
 4762W        W68519   7.770  30.466   5.176
 4763W        W68520  28.057  31.503  14.822
 4764W        W68521   9.645  25.110  10.635
 4765W        W68522   4.294  22.557   2.827
 4766W        W68523  24.556  10.157   4.798
 4767W        W68524  15.120  14.209   1.215
 4768W        W68525   2.394  19.109  12.386
 4769W        W68526  13.739   4.404   4.666
 4770W        W68527  18.607  35.484   4.830
 4771W        W68528   4.214   0.949   3.767
 4772W        W68529  29.108  10.339   1.925
 4773W        W68530  43.795  26.039  12.408
 4774W        W68531  28.650  34.439  13.938
 4775W        W68532  22.104  29.985  10.441
 4776W        W68533  22.067  15.103   0.779
 4777W        W68534  30.532  25.708  11.997
 4778W        W68535  27.980  32.018   2.404
 4779W        W68536  36.058  13.192   2.804
 4780W        W68537  33.490  31.140  10.442
 4781W        W68538  13.228  24.580   1.850
 4782W        W68539  39.400  25.667   1.851
 4783W        W68540   3.815  17.751   1.765
 4784W        W68541  21.707  16.780   1.308
 4785W        W68542  40.802  23.136   1.768
 4786W        W68543  20.551  13.178   1.413
 4787W        W68544  15.141  30.627  14.503
 4788W        W68545  38.349  14.144  13.421
 4789W        W68546   4.403  12.646   0.781
 4790W        W68547  12.215  37.558  13.843
 4791W        W68548   1.424  39.857   4.746
 4792W        W68549  13.665  10.826  10.558
 4793W        W68550  34.994  42.979  10.972
 4794W        W68551  20.621  21.246   3.692
 4795W        W68552  40.351  42.950  12.395
 4796W        W68553  15.149   7.404   4.302
 4797W        W68554  34.926  18.775   4.803
 4798W        W68555   4.895   3.344  10.450
 4799W        W68556  25.668  44.456   1.779
 4800W        W68557   9.890   7.353  13.444
 4801W        W68558   2.946  31.613  11.562
 4802W        W68559  14.719  26.639   2.858
 4803W        W68560  31.994  15.262  14.470
 4804W        W68561   2.463  16.210   0.313
 4805W        W68562  20.768   8.365  14.910
 4806W        W68563  14.127  12.128  10.437
 4807W        W68564  29.463  40.407  12.417
 4808W        W68565  26.628  11.706   4.635
 4809W        W68566  39.318  19.202  13.813
 4810W        W68567  32.412  23.119   4.126
 4811W        W68568  14.796  14.330   3.369
 4812W        W68569   2.402  23.577   3.275
 4813W        W68570  14.670  19.660   0.364
 4814W        W68571  26.062  42.406  11.990
 4815W        W68572   3.328  21.540   0.943
 4816W        W68573  41.404   6.373  13.412
 4817W        W68574  40.831  35.513  10.595
 4818W        W68575  39.493   5.749   4.811
 4819W        W68576  24.037  23.509  11.607
 4820W        W68577  34.496  17.280  11.613
 4821W        W68578  20.201  24.483  12.054
 4822W        W68579  33.407  23.636  11.085
 4823W        W68580  41.489  22.140  14.844
 4824W        W68581   2.418  22.104   2.891
 4825W        W68582  30.100  44.475   1.760
 4826W        W68583  15.180  13.270   9.510
 4827W        W68584  17.565  27.172  10.974
 4828W        W68585  16.212  37.449  11.926
 4829W        W68586  38.428  14.588   1.444
 4830W        W68587  41.531  16.697   1.778
 4831W        W68588   2.401  41.864  12.868
 4832W        W68589   0.966  17.237   9.969
 4833W        W68590   1.827  30.446   4.272
 4834W        W68591   9.309   1.270  14.893
 4835W        W68592  21.609  24.089   0.877
 4836W        W68593   7.896  38.529  14.483
 4837W        W68594  40.451  44.383   1.307
 4838W        W68595  16.628   4.277  12.913
 4839W        W68596  19.233   1.853  13.441
 4840W        W68597  43.370  31.916  10.555
 4841W        W68598  25.572   3.344  11.965
 4842W        W68599  17.588   8.325   3.745
 4843W        W68600   9.372  13.748   1.823
 4844W        W68601  38.347  30.061   2.221
 4845W        W68602  26.658  28.490   1.870
 4846W        W68603  39.518   8.277  11.527
 4847W        W68604  41.808  41.336  14.859
 4848W        W68605  31.139  34.057   3.842
 4849W        W68606  37.424  20.613   4.680
 4850W        W68607  41.477  42.288  13.959
 4851W        W68608   3.745  43.354   2.357
 4852W        W68609  19.278  10.308   2.729
 4853W        W68610   0.890  20.184  10.447
 4854W        W68611  37.084  32.996   0.286
 4855W        W68612   4.918  37.394  13.491
 4856W        W68613  16.792  40.451   4.743
 4857W        W68614  12.701  21.654   1.231
 4858W        W68615  13.660  20.690  12.478
 4859W        W68616   1.414  11.270  13.521
 4860W        W68617  20.764   0.446   2.201
 4861W        W68618   2.910  42.958   0.883
 4862W        W68619  14.151  22.654  14.401
 4863W        W68620  21.131  14.278   4.641
 4864W        W68621  15.793  36.380  13.940
 4865W        W68622  41.963   5.711  12.417
 4866W        W68623  29.140  36.852  12.481
 4867W        W68624  39.939  36.407   3.677
 4868W        W68625   5.801  17.699  12.391
 4869W        W68626   9.341  12.636  13.357
 4870W        W68627  10.325  10.163  12.929
 4871W        W68628  29.108  17.662  10.106
 4872W        W68629  22.587  25.611  11.988
 4873W        W68630  26.966  10.723  13.479
 4874W        W68631  39.350   2.250   3.650
 4875W        W68632  37.548  30.147  14.960
 4876W        W68633  37.582   5.390  14.357
 4877W        W68634  11.866  35.429   4.796
 4878W        W68635  37.862  16.239  12.513
 4879W        W68636  40.532  39.063   1.313
 4880W        W68637  19.235  28.534  12.999
 4881W        W68638   6.820  12.613   2.401
 4882W        W68639  11.805  25.123  11.115
 4883W        W68640  31.980  18.099  13.961
 4884W        W68641  20.669  15.136  14.282
 4885W        W68642  16.287   1.455   3.213
 4886W        W68643  12.286  19.654  12.361
 4887W        W68644   2.869  41.498   0.466
 4888W        W68645  24.010   7.710  12.395
 4889W        W68646  25.551   0.971   3.843
 4890W        W68647  37.440  18.602   0.251
 4891W        W68648  42.346  27.053   3.222
 4892W        W68649  27.663   5.694   1.415
 4893W        W68650  23.516  31.502   1.777
 4894W        W68651  26.968   8.369  10.555
 4895W        W68652  29.045  23.987   4.766
 4896W        W68653  40.450  40.917   2.818
 4897W        W68654  39.853  22.055   3.724
 4898W        W68655  42.916  19.172  10.947
 4899W        W68656  20.134  27.177  11.057
 4900W        W68657  44.937  32.474   3.362
 4901W        W68658  36.524  18.710  10.602
 4902W        W68659  36.003  18.120  11.899
 4903W        W68660  30.090   3.798   0.461
 4904W        W68661  24.036  14.658   3.709
 4905W        W68662  35.459  27.462   3.665
 4906W        W68663   6.215  22.698  10.096
 4907W        W68664  23.529  18.758   2.339
 4908W        W68665  19.048  11.756  10.495
 4909W        W68666   2.330   9.841  13.871
 4910W        W68667  34.413  25.026   4.828
 4911W        W68668  37.984  39.822  14.481
 4912W        W68669   7.728   1.438   1.250
 4913W        W68670  21.177  12.148  11.437
 4914W        W68671  44.949  27.657   2.687
 4915W        W68672  26.600  22.160  12.906
 4916W        W68673  44.397  43.373   1.401
 4917W        W68674  26.998   1.255   0.837
 4918W        W68675   3.276  28.462  13.436
 4919W        W68676  29.025   5.900   3.162
 4920W        W68677  24.974  25.139   2.805
 4921W        W68678  10.268  28.087  12.877
 4922W        W68679  21.581  16.574   3.286
 4923W        W68680  18.184  16.676  10.001
 4924W        W68681  23.182  36.047   0.416
 4925W        W68682   0.474  22.717   2.316
 4926W        W68683  18.251  18.176   2.193
 4927W        W68684  31.490  14.183  12.905
 4928W        W68685   3.762  44.757  12.537
 4929W        W68686  26.589  44.465   3.204
 4930W        W68687  35.563  19.692   2.672
 4931W        W68688  22.616  24.605   1.233
 4932W        W68689   7.371  12.649  14.921
 4933W        W68690  20.053  40.352   2.859
 4934W        W68691  34.085   1.874   1.403
 4935W        W68692  14.327  42.491   4.160
 4936W        W68693  20.063  14.757  10.461
 4937W        W68694  38.995   9.807   0.776
 4938W        W68695  35.564  16.089   2.195
 4939W        W68696   8.239  32.614  12.056
 4940W        W68697   8.327  14.737  11.100
 4941W        W68698  40.805  42.349  11.460
 4942W        W68699  42.829   6.336  13.330
 4943W        W68700  22.006  35.557   5.265
 4944W        W68701  15.142  28.016   2.704
 4945W        W68702   8.674  44.385   1.220
 4946W        W68703  33.961  15.267  12.981
 4947W        W68704  30.494  35.583   3.745
 4948W        W68705  21.179  34.911  11.416
 4949W        W68706  25.119  30.072   2.192
 4950W        W68707   3.288  42.485   4.828
 4951W        W68708  27.104   2.794  12.987
 4952W        W68709  16.252  23.220  10.441
 4953W        W68710  19.610  39.022   1.429
 4954W        W68711  39.535  26.551   1.434
 4955W        W68712  33.515  33.006  12.027
 4956W        W68713  31.557  37.001   3.281
 4957W        W68714   6.919  18.683   4.794
 4958W        W68715  26.588  40.363  11.017
 4959W        W68716  31.995  11.238  10.507
 4960W        W68717  41.949  24.175   1.935
 4961W        W68718  32.078  14.260   0.419
 4962W        W68719  15.144  36.981   1.800
 4963W        W68720   2.402  15.591   4.120
 4964W        W68721  27.148  41.903  14.826
 4965W        W68722  19.259  16.732   4.743
 4966W        W68723  29.102  41.394   3.340
 4967W        W68724  13.674   1.786   2.815
 4968W        W68725   0.370   9.882   3.780
 4969W        W68726   6.849   0.434   1.437
 4970W        W68727  40.945  36.075   1.370
 4971W        W68728  31.415  36.876   2.825
 4972W        W68729  43.995  18.692  11.514
 4973W        W68730  25.093  19.694   5.249
 4974W        W68731  36.022  26.674   3.384
 4975W        W68732  42.480  28.163   3.350
 4976W        W68733  27.089  31.402  14.819
 4977W        W68734   9.665  43.964   3.220
 4978W        W68735  31.046  32.094   1.732
 4979W        W68736  21.539   0.409  10.447
 4980W        W68737  13.335  23.560   2.193
 4981W        W68738  26.065  25.634   2.188
 4982W        W68739  29.602   7.722   0.288
 4983W        W68740  16.731  25.666   0.769
 4984W        W68741  32.085  29.504   0.952
 4985W        W68742   5.914  19.677  13.501
 4986W        W68743  15.239  39.328   4.179
 4987W        W68744  43.822  34.996  12.396
 4988W        W68745  33.609   5.802  12.578
 4989W        W68746  41.333  43.490   0.797
 4990W        W68747  44.302  22.718   2.698
 4991W        W68748  16.716  39.059  11.462
 4992W        W68749  17.165  36.879   4.121
 4993W        W68750  16.760  10.265   2.239
 4994W        W68751  23.231  29.983   1.331
 4995W        W68752   6.199  30.944   2.740
 4996W        W68753  41.527  10.788   4.228
 4997W        W68754  12.857  24.721  12.960
 4998W        W68755  34.391   6.813  14.817
 4999W        W68756  17.584  13.346   2.272
 5000W        W68757  40.938  17.615  12.553
 5001W        W68758  25.147  38.488   2.853
 5002W        W68759  18.741  22.145   3.252
 5003W        W68760  38.342  37.452  13.389
 5004W        W68761  37.559  41.307  13.326
 5005W        W68762  36.481  17.634  11.009
 5006W        W68763  42.789  39.550   2.310
 5007W        W68764  43.387  27.687   2.679
 5008W        W68765  24.703  32.411  10.986
 5009W        W68766   4.872  29.559   1.786
 5010W        W68767   1.238  14.602   1.920
 5011W        W68768  19.775  39.885  10.484
 5012W        W68769  17.225  42.780   4.693
 5013W        W68770  19.204  35.453  14.024
 5014W        W68771   5.928  29.960  14.907
 5015W        W68772  35.559  40.885   2.265
 5016W        W68773  44.402  16.776   0.869
 5017W        W68774  28.077   6.394   0.832
 5018W        W68775  11.858   0.752  14.986
 5019W        W68776  28.516   5.303   5.664
 5020W        W68777  39.065  33.040  10.583
 5021W        W68778   8.177   7.911   3.280
 5022W        W68779  42.844   3.746  13.856
 5023W        W68780  44.972   5.746   2.367
 5024W        W68781  12.776  22.133   2.244
 5025W        W68782  34.432  10.793   0.407
 5026W        W68783  18.083  21.076  12.918
 5027W        W68784  20.207   2.419   3.848
 5028W        W68785  36.005  32.578  11.460
 5029W        W68786  34.881  16.603   2.692
 5030W        W68787  10.793  38.354   0.834
 5031W        W68788   3.294  23.063   0.305
 5032W        W68789  29.533  18.284  12.397
 5033W        W68790   2.438  16.776  11.405
 5034W        W68791  43.868  39.476  10.991
 5035W        W68792   5.214  43.406   1.280
 5036W        W68793  26.014   7.697  14.323
 5037W        W68794   0.415  31.434   1.860
 5038W        W68795   9.798  29.922   0.325
 5039W        W68796  23.712  26.671   1.254
 5040W        W68797  12.197  17.206  10.602
 5041W        W68798  29.513   0.426   0.941
 5042W        W68799  43.288  28.147   4.348
 5043W        W68800  12.833  34.055  13.310
 5044W        W68801  27.641  31.984   0.921
 5045W        W68802   9.279  18.197   4.159
 5046W        W68803   4.426  43.843   1.350
 5047W        W68804  39.967  38.964   2.197
 5048W        W68805  27.672  15.773  12.889
 5049W        W68806  22.189  23.668  14.803
 5050W        W68807  44.480   3.312  10.416
 5051W        W68808   2.354  21.218   2.700
 5052W        W68809  35.579  41.360   4.334
 5053W        W68810   8.215  18.752   4.637
 5054W        W68811  29.113  12.617   0.314
 5055W        W68812  28.141   7.175   2.182
 5056W        W68813   6.719  30.438   1.835
 5057W        W68814  40.920  17.080   2.844
 5058W        W68815  14.265  27.173   0.825
 5059W        W68816   7.680  19.041  14.981
 5060W        W68817   3.786   8.247   3.242
 5061W        W68818  30.992  14.314   3.234
 5062W        W68819  44.355  36.020  13.330
 5063W        W68820  21.122  35.009   1.367
 5064W        W68821  40.465  10.214   1.312
 5065W        W68822  21.655   7.768   4.126
 5066W        W68823  22.677  42.887   4.637
 5067W        W68824  34.490  41.821   2.391
 5068W        W68825  10.201  44.851   4.221
 5069W        W68826  14.101   8.768   0.757
 5070W        W68827  11.170  17.062   1.345
 5071W        W68828  38.516   4.822  13.318
 5072W        W68829  35.988   5.757   1.802
 5073W        W68830   7.188  31.563   1.249
 5074W        W68831  16.288   4.366   4.170
 5075W        W68832  41.404  27.681  11.457
 5076W        W68833   0.922  17.171   5.241
 5077W        W68834  30.557  36.477  10.642
 5078W        W68835   4.786   0.980   0.906
 5079W        W68836  34.899  43.859  13.927
 5080W        W68837   4.349  36.899   2.683
 5081W        W68838  17.186  30.429   1.871
 5082W        W68839   1.770  17.593  14.930
 5083W        W68840  13.243  42.497  10.095
 5084W        W68841  13.798  32.900   1.431
 5085W        W68842  10.837  15.806  10.588
 5086W        W68843  23.678   1.871  11.920
 5087W        W68844  23.183  23.986  10.590
 5088W        W68845  16.637  22.599  11.555
 5089W        W68846  30.945  39.048   3.841
 5090W        W68847  22.072  14.284  12.411
 5091W        W68848  17.263  40.840  13.524
 5092W        W68849  28.095  43.784   0.874
 5093W        W68850  13.162   5.345   0.775
 5094W        W68851  41.478  15.141   0.347
 5095W        W68852  39.402  27.071  12.898
 5096W        W68853  21.077  17.676   2.772
 5097W        W68854  44.963   9.741   4.227
 5098W        W68855  43.874  43.325  10.491
 5099W        W68856   6.390  20.762  11.056
 5100W        W68857  31.492  32.437   1.313
 5101W        W68858   4.729  35.403  12.546
 5102W        W68859  34.033  28.093   2.728
 5103W        W68860  38.443  17.679   3.825
 5104W        W68861   2.280  43.279   0.855
 5105W        W68862  35.870   1.369   4.135
 5106W        W68863  39.332  37.846  13.398
 5107W        W68864  28.082  13.277   4.216
 5108W        W68865  35.975  26.583  13.033
 5109W        W68866  10.790  28.504   4.599
 5110W        W68867  34.396  20.154   4.699
 5111W        W68868   9.669  29.504   3.197
 5112W        W68869  20.128  39.059   3.818
 5113W        W68870   3.261  38.970   3.768
 5114W        W68871  35.530  28.576  12.397
 5115W        W68872  21.565  31.916  12.442
 5116W        W68873  19.601  36.538   0.943
 5117W        W68874  26.096  16.123  13.800
 5118W        W68875  26.149  17.762   1.714
 5119W        W68876  35.046  19.694  12.359
 5120W        W68877   9.372   1.968  14.296
 5121W        W68878   4.449  28.144  13.525
 5122W        W68879  12.697   1.749   3.168
 5123W        W68880   7.360  41.927   2.215
 5124W        W68881  19.585  16.141  10.515
 5125W        W68882  17.594  22.241   1.302
 5126W        W68883  11.310  44.927   0.827
 5127W        W68884  24.498  43.964  13.823
 5128W        W68885  21.521   2.413  13.451
 5129W        W68886  26.115  15.143  12.408
 5130W        W68887  33.453  37.370  11.517
 5131W        W68888  43.863  27.495  12.056
 5132W        W68889  42.886   1.823   3.307
 5133W        W68890  36.096   7.243   4.247
 5134W        W68891   2.261  37.930   4.337
 5135W        W68892  32.506   2.830  13.828
 5136W        W68893  39.379  43.813   0.735
 5137W        W68894  20.534  11.209  10.460
 5138W        W68895  19.658   1.245  13.872
 5139W        W68896   9.740  36.860   3.296
 5140W        W68897  13.694  31.113   1.298
 5141W        W68898  42.849   4.348  11.952
 5142W        W68899  26.465  25.677  11.506
 5143W        W68900  14.814   8.231   2.346
 5144W        W68901  24.553  34.414   3.829
 5145W        W68902   9.750   5.210  12.854
 5146W        W68903   1.903  19.120   4.781
 5147W        W68904  34.398  40.469  11.051
 5148W        W68905  44.300  22.518   2.305
 5149W        W68906  15.214  23.123  10.439
 5150W        W68907   2.454  32.463   2.900
 5151W        W68908   7.893  35.107  10.094
 5152W        W68909  11.139  33.018  14.859
 5153W        W68910  34.533  31.918   2.779
 5154W        W68911  38.331   6.327  11.897
 5155W        W68912  44.333   7.402  14.941
 5156W        W68913  28.119  20.155  10.519
 5157W        W68914   6.677  31.608  12.970
 5158W        W68915  23.648  25.525   9.955
 5159W        W68916   2.379  43.433   1.900
 5160W        W68917  13.618  32.591   3.751
 5161W        W68918  11.831  38.465  10.913
 5162W        W68919  30.615  22.133   2.247
 5163W        W68920   3.429  43.369  10.428
 5164W        W68921  41.342  15.132   4.633
 5165W        W68922  44.848  13.238  12.535
 5166W        W68923  16.649  36.061  12.922
 5167W        W68924  18.768   1.769  14.348
 5168W        W68925  33.069  32.489  10.558
 5169W        W68926  35.946  18.729   1.402
 5170W        W68927  33.061   6.298   2.252
 5171W        W68928  14.164  30.043  10.485
 5172W        W68929   9.845  23.575   4.134
 5173W        W68930   5.700  22.013   1.274
 5174W        W68931  22.012  20.535   3.369
 5175W        W68932  33.946  29.154   5.179
 5176W        W68933  16.695  38.430  14.796
 5177W        W68934  13.231   4.705  14.929
 5178W        W68935  31.627  25.499   1.367
 5179W        W68936  16.309  32.487  11.379
 5180W        W68937   7.178  29.936   1.319
 5181W        W68938  36.396  37.488   4.657
 5182W        W68939  41.814  42.314   2.210
 5183W        W68940   1.970  17.279   3.386
 5184W        W68941  41.931  13.736  11.896
 5185W        W68942  11.813  21.125  12.076
 5186W        W68943   0.279  10.291   0.393
 5187W        W68944  11.746  38.832  11.594
 5188W        W68945  14.136   7.359  10.584
 5189W        W68946  39.844   9.213   3.787
 5190W        W68947  34.014  25.557   0.398
 5191W        W68948  19.762  11.630   2.887
 5192W        W68949   1.740  22.747   1.725
 5193W        W68950  29.661   1.968  14.292
 5194W        W68951  23.604  32.100   1.363
 5195W        W68952  14.291  30.033  11.872
 5196W        W68953  17.263   3.335  12.998
 5197W        W68954   8.698  26.480   5.153
 5198W        W68955  11.272  39.500   3.203
 5199W        W68956  15.688  32.981   2.321
 5200W        W68957   7.695  29.572  13.849
 5201W        W68958  35.382  23.599   1.805
 5202W        W68959  32.992  29.135   4.289
 5203W        W68960  31.087  20.064   3.724
 5204W        W68961  35.932  40.346  11.935
 5205W        W68962  17.566   6.740   2.678
 5206W        W68963  43.944  22.995  12.017
 5207W        W68964  35.997  42.401  13.312
 5208W        W68965  26.150  24.605  12.053
 5209W        W68966  41.323  20.608  13.493
 5210W        W68967   9.272  18.131   5.245
 5211W        W68968  33.049   3.307  12.479
 5212W        W68969   0.251  25.182  14.861
 5213W        W68970  25.601  17.623   0.313
 5214W        W68971   7.807  37.067  12.952
 5215W        W68972  11.134  36.972   2.194
 5216W        W68973  30.624  18.781   5.189
 5217W        W68974  22.027  39.505   1.384
 5218W        W68975  18.618  43.922   2.205
 5219W        W68976  13.267  24.203  12.996
 5220W        W68977   9.190  16.653  12.499
 5221W        W68978  44.792  31.647   4.660
 5222W        W68979  16.315  20.757   3.715
 5223W        W68980  39.370   2.967  11.037
 5224W        W68981  16.763   9.780  12.558
 5225W        W68982  23.104  19.101   4.612
 5226W        W68983  34.531  30.123   3.652
 5227W        W68984  28.640  39.039   0.267
 5228W        W68985  38.912   8.845  11.064
 5229W        W68986  39.023  21.633   2.313
 5230W        W68987   8.665  10.269   2.763
 5231W        W68988  22.538  44.763  12.051
 5232W        W68989  43.448  28.929  13.886
 5233W        W68990  38.356  38.374  14.929
 5234W        W68991  12.179  20.107   1.291
 5235W        W68992   7.309   0.354   3.684
 5236W        W68993  16.174   7.770   1.375
 5237W        W68994   0.951  41.374  12.430
 5238W        W68995  27.065  28.089   4.639
 5239W        W68996  35.564  40.012  11.392
 5240W        W68997   9.390   4.425  13.483
 5241W        W68998  33.611   3.286  10.517
 5242W        W68999  15.111  35.932   1.215
 5243W        W69000  43.917  14.622   4.641
 5244W        W69001  11.281  41.332   2.342
 5245W        W69002  17.230  39.013  12.863
 5246W        W69003  36.479  17.670  12.397
 5247W        W69004  27.946   2.229   2.181
 5248W        W69005  14.633  28.536  14.313
 5249W        W69006  29.620  15.655   2.409
 5250W        W69007  37.081  14.687  13.448
 5251W        W69008  44.919  26.686  13.056
 5252W        W69009  12.211  21.075   1.220
 5253W        W69010  37.039  23.065  11.504
 5254W        W69011  42.029  25.030   5.286
 5255W        W69012  30.604   1.940   1.703
 5256W        W69013  13.813  21.716   4.675
 5257W        W69014  23.638  37.932   2.900
 5258W        W69015  25.517  21.147   1.347
 5259W        W69016  36.028  23.628   2.320
 5260W        W69017  16.285  10.722   0.939
 5261W        W69018  18.673  16.158   4.162
 5262W        W69019  27.056  19.623  10.980
 5263W        W69020  22.049  21.726   2.681
 5264W        W69021  10.857   3.728   3.328
 5265W        W69022  10.191  21.698   0.750
 5266W        W69023   0.404  35.002  11.025
 5267W        W69024  37.450  32.604  10.962
 5268W        W69025  16.669  43.363  13.910
 5269W        W69026   0.949  32.405   3.687
 5270W        W69027  15.629  24.513   2.388
 5271W        W69028  36.877  17.580  14.783
 5272W        W69029  35.434  26.184  14.005
 5273W        W69030  44.808  44.800   3.854
 5274W        W69031  42.419  12.302   1.740
 5275W        W69032   1.250  38.384  13.855
 5276W        W69033  28.114  12.645  10.519
 5277W        W69034  38.330  28.501  14.385
 5278W        W69035  14.716   1.351  10.640
 5279W        W69036   6.369  28.567   3.346
 5280W        W69037   0.929  32.511   1.755
 5281W        W69038  28.668  28.660  11.954
 5282W        W69039  19.048  43.800  10.965
 5283W        W69040  31.974  16.200   0.866
 5284W        W69041  41.025  16.571   2.748
 5285W        W69042  37.915  41.849  12.465
 5286W        W69043  16.206  11.829   0.453
 5287W        W69044  37.923  36.877   2.748
 5288W        W69045  11.851  27.595   1.765
 5289W        W69046  13.654   3.739   3.198
 5290W        W69047  30.639  14.189  13.366
 5291W        W69048  35.417  35.594  10.607
 5292W        W69049  17.126  22.058   3.246
 5293W        W69050  30.624  23.561   4.662
 5294W        W69051  14.786  16.679  12.387
 5295W        W69052   8.285  41.404   1.888
 5296W        W69053  25.212  38.039   5.088
 5297W        W69054   8.206  17.258  11.554
 5298W        W69055  39.342  16.168   1.275
 5299W        W69056  24.002  42.936   0.839
 5300W        W69057  11.307  23.052  14.496
 5301W        W69058   0.370  42.884  13.390
 5302W        W69059  23.110  38.530   0.370
 5303W        W69060   2.272  28.095   4.306
 5304W        W69061  32.963   6.382   1.347
 5305W        W69062   0.972  18.640   3.863
 5306W        W69063  37.947  29.444   3.800
 5307W        W69064  40.006  11.708   3.276
 5308W        W69065  18.219  33.529   2.885
 5309W        W69066   3.955  22.160   2.761
 5310W        W69067  14.237   2.316  11.049
 5311W        W69068  30.000   7.180   3.809
 5312W        W69069  42.459  34.947  14.842
 5313W        W69070  13.238  20.661   3.650
 5314W        W69071   0.923  19.243  12.920
 5315W        W69072  28.657  38.945   2.786
 5316W        W69073  15.225  37.464  11.501
 5317W        W69074  12.850  20.180  13.005
 5318W        W69075  40.842  30.937  10.528
 5319W        W69076  15.172   9.199  13.530
 5320W        W69077  38.385   1.845   4.225
 5321W        W69078  37.040  26.159  12.402
 5322W        W69079  12.728  32.395  13.968
 5323W        W69080  17.290  21.189   1.374
 5324W        W69081  28.627   5.366   1.396
 5325W        W69082  27.969   9.396  12.846
 5326W        W69083  28.151  11.788  12.384
 5327W        W69084  39.517   6.895   2.869
 5328W        W69085  29.458  19.613  10.943
 5329W        W69086  22.543  41.424  10.158
 5330W        W69087  19.618   1.786  11.595
 5331W        W69088  37.420  23.039  10.433
 5332W        W69089  30.636  36.383  12.549
 5333W        W69090  32.562  43.296   3.750
 5334W        W69091  38.396   5.783  12.926
 5335W        W69092  34.572   9.695  13.961
 5336W        W69093  18.642  41.487  13.032
 5337W        W69094  13.753   1.443   1.911
 5338W        W69095   2.344  33.454   1.761
 5339W        W69096  23.689  14.111   0.302
 5340W        W69097  42.868  21.070  11.864
 5341W        W69098  17.100   5.266  12.969
 5342W        W69099  28.088  20.268   2.870
 5343W        W69100  21.154  33.547   5.261
 5344W        W69101  42.020  28.951  10.568
 5345W        W69102  37.942  40.480  13.979
 5346W        W69103  25.188  44.835  14.363
 5347W        W69104  25.980  26.112  13.832
 5348W        W69105   9.704  28.047   0.888
 5349W        W69106  27.526  16.781  10.938
 5350W        W69107   1.457  33.452   2.226
 5351W        W69108  10.378  19.162  12.421
 5352W        W69109  21.621  42.493  13.507
 5353W        W69110   2.966  28.111   4.759
 5354W        W69111  12.133   1.919  13.354
 5355W        W69112  31.620  22.626   4.351
 5356W        W69113   6.403  34.073   0.357
 5357W        W69114  22.194   3.830  12.346
 5358W        W69115  12.341   3.385  11.582
 5359W        W69116   1.382  40.388  14.026
 5360W        W69117  39.820  39.362  10.973
 5361W        W69118  37.454  16.809  14.301
 5362W        W69119   5.334   7.355  14.776
 5363W        W69120  33.561   2.302   2.767
 5364W        W69121   6.325  37.427  14.824
 5365W        W69122  33.087  20.093   1.819
 5366W        W69123  25.994  36.863   1.734
 5367W        W69124   0.413  30.626   3.750
 5368W        W69125  13.289  33.381   3.215
 5369W        W69126  22.153  24.661   0.275
 5370W        W69127  10.175  39.346   3.149
 5371W        W69128   7.819   4.802  14.938
 5372W        W69129  18.725  20.071   1.389
 5373W        W69130  33.944  37.513  11.475
 5374W        W69131  30.928  20.579  12.482
 5375W        W69132  36.347  22.623   3.813
 5376W        W69133  25.134  43.444   4.604
 5377W        W69134  19.618  41.950  13.528
 5378W        W69135  21.740  36.953   0.788
 5379W        W69136  23.027  29.635  13.496
 5380W        W69137  24.506  22.588  13.813
 5381W        W69138  42.454  44.802   3.847
 5382W        W69139  10.157  20.613   3.700
 5383W        W69140   7.826  11.362  14.911
 5384W        W69141   5.264  44.867   2.268
 5385W        W69142   4.849  37.408   4.625
 5386W        W69143  39.470  13.247  12.990
 5387W        W69144  32.459  34.409   0.837
 5388W        W69145  44.330   1.843  12.012
 5389W        W69146  44.977   9.207   2.856
 5390W        W69147  13.303  23.193  12.533
 5391W        W69148  41.855  10.703   2.724
 5392W        W69149  34.968  20.620   3.366
 5393W        W69150   8.397  41.517  12.856
 5394W        W69151  21.255  33.011   4.721
 5395W        W69152  31.947  38.971  13.019
 5396W        W69153  36.419  24.227  14.326
 5397W        W69154  31.643  38.916  14.471
 5398W        W69155  15.148  30.546   4.309
 5399W        W69156  17.132  12.351   2.344
 5400W        W69157  28.010   8.794  10.121
 5401W        W69158   3.362  24.216  11.453
 5402W        W69159  16.236  31.553  11.401
 5403W        W69160  38.570  21.638  13.524
 5404W        W69161  29.014  35.957  13.942
 5405W        W69162  22.653  40.441  10.929
 5406W        W69163  42.514  44.415  11.021
 5407W        W69164  22.999  12.741   3.381
 5408W        W69165  12.643  32.627  12.872
 5409W        W69166  39.495  31.590  14.303
 5410W        W69167  24.155   8.175  12.035
 5411W        W69168   5.786  19.557   4.822
 5412W        W69169   3.254  32.504   1.703
 5413W        W69170  11.652  33.115   4.160
 5414W        W69171  38.427  27.012  10.592
 5415W        W69172  39.364  29.167  10.637
 5416W        W69173  12.231  22.630  13.489
 5417W        W69174   4.422  10.803   3.819
 5418W        W69175   4.239  30.948   2.823
 5419W        W69176  43.393   6.321  13.054
 5420W        W69177  17.116  12.166   4.201
 5421W        W69178  26.131  34.881   3.634
 5422W        W69179  16.607   9.207  10.417
 5423W        W69180  18.098  12.730   3.824
 5424W        W69181  25.577  10.805  12.962
 5425W        W69182  28.435   6.226  12.849
 5426W        W69183  12.673  42.924   1.867
 5427W        W69184  43.305  18.564  11.391
 5428W        W69185   9.310  28.938  11.596
 5429W        W69186  16.256   2.866  11.054
 5430W        W69187  10.317   4.785   1.872
 5431W        W69188  41.808  16.309  12.538
 5432W        W69189   4.240  25.064   2.222
 5433W        W69190  36.532  21.580  14.447
 5434W        W69191  31.136  26.060   1.420
 5435W        W69192  31.926  18.146  11.117
 5436W        W69193   7.221  29.560   3.332
 5437W        W69194  35.585  13.796   1.369
 5438W        W69195   8.780  19.601  14.022
 5439W        W69196  25.050  24.067   0.895
 5440W        W69197  34.478  13.758   3.289
 5441W        W69198  26.611  36.430  10.550
 5442W        W69199   2.415   6.878  11.606
 5443W        W69200  19.230   3.901  10.958
 5444W        W69201  39.360  17.681   2.401
 5445W        W69202  27.625  28.625   3.314
 5446W        W69203  33.520  40.474   3.788
 5447W        W69204  25.488  38.519   3.836
 5448W        W69205   5.399  25.697  11.417
 5449W        W69206  20.585  19.605   3.356
 5450W        W69207   3.909   9.336   0.742
 5451W        W69208  35.105  15.716  10.477
 5452W        W69209  23.033  41.372   4.257
 5453W        W69210   4.231  37.087  12.465
 5454W        W69211  13.769  29.050  13.037
 5455W        W69212  17.673  36.477  12.831
 5456W        W69213  26.550  28.065   3.823
 5457W        W69214  42.852   5.348  13.915
 5458W        W69215   1.871  30.912  10.901
 5459W        W69216  11.275  25.663   3.261
 5460W        W69217  41.341  16.808   2.708
 5461W        W69218  24.621   3.264   3.766
 5462W        W69219  25.166  16.308  10.040
 5463W        W69220   0.803   5.803  14.959
 5464W        W69221  18.575  32.929  11.499
 5465W        W69222   8.890   5.433   2.873
 5466W        W69223  31.458   9.370  13.848
 5467W        W69224  11.211  23.042   2.875
 5468W        W69225  24.680  18.680  14.289
 5469W        W69226  18.590  36.374   3.207
 5470W        W69227  12.231   0.988   9.943
 5471W        W69228   3.384   7.277   1.920
 5472W        W69229  24.717   7.893  13.448
 5473W        W69230  12.621  41.331  12.922
 5474W        W69231  34.437  44.985  13.879
 5475W        W69232  36.456  10.242  13.346
 5476W        W69233  17.744  32.452  11.080
 5477W        W69234  41.908  32.935  12.851
 5478W        W69235   1.861  44.327  12.011
 5479W        W69236  18.737  30.543   0.767
 5480W        W69237  29.037  21.021   2.670
 5481W        W69238  29.039  17.119   2.248
 5482W        W69239  21.227  43.015   0.880
 5483W        W69240   7.907  33.459  10.062
 5484W        W69241  21.530  40.533  12.566
 5485W        W69242  24.152  17.185   3.339
 5486W        W69243  41.996  26.032   4.167
 5487W        W69244  30.509  21.677  14.997
 5488W        W69245  42.502   5.733   1.218
 5489W        W69246  22.670   5.312  10.094
 5490W        W69247   2.943  27.003   4.295
 5491W        W69248  41.791  18.580  13.520
 5492W        W69249  34.465  17.243  14.948
 5493W        W69250  31.122  16.169   2.389
 5494W        W69251  24.026   1.783  11.900
 5495W        W69252  40.802  38.390   0.343
 5496W        W69253  14.340  12.807  13.860
 5497W        W69254  26.538  28.152  13.307
 5498W        W69255  26.148  14.191  10.002
 5499W        W69256  13.640   9.281  13.457
 5500W        W69257  40.845  43.780  11.865
 5501W        W69258  11.808   3.364   9.920
 5502W        W69259  23.997  19.756   3.684
 5503W        W69260  24.500   2.247   1.310
 5504W        W69261  28.178  20.189   0.405
 5505W        W69262  19.773  15.188  13.802
 5506W        W69263  44.965  22.999  11.483
 5507W        W69264  41.461  20.624  12.513
 5508W        W69265  12.331  36.035  11.509
 5509W        W69266  35.025  39.352  11.415
 5510W        W69267   9.236  44.324  13.539
 5511W        W69268  15.250  42.807   1.285
 5512W        W69269  27.690  32.973   0.243
 5513W        W69270  10.827   6.728  14.777
 5514W        W69271   7.369  24.100   2.774
 5515W        W69272   5.806  16.683  14.885
 5516W        W69273  23.539   3.908  13.400
 5517W        W69274  12.257  12.739   1.309
 5518W        W69275   6.819  35.869  14.863
 5519W        W69276  31.989   3.367   2.681
 5520W        W69277  21.229  13.305   1.336
 5521W        W69278  22.058   3.419   5.271
 5522W        W69279   0.794  15.752  10.527
 5523W        W69280  26.152  36.000  11.493
 5524W        W69281  41.364  23.566  10.958
 5525W        W69282   9.659  19.577  12.060
 5526W        W69283  22.529  18.249  12.885
 5527W        W69284  30.570  13.136  12.012
 5528W        W69285  19.114  28.082   2.340
 5529W        W69286   8.730   1.279   4.220
 5530W        W69287   2.860  20.632   4.289
 5531W        W69288  14.171  42.954   4.712
 5532W        W69289  21.535  37.460   4.754
 5533W        W69290  26.175  21.687   5.278
 5534W        W69291  36.979   5.424   5.784
 5535W        W69292   0.925  25.648  14.313
 5536W        W69293  23.200  36.554  13.871
 5537W        W69294  27.158  20.256  12.360
 5538W        W69295  17.557  43.368  11.000
 5539W        W69296  41.339  10.364  10.481
 5540W        W69297  42.970  25.626  13.970
 5541W        W69298  28.133  31.597  13.510
 5542W        W69299  15.748  20.109   3.739
 5543W        W69300  20.081  30.485  14.381
 5544W        W69301   7.740  33.592   3.705
 5545W        W69302   3.860  27.145   3.325
 5546W        W69303  39.961  21.163   4.180
 5547W        W69304  23.105  22.555   2.847
 5548W        W69305  24.673  34.021   3.371
 5549W        W69306  17.182  11.757   0.438
 5550W        W69307  14.592  25.212   1.851
 5551W        W69308   8.682  27.966   3.855
 5552W        W69309  18.775  12.212  11.951
 5553W        W69310  33.571  28.534  12.354
 5554W        W69311  16.736  31.122  12.928
 5555W        W69312  28.561  40.510  11.430
 5556W        W69313  41.343  23.710  12.068
 5557W        W69314   4.928  12.138   3.680
 5558W        W69315  16.685  10.751  12.460
 5559W        W69316  10.845  44.892   4.145
 5560W        W69317  26.180   5.892  14.835
 5561W        W69318  16.239   7.767   2.360
 5562W        W69319  43.831  22.644  11.040
 5563W        W69320  38.837   6.271  14.811
 5564W        W69321  29.604   4.822   2.389
 5565W        W69322  10.807  16.208  14.787
 5566W        W69323   0.807  42.321  10.899
 5567W        W69324  16.800   9.654  10.589
 5568W        W69325  26.678  14.807   5.321
 5569W        W69326  31.644  12.751  12.544
 5570W        W69327  32.625  10.858  13.533
 5571W        W69328  26.464  17.626   3.263
 5572W        W69329  31.527  36.421  13.879
 5573W        W69330  31.605  38.025   2.859
 5574W        W69331  13.272   6.240   2.900
 5575W        W69332  35.492  19.654  11.430
 5576W        W69333  29.669   2.740   5.190
 5577W        W69334   8.743  14.618   9.584
 5578W        W69335   9.697   2.850  13.981
 5579W        W69336  20.554  29.520   0.899
 5580W        W69337  24.719  33.946   2.208
 5581W        W69338  26.041  43.899  12.030
 5582W        W69339  33.028  35.087  10.515
 5583W        W69340   6.752  17.638  12.434
 5584W        W69341  14.752  35.886  11.594
 5585W        W69342  43.862  15.104  11.061
 5586W        W69343  33.581  29.550  12.562
 5587W        W69344  29.001  25.572   2.851
 5588W        W69345  15.620  29.136  13.460
 5589W        W69346  12.705  37.393   0.369
 5590W        W69347  12.694  44.287   0.270
 5591W        W69348   2.829  41.518   3.325
 5592W        W69349  27.960  18.618  12.946
 5593W        W69350  29.029   8.172  10.544
 5594W        W69351  25.036   9.719   0.765
 5595W        W69352   8.819  11.693   1.929
 5596W        W69353  25.706   4.851  10.440
 5597W        W69354   3.825  42.972   1.385
 5598W        W69355   0.481   2.262  14.367
 5599W        W69356  33.961  19.056  13.919
 5600W        W69357   7.394  21.246   0.936
 5601W        W69358  36.078  30.043  14.401
 5602W        W69359  22.512  41.992  10.468
 5603W        W69360  18.778   2.906  11.441
 5604W        W69361  27.048   3.218   0.313
 5605W        W69362   9.668  33.619   2.755
 5606W        W69363  44.801  17.092   2.213
 5607W        W69364  10.336  34.984   4.187
 5608W        W69365  12.248  11.763  11.893
 5609W        W69366   0.405  12.745  11.040
 5610W        W69367   5.292  39.544  10.491
 5611W        W69368  38.956   7.712   2.851
 5612W        W69369   7.796  42.491  12.499
 5613W        W69370  25.558   1.401  12.926
 5614W        W69371  22.072  36.847  10.629
 5615W        W69372   3.859  31.972   1.419
 5616W        W69373  19.205  37.901  10.422
 5617W        W69374  27.678  19.153   3.818
 5618W        W69375  28.576  21.136   3.316
 5619W        W69376   9.726  35.426  14.939
 5620W        W69377  44.903  19.743  10.927
 5621W        W69378  18.277  18.244   4.159
 5622W        W69379  30.476  40.017  13.808
 5623W        W69380  21.130  25.471  10.898
 5624W        W69381   7.868  30.993   2.701
 5625W        W69382  38.006  13.258   3.194
 5626W        W69383  16.149  38.468  10.972
 5627W        W69384  16.599   2.239  13.002
 5628W        W69385   8.205  36.976   2.771
 5629W        W69386  23.494  31.129   0.887
 5630W        W69387  15.626  32.063  14.968
 5631W        W69388  31.997  23.208   2.864
 5632W        W69389  41.979  34.052   3.641
 5633W        W69390  39.024  42.815  14.279
 5634W        W69391   3.287  12.323   3.687
 5635W        W69392  43.785  30.985   0.297
 5636W        W69393   9.827  36.418  13.933
 5637W        W69394  22.049  15.166   0.403
 5638W        W69395  20.255   4.880   3.668
 5639W        W69396  28.960  25.630   4.146
 5640W        W69397  20.077  17.662   1.388
 5641W        W69398  12.842  12.619   1.225
 5642W        W69399  33.528  37.853   3.361
 5643W        W69400  34.085  31.964  10.550
 5644W        W69401  10.147  10.272   0.363
 5645W        W69402  37.443  43.506   4.635
 5646W        W69403  21.628  36.966  11.955
 5647W        W69404  31.072  42.372   2.406
 5648W        W69405  24.065  37.438   1.304
 5649W        W69406  17.589  18.690  13.341
 5650W        W69407  12.668  44.833  12.389
 5651W        W69408  43.338  35.894   3.737
 5652W        W69409  33.093   9.814   3.794
 5653W        W69410  15.821  33.957  12.376
 5654W        W69411  11.768  37.922  11.533
 5655W        W69412   4.801   8.246   1.221
 5656W        W69413  42.026  25.628  13.336
 5657W        W69414  14.631  34.026  13.504
 5658W        W69415  22.596  43.451   0.880
 5659W        W69416   7.862  32.912   2.241
 5660W        W69417  16.267  33.466  14.878
 5661W        W69418  35.984  17.769   1.314
 5662W        W69419  34.118   9.650  11.895
 5663W        W69420  20.534  16.718  10.974
 5664W        W69421   3.897   3.401  12.915
 5665W        W69422  22.606   3.767  10.602
 5666W        W69423   5.358  34.582   4.247
 5667W        W69424  30.643  25.050  13.001
 5668W        W69425  30.930  40.040  11.492
 5669W        W69426   7.897  39.432   4.613
 5670W        W69427  13.824   5.865  14.490
 5671W        W69428  29.033   3.730   4.780
 5672W        W69429   7.263   8.260  13.495
 5673W        W69430   7.903  30.573  14.451
 5674W        W69431  21.174  32.109  13.403
 5675W        W69432   2.900  40.466  12.902
 5676W        W69433  27.520  31.046  13.536
 5677W        W69434  25.535  18.154  12.540
 5678W        W69435  26.002   7.302  12.839
 5679W        W69436   5.195  38.821  13.873
 5680W        W69437  11.704  10.262  10.422
 5681W        W69438  43.927  39.887   0.750
 5682W        W69439   2.808  29.629   3.292
 5683W        W69440  18.744  20.684  11.938
 5684W        W69441   3.839  38.408   0.729
 5685W        W69442   4.727  34.875   1.405
 5686W        W69443  19.091   1.941   4.683
 5687W        W69444  34.044  18.656   0.471
 5688W        W69445   4.440  32.550   2.353
 5689W        W69446  20.577   4.945   3.831
 5690W        W69447  41.463  39.523   2.305
 5691W        W69448  42.337  44.282   1.210
 5692W        W69449   1.271   6.386   0.273
 5693W        W69450  13.654  19.548  12.840
 5694W        W69451   0.781  24.645  11.127
 5695W        W69452  40.409  43.973   0.815
 5696W        W69453  27.555  21.083  13.343
 5697W        W69454   9.364  17.778  12.506
 5698W        W69455   0.914  25.631   3.356
 5699W        W69456  10.263  30.055   1.823
 5700W        W69457  35.026  38.476  11.557
 5701W        W69458   6.400  14.704  13.834
 5702W        W69459  20.099  44.388  12.538
 5703W        W69460  40.528  31.038  11.500
 5704W        W69461  29.596   8.882   4.217
 5705W        W69462   6.784   0.961   3.814
 5706W        W69463  40.482  28.516   1.710
 5707W        W69464  22.505  32.107  14.859
 5708W        W69465  30.149  42.872   5.319
 5709W        W69466  31.115  27.050  14.465
 5710W        W69467  21.547  21.135   0.367
 5711W        W69468   5.223  22.720  11.027
 5712W        W69469   2.394  12.795   5.191
 5713W        W69470  31.633  22.107   1.784
 5714W        W69471  17.576  20.572   4.188
 5715W        W69472   0.868  37.576  10.523
 5716W        W69473  42.858   2.832  13.862
 5717W        W69474  26.133  22.598   2.380
 5718W        W69475  21.110  18.149  14.455
 5719W        W69476  23.034   0.949   3.334
 5720W        W69477  29.929  27.032   2.391
 5721W        W69478  37.066   7.754  14.510
 5722W        W69479   8.795  28.109  14.501
 5723W        W69480  39.326   8.239   2.798
 5724W        W69481  25.489   9.310   1.915
 5725W        W69482  23.544  23.714  12.968
 5726W        W69483  31.619  32.044  13.906
 5727W        W69484  40.874  41.381   3.852
 5728W        W69485  41.878  15.782   5.094
 5729W        W69486  23.128  24.479   1.702
 5730W        W69487   3.294  18.771  13.450
 5731W        W69488  20.598  17.791  13.330
 5732W        W69489   4.707  43.922  13.825
 5733W        W69490   5.817  34.546  11.430
 5734W        W69491  26.477   7.779   2.384
 5735W        W69492  28.134   9.763   1.903
 5736W        W69493  26.952  41.308   1.375
 5737W        W69494  25.473  30.984   1.793
 5738W        W69495  38.571  19.148   2.360
 5739W        W69496  21.171  34.074  14.862
 5740W        W69497  32.932  12.342  12.868
 5741W        W69498  30.116  42.329  14.369
 5742W        W69499  15.301  15.659  10.127
 5743W        W69500  35.444  25.008  12.352
 5744W        W69501  37.904  34.403  12.520
 5745W        W69502  39.346  32.406  11.917
 5746W        W69503  43.937  14.673  10.586
 5747W        W69504  32.413  37.483  12.983
 5748W        W69505  11.651  28.114  11.062
 5749W        W69506  38.482  27.660   4.831
 5750W        W69507   7.225  37.076   3.189
 5751W        W69508  26.627  10.744  11.444
 5752W        W69509  30.108  35.409   4.140
 5753W        W69510  21.044   2.431  11.507
 5754W        W69511  31.419  22.027   4.311
 5755W        W69512  44.874   6.871  12.908
 5756W        W69513  13.702  36.867  12.074
 5757W        W69514  43.423  22.028  10.623
 5758W        W69515  37.841  24.149  13.817
 5759W        W69516  40.358  35.535  13.424
 5760W        W69517  11.623  21.590  14.348
 5761W        W69518  29.538  19.731  14.464
 5762W        W69519   1.906  27.007   0.314
 5763W        W69520  23.064   9.876   1.756
 5764W        W69521  44.487  36.380   2.838
 5765W        W69522  25.171   1.391   4.823
 5766W        W69523   6.322  23.608  11.522
 5767W        W69524  21.174  30.117   1.920
 5768W        W69525  29.509  36.902  12.539
 5769W        W69526   0.391  32.472  14.901
 5770W        W69527  27.682   5.765   4.130
 5771W        W69528  15.138   6.802   4.260
 5772W        W69529   5.889  38.383  12.000
 5773W        W69530  22.067  33.395   3.314
 5774W        W69531   4.821  37.350  12.907
 5775W        W69532  36.026  30.928  13.377
 5776W        W69533   1.822   8.740   2.837
 5777W        W69534  32.015   7.899  11.922
 5778W        W69535  21.536  24.019  11.908
 5779W        W69536  28.126  38.988   9.956
 5780W        W69537  11.768   9.177   0.359
 5781W        W69538  44.805   5.307   4.830
 5782W        W69539  24.569   9.295  11.933
 5783W        W69540  44.778  42.005  10.528
 5784W        W69541  17.562  43.447  10.628
 5785W        W69542  24.130  24.090   2.865
 5786W        W69543  28.534  37.484  11.114
 5787W        W69544  27.056  44.262  13.322
 5788W        W69545   5.865  11.700  11.937
 5789W        W69546   4.204  28.518  11.412
 5790W        W69547  26.075  38.571  11.450
 5791W        W69548   5.801  15.736   3.654
 5792W        W69549  32.132  17.133  11.894
 5793W        W69550  26.552  29.055   4.658
 5794W        W69551   6.871  18.700  11.515
 5795W        W69552  30.161  41.796   1.903
 5796W        W69553  30.459   0.982   3.232
 5797W        W69554  30.495   4.859  14.933
 5798W        W69555  25.175  27.516  12.040
 5799W        W69556  12.192  28.155  12.342
 5800W        W69557  14.333  13.312   4.255
 5801W        W69558  18.281  13.841   0.376
 5802W        W69559  19.156  36.030   1.860
 5803W        W69560  16.258  22.600  12.474
 5804W        W69561   2.727  34.570  14.815
 5805W        W69562  40.364  39.408   1.317
 5806W        W69563   8.259  25.201   4.638
 5807W        W69564  42.007  22.995  12.989
 5808W        W69565  11.731  35.109   3.733
 5809W        W69566  32.489  29.150  13.002
 5810W        W69567   1.973  18.763  13.801
 5811W        W69568  26.581   7.851   3.640
 5812W        W69569  42.291  24.091  12.887
 5813W        W69570  15.793  10.156   1.338
 5814W        W69571  21.628  44.355  10.540
 5815W        W69572   8.875  40.367   1.847
 5816W        W69573  14.750   1.884  13.480
 5817W        W69574  25.154  23.500  14.452
 5818W        W69575  13.336   9.826  11.954
 5819W        W69576  12.727  11.266   2.376
 5820W        W69577   7.253  27.532   1.267
 5821W        W69578  17.709  23.634   0.323
 5822W        W69579  16.287  26.056   3.322
 5823W        W69580  15.723   1.314   3.221
 5824W        W69581   4.753  18.053  13.881
 5825W        W69582  17.675  28.978   2.733
 5826W        W69583   0.488  38.050  14.801
 5827W        W69584   1.339   0.356   4.160
 5828W        W69585   6.218   5.409   1.806
 5829W        W69586  17.650  37.968  12.559
 5830W        W69587   9.227  15.681   9.922
 5831W        W69588  20.110  32.997   0.941
 5832W        W69589  29.636  19.547   9.981
 5833W        W69590  33.406  38.062  14.815
 5834W        W69591  13.747   0.783   2.668
 5835W        W69592  35.552  25.215  10.935
 5836W        W69593  12.799  19.557   5.137
 5837W        W69594  17.710  43.339   0.918
 5838W        W69595  15.807  23.196  13.016
 5839W        W69596  27.098  33.079   2.322
 5840W        W69597  21.744  19.725   3.651
 5841W        W69598  35.046  33.970  13.008
 5842W        W69599  36.548  42.328   0.920
 5843W        W69600  22.586  16.656   0.389
 5844W        W69601  40.518   4.217  13.512
 5845W        W69602  42.910  29.542   3.243
 5846W        W69603  25.049   2.850  11.909
 5847W        W69604  37.411  41.003   2.903
 5848W        W69605  13.712  43.349   2.721
 5849W        W69606   0.755  33.618   5.137
 5850W        W69607  44.418  35.898   2.388
 5851W        W69608   9.245  18.575  14.290
 5852W        W69609   9.705  43.787  13.495
 5853W        W69610  30.499  40.485   1.768
 5854W        W69611   3.947  17.177  13.002
 5855W        W69612  37.919  34.892  10.104
 5856W        W69613  12.319   4.774   2.275
 5857W        W69614  12.856  14.148   4.704
 5858W        W69615   9.209   5.799  14.963
 5859W        W69616  42.973  28.135  12.084
 5860W        W69617  17.700  35.601   0.459
 5861W        W69618  11.846  32.912   3.162
 5862W        W69619   0.946  33.025   1.897
 5863W        W69620  25.518  38.400  12.978
 5864W        W69621   6.905   8.792  13.496
 5865W        W69622   7.821  27.168   4.275
 5866W        W69623   7.740  39.828  10.453
 5867W        W69624  31.634  22.568   2.372
 5868W        W69625  12.833  23.120   1.774
 5869W        W69626  21.042  24.634  11.930
 5870W        W69627  14.700   8.804   1.737
 5871W        W69628  33.901  44.919  10.984
 5872W        W69629  36.522  38.999  10.489
 5873W        W69630  18.790  12.341   1.387
 5874W        W69631  16.193  15.709  13.945
 5875W        W69632  40.040  17.674  10.908
 5876W        W69633  40.051  40.840   4.787
 5877W        W69634  39.390  14.302  13.824
 5878W        W69635  12.843  30.652   2.377
 5879W        W69636  16.570   3.253   0.831
 5880W        W69637   4.731  36.073  13.451
 5881W        W69638  29.077   4.752   3.854
 5882W        W69639  17.732  31.044   0.415
 5883W        W69640  43.345  33.897   4.720
 5884W        W69641  10.373  19.643  13.842
 5885W        W69642  30.437  26.169   1.747
 5886W        W69643   5.428   8.777  10.111
 5887W        W69644   2.291  20.221  10.959
 5888W        W69645  13.804  20.035   2.741
 5889W        W69646   2.322  44.006  12.881
 5890W        W69647  36.551  30.095  14.361
 5891W        W69648  17.555  11.837  10.929
 5892W        W69649  43.839  32.420  12.019
 5893W        W69650  10.333  39.425   2.812
 5894W        W69651  30.444  15.630   1.882
 5895W        W69652  21.570  18.169  10.424
 5896W        W69653   8.218  43.786   9.925
 5897W        W69654  13.838   0.471   1.362
 5898W        W69655  22.093  30.446  11.037
 5899W        W69656   2.830  39.328  13.430
 5900W        W69657   9.166  24.035   1.749
 5901W        W69658   0.357  19.555  12.905
 5902W        W69659  29.651  43.803  12.530
 5903W        W69660  15.327  43.506   3.282
 5904W        W69661   3.881  35.580   0.445
 5905W        W69662  21.528  37.511   0.878
 5906W        W69663  41.893  10.879  12.554
 5907W        W69664  17.686  39.501  14.999
 5908W        W69665   2.241  18.615   4.833
 5909W        W69666   9.341  19.060  13.370
 5910W        W69667  36.427  15.306  12.345
 5911W        W69668  31.092  11.320   2.724
 5912W        W69669  11.695  38.893   2.781
 5913W        W69670  18.276  19.642   3.642
 5914W        W69671  27.490   5.922  13.046
 5915W        W69672  39.314  11.251   1.309
 5916W        W69673  24.574  12.623   2.286
 5917W        W69674  12.210  14.150  12.901
 5918W        W69675  14.281  15.582   3.803
 5919W        W69676  41.534   6.858   2.268
 5920W        W69677  32.486  29.574  14.277
 5921W        W69678  35.070  20.740  11.986
 5922W        W69679  29.970  31.914  13.533
 5923W        W69680  36.538   7.745  14.325
 5924W        W69681  21.052  23.181  10.537
 5925W        W69682  18.108  37.848   2.899
 5926W        W69683  24.535  16.118  11.457
 5927W        W69684  43.769  35.052   3.669
 5928W        W69685  19.669  36.035  13.409
 5929W        W69686  40.539  28.067   2.804
 5930W        W69687  33.442  39.026  13.899
 5931W        W69688   1.331  28.629  12.970
 5932W        W69689  12.620  13.110   3.290
 5933W        W69690  13.715  11.203   2.822
 5934W        W69691  22.741   6.187  14.007
 5935W        W69692  30.529  41.458   3.242
 5936W        W69693  13.762  40.990  11.971
 5937W        W69694  10.756  33.899   1.887
 5938W        W69695  42.892   7.846   3.693
 5939W        W69696  43.386   1.262   4.305
 5940W        W69697   5.251  40.936  13.959
 5941W        W69698  29.968   4.330   2.760
 5942W        W69699  34.082  20.603   3.315
 5943W        W69700  23.047  10.249   0.896
 5944W        W69701  15.098  28.500   1.740
 5945W        W69702  42.451  21.647  13.398
 5946W        W69703  32.940  28.181   1.250
 5947W        W69704  20.180  22.684   1.723
 5948W        W69705  17.164  28.955   4.165
 5949W        W69706  38.457  42.300  11.116
 5950W        W69707  31.950  26.006   2.392
 5951W        W69708  39.339   7.218  14.001
 5952W        W69709  10.161  19.564  11.107
 5953W        W69710  23.630  16.101   4.819
 5954W        W69711   0.340  32.554  13.501
 5955W        W69712  16.616  37.999   0.416
 5956W        W69713  43.290   1.903   4.126
 5957W        W69714   1.916  23.144   1.826
 5958W        W69715   7.739  17.129  10.955
 5959W        W69716  29.115  12.748  13.378
 5960W        W69717  27.160  28.157   0.892
 5961W        W69718  19.636  34.913   2.184
 5962W        W69719  15.236  31.626  10.417
 5963W        W69720  29.565   7.359  10.129
 5964W        W69721  19.116  35.049   4.329
 5965W        W69722  43.882  41.486  14.486
 5966W        W69723  20.557   2.356  12.006
 5967W        W69724  21.743  29.590   0.897
 5968W        W69725  13.216  16.742   2.212
 5969W        W69726  11.185  38.550   4.216
 5970W        W69727  10.798  34.481   0.801
 5971W        W69728   0.875  25.083   0.920
 5972W        W69729  40.946  35.912   2.273
 5973W        W69730  28.500  43.347  13.848
 5974W        W69731  43.833   2.848   2.895
 5975W        W69732  11.295   5.215  12.962
 5976W        W69733  11.642  34.076   1.395
 5977W        W69734  19.207  28.518   2.820
 5978W        W69735  17.292   4.282   4.278
 5979W        W69736  36.491  39.833   0.763
 5980W        W69737  41.956   6.824  11.419
 5981W        W69738  14.664   2.867   9.529
 5982W        W69739  39.519  44.867  10.506
 5983W        W69740  10.280  32.066  11.008
 5984W        W69741  20.701  20.710   3.172
 5985W        W69742  35.601  42.808  11.522
 5986W        W69743  34.560  31.536   1.882
 5987W        W69744  17.680  23.617  12.088
 5988W        W69745  34.930  14.175  10.558
 5989W        W69746  24.657  10.348  10.129
 5990W        W69747  17.734  20.731   4.728
 5991W        W69748  22.160  30.951   0.349
 5992W        W69749   7.738  35.020   2.222
 5993W        W69750   8.763  34.561  14.286
 5994W        W69751  41.902  36.406  13.798
 5995W        W69752   8.717  24.167   0.277
 5996W        W69753  16.213  34.508   0.325
 5997W        W69754  38.444  27.127  14.452
 5998W        W69755   7.319  28.042  13.432
 5999W        W69756  28.116  40.411  11.559
 6000W        W69757   5.314  25.129   4.203
 6001W        W69758  38.870  15.779   4.164
 6002W        W69759   7.804  20.057   2.722
 6003W        W69760  29.542  22.241  10.101
 6004W        W69761  33.961   1.862  12.904
 6005W        W69762  22.206  28.641   3.671
 6006W        W69763   4.820  11.196   0.849
 6007W        W69764  14.625  18.609   3.228
 6008W        W69765  24.479  18.294   0.287
 6009W        W69766   3.319  35.022  14.311
 6010W        W69767  17.591  36.884  12.404
 6011W        W69768   0.846  34.057  11.017
 6012W        W69769   7.745   5.854   2.252
 6013W        W69770  10.139  11.184  11.064
 6014W        W69771  31.541  29.424  11.450
 6015W        W69772  39.325   9.195  10.942
 6016W        W69773  34.991  44.470  12.878
 6017W        W69774  20.724  16.671  14.769
 6018W        W69775  25.006  18.649   1.348
 6019W        W69776  39.041  29.589  12.543
 6020W        W69777   4.711  11.371   9.981
 6021W        W69778  10.858  25.564   0.940
 6022W        W69779  20.740   9.168  13.870
 6023W        W69780  31.009  31.530  12.968
 6024W        W69781  27.017  12.723   0.893
 6025W        W69782  43.831  12.771  13.028
 6026W        W69783   2.809  16.101  14.329
 6027W        W69784   8.714  13.769  13.830
 6028W        W69785  39.950  10.292  14.840
 6029W        W69786   5.791   6.353  14.942
 6030W        W69787  11.749   4.846   2.353
 6031W        W69788   4.243  43.381  10.608
 6032W        W69789  43.370   5.754  13.495
 6033W        W69790  44.474   8.346  11.597
 6034W        W69791  15.659  14.154  13.952
 6035W        W69792  38.430  19.217   3.189
 6036W        W69793  36.385   4.709   9.932
 6037W        W69794  44.917  39.400   4.143
 6038W        W69795   9.222  43.426  13.973
 6039W        W69796  25.668  33.114  13.392
 6040W        W69797  35.458   1.473  12.471
 6041W        W69798  37.072  33.899  11.042
 6042W        W69799   1.926  36.882  11.472
 6043W        W69800  18.769  20.192  14.998
 6044W        W69801  36.436  25.210   4.141
 6045W        W69802   1.948  34.054   2.318
 6046W        W69803  21.251  22.177  14.509
 6047W        W69804  32.503  31.108  10.543
 6048W        W69805  11.658  17.623  10.063
 6049W        W69806  30.517  22.664   0.245
 6050W        W69807   0.393   7.177   4.699
 6051W        W69808   0.414  34.585   4.660
 6052W        W69809   9.832  26.001  12.919
 6053W        W69810  39.836  16.187  12.039
 6054W        W69811  25.054  20.270  14.364
 6055W        W69812  36.908  19.745  13.401
 6056W        W69813  40.338  42.823  11.877
 6057W        W69814  19.570   6.355  13.981
 6058W        W69815  41.879  37.409   0.364
 6059W        W69816   7.411  17.651  11.103
 6060W        W69817  25.077  30.143  12.075
 6061W        W69818   7.408   0.915   1.910
 6062W        W69819  15.815  41.404  10.632
 6063W        W69820  22.091   7.713  12.495
 6064W        W69821  41.453   9.866   0.455
 6065W        W69822  18.783  36.912  12.826
 6066W        W69823  40.508  38.965   4.220
 6067W        W69824  15.308   4.743  12.473
 6068W        W69825  25.964  34.050   3.689
 6069W        W69826   8.194  21.123   2.356
 6070W        W69827  16.671  17.798  10.502
 6071W        W69828  31.071   1.822   5.129
 6072W        W69829  35.856   3.873   4.339
 6073W        W69830  34.084  17.263   0.423
 6074W        W69831  10.323  33.082   1.734
 6075W        W69832  21.643   3.852  14.999
 6076W        W69833  13.725  20.183   1.261
 6077W        W69834  24.579  36.407   2.275
 6078W        W69835  31.494  17.186   2.381
 6079W        W69836  16.594  38.034   2.298
 6080W        W69837   2.783  44.822   3.742
 6081W        W69838  25.963  18.557  13.879
 6082W        W69839  43.418  33.438   4.632
 6083W        W69840  34.893   6.880   4.793
 6084W        W69841   0.806  31.618   2.317
 6085W        W69842  13.137   7.722   2.317
 6086W        W69843  31.486  37.049  12.851
 6087W        W69844  37.433  42.925  12.988
 6088W        W69845  24.693  22.733   5.282
 6089W        W69846  44.416  29.948   3.729
 6090W        W69847  35.859  20.655  11.451
 6091W        W69848   1.257   0.763  13.396
 6092W        W69849  15.146  32.988   2.358
 6093W        W69850  25.522   7.402   9.988
 6094W        W69851  10.741  32.001   4.156
 6095W        W69852  21.077  28.083  13.478
 6096W        W69853  39.868  16.203   3.730
 6097W        W69854  44.869  35.458   2.799
 6098W        W69855  23.563   0.338   2.898
 6099W        W69856  11.127   2.318  10.613
 6100W        W69857  41.416  15.615   3.699
 6101W        W69858  19.256  35.060   3.738
 6102W        W69859  43.964  28.495   3.338
 6103W        W69860  31.136  14.691  14.922
 6104W        W69861  31.922  18.203   0.314
 6105W        W69862  34.882  14.189   3.210
 6106W        W69863  36.848  16.724  14.405
 6107W        W69864   0.491  42.439  13.319
 6108W        W69865  16.702   5.863  14.783
 6109W        W69866  21.689  36.049  14.411
 6110W        W69867   4.904   9.804   4.787
 6111W        W69868  44.490   3.279   1.838
 6112W        W69869   8.242  26.633   0.802
 6113W        W69870   9.253  43.359  10.146
 6114W        W69871  21.024   6.769  10.440
 6115W        W69872  22.111  17.660  13.876
 6116W        W69873  16.162  29.624  11.446
 6117W        W69874  18.170   4.231  12.578
 6118W        W69875  21.193   1.382  14.798
 6119W        W69876  30.922  14.109   4.670
 6120W        W69877  12.768  37.954  11.122
 6121W        W69878  20.149  31.505   3.324
 6122W        W69879  36.984   5.278  10.055
 6123W        W69880  11.669  15.756   2.245
 6124W        W69881  28.087   1.819  13.884
 6125W        W69882   9.248  28.082  12.393
 6126W        W69883   4.390  37.501   2.263
 6127W        W69884  20.557  14.213  11.425
 6128W        W69885   4.698  27.653   1.891
 6129W        W69886  30.147  22.117  14.507
 6130W        W69887  23.598  17.794  13.047
 6131W        W69888  39.877  33.484  11.022
 6132W        W69889  38.910  10.787   4.792
 6133W        W69890   3.313  24.156   5.207
 6134W        W69891  41.993  17.556  10.463
 6135W        W69892  40.318  16.624  10.545
 6136W        W69893  18.077  34.868   4.161
 6137W        W69894  26.608  19.765   4.643
 6138W        W69895  16.306   4.360  14.961
 6139W        W69896  23.707   2.871  11.855
 6140W        W69897  28.018  22.590   2.776
 6141W        W69898  32.591  14.796  13.529
 6142W        W69899  29.612  43.967  13.451
 6143W        W69900   0.754  44.308  11.566
 6144W        W69901   0.269   5.308   3.358
 6145W        W69902   1.959  18.658  14.824
 6146W        W69903   2.770  18.105   1.905
 6147W        W69904   8.246   9.690   0.461
 6148W        W69905  17.067  15.185   0.451
 6149W        W69906  17.188  31.499   3.665
 6150W        W69907  29.931  13.133   4.135
 6151W        W69908  29.159  23.146  13.488
 6152W        W69909  28.961  18.673  14.418
 6153W        W69910  10.172   1.352   2.671
 6154W        W69911   3.399  10.277   3.334
 6155W        W69912  13.753  12.346  14.490
 6156W        W69913  13.123   8.302   2.277
 6157W        W69914  18.178  12.303   5.624
 6158W        W69915  31.053  14.764  12.344
 6159W        W69916  11.342  28.133   2.221
 6160W        W69917  11.214  40.947   3.322
 6161W        W69918  34.511  28.960  12.016
 6162W        W69919   1.739  39.037  13.312
 6163W        W69920  25.500  42.325   0.302
 6164W        W69921   2.437  26.484   3.313
 6165W        W69922   3.823   0.271   3.750
 6166W        W69923  37.998  41.511   0.432
 6167W        W69924  22.726  33.523   2.214
 6168W        W69925  13.682  41.507   2.375
 6169W        W69926  10.230  31.007  14.773
 6170W        W69927   2.451   7.239   1.859
 6171W        W69928  25.550  19.098   2.816
 6172W        W69929   4.278  37.420  14.920
 6173W        W69930  14.232  25.498  14.804
 6174W        W69931  17.595  30.458   2.233
 6175W        W69932  12.831  40.033   0.739
 6176W        W69933  43.007   4.741   2.337
 6177W        W69934  21.228   7.386  12.875
 6178W        W69935  35.523   1.779  11.397
 6179W        W69936  29.620   6.285  13.950
 6180W        W69937  10.835  18.587  13.465
 6181W        W69938  21.674   3.951   4.793
 6182W        W69939  31.532  24.103   0.444
 6183W        W69940  42.311   8.657  10.945
 6184W        W69941  42.835   9.769   2.751
 6185W        W69942  34.571  39.938  14.454
 6186W        W69943  12.345  17.727   3.684
 6187W        W69944  40.395  15.799   1.894
 6188W        W69945  21.136  37.402  11.399
 6189W        W69946  28.125   0.919   3.801
 6190W        W69947   4.826  44.828  10.966
 6191W        W69948   5.813  20.701   0.950
 6192W        W69949  44.809  20.672   1.371
 6193W        W69950  17.617  21.597  14.376
 6194W        W69951  13.759  34.450  12.854
 6195W        W69952   2.764  34.067  14.510
 6196W        W69953  26.489  29.652   0.365
 6197W        W69954  10.333  18.261   3.313
 6198W        W69955  17.230  43.858   4.830
 6199W        W69956  33.879  22.613   4.752
 6200W        W69957  43.856  29.428  13.957
 6201W        W69958  22.736  22.608   5.254
 6202W        W69959  30.461  20.184  14.959
 6203W        W69960  18.088  43.852   3.307
 6204W        W69961  28.074  44.859  10.941
 6205W        W69962  33.612  24.485  11.989
 6206W        W69963  35.572  27.663   1.801
 6207W        W69964  28.032  10.792   0.747
 6208W        W69965   2.364  34.077   1.389
 6209W        W69966  30.152  39.881  10.428
 6210W        W69967  16.645  27.143  14.982
 6211W        W69968  14.677  30.486   5.167
 6212W        W69969   5.407  15.235   3.184
 6213W        W69970   8.385  11.169   0.305
 6214W        W69971   3.231  40.508  10.021
 6215W        W69972   3.756  11.212  13.838
 6216W        W69973  29.584  44.496   1.268
 6217W        W69974  33.883  13.749  12.530
 6218W        W69975  19.639  43.877   4.171
 6219W        W69976  14.209  27.965  13.015
 6220W        W69977  37.830  16.788   2.416
 6221W        W69978  26.048  20.243  13.534
 6222W        W69979  12.674  32.982  13.333
 6223W        W69980   8.347  12.307   0.769
 6224W        W69981  26.088   6.275  12.848
 6225W        W69982   4.419   5.210  14.877
 6226W        W69983  38.374   1.412  13.011
 6227W        W69984  28.029  24.191  11.935
 6228W        W69985   6.358   1.272  10.586
 6229W        W69986  21.134  14.696   1.344
 6230W        W69987  37.942  26.158   1.366
 6231W        W69988  40.951   0.970  11.036
 6232W        W69989  20.679  19.041  12.537
 6233W        W69990  15.189  14.801   2.300
 6234W        W69991  13.839  21.170  11.959
 6235W        W69992  43.391  42.332   2.843
 6236W        W69993  42.023  35.892  12.825
 6237W        W69994  32.117   7.268  13.423
 6238W        W69995  26.702  27.106   4.634
 6239W        W69996  28.556  14.652  13.891
 6240W        W69997   3.789  40.950   3.194
 6241W        W69998  32.396   8.866  10.459
 6242W        W69999  43.996   6.756  14.920
 6243W        W70000  36.507  21.128   1.786
 6244W        W70001  40.799  39.480   0.270
 6245W        W70002   5.241   9.293   3.292
 6246W        W70003  30.420  41.394  10.940
 6247W        W70004  14.133  38.392  14.845
 6248W        W70005  27.472   6.712   1.891
 6249W        W70006  28.149   2.825  12.571
 6250W        W70007  11.675  38.994   5.148
 6251W        W70008  15.304   0.361   1.863
 6252W        W70009  26.119  19.765  12.384
 6253W        W70010  44.937  31.136  14.278
 6254W        W70011  35.992  32.918   0.957
 6255W        W70012  41.335   4.868   3.207
 6256W        W70013  35.599  26.186  14.825
 6257W        W70014  31.575  28.632  13.850
 6258W        W70015  25.613  16.279  12.453
 6259W        W70016  13.696  32.963   2.828
 6260W        W70017  25.143  14.604  12.510
 6261W        W70018  32.093   6.215   2.221
 6262W        W70019   0.302  31.073  13.422
 6263W        W70020  16.175  41.975  11.471
 6264W        W70021  33.946  18.173   4.784
 6265W        W70022  38.917  11.147  12.871
 6266W        W70023  41.988   0.359   4.680
 6267W        W70024   3.953  43.000   3.248
 6268W        W70025  21.035  27.684  11.548
 6269W        W70026  30.990  27.130   5.592
 6270W        W70027  36.859  42.363   3.246
 6271W        W70028   4.803  28.600  13.538
 6272W        W70029  44.324   1.300   1.447
 6273W        W70030   5.804  40.843  11.956
 6274W        W70031  17.669  38.409   0.857
 6275W        W70032  39.839  18.587   4.612
 6276W        W70033  28.471  14.299   4.322
 6277W        W70034   1.873  24.166  12.034
 6278W        W70035  20.577  34.382   1.334
 6279W        W70036   5.925  15.237   0.373
 6280W        W70037   6.392  14.284   1.244
 6281W        W70038  43.335  38.365   1.287
 6282W        W70039   2.402  37.956  14.338
 6283W        W70040  24.089  28.134   1.393
 6284W        W70041  33.988  10.380  10.574
 6285W        W70042  18.696  42.805   1.238
 6286W        W70043  41.851   7.675  11.582
 6287W        W70044  43.921  14.645  14.987
 6288W        W70045  42.980  40.440  14.875
 6289W        W70046  17.588  17.799   2.731
 6290W        W70047  20.090  16.705  14.024
 6291W        W70048  17.281  39.544   4.160
 6292W        W70049  24.984   0.917  10.590
 6293W        W70050  40.895   6.843   3.357
 6294W        W70051  40.335   5.755   0.393
 6295W        W70052  42.426  17.080   4.334
 6296W        W70053   8.346   0.391  14.290
 6297W        W70054  22.740  32.066  13.804
 6298W        W70055  35.000   9.393  14.303
 6299W        W70056  22.548   0.811   4.191
 6300W        W70057  12.284  38.507  14.875
 6301W        W70058  14.650   8.234  13.044
 6302W        W70059  29.645  21.122  12.561
 6303W        W70060   9.263   8.209   3.745
 6304W        W70061  27.085  41.948  12.424
 6305W        W70062  42.980  35.980  11.394
 6306W        W70063  36.373  12.174   3.760
 6307W        W70064   3.285  37.930  13.369
 6308W        W70065  39.837  22.511   1.800
 6309W        W70066   8.837  19.149  13.985
 6310W        W70067   8.183   1.753   3.343
 6311W        W70068   6.753  37.544   2.680
 6312W        W70069  26.689  35.392  11.532
 6313W        W70070  33.922  15.290   2.816
 6314W        W70071  26.025  39.395   2.784
 6315W        W70072  22.206  43.323  11.000
 6316W        W70073   3.399  34.372  12.073
 6317W        W70074   1.460   1.386   3.650
 6318W        W70075  20.246  15.689  14.294
 6319W        W70076  36.508  36.557   4.804
 6320W        W70077  27.615  12.128   4.214
 6321W        W70078  28.568   0.427   4.814
 6322W        W70079  10.154  17.799   5.246
 6323W        W70080  30.605  22.746  14.478
 6324W        W70081   0.819  39.548  12.996
 6325W        W70082  34.581  14.191   2.760
 6326W        W70083  10.263  32.516  11.428
 6327W        W70084  35.563   0.354  14.436
 6328W        W70085  33.398  41.895  13.060
 6329W        W70086  25.970  10.349   2.337
 6330W        W70087  41.370  42.415   0.808
 6331W        W70088  18.563  35.058   5.164
 6332W        W70089  36.567   0.360  10.950
 6333W        W70090  34.085  34.380   4.289
 6334W        W70091  39.365  15.305   4.610
 6335W        W70092  23.137  20.583  13.346
 6336W        W70093  16.741  21.163   2.255
 6337W        W70094  14.116   7.745  13.029
 6338W        W70095  24.218  28.156  13.542
 6339W        W70096  41.914   4.349   0.288
 6340W        W70097   4.925   2.933  10.007
 6341W        W70098  33.040  34.111  13.441
 6342W        W70099  26.673   0.895   0.818
 6343W        W70100  26.665  12.823  14.899
 6344W        W70101  39.531   6.406  12.377
 6345W        W70102  26.164  22.169  11.069
 6346W        W70103   9.776  38.851   4.330
 6347W        W70104  11.203  21.511   1.271
 6348W        W70105   2.957  30.915   1.392
 6349W        W70106  17.255   8.164   2.252
 6350W        W70107  34.031  27.468  14.023
 6351W        W70108  15.261  30.459  11.543
 6352W        W70109  36.445  33.045  10.628
 6353W        W70110  35.981  27.463   3.276
 6354W        W70111  40.799  25.574   3.702
 6355W        W70112  36.043   9.713  12.892
 6356W        W70113  30.414  28.628   1.282
 6357W        W70114  12.765   5.764   4.825
 6358W        W70115  42.890  35.996   3.648
 6359W        W70116  40.041  41.835   2.678
 6360W        W70117  30.640   1.447  11.445
 6361W        W70118  23.637  31.048   4.707
 6362W        W70119   9.330  19.586  14.998
 6363W        W70120   0.426  36.570   1.755
 6364W        W70121  18.267  14.184  14.826
 6365W        W70122   6.338  22.217  15.000
 6366W        W70123  17.283  14.689  12.355
 6367W        W70124  32.969   4.228   0.242
 6368W        W70125  37.423   7.772   0.785
 6369W        W70126  30.083  37.441   4.740
 6370W        W70127   3.737  14.787   3.228
 6371W        W70128   3.716  29.952  10.529
 6372W        W70129  33.020  40.934  10.418
 6373W        W70130  12.776  29.430  14.337
 6374W        W70131  12.782  38.861  13.809
 6375W        W70132  36.393   5.758  11.947
 6376W        W70133  21.197  42.336  13.490
 6377W        W70134  26.197  16.181  11.871
 6378W        W70135  28.001   6.376  14.350
 6379W        W70136  43.287   0.332   1.789
 6380W        W70137  37.386  32.592   0.265
 6381W        W70138  23.170  21.075   2.300
 6382W        W70139  42.301  25.110  11.074
 6383W        W70140  21.662  29.053  12.362
 6384W        W70141  24.069   9.708   1.428
 6385W        W70142  23.548  27.598   2.234
 6386W        W70143  19.690  30.133   0.284
 6387W        W70144   4.432  21.178   4.166
 6388W        W70145  40.439   4.220  14.996
 6389W        W70146  20.727   6.391  12.979
 6390W        W70147  11.202  35.482  13.923
 6391W        W70148   4.265   4.814   3.773
 6392W        W70149  27.600  23.731   2.797
 6393W        W70150  23.666  25.095   1.263
 6394W        W70151  14.659  23.563  11.453
 6395W        W70152  35.033   1.860  14.492
 6396W        W70153   9.752   7.344  13.854
 6397W        W70154  37.394  28.522  14.281
 6398W        W70155  44.999  32.539   2.213
 6399W        W70156  24.703  39.923   2.242
 6400W        W70157  35.031   8.184   0.417
 6401W        W70158  19.547   8.670   1.736
 6402W        W70159  35.398  28.175  11.486
 6403W        W70160  20.080   0.311  11.111
 6404W        W70161  39.542  36.094   3.269
 6405W        W70162  32.613   0.819   2.200
 6406W        W70163  41.835  13.645   0.354
 6407W        W70164  32.525  36.982  11.555
 6408W        W70165  28.103  38.383   4.701
 6409W        W70166  14.615  20.547   2.691
 6410W        W70167  37.022  14.141   3.205
 6411W        W70168  17.187  42.915  10.938
 6412W        W70169  12.822  10.180  14.887
 6413W        W70170  40.976  39.512   1.309
 6414W        W70171  35.562  17.293  13.375
 6415W        W70172   8.255  25.593   1.419
 6416W        W70173  40.384   0.753  11.540
 6417W        W70174  21.202  40.491  13.455
 6418W        W70175  14.334  39.354   3.270
 6419W        W70176  11.349  12.797  11.898
 6420W        W70177  15.800  31.533   3.686
 6421W        W70178  17.661  33.881  11.895
 6422W        W70179   3.449   9.856  12.342
 6423W        W70180  21.088   3.898  10.405
 6424W        W70181   9.766   7.333   1.402
 6425W        W70182  36.515  28.550   1.276
 6426W        W70183  40.356  32.465   4.150
 6427W        W70184  21.613  22.514  11.564
 6428W        W70185  33.887  11.358   2.826
 6429W        W70186  12.723  12.756  14.437
 6430W        W70187  44.919  31.527  10.946
 6431W        W70188  32.481   0.351  14.352
 6432W        W70189  24.686   3.951  12.823
 6433W        W70190  38.926   1.799   2.873
 6434W        W70191  12.291  28.029   3.338
 6435W        W70192  16.249  15.651   1.923
 6436W        W70193  41.027  44.784  10.922
 6437W        W70194  13.197  16.250  13.821
 6438W        W70195  16.245  41.950  14.416
 6439W        W70196  20.718  18.263   3.763
 6440W        W70197  30.131  22.584   0.333
 6441W        W70198  32.109  38.555  14.806
 6442W        W70199   0.937   9.852  10.993
 6443W        W70200  18.780  23.509   0.320
 6444W        W70201  10.644  18.080  13.821
 6445W        W70202   4.237   6.341  12.035
 6446W        W70203   7.776  32.062   2.318
 6447W        W70204  13.243  18.595   3.269
 6448W        W70205  16.079  11.132   1.740
 6449W        W70206  36.356  28.454  14.503
 6450W        W70207   7.881  38.413   4.210
 6451W        W70208  36.034  10.190  14.446
 6452W        W70209  22.641   3.370   3.652
 6453W        W70210  29.939  20.527  13.951
 6454W        W70211   3.378   0.786   0.844
 6455W        W70212  37.993  24.510   3.739
 6456W        W70213  28.447  13.323  14.308
 6457W        W70214  19.658  14.239  11.532
 6458W        W70215  18.550   3.794  11.586
 6459W        W70216  36.944  17.668   0.243
 6460W        W70217  20.090  43.780  13.511
 6461W        W70218  17.720   8.259   2.808
 6462W        W70219   6.857  42.856  12.826
 6463W        W70220  11.176   2.260   1.793
 6464W        W70221   7.694  13.632   0.765
 6465W        W70222  33.983  44.834  10.428
 6466W        W70223   5.389  15.291   1.383
 6467W        W70224  20.039   7.725   1.272
 6468W        W70225  21.512   3.836   1.440
 6469W        W70226  33.067  21.674  13.539
 6470W        W70227   5.413  25.557   2.292
 6471W        W70228  43.437   2.878  10.636
 6472W        W70229  16.646  12.150   2.679
 6473W        W70230  13.834   5.909  10.435
 6474W        W70231  15.220  43.371  14.396
 6475W        W70232  22.058  17.219   2.751
 6476W        W70233  19.226  15.104   3.176
 6477W        W70234  33.445   0.476   1.365
 6478W        W70235  11.724   2.745   0.935
 6479W        W70236   5.275  11.326   1.694
 6480W        W70237  44.351  22.087  13.379
 6481W        W70238  39.825  42.471  10.511
 6482W        W70239  43.337  25.478   3.346
 6483W        W70240   8.394  29.937  12.859
 6484W        W70241   0.753  38.354  12.480
 6485W        W70242  41.014  19.192  11.546
 6486W        W70243  10.343  18.154  10.535
 6487W        W70244  44.775  39.324   0.336
 6488W        W70245  17.165  15.630  13.439
 6489W        W70246  34.523  35.987  14.873
 6490W        W70247  18.075  35.491  13.439
 6491W        W70248  10.230  12.198  13.501
 6492W        W70249  27.565  19.709   2.286
 6493W        W70250  40.916  12.765  12.545
 6494W        W70251   4.789  31.029   3.386
 6495W        W70252  18.622  18.683  10.542
 6496W        W70253   8.320  11.793   2.800
 6497W        W70254  27.491   8.788  12.527
 6498W        W70255  41.815  18.591   0.921
 6499W        W70256  41.474  25.651   0.475
 6500W        W70257   3.250  36.092   4.116
 6501W        W70258   5.782  11.236  12.373
 6502W        W70259  39.519  36.004  11.925
 6503W        W70260  43.276  20.191   2.385
 6504W        W70261  41.841   1.323   3.231
 6505W        W70262  42.319  32.906   4.732
 6506W        W70263  19.242  41.010  12.382
 6507W        W70264   2.430   2.466   4.244
 6508W        W70265  20.539  37.553  10.476
 6509W        W70266  19.273  20.754   0.776
 6510W        W70267   6.385  17.641   5.084
 6511W        W70268   3.927  33.063   1.257
 6512W        W70269  31.970  28.003  11.593
 6513W        W70270  41.961  30.909   2.280
 6514W        W70271  26.477   1.853   9.956
 6515W        W70272  10.310   2.741   3.727
 6516W        W70273   5.296  39.912   2.194
 6517W        W70274  28.624  11.853  10.923
 6518W        W70275  39.328   0.277  12.343
 6519W        W70276   7.177  11.340  13.835
 6520W        W70277  26.539  31.916  14.287
 6521W        W70278  21.254  17.190  13.343
 6522W        W70279  28.120  43.368  11.108
 6523W        W70280  44.929  38.993  11.587
 6524W        W70281   8.686  43.865  10.945
 6525W        W70282  41.863   0.778  14.016
 6526W        W70283   1.457  22.548   3.731
 6527W        W70284  25.493  15.222  10.926
 6528W        W70285   3.813  41.336  13.015
 6529W        W70286  30.587  35.507  10.465
 6530W        W70287  31.497  21.707  14.769
 6531W        W70288   7.717  35.390   1.316
 6532W        W70289  42.450  32.010   0.828
 6533W        W70290  17.180   0.368  11.956
 6534W        W70291   5.393  24.067   2.185
 6535W        W70292  16.250  43.272  13.318
 6536W        W70293   2.762  17.306  10.983
 6537W        W70294  35.076   4.896  12.095
 6538W        W70295   0.905  30.490   2.796
 6539W        W70296  23.677  38.866  13.825
 6540W        W70297  40.903  24.134   3.324
 6541W        W70298  24.168   7.808  11.090
 6542W        W70299  26.471  35.458   4.702
 6543W        W70300  25.667  14.339   9.675
 6544W        W70301   8.778   3.406  12.051
 6545W        W70302  23.712  21.718  13.051
 6546W        W70303  34.437  32.504   4.349
 6547W        W70304  44.360  17.708   1.395
 6548W        W70305  11.654  24.222   0.247
 6549W        W70306  41.516  30.597  14.455
 6550W        W70307   5.694  12.231  11.442
 6551W        W70308  32.916  18.710  12.512
 6552W        W70309   0.857  22.568  12.033
 6553W        W70310  28.184  36.877  12.945
 6554W        W70311  30.657  16.757  14.413
 6555W        W70312  27.955   9.369   3.712
 6556W        W70313   5.201  41.330  10.935
 6557W        W70314  42.858   5.306   4.684
 6558W        W70315  21.566   4.438  13.026
 6559W        W70316   7.219   8.286   0.439
 6560W        W70317  26.654  17.159   3.283
 6561W        W70318  12.292  38.405  12.872
 6562W        W70319  44.393  22.645  12.438
 6563W        W70320  31.426  40.343   3.739
 6564W        W70321  29.937  29.162   4.317
 6565W        W70322  31.469   6.680   5.086
 6566W        W70323  40.382  14.318  11.471
 6567W        W70324  17.705  24.603   2.833
 6568W        W70325   1.474  32.999  13.311
 6569W        W70326  11.274  18.072  11.892
 6570W        W70327  24.086  30.442   3.338
 6571W        W70328  13.258  28.987  14.341
 6572W        W70329  44.428  23.723  13.049
 6573W        W70330  11.299  23.536  10.581
 6574W        W70331  15.263   8.682   0.823
 6575W        W70332  44.435  20.091  10.465
 6576W        W70333  21.164  44.761  13.925
 6577W        W70334  37.013  40.982   3.224
 6578W        W70335  21.719   4.751  11.910
 6579W        W70336  18.618   1.268  10.533
 6580W        W70337  41.346  32.442   0.743
 6581W        W70338  36.081  24.066   4.724
 6582W        W70339  11.283   2.430  11.902
 6583W        W70340   4.702  11.336   1.346
 6584W        W70341  39.934  36.446  13.876
 6585W        W70342  33.544  36.075   4.143
 6586W        W70343  25.517   2.796  11.032
 6587W        W70344  42.373  18.089  14.911
 6588W        W70345  12.749  30.155  12.966
 6589W        W70346  14.336  36.056   3.380
 6590W        W70347  36.409  29.441   2.830
 6591W        W70348   6.856  19.673  13.313
 6592W        W70349  43.318   8.669  13.419
 6593W        W70350  23.630  10.274   4.724
 6594W        W70351  12.136  33.902   2.826
 6595W        W70352  11.804  13.250   0.447
 6596W        W70353   4.832  10.787  11.967
 6597W        W70354  41.041  33.579  12.500
 6598W        W70355  13.218  32.446  14.911
 6599W        W70356  11.823  12.631  12.069
 6600W        W70357  31.939  38.553   2.837
 6601W        W70358  44.785  34.119  11.913
 6602W        W70359  35.550  26.670   5.102
 6603W        W70360  30.065  20.033   3.371
 6604W        W70361   9.863  16.155  12.062
 6605W        W70362   9.280  23.991  13.869
 6606W        W70363  25.557  33.105   0.811
 6607W        W70364   1.364   1.956  13.877
 6608W        W70365   8.385  16.806   5.173
 6609W        W70366  25.007   5.837  11.465
 6610W        W70367  17.642  21.063   2.380
 6611W        W70368  12.168  34.436   2.194
 6612W        W70369   6.849  24.976  11.558
 6613W        W70370  43.916  44.503   1.313
 6614W        W70371  21.140  34.880   0.806
 6615W        W70372  14.770  34.942  12.428
 6616W        W70373  40.934   6.368   1.345
 6617W        W70374  21.123  40.051  11.929
 6618W        W70375  18.063  33.409  11.063
 6619W        W70376  13.286  32.545   2.706
 6620W        W70377  17.762  16.609   1.800
 6621W        W70378  27.976  24.203  14.957
 6622W        W70379  42.389  42.304  10.433
 6623W        W70380  26.104   8.739  11.021
 6624W        W70381  21.656  43.805   2.204
 6625W        W70382   8.303  34.401  10.444
 6626W        W70383  43.817   5.708  13.973
 6627W        W70384  41.909  32.396   3.678
 6628W        W70385  15.791  21.651   4.206
 6629W        W70386  34.066  24.624   2.677
 6630W        W70387   2.738   1.899  10.614
 6631W        W70388  38.076  23.080   3.742
 6632W        W70389  37.490  10.142  14.776
 6633W        W70390  15.774   9.318  10.105
 6634W        W70391  44.303  40.912  11.536
 6635W        W70392   6.314  24.532   2.254
 6636W        W70393  13.710  19.231  13.499
 6637W        W70394  25.622  27.183   4.629
 6638W        W70395  31.042  29.158   4.776
 6639W        W70396  21.258  34.407  12.560
 6640W        W70397  22.054  39.841  12.571
 6641W        W70398  33.499  43.369  10.004
 6642W        W70399   5.757  36.964  13.501
 6643W        W70400  26.052   9.715  14.887
 6644W        W70401  27.029   1.963   3.160
 6645W        W70402   2.831  43.931  11.389
 6646W        W70403   2.869  26.692  11.060
 6647W        W70404   9.862   3.734  14.308
 6648W        W70405  10.719  29.035  11.550
 6649W        W70406  43.383  17.307   4.830
 6650W        W70407  29.496  12.711  12.019
 6651W        W70408  41.346  44.821  14.889
 6652W        W70409  15.768  29.530   1.840
 6653W        W70410  21.655  39.405  12.868
 6654W        W70411  12.297  36.951   4.616
 6655W        W70412  31.926  10.760   4.214
 6656W        W70413   2.923   6.292   3.263
 6657W        W70414  25.174  41.857  13.842
 6658W        W70415  44.364  38.518  12.571
 6659W        W70416  31.462  39.012  13.412
 6660W        W70417  24.189   3.918  12.543
 6661W        W70418  21.141  27.634  12.862
 6662W        W70419   4.448  17.261  12.424
 6663W        W70420  43.784  18.650   4.336
 6664W        W70421  40.412  24.499   4.216
 6665W        W70422  43.507  29.595  13.794
 6666W        W70423  36.050  34.518   2.841
 6667W        W70424  36.562  16.311   1.359
 6668W        W70425  36.989  41.888  11.476
 6669W        W70426  13.335  30.076  11.893
 6670W        W70427  34.374  44.395   3.656
 6671W        W70428   5.434  30.143   1.371
 6672W        W70429  26.483  17.201   4.168
 6673W        W70430  17.179  21.223  10.526
 6674W        W70431  33.106  32.537   4.633
 6675W        W70432  15.630  40.911  13.032
 6676W        W70433  37.338  31.422   3.365
 6677W        W70434  42.010  31.105   3.645
 6678W        W70435  12.185  27.181   0.879
 6679W        W70436  11.651   6.693   3.251
 6680W        W70437  31.475  33.878  11.395
 6681W        W70438  41.879  12.228   1.736
 6682W        W70439  13.609   4.358   3.857
 6683W        W70440  41.431  32.502  14.780
 6684W        W70441  13.712  36.542  11.474
 6685W        W70442  16.759  21.215   0.838
 6686W        W70443   0.792  40.452  11.868
 6687W        W70444  27.100   6.918  11.610
 6688W        W70445  30.505  33.393  13.003
 6689W        W70446  21.690   1.786   0.245
 6690W        W70447   2.321  33.403   4.273
 6691W        W70448  20.168   0.907   1.716
 6692W        W70449  41.526  41.516  10.582
 6693W        W70450  27.502  30.484  14.810
 6694W        W70451  23.491  31.948   2.779
 6695W        W70452  37.993  10.238   1.749
 6696W        W70453  12.341  43.974   1.267
 6697W        W70454  41.040  32.103   1.729
 6698W        W70455   8.810  19.281   0.298
 6699W        W70456   1.851  30.059  10.941
 6700W        W70457  27.587  23.028   3.801
 6701W        W70458  31.444  27.527  10.932
 6702W        W70459  30.089  38.516  10.624
 6703W        W70460   2.924  29.430  11.593
 6704W        W70461  37.058   4.440  13.430
 6705W        W70462  37.425  44.869  12.939
 6706W        W70463  40.512   3.236  14.475
 6707W        W70464  37.083  22.682  13.909
 6708W        W70465  23.490  27.944  14.843
 6709W        W70466  26.151  15.656  10.487
 6710W        W70467  17.764  34.976   4.733
 6711W        W70468  25.535  30.415  10.932
 6712W        W70469  24.095  30.658  14.396
 6713W        W70470  28.971  44.962   3.805
 6714W        W70471  25.626  34.965  10.047
 6715W        W70472  24.136  20.077  13.530
 6716W        W70473  42.527  32.404  11.920
 6717W        W70474  23.495   1.897   1.913
 6718W        W70475  24.140  35.391  14.923
 6719W        W70476  24.495  43.416  12.487
 6720W        W70477  26.475   8.691  10.495
 6721W        W70478  12.252  35.566   3.222
 6722W        W70479  18.288  37.367   3.822
 6723W        W70480  42.019   6.916  10.632
 6724W        W70481   2.396  13.620  11.991
 6725W        W70482   2.723  27.081   1.366
 6726W        W70483  40.434  22.652  12.362
 6727W        W70484  12.199  18.638  10.487
 6728W        W70485  31.411  41.310  14.798
 6729W        W70486  22.238  33.084   0.891
 6730W        W70487  44.319   7.324   1.856
 6731W        W70488  24.558  14.127  14.333
 6732W        W70489   7.891  25.529   1.413
 6733W        W70490   1.945  29.168  13.476
 6734W        W70491   2.774  20.716  14.002
 6735W        W70492   2.443  30.932   2.384
 6736W        W70493  25.586  16.808  13.372
 6737W        W70494  34.052  27.487  12.453
 6738W        W70495  37.974  40.949  11.003
 6739W        W70496  40.922  19.046   2.771
 6740W        W70497  32.113   6.344  14.482
 6741W        W70498   8.664  43.462  12.577
 6742W        W70499  16.207  44.398  14.785
 6743W        W70500  27.998  37.984   3.773
 6744W        W70501  23.535  23.164   1.799
 6745W        W70502  39.371  21.544  12.088
 6746W        W70503  18.758  19.102   0.915
 6747W        W70504  11.364  43.810  11.058
 6748W        W70505  12.188  31.530   2.387
 6749W        W70506  35.081  14.755  13.832
 6750W        W70507  38.334  16.304   3.186
 6751W        W70508  29.061   3.810  14.031
 6752W        W70509  20.176   7.814  10.632
 6753W        W70510  16.313   4.785  10.993
 6754W        W70511  24.012  16.576  12.926
 6755W        W70512  35.031  12.147  14.922
 6756W        W70513  18.202  21.582   2.288
 6757W        W70514  32.115  23.599  10.512
 6758W        W70515  18.678  41.425   1.788
 6759W        W70516   5.291  36.879   2.678
 6760W        W70517   4.429  11.854   2.417
 6761W        W70518  21.132  13.260   2.301
 6762W        W70519  18.593  11.774  11.021
 6763W        W70520  10.639  11.134   3.852
 6764W        W70521  26.694  11.673   0.325
 6765W        W70522   9.363   6.233  14.407
 6766W        W70523  35.036  39.895  14.855
 6767W        W70524  30.565  32.486   0.930
 6768W        W70525   9.390   1.313  10.614
 6769W        W70526  38.923   2.850  11.086
 6770W        W70527   1.466  25.154   1.830
 6771W        W70528   2.390  15.265   1.744
 6772W        W70529   6.194   6.233  12.958
 6773W        W70530  39.501  44.843   3.753
 6774W        W70531  21.260  31.924   1.771
 6775W        W70532   3.247  28.967  10.442
 6776W        W70533  25.132  30.518   4.707
 6777W        W70534  30.940  34.036  12.056
 6778W        W70535  37.055  20.085   0.251
 6779W        W70536  24.074  43.981  10.900
 6780W        W70537  37.954   1.374  11.004
 6781W        W70538  22.125  21.710   4.634
 6782W        W70539  18.289   4.702   3.840
 6783W        W70540   5.893  17.243   9.445
 6784W        W70541  11.748   6.221   3.174
 6785W        W70542  20.661  41.526   0.844
 6786W        W70543  33.950  18.232  14.895
 6787W        W70544  23.674  18.224  14.298
 6788W        W70545  20.053  11.787  11.433
 6789W        W70546  13.130  25.571  12.529
 6790W        W70547   3.733  35.073  10.931
 6791W        W70548  28.083  21.548   2.683
 6792W        W70549  27.045  11.312   4.119
 6793W        W70550  31.417  18.776  12.895
 6794W        W70551  17.297   1.292  14.290
 6795W        W70552  29.564  29.091   3.177
 6796W        W70553  36.020  11.231   0.775
 6797W        W70554  19.215  27.461  13.524
 6798W        W70555  24.712  16.588   1.869
 6799W        W70556   6.738  24.091  12.968
 6800W        W70557   4.217  42.379  13.497
 6801W        W70558   3.765  40.856  11.058
 6802W        W70559  35.491  43.865   2.822
 6803W        W70560  32.583  30.431   1.387
 6804W        W70561  18.695   0.888  10.568
 6805W        W70562  12.749   7.720   3.250
 6806W        W70563  16.586  43.922   5.657
 6807W        W70564   4.845   6.197  13.351
 6808W        W70565   2.374   3.233   2.279
 6809W        W70566  25.659  28.999   1.220
 6810W        W70567   5.336  31.001  11.414
 6811W        W70568   5.909  39.368   1.384
 6812W        W70569  36.366  30.500   4.273
 6813W        W70570  28.604   7.730   2.704
 6814W        W70571  42.475  20.761  12.342
 6815W        W70572  34.088  37.065   1.219
 6816W        W70573   5.836  44.920   0.729
 6817W        W70574  29.571   7.258  13.950
 6818W        W70575  11.268  42.311   1.272
 6819W        W70576  30.068   6.710  11.386
 6820W        W70577  29.163  38.367  14.416
 6821W        W70578  19.747  43.513   1.443
 6822W        W70579  37.530  27.687  14.801
 6823W        W70580  15.105  16.124   1.894
 6824W        W70581   0.327  32.595  12.558
 6825W        W70582   4.350  39.555  14.794
 6826W        W70583  44.912  42.404  14.865
 6827W        W70584  30.082  33.063  10.618
 6828W        W70585  36.388  19.590   2.412
 6829W        W70586   5.887   4.867   2.319
 6830W        W70587  27.499  19.593   4.191
 6831W        W70588  18.213   6.862   1.432
 6832W        W70589  36.914  24.552  12.983
 6833W        W70590  39.344  37.015  13.363
 6834W        W70591   0.459   2.402   2.233
 6835W        W70592   2.857   6.266   4.250
 6836W        W70593   0.267   9.181  12.891
 6837W        W70594  36.880  35.456  11.067
 6838W        W70595  40.411  35.002  11.537
 6839W        W70596  21.667   7.227  12.973
 6840W        W70597  34.001  24.631  11.379
 6841W        W70598  21.524  17.154  14.793
 6842W        W70599   2.401  20.687  11.067
 6843W        W70600  23.188  35.980   1.259
 6844W        W70601  21.732  36.499   4.816
 6845W        W70602  36.983  40.927  10.604
 6846W        W70603  33.121   9.368  10.897
 6847W        W70604  36.542   5.384  11.979
 6848W        W70605  38.831  23.058   0.859
 6849W        W70606  42.937  18.747   2.292
 6850W        W70607  10.187  41.042  12.493
 6851W        W70608  40.016  13.757  14.852
 6852W        W70609  40.013  30.992   3.839
 6853W        W70610  22.544  36.428   1.730
 6854W        W70611  34.510   2.840  10.919
 6855W        W70612  41.523  28.045  13.859
 6856W        W70613  16.255  41.839   1.408
 6857W        W70614  17.717  44.804   0.433
 6858W        W70615  15.243  33.440   3.173
 6859W        W70616  12.126  17.637   2.211
 6860W        W70617  16.296  42.308   3.805
 6861W        W70618  23.577  28.955   3.267
 6862W        W70619  11.362  35.602   4.803
 6863W        W70620  21.524   4.234   0.393
 6864W        W70621  44.804  14.793   2.819
 6865W        W70622  28.146  27.149  14.289
 6866W        W70623  16.700   4.227  13.990
 6867W        W70624  20.079  43.496  14.849
 6868W        W70625  28.596  39.851   2.299
 6869W        W70626  11.317  37.911   0.891
 6870W        W70627  14.766  34.439   1.286
 6871W        W70628  31.571  19.731  13.862
 6872W        W70629  17.645  29.160  13.809
 6873W        W70630  43.860  17.092  13.374
 6874W        W70631  41.900  28.018   0.793
 6875W        W70632   7.366  42.892  10.926
 6876W        W70633  32.108  29.476   3.339
 6877W        W70634  35.586  41.458   4.808
 6878W        W70635  38.482   6.388   4.727
 6879W        W70636  24.060  14.717   4.238
 6880W        W70637   4.869   8.663  12.854
 6881W        W70638  40.365   6.350   4.272
 6882W        W70639  17.706  30.638   3.845
 6883W        W70640   9.690  18.740  13.905
 6884W        W70641   9.646  30.439   3.748
 6885W        W70642  23.685  23.581   0.944
 6886W        W70643  26.525   9.704  14.390
 6887W        W70644  12.729  26.991  12.863
 6888W        W70645  39.839  34.580  14.910
 6889W        W70646   1.251  19.763   3.350
 6890W        W70647  40.986   4.715  11.394
 6891W        W70648  16.670  38.848   0.360
 6892W        W70649  23.020   3.918  14.376
 6893W        W70650  22.528  10.185   2.349
 6894W        W70651   9.385  19.742   5.606
 6895W        W70652  18.270   9.395   1.807
 6896W        W70653  27.160   3.825   4.780
 6897W        W70654  40.360  16.613  11.378
 6898W        W70655  22.007  42.850  14.977
 6899W        W70656  29.475  30.074  12.423
 6900W        W70657  43.506  24.021   2.230
 6901W        W70658   5.751  12.186   2.720
 6902W        W70659  37.504  29.069  12.973
 6903W        W70660  44.782   4.450  13.362
 6904W        W70661  11.864  44.973   4.697
 6905W        W70662   4.835  19.600   2.811
 6906W        W70663   9.376  17.175   0.916
 6907W        W70664  15.183   7.701  12.566
 6908W        W70665  35.529  33.037  11.464
 6909W        W70666  20.142   3.956   4.752
 6910W        W70667  42.429  40.848   0.810
 6911W        W70668  36.926  29.004   1.235
 6912W        W70669  42.776   3.231  11.124
 6913W        W70670  42.927  33.110  11.115
 6914W        W70671  16.647  35.490  10.415
 6915W        W70672  32.022   7.255  12.422
 6916W        W70673  40.307  26.992  14.352
 6917W        W70674  39.998  36.559  13.501
 6918W        W70675  43.360  16.293   3.714
 6919W        W70676  23.057  30.162  10.470
 6920W        W70677  30.567  26.497  13.530
 6921W        W70678  33.092  14.720   0.841
 6922W        W70679  34.078  43.419  12.966
 6923W        W70680  38.375   4.829   2.375
 6924W        W70681  27.472  44.825   0.344
 6925W        W70682  27.641  25.196   2.395
 6926W        W70683   5.902   5.209  12.032
 6927W        W70684  40.454  42.793   2.363
 6928W        W70685  37.497   0.830   1.887
 6929W        W70686   5.798  21.145   4.304
 6930W        W70687  11.755   8.759   4.660
 6931W        W70688  30.490  11.335   0.946
 6932W        W70689  37.372  16.139  10.607
 6933W        W70690   6.242  22.116  12.374
 6934W        W70691   5.400  15.702  11.118
 6935W        W70692  39.449  37.340  13.425
 6936W        W70693  34.865   3.450   4.236
 6937W        W70694  17.727   6.206   4.279
 6938W        W70695  41.307  43.496   3.198
 6939W        W70696  26.041   6.748   0.286
 6940W        W70697   6.714   5.899   1.750
 6941W        W70698  31.433  35.388   1.839
 6942W        W70699  23.172   8.703  11.860
 6943W        W70700  27.076  25.131  12.381
 6944W        W70701   5.423  10.708   1.934
 6945W        W70702  10.852  28.049   3.216
 6946W        W70703  34.054  33.534   2.206
 6947W        W70704  26.985   0.277  13.506
 6948W        W70705  12.190   9.648   4.733
 6949W        W70706  28.622  20.604  10.582
 6950W        W70707  38.948   9.231   4.641
 6951W        W70708   8.392  25.152   1.858
 6952W        W70709  19.104  17.754  12.444
 6953W        W70710   3.829  16.692   2.844
 6954W        W70711   9.706  13.284   4.643
 6955W        W70712  25.192  44.402  14.950
 6956W        W70713  43.356  11.275  14.917
 6957W        W70714  33.504  43.962  13.969
 6958W        W70715  10.207  22.728  12.541
 6959W        W70716  22.222  23.131   3.202
 6960W        W70717   7.764   5.728  10.459
 6961W        W70718   2.389  44.967   0.254
 6962W        W70719  41.996  24.063   2.788
 6963W        W70720  24.720  32.887   0.392
 6964W        W70721  31.149  20.235   2.849
 6965W        W70722  31.086  37.370  14.356
 6966W        W70723  12.343  17.116  12.052
 6967W        W70724   1.927   6.904  12.483
 6968W        W70725  31.131  12.844   2.758
 6969W        W70726   4.799  28.988   4.351
 6970W        W70727  30.578  14.224  10.467
 6971W        W70728   0.920  37.933   0.477
 6972W        W70729  25.139   0.874  13.901
 6973W        W70730  12.723   7.672  12.490
 6974W        W70731  32.583   5.821  13.427
 6975W        W70732  43.445  39.842   4.817
 6976W        W70733  42.907  23.545  10.968
 6977W        W70734  44.953  18.208  10.632
 6978W        W70735  22.066  18.238  14.488
 6979W        W70736  16.235  24.619   1.763
 6980W        W70737   7.857  34.556   2.754
 6981W        W70738  35.538  42.776   3.198
 6982W        W70739  24.202  35.536   4.812
 6983W        W70740  31.955  16.567  11.586
 6984W        W70741  14.200  18.228   4.662
 6985W        W70742  15.686  22.577  11.891
 6986W        W70743  10.285   9.657   4.720
 6987W        W70744   2.919  36.957  11.535
 6988W        W70745  31.938  29.110  12.889
 6989W        W70746  25.536  27.637  13.541
 6990W        W70747  40.359   5.844   1.736
 6991W        W70748   7.699  26.116  14.970
 6992W        W70749  44.346  20.533   4.772
 6993W        W70750  17.715   9.701   2.414
 6994W        W70751  37.054   5.335  10.604
 6995W        W70752  41.422  40.933  11.974
 6996W        W70753  16.630  19.200   2.196
 6997W        W70754   1.737  19.110  14.785
 6998W        W70755   0.752  37.958  10.596
 6999W        W70756   1.330   2.376  11.980
 7000W        W70757  27.156  40.990  14.406
 7001W        W70758  30.524  12.222  14.905
 7002W        W70759  42.026  35.516  14.333
 7003W        W70760   9.294  31.523  12.028
 7004W        W70761   5.333  30.972  12.949
 7005W        W70762  21.059  13.769  12.020
 7006W        W70763  19.686  43.880   0.354
 7007W        W70764  17.705  27.994  12.011
 7008W        W70765  32.033  44.454  13.423
 7009W        W70766   1.363   6.266  12.539
 7010W        W70767  25.482  11.256  13.325
 7011W        W70768  16.166  44.473   2.811
 7012W        W70769  19.751  23.532   3.832
 7013W        W70770  19.659   3.368  10.406
 7014W        W70771  20.192  21.624  11.607
 7015W        W70772  28.445  18.780  12.922
 7016W        W70773   5.920  34.469  14.866
 7017W        W70774  39.332   7.817  13.993
 7018W        W70775   9.226  27.630  11.937
 7019W        W70776  14.660  21.226   1.694
 7020W        W70777  12.305   3.729  10.544
 7021W        W70778   8.711  38.531   2.198
 7022W        W70779  31.087  20.260  10.605
 7023W        W70780   1.959   9.176   3.790
 7024W        W70781  44.304  12.850  11.097
 7025W        W70782  37.521  25.587   5.229
 7026W        W70783  38.975  36.478   1.410
 7027W        W70784   4.925  31.937   0.770
 7028W        W70785  37.988  43.272  13.515
 7029W        W70786  20.092  41.852   1.276
 7030W        W70787  32.526  10.767  14.875
 7031W        W70788  30.604   2.727  10.911
 7032W        W70789  19.658  29.074   0.727
 7033W        W70790  44.821  37.058  10.627
 7034W        W70791  12.762  17.210   3.764
 7035W        W70792  24.614  42.467   2.739
 7036W        W70793  14.140  37.961  12.939
 7037W        W70794  43.837  38.929  11.069
 7038W        W70795  23.714  13.697  14.454
 7039W        W70796   2.959   7.911  11.425
 7040W        W70797  22.743  31.568  13.925
 7041W        W70798  43.858  16.805  12.404
 7042W        W70799  42.982  35.919   3.154
 7043W        W70800  44.887  36.903  14.888
 7044W        W70801  42.791  41.510   9.984
 7045W        W70802  36.565  22.134  11.379
 7046W        W70803  12.620  18.546   2.403
 7047W        W70804  18.145  12.843   0.467
 7048W        W70805   6.748  16.098  13.460
 7049W        W70806  36.081  23.524  11.422
 7050W        W70807  17.084   2.859  13.519
 7051W        W70808   3.374  35.081  14.834
 7052W        W70809  38.914  35.467  13.395
 7053W        W70810  38.570  38.018  14.991
 7054W        W70811  38.526  22.167  12.921
 7055W        W70812  30.595   2.826   2.688
 7056W        W70813  19.642  27.031   4.194
 7057W        W70814   8.671   1.460  10.498
 7058W        W70815  40.925   8.364   3.338
 7059W        W70816  22.557  31.117   0.769
 7060W        W70817  12.856  37.336  12.844
 7061W        W70818  39.327  41.312  11.051
 7062W        W70819  36.461  29.021   1.708
 7063W        W70820  21.132  39.064  11.885
 7064W        W70821  43.345  29.527   2.695
 7065W        W70822   8.204  29.625   3.337
 7066W        W70823  31.938  34.943  14.928
 7067W        W70824  30.037  12.262  12.092
 7068W        W70825  30.418   0.259   1.428
 7069W        W70826  26.985  37.345   9.941
 7070W        W70827  14.694  15.582  10.593
 7071W        W70828   9.654  39.346  13.430
 7072W        W70829   3.369   1.256   1.310
 7073W        W70830  31.037  27.015  13.410
 7074W        W70831  30.998   0.847  12.915
 7075W        W70832  31.590  35.878  14.996
 7076W        W70833  23.082  26.175  12.507
 7077W        W70834  35.367  43.873  14.323
 7078W        W70835  33.483  27.475   4.633
 7079W        W70836  29.134  25.147  14.848
 7080W        W70837  38.038  18.686   9.996
 7081W        W70838  31.403  12.754  13.316
 7082W        W70839   4.797  38.022   1.786
 7083W        W70840  21.250  21.059   0.856
 7084W        W70841  43.908   8.387  11.546
 7085W        W70842  36.475  25.553   0.895
 7086W        W70843  42.994  28.054   1.879
 7087W        W70844  33.518  32.589   1.866
 7088W        W70845  16.205  38.378   1.880
 7089W        W70846   8.715  25.187  14.840
 7090W        W70847   3.753  27.144   4.316
 7091W        W70848  25.964  39.911  12.015
 7092W        W70849   9.341  37.060   1.357
 7093W        W70850   5.359  26.006  13.347
 7094W        W70851  39.850  27.520   3.239
 7095W        W70852  37.068  23.998  12.547
 7096W        W70853   4.414  10.647  12.506
 7097W        W70854  17.286   6.303   0.474
 7098W        W70855  39.427  36.098  14.487
 7099W        W70856   2.750  38.930  12.081
 7100W        W70857  42.806   0.944  13.482
 7101W        W70858   7.814  23.731  12.560
 7102W        W70859  13.159  39.048  10.543
 7103W        W70860  40.888  17.256  14.867
 7104W        W70861  34.108  32.422   2.825
 7105W        W70862   0.870  44.991  13.419
 7106W        W70863  41.016  20.555   3.737
 7107W        W70864  39.867  40.950  12.930
 7108W        W70865   0.317  27.171   2.666
 7109W        W70866  40.379  31.014   3.288
 7110W        W70867   4.778  29.145   0.415
 7111W        W70868  11.135   2.326  14.479
 7112W        W70869  19.045   2.798  12.385
 7113W        W70870  35.925  29.627  13.437
 7114W        W70871   0.361  18.568  14.438
 7115W        W70872  35.877  41.018   1.352
 7116W        W70873   2.917  18.141  13.504
 7117W        W70874   8.722  14.786   9.997
 7118W        W70875  25.526  16.236   3.668
 7119W        W70876  24.155  14.242   4.628
 7120W        W70877  34.985  23.139  11.415
 7121W        W70878  40.508   5.747  10.032
 7122W        W70879   0.339  17.752   3.313
 7123W        W70880   8.824  12.267  13.972
 7124W        W70881   0.743  14.796  11.901
 7125W        W70882  36.939  28.471  10.559
 7126W        W70883  34.460   0.493  14.859
 7127W        W70884  36.034  41.294   4.835
 7128W        W70885  28.547   3.252  11.988
 7129W        W70886  32.592  11.791  12.852
 7130W        W70887   1.277   2.456  12.891
 7131W        W70888  10.348  30.126   3.176
 7132W        W70889  32.940   7.205   1.733
 7133W        W70890  13.812  17.640   4.229
 7134W        W70891   3.731  23.491  11.511
 7135W        W70892  26.128  43.481  12.016
 7136W        W70893  44.408   1.299   2.813
 7137W        W70894  26.662   8.752   0.798
 7138W        W70895  16.660  18.288   0.254
 7139W        W70896  21.039   5.287   0.320
 7140W        W70897  36.019  20.739  13.476
 7141W        W70898  18.558  38.858   1.836
 7142W        W70899  17.165   7.873   1.818
 7143W        W70900  17.076   9.323   0.352
 7144W        W70901  35.454  34.475   3.381
 7145W        W70902  43.979  37.864  13.449
 7146W        W70903  44.846  35.475  13.361
 7147W        W70904  32.143  24.046   1.383
 7148W        W70905  12.650  14.272   0.416
 7149W        W70906  18.599   3.883  12.495
 7150W        W70907   1.865  33.555  12.982
 7151W        W70908  17.618  15.635  10.949
 7152W        W70909  41.919  35.901   5.271
 7153W        W70910   5.198  14.301   3.382
 7154W        W70911  22.629   2.858  14.435
 7155W        W70912  33.598  17.706  10.439
 7156W        W70913   2.303  42.459  13.961
 7157W        W70914  20.745   9.763   2.781
 7158W        W70915  37.453  12.117  11.032
 7159W        W70916  32.410  18.270   3.654
 7160W        W70917  43.378  37.365  10.961
 7161W        W70918  31.911   7.904  13.499
 7162W        W70919  14.706  16.569  11.552
 7163W        W70920  12.752  27.654   3.709
 7164W        W70921  14.231  41.940   5.261
 7165W        W70922  44.321   0.888  12.017
 7166W        W70923  14.208  34.037   0.366
 7167W        W70924  35.573   7.671   2.244
 7168W        W70925  33.612  28.662   5.634
 7169W        W70926  40.872  28.458  12.046
 7170W        W70927  43.974  14.668  10.999
 7171W        W70928  34.458  25.196   3.275
 7172W        W70929  27.943  19.067  13.005
 7173W        W70930  20.728  33.912   1.294
 7174W        W70931   1.946  42.396  13.811
 7175W        W70932   0.906  14.738   0.733
 7176W        W70933  20.738  29.539  13.410
 7177W        W70934  35.004   2.950   4.122
 7178W        W70935  32.584   6.855  12.387
 7179W        W70936  43.899  25.616  14.850
 7180W        W70937  19.241  30.094  11.098
 7181W        W70938  23.218  19.177  12.575
 7182W        W70939  36.081  39.479  10.916
 7183W        W70940  15.695  43.440   0.295
 7184W        W70941  43.835  30.937   3.245
 7185W        W70942  44.370  28.448   3.245
 7186W        W70943  11.766  38.895  14.349
 7187W        W70944   3.445  28.482   3.344
 7188W        W70945  27.526  11.727   3.250
 7189W        W70946  40.862  23.723   0.793
 7190W        W70947   8.732  28.959   3.676
 7191W        W70948  22.102  16.082  14.839
 7192W        W70949  43.447  34.395   2.679
 7193W        W70950  10.269  21.576   3.313
 7194W        W70951  27.620  38.538  13.822
 7195W        W70952  44.821  15.702  11.112
 7196W        W70953  25.141  26.140   4.148
 7197W        W70954  29.955  11.270  12.364
 7198W        W70955  17.565  39.894   4.797
 7199W        W70956  42.846  21.517   0.916
 7200W        W70957  40.837  11.189  13.530
 7201W        W70958  39.066  13.747  12.561
 7202W        W70959  32.133  19.676   1.441
 7203W        W70960  15.742  33.422   3.320
 7204W        W70961  22.550  16.744   1.696
 7205W        W70962   1.831  15.656  13.796
 7206W        W70963  33.963  27.513   2.826
 7207W        W70964   6.378  10.841   3.341
 7208W        W70965  17.226   0.302   4.689
 7209W        W70966   2.350  24.110   4.328
 7210W        W70967  36.990  39.923  10.404
 7211W        W70968  43.869  21.188   0.899
 7212W        W70969  10.241  31.544   3.254
 7213W        W70970  37.358  34.977   5.170
 7214W        W70971  38.331  32.604  13.404
 7215W        W70972  42.432  33.469   0.796
 7216W        W70973  38.993  33.615   3.382
 7217W        W70974  24.146  32.015   9.962
 7218W        W70975   9.667  44.389   1.799
 7219W        W70976  43.974  20.070   4.719
 7220W        W70977  23.126  23.530   3.312
 7221W        W70978  29.546  24.480  12.912
 7222W        W70979  39.358   4.236  14.957
 7223W        W70980   6.721  19.609   5.133
 7224W        W70981  15.326  15.815  14.412
 7225W        W70982   1.250  41.391  11.070
 7226W        W70983  14.212  25.503   1.418
 7227W        W70984  36.485  42.790  13.922
 7228W        W70985  20.681  34.974  13.052
 7229W        W70986  23.631  30.431  13.026
 7230W        W70987  16.091   3.314   3.703
 7231W        W70988   4.719  22.625   4.322
 7232W        W70989  36.484  19.210   2.258
 7233W        W70990  10.230   4.437  12.853
 7234W        W70991   5.204   2.343   3.208
 7235W        W70992  37.418  26.509   1.383
 7236W        W70993  11.313  40.321  12.501
 7237W        W70994  12.253   1.394   4.237
 7238W        W70995  31.574  14.111   3.270
 7239W        W70996  11.360  32.983   2.822
 7240W        W70997  39.371  30.127  12.412
 7241W        W70998  36.567  24.674   4.616
 7242W        W70999  12.748  27.539  13.397
 7243W        W71000  24.225  10.379  14.349
 7244W        W71001  24.721  23.040   0.963
 7245W        W71002  10.199  27.123  13.915
 7246W        W71003  38.047  42.839   3.365
 7247W        W71004  20.273  24.119   3.324
 7248W        W71005  11.252  43.467  12.930
 7249W        W71006   6.797  23.630   4.173
 7250W        W71007   8.719  30.916   0.741
 7251W        W71008  36.465  33.883   1.740
 7252W        W71009   9.277  34.992   0.321
 7253W        W71010  44.349  29.567   1.216
 7254W        W71011   0.893   1.972   0.878
 7255W        W71012   1.896  27.612   4.672
 7256W        W71013  19.642  21.691  12.884
 7257W        W71014  10.675  38.356  11.050
 7258W        W71015  39.056  28.621   3.343
 7259W        W71016  15.759  43.499   1.721
 7260W        W71017  10.712   1.745   3.775
 7261W        W71018  23.519  37.470  11.483
 7262W        W71019  13.639  25.629   1.250
 7263W        W71020  28.966  27.074   1.757
 7264W        W71021  44.344  28.105  12.881
 7265W        W71022  17.089  42.895   3.273
 7266W        W71023  41.886  14.248  13.328
 7267W        W71024  43.463  40.887   1.735
 7268W        W71025   6.733  43.888   2.883
 7269W        W71026  44.452  21.018  13.990
 7270W        W71027  41.827   6.300   4.250
 7271W        W71028  27.164  27.068   4.677
 7272W        W71029  29.070  43.006  14.852
 7273W        W71030  22.654  15.651   0.824
 7274W        W71031  12.714   6.677  11.401
 7275W        W71032   9.709  23.674   2.396
 7276W        W71033   6.259  41.478   0.266
 7277W        W71034   4.716  36.022   0.890
 7278W        W71035  25.617  18.551   2.202
 7279W        W71036  16.262  13.181  14.911
 7280W        W71037  19.268  36.856   0.727
 7281W        W71038   0.805   8.295  12.028
 7282W        W71039  24.059  44.921  12.072
 7283W        W71040  30.060  37.386  13.490
 7284W        W71041  17.682  15.289   2.358
 7285W        W71042  40.814  30.436   1.357
 7286W        W71043  14.173   0.346  14.497
 7287W        W71044  20.758  32.574  10.987
 7288W        W71045   5.693  19.572  14.481
 7289W        W71046  34.064  10.678  14.288
 7290W        W71047  26.185  19.217  14.376
 7291W        W71048   0.349  16.745   0.729
 7292W        W71049   6.886  34.390  14.496
 7293W        W71050  12.168  17.639  12.477
 7294W        W71051  26.662  30.003  11.933
 7295W        W71052  11.733  41.481   9.933
 7296W        W71053  32.913   4.305  12.072
 7297W        W71054   2.260  15.212   2.820
 7298W        W71055  38.500  37.410   4.349
 7299W        W71056  15.269   8.675   2.294
 7300W        W71057   7.197  13.735   3.691
 7301W        W71058  27.679  42.004   1.833
 7302W        W71059   1.474  27.096   4.193
 7303W        W71060  24.112  24.136   1.756
 7304W        W71061  27.545  18.207  13.893
 7305W        W71062  17.088  10.702   3.326
 7306W        W71063  19.229  40.528  12.552
 7307W        W71064  18.546   1.394  11.886
 7308W        W71065  41.323  13.334  12.042
 7309W        W71066  35.421  21.628   1.909
 7310W        W71067  10.666   7.723  14.462
 7311W        W71068  10.739   8.180   1.336
 7312W        W71069  19.058  23.021   3.230
 7313W        W71070   3.767   7.881  12.356
 7314W        W71071  38.865  27.512   2.288
 7315W        W71072  23.687  23.076   4.235
 7316W        W71073  15.640  27.491  14.949
 7317W        W71074  21.105  25.172   0.351
 7318W        W71075  32.408  18.199  13.030
 7319W        W71076  13.248  12.244   3.323
 7320W        W71077  27.114  22.712   1.873
 7321W        W71078  30.569  28.085   2.747
 7322W        W71079  21.233  24.061  12.069
 7323W        W71080  11.201  39.442  12.379
 7324W        W71081   0.388  28.641  11.577
 7325W        W71082  10.694  44.269  11.057
 7326W        W71083  15.669  35.375  13.309
 7327W        W71084  11.370  29.034  14.376
 7328W        W71085   8.668  38.891   4.290
 7329W        W71086  31.103  26.658   2.674
 7330W        W71087  43.370   1.280   2.758
 7331W        W71088  12.789  19.681   3.181
 7332W        W71089  38.073  23.685   3.198
 7333W        W71090   9.392  38.390  14.397
 7334W        W71091   4.751  11.183   3.298
 7335W        W71092   1.398   3.424   1.362
 7336W        W71093   7.172   6.733   1.398
 7337W        W71094  30.144  36.530  13.429
 7338W        W71095  35.979  25.627   3.352
 7339W        W71096  21.162  34.477  11.441
 7340W        W71097  30.980  24.025  11.480
 7341W        W71098   7.842  32.034  11.900
 7342W        W71099  42.788  18.057   3.293
 7343W        W71100   6.747   9.195  13.544
 7344W        W71101  26.560   8.794   4.687
 7345W        W71102  10.699  29.935   0.799
 7346W        W71103  12.274  24.700  13.459
 7347W        W71104   8.760  26.580  12.864
 7348W        W71105  44.287  40.412  12.967
 7349W        W71106  37.494  44.439  13.994
 7350W        W71107  41.408  26.094   2.716
 7351W        W71108   3.760  17.789  12.035
 7352W        W71109  14.744   3.891  11.919
 7353W        W71110  24.218  24.533   0.764
 7354W        W71111  16.122  36.405  11.579
 7355W        W71112  37.432  44.859  10.889
 7356W        W71113  10.808   7.864   4.681
 7357W        W71114   1.430   6.775   0.347
 7358W        W71115  21.540  35.422   4.258
 7359W        W71116  17.302  36.916   1.300
 7360W        W71117  39.420  16.693   4.731
 7361W        W71118  31.571   1.314   4.725
 7362W        W71119  16.085  35.506   3.207
 7363W        W71120   0.264  22.512   4.637
 7364W        W71121  21.074  32.908   9.948
 7365W        W71122  39.513  36.349   0.910
 7366W        W71123  36.422  36.348  10.481
 7367W        W71124  22.725  24.655   3.703
 7368W        W71125  27.165  44.319  14.439
 7369W        W71126  24.997  38.996   1.250
 7370W        W71127  36.060   6.756   2.181
 7371W        W71128   4.814  37.366   2.871
 7372W        W71129  15.616  35.584  12.490
 7373W        W71130  34.520   1.441   1.818
 7374W        W71131   7.251  40.841   3.148
 7375W        W71132  19.636  39.040  13.897
 7376W        W71133  22.061   9.862   4.167
 7377W        W71134   2.910  42.418  13.379
 7378W        W71135  42.932   8.242  14.985
 7379W        W71136  28.068  33.000   2.295
 7380W        W71137   0.313  12.208   0.382
 7381W        W71138   1.384   1.371   0.355
 7382W        W71139  30.547  21.655   3.239
 7383W        W71140  22.153  20.185  11.100
 7384W        W71141  44.371  23.588   9.933
 7385W        W71142  20.047  18.682   3.317
 7386W        W71143  14.618  22.064   3.308
 7387W        W71144  44.352  22.081  11.022
 7388W        W71145  26.128  38.523   4.677
 7389W        W71146  35.559   9.196  12.034
 7390W        W71147  27.126  31.495   2.239
 7391W        W71148  37.336  22.095  11.005
 7392W        W71149  19.254  19.713  11.925
 7393W        W71150  38.333  32.915  10.894
 7394W        W71151  35.073   8.898  10.019
 7395W        W71152  23.169  34.890  13.465
 7396W        W71153   8.730  13.839  13.537
 7397W        W71154  17.178  43.962   2.800
 7398W        W71155  23.559   2.350  14.326
 7399W        W71156  36.868  42.337   1.282
 7400W        W71157  40.812   2.911  11.535
 7401W        W71158   2.823  31.091  12.354
 7402W        W71159  25.490  15.283   4.601
 7403W        W71160  36.893   9.687   1.284
 7404W        W71161   7.847  30.907   0.278
 7405W        W71162  23.652  34.004   1.739
 7406W        W71163  26.050   4.371  12.352
 7407W        W71164  12.264  22.646  12.088
 7408W        W71165  34.578  24.659   2.769
 7409W        W71166   1.435  24.158   2.255
 7410W        W71167  18.160  20.155   0.308
 7411W        W71168  21.083  40.334  14.900
 7412W        W71169   6.884  10.347  10.969
 7413W        W71170  15.790  13.756  10.536
 7414W        W71171  27.604   9.882  11.094
 7415W        W71172  30.459  19.062   3.732
 7416W        W71173  13.160   0.808   3.868
 7417W        W71174  31.538  44.834   0.859
 7418W        W71175  18.637  10.753  14.311
 7419W        W71176  30.590  39.015  11.498
 7420W        W71177   3.836  41.906  12.971
 7421W        W71178   5.798  34.993  12.989
 7422W        W71179   2.449  38.859   1.317
 7423W        W71180  22.510  35.943  11.083
 7424W        W71181   6.399  30.003  11.991
 7425W        W71182  21.757   3.401  11.886
 7426W        W71183   7.877  11.190  11.523
 7427W        W71184  13.304  41.834  11.496
 7428W        W71185  40.843  18.095   4.279
 7429W        W71186   5.428  43.479   4.277
 7430W        W71187  44.905  18.204   5.104
 7431W        W71188  11.665   1.305  10.568
 7432W        W71189  44.936  36.576  11.075
 7433W        W71190  34.896  32.991   2.288
 7434W        W71191  17.255   2.418   3.652
 7435W        W71192  21.741  20.684  12.921
 7436W        W71193  31.574  23.985  13.899
 7437W        W71194   9.255  23.629  13.537
 7438W        W71195   2.316  28.532   0.813
 7439W        W71196   6.307  37.850   0.888
 7440W        W71197  32.028  33.035  10.023
 7441W        W71198  34.095  24.715   1.335
 7442W        W71199  29.466  33.623   4.279
 7443W        W71200  17.111   3.925   0.329
 7444W        W71201  24.528  17.780  10.554
 7445W        W71202  21.624   2.367  14.986
 7446W        W71203  31.475  26.592  13.957
 7447W        W71204  26.483  43.944  13.063
 7448W        W71205   1.801  21.569  12.377
 7449W        W71206  28.642  29.505  10.960
 7450W        W71207  38.018  25.660   0.924
 7451W        W71208  29.932   8.174   3.320
 7452W        W71209  29.164  31.915  14.448
 7453W        W71210  22.676   8.680   4.616
 7454W        W71211  34.501   3.453   2.750
 7455W        W71212  42.481  42.322   2.667
 7456W        W71213  25.571   3.387   3.346
 7457W        W71214  11.747  28.140   3.255
 7458W        W71215  27.947  28.562  13.981
 7459W        W71216   3.829  26.049  11.465
 7460W        W71217   8.340  40.963   0.811
 7461W        W71218   1.288   9.838  13.818
 7462W        W71219  26.207   4.408  13.884
 7463W        W71220   2.226   3.937   3.366
 7464W        W71221   5.720  20.568  12.394
 7465W        W71222   9.718  13.178   1.380
 7466W        W71223   1.453  21.580  12.405
 7467W        W71224  14.615   5.412  13.545
 7468W        W71225  30.963  31.485   3.367
 7469W        W71226  30.938  28.068  11.558
 7470W        W71227  14.233   0.870  10.965
 7471W        W71228  27.021  22.701   4.228
 7472W        W71229  18.186   0.493   4.717
 7473W        W71230  20.062  18.791   2.416
 7474W        W71231  40.486  40.953  10.466
 7475W        W71232   9.374  24.603  12.921
 7476W        W71233   6.282  28.059  14.393
 7477W        W71234  40.842  10.204   2.252
 7478W        W71235  36.355  18.763   2.743
 7479W        W71236   0.932  37.023   3.352
 7480W        W71237  26.578  14.172  13.436
 7481W        W71238  11.663  42.908   2.834
 7482W        W71239  20.213   6.762  14.780
 7483W        W71240  24.170  21.031  12.534
 7484W        W71241   9.343  30.649   3.670
 7485W        W71242   5.381   0.812   4.250
 7486W        W71243  36.064  14.149   4.805
 7487W        W71244   8.879  42.871  13.924
 7488W        W71245  19.243  33.434  14.954
 7489W        W71246  42.830   9.317   2.188
 7490W        W71247  21.754   9.390  12.525
 7491W        W71248  28.942  23.641  12.943
 7492W        W71249  17.100  35.902  14.802
 7493W        W71250  11.315  11.177  12.352
 7494W        W71251  27.565  39.401  10.645
 7495W        W71252  30.478  22.526  14.027
 7496W        W71253  37.074  36.546   1.814
 7497W        W71254  20.176  30.483   2.346
 7498W        W71255   9.815   5.757  14.394
 7499W        W71256  18.126  32.617   0.267
 7500W        W71257   8.353  35.060  13.382
 7501W        W71258   5.205   6.391  12.477
 7502W        W71259  31.404  33.520  12.364
 7503W        W71260  35.022  43.915  12.512
 7504W        W71261  34.437   3.827  10.549
 7505W        W71262  34.495   2.329  14.029
 7506W        W71263  28.113  35.402  10.615
 7507W        W71264  35.017   9.717  14.347
 7508W        W71265  38.976  40.939   0.420
 7509W        W71266  15.286  38.475  13.345
 7510W        W71267  36.456  39.541  14.773
 7511W        W71268  23.070  20.140  14.396
 7512W        W71269  34.955  39.346   1.273
 7513W        W71270   8.338  32.996  14.467
 7514W        W71271  32.545  33.395   3.761
 7515W        W71272  23.059  13.695   4.746
 7516W        W71273  31.902   5.896  12.040
 7517W        W71274   7.698  32.132  14.316
 7518W        W71275   5.198  19.120  12.877
 7519W        W71276  11.211   0.269  12.433
 7520W        W71277  13.785  35.584  13.956
 7521W        W71278  15.614  30.557   0.443
 7522W        W71279  39.842  37.919   2.331
 7523W        W71280  36.894  23.557  10.460
 7524W        W71281  39.543  17.672   0.869
 7525W        W71282  43.768  22.732   3.760
 7526W        W71283  33.027  21.040   2.188
 7527W        W71284  13.788  22.170   3.719
 7528W        W71285   5.818  17.145   2.692
 7529W        W71286  37.049  32.578   4.157
 7530W        W71287  23.068  25.084  13.522
 7531W        W71288  15.741  26.502   2.192
 7532W        W71289  34.596   3.415   0.470
 7533W        W71290  20.273   0.420   2.890
 7534W        W71291  36.061  19.666  14.353
 7535W        W71292   3.296  18.076  13.388
 7536W        W71293  22.611  36.485   3.352
 7537W        W71294  12.819   4.426  12.902
 7538W        W71295  12.151  15.129  12.836
 7539W        W71296  20.755  38.486  13.477
 7540W        W71297  23.707  28.959   2.300
 7541W        W71298  13.683   1.377  11.455
 7542W        W71299  31.530   2.819   2.732
 7543W        W71300  10.658  37.459  10.446
 7544W        W71301  42.912  42.407  13.940
 7545W        W71302   1.930  16.790   0.360
 7546W        W71303  42.834  37.994   3.293
 7547W        W71304  37.015  43.357   4.823
 7548W        W71305  19.122  19.168   4.304
 7549W        W71306  12.202  24.190  13.908
 7550W        W71307  36.406  20.569   2.877
 7551W        W71308   6.385   0.492   0.395
 7552W        W71309  33.446  27.542   3.774
 7553W        W71310  22.599  21.078  12.365
 7554W        W71311  28.456  29.531   4.248
 7555W        W71312   9.383  24.678  11.553
 7556W        W71313  20.154  14.278   0.876
 7557W        W71314  42.776  17.130  14.451
 7558W        W71315   5.775   1.844  13.816
 7559W        W71316  40.493  29.600   4.813
 7560W        W71317  39.384  24.503  12.031
 7561W        W71318  10.734  24.052  13.986
 7562W        W71319  21.017  24.136   1.874
 7563W        W71320   8.718  30.634   4.604
 7564W        W71321  24.706  44.400   3.294
 7565W        W71322   0.413  23.168  13.328
 7566W        W71323  34.593  27.953  11.867
 7567W        W71324  23.559  26.008  11.057
 7568W        W71325  17.222  25.134   3.320
 7569W        W71326  44.003  21.142  13.323
 7570W        W71327  17.067   7.219  13.456
 7571W        W71328   0.274  26.188   0.440
 7572W        W71329  23.565   9.385  14.405
 7573W        W71330   8.779  11.692   4.812
 7574W        W71331   3.760   9.350  11.890
 7575W        W71332  44.840  28.586   0.374
 7576W        W71333  11.796  41.499   3.738
 7577W        W71334   4.441  38.456   0.777
 7578W        W71335  44.323   6.357   0.806
 7579W        W71336   9.190  19.715   4.280
 7580W        W71337  26.109  12.345  10.906
 7581W        W71338  27.588  32.974   2.410
 7582W        W71339  10.730  21.519  11.045
 7583W        W71340   2.839  34.577  10.545
 7584W        W71341  33.122  40.970  11.912
 7585W        W71342   1.385  36.462   3.740
 7586W        W71343  35.995  29.139  12.456
 7587W        W71344   4.944  19.552   5.114
 7588W        W71345  42.825  29.648   0.820
 7589W        W71346  22.035  18.242   3.277
 7590W        W71347  22.744  17.094   1.709
 7591W        W71348  43.881  40.830   0.742
 7592W        W71349  14.130  32.114  10.437
 7593W        W71350   1.830  17.121   5.097
 7594W        W71351  25.581   8.339  13.337
 7595W        W71352   7.781  24.127   3.675
 7596W        W71353  19.639  16.673  12.035
 7597W        W71354  44.413   3.352  11.031
 7598W        W71355  31.423   8.278  13.416
 7599W        W71356  14.721  10.704  12.868
 7600W        W71357  39.981  19.586  13.991
 7601W        W71358  29.562  20.599   4.311
 7602W        W71359  22.190  23.635   4.672
 7603W        W71360  34.511   0.772  11.024
 7604W        W71361  16.589  13.647   1.766
 7605W        W71362   5.924  42.778  11.867
 7606W        W71363  12.272   3.801   1.364
 7607W        W71364  40.994   1.946  11.079
 7608W        W71365  10.714  37.964  11.127
 7609W        W71366  21.191   6.827   2.255
 7610W        W71367  12.834  23.617   3.635
 7611W        W71368  39.018  40.518  14.955
 7612W        W71369  41.008  27.509   1.926
 7613W        W71370   3.914  43.313   0.253
 7614W        W71371   7.210  11.702  13.338
 7615W        W71372  21.229  20.730   2.820
 7616W        W71373  35.934  44.284  11.513
 7617W        W71374   2.284  32.081  11.115
 7618W        W71375  31.604   3.906   2.225
 7619W        W71376  23.655  30.961   3.363
 7620W        W71377   5.221  13.191   1.927
 7621W        W71378   3.428  17.174   3.825
 7622W        W71379  25.712  17.214   0.259
 7623W        W71380  10.244  33.402   3.804
 7624W        W71381  21.576  15.213   3.683
 7625W        W71382  33.429  27.504   5.119
 7626W        W71383  29.584  30.508  12.561
 7627W        W71384   0.815  38.895   3.380
 7628W        W71385  22.547  30.591  12.569
 7629W        W71386  22.638  13.615  11.433
 7630W        W71387   6.824  42.502   2.178
 7631W        W71388  15.677  29.110   0.479
 7632W        W71389  26.206   1.761   1.905
 7633W        W71390   3.275  40.873  11.584
 7634W        W71391   3.460   6.377  11.545
 7635W        W71392  14.141  26.550  12.403
 7636W        W71393  27.571   5.249  14.476
 7637W        W71394  27.165  32.546   0.889
 7638W        W71395  22.504  21.077  14.025
 7639W        W71396  40.370  41.874  10.565
 7640W        W71397   9.814  22.649   2.760
 7641W        W71398  33.049  30.548  10.966
 7642W        W71399  22.614  12.158  14.457
 7643W        W71400  42.525  20.755   2.273
 7644W        W71401  39.001  11.310  12.413
 7645W        W71402  31.575  44.421   2.666
 7646W        W71403   6.219  35.863  11.470
 7647W        W71404   9.194  41.915  13.318
 7648W        W71405  21.091   2.338   1.419
 7649W        W71406  27.610  11.143   4.751
 7650W        W71407  36.555  35.892  10.002
 7651W        W71408  27.591   5.198   2.403
 7652W        W71409  38.491  28.975  11.079
 7653W        W71410  32.487  33.398   4.633
 7654W        W71411  19.546  12.241  14.416
 7655W        W71412  35.006  19.093   2.411
 7656W        W71413   5.719  15.774  14.768
 7657W        W71414  15.742  16.318  14.896
 7658W        W71415  16.813  36.013  11.582
 7659W        W71416  22.573  38.542  13.030
 7660W        W71417   8.872  10.286   4.768
 7661W        W71418  27.047  25.572  11.965
 7662W        W71419  19.096  23.586   4.223
 7663W        W71420  28.933  20.205   2.207
 7664W        W71421  41.821  39.020  13.313
 7665W        W71422  28.981  23.111   9.535
 7666W        W71423  18.256  20.542   3.812
 7667W        W71424  17.211  23.189  10.970
 7668W        W71425  38.517   1.356   0.745
 7669W        W71426  31.925  39.935  14.017
 7670W        W71427   5.304  37.937  13.490
 7671W        W71428  43.865  17.612  12.479
 7672W        W71429   9.655   7.321   1.706
 7673W        W71430  42.952  44.339  11.602
 7674W        W71431  37.854  16.688  14.905
 7675W        W71432  11.840  17.754  12.070
 7676W        W71433  20.094  35.501   1.811
 7677W        W71434  21.141  36.995  10.606
 7678W        W71435  44.934   2.872  13.979
 7679W        W71436  22.575   7.321  10.595
 7680W        W71437  23.224  44.350   4.827
 7681W        W71438  21.686  25.594  10.549
 7682W        W71439  31.950   2.282  12.452
 7683W        W71440  15.773  23.001   2.343
 7684W        W71441  37.067  39.812   3.172
 7685W        W71442   1.439   4.344  12.965
 7686W        W71443  41.371  44.847  13.903
 7687W        W71444   3.866   2.773   1.866
 7688W        W71445  25.214  43.876  11.542
 7689W        W71446  29.081   7.716  12.958
 7690W        W71447  10.644  36.480   3.381
 7691W        W71448  23.705  12.814   4.338
 7692W        W71449  27.466  39.876  14.841
 7693W        W71450  31.487  16.282  14.786
 7694W        W71451   5.835  32.573   1.784
 7695W        W71452  32.944  27.680  12.350
 7696W        W71453  37.446  40.531   4.811
 7697W        W71454  11.271  32.009  11.988
 7698W        W71455   1.875  14.683   1.814
 7699W        W71456  29.568  29.515   3.849
 7700W        W71457   2.258  32.434   3.759
 7701W        W71458  26.662   3.934   0.358
 7702W        W71459  21.655  21.700   0.889
 7703W        W71460  23.545  20.668  10.611
 7704W        W71461   1.469  37.877   1.436
 7705W        W71462  42.879  39.391   4.119
 7706W        W71463  40.463  28.021  14.781
 7707W        W71464  22.715  18.784  13.498
 7708W        W71465   8.741  29.481   3.744
 7709W        W71466  23.210  41.354  14.347
 7710W        W71467  21.041  42.435   0.388
 7711W        W71468  36.590   8.747   4.693
 7712W        W71469  23.496  22.502  14.419
 7713W        W71470  16.700  15.587  12.483
 7714W        W71471  26.459  30.108   4.768
 7715W        W71472  39.931  31.088  13.826
 7716W        W71473   3.414  33.968  12.082
 7717W        W71474  23.616  10.255   2.188
 7718W        W71475  20.115  40.463  14.493
 7719W        W71476   6.809  36.365   3.681
 7720W        W71477   5.374  35.511   3.248
 7721W        W71478   1.782  39.500   2.211
 7722W        W71479  41.430   0.928  14.379
 7723W        W71480  37.566  28.163   1.281
 7724W        W71481  13.655  21.718   1.736
 7725W        W71482  29.963  32.509  11.571
 7726W        W71483  27.986  12.615   1.394
 7727W        W71484  32.005  42.496   4.707
 7728W        W71485  26.686   4.713  11.469
 7729W        W71486  29.563  24.004   1.376
 7730W        W71487  38.833  38.571   0.891
 7731W        W71488   4.336  13.743  12.862
 7732W        W71489  13.771  16.755  11.552
 7733W        W71490  26.682  42.313   0.391
 7734W        W71491  24.116   6.312   3.674
 7735W        W71492  39.481  39.968   1.214
 7736W        W71493   0.476   5.198  14.953
 7737W        W71494  30.107  21.659   0.762
 7738W        W71495  23.189  39.842  12.987
 7739W        W71496   5.712   5.260  13.969
 7740W        W71497   8.279  37.468   1.710
 7741W        W71498   3.431  12.206  13.471
 7742W        W71499  38.855  10.372   4.319
 7743W        W71500   0.307  26.150  11.510
 7744W        W71501  27.068  19.197  12.942
 7745W        W71502  34.470  19.628   3.288
 7746W        W71503  18.292   0.292   1.754
 7747W        W71504  11.839  35.591   3.698
 7748W        W71505  22.094  21.679  11.122
 7749W        W71506  41.965   2.873  11.517
 7750W        W71507  31.122   1.944  11.384
 7751W        W71508  39.930  39.398   4.799
 7752W        W71509   6.901   6.349   4.775
 7753W        W71510  24.561  17.771   4.220
 7754W        W71511   8.387  10.317  14.824
 7755W        W71512  28.559   5.780  12.408
 7756W        W71513  41.039  40.519  10.577
 7757W        W71514  39.965   8.306  12.091
 7758W        W71515  29.571   9.834   1.357
 7759W        W71516  28.181  14.244  11.127
 7760W        W71517  29.070  25.622  12.356
 7761W        W71518  15.582   5.290  10.998
 7762W        W71519  26.497  28.591  10.930
 7763W        W71520  17.248  29.640   3.740
 7764W        W71521  27.091   8.897   1.225
 7765W        W71522  38.846   5.386   0.749
 7766W        W71523  18.117  18.637  12.052
 7767W        W71524  17.127  12.214  13.848
 7768W        W71525  25.583  27.558   0.390
 7769W        W71526  30.029  39.847  14.913
 7770W        W71527  19.113  39.895  12.954
 7771W        W71528  44.418   6.396  13.393
 7772W        W71529  27.016  40.939  11.597
 7773W        W71530  34.587  32.049   4.807
 7774W        W71531  21.530   7.277   4.660
 7775W        W71532  38.830  35.867   1.894
 7776W        W71533  30.996  16.294  13.868
 7777W        W71534  24.514  39.393  12.014
 7778W        W71535  32.491  10.860   0.944
 7779W        W71536   0.384   5.357   2.717
 7780W        W71537  16.274   5.415   0.473
 7781W        W71538  41.808  37.076  12.572
 7782W        W71539  12.781  19.736  12.514
 7783W        W71540  20.193  37.894   4.345
 7784W        W71541  11.373  29.560  10.618
 7785W        W71542  32.441   2.464  13.470
 7786W        W71543  40.870  44.875  13.871
 7787W        W71544  33.426  12.246  13.397
 7788W        W71545   0.318  15.328   3.358
 7789W        W71546   1.379  18.057   1.379
 7790W        W71547  12.149  31.934   4.191
 7791W        W71548  36.924  44.914   2.755
 7792W        W71549   2.870  38.504   2.419
 7793W        W71550   0.355  11.148   3.809
 7794W        W71551  11.170  28.138   2.745
 7795W        W71552  10.645  18.731  12.827
 7796W        W71553  43.411   3.908   1.699
 7797W        W71554  40.970  30.463   4.776
 7798W        W71555   1.415  41.957  11.052
 7799W        W71556  30.456  32.991   0.827
 7800W        W71557   7.806   2.909   2.704
 7801W        W71558  24.995  15.800   4.751
 7802W        W71559  27.621   1.912  10.570
 7803W        W71560  40.048  38.549   4.646
 7804W        W71561  25.161  11.172   3.806
 7805W        W71562  15.692  34.107   3.709
 7806W        W71563  16.800  41.382   1.697
 7807W        W71564   4.367  16.127   1.891
 7808W        W71565  13.206  12.268   3.743
 7809W        W71566  33.076   1.901  11.108
 7810W        W71567  26.701  44.993  13.412
 7811W        W71568  17.692  14.721  14.450
 7812W        W71569  36.867  14.249   0.861
 7813W        W71570  20.652  19.266  11.589
 7814W        W71571   1.855  32.557   3.743
 7815W        W71572  16.675  27.650   1.749
 7816W        W71573   7.764  22.110  10.502
 7817W        W71574  27.019  34.041   0.365
 7818W        W71575  16.750  13.182  12.452
 7819W        W71576  39.970  32.976   4.600
 7820W        W71577  29.616  34.025   0.790
 7821W        W71578  29.162  28.139   4.338
 7822W        W71579  29.522  26.980   4.183
 7823W        W71580   5.780  12.660  11.058
 7824W        W71581   3.779   6.306  13.439
 7825W        W71582  17.303   2.430   0.316
 7826W        W71583  31.525  28.612  11.576
 7827W        W71584  31.004  14.713   5.599
 7828W        W71585  18.087  11.649   0.828
 7829W        W71586  44.420  10.331   3.770
 7830W        W71587   0.306   5.783  14.339
 7831W        W71588  18.063  14.658  12.880
 7832W        W71589  44.312  39.416  13.978
 7833W        W71590  34.392  17.735  13.537
 7834W        W71591  26.999  29.010   1.279
 7835W        W71592   1.801   3.858   4.117
 7836W        W71593  16.190  10.368  11.965
 7837W        W71594  42.321  27.558   0.807
 7838W        W71595  37.506  26.560   0.950
 7839W        W71596  42.454  23.670  12.828
 7840W        W71597   5.866  16.283  11.500
 7841W        W71598  13.785  28.662  10.981
 7842W        W71599  16.132  33.454  10.103
 7843W        W71600  17.267  41.392   0.870
 7844W        W71601  34.886  17.730   3.804
 7845W        W71602  33.983  32.118  14.824
 7846W        W71603  17.790  22.090   3.733
 7847W        W71604   2.468  28.608  10.627
 7848W        W71605  41.015  29.086   2.848
 7849W        W71606   6.266  44.992   1.406
 7850W        W71607  26.592  22.233  10.544
 7851W        W71608  30.513  19.757  10.913
 7852W        W71609  14.167  24.654   2.282
 7853W        W71610   2.810  25.214  14.336
 7854W        W71611  38.348  30.570  14.288
 7855W        W71612  24.493  44.267   4.738
 7856W        W71613  19.680  11.824   1.892
 7857W        W71614   4.847  24.081  11.029
 7858W        W71615   7.788  17.186   4.153
 7859W        W71616  23.497  23.074  14.353
 7860W        W71617  42.417  23.071   2.781
 7861W        W71618  44.763   4.211   2.230
 7862W        W71619  25.537  18.260  14.317
 7863W        W71620  35.435  17.083   1.291
 7864W        W71621   1.814  44.292   0.330
 7865W        W71622  28.154   2.409   4.609
 7866W        W71623  10.764  16.801  14.012
 7867W        W71624  12.123  28.469  13.994
 7868W        W71625   8.820  19.272  10.408
 7869W        W71626  17.252  26.645  13.951
 7870W        W71627  13.657   9.826  13.932
 7871W        W71628  27.021   6.912  13.015
 7872W        W71629  10.278  12.227  11.969
 7873W        W71630  28.179  41.463  12.444
 7874W        W71631  21.685  34.478   4.152
 7875W        W71632   9.668  26.688   4.186
 7876W        W71633   5.231  34.612   3.836
 7877W        W71634  37.572  29.038  13.518
 7878W        W71635  25.638  34.494  10.948
 7879W        W71636  15.172  11.292  13.027
 7880W        W71637  25.167  29.579   3.659
 7881W        W71638   0.935  27.011   1.699
 7882W        W71639  43.968  12.802  14.330
 7883W        W71640  32.963  26.480   0.743
 7884W        W71641  27.681  19.650   4.825
 7885W        W71642  29.435   1.257  14.464
 7886W        W71643   0.450  22.033   2.350
 7887W        W71644  34.569  13.690   2.286
 7888W        W71645  35.078   7.669  11.559
 7889W        W71646  43.318  11.777   4.282
 7890W        W71647  37.831  36.069   1.333
 7891W        W71648  40.050  30.586   3.709
 7892W        W71649   2.844  10.239   3.268
 7893W        W71650  15.799  21.549  12.940
 7894W        W71651  37.570  27.068  14.415
 7895W        W71652  38.325  34.538  14.376
 7896W        W71653  32.902  15.141   0.357
 7897W        W71654   7.869   6.282  12.556
 7898W        W71655  36.890   8.688   1.431
 7899W        W71656  16.623   6.391   4.713
 7900W        W71657  41.896  34.546  13.372
 7901W        W71658  24.484  39.415   3.751
 7902W        W71659  13.801  37.063  14.986
 7903W        W71660  31.141  12.327  11.029
 7904W        W71661  13.268  36.065   3.280
 7905W        W71662  27.560   9.876   1.424
 7906W        W71663  30.577  30.454  10.973
 7907W        W71664  30.000  13.769   1.722
 7908W        W71665   1.402  15.636   1.780
 7909W        W71666   4.911  44.846  13.406
 7910W        W71667  10.719   9.268   4.342
 7911W        W71668  30.017  14.810   3.174
 7912W        W71669  14.230  17.125   1.342
 7913W        W71670  30.040  44.794   3.660
 7914W        W71671   9.830  43.819   0.350
 7915W        W71672  13.800  37.497  14.870
 7916W        W71673  44.872  36.487  11.585
 7917W        W71674  42.333  20.185  11.543
 7918W        W71675  39.922   9.197   4.612
 7919W        W71676  24.163  43.302  11.858
 7920W        W71677  43.816  17.765   2.789
 7921W        W71678  12.826  14.759  13.922
 7922W        W71679  25.986  35.081   1.712
 7923W        W71680  26.653  33.015  11.879
 7924W        W71681  34.922  34.556  10.964
 7925W        W71682  21.593  17.126  13.348
 7926W        W71683  15.239  13.154  11.959
 7927W        W71684  32.901  18.638  11.119
 7928W        W71685  17.566  36.908  11.513
 7929W        W71686  28.518  39.961  12.005
 7930W        W71687   6.798   0.453   3.346
 7931W        W71688  35.551  15.644   3.849
 7932W        W71689  20.553  43.987   0.737
 7933W        W71690  10.810  12.638  13.941
 7934W        W71691  28.576  30.919  14.357
 7935W        W71692   6.689   6.734  13.475
 7936W        W71693  25.194  17.102  14.493
 7937W        W71694  40.819  24.639  13.046
 7938W        W71695  35.104   9.679   2.684
 7939W        W71696  37.387  23.669  12.493
 7940W        W71697  22.058  15.144   4.144
 7941W        W71698  31.525  23.065  10.601
 7942W        W71699  39.429  29.428  12.094
 7943W        W71700   2.254   5.290  12.466
 7944W        W71701  23.605  10.188   3.757
 7945W        W71702  44.418  35.076  10.912
 7946W        W71703  44.778  32.128  13.319
 7947W        W71704  36.396  30.033  13.821
 7948W        W71705  32.116  14.651  14.473
 7949W        W71706  12.739  41.371  14.984
 7950W        W71707  11.320  24.635  13.872
 7951W        W71708  29.580  25.081   3.652
 7952W        W71709  26.607  42.388  13.871
 7953W        W71710  40.880  22.593  10.437
 7954W        W71711   1.945   1.473  13.469
 7955W        W71712  19.242  10.158  13.436
 7956W        W71713  29.095  10.221  14.942
 7957W        W71714  36.538   7.222   3.311
 7958W        W71715   4.945  18.760   2.220
 7959W        W71716  10.817  36.463   4.666
 7960W        W71717   1.379  16.101  12.915
 7961W        W71718  11.149   3.233  11.579
 7962W        W71719  18.630  13.784  11.876
 7963W        W71720  30.106   4.444   0.791
 7964W        W71721  15.660  32.449  11.972
 7965W        W71722  36.584  26.058  11.003
 7966W        W71723  17.198   0.440   4.236
 7967W        W71724   7.789  11.369   1.342
 7968W        W71725  28.981  25.997  12.996
 7969W        W71726  25.556  41.410   2.844
 7970W        W71727  34.400   6.757   0.904
 7971W        W71728  23.614  33.890   1.314
 7972W        W71729  19.747  35.052  14.850
 7973W        W71730  35.525  13.201   2.219
 7974W        W71731  21.680   3.932  12.449
 7975W        W71732  14.763  43.961  12.436
 7976W        W71733  26.630   8.357  13.928
 7977W        W71734  11.675   4.765  10.437
 7978W        W71735  10.145   7.392  14.347
 7979W        W71736  31.583  40.848   4.319
 7980W        W71737  28.642  24.662   2.220
 7981W        W71738  37.897   7.309  13.825
 7982W        W71739  14.726  18.264   1.358
 7983W        W71740  14.185  33.575   2.227
 7984W        W71741  21.710  42.827   1.824
 7985W        W71742  27.560  36.934   2.708
 7986W        W71743  19.239  10.353  11.472
 7987W        W71744  36.939  22.701   3.636
 7988W        W71745   9.784  16.293   5.277
 7989W        W71746  40.906  38.548  14.927
 7990W        W71747  34.445   5.724  14.348
 7991W        W71748   1.910  36.028   1.935
 7992W        W71749  30.593  36.576   2.381
 7993W        W71750  43.877  16.202   0.318
 7994W        W71751  40.443   4.729   3.329
 7995W        W71752  11.166  41.504  11.919
 7996W        W71753  41.953  34.975  12.345
 7997W        W71754   8.174  29.061   2.862
 7998W        W71755  38.983  34.068  12.064
 7999W        W71756  18.053  44.467  13.915
 8000W        W71757   5.916  18.693   0.333
 8001W        W71758  21.521  25.090  10.443
 8002W        W71759  32.440  26.144   5.286
 8003W        W71760  37.442  11.194   3.252
 8004W        W71761  23.154  21.536   2.219
 8005W        W71762  17.734  15.269  13.048
 8006W        W71763   3.715  21.749  13.958
 8007W        W71764  36.970   4.328  11.865
 8008W        W71765  40.872  22.225   3.766
 8009W        W71766  13.694  44.977  13.835
 8010W        W71767  38.426  24.199   2.178
 8011W        W71768  43.511  32.931   1.764
 8012W        W71769  20.528   3.217   4.254
 8013W        W71770  13.211  26.163   2.268
 8014W        W71771  23.642  42.345   3.255
 8015W        W71772  21.045  39.829  14.000
 8016W        W71773   6.428  15.744  14.398
 8017W        W71774  10.873  10.805  10.979
 8018W        W71775  39.809  27.129   4.202
 8019W        W71776   0.420  29.447  14.965
 8020W        W71777   6.273  34.113  13.422
 8021W        W71778  38.401   8.770  12.540
 8022W        W71779  30.419   5.724   2.761
 8023W        W71780   0.823  10.270  14.900
 8024W        W71781   7.211  24.007   3.282
 8025W        W71782   7.772  20.210  11.929
 8026W        W71783  34.868  35.057  10.552
 8027W        W71784  12.659  15.244  12.485
 8028W        W71785  16.694  22.603   0.375
 8029W        W71786  26.559  18.075  14.876
 8030W        W71787   7.718  44.498   1.258
 8031W        W71788  24.138  44.431  10.055
 8032W        W71789  12.312  37.360   1.815
 8033W        W71790  30.599   2.292  14.962
 8034W        W71791   5.925   3.420  13.792
 8035W        W71792  44.957  19.086  11.046
 8036W        W71793  37.490  20.617  12.043
 8037W        W71794  36.383  32.125  14.823
 8038W        W71795  28.617   4.932   1.371
 8039W        W71796   9.786  13.237  11.463
 8040W        W71797  37.457  42.825   1.771
 8041W        W71798  34.948  12.321   4.284
 8042W        W71799  13.106  14.178  11.582
 8043W        W71800  39.954  22.060   0.962
 8044W        W71801  39.811  38.996   1.808
 8045W        W71802  23.229   8.199   3.157
 8046W        W71803  42.296  29.962   0.943
 8047W        W71804  10.146   5.401  10.451
 8048W        W71805  12.338  41.989  10.437
 8049W        W71806  43.792  42.342  11.062
 8050W        W71807  43.413  16.073  13.535
 8051W        W71808  25.059  28.959  13.327
 8052W        W71809   3.235  28.605   1.768
 8053W        W71810  19.059  36.842  12.549
 8054W        W71811  20.733  38.066  11.588
 8055W        W71812  19.225   1.305  14.278
 8056W        W71813   9.199  33.126   2.747
 8057W        W71814  27.170   3.267  11.575
 8058W        W71815  23.162   6.308   1.334
 8059W        W71816  27.106  35.946   3.209
 8060W        W71817  14.717   7.684   4.284
 8061W        W71818  15.230  11.726   4.606
 8062W        W71819  11.643  28.103   2.705
 8063W        W71820   9.179  34.529   0.479
 8064W        W71821  32.628  35.996   2.298
 8065W        W71822  19.279   5.364   0.276
 8066W        W71823  22.588  21.210   5.086
 8067W        W71824   5.698  34.489  12.046
 8068W        W71825  29.147  40.408  11.559
 8069W        W71826  29.057  37.535   3.313
 8070W        W71827  10.281  10.293   3.795
 8071W        W71828  32.064  44.459  14.867
 8072W        W71829   2.256   9.781  12.573
 8073W        W71830  21.055  42.918  11.561
 8074W        W71831  38.570  23.999   4.816
 8075W        W71832   1.901  23.722   1.755
 8076W        W71833   6.913  29.443   0.275
 8077W        W71834  23.572  30.973   4.198
 8078W        W71835   4.923   3.234  13.412
 8079W        W71836   4.761  14.776  11.071
 8080W        W71837  40.523   6.730  13.492
 8081W        W71838  14.211   0.960   1.764
 8082W        W71839  15.719   5.220  14.512
 8083W        W71840   4.853  18.111   5.117
 8084W        W71841  16.271  19.118  14.364
 8085W        W71842  20.163   1.814   0.419
 8086W        W71843   1.408  14.255  11.449
 8087W        W71844   8.810  39.032  11.994
 8088W        W71845   4.713  29.573   4.674
 8089W        W71846  13.744  36.055  10.960
 8090W        W71847  35.442  23.684  11.866
 8091W        W71848   2.948  14.668  11.570
 8092W        W71849  34.539   7.262  11.019
 8093W        W71850  19.723  22.523  12.460
 8094W        W71851  11.862  36.425   3.164
 8095W        W71852   8.756  22.996   1.828
 8096W        W71853  33.030  36.407  11.974
 8097W        W71854  10.164   0.264   5.240
 8098W        W71855   8.280   1.306   2.247
 8099W        W71856   2.929  35.489   2.883
 8100W        W71857  11.739  32.586   2.206
 8101W        W71858   1.807  42.872   0.864
 8102W        W71859  26.671  27.585   1.342
 8103W        W71860  11.710  40.438  14.516
 8104W        W71861  23.155  32.885   4.819
 8105W        W71862   9.839   0.392   0.340
 8106W        W71863  35.927  36.442  11.891
 8107W        W71864  38.326   2.961   5.140
 8108W        W71865  19.682  19.121   3.736
 8109W        W71866   0.816  22.998  13.411
 8110W        W71867  12.153  21.097   0.870
 8111W        W71868   0.252   7.198  13.498
 8112W        W71869  39.989  39.477   1.827
 8113W        W71870   4.914  34.046  11.044
 8114W        W71871  16.682  26.134  14.777
 8115W        W71872  12.145  26.997  12.904
 8116W        W71873   9.341  26.671   2.730
 8117W        W71874   7.213  28.967   3.633
 8118W        W71875   3.404  12.820   1.866
 8119W        W71876  33.002  38.896   2.848
 8120W        W71877  26.655   9.218  11.511
 8121W        W71878   2.255   3.790   3.855
 8122W        W71879   9.835   6.330   1.363
 8123W        W71880  27.971  17.256   2.891
 8124W        W71881   2.382   1.256  14.275
 8125W        W71882  25.995  22.625  11.457
 8126W        W71883  12.702  31.121   0.811
 8127W        W71884   7.780  41.522  13.993
 8128W        W71885  40.039   3.806   2.305
 8129W        W71886  11.367  42.932   1.705
 8130W        W71887  24.714  16.186  14.978
 8131W        W71888  39.394  20.730   2.826
 8132W        W71889  42.969   2.273   2.730
 8133W        W71890  39.425   1.340  11.916
 8134W        W71891  21.055  32.471  12.352
 8135W        W71892  39.951  42.319   1.211
 8136W        W71893  10.703   0.273   2.839
 8137W        W71894  36.492   4.285  14.932
 8138W        W71895  30.090   8.777  14.501
 8139W        W71896   9.864  19.762  11.401
 8140W        W71897   8.257  33.908   3.778
 8141W        W71898  29.933  42.500  10.408
 8142W        W71899  18.595   7.863   5.303
 8143W        W71900  12.641  25.184   5.124
 8144W        W71901  35.465  13.306   0.446
 8145W        W71902  28.982  18.619   2.668
 8146W        W71903  31.120  39.495   1.711
 8147W        W71904   1.960  24.607   4.661
 8148W        W71905  26.126   0.325  12.452
 8149W        W71906   9.293   5.887  12.405
 8150W        W71907   2.798   2.286  11.387
 8151W        W71908   0.942  31.557  13.861
 8152W        W71909   0.473  20.274   0.420
 8153W        W71910  24.220  44.902   2.388
 8154W        W71911   3.259  39.008  10.137
 8155W        W71912  24.065  24.497  11.500
 8156W        W71913  43.399  24.115  13.007
 8157W        W71914  11.737  43.425  13.820
 8158W        W71915  19.710   7.757   0.313
 8159W        W71916  40.523  35.953   0.863
 8160W        W71917  15.137  27.057  14.857
 8161W        W71918  19.769  35.075   0.759
 8162W        W71919  16.715  25.521   4.731
 8163W        W71920  30.101  10.321  13.324
 8164W        W71921  30.065   9.723   2.707
 8165W        W71922  30.916  11.648   1.749
 8166W        W71923  22.739  26.164   3.151
 8167W        W71924  31.613   9.671   4.227
 8168W        W71925  32.594   9.203   1.258
 8169W        W71926   7.320   1.909  12.858
 8170W        W71927  35.595  24.057  12.826
 8171W        W71928  18.107  13.292  10.607
 8172W        W71929  27.519  16.604  12.085
 8173W        W71930  31.535  29.956   4.674
 8174W        W71931  36.448   0.984  14.801
 8175W        W71932  24.643  29.489   3.675
 8176W        W71933  34.540  23.629   1.296
 8177W        W71934  29.169  16.207   1.869
 8178W        W71935  43.333   4.257   4.645
 8179W        W71936  13.150  13.831  11.517
 8180W        W71937  41.381  19.773   0.834
 8181W        W71938  11.213   3.387   5.143
 8182W        W71939   3.912  19.268   3.257
 8183W        W71940  12.641   0.774   0.400
 8184W        W71941  44.458  12.616  13.357
 8185W        W71942   9.719  42.905   1.778
 8186W        W71943   0.354  19.587   4.150
 8187W        W71944  36.457   9.238  12.972
 8188W        W71945   1.831  42.395   4.785
 8189W        W71946  28.971  15.195   2.328
 8190W        W71947  29.061  12.782   4.620
 8191W        W71948  33.948   5.308  14.957
 8192W        W71949  28.114  44.793  10.600
 8193W        W71950  24.073  21.199  12.060
 8194W        W71951   8.744  25.546   4.618
 8195W        W71952  25.983   4.725  11.568
 8196W        W71953  15.250  38.064   1.731
 8197W        W71954  36.396  39.540   4.270
 8198W        W71955   1.741  34.380   2.262
 8199W        W71956  29.040  43.769  14.373
 8200W        W71957  13.119  19.676  12.051
 8201W        W71958  38.336   5.906  13.970
 8202W        W71959   8.198  23.615   3.252
 8203W        W71960  20.209  37.880   2.281
 8204W        W71961  25.997  14.781  12.870
 8205W        W71962   3.842  37.075  10.910
 8206W        W71963   0.973  11.787  14.943
 8207W        W71964   5.795  37.411  11.947
 8208W        W71965  27.120  21.067  13.420
 8209W        W71966  44.949  19.175  13.401
 8210W        W71967  22.558  10.787   0.869
 8211W        W71968   9.282   6.418  10.116
 8212W        W71969  34.579  11.842   2.856
 8213W        W71970  34.943  36.096   4.808
 8214W        W71971  27.017  33.979  13.820
 8215W        W71972  27.016  20.531   1.219
 8216W        W71973  16.110  42.448   9.553
 8217W        W71974   4.873  26.703   3.259
 8218W        W71975  38.985   6.414   4.326
 8219W        W71976  40.419  13.690   3.649
 8220W        W71977  34.918  19.722   1.368
 8221W        W71978  39.834  22.021   1.261
 8222W        W71979  21.206  23.595   3.755
 8223W        W71980  26.104   8.832   1.274
 8224W        W71981  24.692  12.133   4.187
 8225W        W71982  12.348  39.395   2.227
 8226W        W71983  11.142  33.499   4.600
 8227W        W71984   4.238  43.378   3.803
 8228W        W71985  39.456  39.354  14.978
 8229W        W71986  32.962  42.019   1.695
 8230W        W71987   2.909  37.894   4.350
 8231W        W71988  21.128   8.681  14.476
 8232W        W71989   8.358  38.388   3.222
 8233W        W71990  29.602  15.615   0.734
 8234W        W71991  14.800  43.014  14.905
 8235W        W71992  25.603   3.267  13.394
 8236W        W71993  11.321   8.322  11.055
 8237W        W71994  22.072   6.240   1.927
 8238W        W71995  36.072  18.621  13.918
 8239W        W71996  44.796  41.895   0.296
 8240W        W71997   8.241  27.451   4.163
 8241W        W71998  37.044  11.197  11.945
 8242W        W71999  18.138   5.224  10.998
 8243W        W72000  10.316  39.368   2.365
 8244W        W72001   7.240  36.874   2.785
 8245W        W72002  14.765  27.958  10.053
 8246W        W72003  14.719   7.410  12.022
 8247W        W72004  28.985   9.852  12.918
 8248W        W72005  17.799  12.619   2.678
 8249W        W72006  27.587  22.726   1.266
 8250W        W72007  14.307   3.712   3.817
 8251W        W72008  19.710  42.855  13.490
 8252W        W72009  25.527  23.084   0.779
 8253W        W72010   7.303   2.722   0.877
 8254W        W72011  17.214  32.545  13.343
 8255W        W72012  44.475  43.900  13.950
 8256W        W72013   6.182   3.427   3.303
 8257W        W72014  33.015   0.393   1.931
 8258W        W72015  33.555  36.016   1.788
 8259W        W72016  28.167  28.029  10.512
 8260W        W72017  11.711  26.077   4.609
 8261W        W72018  28.488  27.077   3.199
 8262W        W72019  28.166  26.521   0.335
 8263W        W72020  39.435  32.983   2.718
 8264W        W72021   4.719  42.294   1.393
 8265W        W72022  13.133  40.874  14.821
 8266W        W72023  24.006   9.338   4.745
 8267W        W72024   8.867  18.675   5.227
 8268W        W72025   9.194  22.587  10.919
 8269W        W72026  24.495   0.279   3.811
 8270W        W72027  44.000  35.857   0.944
 8271W        W72028   9.692  22.117  12.502
 8272W        W72029   4.841  30.003  13.368
 8273W        W72030  20.238  40.444  13.517
 8274W        W72031  25.532  11.250  11.432
 8275W        W72032  40.420  40.537  10.995
 8276W        W72033   0.306  18.242   3.341
 8277W        W72034  35.520  24.083   2.679
 8278W        W72035  36.550  44.987   1.363
 8279W        W72036  35.059  19.199   4.601
 8280W        W72037   7.400  12.243  12.515
 8281W        W72038  13.835   9.851   1.438
 8282W        W72039   7.774  10.356  10.961
 8283W        W72040  10.740  27.680  10.973
 8284W        W72041  11.722  32.413   0.433
 8285W        W72042  42.313  24.141   3.813
 8286W        W72043   4.740  35.520  13.368
 8287W        W72044   7.394  21.170   2.730
 8288W        W72045  42.313   1.275  12.035
 8289W        W72046   5.890   7.414   2.670
 8290W        W72047  23.096  26.685  14.361
 8291W        W72048  16.235  19.736   0.394
 8292W        W72049   5.874  32.571   4.158
 8293W        W72050   7.784  25.167  13.491
 8294W        W72051  28.501  38.562   1.736
 8295W        W72052  26.976  30.030  10.964
 8296W        W72053   9.683   1.363   0.468
 8297W        W72054  17.226  11.127  14.310
 8298W        W72055  25.186  37.946   2.726
 8299W        W72056  26.587  11.625  11.546
 8300W        W72057   0.831  41.508  14.401
 8301W        W72058   4.417  13.721  11.039
 8302W        W72059  41.858  24.492  11.906
 8303W        W72060  12.712   5.312  11.897
 8304W        W72061  37.861   8.317   2.764
 8305W        W72062  12.753  38.390   2.865
 8306W        W72063   9.727   4.904  13.348
 8307W        W72064  39.986   1.764  12.051
 8308W        W72065  40.467  15.717   2.702
 8309W        W72066  30.971  22.688  12.553
 8310W        W72067  40.396  23.037  11.931
 8311W        W72068  14.281  40.958  13.365
 8312W        W72069   2.937   9.277  12.963
 8313W        W72070  34.520  12.360  13.815
 8314W        W72071  23.609  32.481  10.563
 8315W        W72072  13.664  17.593   0.732
 8316W        W72073  38.535  35.945  13.368
 8317W        W72074   9.295  14.719  13.494
 8318W        W72075  16.214  22.104  13.864
 8319W        W72076  36.559  19.277   0.753
 8320W        W72077  42.908  41.330  13.419
 8321W        W72078  23.008  40.373   3.729
 8322W        W72079  21.751   4.401   2.293
 8323W        W72080  16.307  35.455  11.879
 8324W        W72081   2.275   6.294   3.763
 8325W        W72082  40.487  40.961   3.648
 8326W        W72083  25.976  31.913   3.674
 8327W        W72084  14.697  37.449   0.333
 8328W        W72085  11.204  38.427  14.868
 8329W        W72086  44.406  31.421   4.194
 8330W        W72087   4.889  31.909   5.305
 8331W        W72088  24.601   8.262   0.850
 8332W        W72089  37.926   4.440  13.935
 8333W        W72090  40.359  22.562   5.086
 8334W        W72091  41.024  44.486   3.348
 8335W        W72092  29.918  22.606   1.332
 8336W        W72093   1.431  24.662  12.959
 8337W        W72094  31.905  38.005   5.181
 8338W        W72095  27.123  13.315  14.350
 8339W        W72096  44.887   8.316  12.077
 8340W        W72097  25.110  14.715   1.302
 8341W        W72098  29.620   1.407   3.778
 8342W        W72099  43.973  13.842   4.791
 8343W        W72100   5.193  13.644   4.692
 8344W        W72101  26.535  23.182   4.261
 8345W        W72102  36.057  32.971   1.863
 8346W        W72103  23.006  19.039   0.454
 8347W        W72104  14.631  44.770   3.353
 8348W        W72105  21.732   8.381   4.212
 8349W        W72106  25.507  32.523  13.985
 8350W        W72107  16.086  23.670  13.400
 8351W        W72108  15.157  30.037   1.233
 8352W        W72109  19.271  37.866  12.449
 8353W        W72110  11.279  23.165  10.516
 8354W        W72111  35.363  30.557  11.952
 8355W        W72112  37.964  20.107  13.816
 8356W        W72113  39.888  42.316   0.481
 8357W        W72114  34.028  36.989  13.543
 8358W        W72115  27.618  21.656  14.954
 8359W        W72116  10.679  18.255   3.151
 8360W        W72117  39.329  29.436   2.264
 8361W        W72118  10.783  17.234   2.844
 8362W        W72119  41.406  40.371  12.558
 8363W        W72120  19.674  29.627   3.357
 8364W        W72121  22.020  36.560   1.423
 8365W        W72122  10.770  15.148  11.394
 8366W        W72123  24.639   5.912   4.826
 8367W        W72124  37.912  18.236  12.092
 8368W        W72125   7.257  43.279  10.526
 8369W        W72126  26.068  33.009  10.430
 8370W        W72127  36.348  27.486   4.700
 8371W        W72128  44.956  17.244  13.396
 8372W        W72129  40.446   0.254  12.017
 8373W        W72130  17.283   0.980  11.449
 8374W        W72131  26.978  13.147   1.792
 8375W        W72132  39.993  42.518  12.566
 8376W        W72133  34.877  15.726   1.221
 8377W        W72134  19.738  43.397   2.239
 8378W        W72135  27.636   2.864   0.939
 8379W        W72136  33.054   2.921   9.962
 8380W        W72137  32.015  27.139   2.830
 8381W        W72138  22.650   3.378   2.280
 8382W        W72139  15.704  43.348  12.027
 8383W        W72140  44.839  42.354  10.475
 8384W        W72141   1.747  25.704   3.668
 8385W        W72142  31.073   7.366  11.870
 8386W        W72143  25.199  29.978  14.925
 8387W        W72144   5.228  18.167   2.703
 8388W        W72145  33.390  13.737   0.399
 8389W        W72146  10.262  41.508  14.328
 8390W        W72147  20.692  13.716   5.127
 8391W        W72148  29.561   0.890  14.392
 8392W        W72149   2.875  38.359   2.837
 8393W        W72150   7.199  17.124  14.332
 8394W        W72151   5.281  41.367  11.503
 8395W        W72152  32.086  11.855   4.806
 8396W        W72153   4.216  32.087   4.191
 8397W        W72154  24.064  38.525   2.668
 8398W        W72155  37.975  21.552   0.877
 8399W        W72156  43.444  44.938   3.303
 8400W        W72157  18.764  36.953   1.213
 8401W        W72158  44.371  29.972  14.011
 8402W        W72159  10.140  26.519   1.875
 8403W        W72160  16.217  15.160  12.020
 8404W        W72161  11.825  37.979   3.295
 8405W        W72162  39.017  20.576  13.383
 8406W        W72163  37.921  42.895   2.214
 8407W        W72164   5.246  22.636  10.533
 8408W        W72165   0.280  41.799  11.904
 8409W        W72166  39.363   8.665  10.077
 8410W        W72167  21.695  28.596   2.346
 8411W        W72168   4.799  11.761   3.242
 8412W        W72169  19.259  43.444  14.867
 8413W        W72170  36.484  11.281  14.957
 8414W        W72171   1.904   3.872   5.119
 8415W        W72172   7.231  32.948   4.636
 8416W        W72173   4.255  29.978   2.301
 8417W        W72174  31.105  39.474   0.377
 8418W        W72175   8.667  13.210   2.228
 8419W        W72176  30.509  13.738  12.372
 8420W        W72177  20.604  13.807  10.945
 8421W        W72178   6.394  41.403   5.314
 8422W        W72179  34.406  17.639   0.866
 8423W        W72180  15.808   3.338  14.313
 8424W        W72181   2.734  13.149   0.432
 8425W        W72182   8.317  15.319  11.512
 8426W        W72183  19.128  31.614   1.747
 8427W        W72184  15.156  30.611   0.791
 8428W        W72185  26.481   1.396  11.971
 8429W        W72186  44.327   5.772  10.574
 8430W        W72187  24.092  29.035  14.761
 8431W        W72188  34.403  34.932   4.697
 8432W        W72189   8.705  10.765   3.839
 8433W        W72190   3.388  40.046  11.078
 8434W        W72191  23.196  16.645   4.134
 8435W        W72192  17.172  32.564   4.693
 8436W        W72193  29.503  33.039   1.877
 8437W        W72194  25.053  20.636  12.067
 8438W        W72195   0.371  22.572  12.511
 8439W        W72196  28.522  34.429   0.300
 8440W        W72197  15.749  41.493  13.477
 8441W        W72198  30.136   7.773  10.436
 8442W        W72199  23.214   6.804   2.680
 8443W        W72200   1.880  26.985  10.958
 8444W        W72201  15.324   0.361  11.000
 8445W        W72202  34.522  20.671   0.932
 8446W        W72203   7.220  26.122   3.265
 8447W        W72204  14.637  10.332   4.303
 8448W        W72205   6.817  37.958  13.057
 8449W        W72206  38.469  29.130  10.620
 8450W        W72207  30.560  27.957  13.832
 8451W        W72208  27.562  21.074  12.575
 8452W        W72209  23.190  30.469   3.335
 8453W        W72210  42.298  30.152   4.153
 8454W        W72211  11.860  22.232  12.923
 8455W        W72212   9.795  34.609  13.035
 8456W        W72213  15.789  42.407   1.828
 8457W        W72214  29.486  38.409   3.709
 8458W        W72215  35.367  17.732  10.969
 8459W        W72216   4.844  12.847   4.296
 8460W        W72217  15.188  16.744   2.358
 8461W        W72218  23.606  23.699   3.753
 8462W        W72219   4.739  18.229  11.119
 8463W        W72220  28.162   3.857   4.677
 8464W        W72221  35.604  30.111   1.711
 8465W        W72222   3.945   6.418  11.941
 8466W        W72223  27.091   9.318   4.152
 8467W        W72224   3.741  33.065   3.674
 8468W        W72225  40.353   8.198   4.315
 8469W        W72226   8.162   2.272   4.255
 8470W        W72227  34.925  10.174   4.278
 8471W        W72228   7.886  19.234  13.921
 8472W        W72229  44.862   2.233  12.557
 8473W        W72230  26.556  10.793  14.348
 8474W        W72231  25.170   4.898  11.475
 8475W        W72232   4.206  30.656  13.484
 8476W        W72233  19.272  18.570  13.896
 8477W        W72234  25.608  32.986   1.821
 8478W        W72235  36.465  38.823   9.998
 8479W        W72236  26.677  24.605  11.597
 8480W        W72237  11.327   5.367  13.412
 8481W        W72238   7.224   4.287   1.696
 8482W        W72239  26.135   7.792   4.817
 8483W        W72240  19.110  43.477  12.515
 8484W        W72241  37.454   8.261  13.447
 8485W        W72242  13.175  39.866  13.057
 8486W        W72243  40.391  37.522  13.842
 8487W        W72244  35.519  16.223   0.894
 8488W        W72245  35.516  43.458  10.435
 8489W        W72246  13.326   5.778   2.854
 8490W        W72247  24.057  20.217   0.792
 8491W        W72248  19.561   3.233  13.050
 8492W        W72249  22.088  38.427   3.169
 8493W        W72250  26.180  31.054   2.283
 8494W        W72251   9.843  33.884  14.503
 8495W        W72252  25.640  24.194   0.335
 8496W        W72253  32.991  32.433   3.697
 8497W        W72254  26.607  39.348   1.423
 8498W        W72255  28.622  34.597  11.896
 8499W        W72256  38.875  26.195  13.794
 8500W        W72257   6.294  25.517  12.033
 8501W        W72258  35.931  21.607   2.412
 8502W        W72259  24.501   7.322   1.755
 8503W        W72260  30.062  13.162   0.394
 8504W        W72261  36.977  35.523  11.967
 8505W        W72262  11.633  14.617  14.956
 8506W        W72263  33.970  30.165  14.499
 8507W        W72264  12.655  43.455  14.314
 8508W        W72265  11.186  25.104  12.895
 8509W        W72266  15.173  31.925  12.521
 8510W        W72267  38.395  17.624  13.023
 8511W        W72268  22.037  27.144   0.869
 8512W        W72269   3.872  14.208   1.737
 8513W        W72270  36.095  36.517  11.419
 8514W        W72271  27.185  21.131  14.934
 8515W        W72272  15.321  13.275   4.142
 8516W        W72273  20.738  24.615   4.269
 8517W        W72274  22.609  41.484   0.848
 8518W        W72275  30.094  37.581  14.016
 8519W        W72276  40.044   9.354   0.412
 8520W        W72277  21.514  24.489   0.781
 8521W        W72278  36.369  21.598  13.364
 8522W        W72279  38.517  33.012  11.590
 8523W        W72280   8.173  10.741  11.018
 8524W        W72281  25.148  31.006  13.480
 8525W        W72282   4.280  26.679  14.389
 8526W        W72283  17.248  33.093  10.894
 8527W        W72284  31.428   9.685  10.475
 8528W        W72285   8.759  29.516  10.567
 8529W        W72286  40.418  18.123   1.804
 8530W        W72287   7.813   9.814  14.446
 8531W        W72288   5.430  38.390  14.020
 8532W        W72289  17.307  29.994   1.903
 8533W        W72290  33.625  18.566   5.321
 8534W        W72291  18.294  42.890   1.803
 8535W        W72292   4.936   6.194   0.820
 8536W        W72293  18.058  23.990  12.084
 8537W        W72294   4.790  20.245   1.732
 8538W        W72295   1.763  34.095   3.166
 8539W        W72296   4.370  24.617  14.867
 8540W        W72297  41.865  10.677  14.939
 8541W        W72298   5.281  44.782  14.373
 8542W        W72299  18.089  22.091   3.331
 8543W        W72300  31.469   4.447   4.236
 8544W        W72301  43.493  43.299  12.415
 8545W        W72302  20.229   5.281  11.420
 8546W        W72303  15.732  22.011  13.922
 8547W        W72304   8.363  41.895  12.943
 8548W        W72305  10.155   2.460  10.997
 8549W        W72306  20.251  38.994   4.768
 8550W        W72307   6.343  25.693   3.811
 8551W        W72308   5.207   3.318   1.390
 8552W        W72309  43.923   9.811  12.393
 8553W        W72310   3.293   4.846  13.838
 8554W        W72311  19.090  11.232   2.735
 8555W        W72312   8.664   0.844   2.806
 8556W        W72313  10.669  37.088   1.354
 8557W        W72314  28.533  43.474   1.397
 8558W        W72315  21.521  39.040   1.900
 8559W        W72316  23.507  34.539  11.607
 8560W        W72317  37.532  44.778  13.953
 8561W        W72318  21.520   5.317  11.466
 8562W        W72319  14.226  38.939   4.229
 8563W        W72320  40.538   9.313  13.056
 8564W        W72321  34.080  35.586  11.515
 8565W        W72322  39.330   3.920   0.308
 8566W        W72323   7.907  29.653   3.292
 8567W        W72324  36.083   8.245   3.303
 8568W        W72325  28.080  20.197  14.952
 8569W        W72326   2.767  26.555  13.867
 8570W        W72327   2.963  22.129  14.413
 8571W        W72328  43.466  13.611   1.752
 8572W        W72329   3.428  13.215   4.153
 8573W        W72330   8.354  18.743   2.364
 8574W        W72331   1.761  11.341  13.315
 8575W        W72332  39.982  15.248  13.020
 8576W        W72333  39.810  12.283   3.273
 8577W        W72334  18.641  33.078   1.850
 8578W        W72335  19.278  24.556  12.020
 8579W        W72336  17.276   6.334   4.308
 8580W        W72337  44.352  11.792  14.297
 8581W        W72338  18.703   5.204  14.901
 8582W        W72339  20.737  40.915  12.365
 8583W        W72340  40.871  29.947  11.958
 8584W        W72341  31.932  12.238   3.176
 8585W        W72342  29.638  10.702   0.900
 8586W        W72343  26.021   2.323  14.794
 8587W        W72344   2.260  17.742  14.802
 8588W        W72345   3.380   0.272  12.414
 8589W        W72346   4.849  38.852   1.365
 8590W        W72347  33.587   4.268  13.031
 8591W        W72348  44.816  16.780  12.036
 8592W        W72349  42.997  39.921  13.336
 8593W        W72350  24.220   9.676  12.411
 8594W        W72351   4.304   2.780   3.295
 8595W        W72352  43.422  33.122   0.934
 8596W        W72353  27.680  10.187   1.773
 8597W        W72354  36.429  41.383   0.414
 8598W        W72355  34.922   3.432  12.482
 8599W        W72356  30.433  27.162   0.849
 8600W        W72357  28.955  38.460   3.726
 8601W        W72358  21.755   2.805  12.831
 8602W        W72359  34.946  22.624   2.734
 8603W        W72360  41.805  26.085  13.977
 8604W        W72361  12.277   8.277   3.167
 8605W        W72362  32.891   6.388   4.818
 8606W        W72363  38.965   4.388   5.594
 8607W        W72364  41.812  36.562  12.016
 8608W        W72365  38.512   3.404  13.485
 8609W        W72366  21.564  10.690   1.234
 8610W        W72367   6.781  19.039  12.854
 8611W        W72368   9.711   3.293  14.861
 8612W        W72369  42.975  41.833   0.881
 8613W        W72370   7.223  10.678   0.246
 8614W        W72371   8.236  21.691  10.901
 8615W        W72372  29.051  42.911  11.055
 8616W        W72373  15.287   1.934  12.494
 8617W        W72374  25.525   3.437   1.268
 8618W        W72375   6.394  31.976   3.663
 8619W        W72376  10.247  33.436   0.310
 8620W        W72377   4.214  35.393  11.499
 8621W        W72378  29.545  17.778   2.294
 8622W        W72379  28.099  12.275  11.528
 8623W        W72380  41.995  16.567  10.445
 8624W        W72381  17.092  24.523  12.561
 8625W        W72382  12.291  23.620   2.809
 8626W        W72383   3.221   7.366  13.940
 8627W        W72384  42.922  23.649  10.483
 8628W        W72385  27.198  16.568  14.437
 8629W        W72386  21.533  19.249   0.794
 8630W        W72387  32.592  22.162   2.328
 8631W        W72388  30.566  13.813  14.870
 8632W        W72389  27.649  35.601   3.268
 8633W        W72390  17.258  33.125   3.176
 8634W        W72391  11.742  18.242  12.498
 8635W        W72392   8.893   2.449   0.859
 8636W        W72393  34.979   0.962   0.457
 8637W        W72394   1.480  36.468  10.431
 8638W        W72395  23.663  19.212   3.240
 8639W        W72396   7.849  28.557  13.881
 8640W        W72397  26.515  36.447  12.400
 8641W        W72398  14.691  31.983   1.830
 8642W        W72399  16.224  16.212   2.870
 8643W        W72400  30.966  27.573  14.842
 8644W        W72401  19.276  21.079   0.792
 8645W        W72402  15.593  43.499   5.235
 8646W        W72403  15.242  44.467   1.814
 8647W        W72404   6.190  15.769  11.526
 8648W        W72405  24.222  13.731   3.198
 8649W        W72406   7.818  15.605   5.671
 8650W        W72407   3.356  41.806  14.978
 8651W        W72408  24.227  38.402   0.372
 8652W        W72409  14.154  26.197   1.898
 8653W        W72410  22.090  21.083   0.349
 8654W        W72411  19.157  29.994   1.366
 8655W        W72412  15.793  39.024  12.873
 8656W        W72413  13.705  26.690   4.768
 8657W        W72414  40.317   4.944  13.885
 8658W        W72415  37.407  26.585  11.917
 8659W        W72416  41.933  17.790   2.369
 8660W        W72417   7.677  15.638  14.791
 8661W        W72418  22.732   0.264  14.344
 8662W        W72419  29.099  19.768  12.342
 8663W        W72420  32.596  21.022  14.760
 8664W        W72421  38.963  29.575   0.261
 8665W        W72422  21.181  36.446   1.274
 8666W        W72423  27.192  20.566   5.098
 8667W        W72424  14.703  37.058   1.777
 8668W        W72425  44.378  37.863  11.012
 8669W        W72426  39.025   3.904   4.612
 8670W        W72427  40.839  24.992  13.041
 8671W        W72428  22.043  31.063   2.878
 8672W        W72429   6.356  23.671  12.919
 8673W        W72430  23.046  16.225  12.355
 8674W        W72431  36.527  29.451  10.580
 8675W        W72432   0.795   9.288   0.248
 8676W        W72433  22.068  28.604   3.196
 8677W        W72434  26.673  12.672  11.891
 8678W        W72435   7.727  34.594   3.816
 8679W        W72436   5.399   3.430   0.956
 8680W        W72437   1.951   9.890  11.535
 8681W        W72438  34.877  36.980   3.354
 8682W        W72439  40.833  24.510   3.656
 8683W        W72440  42.393  17.699  14.899
 8684W        W72441  11.151  35.869   0.876
 8685W        W72442  21.232  12.167   5.313
 8686W        W72443   8.238   2.846  14.877
 8687W        W72444  39.936  40.468   4.645
 8688W        W72445  11.717  33.128  11.936
 8689W        W72446   7.259  40.518  14.008
 8690W        W72447  24.040  44.996  12.972
 8691W        W72448   3.262  30.153  12.912
 8692W        W72449  18.559  44.802   2.875
 8693W        W72450   4.727  42.988  10.436
 8694W        W72451  33.123  25.639   5.783
 8695W        W72452  23.595  41.869  13.322
 8696W        W72453   5.403  18.290   1.753
 8697W        W72454  16.758   1.473  12.387
 8698W        W72455   1.258   2.294   2.730
 8699W        W72456  40.353   0.446  14.880
 8700W        W72457  36.857   1.766  14.953
 8701W        W72458  22.239   2.721   1.386
 8702W        W72459  33.568  22.735  10.545
 8703W        W72460  28.108   5.771   1.877
 8704W        W72461  28.574  31.067   4.337
 8705W        W72462  26.644  42.333   2.833
 8706W        W72463   9.772  42.840  12.908
 8707W        W72464  23.226  42.851   4.126
 8708W        W72465  27.546  18.749   3.336
 8709W        W72466   4.846  21.194   3.807
 8710W        W72467  34.467  17.257   4.198
 8711W        W72468  11.774   5.782  12.492
 8712W        W72469  17.063  36.442  13.990
 8713W        W72470  34.418   6.852  12.360
 8714W        W72471  35.091  14.689  10.571
 8715W        W72472  27.465   7.387   2.713
 8716W        W72473  30.579  30.431  14.294
 8717W        W72474  28.449  25.507  14.878
 8718W        W72475  31.031  25.023  14.981
 8719W        W72476  36.509  35.883  12.339
 8720W        W72477  34.505  14.340   3.811
 8721W        W72478   1.254  21.513  13.432
 8722W        W72479   2.468   5.882  11.894
 8723W        W72480  17.679  12.257  14.465
 8724W        W72481   1.317  10.269   1.742
 8725W        W72482   4.812  34.611   1.273
 8726W        W72483  18.296  42.286   1.868
 8727W        W72484  40.467  21.698   1.368
 8728W        W72485  44.947  29.962   0.888
 8729W        W72486  24.085  21.748   3.233
 8730W        W72487  36.954  11.812   4.353
 8731W        W72488  22.231   3.902   4.114
 8732W        W72489   5.304  21.629  12.001
 8733W        W72490  24.568  20.203   2.798
 8734W        W72491  38.372  24.498   1.277
 8735W        W72492  32.537  26.049   2.390
 8736W        W72493  22.730  38.495   4.283
 8737W        W72494   8.296   5.368  11.881
 8738W        W72495   3.771  24.999   0.449
 8739W        W72496  23.722  26.612  14.991
 8740W        W72497  29.004  41.813   4.827
 8741W        W72498  26.612  40.477   1.712
 8742W        W72499   9.692  23.140   4.826
 8743W        W72500  43.383  21.189  12.524
 8744W        W72501  15.107   1.313  14.832
 8745W        W72502  25.062  42.835   2.813
 8746W        W72503  38.487  15.117   1.916
 8747W        W72504  25.556  31.551  13.825
 8748W        W72505  20.672  20.671  11.008
 8749W        W72506  43.342  30.153   3.339
 8750W        W72507  18.731  13.210  14.797
 8751W        W72508   3.909   3.382   1.839
 8752W        W72509   8.364  32.559  14.885
 8753W        W72510   2.905  18.587  10.905
 8754W        W72511  35.886  35.598   2.676
 8755W        W72512  24.022   0.898  12.495
 8756W        W72513   2.323   1.896  11.597
 8757W        W72514  17.208  30.118   9.920
 8758W        W72515  39.953  23.633  14.364
 8759W        W72516   6.904  11.824  14.879
 8760W        W72517  12.702   5.297   4.288
 8761W        W72518  39.522  34.375   1.903
 8762W        W72519  18.568  44.402   3.378
 8763W        W72520  10.380   2.456  10.560
 8764W        W72521  24.556  16.718   4.286
 8765W        W72522  27.078   7.355   1.763
 8766W        W72523  22.646   9.759  13.798
 8767W        W72524  11.698  43.461   2.328
 8768W        W72525   9.378  23.573   4.233
 8769W        W72526  35.984   6.213   0.895
 8770W        W72527  10.170  33.471   3.338
 8771W        W72528   1.247  34.438   3.697
 8772W        W72529  33.440  20.242  10.535
 8773W        W72530  24.717  24.486  14.764
 8774W        W72531  29.099   2.267   3.701
 8775W        W72532  25.045  15.189  13.414
 8776W        W72533   7.732   0.478   0.752
 8777W        W72534  12.794  26.547   3.728
 8778W        W72535  23.139   2.454  10.980
 8779W        W72536  26.995  41.484   0.805
 8780W        W72537  36.093  36.904   4.615
 8781W        W72538  28.445   9.701   0.356
 8782W        W72539  43.358   4.718  11.592
 8783W        W72540   8.655  38.360   4.837
 8784W        W72541  37.390  43.975  10.013
 8785W        W72542   7.911  26.985  10.412
 8786W        W72543  22.045  44.919  12.007
 8787W        W72544  34.415  44.426  12.901
 8788W        W72545  29.449  32.908  13.923
 8789W        W72546   6.358  16.116  14.413
 8790W        W72547  34.605  15.769   4.623
 8791W        W72548  43.861  38.844  13.525
 8792W        W72549  41.519  25.612  10.601
 8793W        W72550  37.560  29.124  11.893
 8794W        W72551  42.811  10.356  10.572
 8795W        W72552  33.608  44.456   3.802
 8796W        W72553  36.878   9.765  10.486
 8797W        W72554  18.723  34.901   3.322
 8798W        W72555  16.119  15.231  10.589
 8799W        W72556   4.869  36.009   5.280
 8800W        W72557  26.487   5.919  11.897
 8801W        W72558   6.750   1.425  12.960
 8802W        W72559  44.417   3.338  11.542
 8803W        W72560   1.379   7.856  14.377
 8804W        W72561  19.252  26.023  10.959
 8805W        W72562  44.956  37.551   2.295
 8806W        W72563  38.420   7.775  14.763
 8807W        W72564  40.034  32.522   3.806
 8808W        W72565  21.263  28.057   0.886
 8809W        W72566  37.085  18.165  10.611
 8810W        W72567  11.225   8.871   4.318
 8811W        W72568  13.153   0.365   0.891
 8812W        W72569  29.530  38.341  14.767
 8813W        W72570  22.228  17.649   4.705
 8814W        W72571   8.792   7.171  14.502
 8815W        W72572  42.305  24.505   2.201
 8816W        W72573  24.568  31.136  14.504
 8817W        W72574   8.172  42.436   0.903
 8818W        W72575   1.818  28.445  13.981
 8819W        W72576  18.200  33.986  12.078
 8820W        W72577  13.703  11.662  11.595
 8821W        W72578  42.356  16.797   0.377
 8822W        W72579  44.998  35.093   1.395
 8823W        W72580   6.216  41.027   9.536
 8824W        W72581  12.294  26.514   2.193
 8825W        W72582  24.719  39.993  10.631
 8826W        W72583  25.638  17.194  11.397
 8827W        W72584  30.541  32.435   1.249
 8828W        W72585  24.577  41.820   0.923
 8829W        W72586   7.321   2.932   3.250
 8830W        W72587  27.493  18.075  13.361
 8831W        W72588   1.440  26.174   1.276
 8832W        W72589  32.441  32.433   0.444
 8833W        W72590  43.011  18.291  13.897
 8834W        W72591   4.286  44.874   1.246
 8835W        W72592  11.698  43.804   4.327
 8836W        W72593  30.104  33.088  13.045
 8837W        W72594   3.433  15.278   2.312
 8838W        W72595  12.151  35.079   3.362
 8839W        W72596  22.587  33.118  12.956
 8840W        W72597  35.059  40.504  13.865
 8841W        W72598  26.592  24.998  13.913
 8842W        W72599  11.800  14.597  14.021
 8843W        W72600   9.659  24.481   4.612
 8844W        W72601   2.848  32.500  12.095
 8845W        W72602  37.061   0.840   2.769
 8846W        W72603   2.826  43.462  10.497
 8847W        W72604   4.925  19.773   3.775
 8848W        W72605   0.774   4.289  14.459
 8849W        W72606   5.285  30.930   0.872
 8850W        W72607   2.726  22.600  10.440
 8851W        W72608   0.392  10.140  14.901
 8852W        W72609  11.205  12.743  13.380
 8853W        W72610   6.895  43.799   4.813
 8854W        W72611  17.287  24.049   5.139
 8855W        W72612  34.964   1.327  14.837
 8856W        W72613  24.006  20.541  10.605
 8857W        W72614  36.870  31.413   3.182
 8858W        W72615  18.193  37.923  10.543
 8859W        W72616  16.311   3.728   0.864
 8860W        W72617  13.755   8.327   2.262
 8861W        W72618  33.454  16.767   1.912
 8862W        W72619  38.443  41.957   1.913
 8863W        W72620  20.077  21.254   2.275
 8864W        W72621  35.398  10.260  13.932
 8865W        W72622  43.327  33.071   4.690
 8866W        W72623  11.281  24.064  10.630
 8867W        W72624  23.050  28.481  11.571
 8868W        W72625  37.975  23.669  11.551
 8869W        W72626  28.941  18.073   1.706
 8870W        W72627   2.295  24.061   3.850
 8871W        W72628  28.558  43.847   1.713
 8872W        W72629  22.082  13.300  12.962
 8873W        W72630  13.335  24.598  12.468
 8874W        W72631  27.054  20.719   2.869
 8875W        W72632   5.929  34.956  14.466
 8876W        W72633  16.701   9.296   2.811
 8877W        W72634  18.271  29.919   2.821
 8878W        W72635  19.740   0.747   3.374
 8879W        W72636  39.018  28.148  11.895
 8880W        W72637  43.343  39.028  10.938
 8881W        W72638  41.308   3.894   4.184
 8882W        W72639  13.732   6.843   4.766
 8883W        W72640   8.769  33.997  11.992
 8884W        W72641  24.174  10.679   2.256
 8885W        W72642  30.454  23.017  10.574
 8886W        W72643  30.519  27.183  11.378
 8887W        W72644   3.838  11.742   9.986
 8888W        W72645  30.079   7.765  14.446
 8889W        W72646   2.265   8.710   2.251
 8890W        W72647  42.829  29.065  11.903
 8891W        W72648  44.312  21.040  12.936
 8892W        W72649  32.921  37.854   0.825
 8893W        W72650  29.967   1.350   2.298
 8894W        W72651   5.425  30.159   0.843
 8895W        W72652  14.731  24.074  11.904
 8896W        W72653  29.603   6.305  12.070
 8897W        W72654  16.171  36.868   2.774
 8898W        W72655  11.696  39.000   2.312
 8899W        W72656  26.163  30.966   3.829
 8900W        W72657   7.216  27.174   0.753
 8901W        W72658   0.979  14.283  14.799
 8902W        W72659  24.083  25.058  12.851
 8903W        W72660  29.434  23.663  14.760
 8904W        W72661   3.395  39.946   4.123
 8905W        W72662  43.366  35.562   3.385
 8906W        W72663  44.809  35.540   4.257
 8907W        W72664  42.801  35.485   4.833
 8908W        W72665  25.658   4.401   1.277
 8909W        W72666  17.781  14.279   1.799
 8910W        W72667  29.517  28.132  11.121
 8911W        W72668  39.556  11.674  10.483
 8912W        W72669  39.428   4.242   3.669
 8913W        W72670  13.139  39.951  13.430
 8914W        W72671  23.580   0.851   4.620
 8915W        W72672  24.641  25.505   2.308
 8916W        W72673  42.836  33.590   5.219
 8917W        W72674  33.080  30.040  11.561
 8918W        W72675   6.354   5.757  13.959
 8919W        W72676  31.087  41.519   0.844
 8920W        W72677  35.536  32.061  14.844
 8921W        W72678  22.174   1.307  11.913
 8922W        W72679  13.743  14.719  11.970
 8923W        W72680  22.081  35.475  11.987
 8924W        W72681  44.447  11.243  12.963
 8925W        W72682  31.467  32.972  12.477
 8926W        W72683  18.669  10.209   4.157
 8927W        W72684  36.471  33.622  11.880
 8928W        W72685   0.906  15.723   4.600
 8929W        W72686  31.919  14.801   4.178
 8930W        W72687  20.170  18.232   2.250
 8931W        W72688   5.927  10.138   3.272
 8932W        W72689  42.480  17.237   3.824
 8933W        W72690   3.416  42.819  11.402
 8934W        W72691  39.926  17.629  14.291
 8935W        W72692  37.393  42.865  14.373
 8936W        W72693   3.291  20.556  13.926
 8937W        W72694   3.244  11.833   3.837
 8938W        W72695  42.902  33.574   0.326
 8939W        W72696  14.604  34.524  12.043
 8940W        W72697  29.459  43.850  12.910
 8941W        W72698  21.112  19.259   0.372
 8942W        W72699  40.829  11.724  13.407
 8943W        W72700  14.762   9.281   3.630
 8944W        W72701  11.262  11.685  10.458
 8945W        W72702  33.563  16.198   1.897
 8946W        W72703  19.114  43.858  10.543
 8947W        W72704   5.900  19.723   1.345
 8948W        W72705  44.769   7.363   0.445
 8949W        W72706  13.675  26.208  10.403
 8950W        W72707  43.277  36.936   3.154
 8951W        W72708  31.456  19.159  10.628
 8952W        W72709   0.769  22.503  11.107
 8953W        W72710  42.483  26.114  14.948
 8954W        W72711   1.968  34.528  14.933
 8955W        W72712  27.638  19.767   3.779
 8956W        W72713  44.400  33.946   4.335
 8957W        W72714  19.173   8.742   0.436
 8958W        W72715  36.370  26.589   1.864
 8959W        W72716  23.187  40.989  14.980
 8960W        W72717  32.939   1.284  11.466
 8961W        W72718   7.785  16.243  11.382
 8962W        W72719   9.221   0.470   9.981
 8963W        W72720   6.307  19.167   3.192
 8964W        W72721  24.515  36.487  11.438
 8965W        W72722  19.702  31.963  14.779
 8966W        W72723  31.111  21.561   0.932
 8967W        W72724  34.868  36.438  11.377
 8968W        W72725   0.962  24.601  13.903
 8969W        W72726   3.259  19.271  12.091
 8970W        W72727  36.876   9.879  12.533
 8971W        W72728  36.963  35.604   0.280
 8972W        W72729   7.877  13.687  13.485
 8973W        W72730   7.345  27.557  12.574
 8974W        W72731  24.527  29.012  10.899
 8975W        W72732  39.534  33.948  14.032
 8976W        W72733  37.462  23.151   1.721
 8977W        W72734  13.617   1.303   0.431
 8978W        W72735   9.872  28.578  13.042
 8979W        W72736  35.588   1.369   0.873
 8980W        W72737  44.392  21.067   1.219
 8981W        W72738  30.043  28.459   3.689
 8982W        W72739  17.068  39.914   4.636
 8983W        W72740  17.786   6.346  13.992
 8984W        W72741  28.525  20.178  13.407
 8985W        W72742  16.223   9.837   2.833
 8986W        W72743  36.402  33.922   4.769
 8987W        W72744  43.440  32.545  13.791
 8988W        W72745   0.465  17.229  10.498
 8989W        W72746  23.130   1.764   4.243
 8990W        W72747  28.576  26.479  11.891
 8991W        W72748  18.155   2.253  14.460
 8992W        W72749  26.049  31.586  13.314
 8993W        W72750  44.439   8.302   2.399
 8994W        W72751  12.350   6.757   1.705
 8995W        W72752  31.925  11.689  12.356
 8996W        W72753  33.091   6.423  13.021
 8997W        W72754   9.806  21.674  13.039
 8998W        W72755  31.506  19.671   0.464
 8999W        W72756  39.828  37.506  11.883
 9000W        W72757  25.974  43.956   3.678
 9001W        W72758   3.750  37.428  11.446
 9002W        W72759  41.838   0.770  12.461
 9003W        W72760  21.698  24.519   4.316
 9004W        W72761  44.356  40.383   5.198
 9005W        W72762  41.942   5.207  14.334
 9006W        W72763  26.055  15.640   9.545
 9007W        W72764   1.473  13.606  11.406
 9008W        W72765   2.939   8.204   3.647
 9009W        W72766  31.593  37.352  12.837
 9010W        W72767  21.137  35.962   0.260
 9011W        W72768   9.728  13.206   4.316
 9012W        W72769  23.655  24.557   9.959
 9013W        W72770  11.763  23.690   0.436
 9014W        W72771  35.073  10.252   1.783
 9015W        W72772  36.067  13.767   4.253
 9016W        W72773   0.927  11.671   4.354
 9017W        W72774  12.262  26.093  10.552
 9018W        W72775  23.155   0.303  12.374
 9019W        W72776  44.459  37.519  10.603
 9020W        W72777  35.904  28.123  11.917
 9021W        W72778   9.808  21.539  10.506
 9022W        W72779   6.234  33.074   0.459
 9023W        W72780  37.931  14.289  10.504
 9024W        W72781   7.832  33.023  13.403
 9025W        W72782  35.977  43.310   0.938
 9026W        W72783  40.333  14.338  14.921
 9027W        W72784  14.782   4.883  14.954
 9028W        W72785  17.299  16.253  13.904
 9029W        W72786   2.359  24.601  12.908
 9030W        W72787  23.134  10.832   4.720
 9031W        W72788  35.553  42.865  12.465
 9032W        W72789   5.437  37.408  12.433
 9033W        W72790  34.936  29.497  13.462
 9034W        W72791  35.023  41.322   0.374
 9035W        W72792  25.121   8.361   0.375
 9036W        W72793  19.635  32.888  13.382
 9037W        W72794  31.947  33.624  14.929
 9038W        W72795  10.244  15.720   9.966
 9039W        W72796  32.445  22.046   1.334
 9040W        W72797   5.295  29.126  11.519
 9041W        W72798  38.872  33.553   1.819
 9042W        W72799  44.344  27.060   3.729
 9043W        W72800  28.541  38.473   3.703
 9044W        W72801  27.982   0.921  12.033
 9045W        W72802  36.500  14.596  10.919
 9046W        W72803   2.352  39.924  11.539
 9047W        W72804  29.624  43.836   3.840
 9048W        W72805  35.365  28.090   4.811
 9049W        W72806   6.204  28.577  13.366
 9050W        W72807  23.553  27.037  13.455
 9051W        W72808   8.230  40.885   2.213
 9052W        W72809  15.298  37.529  12.998
 9053W        W72810  27.472  39.888  14.485
 9054W        W72811  44.356  16.259   3.315
 9055W        W72812  20.765  24.053  14.927
 9056W        W72813  32.937   0.935  12.001
 9057W        W72814   4.930  25.696  13.518
 9058W        W72815  10.777  32.482  11.957
 9059W        W72816  24.628  18.730   2.318
 9060W        W72817  43.287  32.615   4.684
 9061W        W72818  19.121  26.537  13.815
 9062W        W72819  17.108   1.863  14.284
 9063W        W72820  44.304  21.234   4.309
 9064W        W72821  24.166  34.996  12.051
 9065W        W72822   7.193  27.481  11.458
 9066W        W72823  34.592  20.736  14.482
 9067W        W72824   6.785  28.981   3.222
 9068W        W72825   5.856  28.561   1.352
 9069W        W72826  19.696  23.218  13.992
 9070W        W72827  12.788  33.075  12.006
 9071W        W72828  37.934  43.410  14.282
 9072W        W72829  31.585  17.252   4.782
 9073W        W72830  36.419  13.724   1.416
 9074W        W72831   4.825   9.767   4.205
 9075W        W72832   0.296  44.449   0.330
 9076W        W72833   2.947  22.670   2.872
 9077W        W72834  39.903  33.490  12.386
 9078W        W72835  39.425  12.221  10.481
 9079W        W72836   2.931   1.362   1.842
 9080W        W72837  16.299   6.824   2.857
 9081W        W72838  17.098   8.229  11.440
 9082W        W72839  35.472  19.640   0.770
 9083W        W72840  18.099   2.340  11.592
 9084W        W72841  36.475   3.323  14.999
 9085W        W72842  31.143  39.908   9.941
 9086W        W72843  37.397  24.150  13.536
 9087W        W72844  30.991  40.052   1.324
 9088W        W72845  39.923  19.133  14.964
 9089W        W72846  33.546   8.363   3.365
 9090W        W72847  17.115  10.756  14.439
 9091W        W72848   1.365   2.816   0.468
 9092W        W72849  31.943  29.054  13.510
 9093W        W72850   5.288   4.721   0.421
 9094W        W72851  16.079  21.580   2.321
 9095W        W72852   1.316   1.844  14.346
 9096W        W72853  39.404   1.975   5.669
 9097W        W72854  36.087  14.674   2.252
 9098W        W72855  20.054   7.709   0.365
 9099W        W72856  12.225  14.814  14.311
 9100W        W72857  40.415  10.776   2.666
 9101W        W72858  13.310   3.385  10.022
 9102W        W72859  16.314  22.158   4.250
 9103W        W72860   3.427  37.969   0.392
 9104W        W72861   9.777  33.542  10.599
 9105W        W72862  10.376  42.932   0.363
 9106W        W72863  41.997  25.550   2.417
 9107W        W72864   6.427  14.797  12.442
 9108W        W72865   0.292   9.818   0.256
 9109W        W72866  40.350  35.905  11.526
 9110W        W72867  41.333   9.715   2.371
 9111W        W72868  42.468  34.100  12.981
 9112W        W72869  44.314  27.973  13.797
 9113W        W72870   3.362   2.904  11.938
 9114W        W72871   9.836  36.542   3.804
 9115W        W72872  13.782  17.782  13.930
 9116W        W72873   1.316  12.785   1.255
 9117W        W72874   8.753  18.102   3.652
 9118W        W72875  36.985  10.253   4.116
 9119W        W72876  32.443   4.210   1.280
 9120W        W72877  37.071   5.793   1.395
 9121W        W72878  30.616  27.677  13.425
 9122W        W72879  18.581  38.331   4.335
 9123W        W72880  30.023  34.949   4.123
 9124W        W72881  32.069   2.408   4.824
 9125W        W72882  40.805  18.618   2.747
 9126W        W72883  14.143   5.826   4.191
 9127W        W72884  24.085   7.311  13.419
 9128W        W72885  11.206  28.653   0.426
 9129W        W72886  23.158  26.597   1.328
 9130W        W72887  30.610  21.738  13.471
 9131W        W72888  16.105   4.924   4.168
 9132W        W72889  42.842  28.656  11.512
 9133W        W72890  41.385  23.725   4.273
 9134W        W72891  10.755  36.572  11.111
 9135W        W72892   1.387   8.839  10.890
 9136W        W72893  29.974  28.645  10.997
 9137W        W72894  36.377  40.422   5.249
 9138W        W72895  37.935  31.494  12.888
 9139W        W72896  41.906  37.019   0.850
 9140W        W72897   3.367  26.080   3.283
 9141W        W72898  16.722  15.235  14.897
 9142W        W72899  22.509   9.177   0.410
 9143W        W72900  27.974  26.609   0.736
 9144W        W72901   5.356  26.505   2.845
 9145W        W72902  15.167   2.316  14.983
 9146W        W72903  38.422  36.465  11.944
 9147W        W72904   5.805   6.293  13.812
 9148W        W72905   0.813   5.207   3.852
 9149W        W72906  28.932  17.283   1.416
 9150W        W72907  35.363   3.317   0.869
 9151W        W72908  22.574   9.873   1.337
 9152W        W72909  22.624   0.372  13.015
 9153W        W72910  18.632  18.731   0.310
 9154W        W72911  41.010   2.857  11.078
 9155W        W72912  33.383  44.294   2.668
 9156W        W72913  21.253  10.732   0.399
 9157W        W72914  38.054   6.776   2.740
 9158W        W72915  20.206  21.516  10.501
 9159W        W72916  19.072  35.361   3.202
 9160W        W72917  26.516  17.253  13.952
 9161W        W72918  40.408  25.598   0.286
 9162W        W72919  20.180   9.654  12.490
 9163W        W72920  32.098   0.799   2.767
 9164W        W72921   0.772  10.819   0.778
 9165W        W72922  21.630  27.546  13.389
 9166W        W72923  22.137   8.888   2.416
 9167W        W72924  14.778  39.996  14.816
 9168W        W72925  21.139  36.907   0.337
 9169W        W72926  28.061  18.286  12.059
 9170W        W72927  31.950   6.722   0.385
 9171W        W72928  10.156  35.435  11.911
 9172W        W72929  33.575  12.717  13.314
 9173W        W72930   8.254   8.398  13.323
 9174W        W72931  12.660  35.560  13.938
 9175W        W72932  41.886  10.162  10.492
 9176W        W72933  43.948  43.449  12.570
 9177W        W72934  38.896  12.711  12.391
 9178W        W72935   2.747   2.343  10.914
 9179W        W72936  23.528   9.325  13.314
 9180W        W72937  17.595  38.413   3.323
 9181W        W72938  33.604   2.405   0.245
 9182W        W72939  15.084  26.034  13.021
 9183W        W72940   4.300  13.276   4.216
 9184W        W72941  31.024  40.943  10.943
 9185W        W72942  32.499  32.940  14.796
 9186W        W72943  31.983  20.109   5.166
 9187W        W72944  21.589   5.933   2.257
 9188W        W72945  11.181   8.763  13.393
 9189W        W72946  28.973  27.527  14.464
 9190W        W72947   8.319  44.759  12.035
 9191W        W72948   1.438  19.779   2.245
 9192W        W72949  17.114  11.373  13.357
 9193W        W72950  39.998  32.950   3.801
 9194W        W72951  18.659   7.281  13.521
 9195W        W72952  29.100   7.213  12.566
 9196W        W72953  11.336  27.669  12.952
 9197W        W72954  32.407  19.106  12.902
 9198W        W72955  22.556  42.502  11.492
 9199W        W72956  40.482   7.894  12.825
 9200W        W72957   7.355  39.946  13.412
 9201W        W72958  30.954  23.582   0.317
 9202W        W72959  10.851  40.373   1.794
 9203W        W72960   0.299   0.307  14.485
 9204W        W72961   7.353  20.577  14.511
 9205W        W72962   7.700  40.344  13.888
 9206W        W72963  13.169  22.121  11.092
 9207W        W72964  16.105  37.548  12.971
 9208W        W72965  27.549   5.895  14.960
 9209W        W72966  16.651  40.407   2.848
 9210W        W72967  15.620  29.134   4.147
 9211W        W72968  38.358  41.946  12.995
 9212W        W72969  21.578   5.901   2.893
 9213W        W72970  44.911   7.904   3.644
 9214W        W72971   3.352  11.812  13.309
 9215W        W72972   8.728  12.357  14.346
 9216W        W72973  44.954  22.187  14.928
 9217W        W72974   8.694   8.680   3.205
 9218W        W72975  14.175  38.832  13.812
 9219W        W72976   3.865  36.557   0.297
 9220W        W72977  27.455   8.380  14.862
 9221W        W72978  39.472  30.589   3.333
 9222W        W72979  10.280  28.483   9.984
 9223W        W72980  31.996   9.660  14.856
 9224W        W72981  10.307  18.710   2.771
 9225W        W72982  30.067  30.465  11.594
 9226W        W72983  41.519  42.328   0.332
 9227W        W72984   7.391  42.789   5.105
 9228W        W72985  20.611  33.934  12.892
 9229W        W72986  33.923  39.962   1.342
 9230W        W72987  13.237  32.109   5.086
 9231W        W72988  15.752   3.236   3.267
 9232W        W72989  36.924  13.128  14.008
 9233W        W72990  16.745   7.809  10.601
 9234W        W72991  23.612   7.798   0.389
 9235W        W72992  34.928  11.741   3.828
 9236W        W72993  43.420  15.598   9.951
 9237W        W72994  14.290  12.146  11.463
 9238W        W72995  38.512   5.783   3.327
 9239W        W72996  14.292  42.942   5.804
 9240W        W72997  34.376  38.900  10.541
 9241W        W72998  37.386  36.369   3.290
 9242W        W72999   9.703  25.167   0.923
 9243W        W73000  22.055  24.684  10.415
 9244W        W73001  27.985   9.653  10.566
 9245W        W73002  11.335  27.573  11.009
 9246W        W73003  32.960   2.943  12.476
 9247W        W73004  36.363   7.725  11.497
 9248W        W73005   6.191  22.527  13.928
 9249W        W73006  20.103  12.660   3.792
 9250W        W73007  28.132   6.399   1.830
 9251W        W73008  12.832  18.718  11.604
 9252W        W73009  23.658   9.191  11.555
 9253W        W73010  13.161   8.737   5.256
 9254W        W73011  20.644  27.163   4.203
 9255W        W73012  42.831  33.622   0.785
 9256W        W73013   2.835  20.081   1.697
 9257W        W73014   5.711  40.842   2.799
 9258W        W73015  21.680  38.421   3.788
 9259W        W73016  13.782  12.690   4.213
 9260W        W73017  34.084  26.057  12.987
 9261W        W73018  14.171  29.460  12.375
 9262W        W73019  14.607  24.114   3.697
 9263W        W73020  27.601  35.366  12.567
 9264W        W73021   3.859  27.601  13.481
 9265W        W73022  11.192  42.930   4.684
 9266W        W73023  16.089   9.228   3.287
 9267W        W73024  35.360   6.342  10.998
 9268W        W73025  34.390  30.082  12.396
 9269W        W73026  14.303  28.973  13.850
 9270W        W73027  13.266  12.116  13.932
 9271W        W73028  22.007  33.058   4.621
 9272W        W73029  32.489  38.879   2.789
 9273W        W73030  30.607  28.018   0.319
 9274W        W73031  29.641  25.531   2.209
 9275W        W73032  36.443  20.533  11.127
 9276W        W73033  21.590  31.998   2.725
 9277W        W73034   4.772  39.812   1.839
 9278W        W73035   3.411   9.712  14.313
 9279W        W73036  14.833   2.930   0.913
 9280W        W73037  24.018  37.490  14.321
 9281W        W73038   3.380  39.490  12.553
 9282W        W73039  12.238   4.869  11.962
 9283W        W73040  39.559  26.657  13.061
 9284W        W73041   6.206  33.582  11.041
 9285W        W73042  13.686  39.454   1.323
 9286W        W73043  43.438  25.073  10.415
 9287W        W73044   4.750   3.913  14.765
 9288W        W73045  12.116  25.049   3.784
 9289W        W73046  43.961  44.933   3.303
 9290W        W73047   2.770  40.451   0.339
 9291W        W73048   7.355   7.825  14.279
 9292W        W73049  25.203  34.442   3.719
 9293W        W73050  15.327  38.505   2.804
 9294W        W73051  42.398  37.904   2.862
 9295W        W73052  10.732  26.630   4.695
 9296W        W73053   9.877   4.282  10.421
 9297W        W73054  28.980   2.862  12.019
 9298W        W73055  25.071  24.050   2.809
 9299W        W73056   4.307  19.108   4.284
 9300W        W73057  17.190  13.760  10.976
 9301W        W73058  26.108   0.451   0.857
 9302W        W73059  12.273  39.542  14.313
 9303W        W73060  23.001  12.293  11.432
 9304W        W73061  19.187  28.159  13.431
 9305W        W73062  10.258  13.778  13.037
 9306W        W73063  35.395  26.087   0.445
 9307W        W73064   4.734  40.891   2.728
 9308W        W73065  27.590  29.611   4.312
 9309W        W73066  34.994  38.880  12.920
 9310W        W73067   9.799  24.553  11.461
 9311W        W73068   7.246  35.493   2.859
 9312W        W73069  17.592  35.444  14.386
 9313W        W73070  22.108  16.644   2.848
 9314W        W73071  41.999  14.738   3.749
 9315W        W73072   8.799  39.526   1.336
 9316W        W73073  39.822   5.371  10.627
 9317W        W73074  27.032  41.939  13.522
 9318W        W73075  19.255  22.072   2.237
 9319W        W73076   1.742  28.640  13.395
 9320W        W73077  29.445  23.715  10.055
 9321W        W73078  22.014  22.013   4.146
 9322W        W73079  22.223  36.505   2.391
 9323W        W73080  14.280  27.598  12.922
 9324W        W73081  29.455  42.319  13.063
 9325W        W73082  12.354  42.022   2.387
 9326W        W73083  17.214  12.812   9.958
 9327W        W73084  24.139  19.770   9.940
 9328W        W73085  25.136   0.379  11.430
 9329W        W73086  20.692  30.477   2.250
 9330W        W73087  22.248  11.318  10.611
 9331W        W73088  35.101  10.263   3.731
 9332W        W73089  42.905  13.828   0.375
 9333W        W73090  40.372   7.252   4.709
 9334W        W73091  39.521  19.709   1.438
 9335W        W73092   1.761  13.679  12.828
 9336W        W73093  26.076  15.193   1.862
 9337W        W73094  42.826   0.250  13.408
 9338W        W73095   8.271  29.986  13.321
 9339W        W73096   9.762  26.997   1.262
 9340W        W73097  37.465  15.605  14.341
 9341W        W73098  44.476  19.718   2.723
 9342W        W73099  30.013   2.389  10.895
 9343W        W73100   8.269  17.206   9.969
 9344W        W73101   7.848  18.717   1.314
 9345W        W73102  32.116  19.105   3.301
 9346W        W73103  21.645  18.703  14.427
 9347W        W73104  35.384  34.388  10.441
 9348W        W73105  29.449  22.508   5.187
 9349W        W73106  32.070   1.312  14.917
 9350W        W73107  34.510   5.718  10.645
 9351W        W73108  31.451  22.606   0.407
 9352W        W73109  11.634   9.383  10.530
 9353W        W73110  42.872  40.846   3.630
 9354W        W73111  16.750  36.878   4.747
 9355W        W73112  21.223  35.010  11.972
 9356W        W73113  26.476   8.707   1.774
 9357W        W73114  14.670  32.122   1.381
 9358W        W73115   4.233   3.713   4.614
 9359W        W73116  20.217  33.997  12.876
 9360W        W73117  23.109   9.273  11.478
 9361W        W73118  33.013  14.825   0.282
 9362W        W73119   0.826  22.242  12.863
 9363W        W73120  39.390  14.714  12.448
 9364W        W73121   4.268  13.829   1.816
 9365W        W73122  21.086  32.634   1.355
 9366W        W73123  17.661  44.488   1.819
 9367W        W73124  37.391  12.353   2.354
 9368W        W73125  19.734  37.477   2.753
 9369W        W73126  24.113  10.710  13.007
 9370W        W73127  43.283  19.158  12.413
 9371W        W73128   3.439  10.360   4.838
 9372W        W73129   6.263  34.925  13.824
 9373W        W73130  43.787  34.520   1.737
 9374W        W73131  27.485  38.512  14.777
 9375W        W73132  21.513  15.745  14.386
 9376W        W73133  31.084  38.900   1.451
 9377W        W73134   2.341   8.230  12.527
 9378W        W73135   2.923  14.278   2.317
 9379W        W73136   4.254  42.416   9.472
 9380W        W73137  34.034  29.120   2.334
 9381W        W73138  20.148  44.262   3.198
 9382W        W73139  20.638  28.448  12.844
 9383W        W73140  24.201  10.329   9.971
 9384W        W73141  30.001  20.628   3.809
 9385W        W73142  35.401  12.116  13.859
 9386W        W73143  30.010  43.892   0.297
 9387W        W73144  41.343  25.580   1.821
 9388W        W73145  21.225  30.011   4.228
 9389W        W73146  34.566   8.780   5.173
 9390W        W73147  44.963  11.856   4.772
 9391W        W73148  22.654   5.335  13.872
 9392W        W73149  11.144  11.133   3.172
 9393W        W73150  24.109  28.167   4.816
 9394W        W73151  32.619  40.477   1.285
 9395W        W73152   8.191  10.203  14.431
 9396W        W73153  25.498   8.815  10.133
 9397W        W73154  27.045  43.378  14.507
 9398W        W73155  30.629  16.095  10.893
 9399W        W73156  15.165  15.127  12.574
 9400W        W73157  16.611  20.716   3.226
 9401W        W73158  43.792  35.038   1.816
 9402W        W73159  10.170  20.090  14.304
 9403W        W73160  11.363  32.632  14.390
 9404W        W73161  31.487   2.740   9.615
 9405W        W73162  19.282   7.259  11.900
 9406W        W73163  30.006  43.902   4.752
 9407W        W73164   7.416  34.908   4.354
 9408W        W73165  14.629  39.382   3.801
 9409W        W73166  17.594  43.945   2.825
 9410W        W73167  31.149  38.548   3.771
 9411W        W73168   4.877  27.110  10.159
 9412W        W73169  13.119  36.577  14.369
 9413W        W73170  19.070  33.625   1.248
 9414W        W73171   8.816  22.124  13.494
 9415W        W73172  32.890  42.521   0.444
 9416W        W73173  24.556  30.542   4.164
 9417W        W73174  11.199  18.716   3.286
 9418W        W73175  15.197  37.857   1.418
 9419W        W73176   3.940  42.434   4.296
 9420W        W73177  24.680   0.486   0.287
 9421W        W73178  16.082  41.324  11.379
 9422W        W73179  44.465  29.962   2.874
 9423W        W73180  30.957  32.066  11.891
 9424W        W73181  33.016   7.369  11.881
 9425W        W73182  26.985  21.026  13.036
 9426W        W73183   0.810  22.010   3.852
 9427W        W73184  24.050  34.378  10.618
 9428W        W73185  38.874  43.483  14.314
 9429W        W73186  26.050   1.476  12.076
 9430W        W73187  13.198  15.617   1.790
 9431W        W73188  35.018   6.207   2.862
 9432W        W73189  23.608  24.196   2.742
 9433W        W73190  26.530   8.797  10.039
 9434W        W73191  19.113  18.252   3.784
 9435W        W73192  35.416  30.442  12.998
 9436W        W73193  38.429  35.079   2.355
 9437W        W73194  17.107  10.379   2.418
 9438W        W73195  34.959  24.181  13.042
 9439W        W73196  15.801  33.893  12.013
 9440W        W73197  41.964   5.723   2.851
 9441W        W73198  29.918   5.294   1.868
 9442W        W73199  32.595   1.814   3.827
 9443W        W73200  17.284  39.340  10.501
 9444W        W73201  16.314  26.985  11.578
 9445W        W73202  16.706  29.437   3.683
 9446W        W73203  11.656  19.758   0.383
 9447W        W73204  35.097  15.310   3.831
 9448W        W73205  34.442   7.294   2.784
 9449W        W73206  24.049  41.432  13.911
 9450W        W73207  29.437  11.146   4.650
 9451W        W73208  29.953   1.352   1.301
 9452W        W73209  19.248   8.306   4.714
 9453W        W73210  42.934  39.375   0.335
 9454W        W73211  20.641  31.911   1.815
 9455W        W73212  42.981  11.184   1.296
 9456W        W73213  18.099   8.684   2.875
 9457W        W73214   3.299  16.637  12.070
 9458W        W73215  10.671   5.354   4.149
 9459W        W73216  18.294  44.914   4.286
 9460W        W73217  39.985  35.554  14.412
 9461W        W73218  33.964  11.189   3.640
 9462W        W73219  10.739  17.181  14.963
 9463W        W73220  43.865   0.750   0.941
 9464W        W73221   3.883  10.687  14.881
 9465W        W73222   7.728  10.264  11.487
 9466W        W73223  35.424  20.249   3.147
 9467W        W73224  20.237  12.224   0.338
 9468W        W73225  23.623  20.274  11.500
 9469W        W73226  31.968  34.447  13.327
 9470W        W73227  16.639  21.689  12.069
 9471W        W73228  19.261   2.857   2.296
 9472W        W73229  33.449  18.293  11.899
 9473W        W73230  30.042  32.969  12.434
 9474W        W73231  12.276   5.748   4.623
 9475W        W73232  28.120  10.856  12.488
 9476W        W73233  20.677  11.661  12.881
 9477W        W73234  18.668  16.101   9.526
 9478W        W73235  16.197  31.987   1.400
 9479W        W73236  40.445  30.613   3.684
 9480W        W73237   9.755  24.119   4.764
 9481W        W73238   5.776  36.894   0.446
 9482W        W73239  32.923  37.005   3.636
 9483W        W73240   8.212  17.135  11.019
 9484W        W73241   4.420   9.865   3.194
 9485W        W73242  11.675  42.511   3.822
 9486W        W73243  39.822   4.280  11.376
 9487W        W73244  18.120   1.910  14.325
 9488W        W73245   0.926  22.741   0.922
 9489W        W73246  28.064  27.499   5.281
 9490W        W73247  24.109  26.074   1.747
 9491W        W73248   9.681   7.216   2.754
 9492W        W73249  28.149  21.652   3.256
 9493W        W73250  12.238  10.752   0.306
 9494W        W73251  12.839  19.568  11.555
 9495W        W73252  15.174   2.311  12.903
 9496W        W73253  26.528  37.989  12.352
 9497W        W73254  21.168  31.439  13.926
 9498W        W73255  25.086  35.490  11.996
 9499W        W73256   9.835   3.311   2.331
 9500W        W73257  24.484   6.298   0.445
 9501W        W73258  37.916  29.067  13.523
 9502W        W73259  29.548   0.436   3.658
 9503W        W73260  34.569  32.519  13.491
 9504W        W73261  15.642  29.112  12.905
 9505W        W73262  27.523  39.883  10.994
 9506W        W73263  36.999  24.998   0.730
 9507W        W73264   4.900  44.259   3.633
 9508W        W73265  12.842  40.834   2.265
 9509W        W73266  13.681   1.450  13.386
 9510W        W73267  30.976  18.211  13.359
 9511W        W73268  29.004  37.392   2.853
 9512W        W73269  21.234   7.770  10.505
 9513W        W73270  28.548   6.920   4.297
 9514W        W73271  35.956  27.014   3.663
 9515W        W73272  26.562  15.682   2.851
 9516W        W73273  44.757  14.606   1.701
 9517W        W73274  24.090  18.592  12.416
 9518W        W73275  23.108  16.166   1.225
 9519W        W73276   2.949  17.581  11.426
 9520W        W73277  31.105  36.555  12.078
 9521W        W73278   8.663  38.560   3.327
 9522W        W73279  35.908  39.888   0.479
 9523W        W73280  37.887  11.862   4.135
 9524W        W73281  39.942  21.749  12.483
 9525W        W73282  15.737  20.211   2.330
 9526W        W73283  39.062  27.596  14.766
 9527W        W73284  32.580  32.599  12.368
 9528W        W73285  22.103  32.478   2.179
 9529W        W73286  40.844  15.658  12.829
 9530W        W73287  21.558   4.773   3.754
 9531W        W73288  23.639  31.572   0.405
 9532W        W73289  33.382  34.542  11.431
 9533W        W73290   9.211  37.544   1.827
 9534W        W73291  11.696  33.591   2.346
 9535W        W73292  20.200  19.624   4.286
 9536W        W73293  10.699  24.225   3.180
 9537W        W73294  20.046  24.687   0.784
 9538W        W73295   5.278   5.910   1.769
 9539W        W73296  29.663  30.992  10.629
 9540W        W73297  13.717  23.174  13.954
 9541W        W73298  39.345   9.305   0.865
 9542W        W73299  14.776  16.158   0.425
 9543W        W73300  23.621  15.764   1.865
 9544W        W73301  36.547  31.973  13.438
 9545W        W73302  10.820  21.213   1.753
 9546W        W73303  40.487  32.127  10.087
 9547W        W73304  32.080  29.638  11.029
 9548W        W73305  27.977  13.669   0.733
 9549W        W73306  22.213   1.956  13.018
 9550W        W73307  29.010  36.528   2.826
 9551W        W73308  22.729   9.680  12.840
 9552W        W73309  27.660   6.270  13.328
 9553W        W73310   6.883  17.618   2.227
 9554W        W73311  29.493  22.557   2.679
 9555W        W73312   8.854  10.137  10.534
 9556W        W73313  27.557   7.229   4.773
 9557W        W73314   2.430  42.415   3.671
 9558W        W73315  40.938   9.814  13.477
 9559W        W73316  31.039   5.293   5.211
 9560W        W73317   4.884  35.935  13.928
 9561W        W73318  18.562  34.592  11.449
 9562W        W73319  44.982  38.466  13.052
 9563W        W73320  34.460  14.783  14.324
 9564W        W73321   6.359  18.099  12.004
 9565W        W73322  10.870  28.035   3.714
 9566W        W73323  16.073  17.593   0.272
 9567W        W73324  22.151  32.953  11.008
 9568W        W73325  33.104   8.265  12.491
 9569W        W73326  44.755   9.232  14.425
 9570W        W73327  40.799  23.659   3.834
 9571W        W73328  37.973  27.559  12.429
 9572W        W73329  15.191   0.965   5.123
 9573W        W73330  34.381   1.817   4.187
 9574W        W73331  33.505  10.225   1.770
 9575W        W73332   8.866  44.856  13.877
 9576W        W73333  37.544  24.641  11.951
 9577W        W73334   7.338  27.143   1.408
 9578W        W73335   3.424  35.992   1.929
 9579W        W73336   9.724  30.524   0.900
 9580W        W73337  27.600  36.964  10.502
 9581W        W73338  14.188  20.768   4.164
 9582W        W73339   2.310  24.100   2.388
 9583W        W73340  40.532  10.364   0.837
 9584W        W73341  16.266   6.892  13.461
 9585W        W73342   5.371   0.832  11.077
 9586W        W73343  15.591  43.477  12.980
 9587W        W73344   5.812  11.212   1.881
 9588W        W73345   1.968  44.949  11.436
 9589W        W73346  39.055  26.179  11.997
 9590W        W73347  23.208  34.418   3.179
 9591W        W73348  12.238  24.702  12.375
 9592W        W73349  13.339  11.165  13.803
 9593W        W73350  16.587  21.637  12.373
 9594W        W73351  37.086  37.393   1.744
 9595W        W73352  40.799   3.377  14.795
 9596W        W73353  19.622   9.193   4.721
 9597W        W73354   2.773  16.685  13.878
 9598W        W73355  21.113  37.898  10.969
 9599W        W73356  13.679  28.664   4.839
 9600W        W73357   9.886   5.337   0.359
 9601W        W73358  43.453   5.327   4.270
 9602W        W73359  44.444  18.573  12.092
 9603W        W73360  27.644   5.776  10.574
 9604W        W73361  22.168  32.131   3.183
 9605W        W73362   2.793  25.635   3.708
 9606W        W73363  33.561  42.329  10.890
 9607W        W73364  21.683  42.950   0.918
 9608W        W73365   3.417   4.311   0.422
 9609W        W73366  40.490  36.451   0.755
 9610W        W73367  14.654  28.088   4.178
 9611W        W73368  21.594   0.391   2.784
 9612W        W73369  29.560  24.219   3.674
 9613W        W73370  36.959   3.846  12.521
 9614W        W73371   4.287   7.709  13.400
 9615W        W73372  18.580  22.733  10.425
 9616W        W73373   8.878  20.618   3.386
 9617W        W73374  30.429  14.205   2.328
 9618W        W73375  39.986  39.388  11.492
 9619W        W73376  27.946  36.021   0.459
 9620W        W73377  18.764  13.643   2.359
 9621W        W73378  23.511  43.443  11.930
 9622W        W73379  11.733  20.166   4.171
 9623W        W73380  35.969  15.113  14.959
 9624W        W73381  28.967  21.649   4.823
 9625W        W73382  23.099  10.329  11.105
 9626W        W73383  12.201   1.441  13.526
 9627W        W73384  11.250  27.468   2.717
 9628W        W73385  39.325  34.513  11.451
 9629W        W73386  19.211  39.858   2.899
 9630W        W73387  12.283  15.211   4.205
 9631W        W73388  41.459   7.215  13.516
 9632W        W73389  24.634  24.011   0.386
 9633W        W73390  36.904  42.505   4.349
 9634W        W73391  35.418  12.806  12.961
 9635W        W73392   6.696  15.629  14.981
 9636W        W73393  30.923  11.809   4.194
 9637W        W73394  13.206  39.034   3.741
 9638W        W73395  43.016  26.992  13.318
 9639W        W73396   5.916  42.339   2.733
 9640W        W73397  37.855  42.338  14.445
 9641W        W73398   6.810  24.188   2.861
 9642W        W73399  40.362  19.653   4.730
 9643W        W73400  26.999  17.710  12.953
 9644W        W73401  27.004   5.731  12.053
 9645W        W73402  11.155  33.046   4.621
 9646W        W73403  10.181   1.878   2.246
 9647W        W73404  15.121  32.511  13.941
 9648W        W73405  14.104   8.733  12.498
 9649W        W73406  33.128  39.812  14.299
 9650W        W73407   1.371  30.987   3.838
 9651W        W73408   3.935   9.370  11.438
 9652W        W73409   5.198  33.501  12.510
 9653W        W73410  25.114  29.055   0.259
 9654W        W73411   6.789  42.865  12.000
 9655W        W73412   4.934  29.997   4.123
 9656W        W73413   3.259  36.490   3.761
 9657W        W73414   8.899   1.397   3.251
 9658W        W73415   1.826   1.431   1.857
 9659W        W73416  36.881  22.047  14.855
 9660W        W73417   4.254  17.085  14.022
 9661W        W73418  26.506  22.113   2.781
 9662W        W73419   9.758  34.434   4.227
 9663W        W73420  21.141  24.660   2.800
 9664W        W73421  38.059  38.045  12.012
 9665W        W73422  21.163  37.533   2.323
 9666W        W73423  18.685  17.115  11.117
 9667W        W73424   5.229  19.264   2.892
 9668W        W73425  10.685  14.766  11.031
 9669W        W73426  24.611  19.754   1.899
 9670W        W73427  19.648  37.078   3.868
 9671W        W73428  33.020  12.752  13.846
 9672W        W73429  43.512  34.503  11.861
 9673W        W73430   3.947   5.821  12.546
 9674W        W73431  27.489  42.340   4.798
 9675W        W73432  28.475  30.075   4.781
 9676W        W73433  12.848  20.683   0.910
 9677W        W73434  40.397  23.533   1.416
 9678W        W73435  26.984  37.422   2.732
 9679W        W73436   8.862   9.253  11.955
 9680W        W73437  14.274   9.268  10.625
 9681W        W73438  23.053  23.706  10.991
 9682W        W73439   1.347   8.310  14.358
 9683W        W73440  16.633  22.117   2.705
 9684W        W73441  36.076   8.398   2.393
 9685W        W73442  16.740  26.009  12.833
 9686W        W73443  27.031  27.683  14.309
 9687W        W73444  38.938   8.343   2.399
 9688W        W73445  31.052  25.601  13.821
 9689W        W73446  26.063  40.986   2.749
 9690W        W73447  35.553   4.221  14.812
 9691W        W73448   1.394  43.996   0.859
 9692W        W73449  21.664  41.967   3.815
 9693W        W73450  12.355  33.945  13.457
 9694W        W73451  14.315  37.344   3.158
 9695W        W73452  10.764   0.429   3.864
 9696W        W73453  36.855  19.200  11.874
 9697W        W73454  25.482  13.817   1.226
 9698W        W73455  12.634   3.810   3.830
 9699W        W73456  11.255  38.401   0.438
 9700W        W73457   0.916  18.241  14.955
 9701W        W73458   4.325  34.467   1.367
 9702W        W73459  40.995  38.491  12.095
 9703W        W73460   9.686   0.921   2.794
 9704W        W73461  17.644  11.797  13.484
 9705W        W73462  18.559  28.080  10.508
 9706W        W73463  28.959  35.524  12.449
 9707W        W73464  30.424  37.869  11.581
 9708W        W73465   3.745   6.893   2.345
 9709W        W73466   9.351   3.911   3.235
 9710W        W73467  12.703  23.650   0.313
 9711W        W73468  33.468   0.774  12.964
 9712W        W73469   5.722  19.128  10.521
 9713W        W73470   1.351  30.032   4.268
 9714W        W73471  42.894  16.283  12.944
 9715W        W73472  33.562  23.194  12.001
 9716W        W73473  30.438  19.170   2.811
 9717W        W73474  29.573  29.626   2.686
 9718W        W73475  41.797  33.946  13.419
 9719W        W73476  41.913  31.138   4.723
 9720W        W73477  31.452  30.911   2.331
 9721W        W73478  26.629  25.171   5.569
 9722W        W73479   8.785  44.763   0.429
 9723W        W73480  44.276  34.111   3.809
 9724W        W73481  41.535  29.455   3.345
 9725W        W73482   6.745  44.788   0.839
 9726W        W73483   8.394  27.689  11.938
 9727W        W73484  19.253  34.483  13.812
 9728W        W73485  38.418   8.774   0.316
 9729W        W73486  16.634  41.375  12.541
 9730W        W73487   2.789   6.277  11.924
 9731W        W73488   8.246   6.773   2.718
 9732W        W73489   6.838  33.882  13.992
 9733W        W73490  32.612  20.561  12.845
 9734W        W73491  13.804  36.563  14.015
 9735W        W73492   9.209  28.083  10.920
 9736W        W73493  11.815   5.224  14.930
 9737W        W73494  25.098  41.361  13.314
 9738W        W73495  24.558   0.360   4.721
 9739W        W73496  35.483  35.044  13.799
 9740W        W73497   7.740  44.413   2.183
 9741W        W73498  22.723  19.684  10.986
 9742W        W73499  44.306   2.235   4.620
 9743W        W73500   5.904   7.718   0.352
 9744W        W73501  37.954  28.042  14.987
 9745W        W73502  42.781   9.316   3.300
 9746W        W73503  11.324  41.795  13.852
 9747W        W73504   1.792  39.558  14.368
 9748W        W73505  10.637  44.409   2.225
 9749W        W73506  27.176  26.599   2.183
 9750W        W73507  39.958  33.405  13.315
 9751W        W73508  21.571  41.885   1.742
 9752W        W73509   5.863  27.953  14.319
 9753W        W73510   9.792  17.223  13.032
 9754W        W73511  12.819  34.480  12.419
 9755W        W73512  19.255  33.062   3.756
 9756W        W73513  33.042  23.633   4.720
 9757W        W73514  38.445   2.742   4.774
 9758W        W73515  29.001   2.943   5.220
 9759W        W73516  20.659  19.683  10.448
 9760W        W73517  39.041  29.109   2.892
 9761W        W73518  15.109  15.105   3.836
 9762W        W73519  39.937  19.577  11.549
 9763W        W73520  41.847  12.362   2.769
 9764W        W73521   8.217   0.955   0.420
 9765W        W73522   5.230   6.698   2.852
 9766W        W73523  13.842  12.200  13.512
 9767W        W73524  41.534  41.474   2.661
 9768W        W73525  37.401  11.264   3.786
 9769W        W73526  40.976   6.756   0.967
 9770W        W73527   0.802  23.017   3.828
 9771W        W73528  23.541  23.577   0.411
 9772W        W73529  36.450   2.382  13.415
 9773W        W73530  13.349  11.861  11.982
 9774W        W73531  40.452  15.263   4.710
 9775W        W73532  29.630  24.547   3.731
 9776W        W73533  20.735  27.594  11.389
 9777W        W73534  31.098  42.903  14.425
 9778W        W73535  19.778  23.567  12.032
 9779W        W73536  30.606  24.605  11.879
 9780W        W73537  18.759  37.367  14.479
 9781W        W73538  26.547   5.289   1.830
 9782W        W73539   2.405  44.316  14.301
 9783W        W73540  13.298   2.951   0.907
 9784W        W73541  30.975  43.998   4.706
 9785W        W73542  24.028  31.923  12.542
 9786W        W73543   6.229  32.124   2.356
 9787W        W73544  28.093   2.252   0.784
 9788W        W73545  14.269  22.580  10.559
 9789W        W73546  27.166   2.794  11.870
 9790W        W73547  20.534  11.844   1.287
 9791W        W73548  14.764  25.623   1.807
 9792W        W73549  28.613  20.700  11.019
 9793W        W73550   1.869  10.209   2.855
 9794W        W73551  17.605  29.941  11.899
 9795W        W73552  11.769  33.107  14.397
 9796W        W73553  29.620  15.719  14.978
 9797W        W73554  33.942   6.701  11.022
 9798W        W73555  20.721   0.435  14.803
 9799W        W73556  16.118  21.744   1.296
 9800W        W73557  21.041  32.502   2.301
 9801W        W73558  14.820  15.149  13.825
 9802W        W73559  19.149  19.725   0.475
 9803W        W73560   1.912  21.167  11.864
 9804W        W73561  40.476  28.972   2.724
 9805W        W73562  15.679  32.997   4.277
 9806W        W73563  41.019   7.327  13.426
 9807W        W73564  19.259  41.854   3.234
 9808W        W73565  15.698  25.568   5.102
 9809W        W73566  43.396  10.238   1.801
 9810W        W73567  13.323  27.955   3.379
 9811W        W73568  44.853  22.546   3.366
 9812W        W73569   0.405  21.163  13.323
 9813W        W73570   4.345  19.111  12.086
 9814W        W73571  26.505  10.735  13.055
 9815W        W73572  37.051  10.846   3.698
 9816W        W73573   3.237  12.638   1.297
 9817W        W73574  18.753  31.955   3.732
 9818W        W73575   5.702  27.648   3.374
 9819W        W73576  13.167  31.420  13.943
 9820W        W73577  11.209  12.166  13.923
 9821W        W73578  38.530  26.055   0.391
 9822W        W73579  37.495  25.201  13.442
 9823W        W73580  28.532  17.150   4.149
 9824W        W73581  23.233  13.325   1.216
 9825W        W73582   7.387   8.302   2.901
 9826W        W73583  37.973  21.662  13.057
 9827W        W73584   7.194   9.872   1.231
 9828W        W73585  38.958   4.227  12.545
 9829W        W73586  28.561  29.998   2.198
 9830W        W73587  21.217  15.620   2.347
 9831W        W73588   0.930  10.737  13.312
 9832W        W73589  17.232  13.814   1.273
 9833W        W73590  27.174   3.955   4.182
 9834W        W73591   1.867  31.443   2.273
 9835W        W73592  14.806  12.170   1.363
 9836W        W73593  37.916  11.198  12.080
 9837W        W73594  36.008  41.019  12.925
 9838W        W73595   2.943  40.481   2.872
 9839W        W73596   7.761   3.939   1.309
 9840W        W73597  19.658  31.433   3.792
 9841W        W73598  12.194  25.186   0.755
 9842W        W73599   2.962  30.164  12.026
 9843W        W73600   0.858   8.881  14.827
 9844W        W73601  37.074  25.602  12.073
 9845W        W73602  40.329  30.949   4.298
 9846W        W73603  33.466  24.647  11.028
 9847W        W73604   7.858  20.700   4.119
 9848W        W73605   8.806  14.592  14.487
 9849W        W73606  44.899  44.490   0.797
 9850W        W73607  25.687  23.087  11.413
 9851W        W73608  17.300  10.709  10.515
 9852W        W73609   0.469  29.144   2.345
 9853W        W73610  21.262  19.281  14.434
 9854W        W73611  36.051  13.236   0.781
 9855W        W73612   0.449  12.714  11.592
 9856W        W73613  29.470  34.515   2.849
 9857W        W73614  21.147   9.275   0.780
 9858W        W73615  38.974  20.062   2.191
 9859W        W73616  22.659  10.294  13.451
 9860W        W73617  14.335   4.231  11.901
 9861W        W73618  32.584  36.960  13.932
 9862W        W73619  13.622  42.456  10.010
 9863W        W73620  25.163   7.911   3.691
 9864W        W73621   7.225  42.856   3.163
 9865W        W73622  34.071  20.173   2.887
 9866W        W73623  43.396  15.264   0.371
 9867W        W73624   0.882  18.190  11.968
 9868W        W73625  24.061  41.943   2.886
 9869W        W73626  27.194   1.792  14.945
 9870W        W73627   0.811   6.189   0.868
 9871W        W73628  41.869  13.741   4.135
 9872W        W73629  17.072  44.997  10.977
 9873W        W73630  27.469  33.918   3.207
 9874W        W73631   9.286   8.849   9.990
 9875W        W73632  11.153  34.869   1.752
 9876W        W73633  38.915  17.117   4.261
 9877W        W73634  40.452  21.203  14.026
 9878W        W73635  15.635  22.006   4.257
 9879W        W73636  24.581  40.956   3.768
 9880W        W73637  18.118   5.271  13.812
 9881W        W73638  26.580   5.862  14.460
 9882W        W73639  32.920  22.637   0.804
 9883W        W73640  43.347  15.582  12.430
 9884W        W73641  27.022  19.143   1.737
 9885W        W73642  42.928   3.458  10.496
 9886W        W73643  33.518  17.072  13.816
 9887W        W73644  44.433  15.817   1.808
 9888W        W73645  13.163   9.722   2.825
 9889W        W73646  39.952   8.728  10.445
 9890W        W73647  32.111  29.169   4.638
 9891W        W73648  24.611  11.159   3.364
 9892W        W73649  28.669  18.199   2.733
 9893W        W73650  42.375  39.934  14.863
 9894W        W73651  20.163  43.873  12.360
 9895W        W73652  33.875  35.371  14.833
 9896W        W73653   1.256  16.085  14.377
 9897W        W73654  43.458  11.187  12.022
 9898W        W73655  32.934  20.050   3.798
 9899W        W73656  22.720  31.632   0.466
 9900W        W73657   2.748   1.904  12.033
 9901W        W73658  34.994   4.395  11.487
 9902W        W73659  11.250   4.772  14.028
 9903W        W73660  25.109  38.367   3.313
 9904W        W73661  22.646  20.534   1.798
 9905W        W73662   3.274  17.675   1.862
 9906W        W73663  26.669  31.438  13.413
 9907W        W73664  29.112  18.064  12.413
 9908W        W73665  36.516  30.035   4.179
 9909W        W73666  31.475  30.043  13.920
 9910W        W73667  12.355  43.882   2.317
 9911W        W73668   1.969  28.581  10.974
 9912W        W73669  35.081  35.854  10.066
 9913W        W73670   0.318   3.805  11.956
 9914W        W73671  36.446  39.996  11.113
 9915W        W73672  40.899  41.827  13.928
 9916W        W73673  38.947  27.111   2.692
 9917W        W73674   1.908  29.468   4.754
 9918W        W73675  30.548  39.356  14.932
 9919W        W73676  40.903   3.247   5.281
 9920W        W73677   8.316  31.549  10.469
 9921W        W73678  41.393   5.863  11.594
 9922W        W73679  27.051  18.182   0.854
 9923W        W73680   2.254   7.822  11.006
 9924W        W73681   3.909   1.356  13.968
 9925W        W73682   4.797  26.059   3.171
 9926W        W73683  13.122   9.235  13.330
 9927W        W73684  21.096   0.470   4.191
 9928W        W73685  12.701  41.040   0.903
 9929W        W73686  22.128  43.497   3.173
 9930W        W73687  24.120  31.111   3.652
 9931W        W73688  42.507  11.194   2.683
 9932W        W73689  29.144   9.682  14.992
 9933W        W73690   8.798  29.613   0.370
 9934W        W73691  33.047  22.681   2.767
 9935W        W73692  11.327  12.149   3.780
 9936W        W73693  12.815  22.574  11.531
 9937W        W73694  34.886  20.107  12.892
 9938W        W73695  24.078  13.172   1.290
 9939W        W73696   3.368  41.849   0.894
 9940W        W73697  37.393  10.645   4.618
 9941W        W73698  39.881  37.922  10.504
 9942W        W73699   2.374  39.825   3.850
 9943W        W73700   1.254  21.633   2.846
 9944W        W73701  39.335  12.801  13.999
 9945W        W73702  41.389  25.193  12.898
 9946W        W73703  28.587   2.901   1.833
 9947W        W73704  39.030  40.498  12.459
 9948W        W73705   5.911  43.425   0.728
 9949W        W73706  15.238  32.447  14.781
 9950W        W73707  32.541  13.327  14.893
 9951W        W73708  38.450   0.396  14.409
 9952W        W73709  29.974  42.014   3.856
 9953W        W73710   0.340   2.430  11.068
 9954W        W73711  41.863  29.648   1.389
 9955W        W73712  31.139  41.803   0.449
 9956W        W73713  28.527  20.708   2.407
 9957W        W73714  39.012  41.442   5.242
 9958W        W73715   5.228  33.621   1.904
 9959W        W73716  28.166  35.985  10.008
 9960W        W73717  26.062  15.699  12.373
 9961W        W73718  15.203  22.118  10.522
 9962W        W73719  34.481  12.777   3.691
 9963W        W73720  11.271  44.906  13.799
 9964W        W73721  14.207  25.091   4.235
 9965W        W73722  17.264  18.209  10.492
 9966W        W73723  31.433  40.009  13.795
 9967W        W73724   2.451  11.234  11.891
 9968W        W73725  36.581  13.693  13.518
 9969W        W73726  33.979  38.443   0.965
 9970W        W73727  22.191   8.405   2.229
 9971W        W73728  25.976  38.388  10.944
 9972W        W73729   6.692  41.364  11.592
 9973W        W73730  11.191  18.239   2.900
 9974W        W73731   4.786  41.464  12.455
 9975W        W73732  37.914  37.429   1.886
 9976W        W73733   4.810  17.242   4.668
 9977W        W73734   8.325  23.190  13.509
 9978W        W73735   4.779   3.445   4.757
 9979W        W73736  36.086  35.956   3.651
 9980W        W73737  38.829  10.272   2.323
 9981W        W73738  32.981  19.655  14.815
 9982W        W73739   2.942   1.794   3.208
 9983W        W73740  24.181  30.116  13.893
 9984W        W73741  33.026  17.252  10.990
 9985W        W73742   0.952  43.978  11.912
 9986W        W73743  19.735   9.194  14.002
 9987W        W73744  31.939   3.800   3.803
 9988W        W73745   9.382   4.777  11.380
 9989W        W73746  16.090  17.088   0.745
 9990W        W73747  19.625  35.881  11.096
 9991W        W73748  40.459  22.667   4.199
 9992W        W73749  29.612  12.631   2.272
 9993W        W73750  18.572   6.222  14.314
 9994W        W73751  19.055   9.376   4.612
 9995W        W73752   9.852  33.940  10.577
 9996W        W73753  27.487  13.678  14.482
 9997W        W73754   4.345  42.438   1.907
 9998W        W73755  29.156  40.536   2.282
 9999W        W73756   9.368  35.087  12.032
10000W        W73757  44.478  36.584  14.478
10001W        W73758  16.112  43.318   1.829
10002W        W73759  19.617  27.064  14.873
10003W        W73760  17.661  33.502  11.877
10004W        W73761  23.065  19.597   3.632
10005W        W73762  44.474  24.659  13.817
10006W        W73763   8.345  16.570  10.135
10007W        W73764  40.891  29.513   2.360
10008W        W73765  12.728  11.799  11.040
10009W        W73766  28.988  44.870  13.001
10010W        W73767   3.347  11.701  12.888
10011W        W73768  11.640  23.142   2.232
10012W        W73769   2.321  34.372  12.493
10013W        W73770  25.503  44.369   3.847
10014W        W73771   8.890  34.480   3.284
10015W        W73772  36.517  13.216   1.256
10016W        W73773   7.814  26.152   2.190
10017W        W73774  23.013  44.478   0.363
10018W        W73775  35.941   9.283   1.225
10019W        W73776   8.301  28.974  12.464
10020W        W73777  15.636  14.834  10.570
10021W        W73778   2.370   3.340   0.944
10022W        W73779  23.165  44.974   4.243
10023W        W73780  13.828  10.270   2.191
10024W        W73781  37.972  18.150  14.982
10025W        W73782  36.923   4.782   3.238
10026W        W73783  38.936  30.478  13.027
10027W        W73784  18.113   4.282   0.265
10028W        W73785  16.179  22.070   1.350
10029W        W73786  16.595  25.201   4.177
10030W        W73787   7.766  11.346  14.418
10031W        W73788  29.518  26.532  14.343
10032W        W73789   9.308  15.302  13.061
10033W        W73790  44.407   4.313   3.805
10034W        W73791  11.328  36.933  10.510
10035W        W73792  11.741  40.425   3.830
10036W        W73793  13.336  41.512   0.832
10037W        W73794  43.355  25.020  14.886
10038W        W73795  18.100  26.620   2.224
10039W        W73796  11.289  26.158  13.524
10040W        W73797  27.574  35.492  11.004
10041W        W73798   8.218  40.847   0.396
10042W        W73799  38.831   7.403   2.739
10043W        W73800  18.082  38.338   2.756
10044W        W73801   1.253  13.130   1.798
10045W        W73802  24.164   5.885  11.883
10046W        W73803  29.105  27.496   0.440
10047W        W73804  11.731  30.922  12.879
10048W        W73805  22.018  16.273   4.116
10049W        W73806   2.932  38.359   0.406
10050W        W73807   4.440  18.684   1.396
10051W        W73808  40.361  14.681   1.299
10052W        W73809  28.637   0.748   3.212
10053W        W73810  20.720   8.875  14.277
10054W        W73811  42.369  31.630   4.282
10055W        W73812  30.146  37.915  11.125
10056W        W73813   0.892  30.585   4.718
10057W        W73814   3.788  15.323  12.474
10058W        W73815  27.458   2.862  11.545
10059W        W73816  40.333  23.078   0.267
10060W        W73817  29.966  11.830   0.319
10061W        W73818  28.453  26.114  12.077
10062W        W73819  43.306  37.544  14.867
10063W        W73820  17.206  25.101  13.047
10064W        W73821  30.640  26.959  12.387
10065W        W73822  37.871  28.977   4.616
10066W        W73823  13.651  21.665  11.040
10067W        W73824  14.106  43.394  13.050
10068W        W73825  23.636  39.473  12.499
10069W        W73826  34.534   0.438  12.011
10070W        W73827  21.736  17.239   4.316
10071W        W73828  13.182   7.811  14.466
10072W        W73829  17.307  10.210   1.255
10073W        W73830  31.938  21.538  11.465
10074W        W73831   7.734   1.397  14.805
10075W        W73832  15.103  33.415   1.280
10076W        W73833   3.865  30.519  10.142
10077W        W73834  29.060  37.006  14.474
10078W        W73835  31.899  37.981  12.091
10079W        W73836   3.279   0.795  11.047
10080W        W73837   4.248   9.264   1.794
10081W        W73838   0.917  13.334   5.106
10082W        W73839  30.451  37.886   1.834
10083W        W73840  36.591   6.818   4.137
10084W        W73841  10.291  42.941  11.382
10085W        W73842  19.125  24.073  13.987
10086W        W73843  41.474  22.667   2.688
10087W        W73844  17.166  18.160   0.470
10088W        W73845  43.888   1.854  13.996
10089W        W73846  13.236  19.172  12.061
10090W        W73847  31.590  35.527  14.829
10091W        W73848  25.028   9.156   3.290
10092W        W73849  16.587  28.141  13.884
10093W        W73850  35.892  16.734  10.979
10094W        W73851  21.201  31.936   1.342
10095W        W73852  28.019   3.268  12.535
10096W        W73853   2.344  20.569  13.935
10097W        W73854   8.860  24.031   0.941
10098W        W73855   2.840  42.020  10.938
10099W        W73856  24.077  29.006  14.307
10100W        W73857  24.593  24.623  11.428
10101W        W73858  31.426   3.799  11.600
10102W        W73859  18.063  40.343   4.734
10103W        W73860  24.002  44.815   0.906
10104W        W73861  27.983  17.565   1.344
10105W        W73862  15.618  18.546  12.548
10106W        W73863  41.381   3.762   3.781
10107W        W73864  19.058  26.622  12.458
10108W        W73865  25.010  39.441  12.576
10109W        W73866  38.480  13.273   2.762
10110W        W73867  21.619   1.848   0.837
10111W        W73868  21.741  24.626   0.368
10112W        W73869  44.495  30.521   2.353
10113W        W73870  35.388   1.335  13.965
10114W        W73871  11.708   6.273  12.444
10115W        W73872  42.939  37.566  14.813
10116W        W73873  37.459   3.778   4.320
10117W        W73874  13.754   6.732  14.999
10118W        W73875  41.360   6.758  12.087
10119W        W73876  30.114   7.795   4.766
10120W        W73877  10.731  39.456  10.470
10121W        W73878  40.021  31.097  11.875
10122W        W73879  12.295  12.675  10.416
10123W        W73880  30.493  15.780   2.789
10124W        W73881  42.427  24.491  10.928
10125W        W73882  36.374  29.543   0.928
10126W        W73883  14.612   3.769   4.632
10127W        W73884  32.888  39.540   0.262
10128W        W73885   0.771  34.984   2.377
10129W        W73886   6.365  23.166  10.515
10130W        W73887   7.272  37.957  12.511
10131W        W73888  12.197   9.849  11.472
10132W        W73889  42.861  41.312  10.535
10133W        W73890   1.888   8.390   3.201
10134W        W73891  40.847  44.285   2.737
10135W        W73892  34.935  19.200  11.975
10136W        W73893   9.346   8.168   4.663
10137W        W73894  27.633  14.658  11.568
10138W        W73895  23.012  15.136  14.905
10139W        W73896   7.809  23.614   2.676
10140W        W73897  26.671  44.349  12.532
10141W        W73898  34.592   8.711  12.483
10142W        W73899   5.761  29.157  12.370
10143W        W73900  33.039   8.680   2.733
10144W        W73901  26.690  31.978   4.334
10145W        W73902   9.246  19.177  12.089
10146W        W73903  12.169  10.714   4.810
10147W        W73904  16.787   0.948  12.503
10148W        W73905   0.281  11.831  11.505
10149W        W73906  20.192  15.716   4.606
10150W        W73907   5.821  15.140   2.303
10151W        W73908  13.223  13.314   0.328
10152W        W73909  36.852  26.111  12.884
10153W        W73910  11.301  41.926  12.943
10154W        W73911  40.530  18.127   4.153
10155W        W73912  14.136  17.199   3.369
10156W        W73913   8.658  24.547  11.892
10157W        W73914  43.874   6.361  13.976
10158W        W73915  26.563   1.373  13.355
10159W        W73916  25.018  14.820   2.828
10160W        W73917   4.742   4.720  14.023
10161W        W73918  27.961  31.643   3.672
10162W        W73919  37.357  14.637   4.687
10163W        W73920  35.500   7.296   1.892
10164W        W73921  25.207  35.364  12.870
10165W        W73922  29.429  11.795   0.394
10166W        W73923  10.640   2.950  10.490
10167W        W73924  10.879  31.050  11.562
10168W        W73925  36.427  29.137  12.879
10169W        W73926  28.552  37.013  10.994
10170W        W73927  34.879   6.363   2.396
10171W        W73928  38.993  11.771  14.820
10172W        W73929  27.679  21.727   1.370
10173W        W73930  30.496  23.529  12.574
10174W        W73931  22.695  14.706  14.482
10175W        W73932  35.946  39.993   3.696
10176W        W73933  11.725  34.928  13.003
10177W        W73934   3.905  23.663   4.343
10178W        W73935  32.005  40.389  14.371
10179W        W73936   6.336  20.676  12.086
10180W        W73937  32.021  35.013   4.615
10181W        W73938  19.702  38.964   4.651
10182W        W73939  25.691   4.784   4.318
10183W        W73940  21.719   4.381  11.076
10184W        W73941  41.456  13.614   3.256
10185W        W73942  39.463  26.465   0.423
10186W        W73943  29.480  44.917   1.343
10187W        W73944   9.193  38.908  13.901
10188W        W73945  23.684  35.994   3.261
10189W        W73946   6.384  32.605  14.409
10190W        W73947  15.093  35.512   1.435
10191W        W73948   2.263  17.772   3.636
10192W        W73949  28.601  13.141  12.057
10193W        W73950  43.305  13.337  13.876
10194W        W73951  44.893  16.173   3.854
10195W        W73952  33.070  32.458  11.376
10196W        W73953  38.564  22.186  14.874
10197W        W73954  35.944  25.579   2.795
10198W        W73955   8.733  25.674  10.987
10199W        W73956  41.849  30.969  13.990
10200W        W73957  43.838  12.669  13.863
10201W        W73958  13.675  41.889   3.291
10202W        W73959  15.816  33.095   4.794
10203W        W73960   8.823  14.666   1.861
10204W        W73961  41.819   0.901   4.188
10205W        W73962  37.923  24.671  10.614
10206W        W73963  24.140  42.340   4.310
10207W        W73964  24.705  26.955   0.851
10208W        W73965   7.687   5.831   2.799
10209W        W73966  40.031  27.030   1.719
10210W        W73967   3.245   4.772  13.338
10211W        W73968  25.069  28.167   4.660
10212W        W73969   0.891  42.473  12.377
10213W        W73970  21.026  42.801   4.353
10214W        W73971   4.392  10.198   0.781
10215W        W73972  15.240  20.046  10.564
10216W        W73973  16.611  20.646   0.257
10217W        W73974  11.303  34.955  12.365
10218W        W73975  42.815   4.706   5.320
10219W        W73976  43.392  41.932   0.733
10220W        W73977  41.404  30.580  12.905
10221W        W73978  21.099  16.718   4.813
10222W        W73979  39.014  30.063   1.829
10223W        W73980  25.552  20.095   4.808
10224W        W73981   9.813   6.274   2.364
10225W        W73982  19.191  15.611  13.049
10226W        W73983   9.190  16.809  11.410
10227W        W73984  40.923  31.547  14.028
10228W        W73985   9.838  29.557  12.064
10229W        W73986   6.205  23.603   4.271
10230W        W73987  42.440  44.943   0.912
10231W        W73988  38.020  31.572   2.182
10232W        W73989  36.038  39.367   0.322
10233W        W73990  12.772  39.443  11.957
10234W        W73991  44.899  11.248   4.682
10235W        W73992  42.862  27.538  11.405
10236W        W73993  44.428  13.198  13.878
10237W        W73994  27.562  31.476  14.423
10238W        W73995  27.631  25.160   4.648
10239W        W73996   8.196  39.504  14.465
10240W        W73997  15.319  40.502   0.803
10241W        W73998   6.402  39.321  11.983
10242W        W73999   5.793  17.140   1.919
10243W        W74000  18.784  37.499   5.230
10244W        W74001  12.356  39.362   1.378
10245W        W74002   4.217  10.348  11.512
10246W        W74003   0.878  36.911   1.808
10247W        W74004   5.714  25.052   0.793
10248W        W74005  30.549   8.380  11.599
10249W        W74006  19.193   4.222  12.064
10250W        W74007  42.924  18.290  10.961
10251W        W74008  16.156   1.264  10.483
10252W        W74009  25.138   4.886   0.444
10253W        W74010  43.894  25.212   1.877
10254W        W74011  31.126   0.413   3.233
10255W        W74012  19.651  21.131  13.974
10256W        W74013   9.282  29.617  14.426
10257W        W74014   7.691  20.154  12.496
10258W        W74015   5.352  39.326   3.832
10259W        W74016   2.727  36.956  13.033
10260W        W74017  39.899  16.587   1.383
10261W        W74018   0.280  19.575   0.273
10262W        W74019   4.840   7.256  11.016
10263W        W74020   8.662  28.629  12.888
10264W        W74021  37.919  31.431   1.277
10265W        W74022  19.164  13.602   0.898
10266W        W74023  13.601  39.820   2.706
10267W        W74024  40.548  19.590  13.987
10268W        W74025  26.027  30.557  13.343
10269W        W74026  13.331  31.004  13.455
10270W        W74027  33.004   1.412  12.038
10271W        W74028  17.239  12.349  11.531
10272W        W74029   1.373   2.757  13.331
10273W        W74030   4.807  39.404   0.741
10274W        W74031  29.585  12.283   2.202
10275W        W74032  28.123  16.720   5.723
10276W        W74033   9.693  27.511  12.840
10277W        W74034  23.066   1.778   0.877
10278W        W74035   0.782  23.099   0.800
10279W        W74036   0.933   1.838   2.773
10280W        W74037  21.537  15.216  11.013
10281W        W74038  44.289  44.261   2.671
10282W        W74039   1.272  15.661  10.891
10283W        W74040  29.636  34.992  11.503
10284W        W74041  26.184  28.566   2.711
10285W        W74042  19.625   2.315  13.528
10286W        W74043   8.814  24.705  13.807
10287W        W74044   1.757  38.334   2.845
10288W        W74045  35.088  16.669  11.944
10289W        W74046  21.226  22.176   3.739
10290W        W74047  15.721  12.776  10.469
10291W        W74048   3.770  35.091   2.284
10292W        W74049  13.212  31.105   0.862
10293W        W74050  21.164  10.216   3.349
10294W        W74051  28.015  25.198  13.548
10295W        W74052  34.078  24.590   3.239
10296W        W74053  17.769  26.465  12.961
10297W        W74054  22.535  17.094   3.327
10298W        W74055  24.128   5.861   1.226
10299W        W74056  13.761  36.918  14.278
10300W        W74057   8.723  41.345   0.386
10301W        W74058  35.544   5.788   4.611
10302W        W74059  34.571   4.407   2.829
10303W        W74060  25.183  34.981  13.015
10304W        W74061   8.690   2.865   3.337
10305W        W74062   2.389  12.329   3.729
10306W        W74063  44.887  36.890   3.694
10307W        W74064   3.407  22.138   1.930
10308W        W74065   9.214  20.141  13.850
10309W        W74066  26.594  13.777  14.761
10310W        W74067  27.137  43.837   1.872
10311W        W74068  24.690  30.461   0.775
10312W        W74069  26.984  26.534   1.312
10313W        W74070  42.871  20.562  14.020
10314W        W74071  39.000   4.410   4.745
10315W        W74072  29.658  39.400  14.030
10316W        W74073   9.871  15.713  14.486
10317W        W74074  26.207  36.583   4.785
10318W        W74075  13.749  21.036   3.197
10319W        W74076  32.929  23.151  11.497
10320W        W74077   9.803  34.403  11.529
10321W        W74078   3.879  13.127  14.784
10322W        W74079  39.998  28.156  13.316
10323W        W74080   4.924  19.707  14.864
10324W        W74081  32.954  36.947   4.738
10325W        W74082  10.727   4.307  12.857
10326W        W74083  23.133  14.810  10.604
10327W        W74084  29.636  31.630  14.968
10328W        W74085  22.122   1.258   4.288
10329W        W74086   6.304  16.311   3.295
10330W        W74087  43.338  32.095  13.869
10331W        W74088  22.230   1.372  13.321
10332W        W74089  18.083  23.653   2.835
10333W        W74090  19.210  39.835   0.867
10334W        W74091  32.025  31.989   3.633
10335W        W74092   0.966   5.257  11.074
10336W        W74093  39.046  25.970  12.572
10337W        W74094  18.616  18.680  12.998
10338W        W74095  22.598   4.777   3.637
10339W        W74096  26.457  24.497   2.282
10340W        W74097  28.168   8.727   5.224
10341W        W74098   2.849  10.296   4.720
10342W        W74099  39.963  29.522   4.335
10343W        W74100  37.355   6.880  10.929
10344W        W74101  24.071   2.854  14.515
10345W        W74102  17.156  39.533  11.970
10346W        W74103   1.929  22.580   1.235
10347W        W74104  40.414  37.845   1.898
10348W        W74105  20.587   0.277   3.268
10349W        W74106  41.908  32.550  14.939
10350W        W74107  25.538  41.449   2.191
10351W        W74108  23.571   6.243   0.759
10352W        W74109  30.084  17.653   4.282
10353W        W74110  38.951  13.191   4.773
10354W        W74111  15.783  20.624  11.086
10355W        W74112   8.289  23.721   0.346
10356W        W74113  26.563  30.126   2.832
10357W        W74114  34.911  34.386  11.591
10358W        W74115  22.543  16.725  14.889
10359W        W74116   8.709  30.959  13.502
10360W        W74117  24.031  34.428   1.845
10361W        W74118  30.420   4.223   0.405
10362W        W74119  11.373  23.143  12.432
10363W        W74120  28.541  10.693  11.380
10364W        W74121   1.391  22.007  11.550
10365W        W74122  20.666  16.745   3.240
10366W        W74123  17.684   5.715   3.812
10367W        W74124  23.027  41.449   1.875
10368W        W74125   2.798  10.142   2.322
10369W        W74126   3.739  43.014  10.478
10370W        W74127  18.553  11.638   3.760
10371W        W74128   9.712  35.101  11.474
10372W        W74129   9.205  13.802  11.592
10373W        W74130   8.873  22.563   3.240
10374W        W74131  21.604  19.117   2.821
10375W        W74132  44.885  41.321   3.687
10376W        W74133  19.232  24.709  10.641
10377W        W74134  21.031   3.280  13.334
10378W        W74135  35.906   5.205  11.401
10379W        W74136   3.232  18.789   4.182
10380W        W74137  29.637  24.703   5.242
10381W        W74138  38.065  38.898  13.993
10382W        W74139  18.116  35.911   9.573
10383W        W74140  14.701  24.977   2.370
10384W        W74141   1.939   1.343   3.836
10385W        W74142   5.277   9.716   4.609
10386W        W74143  31.123  43.459   2.236
10387W        W74144   0.483   8.838   3.767
10388W        W74145   8.406  14.108  13.432
10389W        W74146   0.749  24.659   0.369
10390W        W74147   7.760  16.750  12.885
10391W        W74148  10.380  27.034  11.988
10392W        W74149  37.863  43.843   1.238
10393W        W74150   3.803  37.888  14.474
10394W        W74151  20.678  34.879   2.180
10395W        W74152  38.954  11.295  14.839
10396W        W74153  15.767  28.089   1.737
10397W        W74154   6.266  43.800   2.767
10398W        W74155   7.263   1.773   4.779
10399W        W74156  31.146  36.079   0.355
10400W        W74157  28.639  14.107  13.007
10401W        W74158  20.765  29.938  14.915
10402W        W74159  42.294   9.748   3.718
10403W        W74160   1.842  22.600  13.427
10404W        W74161  14.619  28.165   2.401
10405W        W74162   1.795  32.011   3.665
10406W        W74163  28.181  42.301  11.521
10407W        W74164   8.732  41.002   5.297
10408W        W74165  31.097  11.820   2.764
10409W        W74166  27.163   1.765  13.521
10410W        W74167   2.262  33.560  12.033
10411W        W74168  31.898  44.298  14.390
10412W        W74169  42.482  40.914   4.263
10413W        W74170  29.055  15.777   2.310
10414W        W74171  32.021  18.053   0.789
10415W        W74172  35.888  10.153  10.477
10416W        W74173   6.242  31.409   3.361
10417W        W74174  12.720  19.109  14.000
10418W        W74175   9.342  40.829   9.981
10419W        W74176  32.926  19.270   4.665
10420W        W74177  39.491  38.424  13.819
10421W        W74178   0.343  25.650  14.425
10422W        W74179  30.533  23.049  11.085
10423W        W74180  38.458  35.060   1.307
10424W        W74181   0.261  33.446  12.921
10425W        W74182  38.382  23.995   4.187
10426W        W74183  34.592  26.694   5.235
10427W        W74184  23.193  15.279   2.227
10428W        W74185  31.142  27.613   1.779
10429W        W74186  29.079  26.574   2.286
10430W        W74187   7.234  12.299   3.732
10431W        W74188  17.677  12.674   3.267
10432W        W74189  20.576  16.749  14.029
10433W        W74190   2.446  21.028   9.927
10434W        W74191  16.762  42.836   3.655
10435W        W74192  26.650  12.354  11.525
10436W        W74193   6.399  15.223   1.445
10437W        W74194  18.250  28.505   1.431
10438W        W74195   8.829  24.612   4.269
10439W        W74196  29.962  35.879   3.807
10440W        W74197  15.227   6.836   1.367
10441W        W74198   8.329   9.878  10.642
10442W        W74199   6.285  35.980   1.780
10443W        W74200  40.879   2.777   1.325
10444W        W74201  15.691   6.838   1.893
10445W        W74202  12.173   3.279  10.941
10446W        W74203   3.748   3.946  10.404
10447W        W74204  21.160  32.626   9.653
10448W        W74205  25.700  41.370  14.353
10449W        W74206  27.544  38.437  11.984
10450W        W74207   2.282   8.769  11.556
10451W        W74208  32.475  21.542  11.502
10452W        W74209  35.599  17.585   1.243
10453W        W74210  24.018  20.718   0.919
10454W        W74211  36.561   8.185   4.604
10455W        W74212  36.991  21.588  11.458
10456W        W74213  22.555  14.799  12.035
10457W        W74214  13.278  17.220  12.414
10458W        W74215  25.566  26.960  11.607
10459W        W74216  37.444   7.879  13.990
10460W        W74217  12.783  26.180  11.073
10461W        W74218  15.260   9.196  14.404
10462W        W74219  25.491   7.400   0.467
10463W        W74220  23.566  24.497   0.461
10464W        W74221  35.103  14.595  14.368
10465W        W74222   4.420  25.497   3.149
10466W        W74223  41.813  26.169   1.704
10467W        W74224  25.031  27.943   2.385
10468W        W74225  28.449  37.510  12.045
10469W        W74226  25.601   2.433   0.344
10470W        W74227  37.885   0.250   1.420
10471W        W74228   7.172  20.623  13.028
10472W        W74229  13.786  26.188  14.892
10473W        W74230  29.517  42.903  11.532
10474W        W74231   7.325   5.797  13.359
10475W        W74232  21.629  10.859   3.249
10476W        W74233  16.649  28.070   4.769
10477W        W74234  17.625   9.823   1.825
10478W        W74235   9.379  38.039  12.959
10479W        W74236  38.928  14.296  11.491
10480W        W74237   9.684  20.530  13.956
10481W        W74238   6.918  25.008  12.352
10482W        W74239  42.345  23.549  14.857
10483W        W74240   2.381  42.981  11.928
10484W        W74241  26.659  44.784  11.394
10485W        W74242  22.023  25.712   4.294
10486W        W74243  18.147  41.496  11.597
10487W        W74244  31.904  40.307  13.886
10488W        W74245  21.530   7.803  11.542
10489W        W74246   6.805  31.898   0.742
10490W        W74247   5.918  36.863  14.763
10491W        W74248   1.259   0.762   2.857
10492W        W74249  14.305  28.644  10.560
10493W        W74250   7.185  43.907   1.802
10494W        W74251  12.302  26.066   3.781
10495W        W74252   1.940   4.399  13.309
10496W        W74253  12.318  38.411  12.077
10497W        W74254  26.954  38.332   2.204
10498W        W74255  16.732  22.517   0.934
10499W        W74256  30.075  32.009  14.373
10500W        W74257   2.405   1.927   2.372
10501W        W74258  39.967  28.155  14.923
10502W        W74259  43.916   1.310   1.703
10503W        W74260   0.287   7.366  11.119
10504W        W74261  15.624  11.346  10.552
10505W        W74262  18.675   5.743  14.803
10506W        W74263  27.948   3.226   0.886
10507W        W74264   3.745   2.425  12.022
10508W        W74265  39.842   8.768  11.101
10509W        W74266   3.954  26.169  14.855
10510W        W74267   5.416  22.997  10.916
10511W        W74268  37.865  21.624   1.772
10512W        W74269   8.294   0.404   0.937
10513W        W74270  12.818  26.659  14.961
10514W        W74271   0.395   5.756   0.762
10515W        W74272   0.387  33.107  12.096
10516W        W74273  26.657   9.312   4.709
10517W        W74274  16.282  15.204  14.949
10518W        W74275  10.158  29.934  11.915
10519W        W74276  18.729  11.812  14.794
10520W        W74277  30.573  44.318  14.470
10521W        W74278   7.745  13.179   0.967
10522W        W74279  41.029   7.883  10.946
10523W        W74280  34.097   6.388  10.497
10524W        W74281   2.832   0.839  14.030
10525W        W74282   0.969  40.025  11.041
10526W        W74283  44.899  40.353   1.800
10527W        W74284  40.024  26.610  10.552
10528W        W74285  38.529  20.117  12.426
10529W        W74286  26.992  44.890  12.901
10530W        W74287   5.861   7.752   2.707
10531W        W74288  23.709  30.959  11.608
10532W        W74289  24.671  37.519  13.889
10533W        W74290  10.789  18.575  10.052
10534W        W74291  11.688   7.709  10.439
10535W        W74292  39.981   0.885  12.409
10536W        W74293  29.533   1.769   0.830
10537W        W74294  25.204  39.946   3.710
10538W        W74295  20.117   6.806   3.354
10539W        W74296   1.794  30.584  13.854
10540W        W74297  39.546  13.122  14.775
10541W        W74298  10.698   8.304   0.378
10542W        W74299  23.704  17.577   2.700
10543W        W74300  24.013   5.754  12.500
10544W        W74301  23.141  34.441  10.477
10545W        W74302  28.056  36.518  14.909
10546W        W74303  16.101  14.215   0.837
10547W        W74304  31.532  20.643   4.158
10548W        W74305  38.053  41.806   4.223
10549W        W74306   1.323  20.138  10.644
10550W        W74307   1.329  42.484  12.356
10551W        W74308  13.756   3.389  12.974
10552W        W74309  18.054  17.624  11.433
10553W        W74310  40.359  31.955  12.829
10554W        W74311  36.922  35.587  12.868
10555W        W74312  25.670   2.255   0.952
10556W        W74313  41.443  26.086   0.729
10557W        W74314  11.743   6.196   1.755
10558W        W74315  39.328  18.571  10.597
10559W        W74316  16.569  12.136   1.357
10560W        W74317  37.984  22.505   2.221
10561W        W74318   6.274  18.060   3.154
10562W        W74319  22.173  43.303  10.444
10563W        W74320  35.014  10.233   4.676
10564W        W74321  39.940   6.404   0.427
10565W        W74322   8.301  29.480  12.414
10566W        W74323  14.263  38.010  14.003
10567W        W74324  31.050  21.105   4.328
10568W        W74325  43.884  10.174  14.013
10569W        W74326   9.662  31.940  11.483
10570W        W74327  42.878  39.531  11.544
10571W        W74328  32.456  25.204   3.672
10572W        W74329  24.652   8.737  10.143
10573W        W74330  36.361  28.046   2.246
10574W        W74331  39.410  21.745   2.197
10575W        W74332   2.726  13.650   2.369
10576W        W74333  17.293  10.176   0.345
10577W        W74334  21.528  20.650  11.891
10578W        W74335  23.014   1.357   0.421
10579W        W74336   0.745  41.320   4.115
10580W        W74337  21.168  19.109   0.774
10581W        W74338   8.742  27.566  12.450
10582W        W74339  23.009  24.004   1.404
10583W        W74340  18.644   2.378   0.436
10584W        W74341   7.375  41.845   1.763
10585W        W74342  17.246   4.288  12.066
10586W        W74343  10.727  26.205  11.035
10587W        W74344  19.614  17.260  10.445
10588W        W74345  43.298  13.234   2.708
10589W        W74346  24.569  11.180  14.311
10590W        W74347  42.520   7.746  12.883
10591W        W74348  33.388   1.836   3.844
10592W        W74349  33.459  27.121   4.167
10593W        W74350  33.514  15.631   3.266
10594W        W74351  25.078   6.378   1.287
10595W        W74352  33.947  39.522   0.253
10596W        W74353  30.996  23.059   3.650
10597W        W74354  38.862  30.141  14.309
10598W        W74355  32.926   4.275   3.797
10599W        W74356   4.753  20.199  10.983
10600W        W74357  32.104  39.030  14.905
10601W        W74358  26.129   2.752  10.513
10602W        W74359   8.770  22.181   2.842
10603W        W74360  25.615  15.597  10.492
10604W        W74361  32.934  11.355   4.188
10605W        W74362  18.115  15.137   5.794
10606W        W74363  20.600   7.739   0.844
10607W        W74364  31.063  16.802   1.413
10608W        W74365  19.695  27.526   1.865
10609W        W74366  28.057  35.999  13.374
10610W        W74367  32.909  27.459   2.663
10611W        W74368  31.049  22.242  12.833
10612W        W74369  13.285  10.321  14.022
10613W        W74370  34.552  11.739   3.324
10614W        W74371  32.082  18.721  11.482
10615W        W74372  19.749  26.061  14.420
10616W        W74373  26.187  28.656  13.543
10617W        W74374   9.207  39.999  12.524
10618W        W74375   9.658  20.676   1.378
10619W        W74376   4.918   6.391   4.355
10620W        W74377   6.388  32.511   2.680
10621W        W74378  21.560  23.687   1.848
10622W        W74379  19.611  22.644   3.718
10623W        W74380  40.806  34.946   3.238
10624W        W74381  35.065  13.806   0.442
10625W        W74382   1.873  12.651   3.646
10626W        W74383  14.817  14.716   4.772
10627W        W74384  22.568  30.978   0.275
10628W        W74385   6.258  28.166  10.951
10629W        W74386  42.871  12.685   1.866
10630W        W74387  26.197  33.480   1.809
10631W        W74388  11.633  37.843  12.370
10632W        W74389  20.708  33.975   3.271
10633W        W74390  26.122   3.757   3.210
10634W        W74391   2.272  37.538   4.205
10635W        W74392   9.736  13.776   0.366
10636W        W74393  32.501  17.243   1.930
10637W        W74394  30.617  20.042  13.952
10638W        W74395  32.070   9.863   2.730
10639W        W74396  40.954  24.480   3.153
10640W        W74397  31.111  10.757  14.837
10641W        W74398  11.363  43.859   0.910
10642W        W74399  11.305  15.609   2.253
10643W        W74400  30.065  24.613   0.369
10644W        W74401  13.828  41.464  14.336
10645W        W74402   8.788  16.762   4.299
10646W        W74403  41.334  26.016  14.363
10647W        W74404  21.216  24.527  11.454
10648W        W74405  27.944  11.769   0.805
10649W        W74406  42.413  24.211  14.808
10650W        W74407  26.031   0.758  13.911
10651W        W74408  18.130  21.208   4.706
10652W        W74409  10.730   1.754   1.724
10653W        W74410   2.913  37.367   4.811
10654W        W74411  43.808   1.353  12.519
10655W        W74412  44.491  20.548   2.255
10656W        W74413  28.940   8.740   3.681
10657W        W74414  37.922  14.276   4.667
10658W        W74415  42.917   4.370  10.892
10659W        W74416  17.140  42.453   0.963
10660W        W74417  29.504  34.935   2.808
10661W        W74418  25.990  22.508  12.026
10662W        W74419  24.546  16.296   1.443
10663W        W74420  33.498  19.738  11.472
10664W        W74421  22.160  17.578   0.894
10665W        W74422  31.426  18.701   3.322
10666W        W74423  15.747  42.411  14.462
10667W        W74424  39.379  17.614  14.828
10668W        W74425  12.153  34.038   4.808
10669W        W74426   3.277  27.538  14.360
10670W        W74427  34.936  13.730  13.414
10671W        W74428  10.688  28.037   4.158
10672W        W74429   8.278   9.349   2.202
10673W        W74430  38.856  15.591  12.560
10674W        W74431   4.817  12.340   4.764
10675W        W74432  29.580  41.295   9.951
10676W        W74433  25.549   0.399  10.413
10677W        W74434  33.382  15.172   4.222
10678W        W74435  39.022  31.087  10.555
10679W        W74436  23.551  39.974  13.015
10680W        W74437  27.505  34.055  14.762
10681W        W74438   7.732   7.353  12.363
10682W        W74439  17.114  26.171  12.970
10683W        W74440  34.960   5.424   2.187
10684W        W74441  39.489  29.450   2.894
10685W        W74442  18.248  29.174  10.631
10686W        W74443   7.673  38.453  14.903
10687W        W74444  30.106  33.879  12.862
10688W        W74445  38.980  31.595  11.509
10689W        W74446  39.549   9.225   0.446
10690W        W74447  43.812  41.028   4.281
10691W        W74448  40.417  32.466   3.726
10692W        W74449  32.418  10.362  13.864
10693W        W74450  14.203  28.474   1.330
10694W        W74451  33.606   5.744  12.048
10695W        W74452  25.636   2.914  14.835
10696W        W74453  19.537  40.819   2.234
10697W        W74454  25.155  33.610  12.849
10698W        W74455  23.531  21.743  11.549
10699W        W74456  27.635  16.636   3.769
10700W        W74457   8.245  13.262  12.921
10701W        W74458   5.791   9.327   2.894
10702W        W74459   8.182  27.107   2.245
10703W        W74460  15.796  26.989  14.377
10704W        W74461  20.648  28.469  10.903
10705W        W74462   9.209  14.633  11.612
10706W        W74463  18.232  12.126   0.829
10707W        W74464  28.646   3.352  11.101
10708W        W74465  23.550  13.651  12.446
10709W        W74466  34.935   7.333   1.353
10710W        W74467  28.675   3.417   2.776
10711W        W74468  19.083   7.710   0.929
10712W        W74469  19.742  30.619  14.474
10713W        W74470  32.476  13.134   1.441
10714W        W74471  32.546  35.009  11.118
10715W        W74472  14.599  35.019  14.781
10716W        W74473   9.700  35.998   2.353
10717W        W74474  27.025  44.297   4.131
10718W        W74475  26.115  28.000  14.950
10719W        W74476  33.121  30.566   5.761
10720W        W74477  44.968  11.841  12.072
10721W        W74478  13.660  15.794   1.417
10722W        W74479  44.896  15.306   0.440
10723W        W74480  33.428  11.212   5.322
10724W        W74481  30.059  21.043   0.853
10725W        W74482   7.320   9.199   2.236
10726W        W74483  15.266  37.486  14.021
10727W        W74484  29.573  34.015  12.423
10728W        W74485  24.125  38.957   0.954
10729W        W74486  35.858  19.135  12.514
10730W        W74487  35.887   6.189  14.490
10731W        W74488  31.967  27.523  11.097
10732W        W74489  17.068  38.901   1.254
10733W        W74490  22.157  26.637  10.428
10734W        W74491   7.790   3.284   3.310
10735W        W74492   2.840  42.841   4.687
10736W        W74493   6.379   1.879   3.161
10737W        W74494  38.823   6.907   3.334
10738W        W74495  25.184  13.177   0.431
10739W        W74496   6.811   2.303   2.284
10740W        W74497  29.986   6.685   1.214
10741W        W74498  13.804  31.928   4.281
10742W        W74499  28.161  19.552  12.023
10743W        W74500  13.256  14.736  14.365
10744W        W74501  30.092  42.821  14.876
10745W        W74502   4.907  38.915   0.871
10746W        W74503   2.283  30.564   2.708
10747W        W74504   8.250  33.519  14.916
10748W        W74505   8.373  42.948   1.288
10749W        W74506  33.996   3.345   4.634
10750W        W74507   2.278  42.428   2.323
10751W        W74508  11.358  30.445   1.696
10752W        W74509   0.270   6.329   4.702
10753W        W74510  16.297  29.157   0.307
10754W        W74511  16.591  20.746  12.469
10755W        W74512  27.146   3.744  11.403
10756W        W74513  12.227   9.306  14.923
10757W        W74514  13.111  26.122  12.985
10758W        W74515  32.889  23.637  12.959
10759W        W74516  34.591  37.084  12.429
10760W        W74517  24.483   8.222  11.410
10761W        W74518   1.482   8.673   0.728
10762W        W74519  38.033  28.647   1.783
10763W        W74520  41.008  33.045  12.416
10764W        W74521  20.657  15.807   4.627
10765W        W74522  24.162  36.471   4.725
10766W        W74523   3.924  44.355  11.557
10767W        W74524  28.987  42.938  11.437
10768W        W74525  32.890  19.674   0.726
10769W        W74526  39.905   4.763  14.361
10770W        W74527  35.053  34.610   2.804
10771W        W74528  39.828  34.954  13.920
10772W        W74529  14.129  41.001  10.508
10773W        W74530  33.103   4.412  10.970
10774W        W74531  17.668  25.039   1.805
10775W        W74532  24.507  13.611  11.493
10776W        W74533  36.948  33.910   4.327
10777W        W74534  21.244  24.498   3.638
10778W        W74535  33.087  43.899  14.810
10779W        W74536   9.287   0.852  11.055
10780W        W74537  27.623  18.628   1.239
10781W        W74538  42.464  25.660   4.133
10782W        W74539  19.252  11.203  13.975
10783W        W74540   7.375  10.781   1.285
10784W        W74541  26.649  42.407  12.912
10785W        W74542   0.814   0.814   3.186
10786W        W74543  12.768  24.015   1.819
10787W        W74544  22.214  28.085   2.799
10788W        W74545   3.335   4.396   1.793
10789W        W74546   7.826   3.314   1.934
10790W        W74547  22.739  11.862   4.134
10791W        W74548  18.573  11.830   2.871
10792W        W74549  11.710  39.864  11.386
10793W        W74550  21.715  28.493  12.915
10794W        W74551  20.675  11.343   3.231
10795W        W74552  32.086  37.432   2.205
10796W        W74553  29.466   4.212   3.646
10797W        W74554   0.895  11.131  14.455
10798W        W74555  14.804   2.302   3.855
10799W        W74556  29.035  13.162   0.470
10800W        W74557   5.266   3.318   4.820
10801W        W74558  29.661  23.009  13.932
10802W        W74559  34.501   5.915   0.455
10803W        W74560  27.456   3.929  10.480
10804W        W74561  23.503   5.770   0.949
10805W        W74562  41.364   3.432   1.748
10806W        W74563   7.335  43.955  14.900
10807W        W74564   6.710  11.806  11.881
10808W        W74565  11.298  40.415   1.802
10809W        W74566  40.474  22.086  14.443
10810W        W74567  39.462  21.179   0.891
10811W        W74568   9.204  26.091   2.778
10812W        W74569  24.081  43.484  10.918
10813W        W74570   2.345   8.673   0.925
10814W        W74571  31.601  12.153   3.339
10815W        W74572   2.799   3.449   2.835
10816W        W74573  34.436  17.705   2.783
10817W        W74574  12.192  13.838   0.391
10818W        W74575  14.712  26.117   2.290
10819W        W74576   7.238   0.853  13.398
10820W        W74577  14.652  19.075  10.449
10821W        W74578  30.521  17.289  12.364
10822W        W74579  44.342  35.443  10.153
10823W        W74580  32.497  12.651   1.387
10824W        W74581  39.553  36.024  13.950
10825W        W74582  20.073  16.142   1.792
10826W        W74583   7.746   1.905  14.958
10827W        W74584   3.845  22.145   4.820
10828W        W74585   8.395   9.357   3.750
10829W        W74586   6.754  44.953  13.032
10830W        W74587   4.768  21.687  11.984
10831W        W74588  41.867  36.415   2.841
10832W        W74589   0.361   0.869   4.684
10833W        W74590  16.615  18.252  11.391
10834W        W74591  24.496   3.855   2.738
10835W        W74592  18.262   4.860  13.311
10836W        W74593   1.271  10.303   4.809
10837W        W74594  25.999  34.015  12.912
10838W        W74595   4.318  22.200   4.212
10839W        W74596  23.715  11.156   2.334
10840W        W74597  35.959  32.434   0.382
10841W        W74598  19.584   6.778  11.589
10842W        W74599   9.326  17.700  12.068
10843W        W74600   3.853  39.429  11.487
10844W        W74601  24.193   3.256   3.305
10845W        W74602   6.905  35.068   2.253
10846W        W74603  24.668  22.019  13.935
10847W        W74604  31.535  40.370  10.577
10848W        W74605  34.441   8.744   1.323
10849W        W74606  15.280  39.489  11.412
10850W        W74607  28.993  39.358  13.393
10851W        W74608  11.346  42.517   3.259
10852W        W74609  42.795  34.071  13.400
10853W        W74610  17.116  12.189   4.657
10854W        W74611  43.807  38.958  14.956
10855W        W74612  35.369  19.193   3.187
10856W        W74613  25.973  17.790  12.423
10857W        W74614  22.041  33.087   2.739
10858W        W74615  41.907   8.402   0.242
10859W        W74616  20.110  25.206  12.930
10860W        W74617  12.307  32.409   0.257
10861W        W74618  28.631  39.935  14.850
10862W        W74619  23.695  35.938   0.349
10863W        W74620   1.763  30.107   2.257
10864W        W74621  40.482   0.283   5.192
10865W        W74622  36.368  40.810  12.997
10866W        W74623  18.599   3.301  12.460
10867W        W74624  25.523   3.776  10.504
10868W        W74625   3.360  10.352   0.274
10869W        W74626   2.349  22.536  14.451
10870W        W74627   6.678  11.203  14.005
10871W        W74628  11.153  38.478   3.739
10872W        W74629  38.490  39.941   4.322
10873W        W74630  37.358  29.605   0.480
10874W        W74631  35.068  37.922  13.800
10875W        W74632  21.051  11.864   2.810
10876W        W74633  34.087  24.976  12.922
10877W        W74634  31.416  43.314  11.608
10878W        W74635  20.560  12.759   0.442
10879W        W74636  27.615  30.450   4.760
10880W        W74637  40.980  11.718  11.009
10881W        W74638  17.723   6.721   3.705
10882W        W74639   8.222  10.773  10.447
10883W        W74640  13.826   8.224  14.998
10884W        W74641  41.995  40.837  10.604
10885W        W74642  11.357   6.692   1.378
10886W        W74643  27.456   1.947  13.521
10887W        W74644  25.009   4.407  12.555
10888W        W74645  10.301  24.145  11.412
10889W        W74646  23.040  35.405   2.717
10890W        W74647  12.854  17.208  13.879
10891W        W74648  22.111  42.864  12.516
10892W        W74649  29.939  31.015  12.840
10893W        W74650  18.064  38.958  13.429
10894W        W74651   4.307  11.276  11.545
10895W        W74652  36.404  18.058   4.262
10896W        W74653  38.339  42.280   0.340
10897W        W74654  41.431  18.230  12.945
10898W        W74655  14.752   1.811   1.784
10899W        W74656   3.812  32.628  13.893
10900W        W74657  40.453  37.368   9.947
10901W        W74658  37.880  13.118   2.217
10902W        W74659  15.580  42.394  11.439
10903W        W74660  39.812  30.480   4.173
10904W        W74661  43.771  29.988   2.717
10905W        W74662  35.587  17.556   1.732
10906W        W74663  27.185  40.805   0.816
10907W        W74664  22.528  33.591  12.521
10908W        W74665  34.116   9.713   4.614
10909W        W74666  23.587  36.420  10.894
10910W        W74667  36.590  22.022   2.707
10911W        W74668   1.311  24.177  11.521
10912W        W74669   8.307  21.665   4.630
10913W        W74670  36.349  26.661  11.466
10914W        W74671  30.578  18.770   3.831
10915W        W74672  19.581  19.533  13.912
10916W        W74673  12.824  18.214   2.319
10917W        W74674  29.520   2.313  12.377
10918W        W74675  33.421  34.476  12.530
10919W        W74676   4.799  11.852   3.782
10920W        W74677  33.056  39.861  11.579
10921W        W74678  25.995   4.860   1.813
10922W        W74679  32.025  13.610  14.882
10923W        W74680  41.894  10.842   4.125
10924W        W74681   0.793  35.872   0.302
10925W        W74682  23.587  35.561  14.444
10926W        W74683  39.874  26.484   3.243
10927W        W74684  24.146   3.839  14.455
10928W        W74685  24.608  18.289   2.288
10929W        W74686  30.114  21.578  12.932
10930W        W74687  42.934   3.227  14.814
10931W        W74688   6.898   7.672   4.696
10932W        W74689  10.740  20.263  10.513
10933W        W74690  27.017  30.487   2.843
10934W        W74691   4.822   7.405  14.763
10935W        W74692  44.011  11.296  12.905
10936W        W74693  16.675   1.798  11.434
10937W        W74694  38.894   6.738  11.946
10938W        W74695   1.930  39.953  13.403
10939W        W74696  43.840  28.960  12.552
10940W        W74697  32.455  43.826   4.261
10941W        W74698  31.531  33.477   2.355
10942W        W74699  10.727  30.534   4.793
10943W        W74700   1.432   3.269   2.878
10944W        W74701  41.437  12.184  10.628
10945W        W74702  38.062  43.464   1.340
10946W        W74703   3.913  42.386  10.995
10947W        W74704  43.971  28.004  11.031
10948W        W74705  23.645   6.237  11.949
10949W        W74706   0.407  38.469   2.406
10950W        W74707   0.386  25.548  13.449
10951W        W74708  16.748  31.947   4.123
10952W        W74709  32.956  23.216   0.745
10953W        W74710  41.940  28.993  12.495
10954W        W74711  18.073  39.490   4.243
10955W        W74712  33.040   1.327  13.365
10956W        W74713  21.176  20.201   4.823
10957W        W74714  24.998  31.938   0.925
10958W        W74715  17.063   4.340  12.967
10959W        W74716  40.879  19.594   0.352
10960W        W74717   2.247   6.803  11.108
10961W        W74718  33.509   9.653   1.366
10962W        W74719  26.104  34.527  14.849
10963W        W74720  31.029  19.047   4.266
10964W        W74721  23.559  12.197  10.501
10965W        W74722  22.021  41.913  12.503
10966W        W74723  30.456  33.905   3.713
10967W        W74724  39.363  13.688  13.034
10968W        W74725  20.642  16.099   4.234
10969W        W74726  33.454  19.253  14.381
10970W        W74727  36.082  38.353  13.937
10971W        W74728  37.433   8.277   3.303
10972W        W74729  44.974  13.617   0.378
10973W        W74730   3.359   2.444  10.639
10974W        W74731  34.017   7.875   2.303
10975W        W74732  22.164  37.549   3.241
10976W        W74733   8.769  31.602   3.637
10977W        W74734   3.229  14.121   0.477
10978W        W74735  27.587  11.810  11.953
10979W        W74736  42.847   2.302  13.958
10980W        W74737  30.432  10.763   0.840
10981W        W74738  19.545  18.184  10.542
10982W        W74739  12.847  33.123   4.606
10983W        W74740  33.976   7.855  13.811
10984W        W74741  27.041  11.734  12.469
10985W        W74742   7.368  43.022   2.817
10986W        W74743   0.468   2.764  10.940
10987W        W74744   7.725  20.739   1.383
10988W        W74745  24.066  32.045  11.928
10989W        W74746   2.907  41.910  11.916
10990W        W74747  42.383   8.767   1.862
10991W        W74748  24.559  18.763  14.867
10992W        W74749  32.036  13.319  14.364
10993W        W74750  29.463  44.785  11.901
10994W        W74751  13.166  37.862  13.390
10995W        W74752  25.525  39.364  13.384
10996W        W74753   1.306  33.601   1.890
10997W        W74754  36.588   7.892   4.141
10998W        W74755  42.896  41.792  11.474
10999W        W74756   3.832  37.075  12.079
11000W        W74757  15.822   5.316   2.266
11001W        W74758   7.303  30.572  14.493
11002W        W74759  32.105  34.410   1.898
11003W        W74760   0.841  35.499  12.544
11004W        W74761  32.415  16.656   0.378
11005W        W74762  44.819  21.228  10.068
11006W        W74763  41.365  40.029  12.917
11007W        W74764   3.824   4.936   2.249
11008W        W74765  35.469  21.094  13.315
11009W        W74766  22.553  22.120  12.852
11010W        W74767  18.287  26.511   2.824
11011W        W74768   4.337  39.414  12.377
11012W        W74769   4.243  22.226   2.710
11013W        W74770  23.064  37.465  11.086
11014W        W74771  18.082  43.003  10.507
11015W        W74772  36.060  18.569   2.402
11016W        W74773   6.284  20.138   2.858
11017W        W74774  37.418  22.180  14.276
11018W        W74775  41.342  41.815   1.744
11019W        W74776   7.217  37.410   4.274
11020W        W74777  11.864  38.335   3.193
11021W        W74778  11.845  16.092   3.654
11022W        W74779  25.599  36.379  10.526
11023W        W74780   5.337  29.629   4.812
11024W        W74781  27.594  27.649   3.178
11025W        W74782  37.049   3.321   0.776
11026W        W74783  26.610  20.567   9.944
11027W        W74784  19.773  24.504   0.923
11028W        W74785  44.405  12.256   4.131
11029W        W74786  28.496  41.524   3.683
11030W        W74787  30.935   0.924  11.580
11031W        W74788  14.104  18.255  12.375
11032W        W74789   0.929   4.281   2.793
11033W        W74790   7.670  20.721  11.034
11034W        W74791  30.914   9.825   0.455
11035W        W74792   4.246  14.179  14.947
11036W        W74793   8.714  32.494  13.449
11037W        W74794  38.438   7.261  13.519
11038W        W74795  42.986  28.653   4.771
11039W        W74796  28.546  28.151  12.827
11040W        W74797  19.204  34.379   4.256
11041W        W74798  28.007   8.356  11.589
11042W        W74799  16.640  11.820  13.367
11043W        W74800   5.207   8.321  14.862
11044W        W74801  34.075  11.134   4.215
11045W        W74802  27.953   3.906  14.949
11046W        W74803  22.198  14.806   3.863
11047W        W74804  26.502  33.917   3.221
11048W        W74805  10.270  34.500  10.446
11049W        W74806  12.325  21.244   4.747
11050W        W74807  22.697  43.999   0.937
11051W        W74808  18.584  25.146   2.319
11052W        W74809  12.818  44.400   3.631
11053W        W74810  22.506  11.131  12.089
11054W        W74811  39.027  42.478   1.895
11055W        W74812   5.391   8.345   2.192
11056W        W74813  37.970   1.797   4.265
11057W        W74814  44.309   9.394  14.839
11058W        W74815  29.098  11.129   3.383
11059W        W74816  20.244  32.584   2.871
11060W        W74817  38.568  24.052   0.257
11061W        W74818  29.156  41.518   1.705
11062W        W74819  42.397  11.199   4.163
11063W        W74820   4.214  32.944   2.196
11064W        W74821  23.078  23.213   4.128
11065W        W74822  32.499  31.979   2.296
11066W        W74823  38.354   3.844  14.962
11067W        W74824  36.885  18.585   2.185
11068W        W74825  42.458  30.944  10.469
11069W        W74826  13.131  27.669  11.417
11070W        W74827  20.586   1.811  10.488
11071W        W74828  30.626  33.565   4.720
11072W        W74829   8.244  35.107   4.227
11073W        W74830  35.091  30.997  14.906
11074W        W74831  44.480   9.853   4.304
11075W        W74832  41.511   7.670  11.454
11076W        W74833  25.186  26.545   1.734
11077W        W74834  33.444  24.088  12.925
11078W        W74835  21.114  38.042   1.231
11079W        W74836   4.856   7.776  14.312
11080W        W74837  33.047  41.847   3.822
11081W        W74838  20.136  19.725  10.944
11082W        W74839  43.369  17.667   1.704
11083W        W74840  11.267  34.119   2.288
11084W        W74841  42.981  43.360  10.979
11085W        W74842   6.392  22.683  11.072
11086W        W74843  25.029  25.533  11.861
11087W        W74844  39.867  40.395  12.075
11088W        W74845  18.113  23.022   3.834
11089W        W74846  16.244  23.661  14.338
11090W        W74847  31.917  35.381  13.975
11091W        W74848  34.599  12.286  10.930
11092W        W74849  26.558  41.802  11.080
11093W        W74850  30.431  26.951   1.387
11094W        W74851   0.869  20.266   2.194
11095W        W74852   0.753   5.421  14.398
11096W        W74853  24.614  13.753  13.979
11097W        W74854  40.351  40.370   4.308
11098W        W74855  24.548  39.826  13.828
11099W        W74856  39.066   3.730   5.259
11100W        W74857  31.041   8.327   3.296
11101W        W74858  21.702  19.733  13.829
11102W        W74859  34.051  40.929  14.514
11103W        W74860   7.749  29.440   3.815
11104W        W74861  30.605  18.126  14.845
11105W        W74862  36.962  11.340  11.572
11106W        W74863   4.395  26.572  12.406
11107W        W74864  41.807  40.866   2.325
11108W        W74865  39.513   1.273  12.962
11109W        W74866  29.663  16.777   0.481
11110W        W74867  21.073  44.824   0.735
11111W        W74868  38.551  15.240  12.547
11112W        W74869   3.839  41.862  10.899
11113W        W74870  16.310   0.260  12.027
11114W        W74871   8.231   7.906  13.315
11115W        W74872  17.559  36.849   3.772
11116W        W74873   1.449   6.894  13.851
11117W        W74874  39.896  17.158  13.326
11118W        W74875  11.306   3.900  10.893
11119W        W74876  41.423  20.076  10.486
11120W        W74877  11.188  28.949   2.308
11121W        W74878  28.105  16.772  10.519
11122W        W74879  16.677  16.627   1.437
11123W        W74880  31.948   3.351   4.237
11124W        W74881  42.880   3.441   0.325
11125W        W74882  35.994  13.709   0.480
11126W        W74883  44.898  25.564   2.864
11127W        W74884  37.364   6.427  14.967
11128W        W74885  13.228  37.080   3.166
11129W        W74886  42.502  40.900   3.300
11130W        W74887   1.844  21.698   2.870
11131W        W74888  34.961  11.756  13.016
11132W        W74889   9.334  13.753  13.407
11133W        W74890  22.615  31.974   0.437
11134W        W74891  37.036  26.159   0.798
11135W        W74892  37.412   7.313   4.349
11136W        W74893  12.820  25.564   3.275
11137W        W74894   3.384  22.133   3.325
11138W        W74895  20.562   0.881  14.017
11139W        W74896  37.350  42.985   4.128
11140W        W74897  27.509  25.012   1.770
11141W        W74898  24.495   5.924   4.145
11142W        W74899  15.623  43.900  13.942
11143W        W74900  29.456   4.227   0.456
11144W        W74901  10.289  20.092   0.350
11145W        W74902  15.099   4.253   2.344
11146W        W74903  44.281   0.964  13.973
11147W        W74904  10.807  25.521  10.519
11148W        W74905  25.539   7.902  14.854
11149W        W74906  34.889  19.763  10.466
11150W        W74907  39.985  21.025   2.331
11151W        W74908  42.415  39.426   1.867
11152W        W74909  35.103  32.423   3.213
11153W        W74910  20.568  14.127   1.882
11154W        W74911  14.659  42.292  12.008
11155W        W74912  25.612   2.733   0.813
11156W        W74913  31.988   8.305  11.579
11157W        W74914  21.057   6.684   3.338
11158W        W74915  14.220  10.826  12.840
11159W        W74916  23.635  40.960   1.380
11160W        W74917   0.876  40.983   0.742
11161W        W74918   6.861  39.346   9.626
11162W        W74919   9.846   5.718  11.034
11163W        W74920  33.875  40.825   1.790
11164W        W74921  39.371  42.301  10.997
11165W        W74922  36.433  16.087   3.798
11166W        W74923  27.997  30.008   2.334
11167W        W74924  13.782  37.398   1.906
11168W        W74925  36.927  15.799   1.833
11169W        W74926  44.922   0.289   1.443
11170W        W74927  20.234  40.386   0.284
11171W        W74928  27.510  17.150   2.743
11172W        W74929  40.500  41.459  12.518
11173W        W74930  15.132  35.462  13.851
11174W        W74931  25.040   5.848   3.665
11175W        W74932  27.605  41.378  14.993
11176W        W74933   5.830  12.197  14.288
11177W        W74934  38.479  12.248   2.310
11178W        W74935  21.252  19.184   4.655
11179W        W74936   9.865   6.422   4.827
11180W        W74937  18.296  14.611   1.935
11181W        W74938   8.250  24.513   4.638
11182W        W74939  29.664   8.657   3.347
11183W        W74940  32.967  10.680  12.000
11184W        W74941  18.155  30.509  11.581
11185W        W74942  38.474  10.157   2.391
11186W        W74943  42.786  11.297  13.833
11187W        W74944  36.851  24.496   0.829
11188W        W74945  40.951   2.227   5.101
11189W        W74946  16.678   3.755   2.673
11190W        W74947  38.564  36.065  14.397
11191W        W74948  29.167  28.016  12.536
11192W        W74949  31.485  23.224   4.323
11193W        W74950   2.313  15.620  10.153
11194W        W74951  40.352  37.010   1.784
11195W        W74952   2.853  38.845  13.382
11196W        W74953  38.837  26.051   4.675
11197W        W74954  12.225   4.845   0.417
11198W        W74955   7.777  41.502  12.860
11199W        W74956  11.858  32.451  13.948
11200W        W74957  28.979  21.740  11.911
11201W        W74958  43.789  21.540   2.760
11202W        W74959  17.227  33.076  11.883
11203W        W74960  24.505  12.778   0.330
11204W        W74961  30.646  28.996   2.764
11205W        W74962  32.536  30.529   1.790
11206W        W74963   3.877  36.998   1.450
11207W        W74964  28.556  43.965   0.272
11208W        W74965  16.593  26.068  14.363
11209W        W74966  26.964  21.545  14.787
11210W        W74967  11.669  27.162  12.513
11211W        W74968  31.083  12.755   3.716
11212W        W74969  34.054   1.804   3.381
11213W        W74970  28.991  14.673   3.300
11214W        W74971  22.744  15.627  13.919
11215W        W74972  25.177  25.085   3.182
11216W        W74973   8.374  28.017  11.993
11217W        W74974  36.046  39.382   0.866
11218W        W74975  19.130  18.575   3.361
11219W        W74976  38.889  43.340   3.703
11220W        W74977  31.932  37.880  11.384
11221W        W74978  34.879  39.488  13.921
11222W        W74979  44.434  33.588   2.319
11223W        W74980  22.606   5.248  13.410
11224W        W74981   3.824  22.125  13.796
11225W        W74982   5.400  14.108   4.719
11226W        W74983  29.920   6.308   2.703
11227W        W74984  11.665  43.766  10.465
11228W        W74985  21.022  38.388  10.130
11229W        W74986  15.222  41.975  11.055
11230W        W74987  34.935  30.481   2.374
11231W        W74988  30.501  36.391  11.435
11232W        W74989  32.913   5.914   1.895
11233W        W74990  26.566  32.551  10.507
11234W        W74991   5.913  44.289   9.630
11235W        W74992  40.011  26.524  12.575
11236W        W74993   8.295  41.314   1.442
11237W        W74994  14.757   0.386  13.050
11238W        W74995  18.601  23.241  13.365
11239W        W74996  35.902  42.489  12.021
11240W        W74997   7.281   3.274   2.882
11241W        W74998  39.360  23.606   1.260
11242W        W74999  40.375   6.319   1.717
11243W        W75000  18.572  24.508  12.551
11244W        W75001  37.523  28.032   2.369
11245W        W75002  13.241  37.076  12.014
11246W        W75003  41.978  11.663   4.220
11247W        W75004  11.266  18.272  14.487
11248W        W75005  32.493  17.686   1.383
11249W        W75006  17.663  29.559   4.115
11250W        W75007  26.471   5.382   2.262
11251W        W75008  29.130  15.233   0.386
11252W        W75009  34.409  21.113  13.508
11253W        W75010  39.847   0.932   0.886
11254W        W75011  19.259   3.930  14.418
11255W        W75012   3.838  26.995   4.730
11256W        W75013  36.085  23.226   3.808
11257W        W75014   5.362  37.970   4.292
11258W        W75015  36.019   9.687   3.161
11259W        W75016   3.405  33.468   1.357
11260W        W75017  16.090  32.111   3.829
11261W        W75018  27.467  28.116   1.219
11262W        W75019  35.054   5.232   2.854
11263W        W75020  14.718   7.802   2.870
11264W        W75021  11.368   5.436   4.314
11265W        W75022  38.486  34.414  11.445
11266W        W75023  42.479   7.666   2.824
11267W        W75024  11.336  38.918   3.830
11268W        W75025  40.967  13.158   4.273
11269W        W75026   9.263  17.220   2.723
11270W        W75027  39.906   0.927  12.047
11271W        W75028   3.840   1.477   2.231
11272W        W75029  18.655  30.063   2.193
11273W        W75030   4.373  41.794   2.236
11274W        W75031  30.641  11.859   5.236
11275W        W75032  40.530  17.590  11.475
11276W        W75033   1.901  17.202  11.889
11277W        W75034  34.605  40.499   3.752
11278W        W75035  36.929  38.074   3.250
11279W        W75036  25.704  41.924  11.017
11280W        W75037  39.423   0.874  12.395
11281W        W75038   1.478   7.299  14.494
11282W        W75039   3.218   8.182  11.981
11283W        W75040  25.639  35.945  10.552
11284W        W75041  15.241   6.245   0.730
11285W        W75042  12.806  40.035   4.207
11286W        W75043  31.039   4.421  12.871
11287W        W75044  31.968   8.329   0.759
11288W        W75045  20.172  37.962   3.729
11289W        W75046  33.530  13.659   0.860
11290W        W75047  20.201   4.318   3.184
11291W        W75048   2.320  41.440   3.256
11292W        W75049  19.719   5.287  12.041
11293W        W75050  40.374  29.570  14.480
11294W        W75051   7.280   4.330   3.186
11295W        W75052   6.317  37.575  10.975
11296W        W75053  37.576  38.907   4.191
11297W        W75054  37.929  41.466  11.124
11298W        W75055  36.544  32.136   1.214
11299W        W75056  35.577  14.798  13.375
11300W        W75057  23.065   3.820  13.382
11301W        W75058  15.789  31.033  14.424
11302W        W75059   0.901   1.434  12.896
11303W        W75060  35.007  20.067  12.530
11304W        W75061  40.343  27.532  11.874
11305W        W75062   7.210  27.520  10.936
11306W        W75063  29.431  11.704  11.538
11307W        W75064  33.523  31.003   0.337
11308W        W75065   6.804  43.496   1.791
11309W        W75066  33.460  14.318  12.032
11310W        W75067  37.553  21.235  12.489
11311W        W75068  18.060  36.021  14.768
11312W        W75069  14.752  17.219   0.909
11313W        W75070  43.956  19.130   3.854
11314W        W75071  28.532  34.409  13.454
11315W        W75072  28.461   2.431  12.988
11316W        W75073   1.347  30.042  14.999
11317W        W75074  28.493  39.459   3.250
11318W        W75075  10.831  41.346  14.846
11319W        W75076  44.942  43.848   2.863
11320W        W75077   1.765  31.103   0.937
11321W        W75078   1.951  13.148   4.619
11322W        W75079  31.959  20.550   1.933
11323W        W75080  36.477   8.331   3.321
11324W        W75081   8.287  11.129   4.788
11325W        W75082  28.646  21.629   2.290
11326W        W75083   0.762  35.024  12.003
11327W        W75084  22.031   0.461  12.937
11328W        W75085  21.551  31.627   0.294
11329W        W75086  43.281  19.725  14.014
11330W        W75087  21.712  30.107   1.904
11331W        W75088  38.825  16.798  13.319
11332W        W75089  37.489   9.358   2.200
11333W        W75090  40.492  34.527   4.623
11334W        W75091  34.513   3.766  14.485
11335W        W75092   1.317  15.174  11.941
11336W        W75093  31.582   3.867  11.012
11337W        W75094  36.397  10.218   1.813
11338W        W75095  10.772   6.881   3.777
11339W        W75096  14.778   0.413   4.646
11340W        W75097  44.457   0.466  12.521
11341W        W75098  15.777  16.080  14.016
11342W        W75099  19.081  40.872   3.657
11343W        W75100  37.088  31.076  14.364
11344W        W75101   9.845   6.836  12.859
11345W        W75102  38.923  35.073  14.875
11346W        W75103  30.950  30.478   1.384
11347W        W75104  25.160   0.945  10.999
11348W        W75105  34.564  13.183   3.693
11349W        W75106  34.936  36.097  14.991
11350W        W75107  17.606  32.907   0.365
11351W        W75108  15.600  40.046  14.494
11352W        W75109  18.090  36.516   0.922
11353W        W75110  31.933  11.283  14.510
11354W        W75111  43.364  44.317   4.807
11355W        W75112  20.635  20.076   0.267
11356W        W75113   2.418   8.823   4.741
11357W        W75114  28.138  37.441   0.774
11358W        W75115  26.640  36.967   1.293
11359W        W75116  36.863  25.665   2.836
11360W        W75117  20.230  30.442   0.929
11361W        W75118  33.932  30.009  10.412
11362W        W75119  27.948   1.396  12.497
11363W        W75120   8.775  16.790   0.286
11364W        W75121   1.343  36.564   2.207
11365W        W75122  19.162  13.258   0.767
11366W        W75123  28.166  10.637  12.057
11367W        W75124  19.090  35.533   9.979
11368W        W75125  18.702  28.167   4.658
11369W        W75126  23.632  28.046   0.763
11370W        W75127  28.478  29.941  10.918
11371W        W75128  37.031  41.458   3.799
11372W        W75129   4.862  10.704  12.954
11373W        W75130   4.877   9.302  11.516
11374W        W75131  26.638  43.969   0.353
11375W        W75132  28.112  20.685  11.947
11376W        W75133  35.463  28.076   4.145
11377W        W75134  22.585  20.227   1.772
11378W        W75135  31.141  15.709   2.716
11379W        W75136   8.323  38.402   4.140
11380W        W75137   3.954   1.774   0.732
11381W        W75138  34.972  40.318   2.293
11382W        W75139  23.073  42.459  11.479
11383W        W75140  40.537  12.835   1.784
11384W        W75141  40.382   7.387  10.405
11385W        W75142  41.416   1.267   2.803
11386W        W75143   6.851  42.924   0.870
11387W        W75144  12.293  12.758  13.408
11388W        W75145  12.678  28.031  12.453
11389W        W75146   0.914  27.499   1.308
11390W        W75147  39.394  21.098  13.916
11391W        W75148  20.665  36.572  11.493
11392W        W75149  40.519  34.115  14.365
11393W        W75150   4.710  37.559   5.307
11394W        W75151  41.928   8.746  14.904
11395W        W75152  24.077  44.794  13.796
11396W        W75153   4.386  30.968  13.466
11397W        W75154  21.569  43.297  12.831
11398W        W75155  10.656  42.820  14.949
11399W        W75156  10.315  17.197  10.995
11400W        W75157  12.140  11.150  13.929
11401W        W75158  35.044  15.717   0.961
11402W        W75159   9.787   6.681  11.002
11403W        W75160  42.011  31.500   4.801
11404W        W75161   9.786  43.972  12.882
11405W        W75162  26.537  39.829   2.887
11406W        W75163  32.945  20.572  12.984
11407W        W75164  31.917  37.409   1.408
11408W        W75165  41.980  15.093  11.439
11409W        W75166  10.791  41.026   3.202
11410W        W75167   4.287  14.630   4.606
11411W        W75168  33.585  33.904  13.415
11412W        W75169   2.748   7.875  13.496
11413W        W75170  16.689   2.253  13.927
11414W        W75171  13.671  33.077   1.796
11415W        W75172   3.353  44.347  11.044
11416W        W75173  41.800  29.148  11.541
11417W        W75174   7.327   3.770   2.693
11418W        W75175  28.995  38.922  13.500
11419W        W75176  20.058  38.355  11.047
11420W        W75177   1.238   7.283  10.570
11421W        W75178   0.311  24.063  14.508
11422W        W75179  19.150  15.582  14.833
11423W        W75180  36.917  39.930  11.913
11424W        W75181  12.699  23.513  11.025
11425W        W75182   6.336  42.987   5.597
11426W        W75183  19.627   9.190  10.513
11427W        W75184  44.471   0.923  14.306
11428W        W75185  26.955  25.120   9.483
11429W        W75186  35.003  19.669   4.748
11430W        W75187  17.563  18.700   3.166
11431W        W75188  37.862   0.275  14.786
11432W        W75189  29.000  35.532   0.480
11433W        W75190  32.896  40.344   4.141
11434W        W75191  38.969   7.260  14.892
11435W        W75192   3.220  19.080  10.944
11436W        W75193  41.986  40.441   0.260
11437W        W75194   8.292   5.354  10.597
11438W        W75195  43.873   2.396  11.472
11439W        W75196  44.348  44.960  12.036
11440W        W75197  13.269  16.621   0.469
11441W        W75198  23.124  31.105   4.611
11442W        W75199  24.230  17.736   4.190
11443W        W75200  25.484  17.567  12.507
11444W        W75201  14.666  44.356   3.239
11445W        W75202  20.172   7.242  10.007
11446W        W75203  44.296   9.179   3.299
11447W        W75204  37.503  41.978   0.309
11448W        W75205  33.058   9.237   4.249
11449W        W75206   1.972   5.866  14.828
11450W        W75207  18.694  16.596   2.261
11451W        W75208  40.003  13.780   3.349
11452W        W75209  17.658  17.228  11.919
11453W        W75210  34.381  43.313   4.672
11454W        W75211  27.653  15.167  11.410
11455W        W75212  28.032  24.663   2.258
11456W        W75213  10.871  22.091   4.212
11457W        W75214  32.122  22.529   4.777
11458W        W75215  31.077  21.263   3.288
11459W        W75216  33.452  41.923   1.439
11460W        W75217   1.838  23.224   2.795
11461W        W75218  22.200   4.315  12.429
11462W        W75219   5.775  27.048  13.937
11463W        W75220  40.846  43.857   1.840
11464W        W75221  39.359   8.247   1.372
11465W        W75222   7.283  17.794   0.763
11466W        W75223  44.390  19.594  13.892
11467W        W75224  26.610  23.500   2.723
11468W        W75225  21.024  40.013  12.421
11469W        W75226  24.142  40.330   1.212
11470W        W75227  37.340  15.640   2.756
11471W        W75228  30.089   5.918  14.954
11472W        W75229  29.566   0.931  10.444
11473W        W75230  23.191  23.118   3.235
11474W        W75231  35.506  25.660  11.534
11475W        W75232  44.926   5.760  14.015
11476W        W75233  30.040  41.884  14.929
11477W        W75234  27.077  34.406   1.291
11478W        W75235  22.025  30.644  14.975
11479W        W75236  38.035  42.415  10.995
11480W        W75237  27.022  28.964   1.836
11481W        W75238  19.596  23.626   2.827
11482W        W75239  20.582  14.752   3.337
11483W        W75240  20.257   6.413   3.378
11484W        W75241   9.337  32.409   2.725
11485W        W75242  27.132   0.867   2.352
11486W        W75243  14.701  24.051   0.287
11487W        W75244  20.639  27.001   2.889
11488W        W75245  44.975  19.231   2.216
11489W        W75246  12.820  10.659   3.191
11490W        W75247  35.601  11.741  11.566
11491W        W75248  13.197   6.745  13.040
11492W        W75249  27.691  40.529   3.678
11493W        W75250   2.946   1.807   1.331
11494W        W75251  13.152  19.101  13.866
11495W        W75252  33.974  34.529   1.251
11496W        W75253   3.867  38.012   2.298
11497W        W75254   3.905  44.373  12.888
11498W        W75255   7.867  39.917   1.387
11499W        W75256  42.877  34.043   1.832
11500W        W75257  13.138  24.675   2.674
11501W        W75258  18.287   7.878   1.887
11502W        W75259  10.769  33.564   4.687
11503W        W75260  40.916  39.415  12.513
11504W        W75261  20.596   3.721  10.410
11505W        W75262  22.202  11.762   2.269
11506W        W75263  37.076   8.365  12.955
11507W        W75264   3.916  29.653   0.947
11508W        W75265   0.937  33.027  11.562
11509W        W75266  25.992   2.440  11.501
11510W        W75267   9.740   6.278   0.356
11511W        W75268   9.730  40.437   2.286
11512W        W75269   1.458  44.340  11.493
11513W        W75270   6.860  15.719  12.480
11514W        W75271  11.333  40.862   4.748
11515W        W75272  12.148  19.228  11.114
11516W        W75273  24.156  13.263  14.944
11517W        W75274  30.984  41.500  10.972
11518W        W75275  25.030   3.454  14.290
11519W        W75276  20.199  37.480   0.257
11520W        W75277  38.892  44.297  13.951
11521W        W75278  33.570  27.460  14.488
11522W        W75279   4.238  36.584   3.765
11523W        W75280  41.961  12.733  13.024
11524W        W75281  20.272  24.652  11.391
11525W        W75282  18.605  30.061  11.999
11526W        W75283  11.705   2.776   0.435
11527W        W75284  44.797  12.222  14.381
11528W        W75285  43.405   8.396   0.743
11529W        W75286  38.039  18.057  13.020
11530W        W75287   8.741  42.310   0.833
11531W        W75288  37.012  20.678  12.958
11532W        W75289  44.957  44.826  10.601
11533W        W75290  25.468  39.019   1.808
11534W        W75291  13.113  27.949   5.258
11535W        W75292   3.409  44.469  14.900
11536W        W75293  40.521  43.959   2.399
11537W        W75294   6.715  31.089  12.548
11538W        W75295  38.449   0.430  14.913
11539W        W75296  27.126  36.476  14.014
11540W        W75297  10.221  28.500  11.995
11541W        W75298  17.723   2.919  12.522
11542W        W75299  20.699  17.174  10.963
11543W        W75300  36.389  29.008   4.805
11544W        W75301  42.796  30.476  11.974
11545W        W75302  11.826  18.271  11.987
11546W        W75303  21.127  32.991  10.947
11547W        W75304  21.249  39.450  12.527
11548W        W75305  18.652   5.410  10.967
11549W        W75306  24.673  36.849   0.887
11550W        W75307  39.518  37.919  11.036
11551W        W75308  14.821  13.756  13.465
11552W        W75309  43.507  15.720  12.946
11553W        W75310  15.641  23.147  11.484
11554W        W75311   7.819  20.079  13.980
11555W        W75312   0.366  28.588  12.074
11556W        W75313  43.989  35.081  13.817
11557W        W75314  43.859   6.715   4.125
11558W        W75315   9.157   8.238  12.861
11559W        W75316   6.844   3.402  12.069
11560W        W75317  30.454  27.058  12.860
11561W        W75318  21.089  35.418   1.887
11562W        W75319  30.618  26.008   1.257
11563W        W75320  40.926  25.083  11.607
11564W        W75321  25.030   4.862   4.203
11565W        W75322   2.436   6.810  13.941
11566W        W75323  29.607  16.266   5.242
11567W        W75324   7.806  16.566   3.846
11568W        W75325  20.717   3.273  12.374
11569W        W75326  36.377  34.947  13.841
11570W        W75327  35.023  36.380  14.317
11571W        W75328  36.879  27.977   0.380
11572W        W75329  34.496  37.989   3.173
11573W        W75330  16.585   0.455   3.629
11574W        W75331  44.949  13.775  13.899
11575W        W75332  20.062  18.241   1.431
11576W        W75333  30.940  25.471  14.967
11577W        W75334   8.798  36.465  14.485
11578W        W75335   4.356  33.102   3.665
11579W        W75336  18.269  11.353   2.903
11580W        W75337  42.521  30.984  11.111
11581W        W75338  30.482  11.795  13.377
11582W        W75339  33.913  39.812   0.851
11583W        W75340  27.944  30.018   3.649
11584W        W75341  11.853  21.733   3.232
11585W        W75342  23.214  17.742  11.040
11586W        W75343   8.723   2.860   1.392
11587W        W75344  22.093   2.955  12.483
11588W        W75345  28.978   5.437   3.702
11589W        W75346  12.700  13.666  13.028
11590W        W75347  20.548  36.992   1.252
11591W        W75348  30.483  38.857  14.389
11592W        W75349  39.022   7.177  13.513
11593W        W75350  41.301  17.219   1.731
11594W        W75351  19.702  25.523   4.659
11595W        W75352   9.645  10.813   1.301
11596W        W75353  42.818  35.541  14.358
11597W        W75354  13.227   0.248   5.288
11598W        W75355  10.854   7.205  13.865
11599W        W75356  44.301  11.658  12.849
11600W        W75357   3.725  16.740  14.766
11601W        W75358  25.200  24.084  11.914
11602W        W75359  14.657  36.917  11.603
11603W        W75360  15.149  27.983  12.414
11604W        W75361  34.885  39.378  11.077
11605W        W75362   0.428  15.802   0.483
11606W        W75363  17.212  30.045  12.074
11607W        W75364  23.203  14.243  12.928
11608W        W75365  39.977  21.150  14.951
11609W        W75366  16.094   0.767   4.794
11610W        W75367   2.270   6.261   0.421
11611W        W75368   1.257   2.961  14.970
11612W        W75369  19.261  25.020  10.638
11613W        W75370   3.860  29.141  11.033
11614W        W75371  29.483   2.385   4.754
11615W        W75372  30.956  30.091   2.737
11616W        W75373  12.154  41.007   0.424
11617W        W75374  14.727  16.776   2.384
11618W        W75375  27.957  37.431   1.436
11619W        W75376  24.208  35.602  11.404
11620W        W75377  11.212  13.186  13.908
11621W        W75378  13.298  30.482   2.237
11622W        W75379  23.195   0.447  11.501
11623W        W75380  29.078  21.709   0.888
11624W        W75381  38.034  27.141   0.794
11625W        W75382  32.488  22.141   4.679
11626W        W75383   5.283  19.770  11.457
11627W        W75384  35.534  39.439   4.175
11628W        W75385  36.584  38.358  12.989
11629W        W75386   5.338  33.567  14.320
11630W        W75387  39.449  28.619  10.906
11631W        W75388  10.354  35.445  13.927
11632W        W75389   5.332   8.697   0.841
11633W        W75390  38.434   1.419   3.734
11634W        W75391  39.864  19.232   1.302
11635W        W75392  40.049  34.522   2.751
11636W        W75393  10.877  19.749  14.486
11637W        W75394   3.759   8.892  12.886
11638W        W75395  32.919  38.518  11.569
11639W        W75396   0.325  28.671  13.347
11640W        W75397  36.403  36.001  11.107
11641W        W75398  25.636  14.225   1.852
11642W        W75399  22.205  26.565   5.298
11643W        W75400   3.338  24.612  13.322
11644W        W75401  13.273   7.401   3.323
11645W        W75402  23.658  38.372  13.805
11646W        W75403  16.751   5.384  14.427
11647W        W75404  35.490  24.565  14.438
11648W        W75405  27.965  10.352  12.557
11649W        W75406  15.605  35.867  13.459
11650W        W75407  25.203  40.434  12.888
11651W        W75408  35.093  41.996   2.400
11652W        W75409  31.908   1.834  12.425
11653W        W75410  35.459  38.932  12.483
11654W        W75411   7.362   1.857  10.477
11655W        W75412  17.757   4.794  13.018
11656W        W75413  35.371  26.098  12.562
11657W        W75414   0.784  26.561  11.073
11658W        W75415  36.087  44.326  14.476
11659W        W75416  14.653  33.568   3.635
11660W        W75417   0.807   1.446  14.310
11661W        W75418  44.449  32.507  12.859
11662W        W75419  35.540  33.085   0.282
11663W        W75420  35.092  22.741   3.288
11664W        W75421   7.799  27.197  14.968
11665W        W75422  18.277  31.546   3.203
11666W        W75423   4.886  24.174   3.334
11667W        W75424  15.616  29.477  11.586
11668W        W75425  43.913  24.615   3.161
11669W        W75426  17.584   6.682   3.298
11670W        W75427  28.446   0.875   4.260
11671W        W75428  43.353  15.170  12.013
11672W        W75429  23.062  12.664   4.129
11673W        W75430  39.029  34.557   0.379
11674W        W75431   9.821  28.151  11.518
11675W        W75432  27.134   5.210   3.245
11676W        W75433   1.754  15.702   4.650
11677W        W75434   6.920  40.333  11.613
11678W        W75435  33.571  31.641  10.500
11679W        W75436  38.042  39.820  13.996
11680W        W75437   9.653  43.282   1.773
11681W        W75438   0.339  17.078   3.736
11682W        W75439  34.420  12.180  12.010
11683W        W75440  17.168   8.752  12.528
11684W        W75441  25.550  29.642  13.364
11685W        W75442  16.102   7.709  12.341
11686W        W75443  39.970  15.733   2.222
11687W        W75444  23.067  43.934   3.374
11688W        W75445   8.279  33.436   1.264
11689W        W75446   6.362  23.173   0.911
11690W        W75447  30.035  31.951   0.923
11691W        W75448   0.763   4.734  10.970
11692W        W75449  35.862  29.135   0.354
11693W        W75450  23.723  18.741   0.343
11694W        W75451  18.720  11.167  14.907
11695W        W75452   1.934   8.728   3.852
11696W        W75453  10.772  31.092   2.770
11697W        W75454  27.680  30.137  11.552
11698W        W75455  39.064  28.535  11.426
11699W        W75456  15.085  17.084  14.402
11700W        W75457  13.772   6.394   4.268
11701W        W75458  16.628  42.346   1.820
11702W        W75459   8.169  35.373  10.963
11703W        W75460  15.780  35.017   2.245
11704W        W75461  19.705  44.496  11.946
11705W        W75462  34.952  21.182  12.019
11706W        W75463   1.252  34.462  14.880
11707W        W75464  21.096   9.843  13.931
11708W        W75465  31.479  42.939   0.754
11709W        W75466  13.277  10.855  13.385
11710W        W75467  39.372  26.701   4.284
11711W        W75468  43.269  23.185   2.282
11712W        W75469  30.641  15.741  11.595
11713W        W75470  35.392  37.384   3.180
11714W        W75471   5.891  19.166   0.391
11715W        W75472   5.415  39.917   0.744
11716W        W75473  18.112  29.015   2.795
11717W        W75474   8.786  27.480   3.716
11718W        W75475  43.887  40.849  12.393
11719W        W75476  43.873  15.759   1.917
11720W        W75477  35.911  21.589  11.963
11721W        W75478  15.670  40.857  11.867
11722W        W75479   1.769  38.465   1.905
11723W        W75480  22.039  15.319  10.585
11724W        W75481   4.239  27.493  10.560
11725W        W75482  15.824   4.834  13.361
11726W        W75483  24.008  28.152  11.548
11727W        W75484  28.642  35.033  10.455
11728W        W75485   6.716  16.611  11.376
11729W        W75486  22.617  10.193  12.837
11730W        W75487  42.960  28.438  11.973
11731W        W75488  22.650  28.097  13.332
11732W        W75489   9.235   7.253   1.308
11733W        W75490  16.265  25.202   0.731
11734W        W75491  15.666  31.482   1.906
11735W        W75492   6.679   8.306  12.969
11736W        W75493  36.472  20.640  10.416
11737W        W75494  35.564   6.871   2.674
11738W        W75495  31.494  19.180  14.906
11739W        W75496   4.924  14.627   0.802
11740W        W75497  42.363  37.945   0.370
11741W        W75498  21.577  17.222  10.626
11742W        W75499  42.292  40.993  13.938
11743W        W75500  34.439  14.237   2.362
11744W        W75501   1.456  11.170  12.997
11745W        W75502  39.946  29.461  14.423
11746W        W75503   4.412  39.855  13.887
11747W        W75504   7.212   4.768   3.318
11748W        W75505   2.769  40.819   1.905
11749W        W75506  44.955  43.765  13.316
11750W        W75507  28.038  11.199  12.941
11751W        W75508   7.890  28.159   1.240
11752W        W75509   2.359  37.424  13.913
11753W        W75510  17.781   4.779   0.330
11754W        W75511  15.766   7.211   1.253
11755W        W75512   3.785  12.657   4.245
11756W        W75513  14.643  22.141  13.516
11757W        W75514  38.387  31.139   2.230
11758W        W75515  34.110   4.445   1.272
11759W        W75516  10.849  32.004  10.957
11760W        W75517  11.301  36.010   1.840
11761W        W75518   7.352  44.448  12.344
11762W        W75519  38.505  10.241   0.851
11763W        W75520  10.871  26.040   2.841
11764W        W75521   1.336   0.369  13.524
11765W        W75522  16.119  23.059   1.897
11766W        W75523  35.084  24.144  10.444
11767W        W75524  20.246  41.890  13.431
11768W        W75525  24.229  26.507  14.489
11769W        W75526  11.200  42.992  12.544
11770W        W75527  23.520  31.495   2.834
11771W        W75528  26.690  36.549   1.364
11772W        W75529  26.951  39.461   0.860
11773W        W75530  42.810   7.282  12.495
11774W        W75531  30.030   5.859  12.051
11775W        W75532  20.616   7.881   1.298
11776W        W75533  42.440  38.475   3.633
11777W        W75534  28.113  28.461  11.892
11778W        W75535   0.328  26.582  14.802
11779W        W75536   6.356  44.399  14.861
11780W        W75537  27.020  34.886   0.382
11781W        W75538  36.454  24.215   3.380
11782W        W75539  41.393  16.754  13.419
11783W        W75540  25.500  39.853  13.431
11784W        W75541   9.257   9.703   1.222
11785W        W75542  28.949   5.245   1.779
11786W        W75543  13.188   9.734   2.307
11787W        W75544  28.435  42.332   1.768
11788W        W75545   8.869  36.094   0.438
11789W        W75546  34.014   6.828   0.461
11790W        W75547  39.818  33.509  10.639
11791W        W75548  17.563  36.362   2.224
11792W        W75549   1.351  42.294   3.833
11793W        W75550   3.911  11.735   3.823
11794W        W75551  25.152  20.158   4.176
11795W        W75552  36.517  36.376   0.394
11796W        W75553  35.535  17.703  12.084
11797W        W75554   6.262   3.929   1.451
11798W        W75555  22.652  14.319  12.052
11799W        W75556  17.724   6.246   4.665
11800W        W75557  44.765  41.949   4.729
11801W        W75558  43.294  24.116  12.553
11802W        W75559   5.865  34.945   2.819
11803W        W75560  15.126  35.083  13.806
11804W        W75561  14.797  15.088  11.904
11805W        W75562  30.487  25.026  14.780
11806W        W75563  21.236  30.069  12.407
11807W        W75564  16.225  31.416  13.529
11808W        W75565  37.400  33.521   3.716
11809W        W75566  42.883  44.954   2.330
11810W        W75567  38.985  36.918   3.280
11811W        W75568  13.605  33.058   4.207
11812W        W75569  13.275   9.230   4.741
11813W        W75570  23.554  42.838   0.391
11814W        W75571  37.964   9.760   0.386
11815W        W75572   4.442  33.586  11.380
11816W        W75573  13.731   9.646  14.902
11817W        W75574   6.302  21.675  13.517
11818W        W75575   2.269   4.266   3.739
11819W        W75576  24.481  41.417   0.373
11820W        W75577  42.828  26.032  13.796
11821W        W75578  17.139  18.213   3.191
11822W        W75579  27.549  28.056  11.887
11823W        W75580  28.097  24.636  10.465
11824W        W75581   7.387  38.570  11.039
11825W        W75582  30.473  29.056  12.579
11826W        W75583   5.360   5.358  11.416
11827W        W75584   1.733  38.988  11.063
11828W        W75585  22.189   8.727  13.894
11829W        W75586  42.921  37.967  14.790
11830W        W75587  15.765  17.771  14.003
11831W        W75588   0.452   8.747  14.410
11832W        W75589  36.443  22.630   4.750
11833W        W75590  41.894  22.683  14.975
11834W        W75591  39.048  18.203  12.000
11835W        W75592  38.012  44.319  11.866
11836W        W75593  10.716  15.307  12.520
11837W        W75594  25.527  25.711   4.237
11838W        W75595   3.368   6.857   0.291
11839W        W75596  15.304  36.484  11.406
11840W        W75597  11.330  20.138   4.826
11841W        W75598  41.971  18.745  14.883
11842W        W75599  35.564  13.206   1.410
11843W        W75600  34.032  37.908   1.225
11844W        W75601   3.841  39.938   1.308
11845W        W75602   4.739  24.169  14.413
11846W        W75603  20.540  40.547   1.699
11847W        W75604   0.280  36.443   2.399
11848W        W75605  29.556  31.611  10.606
11849W        W75606  19.625  32.043   0.935
11850W        W75607  19.742  33.997   1.323
11851W        W75608  28.488   7.346   1.362
11852W        W75609   7.331  37.343   2.796
11853W        W75610  24.560  40.833   3.156
11854W        W75611  43.488  44.969  13.881
11855W        W75612  24.130  20.702   4.694
11856W        W75613  16.150   4.911   0.281
11857W        W75614   1.932  41.971   0.927
11858W        W75615  25.634  18.092   3.267
11859W        W75616  42.461   2.866   3.731
11860W        W75617  28.469  43.335  11.488
11861W        W75618  35.596  13.637   4.205
11862W        W75619  29.631  35.565   0.734
11863W        W75620   7.309   7.270  12.909
11864W        W75621  43.861  23.124   0.462
11865W        W75622  11.644  30.559   5.181
11866W        W75623  35.868   4.378   2.343
11867W        W75624  35.583  18.166   3.805
11868W        W75625  33.894   7.290  10.974
11869W        W75626  27.610  29.134  13.992
11870W        W75627  31.465  39.546   0.279
11871W        W75628  35.998  44.270  14.911
11872W        W75629   5.251  42.898  10.028
11873W        W75630   7.290  16.232   0.923
11874W        W75631  18.100  17.787  12.860
11875W        W75632  24.590   8.214  11.899
11876W        W75633  32.987  32.571   1.240
11877W        W75634  16.665  34.532   0.807
11878W        W75635   9.885   5.197   2.699
11879W        W75636  14.117  27.585   3.262
11880W        W75637  22.019   9.323   4.161
11881W        W75638   8.668  43.495   3.798
11882W        W75639  35.594  16.196  14.469
11883W        W75640  25.056  28.518   3.648
11884W        W75641   5.343  15.317   2.711
11885W        W75642  11.159  43.996  11.520
11886W        W75643   6.428  41.397  10.158
11887W        W75644  38.981  30.149   0.388
11888W        W75645  25.132  15.328   4.798
11889W        W75646   7.212   6.788   2.816
11890W        W75647  33.393  16.091   3.663
11891W        W75648   1.873  34.408   0.327
11892W        W75649  14.118  22.999   4.165
11893W        W75650   4.329  26.536   3.732
11894W        W75651  43.808  44.807  10.583
11895W        W75652  11.752  23.998   5.279
11896W        W75653  41.976  11.643   4.700
11897W        W75654  29.535  27.074  11.465
11898W        W75655  31.049  26.991  12.341
11899W        W75656  43.401  32.034   0.329
11900W        W75657  31.904  20.666  10.591
11901W        W75658  30.506  21.699   1.814
11902W        W75659  27.479  17.683  12.017
11903W        W75660   9.779  31.129  11.465
11904W        W75661  25.561   8.372   0.378
11905W        W75662  40.857  38.524   2.886
11906W        W75663  24.031  25.083  11.993
11907W        W75664  35.418  36.067  10.498
11908W        W75665  29.592   3.359   5.296
11909W        W75666   0.849   3.931  14.439
11910W        W75667  29.432  41.296  12.894
11911W        W75668  15.127  15.256   1.362
11912W        W75669  38.389  34.908  12.407
11913W        W75670   2.740  28.541  12.027
11914W        W75671  33.559   5.436   3.207
11915W        W75672  40.874   4.238   0.966
11916W        W75673  29.640  17.783   2.895
11917W        W75674  10.327  37.418  12.535
11918W        W75675   9.882  15.123   0.951
11919W        W75676  43.370  26.462   2.347
11920W        W75677   5.302  43.511  10.530
11921W        W75678  32.489   6.292  13.327
11922W        W75679  19.222  35.401   2.859
11923W        W75680  41.934   8.310  12.062
11924W        W75681  36.951  18.682  14.471
11925W        W75682  27.486   7.813  10.514
11926W        W75683  12.614  35.040  13.344
11927W        W75684  24.107   0.359  14.440
11928W        W75685  15.755  37.946   3.207
11929W        W75686  38.923   2.447  12.536
11930W        W75687  43.438  33.608   0.805
11931W        W75688  19.568  40.317  11.492
11932W        W75689  31.458  29.945   1.824
11933W        W75690   4.708   6.256   3.196
11934W        W75691  10.767  38.077   4.128
11935W        W75692  33.542  35.425   2.818
11936W        W75693   6.906  33.114  10.514
11937W        W75694  36.581   7.258   2.832
11938W        W75695  44.418  42.501  12.428
11939W        W75696  36.441  10.729   0.358
11940W        W75697   1.936  36.992  10.487
11941W        W75698   3.817  20.159   2.215
11942W        W75699  25.183  40.894   4.800
11943W        W75700  30.939   6.853   0.324
11944W        W75701  21.520  44.384   3.207
11945W        W75702  23.526  18.645  11.399
11946W        W75703  19.195  37.977   1.366
11947W        W75704  26.113  29.533  13.395
11948W        W75705   8.389  18.209  14.929
11949W        W75706  28.616  18.077  14.899
11950W        W75707  37.463  16.616   3.702
11951W        W75708  34.400   8.337  14.358
11952W        W75709  44.798  44.772   1.812
11953W        W75710  17.723   3.335  10.973
11954W        W75711  43.812  32.126   2.793
11955W        W75712  15.700  40.021   3.772
11956W        W75713   2.452  34.897   0.763
11957W        W75714  11.862  28.991   2.708
11958W        W75715  30.944  43.933  12.853
11959W        W75716  42.349   8.839   4.641
11960W        W75717  13.627  26.676  13.982
11961W        W75718  23.029   9.156   3.748
11962W        W75719  24.122  21.119  13.980
11963W        W75720  42.398  28.626   2.799
11964W        W75721  44.455  41.968   3.315
11965W        W75722  13.184  39.830   4.667
11966W        W75723   4.820  37.059  12.882
11967W        W75724  22.076  10.244  14.453
11968W        W75725  13.325  25.019  12.540
11969W        W75726   2.377   1.877  12.990
11970W        W75727  18.697  22.044  11.081
11971W        W75728   6.739  44.987  13.461
11972W        W75729  40.859  30.009   2.803
11973W        W75730  28.454  19.268  10.951
11974W        W75731  32.913  34.952  14.817
11975W        W75732  19.267  15.683   3.865
11976W        W75733  29.579  14.614   1.876
11977W        W75734  30.596  44.427   1.429
11978W        W75735  15.163  20.544  12.401
11979W        W75736  18.085  35.096  11.004
11980W        W75737  22.658   1.415   2.391
11981W        W75738  41.009  35.426   1.918
11982W        W75739   1.273  38.474   1.304
11983W        W75740  43.440  40.805  10.954
11984W        W75741  40.802  27.986   2.800
11985W        W75742   8.862  14.106  14.303
11986W        W75743  15.143  38.475  14.509
11987W        W75744  12.322  31.102   1.814
11988W        W75745  27.957  41.310  13.426
11989W        W75746  41.945  36.415   4.722
11990W        W75747  27.560  18.692   0.820
11991W        W75748   4.370  21.640  13.493
11992W        W75749   3.440  10.338  13.932
11993W        W75750  21.150  41.888   0.885
11994W        W75751  35.997  35.471   3.314
11995W        W75752  26.551   2.899  10.579
11996W        W75753  27.983   6.358   3.649
11997W        W75754  23.607  21.228   0.321
11998W        W75755  12.276   4.214   1.346
11999W        W75756  32.982  10.856  12.362
12000W        W75757   2.871  21.695  12.482
12001W        W75758   9.879   1.369   3.314
12002W        W75759  30.040  32.418  13.798
12003W        W75760  25.580  26.166   3.361
12004W        W75761   9.841  29.541   4.251
12005W        W75762  16.662  15.778  13.805
12006W        W75763  20.189   7.808  12.530
12007W        W75764  35.439  13.758   0.826
12008W        W75765  29.987  23.519  11.415
12009W        W75766  40.972  33.008   4.186
12010W        W75767  38.024  42.397  12.963
12011W        W75768  38.552  12.144  11.499
12012W        W75769   5.817  41.950   2.751
12013W        W75770   8.711  43.855  12.019
12014W        W75771   3.454  15.200   3.689
12015W        W75772  22.726  17.655  12.513
12016W        W75773  14.724   1.464  13.396
12017W        W75774   6.862  43.341  11.606
12018W        W75775  39.955  43.787  14.998
12019W        W75776  21.580  21.259   3.340
12020W        W75777  16.600  10.637  10.563
12021W        W75778  27.152   1.878  11.877
12022W        W75779  33.404  13.774  12.498
12023W        W75780   5.262   8.809   1.285
12024W        W75781  43.865  12.837   0.396
12025W        W75782  28.600  40.038   1.370
12026W        W75783  31.098  10.750   0.365
12027W        W75784  11.202  15.100   3.692
12028W        W75785  42.842   2.298   4.785
12029W        W75786  32.510  13.121  13.489
12030W        W75787   1.928   5.282  13.406
12031W        W75788  11.239  26.694  14.027
12032W        W75789   7.880   9.237  13.498
12033W        W75790  28.946  21.062  10.994
12034W        W75791  13.721  17.271   1.862
12035W        W75792  27.647  37.963   2.349
12036W        W75793  15.164  20.712  14.904
12037W        W75794  10.214  11.726   3.705
12038W        W75795   9.810   0.320  11.562
12039W        W75796  11.334  21.056  13.393
12040W        W75797   2.293   7.737  14.872
12041W        W75798  44.776  39.846  14.330
12042W        W75799  34.009  33.397   4.753
12043W        W75800  34.555  44.761   2.769
12044W        W75801  18.104   1.296   3.635
12045W        W75802  38.532  27.149  11.962
12046W        W75803  38.545   3.261   5.698
12047W        W75804  24.038  31.444   4.805
12048W        W75805   6.790  23.676   3.796
12049W        W75806  19.091  34.006  11.509
12050W        W75807  36.352  44.866  11.933
12051W        W75808  29.622   9.340   1.316
12052W        W75809   9.332  11.754   9.927
12053W        W75810  24.205   5.197  10.483
12054W        W75811  15.708  28.072   3.300
12055W        W75812   2.337  44.971  12.930
12056W        W75813  10.667  40.377   1.414
12057W        W75814   5.224  23.601   2.831
12058W        W75815  24.497   7.670   2.709
12059W        W75816   9.157   2.776  10.641
12060W        W75817  19.757  41.296   0.845
12061W        W75818  39.918  19.634  13.406
12062W        W75819   8.346  11.717  14.429
12063W        W75820  21.200  18.233   4.117
12064W        W75821  20.550   9.822  10.445
12065W        W75822  21.215  16.314   4.286
12066W        W75823   5.727  35.409   0.422
12067W        W75824  12.750  16.651  10.950
12068W        W75825  34.088  43.382  12.387
12069W        W75826  29.521  11.140   2.785
12070W        W75827  20.578   3.435  13.935
12071W        W75828  11.842  26.005  10.962
12072W        W75829  33.949  41.464   1.762
12073W        W75830  28.452  33.495  12.348
12074W        W75831  41.362  42.506   2.308
12075W        W75832   7.270   6.229   1.392
12076W        W75833  19.702  35.073  12.836
12077W        W75834  32.576  17.636  13.999
12078W        W75835  21.542  13.147  10.502
12079W        W75836  25.991  24.095  11.508
12080W        W75837   5.728   1.776  12.941
12081W        W75838  40.540   4.262   4.260
12082W        W75839  26.498  21.548   0.429
12083W        W75840  26.674   0.362   1.339
12084W        W75841  34.578   5.779   1.737
12085W        W75842  17.774   1.787   1.777
12086W        W75843  44.403  12.837   2.186
12087W        W75844  24.069  11.202   1.218
12088W        W75845   3.240   3.351   1.266
12089W        W75846  29.015  43.844   0.383
12090W        W75847  33.004  27.598  12.851
12091W        W75848  41.860  33.003  12.084
12092W        W75849   3.763  12.119  14.779
12093W        W75850  30.578  38.548   2.388
12094W        W75851  13.610  20.044   3.837
12095W        W75852  35.909  14.733   4.824
12096W        W75853  30.915   2.445   2.339
12097W        W75854  15.215  43.350   0.379
12098W        W75855  10.865  13.282   1.222
12099W        W75856  15.632  34.935   0.274
12100W        W75857  42.512  33.018  14.820
12101W        W75858  12.716  34.964   3.384
12102W        W75859  33.028   0.883  13.489
12103W        W75860  12.636  24.610   1.803
12104W        W75861  37.344  40.497  11.862
12105W        W75862  34.041  26.557   3.801
12106W        W75863   5.418  41.443  12.441
12107W        W75864  44.462  26.063  14.414
12108W        W75865  41.472  15.285  11.099
12109W        W75866  26.610  34.493  14.969
12110W        W75867  28.662   9.191   2.885
12111W        W75868   8.201   0.380   3.176
12112W        W75869   3.862  20.655   2.776
12113W        W75870  35.452  37.886  12.027
12114W        W75871  20.059  37.435  10.034
12115W        W75872  40.512  26.608   3.837
12116W        W75873  11.140  18.222  13.961
12117W        W75874   5.887  17.742  11.584
12118W        W75875   5.200   9.706   0.858
12119W        W75876  31.640  20.150  13.870
12120W        W75877  22.216  14.095   2.396
12121W        W75878  15.189  20.250   4.307
12122W        W75879  26.047  41.513   1.724
12123W        W75880  43.477  34.912  14.459
12124W        W75881   0.834  11.245   3.175
12125W        W75882  38.048   7.898   0.333
12126W        W75883   8.217  21.188  13.838
12127W        W75884  18.185  40.003   0.454
12128W        W75885  44.372   2.757  10.135
12129W        W75886  42.807  26.479  10.607
12130W        W75887   9.824  14.604  12.486
12131W        W75888  11.766  17.663  13.018
12132W        W75889  41.860  17.306   0.254
12133W        W75890   0.485  26.200   3.703
12134W        W75891  11.764   4.257   3.685
12135W        W75892  17.185  30.537   2.269
12136W        W75893   5.890  44.810   2.761
12137W        W75894  35.997  13.322  10.481
12138W        W75895  23.111  32.630   2.408
12139W        W75896   3.421  33.626  13.448
12140W        W75897  11.794  37.953  13.513
12141W        W75898   8.354   9.164  11.055
12142W        W75899  38.348  32.985   4.721
12143W        W75900  14.778  19.059   3.165
12144W        W75901  20.557  15.251   2.741
12145W        W75902  18.292  35.433   5.584
12146W        W75903   7.218  42.484  12.931
12147W        W75904  26.651  26.094   3.296
12148W        W75905  18.134  12.323   4.172
12149W        W75906   7.172  15.651  14.924
12150W        W75907  36.939  24.061   3.814
12151W        W75908   0.892  39.423   0.864
12152W        W75909  24.547  31.947   3.235
12153W        W75910  15.660  21.034   5.241
12154W        W75911  29.087  34.009   4.810
12155W        W75912  38.419   9.277  11.549
12156W        W75913   5.385  10.193  10.940
12157W        W75914  11.185   1.475  12.052
12158W        W75915  34.882   9.392   2.209
12159W        W75916  44.995   8.836   3.381
12160W        W75917   8.789  26.703   0.965
12161W        W75918   3.931  25.581   4.711
12162W        W75919  18.244  18.636   3.251
12163W        W75920  28.971  21.243   0.369
12164W        W75921  21.748  28.057   2.318
12165W        W75922  11.744  41.518  13.527
12166W        W75923   9.309   5.430   1.451
12167W        W75924  13.191  34.875  14.467
12168W        W75925  26.073  17.202  12.516
12169W        W75926   3.309   2.883  14.868
12170W        W75927  23.132   1.413   3.160
12171W        W75928  38.907   2.936  14.910
12172W        W75929  44.809  36.920   3.198
12173W        W75930  10.709   4.735   2.777
12174W        W75931  15.748   9.717  12.849
12175W        W75932   4.373  21.075   0.472
12176W        W75933  43.370  15.143  14.998
12177W        W75934  31.034  38.906  13.429
12178W        W75935   3.796  39.860   0.388
12179W        W75936  30.482   3.847   2.358
12180W        W75937  11.244  20.711  12.074
12181W        W75938  32.427  28.029   0.925
12182W        W75939  19.623  16.118  13.495
12183W        W75940  17.245  22.551   1.310
12184W        W75941  37.360  16.813   1.353
12185W        W75942   8.406   4.340   3.286
12186W        W75943  21.136  15.704   4.237
12187W        W75944  41.863  24.712   3.232
12188W        W75945  27.623  32.598   4.673
12189W        W75946  29.517  36.419  13.372
12190W        W75947  13.745  31.435  10.983
12191W        W75948  23.652   9.758   1.391
12192W        W75949   1.386  23.016   1.390
12193W        W75950   2.887  33.616   1.771
12194W        W75951  14.269  31.584   1.884
12195W        W75952   5.802  13.830   1.440
12196W        W75953  28.181   3.713   3.826
12197W        W75954  37.460  16.150  13.881
12198W        W75955  42.387   8.827  14.501
12199W        W75956   0.815  37.581  11.478
12200W        W75957  16.803  33.965  12.986
12201W        W75958  43.512   8.168   4.132
12202W        W75959   8.733   1.852   0.932
12203W        W75960  25.193  35.470   2.357
12204W        W75961   9.731  32.018  10.579
12205W        W75962  31.456  17.616  13.403
12206W        W75963  22.240  16.710   4.322
12207W        W75964  17.743  20.107  14.989
12208W        W75965   1.957   8.700   3.329
12209W        W75966  35.087  41.437   2.399
12210W        W75967  30.142   4.216  11.559
12211W        W75968   5.297  10.861   2.372
12212W        W75969  31.510  10.217   4.190
12213W        W75970  31.101  29.587   4.345
12214W        W75971   1.807  38.899  14.785
12215W        W75972  19.580  29.598  13.365
12216W        W75973  16.084  33.092  13.503
12217W        W75974   3.311  20.682   0.448
12218W        W75975  32.556  15.233   2.184
12219W        W75976  32.030   2.846   2.855
12220W        W75977   6.741  13.319  13.392
12221W        W75978  13.753  23.695   2.862
12222W        W75979  14.223  19.604  11.400
12223W        W75980  16.654  13.156  12.944
12224W        W75981  43.367  22.645   0.349
12225W        W75982   2.463   4.225  14.444
12226W        W75983  38.025   3.226   0.836
12227W        W75984  43.420  19.657   4.762
12228W        W75985  35.064   9.680   3.225
12229W        W75986  43.389  44.893   2.410
12230W        W75987  38.900  25.613   4.220
12231W        W75988  11.134  20.169  14.868
12232W        W75989  14.672  19.044   1.845
12233W        W75990  13.744  23.685  11.022
12234W        W75991   0.833   2.321  11.044
12235W        W75992  33.917  32.979   4.347
12236W        W75993  35.588   7.256   2.704
12237W        W75994  16.208   3.373  10.917
12238W        W75995  17.650  35.066   1.290
12239W        W75996  24.085   3.796  13.962
12240W        W75997   8.788  44.914  12.425
12241W        W75998   1.877  10.150  14.987
12242W        W75999   2.721   5.796   0.847
12243W        W76000  43.330   4.254  13.367
12244W        W76001  38.828  26.650  11.890
12245W        W76002  11.309  33.511  14.474
12246W        W76003  31.057  39.485   4.305
12247W        W76004  14.234  27.002   0.421
12248W        W76005  44.313   5.787  11.997
12249W        W76006  38.563  24.006  12.503
12250W        W76007  36.939  20.183  13.002
12251W        W76008  29.065   2.356  14.879
12252W        W76009  10.208  20.067  13.797
12253W        W76010  28.930  30.066   3.829
12254W        W76011  44.489  28.532  10.577
12255W        W76012  35.373  37.540   3.801
12256W        W76013  29.108  23.530   5.731
12257W        W76014  15.749  35.930   4.308
12258W        W76015  18.143  44.364   3.330
12259W        W76016  32.591   3.275   5.720
12260W        W76017   3.220  24.130  11.974
12261W        W76018   1.345  21.116   0.878
12262W        W76019   0.805  11.365   4.294
12263W        W76020  20.110  30.077   1.846
12264W        W76021  10.653   9.731   2.687
12265W        W76022  12.286  39.931  13.897
12266W        W76023  16.181  25.071   2.203
12267W        W76024  15.582  35.495   3.245
12268W        W76025   6.396   9.335  13.803
12269W        W76026   0.476  22.248   4.777
12270W        W76027   3.939   0.900   1.918
12271W        W76028   9.707  43.444   3.728
12272W        W76029  43.336   0.386  13.491
12273W        W76030  23.578  34.008   4.341
12274W        W76031  29.662  37.449  11.020
12275W        W76032  41.492  23.584  14.331
12276W        W76033  44.912   1.823   4.822
12277W        W76034  37.449  42.784   0.793
12278W        W76035  41.890  44.412  10.632
12279W        W76036  20.665  21.553   4.265
12280W        W76037  16.136  35.445   0.397
12281W        W76038  17.289  19.206  10.643
12282W        W76039  32.084  25.032   2.380
12283W        W76040  26.021  41.537  11.125
12284W        W76041  28.603   3.262   5.115
12285W        W76042  29.553  16.718  14.950
12286W        W76043  18.787  41.408  13.881
12287W        W76044  12.168  37.380   4.673
12288W        W76045  37.950  15.798   1.338
12289W        W76046  44.431  41.371  13.535
12290W        W76047  24.652  44.831   4.145
12291W        W76048  44.842  39.325   3.347
12292W        W76049   1.444  29.606   3.808
12293W        W76050   3.838  20.081  13.060
12294W        W76051  17.195  42.910  14.466
12295W        W76052  19.083  19.617  12.929
12296W        W76053  41.512  40.527   5.173
12297W        W76054   0.272  33.483   4.825
12298W        W76055   4.306  14.202  13.048
12299W        W76056  10.330   7.836   5.170
12300W        W76057  18.261  39.379   0.919
12301W        W76058  32.549   4.415   0.847
12302W        W76059  18.124  41.956  14.783
12303W        W76060   5.363  28.536  13.344
12304W        W76061  12.661  38.848   4.195
12305W        W76062  22.086  18.234   2.777
12306W        W76063  24.528  31.045   2.409
12307W        W76064  30.537  41.882   2.828
12308W        W76065   5.920  42.024  12.987
12309W        W76066  23.099  26.100  10.409
12310W        W76067  20.089  28.478   4.810
12311W        W76068   8.781  36.398   5.223
12312W        W76069   1.319  27.517   2.239
12313W        W76070  14.188  20.225  11.406
12314W        W76071  25.994  31.416  14.407
12315W        W76072  12.362   3.269  12.866
12316W        W76073  16.662  33.421   3.333
12317W        W76074  15.325   4.823   3.664
12318W        W76075  12.127   3.370   4.686
12319W        W76076   3.875   2.253   2.242
12320W        W76077  18.196  16.225   2.827
12321W        W76078  15.113  24.176  14.806
12322W        W76079   7.276  38.975   0.444
12323W        W76080   4.234   8.862  12.572
12324W        W76081  22.617  30.095   4.677
12325W        W76082  27.158  10.765  12.950
12326W        W76083  23.518   6.708  14.004
12327W        W76084   8.303   6.244   2.401
12328W        W76085  28.486  24.499  13.915
12329W        W76086  39.391   5.915   9.470
12330W        W76087   2.914  13.799  11.376
12331W        W76088   5.797   8.217  14.350
12332W        W76089  25.559  41.836  11.573
12333W        W76090  37.395  32.994  10.609
12334W        W76091  31.645  35.404   4.288
12335W        W76092  11.752  19.643   0.952
12336W        W76093   1.323  24.642   4.622
12337W        W76094  30.075  16.072  10.125
12338W        W76095  25.094  41.477   3.272
12339W        W76096   7.416  13.732  14.888
12340W        W76097  27.991   1.480  13.811
12341W        W76098  22.230  32.097  13.321
12342W        W76099  21.020   5.370  11.487
12343W        W76100  37.856  12.633  11.554
12344W        W76101  22.031  13.251  14.877
12345W        W76102   5.919  12.261   4.123
12346W        W76103  27.566   1.248   0.479
12347W        W76104   6.862  29.520  13.315
12348W        W76105  35.936  43.800  13.472
12349W        W76106   5.251  40.466   4.799
12350W        W76107  41.428   8.319   1.377
12351W        W76108  37.395   5.738  10.476
12352W        W76109  18.111   2.283   2.328
12353W        W76110  19.621  31.059  14.488
12354W        W76111  20.262  16.704   1.798
12355W        W76112  20.069  16.095  10.980
12356W        W76113  21.717  36.454  14.453
12357W        W76114  27.517  18.562  10.620
12358W        W76115  34.864  36.573  13.906
12359W        W76116  30.476  30.072  10.149
12360W        W76117  24.669  42.354   4.659
12361W        W76118  27.620  44.278  10.537
12362W        W76119  10.820   3.953  11.592
12363W        W76120  13.350   8.406  14.873
12364W        W76121  13.170  33.005   4.128
12365W        W76122  31.965  23.003  13.832
12366W        W76123  41.411  17.632   4.725
12367W        W76124  42.974  30.624   2.812
12368W        W76125  31.471   6.251  13.911
12369W        W76126  34.479  28.006   0.419
12370W        W76127  44.795  17.671   4.613
12371W        W76128  44.476  43.882  11.427
12372W        W76129  30.970  28.948  11.538
12373W        W76130   4.445  42.296   3.365
12374W        W76131  39.011  19.053  11.443
12375W        W76132  31.123  34.578  13.835
12376W        W76133  10.663  12.739   0.837
12377W        W76134  20.653  28.552   0.961
12378W        W76135  13.617  32.120  11.945
12379W        W76136  21.590  16.760   3.708
12380W        W76137  25.037  35.857   1.334
12381W        W76138  31.465  35.973  12.546
12382W        W76139  12.319  44.318   5.103
12383W        W76140  37.361  26.025  12.463
12384W        W76141  31.407   7.279   0.356
12385W        W76142   2.906   0.781   1.297
12386W        W76143  35.951   5.384   2.261
12387W        W76144  18.186  12.246   3.816
12388W        W76145   8.317  37.578   1.344
12389W        W76146  11.808  29.522   1.796
12390W        W76147  18.567  12.176   4.677
12391W        W76148  19.667  16.280   0.807
12392W        W76149  14.756  35.999   2.340
12393W        W76150  28.977  20.046  10.435
12394W        W76151  23.650  44.948  11.392
12395W        W76152  39.861  12.680   3.716
12396W        W76153  28.128   7.355   4.307
12397W        W76154   3.270  25.605   0.782
12398W        W76155  36.366  35.375  12.070
12399W        W76156  24.519  40.333  13.524
12400W        W76157  20.626  13.602   0.440
12401W        W76158   7.831   4.287  11.458
12402W        W76159  23.583   5.260   2.685
12403W        W76160  37.418  39.545   1.762
12404W        W76161  33.461   4.749  12.518
12405W        W76162  22.607   0.773  14.982
12406W        W76163   6.739  19.609   4.316
12407W        W76164  13.201   0.949  14.504
12408W        W76165   1.267  36.898   4.772
12409W        W76166  28.504   8.278   4.167
12410W        W76167  21.672   6.680   1.762
12411W        W76168  16.784   6.740   0.776
12412W        W76169  23.582  20.127  14.337
12413W        W76170  15.155  31.027  11.988
12414W        W76171  27.630  31.583  13.323
12415W        W76172  32.402  14.765  12.078
12416W        W76173   0.879  44.497  13.514
12417W        W76174  34.016  22.547  11.534
12418W        W76175  33.035   3.778  13.843
12419W        W76176  33.616  20.247   3.260
12420W        W76177   4.751  23.158  10.436
12421W        W76178  29.544  30.044  11.926
12422W        W76179  16.255  40.810   0.929
12423W        W76180  11.850  21.535  11.911
12424W        W76181  32.423  24.656  13.493
12425W        W76182  31.956  14.834  10.545
12426W        W76183  23.663  35.435  11.394
12427W        W76184  35.548  30.551  13.857
12428W        W76185   3.927  33.091  10.429
12429W        W76186  23.625   3.927   3.242
12430W        W76187  14.123   6.797   0.341
12431W        W76188   6.710  36.841  13.996
12432W        W76189  39.431   8.167  12.421
12433W        W76190  19.737   1.422  13.455
12434W        W76191  35.604   1.816   0.259
12435W        W76192  23.512   5.328   0.938
12436W        W76193  40.035  19.572   1.817
12437W        W76194   3.760  34.394  10.076
12438W        W76195  37.395  10.218   1.858
12439W        W76196  28.491  11.661   1.880
12440W        W76197  21.720  36.863  13.948
12441W        W76198  13.831  36.062  10.419
12442W        W76199   9.775  33.117   4.676
12443W        W76200  32.915  42.439  14.935
12444W        W76201  26.686  26.110  12.510
12445W        W76202   0.324  39.826   0.902
12446W        W76203   8.351   8.733  13.844
12447W        W76204   7.320  35.064   0.803
12448W        W76205  19.239   7.835   3.794
12449W        W76206   4.927  30.440   4.627
12450W        W76207  39.421  10.139   2.325
12451W        W76208  28.181  36.501  13.419
12452W        W76209  22.508  44.393  11.487
12453W        W76210  13.128  28.072  10.137
12454W        W76211  31.633  26.608   1.885
12455W        W76212  33.983   9.857  13.867
12456W        W76213   0.772  36.046  12.513
12457W        W76214  25.982  21.686  10.549
12458W        W76215  16.080  37.967   1.848
12459W        W76216  40.344  16.724   4.810
12460W        W76217  20.693  10.288   1.344
12461W        W76218   8.312   3.374   4.239
12462W        W76219  28.125   1.390   4.724
12463W        W76220  44.815  27.968  14.453
12464W        W76221  42.307   7.747  11.576
12465W        W76222  27.593  37.879  14.444
12466W        W76223  13.153  19.053   2.206
12467W        W76224  30.643  12.728   1.414
12468W        W76225  39.533  10.715   0.872
12469W        W76226  39.820   8.390   0.244
12470W        W76227  32.442  40.836  11.965
12471W        W76228   7.706  41.463  12.439
12472W        W76229  31.947  22.203   1.407
12473W        W76230  35.883  20.127   0.395
12474W        W76231   3.870  30.948  11.081
12475W        W76232  39.324  17.075   4.320
12476W        W76233  10.300   3.719  12.904
12477W        W76234  34.488  26.703   4.627
12478W        W76235  11.841  31.915   0.310
12479W        W76236  23.026  41.987  11.907
12480W        W76237  29.014  19.222  12.978
12481W        W76238  28.073  12.817  14.860
12482W        W76239  26.038  43.351  10.419
12483W        W76240  29.520   9.737   2.405
12484W        W76241   6.750  44.974   5.290
12485W        W76242   4.238  44.335  14.835
12486W        W76243  30.529  11.646  12.927
12487W        W76244  17.117  42.837   1.442
12488W        W76245  23.032  14.121  13.500
12489W        W76246  27.600   5.316  13.019
12490W        W76247  34.022  31.094  14.918
12491W        W76248  24.044  37.435  12.988
12492W        W76249  31.570  37.890  12.040
12493W        W76250  37.404   1.832  12.092
12494W        W76251   9.330  43.408   3.639
12495W        W76252  15.213  16.127   0.742
12496W        W76253  11.308  23.057  11.538
12497W        W76254  21.193   2.831   2.283
12498W        W76255   6.913  26.966  12.525
12499W        W76256  12.647  10.673   4.156
12500W        W76257  40.006  35.567  13.400
12501W        W76258  17.201  29.450   3.385
12502W        W76259   4.269  17.269   3.845
12503W        W76260  40.548  34.474   0.917
12504W        W76261  18.119  11.130  14.853
12505W        W76262   2.727  15.741   1.855
12506W        W76263   3.904  32.887  14.888
12507W        W76264  42.345  10.869  12.002
12508W        W76265  39.524  19.222   1.824
12509W        W76266  14.693  27.188   1.816
12510W        W76267   0.772  16.161   3.699
12511W        W76268  42.501  13.192  13.001
12512W        W76269  35.055  13.224   3.303
12513W        W76270  24.513  39.445   4.233
12514W        W76271  12.763   4.787   4.720
12515W        W76272  40.884  26.596   1.385
12516W        W76273  31.640  25.114   2.416
12517W        W76274  23.186  44.342   3.237
12518W        W76275  38.044   0.891   0.462
12519W        W76276  31.064  34.594   0.826
12520W        W76277  22.242   0.283   0.362
12521W        W76278  18.089  17.231   0.309
12522W        W76279  35.454   9.719  12.481
12523W        W76280  23.037  29.483   0.835
12524W        W76281  31.613   6.237  12.856
12525W        W76282   6.271  28.498   4.304
12526W        W76283  36.976  31.953  12.883
12527W        W76284  44.796  27.616  10.964
12528W        W76285  29.933   4.869   4.148
12529W        W76286  32.966  24.052  12.038
12530W        W76287  30.908  19.193  14.355
12531W        W76288   8.741  10.232  14.450
12532W        W76289  21.638  37.413   5.298
12533W        W76290  11.152  33.885   0.280
12534W        W76291   2.292  14.709  10.638
12535W        W76292   0.300   0.870  13.501
12536W        W76293  44.275  22.158  10.582
12537W        W76294  27.080  41.835   1.713
12538W        W76295   3.400  32.891   0.314
12539W        W76296  43.801  42.990   3.242
12540W        W76297  38.394  36.495  14.944
12541W        W76298  30.026  41.483   3.149
12542W        W76299   1.268   9.788  12.405
12543W        W76300  17.100  27.980   2.320
12544W        W76301   5.310  44.982   4.252
12545W        W76302  13.298  35.400  13.844
12546W        W76303  15.795  11.672  10.479
12547W        W76304  22.732   3.310   1.785
12548W        W76305   5.739  31.915  14.897
12549W        W76306   1.866  25.156   1.323
12550W        W76307  35.485   7.416   0.403
12551W        W76308   6.276  21.654   1.866
12552W        W76309  18.056  31.960  10.507
12553W        W76310   8.783   4.817   4.624
12554W        W76311  18.583  11.761   4.253
12555W        W76312  13.796  15.776   1.698
12556W        W76313  14.337  28.065  11.573
12557W        W76314   3.309  24.047   2.235
12558W        W76315  19.267  26.664   0.359
12559W        W76316   3.367  17.788  11.029
12560W        W76317  35.986   9.150   4.345
12561W        W76318  15.795  19.198  13.521
12562W        W76319   0.796  34.032   4.827
12563W        W76320  13.738  13.113   1.229
12564W        W76321  20.570  34.907   3.678
12565W        W76322   2.910  39.469  12.378
12566W        W76323   8.818   1.807   1.899
12567W        W76324   2.778  28.974   0.921
12568W        W76325   2.745  26.054  13.848
12569W        W76326  18.202  41.893   0.782
12570W        W76327   1.830  32.543   0.468
12571W        W76328  41.537  44.498  10.502
12572W        W76329  22.541  25.219  12.956
12573W        W76330   4.794  27.000   3.214
12574W        W76331   6.751  25.546   4.235
12575W        W76332  25.708  44.841   0.284
12576W        W76333  24.575  23.989  13.343
12577W        W76334   1.911  22.672   0.799
12578W        W76335   7.822  43.301  12.866
12579W        W76336   6.425  29.941  11.455
12580W        W76337  28.481  24.578   3.240
12581W        W76338  31.040  16.680   5.714
12582W        W76339  34.002  40.331   0.803
12583W        W76340  29.988   6.845  14.987
12584W        W76341  36.008  16.192  11.374
12585W        W76342  32.505  17.302  11.939
12586W        W76343  35.933  33.430  12.554
12587W        W76344   7.274  27.528   3.849
12588W        W76345  12.223  25.199  11.103
12589W        W76346   0.892  17.758  14.446
12590W        W76347  12.128   7.690  14.423
12591W        W76348   1.889  42.778  13.316
12592W        W76349   7.852  19.203  12.497
12593W        W76350  21.034   7.811   0.324
12594W        W76351  13.291  32.996  13.447
12595W        W76352  34.539  14.631  11.584
12596W        W76353  21.576  17.212  10.952
12597W        W76354   8.784  29.147  14.397
12598W        W76355   2.324  37.904  12.416
12599W        W76356  17.647  30.114  14.921
12600W        W76357  28.037  32.455  10.976
12601W        W76358  10.346   7.179  13.331
12602W        W76359  23.634   1.759   1.267
12603W        W76360  33.901   1.737  11.380
12604W        W76361  33.036  28.146  12.828
12605W        W76362  30.495  18.158  12.925
12606W        W76363  44.859  32.023  13.839
12607W        W76364  33.427  13.269  13.473
12608W        W76365  23.173  11.182   2.301
12609W        W76366  41.486  13.774  10.406
12610W        W76367  31.123  40.365   1.884
12611W        W76368  20.138  28.436  14.936
12612W        W76369   7.384  34.944  12.855
12613W        W76370  33.502  22.248  12.055
12614W        W76371  42.346  25.169  12.946
12615W        W76372  29.133  29.028  11.094
12616W        W76373  25.083   1.384  12.953
12617W        W76374  31.033  35.507  13.024
12618W        W76375  24.505  40.468  12.988
12619W        W76376  24.553   0.989   4.763
12620W        W76377  24.554  11.777   1.901
12621W        W76378  23.106  24.507  13.982
12622W        W76379  16.693  12.151   4.600
12623W        W76380  26.085  26.095  12.925
12624W        W76381  41.447  35.482   3.769
12625W        W76382  20.080   3.719   2.258
12626W        W76383  24.696   0.381  13.525
12627W        W76384  32.054  10.303  12.486
12628W        W76385  29.657  38.345   4.343
12629W        W76386  18.259   9.661   3.344
12630W        W76387  41.490   3.849  11.496
12631W        W76388  12.724  17.615  12.503
12632W        W76389  36.476  11.292  13.923
12633W        W76390   7.313  19.145  13.942
12634W        W76391  39.954  26.543   4.640
12635W        W76392  25.203  30.516  10.072
12636W        W76393  28.672  33.910  11.594
12637W        W76394  36.499   1.742  10.003
12638W        W76395  26.543  27.473  14.498
12639W        W76396  22.574  25.699  14.805
12640W        W76397  10.689  15.247   3.731
12641W        W76398  35.362  27.108  10.910
12642W        W76399   3.862   0.454  11.883
12643W        W76400  41.473  28.607   2.223
12644W        W76401  31.995   8.388  12.977
12645W        W76402   6.921  38.432  12.829
12646W        W76403  19.687   1.416   4.348
12647W        W76404  43.493   6.816  13.473
12648W        W76405  16.802  30.587   0.916
12649W        W76406  26.548  39.554  13.436
12650W        W76407  41.880  24.719  13.351
12651W        W76408  29.631  24.116   4.720
12652W        W76409  22.030  11.638   1.281
12653W        W76410  12.130  27.134   4.787
12654W        W76411  10.863   4.224   3.309
12655W        W76412  27.185  15.102  12.009
12656W        W76413  36.469   3.420   0.879
12657W        W76414   3.834  29.571   4.165
12658W        W76415  22.217  40.845  14.965
12659W        W76416  11.269  21.232  13.872
12660W        W76417  28.953  44.265  13.474
12661W        W76418   5.839   4.399   3.736
12662W        W76419  20.094  28.443  11.389
12663W        W76420  19.150   5.887   2.251
12664W        W76421  13.336  20.692  12.071
12665W        W76422  25.668  36.926  14.336
12666W        W76423  24.493  17.220  11.587
12667W        W76424   1.783  10.655  13.361
12668W        W76425   9.795  31.479   0.880
12669W        W76426  41.466  12.826   3.762
12670W        W76427   0.297  15.651   1.829
12671W        W76428  19.120  14.702   0.333
12672W        W76429   2.238  28.057  13.983
12673W        W76430  23.137  26.620   0.424
12674W        W76431  24.093  15.581  10.951
12675W        W76432  21.227  14.742  14.861
12676W        W76433   3.417  43.781  13.545
12677W        W76434  22.138   5.878   4.775
12678W        W76435  25.039  22.645   0.785
12679W        W76436   7.207  34.001   1.925
12680W        W76437  10.664   9.716  13.797
12681W        W76438  31.008  40.009  11.110
12682W        W76439  42.286  14.340  12.492
12683W        W76440  10.722  36.973  10.547
12684W        W76441  26.563  40.480   2.192
12685W        W76442  38.030  10.369  11.881
12686W        W76443  29.097  40.949  11.554
12687W        W76444  15.731  11.238  14.381
12688W        W76445  43.304  17.682  14.355
12689W        W76446   7.675  39.378   1.350
12690W        W76447  28.639  12.307  11.026
12691W        W76448   8.313  18.692   3.776
12692W        W76449  36.070  16.136   2.405
12693W        W76450  15.601  39.845   4.655
12694W        W76451  41.905   2.230   2.349
12695W        W76452  29.086  32.581   0.842
12696W        W76453  27.172  41.815   1.447
12697W        W76454  17.772  39.861  13.433
12698W        W76455  39.049  32.436  10.054
12699W        W76456  39.930  34.905   3.696
12700W        W76457  35.968   7.286  10.600
12701W        W76458  44.957  17.796  13.456
12702W        W76459  32.097  35.566  13.443
12703W        W76460  38.055   0.257   2.412
12704W        W76461   9.890  35.072  14.761
12705W        W76462  37.950   2.269   3.685
12706W        W76463  26.197   9.732  11.868
12707W        W76464  15.131   1.315  14.383
12708W        W76465  36.961  26.054   2.279
12709W        W76466   0.327   7.311   2.416
12710W        W76467  11.217   1.278   2.690
12711W        W76468  19.539  19.049   1.762
12712W        W76469  27.950  33.619  11.924
12713W        W76470  32.138   8.180  12.576
12714W        W76471  23.580  44.315  10.420
12715W        W76472  30.606  18.143  13.310
12716W        W76473  20.749  29.566   1.387
12717W        W76474  27.975  16.147  11.102
12718W        W76475  35.096  43.861   0.934
12719W        W76476  41.379  15.315  14.861
12720W        W76477  12.722  19.646   3.827
12721W        W76478  10.230   2.316  14.505
12722W        W76479   1.855  38.521  12.865
12723W        W76480  39.448   3.794   1.430
12724W        W76481  43.952   9.295  11.042
12725W        W76482  13.831  39.895   3.382
12726W        W76483  33.457  16.622  13.839
12727W        W76484  31.100  23.686  13.528
12728W        W76485  39.332  19.685   3.812
12729W        W76486   1.447  25.608  11.981
12730W        W76487  14.208  33.971   3.248
12731W        W76488  38.378  29.955   4.722
12732W        W76489  44.987  15.103   0.884
12733W        W76490  11.860  14.310  10.919
12734W        W76491  33.562  34.915  14.954
12735W        W76492  12.805  40.951   1.709
12736W        W76493  23.193  42.959  10.498
12737W        W76494  42.323  28.601   3.813
12738W        W76495  39.023   4.430   2.776
12739W        W76496  31.953  35.385   0.829
12740W        W76497  41.313  24.189  14.343
12741W        W76498  37.027  17.592  13.415
12742W        W76499  29.613  33.404  10.897
12743W        W76500   6.831  40.916   3.202
12744W        W76501  19.703  44.388  12.825
12745W        W76502  39.811   5.230  11.111
12746W        W76503   6.418  35.950   4.212
12747W        W76504  21.687   2.232   4.322
12748W        W76505  34.914  16.213   4.597
12749W        W76506  10.329  11.678  12.934
12750W        W76507  36.465  13.163  13.012
12751W        W76508  39.545   2.835   2.375
12752W        W76509  35.547  31.991   2.355
12753W        W76510  42.281  24.628  12.908
12754W        W76511  14.679  14.693  10.602
12755W        W76512  16.194  17.668   3.758
12756W        W76513   1.858  44.842  11.986
12757W        W76514   1.294  27.129   2.409
12758W        W76515  23.568  32.047   4.782
12759W        W76516  10.341   3.295   4.690
12760W        W76517  32.894   4.281  12.391
12761W        W76518  37.499  24.048   1.408
12762W        W76519  40.950   2.269   3.277
12763W        W76520  37.911  32.085  12.081
12764W        W76521  23.077  27.053  13.383
12765W        W76522  14.211   2.833   1.257
12766W        W76523  40.427  35.050  14.919
12767W        W76524   2.228  20.686  10.532
12768W        W76525   1.899  11.253   1.910
12769W        W76526  31.123   0.882   4.132
12770W        W76527  24.122   0.382   0.741
12771W        W76528   8.887  33.943  14.811
12772W        W76529  28.083  33.590   3.235
12773W        W76530  28.165  38.376   1.895
12774W        W76531  25.683   5.766   1.235
12775W        W76532  43.382  42.857  11.523
12776W        W76533   1.950  12.296   3.219
12777W        W76534  28.449  28.537  14.967
12778W        W76535  33.119  23.700  11.504
12779W        W76536  12.623  31.106   1.770
12780W        W76537   6.776   4.351  10.616
12781W        W76538  30.460  16.160   0.463
12782W        W76539  11.136  22.074  11.612
12783W        W76540  13.762   0.399  13.958
12784W        W76541   2.283  14.672  14.435
12785W        W76542  15.665  19.158   4.839
12786W        W76543   9.194  39.974   3.250
12787W        W76544  25.034   2.247   1.796
12788W        W76545   9.206  20.191   0.860
12789W        W76546  42.453  29.128   3.253
12790W        W76547  29.951  29.666   0.897
12791W        W76548  28.066   9.319   0.324
12792W        W76549  34.473  43.890  14.959
12793W        W76550  41.847  11.258   3.245
12794W        W76551  12.776  33.930  14.948
12795W        W76552  20.251  15.150   4.183
12796W        W76553   7.726   0.473  12.561
12797W        W76554  18.744   9.314  10.495
12798W        W76555  15.222  10.821  13.413
12799W        W76556  34.876   2.257   1.230
12800W        W76557  18.565  24.122  14.986
12801W        W76558  25.633  41.831   4.697
12802W        W76559  37.920  15.185  11.457
12803W        W76560  31.422  40.834   1.733
12804W        W76561  28.076   5.834   4.293
12805W        W76562  37.054   9.656  14.895
12806W        W76563  13.662  38.357  12.827
12807W        W76564  39.409  22.075  13.891
12808W        W76565  21.582  16.652   2.720
12809W        W76566  27.614  14.224   5.603
12810W        W76567  24.506   8.683   4.634
12811W        W76568  26.169  21.599   0.764
12812W        W76569  21.665  31.024   3.793
12813W        W76570  21.737   9.151   4.264
12814W        W76571  23.040  17.234  13.962
12815W        W76572  12.765  20.176   0.945
12816W        W76573  42.392  26.602  14.429
12817W        W76574  20.676  25.143  12.443
12818W        W76575  19.595  19.208   4.253
12819W        W76576  18.272  31.648   1.386
12820W        W76577  30.989  29.971  13.888
12821W        W76578  34.497  26.107   4.639
12822W        W76579   6.715  33.551   0.328
12823W        W76580  27.672  24.582   5.125
12824W        W76581  21.672   3.458  11.397
12825W        W76582  26.034   5.227  14.946
12826W        W76583  25.159  17.669  11.954
12827W        W76584  27.467  12.818   0.320
12828W        W76585  24.197  24.588   1.338
12829W        W76586   9.889  20.265  10.448
12830W        W76587  35.464  13.189  13.481
12831W        W76588  30.127  38.044   0.950
12832W        W76589  10.837  10.648  13.379
12833W        W76590  17.732  25.094  12.028
12834W        W76591  24.015  33.965  13.497
12835W        W76592   6.806   7.380   0.748
12836W        W76593  16.162  16.303   4.309
12837W        W76594   0.473  26.956  12.004
12838W        W76595  33.985  22.725  13.873
12839W        W76596   5.873  30.560   0.304
12840W        W76597  26.561  44.400   1.376
12841W        W76598  28.002  18.175   0.778
12842W        W76599  35.366  35.457   0.306
12843W        W76600   9.811   2.899  11.398
12844W        W76601  13.209  36.000  14.912
12845W        W76602  16.633  41.856   1.248
12846W        W76603  29.017  44.302  10.560
12847W        W76604  11.197   8.332  11.418
12848W        W76605  43.363  22.560   4.784
12849W        W76606  31.477  19.553   3.721
12850W        W76607  40.537   6.232   3.725
12851W        W76608   6.374  40.396   0.963
12852W        W76609  31.995  30.463   0.272
12853W        W76610  39.507  30.115   0.476
12854W        W76611   7.291  37.531  14.988
12855W        W76612  26.079  17.608   0.374
12856W        W76613   0.923  28.004  14.342
12857W        W76614  22.062  38.941   2.185
12858W        W76615  10.341  30.989   3.695
12859W        W76616   3.433  29.959   3.288
12860W        W76617  31.089   6.233  11.570
12861W        W76618  31.617   4.753  11.948
12862W        W76619  20.666   1.340  11.397
12863W        W76620  26.968   7.878   4.246
12864W        W76621  33.886  26.114   4.672
12865W        W76622  38.066  14.127   0.325
12866W        W76623  36.485  43.901  12.879
12867W        W76624  27.584  35.598  13.794
12868W        W76625  35.079   9.807  10.604
12869W        W76626  29.531  33.447  11.946
12870W        W76627   9.827  28.178  14.926
12871W        W76628  18.709  20.057  12.419
12872W        W76629   2.306  37.466   1.915
12873W        W76630  19.570  17.203  14.823
12874W        W76631  40.436  16.237  12.415
12875W        W76632   8.749  41.427   3.640
12876W        W76633  15.292   2.897  11.501
12877W        W76634   9.196   1.445   1.884
12878W        W76635   2.232   8.262   0.807
12879W        W76636   1.472   0.796  11.477
12880W        W76637  31.928  18.691  14.824
12881W        W76638  37.951   6.406  14.801
12882W        W76639   6.720   5.913   1.296
12883W        W76640  10.370  31.051  12.057
12884W        W76641  35.995  10.668   2.865
12885W        W76642   6.345  39.927  12.406
12886W        W76643  31.592  14.332  11.604
12887W        W76644   7.904  32.079  13.004
12888W        W76645  40.332  28.622  10.452
12889W        W76646   7.878   7.910   2.249
12890W        W76647  22.677   0.856  10.922
12891W        W76648  40.463  21.661   3.162
12892W        W76649   0.804   6.688   1.440
12893W        W76650  16.678  28.498  14.470
12894W        W76651  40.994   0.415  13.882
12895W        W76652  44.453   7.896  12.360
12896W        W76653  21.671  15.595  13.927
12897W        W76654  33.123  29.108   5.124
12898W        W76655  18.218  32.564  11.912
12899W        W76656  34.380   2.741  12.835
12900W        W76657  39.499   2.288  13.000
12901W        W76658  19.205   9.232   1.755
12902W        W76659  23.081  24.569   2.343
12903W        W76660  20.125  11.847   3.265
12904W        W76661  39.946  17.688   1.356
12905W        W76662  16.176  35.392  12.990
12906W        W76663  28.681   8.736   2.860
12907W        W76664  37.913  20.109  10.582
12908W        W76665  42.506  14.808  13.825
12909W        W76666  11.149  17.678  13.919
12910W        W76667  39.980  40.387  10.436
12911W        W76668  27.562  38.947  14.395
12912W        W76669  22.999  44.814  12.971
12913W        W76670  30.592   8.305  14.853
12914W        W76671  20.151  16.159  10.451
12915W        W76672   4.863  29.579  10.568
12916W        W76673   1.955   2.898   0.419
12917W        W76674  23.635  43.361   3.818
12918W        W76675  21.114  18.109  12.084
12919W        W76676  24.613   7.805  13.916
12920W        W76677  25.209   9.276   0.811
12921W        W76678  36.061  29.522  14.984
12922W        W76679  24.192  13.290  11.985
12923W        W76680   9.341  31.011   2.718
12924W        W76681  18.140  11.660  10.611
12925W        W76682  36.419   2.957  12.989
12926W        W76683  27.137  23.010   1.836
12927W        W76684  30.939  28.110  14.010
12928W        W76685  34.009  37.967   4.648
12929W        W76686  32.052  36.898  14.768
12930W        W76687  22.547   2.311   0.868
12931W        W76688  26.108  16.109   0.433
12932W        W76689  32.426  43.883   2.706
12933W        W76690  31.519  30.543   3.385
12934W        W76691  37.953   8.368  14.886
12935W        W76692  44.462  18.250  14.345
12936W        W76693  28.145  11.310   3.856
12937W        W76694  42.414  29.028  13.381
12938W        W76695   0.811  13.720  10.981
12939W        W76696   8.243  19.602   0.277
12940W        W76697  27.133  20.730  13.336
12941W        W76698  37.965  36.502   2.882
12942W        W76699   1.784  44.765  14.349
12943W        W76700   1.969   8.851  12.011
12944W        W76701   9.878  43.850  11.970
12945W        W76702  41.449  27.514  14.904
12946W        W76703  42.014   8.261   2.368
12947W        W76704  30.164   1.444  11.596
12948W        W76705  44.849   2.345  13.508
12949W        W76706  37.026  24.640   2.330
12950W        W76707  29.100  21.033   4.672
12951W        W76708   8.384  38.979  14.470
12952W        W76709  12.621   2.798  11.889
12953W        W76710   3.903  16.724  12.046
12954W        W76711  32.957  30.921  11.410
12955W        W76712  44.907  37.967  12.435
12956W        W76713  27.125  17.654  14.894
12957W        W76714  41.916  21.648   3.161
12958W        W76715   7.761  20.166   4.755
12959W        W76716  33.010  35.979  14.370
12960W        W76717  13.662  21.718  12.499
12961W        W76718  30.476   1.813  12.360
12962W        W76719  42.857  41.820   1.782
12963W        W76720   2.746   3.249   0.449
12964W        W76721  32.887   8.870  12.845
12965W        W76722  22.671  40.316   3.842
12966W        W76723  33.992  25.568  14.771
12967W        W76724  22.169  23.065   3.748
12968W        W76725  36.591   3.820  12.978
12969W        W76726  42.292   0.283   3.783
12970W        W76727  30.560  26.193   0.900
12971W        W76728  22.069  33.591   2.845
12972W        W76729  41.935  25.152   2.221
12973W        W76730  39.442  19.214   3.774
12974W        W76731   2.444  17.293   3.357
12975W        W76732  39.895  36.407  12.907
12976W        W76733  16.637  16.186  11.446
12977W        W76734  37.367  33.504  10.902
12978W        W76735   2.375  28.649   2.902
12979W        W76736  20.544   2.419  10.999
12980W        W76737  24.111  25.190  11.608
12981W        W76738  15.649  41.951  10.630
12982W        W76739  33.550   5.826  10.588
12983W        W76740  36.026   0.384  14.021
12984W        W76741  34.914  30.589  12.066
12985W        W76742  26.498  19.194   1.852
12986W        W76743   6.340  37.036  14.440
12987W        W76744   5.319   7.741  12.071
12988W        W76745   2.389  33.429   0.907
12989W        W76746   3.252  35.913   2.682
12990W        W76747  37.407  40.881   4.753
12991W        W76748  18.285   5.840   2.830
12992W        W76749  10.358  31.036  13.839
12993W        W76750   8.378  32.048  10.443
12994W        W76751  31.957  22.165  11.609
12995W        W76752   9.192  11.856   4.269
12996W        W76753  20.525  44.991   3.266
12997W        W76754  41.007  22.024  13.993
12998W        W76755  26.088  29.565   2.662
12999W        W76756  20.742  16.784   3.697
13000W        W76757  42.889  19.158   3.860
13001W        W76758  14.612  18.630  11.511
13002W        W76759   6.704  20.532   3.742
13003W        W76760  36.052   2.279   1.341
13004W        W76761   1.347  37.905  10.985
13005W        W76762  20.118  28.022  14.842
13006W        W76763  29.668  39.491   4.673
13007W        W76764  19.220  34.892  14.912
13008W        W76765  29.115  44.943  12.341
13009W        W76766  32.458  36.519   1.820
13010W        W76767  37.863  27.010  11.968
13011W        W76768  29.655  35.594  14.314
13012W        W76769   9.176   0.289  14.868
13013W        W76770  30.491  16.135  11.392
13014W        W76771  23.733  12.717  12.926
13015W        W76772  22.515  42.814  14.304
13016W        W76773   1.956  18.669  11.519
13017W        W76774  35.455  37.078  14.327
13018W        W76775   9.769  43.946   3.653
13019W        W76776  40.925  22.101   1.829
13020W        W76777   2.360   9.173   3.294
13021W        W76778   5.420  26.681   1.269
13022W        W76779  34.110  26.193  13.937
13023W        W76780  13.235  37.393  11.037
13024W        W76781  21.656   5.301  12.543
13025W        W76782  32.618  22.701  11.112
13026W        W76783  16.192   3.724  12.844
13027W        W76784  12.274  26.114  14.429
13028W        W76785  18.685  30.534   4.753
13029W        W76786  10.329  31.568  12.953
13030W        W76787  42.499  36.046   4.619
13031W        W76788   9.757  25.673   2.408
13032W        W76789  21.190  41.027  13.313
13033W        W76790  13.684  28.601   4.236
13034W        W76791  18.135  15.661  12.008
13035W        W76792  24.044   8.318   2.846
13036W        W76793  38.863   5.791  14.776
13037W        W76794  32.529   5.210  14.897
13038W        W76795   8.221  12.229  14.789
13039W        W76796  13.194   2.930   0.243
13040W        W76797  42.402  39.317   1.288
13041W        W76798  27.117  37.508   1.381
13042W        W76799  22.119  24.105  11.889
13043W        W76800  44.850  41.348   1.413
13044W        W76801  37.836  16.158   3.652
13045W        W76802  25.641  23.725  13.919
13046W        W76803  24.643  24.985   4.787
13047W        W76804  12.776  20.264   4.326
13048W        W76805  36.436  35.484   0.474
13049W        W76806  43.344  27.155  14.452
13050W        W76807  35.494  38.847   3.815
13051W        W76808  28.963  29.931  13.983
13052W        W76809   5.372  38.358   2.730
13053W        W76810  20.210  39.910   4.784
13054W        W76811   8.839   6.212   2.361
13055W        W76812  31.551   4.206  12.096
13056W        W76813  29.496  34.512   0.474
13057W        W76814  33.110  37.033  12.388
13058W        W76815   8.851  42.806  14.789
13059W        W76816   5.769   8.384   0.812
13060W        W76817  27.519  37.509  12.567
13061W        W76818  36.868  29.444  12.010
13062W        W76819   5.435  14.164  12.562
13063W        W76820  11.251  39.839  12.056
13064W        W76821  35.064  31.989   4.797
13065W        W76822  44.938  19.074   4.229
13066W        W76823  20.140  40.505  12.981
13067W        W76824  38.399  38.064  11.898
13068W        W76825  20.743   2.767   4.743
13069W        W76826   8.290  22.597   2.383
13070W        W76827  33.938  44.408   2.682
13071W        W76828  37.580   0.806  11.993
13072W        W76829  26.107  39.964   2.369
13073W        W76830  31.543  41.968  12.876
13074W        W76831  25.154  14.746  11.568
13075W        W76832  26.018  25.994   0.471
13076W        W76833  41.859  26.677   5.138
13077W        W76834   2.928  23.030  11.515
13078W        W76835  40.443  26.989   0.805
13079W        W76836  36.438  15.704   2.664
13080W        W76837  30.078   9.866  12.381
13081W        W76838  24.100  31.983  10.512
13082W        W76839  29.159  44.289  11.538
13083W        W76840  18.704   7.866   1.401
13084W        W76841  37.919  38.072  10.968
13085W        W76842  17.213   2.854  12.445
13086W        W76843  27.470  29.529  13.838
13087W        W76844   3.361   7.268   1.350
13088W        W76845  25.045  11.334   4.652
13089W        W76846  22.199  15.250  11.018
13090W        W76847   4.411  11.848  11.386
13091W        W76848  42.523  30.472  14.371
13092W        W76849  21.531  11.830   4.613
13093W        W76850  15.207  40.944  14.333
13094W        W76851   4.795  23.688  14.364
13095W        W76852  16.197  15.328  11.589
13096W        W76853  23.010  14.098   5.096
13097W        W76854  42.914  12.359   1.704
13098W        W76855  17.064  42.388  13.031
13099W        W76856  12.672   5.433   0.742
13100W        W76857   5.790  21.081   5.133
13101W        W76858  44.355  44.892  14.005
13102W        W76859  41.815  20.610  13.503
13103W        W76860  31.508   6.776   1.850
13104W        W76861  28.980  40.369   2.848
13105W        W76862  15.149   1.362  12.499
13106W        W76863  42.408  28.582   0.967
13107W        W76864  13.156  39.021   1.412
13108W        W76865   5.863  35.513  12.457
13109W        W76866  38.827  32.619   3.153
13110W        W76867  14.187   0.479   1.393
13111W        W76868  13.840   2.752   3.693
13112W        W76869  42.021  28.075  12.871
13113W        W76870  38.845  12.140  14.489
13114W        W76871  14.684  19.086   1.414
13115W        W76872  38.357  14.210  12.396
13116W        W76873   0.361  11.370   4.318
13117W        W76874   4.213   4.758  10.923
13118W        W76875  43.840   6.309  12.452
13119W        W76876  21.748  25.063   3.864
13120W        W76877  16.198  39.822  12.380
13121W        W76878   4.375  25.204   1.897
13122W        W76879   3.392   0.320  14.986
13123W        W76880  15.282  13.122   4.825
13124W        W76881  30.454  29.139  14.873
13125W        W76882  34.922  25.472   1.349
13126W        W76883  18.061  30.645  13.461
13127W        W76884   5.926  29.151   0.786
13128W        W76885  43.503  38.453  14.475
13129W        W76886  20.571  16.298  12.939
13130W        W76887  25.614   3.787   4.607
13131W        W76888   5.399  18.567   1.212
13132W        W76889  38.402   2.373   0.314
13133W        W76890   4.214  28.973   4.354
13134W        W76891  18.212  43.786   0.357
13135W        W76892  34.114   0.781   2.747
13136W        W76893  10.293  39.472  14.331
13137W        W76894   0.776  30.562  13.868
13138W        W76895  22.739   2.885   1.872
13139W        W76896  36.070  10.169   0.875
13140W        W76897  29.941  26.006   2.241
13141W        W76898  19.055   3.223  11.999
13142W        W76899  15.099  10.379  12.452
13143W        W76900  42.779  12.315   0.748
13144W        W76901  41.492   9.795   4.667
13145W        W76902  23.537  42.484  12.008
13146W        W76903  12.818  27.527   0.426
13147W        W76904   6.815   8.344   3.865
13148W        W76905  36.875   8.783   2.704
13149W        W76906  30.600  12.842  13.829
13150W        W76907  21.101  39.859   4.710
13151W        W76908  25.189  36.053  12.414
13152W        W76909  40.455  20.239   0.907
13153W        W76910  17.622  19.655   4.219
13154W        W76911  17.301  34.465  12.957
13155W        W76912  25.691  30.477  13.842
13156W        W76913  25.566  19.614   0.440
13157W        W76914  17.288  30.495  10.965
13158W        W76915  21.731   7.404   1.862
13159W        W76916   7.306   3.412  12.554
13160W        W76917   7.910  14.769  13.533
13161W        W76918  14.339   4.730   0.933
13162W        W76919  38.353  44.414  12.553
13163W        W76920  28.934   9.750  11.030
13164W        W76921  26.953  27.021  12.866
13165W        W76922  39.495  28.181  13.916
13166W        W76923  30.455   7.343  14.495
13167W        W76924  32.085  21.662   2.413
13168W        W76925   6.415  38.928  10.131
13169W        W76926  12.301  20.726   4.296
13170W        W76927  39.994  37.028  13.837
13171W        W76928  12.734  17.101  10.636
13172W        W76929  25.576  15.637   4.281
13173W        W76930  37.475  22.192   1.332
13174W        W76931   6.322   7.324   1.836
13175W        W76932  17.305   6.300   4.752
13176W        W76933  17.726  10.286   2.705
13177W        W76934  28.613  24.491   5.188
13178W        W76935  39.432  13.138   1.889
13179W        W76936   0.293  16.293  10.408
13180W        W76937  36.904  20.655   1.285
13181W        W76938  29.020  27.451  14.761
13182W        W76939  18.790  35.476  13.540
13183W        W76940  26.630  44.924   2.818
13184W        W76941  41.807   0.984   1.337
13185W        W76942   9.329  10.227  13.420
13186W        W76943  29.091   4.440   2.309
13187W        W76944  43.454  35.398  12.550
13188W        W76945  34.511  17.253  10.486
13189W        W76946  21.250  13.188  14.310
13190W        W76947  24.137   4.702   0.440
13191W        W76948  31.407  35.891   4.316
13192W        W76949  21.561  23.626  11.564
13193W        W76950  19.217  40.882   4.698
13194W        W76951  10.341  22.680   3.726
13195W        W76952  39.361  21.245  11.373
13196W        W76953  15.147   4.891   0.337
13197W        W76954  14.308  39.873  13.449
13198W        W76955   1.860  11.668  12.366
13199W        W76956  10.331   9.841  14.985
13200W        W76957  28.052  26.459   2.778
13201W        W76958  23.526  14.835  13.523
13202W        W76959  33.116   7.860   2.734
13203W        W76960  20.564  10.354  14.817
13204W        W76961  10.291  18.236   1.764
13205W        W76962  40.009   1.926  12.451
13206W        W76963  36.419  16.668  10.454
13207W        W76964  15.744   0.413  12.515
13208W        W76965   0.924  16.647   3.841
13209W        W76966  27.457  33.484   0.737
13210W        W76967  29.034  28.672   0.788
13211W        W76968  34.393  33.096   4.230
13212W        W76969  24.623  23.566  13.487
13213W        W76970  28.596  36.561   0.420
13214W        W76971  40.438   2.444   5.672
13215W        W76972  21.216   9.354  13.054
13216W        W76973  20.141   5.780   0.933
13217W        W76974  15.280  33.026   1.326
13218W        W76975  17.726   8.666  14.791
13219W        W76976   6.689  10.146  13.382
13220W        W76977  35.370   0.985  13.029
13221W        W76978  37.913  25.583  10.573
13222W        W76979  12.739   9.263   2.725
13223W        W76980  14.726  17.260  10.501
13224W        W76981  39.507  20.201   4.778
13225W        W76982   8.695  28.583  10.963
13226W        W76983  25.628  15.254   2.313
13227W        W76984  42.975  25.030  10.614
13228W        W76985  31.499  29.977   2.347
13229W        W76986  11.637  23.099  14.304
13230W        W76987   5.716  29.019  11.899
13231W        W76988  39.393  40.971  11.435
13232W        W76989  24.172  31.566   2.851
13233W        W76990  25.101  26.598   4.772
13234W        W76991  19.639  15.774  13.528
13235W        W76992  23.502  37.847  14.879
13236W        W76993  21.169  31.009  12.509
13237W        W76994  30.439  31.153   0.471
13238W        W76995  31.030  33.027  14.456
13239W        W76996  15.728  44.328   3.284
13240W        W76997  14.667  12.261   0.468
13241W        W76998   7.865  12.155   2.391
13242W        W76999  44.969  28.074   3.699
13243W        W77000  33.960  24.574  13.543
13244W        W77001  31.000  30.070  10.479
13245W        W77002  18.580   8.167   4.718
13246W        W77003  36.979  38.444   4.300
13247W        W77004   4.837  30.543   0.775
13248W        W77005  32.056   8.724  13.507
13249W        W77006  32.409   0.274   0.316
13250W        W77007  29.169   6.290  14.786
13251W        W77008  41.454  16.207  13.496
13252W        W77009  23.520   7.909  14.313
13253W        W77010  17.599  17.286   0.910
13254W        W77011  13.657  17.594   4.740
13255W        W77012  43.424  40.480   2.802
13256W        W77013   9.281   2.421   2.189
13257W        W77014  18.187  31.415  10.448
13258W        W77015  31.431   9.801  13.818
13259W        W77016  29.577  13.171  12.474
13260W        W77017  21.740  10.777  13.527
13261W        W77018   2.810  24.053  13.393
13262W        W77019  34.431  32.018  10.926
13263W        W77020  13.802   8.685   3.771
13264W        W77021  40.816  24.022   0.830
13265W        W77022  43.297  40.463   4.766
13266W        W77023   5.214   8.160  13.483
13267W        W77024  28.504  33.901   2.246
13268W        W77025  42.913  19.241  14.965
13269W        W77026  28.441  23.128  11.544
13270W        W77027  40.940  43.433  10.489
13271W        W77028  11.797  25.141   2.680
13272W        W77029  41.979  21.660  14.430
13273W        W77030  43.981  37.525  11.937
13274W        W77031  38.537  42.883  14.929
13275W        W77032  16.764  34.521  13.796
13276W        W77033   5.322  35.538  11.112
13277W        W77034   7.242  12.727   3.853
13278W        W77035  25.015  27.047   0.368
13279W        W77036  44.921  25.178  13.447
13280W        W77037  43.908  37.534  13.930
13281W        W77038  18.692  39.407  10.428
13282W        W77039  37.004  24.077   0.775
13283W        W77040   8.234  12.640   4.722
13284W        W77041  31.099  26.475   4.260
13285W        W77042  20.705  33.049   2.331
13286W        W77043  33.621  40.975  13.919
13287W        W77044  33.927   0.909   3.167
13288W        W77045  34.010  28.611  14.860
13289W        W77046   8.723  25.691  13.388
13290W        W77047  18.090  39.024   2.767
13291W        W77048  40.944  16.235  14.342
13292W        W77049  18.146  29.938   2.279
13293W        W77050  11.162  42.486   1.806
13294W        W77051   4.437  25.622  12.339
13295W        W77052  32.045  40.352   0.948
13296W        W77053  27.091  11.151   3.793
13297W        W77054  19.555   5.357   1.291
13298W        W77055  38.872  12.277  10.564
13299W        W77056  35.414  20.560  12.443
13300W        W77057  12.678  37.903   0.472
13301W        W77058   1.356  16.729   2.212
13302W        W77059  11.162  44.770  14.343
13303W        W77060  31.072   5.802   2.196
13304W        W77061  42.006  36.986  12.840
13305W        W77062  40.948   3.873   2.830
13306W        W77063  27.953  26.461  14.899
13307W        W77064  27.630  35.003  14.936
13308W        W77065  16.800  38.506  10.450
13309W        W77066   8.340  21.114   4.779
13310W        W77067   9.684  12.342  11.442
13311W        W77068  17.609  29.655   4.784
13312W        W77069  24.560   6.704  14.960
13313W        W77070   8.241  18.593  10.943
13314W        W77071  34.544  44.430   1.771
13315W        W77072   7.666  18.238   4.724
13316W        W77073   6.922   7.369   4.743
13317W        W77074  23.235  26.169  11.409
13318W        W77075  15.174  25.550   0.797
13319W        W77076  35.042  34.498   4.714
13320W        W77077  39.414   6.265  13.891
13321W        W77078  39.521  23.212   0.266
13322W        W77079   8.709  20.037  13.956
13323W        W77080   5.719  32.589   4.752
13324W        W77081   4.386  32.609   2.876
13325W        W77082  32.549  31.017  14.318
13326W        W77083  34.427   8.689  13.492
13327W        W77084  26.535  28.673   0.788
13328W        W77085  21.087  26.498  11.373
13329W        W77086   0.797  37.983   1.886
13330W        W77087  22.155  39.446   1.859
13331W        W77088   6.789   1.889   2.378
13332W        W77089  38.541   9.177   1.765
13333W        W77090  31.102  22.201   3.767
13334W        W77091   7.814  19.577   4.194
13335W        W77092  42.029  14.593   4.126
13336W        W77093  16.579  12.804   0.252
13337W        W77094  23.998   1.402   1.292
13338W        W77095  14.694  39.446   4.706
13339W        W77096   0.488   8.840   3.238
13340W        W77097  16.087  21.568   4.825
13341W        W77098   6.404  32.611   3.329
13342W        W77099  16.753  32.523   4.775
13343W        W77100  13.773  25.627   4.251
13344W        W77101   1.893  14.783  11.594
13345W        W77102  13.641   4.268   0.788
13346W        W77103  14.697  26.027  13.397
13347W        W77104  44.762  15.297   1.387
13348W        W77105  33.547  28.027  11.573
13349W        W77106   6.879  35.426   1.377
13350W        W77107  41.537  39.998  14.845
13351W        W77108  11.767  42.406   4.765
13352W        W77109  25.084  19.273  12.826
13353W        W77110   0.894  21.548  12.987
13354W        W77111  15.584  37.858   3.850
13355W        W77112  25.200   8.764  13.325
13356W        W77113  16.203  38.463   3.837
13357W        W77114   6.327  14.127  13.497
13358W        W77115  17.679  23.036  14.898
13359W        W77116  22.578   7.874   4.750
13360W        W77117  11.847  24.717   1.764
13361W        W77118  28.095  27.021  14.978
13362W        W77119  18.291  42.341  11.608
13363W        W77120  19.557  43.507   1.908
13364W        W77121  24.626  29.123   0.935
13365W        W77122  24.622  42.988   0.868
13366W        W77123  31.067   7.786  10.531
13367W        W77124   8.748  17.258  11.953
13368W        W77125  12.237  43.911  14.506
13369W        W77126  14.662  11.139   2.837
13370W        W77127  15.816   0.958   1.349
13371W        W77128  35.545  17.101   0.877
13372W        W77129  20.271  36.403  12.859
13373W        W77130  44.881  28.576   3.731
13374W        W77131  35.530  28.100  14.956
13375W        W77132  10.223  44.504   4.251
13376W        W77133  17.702  32.514  12.559
13377W        W77134  31.981  27.550  13.836
13378W        W77135  40.537  37.064   0.927
13379W        W77136  27.096   9.723  10.500
13380W        W77137  20.678  27.645   2.843
13381W        W77138  18.293  10.675  13.915
13382W        W77139  12.621  27.639   4.287
13383W        W77140   2.734  28.018   1.257
13384W        W77141  33.001  10.227   3.855
13385W        W77142   9.815   4.293  12.914
13386W        W77143  30.944  34.402  14.965
13387W        W77144  27.193  21.093  11.091
13388W        W77145  20.749  16.235   3.321
13389W        W77146   7.816  34.934   0.778
13390W        W77147  33.975  29.645  13.456
13391W        W77148   1.328  32.480   1.838
13392W        W77149  13.303  14.184   1.848
13393W        W77150   5.796   8.209  11.606
13394W        W77151  19.761  21.188  11.000
13395W        W77152   1.857  25.124   0.445
13396W        W77153  33.509  17.575  13.370
13397W        W77154  15.168  24.034  11.976
13398W        W77155   7.894   6.815  11.112
13399W        W77156  37.432  30.997   4.126
13400W        W77157   6.401  32.129  11.952
13401W        W77158  42.338  16.140  11.591
13402W        W77159  10.642  12.306  11.405
13403W        W77160   3.771   9.338   4.678
13404W        W77161  41.477  26.174  10.951
13405W        W77162  24.185  31.920  14.474
13406W        W77163  28.632  21.172  13.408
13407W        W77164   3.310  26.136  14.357
13408W        W77165   5.886  18.273   1.926
13409W        W77166  38.059  21.150   1.433
13410W        W77167  17.090  12.816   3.823
13411W        W77168  29.145  16.089  13.413
13412W        W77169  20.611  26.457  12.469
13413W        W77170  21.512  31.546  14.837
13414W        W77171  15.170  28.115  12.059
13415W        W77172  42.886  15.247   4.680
13416W        W77173  27.023  22.202  14.868
13417W        W77174   4.809   8.339  11.093
13418W        W77175   7.825  34.413  13.889
13419W        W77176  39.829  15.590  11.991
13420W        W77177  18.132   2.768   2.819
13421W        W77178  37.860   7.366  11.589
13422W        W77179  43.329  13.731  13.024
13423W        W77180  36.093  14.734  14.789
13424W        W77181  18.088   3.410  10.500
13425W        W77182   9.828  12.639  11.068
13426W        W77183   6.249  18.053   2.763
13427W        W77184  24.047  30.113  10.604
13428W        W77185  15.811  43.841  14.499
13429W        W77186  28.469  36.897  10.640
13430W        W77187  14.674  13.670  13.937
13431W        W77188  31.076   7.192   1.335
13432W        W77189  40.841  41.898   3.782
13433W        W77190  17.608  41.903   2.816
13434W        W77191   5.883  20.270  12.544
13435W        W77192  18.621  33.977   2.227
13436W        W77193  17.176  38.864   1.733
13437W        W77194  29.474  14.699  12.841
13438W        W77195  22.050  16.605  11.053
13439W        W77196   0.252   3.382   3.220
13440W        W77197  31.009   7.784   3.795
13441W        W77198   1.833   3.879  11.390
13442W        W77199  29.537  40.904   2.399
13443W        W77200  12.700  31.605  12.828
13444W        W77201  26.496  39.843   1.316
13445W        W77202  22.569  36.053  14.494
13446W        W77203  25.215   3.836   2.792
13447W        W77204  20.178   4.737   1.441
13448W        W77205   4.410  26.988  10.997
13449W        W77206  20.557  11.738  12.488
13450W        W77207   0.314  38.541  13.892
13451W        W77208  20.229  20.233  14.765
13452W        W77209  25.563  31.940  14.918
13453W        W77210   3.242   0.801   4.127
13454W        W77211  40.039  40.406  11.447
13455W        W77212   6.858  28.000   2.705
13456W        W77213  26.594   4.427  10.924
13457W        W77214  40.349  18.668   0.957
13458W        W77215  23.044  38.035  12.897
13459W        W77216  31.441  19.174  13.938
13460W        W77217  16.107   4.234  12.566
13461W        W77218  12.296  32.547   1.912
13462W        W77219  44.404  35.988   0.919
13463W        W77220  26.974   2.441  12.982
13464W        W77221   4.260  15.099   4.721
13465W        W77222  19.773  33.537  14.029
13466W        W77223  37.985  35.921   3.714
13467W        W77224  33.441  29.508  10.927
13468W        W77225   8.725  37.901   0.895
13469W        W77226  25.537  21.058  11.860
13470W        W77227  16.262  21.070  10.090
13471W        W77228  40.024  21.739   1.428
13472W        W77229  10.728  24.175  14.296
13473W        W77230  20.209  12.828   9.966
13474W        W77231   1.929  19.723   4.752
13475W        W77232  26.186   9.790   1.219
13476W        W77233  38.847  17.752  12.409
13477W        W77234   3.424  27.487  12.514
13478W        W77235  12.831  25.642   4.622
13479W        W77236  25.522  30.141   3.649
13480W        W77237  29.924  11.800   0.871
13481W        W77238   8.314  37.018   0.727
13482W        W77239  43.448  30.440   0.964
13483W        W77240  27.977   1.338   0.321
13484W        W77241  40.955  30.956  11.483
13485W        W77242  26.064   9.743   4.309
13486W        W77243  21.131  30.462  11.068
13487W        W77244  11.679   4.919  14.418
13488W        W77245  30.017  12.336   2.182
13489W        W77246  20.201  10.212  12.552
13490W        W77247   2.360   9.705  12.013
13491W        W77248  30.537  42.436  14.776
13492W        W77249  15.629   2.850   2.333
13493W        W77250  39.531  13.723  12.032
13494W        W77251   9.220  16.317  10.936
13495W        W77252  37.467  38.853  14.840
13496W        W77253   0.282  31.082   1.421
13497W        W77254  43.360  31.525   2.239
13498W        W77255  22.653  17.075  10.605
13499W        W77256  18.658  31.596   1.400
13500W        W77257  15.192   6.868  12.059
13501W        W77258  32.063  30.540   3.305
13502W        W77259  36.512  13.230   0.355
13503W        W77260  44.753  25.664   3.360
13504W        W77261   4.749   0.450  14.307
13505W        W77262  37.087  31.408  12.005
13506W        W77263  12.228  27.556  12.844
13507W        W77264  12.691  21.619  13.014
13508W        W77265  22.034   9.793   2.307
13509W        W77266  23.710   6.920  14.472
13510W        W77267  21.252  13.320   4.638
13511W        W77268  11.623   6.886   3.779
13512W        W77269  41.928   0.838  13.060
13513W        W77270  37.060  31.100   1.268
13514W        W77271  27.112   0.755   1.409
13515W        W77272  34.529  34.405  12.469
13516W        W77273  12.804   8.747   3.846
13517W        W77274  43.907  15.795   0.257
13518W        W77275   1.358  26.126   0.923
13519W        W77276   2.934  11.316  11.606
13520W        W77277  36.934  35.517   2.875
13521W        W77278  17.226  34.383  14.927
13522W        W77279   7.672  39.556  14.499
13523W        W77280  36.868   1.790  10.441
13524W        W77281  24.521  38.850  11.543
13525W        W77282  13.120  17.204  12.048
13526W        W77283   4.726   5.303  10.469
13527W        W77284  21.571   2.762  12.058
13528W        W77285  20.246  16.654   0.752
13529W        W77286  26.655  10.373   4.140
13530W        W77287  29.510  36.506   3.178
13531W        W77288  37.460  42.386  10.521
13532W        W77289  12.347  43.349  12.413
13533W        W77290  35.589  37.087  10.928
13534W        W77291  38.542  15.777  13.364
13535W        W77292  28.436  28.969  12.001
13536W        W77293  11.243  27.028   3.657
13537W        W77294   4.327  10.857  14.405
13538W        W77295  16.226   6.807   1.447
13539W        W77296  40.517   8.681   1.843
13540W        W77297  25.206  44.269  13.313
13541W        W77298  22.045  36.022  11.402
13542W        W77299   3.454  44.924  14.805
13543W        W77300  10.660  27.510  14.978
13544W        W77301  26.528  14.130   9.979
13545W        W77302  21.023  32.391  12.088
13546W        W77303  21.243  15.816  13.381
13547W        W77304  10.815   3.298  10.952
13548W        W77305  24.558  40.443  12.486
13549W        W77306  43.923  28.992  11.903
13550W        W77307  39.050  41.957  13.855
13551W        W77308  43.791  35.097   0.406
13552W        W77309  10.225  14.301  14.428
13553W        W77310   2.330  18.551  13.895
13554W        W77311   6.376  10.800  10.907
13555W        W77312   6.386  13.313   0.435
13556W        W77313  24.629  43.452   1.705
13557W        W77314  42.443  23.188  11.101
13558W        W77315  18.576   2.940   3.713
13559W        W77316   1.818  43.373  11.123
13560W        W77317  43.969   4.259  14.453
13561W        W77318   4.777  37.462   4.295
13562W        W77319  16.692   4.894   4.298
13563W        W77320  16.169  20.202   0.474
13564W        W77321  21.038  31.091   5.226
13565W        W77322  40.483  37.919  14.855
13566W        W77323  43.984   4.336   2.368
13567W        W77324  10.224  12.142  13.060
13568W        W77325  22.231  36.909  11.532
13569W        W77326  28.153  19.263   1.696
13570W        W77327  21.692  19.150  12.931
13571W        W77328  22.188  39.402   4.761
13572W        W77329  29.656  33.111   3.807
13573W        W77330  23.026  23.121  14.841
13574W        W77331  25.495   9.283   1.435
13575W        W77332  20.716   1.267   3.686
13576W        W77333  32.019  10.164  14.498
13577W        W77334  22.218  44.002   1.242
13578W        W77335  10.636   3.904   2.690
13579W        W77336  44.823  16.631  11.384
13580W        W77337  28.104  13.260   1.443
13581W        W77338  19.646  15.255  13.041
13582W        W77339   3.360  37.082   1.336
13583W        W77340  15.769  41.319   2.246
13584W        W77341   7.715   1.427   0.728
13585W        W77342  28.080  10.715   0.422
13586W        W77343  13.163  18.111  14.028
13587W        W77344   1.851  20.049  13.445
13588W        W77345  40.833  37.947  10.932
13589W        W77346  38.433  11.702   2.222
13590W        W77347  35.562  14.609   2.203
13591W        W77348  22.524  31.110   3.700
13592W        W77349  41.371   3.376   2.851
13593W        W77350  28.544   4.270   2.356
13594W        W77351  21.079   3.893   0.247
13595W        W77352   3.940  14.249  12.069
13596W        W77353  21.677  19.588  14.852
13597W        W77354  33.931  32.393   0.257
13598W        W77355  36.555  15.257   2.746
13599W        W77356   6.200  21.228  13.863
13600W        W77357  34.070  16.664   1.752
13601W        W77358   8.221  37.390  13.979
13602W        W77359  34.089  37.506   3.648
13603W        W77360   6.245  14.808   2.202
13604W        W77361  38.831  29.555  14.432
13605W        W77362   5.903   6.726  12.971
13606W        W77363  43.959   5.848   2.409
13607W        W77364   3.227   9.822   4.118
13608W        W77365  36.989  19.545   3.159
13609W        W77366  29.489  43.394  11.120
13610W        W77367   2.349  33.390   9.943
13611W        W77368  33.919  12.646   0.745
13612W        W77369  18.633  33.076   3.338
13613W        W77370  20.601  35.486  12.050
13614W        W77371  19.566  27.658   1.451
13615W        W77372  26.085  18.207   1.264
13616W        W77373  13.775  15.179  13.804
13617W        W77374  28.101   7.691  10.585
13618W        W77375  13.326  22.533   4.750
13619W        W77376  34.554  32.416  12.833
13620W        W77377   3.421  37.393   3.761
13621W        W77378  41.955  34.095  12.377
13622W        W77379  15.289  12.356  10.412
13623W        W77380   0.810  32.096   5.150
13624W        W77381  25.593  13.143  14.890
13625W        W77382  21.078  25.646   3.728
13626W        W77383  12.652  28.079  14.329
13627W        W77384   4.327  21.595   4.330
13628W        W77385  30.098  32.948  13.329
13629W        W77386   4.794   7.904   1.796
13630W        W77387  18.564  39.424   0.816
13631W        W77388  16.205   7.284   4.665
13632W        W77389  27.997  37.073  11.479
13633W        W77390  21.166  33.897   4.113
13634W        W77391  44.859  19.546   4.643
13635W        W77392  29.153   1.309   2.284
13636W        W77393  14.127  20.189   0.784
13637W        W77394  32.575  20.697  14.474
13638W        W77395  39.815  32.936  14.339
13639W        W77396   2.425   6.708  14.320
13640W        W77397  21.112   7.719   1.229
13641W        W77398  31.579  34.402  12.451
13642W        W77399   2.858  43.410   1.854
13643W        W77400  13.707  30.419  11.419
13644W        W77401  25.126  21.643  11.061
13645W        W77402  26.133  31.553   1.767
13646W        W77403  39.368  38.875  13.331
13647W        W77404   1.927  11.318   2.282
13648W        W77405   9.749  42.918   3.831
13649W        W77406  37.006  23.203  14.825
13650W        W77407  35.451  22.996  12.066
13651W        W77408   2.881   6.282   3.856
13652W        W77409  22.550   2.966  10.572
13653W        W77410  40.904  36.842  11.102
13654W        W77411   7.191   1.801   1.333
13655W        W77412  40.836  23.519  11.104
13656W        W77413  13.320  41.844   1.771
13657W        W77414  31.114  35.362  10.606
13658W        W77415  14.809  37.040  14.812
13659W        W77416   9.259  25.499  12.880
13660W        W77417  12.256  28.662   2.811
13661W        W77418  43.963  32.002   1.765
13662W        W77419  29.510   7.210   0.869
13663W        W77420  33.900  12.293  10.575
13664W        W77421  12.752  20.716  13.339
13665W        W77422  29.030  10.210   2.284
13666W        W77423  42.463  36.013  13.043
13667W        W77424   9.166  41.019   5.622
13668W        W77425  32.993   0.373  12.870
13669W        W77426  14.743  35.908   3.327
13670W        W77427  24.006  22.250  13.053
13671W        W77428  16.700  28.676   0.483
13672W        W77429  16.128  27.065  10.616
13673W        W77430   0.452  11.345  12.088
13674W        W77431   2.468  40.819   0.872
13675W        W77432  38.359   2.892  12.532
13676W        W77433  42.321  13.112  14.848
13677W        W77434  32.072  32.902  14.856
13678W        W77435  19.666  30.135  14.443
13679W        W77436  42.969  24.650   1.822
13680W        W77437  41.985  17.116   0.853
13681W        W77438   8.178  18.788  10.445
13682W        W77439   1.813  26.035  11.408
13683W        W77440   5.253   3.283   3.851
13684W        W77441  34.912  40.811   3.317
13685W        W77442  43.922  30.634  11.422
13686W        W77443  22.220  20.036   1.844
13687W        W77444  16.625   5.827   0.759
13688W        W77445  21.725  39.366   1.392
13689W        W77446  25.075  15.139  13.806
13690W        W77447  17.102  15.637   0.956
13691W        W77448  28.662  37.846  12.372
13692W        W77449  28.157   6.812  12.397
13693W        W77450  17.635  11.345   5.195
13694W        W77451  26.170  27.451  10.472
13695W        W77452   2.404  44.363   3.652
13696W        W77453   8.312  39.849   4.816
13697W        W77454  36.491  27.653  13.949
13698W        W77455  42.886  19.674  13.948
13699W        W77456  17.290   9.810   4.209
13700W        W77457   4.887   6.851   0.839
13701W        W77458  11.831  27.972   1.218
13702W        W77459  29.074  29.526  11.390
13703W        W77460  37.406   7.286   4.796
13704W        W77461  40.896  19.233  11.015
13705W        W77462  33.987  24.989   2.266
13706W        W77463  32.126   2.328   3.312
13707W        W77464  38.529   4.272   3.186
13708W        W77465  29.570  17.646  11.091
13709W        W77466  16.665  17.702   1.318
13710W        W77467   0.429  13.790  11.495
13711W        W77468  12.190  42.970  12.005
13712W        W77469  10.172  33.388  11.567
13713W        W77470  19.535   2.823  12.942
13714W        W77471  20.229  14.835  12.838
13715W        W77472   8.832  16.222   1.431
13716W        W77473   5.248  27.644  12.501
13717W        W77474   4.230  23.560  11.961
13718W        W77475  32.908   3.239  13.455
13719W        W77476  42.025  23.641  10.610
13720W        W77477  37.888  10.368  12.499
13721W        W77478  21.147  16.090   1.357
13722W        W77479  30.063  20.669  12.826
13723W        W77480  17.098   0.380   0.931
13724W        W77481  13.262   6.330   5.235
13725W        W77482  36.914  12.744   2.879
13726W        W77483  41.043  31.630  13.034
13727W        W77484  28.486  18.088   0.786
13728W        W77485  42.799  41.471   2.771
13729W        W77486  22.235  28.097   3.339
13730W        W77487  40.036   8.821  12.511
13731W        W77488  42.381   8.814   2.762
13732W        W77489  16.607  31.442  12.990
13733W        W77490   9.686  34.933  10.977
13734W        W77491  16.651  17.625  12.985
13735W        W77492  32.990  15.631   3.632
13736W        W77493   0.798  42.985   1.721
13737W        W77494  27.608   6.417   0.368
13738W        W77495  44.316  14.725   2.374
13739W        W77496  41.469  10.680   1.303
13740W        W77497   8.339  32.518   1.402
13741W        W77498  27.979  37.986  14.899
13742W        W77499  14.284  40.878   4.317
13743W        W77500  17.573  26.641  14.477
13744W        W77501  35.525  36.469  11.393
13745W        W77502  43.923  40.959   2.381
13746W        W77503  37.418  12.673   3.150
13747W        W77504  26.607  43.472  13.539
13748W        W77505  25.651  17.131   2.358
13749W        W77506   9.837  44.377   4.630
13750W        W77507  14.283  33.122  14.004
13751W        W77508   7.811  34.567  14.358
13752W        W77509   6.921  28.595   0.784
13753W        W77510  18.066  34.021   0.351
13754W        W77511   9.666  42.025   2.887
13755W        W77512  28.639  36.504   2.857
13756W        W77513  42.965  16.177   3.725
13757W        W77514   0.354   4.858   1.357
13758W        W77515  26.590   5.744  10.930
13759W        W77516  21.181  30.473   1.439
13760W        W77517   7.778  44.291   2.842
13761W        W77518  10.298   2.253   1.735
13762W        W77519  38.450  15.087  11.504
13763W        W77520   2.348  41.982   1.400
13764W        W77521  36.895  30.081  14.355
13765W        W77522  14.669   3.916  10.600
13766W        W77523  18.286  41.880  11.073
13767W        W77524  15.683  41.012   4.757
13768W        W77525  37.533  43.304   1.369
13769W        W77526  36.034  41.400  11.941
13770W        W77527  44.326   5.267   4.642
13771W        W77528  36.905   0.306   3.203
13772W        W77529  41.884   2.409  10.949
13773W        W77530  28.491  21.654  14.907
13774W        W77531  18.715  33.096  11.103
13775W        W77532  30.148  43.001   3.211
13776W        W77533   0.371   2.895  10.485
13777W        W77534  28.962  34.112   2.245
13778W        W77535   1.742  25.632   4.159
13779W        W77536  42.955  10.245  13.980
13780W        W77537  41.449  10.163  14.909
13781W        W77538  19.225  43.846   1.775
13782W        W77539  24.119  41.904  11.012
13783W        W77540   4.317  35.574   3.222
13784W        W77541  14.671  35.570   2.418
13785W        W77542  19.284  31.064  13.904
13786W        W77543  44.945  27.558   2.209
13787W        W77544  39.523  41.924  13.830
13788W        W77545   0.287  27.133   4.354
13789W        W77546  41.359   8.688  14.010
13790W        W77547  36.447  17.189   3.811
13791W        W77548  25.019  17.748   4.308
13792W        W77549  31.601  36.055   1.715
13793W        W77550  14.186  39.999   0.460
13794W        W77551  19.100   4.766   4.235
13795W        W77552   3.716   5.698   0.906
13796W        W77553  32.094  35.517   2.772
13797W        W77554   1.932  23.731   0.463
13798W        W77555  28.469  11.228  10.911
13799W        W77556  32.920  40.316  13.921
13800W        W77557   5.307  26.144  14.412
13801W        W77558  35.872   6.181   3.821
13802W        W77559  39.948  20.072   2.269
13803W        W77560   3.235  35.475  12.416
13804W        W77561  33.099   9.767  13.029
13805W        W77562  34.594  17.169   0.808
13806W        W77563  10.185   6.735  14.846
13807W        W77564  23.568   9.807  12.576
13808W        W77565  26.015  10.695   2.750
13809W        W77566   3.386  22.675  14.446
13810W        W77567   2.291  19.078  14.876
13811W        W77568  24.527   2.749   0.893
13812W        W77569  36.492   1.916   0.937
13813W        W77570  19.211  42.934  12.072
13814W        W77571  16.766  15.688   0.356
13815W        W77572  39.031  14.156  12.342
13816W        W77573  26.164  39.834   4.604
13817W        W77574  15.120  34.930   3.646
13818W        W77575  10.175  39.845   1.787
13819W        W77576  22.668  16.111   3.772
13820W        W77577  11.160   3.417   3.378
13821W        W77578  31.516  26.599   3.191
13822W        W77579   0.848  29.010   1.348
13823W        W77580  39.875  33.413  14.830
13824W        W77581  11.821  26.574  10.071
13825W        W77582   3.298  33.492  10.514
13826W        W77583  25.125  26.666  13.418
13827W        W77584   5.875  20.643  14.901
13828W        W77585  19.248  30.506   1.394
13829W        W77586  35.485   7.278   3.202
13830W        W77587   8.760  38.968   2.183
13831W        W77588  15.644  13.134   0.300
13832W        W77589   7.265  29.001   4.267
13833W        W77590  40.496  28.504   4.621
13834W        W77591  28.073  18.269   3.306
13835W        W77592  29.170  19.680  14.411
13836W        W77593  26.542  16.101   0.422
13837W        W77594   2.321  15.158   4.283
13838W        W77595  28.533  13.753  11.958
13839W        W77596   8.743  44.480  12.544
13840W        W77597  23.602  12.826  11.127
13841W        W77598  33.037   8.667   3.811
13842W        W77599  35.082  14.719  11.956
13843W        W77600   3.353  41.366  14.307
13844W        W77601  10.291   4.382   2.219
13845W        W77602  40.920  11.266  10.892
13846W        W77603  36.587   3.377   2.363
13847W        W77604  15.100  39.914   4.815
13848W        W77605   3.337  15.195   3.237
13849W        W77606  32.028  44.403   0.870
13850W        W77607   3.431  40.926   1.776
13851W        W77608  37.000  43.439   3.658
13852W        W77609  40.817  40.445   4.670
13853W        W77610  12.341  15.098   3.178
13854W        W77611   8.661  31.995   5.277
13855W        W77612  33.510   5.800  13.848
13856W        W77613  42.350  36.095  13.431
13857W        W77614  24.173  27.457   0.770
13858W        W77615  23.036   3.910   3.354
13859W        W77616  26.045  44.965  13.810
13860W        W77617   0.835   3.270   4.236
13861W        W77618  33.026   1.342  12.379
13862W        W77619  19.733  25.063  12.546
13863W        W77620  23.612   1.388  10.945
13864W        W77621  44.843  24.006  12.941
13865W        W77622  17.119  39.966   2.259
13866W        W77623  27.000  10.169  12.535
13867W        W77624  33.004   7.820  13.940
13868W        W77625  33.468  37.344   0.778
13869W        W77626  42.983  22.512  12.502
13870W        W77627  36.448   4.349  13.402
13871W        W77628  33.915   6.211  11.064
13872W        W77629  38.876  24.184  11.603
13873W        W77630  31.477  33.512   1.288
13874W        W77631  10.175  22.234  13.426
13875W        W77632   2.447  39.351   2.188
13876W        W77633  30.974  10.313  12.880
13877W        W77634  35.561   5.388  11.938
13878W        W77635  35.886   1.822   3.751
13879W        W77636  38.878  24.074   0.899
13880W        W77637  13.144  27.476  14.866
13881W        W77638   3.781  22.067  11.427
13882W        W77639  23.031  12.284  14.306
13883W        W77640  44.354   3.252   3.776
13884W        W77641  26.204  23.002   1.255
13885W        W77642  37.580  12.125  14.954
13886W        W77643  20.030  19.607   3.730
13887W        W77644  32.402   8.782  13.374
13888W        W77645  27.953   7.753   1.801
13889W        W77646   7.305  27.591  14.836
13890W        W77647   7.249  13.845  13.319
13891W        W77648  22.709  28.035  10.640
13892W        W77649  37.388  37.506   3.671
13893W        W77650  12.189  31.574  14.028
13894W        W77651   1.429  37.558   3.870
13895W        W77652  17.185  44.967  11.372
13896W        W77653   2.334  29.016   4.314
13897W        W77654  16.083  29.657   3.722
13898W        W77655  17.802  26.476  13.923
13899W        W77656  17.689  41.400  10.541
13900W        W77657  21.262  26.548   0.392
13901W        W77658  29.004   9.805   4.715
13902W        W77659   5.739  28.547  11.520
13903W        W77660  32.042   0.446   9.952
13904W        W77661   1.743  15.275  14.394
13905W        W77662   8.849  37.565   4.289
13906W        W77663   8.822  32.084  14.455
13907W        W77664   0.780  30.983  12.922
13908W        W77665  33.435   8.163   0.298
13909W        W77666  35.459  21.722   3.870
13910W        W77667  36.513   9.215  14.446
13911W        W77668  26.615  31.947   0.766
13912W        W77669  41.533   7.845  11.021
13913W        W77670  25.036  19.553   3.749
13914W        W77671  31.532  28.023   3.818
13915W        W77672  19.636  40.472  14.938
13916W        W77673  32.585  43.815  11.425
13917W        W77674  11.335  17.614  12.355
13918W        W77675  21.696  16.103  14.422
13919W        W77676  43.347   7.866  12.928
13920W        W77677  42.440  26.665   4.610
13921W        W77678  22.634  42.445  11.009
13922W        W77679  24.502  17.621  12.444
13923W        W77680  18.246  11.622  14.908
13924W        W77681  14.241  31.117   1.887
13925W        W77682  31.962  38.527  10.458
13926W        W77683  39.968  20.567  14.407
13927W        W77684  32.039  18.770   4.130
13928W        W77685  42.792  40.431  11.048
13929W        W77686  41.370  13.744   4.814
13930W        W77687  30.106  26.599  14.000
13931W        W77688  11.194  13.757  11.590
13932W        W77689  21.618  24.031  14.281
13933W        W77690  38.354   0.461   2.206
13934W        W77691  37.054  20.214  12.010
13935W        W77692  20.273  11.646   9.968
13936W        W77693  37.532   5.728  10.003
13937W        W77694  25.661  32.917   3.263
13938W        W77695  27.641  31.080   0.867
13939W        W77696   1.425  26.683   1.340
13940W        W77697   9.256  13.301   3.822
13941W        W77698  39.006  34.104   3.802
13942W        W77699  21.251   0.899  12.471
13943W        W77700  17.627  35.926   4.801
13944W        W77701  22.041  21.638   3.292
13945W        W77702  22.019  42.480  13.947
13946W        W77703   4.291  41.816  10.086
13947W        W77704  21.236  36.426  10.407
13948W        W77705  11.795  21.539   2.862
13949W        W77706  14.135   7.206  12.353
13950W        W77707  23.644  33.542  11.086
13951W        W77708  14.649   1.320   5.684
13952W        W77709   1.874   0.472   3.160
13953W        W77710  21.109  22.577  10.896
13954W        W77711  44.006   6.381   1.394
13955W        W77712   1.372  36.051  14.832
13956W        W77713  38.943   1.750  12.524
13957W        W77714   9.261  18.175   4.747
13958W        W77715  26.644  44.391   4.234
13959W        W77716  12.281  41.949  14.951
13960W        W77717  41.844  39.988   3.202
13961W        W77718  11.318  20.036  12.853
13962W        W77719  30.012  19.267  14.901
13963W        W77720  10.717  22.729   2.381
13964W        W77721  35.932  42.830  11.553
13965W        W77722  44.777   4.298   1.753
13966W        W77723  40.028  31.107  13.015
13967W        W77724  34.057  30.920  11.424
13968W        W77725   8.844  36.588  10.554
13969W        W77726  41.514   1.245  13.000
13970W        W77727  43.329  13.740   3.201
13971W        W77728  39.956  35.428   2.201
13972W        W77729  12.260   8.200  10.936
13973W        W77730   4.392  27.651  13.369
13974W        W77731  33.101  11.168   2.734
13975W        W77732  22.013  23.063  13.424
13976W        W77733   7.856  31.531   3.657
13977W        W77734  22.224  37.435  10.592
13978W        W77735  20.148   2.382   4.683
13979W        W77736   9.665  32.050   1.405
13980W        W77737  14.799   0.887   4.269
13981W        W77738  23.629  22.529   4.300
13982W        W77739  23.146  40.513  13.923
13983W        W77740  33.488   3.861  12.017
13984W        W77741  29.022  30.637  14.337
13985W        W77742  24.549  18.284   3.181
13986W        W77743  18.590  23.137  14.997
13987W        W77744  24.707  31.124  11.055
13988W        W77745  38.568  22.997  14.917
13989W        W77746  14.217  23.223   1.332
13990W        W77747   2.819   7.415  13.008
13991W        W77748   6.734  17.719   0.903
13992W        W77749  38.448  16.686   3.308
13993W        W77750   2.900   2.847  13.385
13994W        W77751  13.640   3.725  11.012
13995W        W77752  39.960  28.163  12.900
13996W        W77753  13.808   6.228   1.240
13997W        W77754  30.601  13.661   3.269
13998W        W77755  12.742  14.608   3.638
13999W        W77756  40.878  22.117   4.680
14000W        W77757  23.720   3.952   2.720
14001W        W77758  20.726  30.624  14.382
14002W        W77759   6.802   5.422  13.374
14003W        W77760   1.733  16.662  11.008
14004W        W77761   9.232  42.963   2.848
14005W        W77762   8.838  35.920  10.954
14006W        W77763  41.004   2.233   9.995
14007W        W77764  22.649   6.686   3.170
14008W        W77765  29.534  21.115  10.543
14009W        W77766  30.552  37.839  14.369
14010W        W77767   4.351  41.792   4.349
14011W        W77768  16.800   0.984  10.933
14012W        W77769  16.621  21.223   1.856
14013W        W77770  40.403   3.864  11.432
14014W        W77771  15.171  20.702  13.412
14015W        W77772  28.029  23.640   0.329
14016W        W77773  12.769  41.007   1.230
14017W        W77774  27.987  44.298  11.885
14018W        W77775  37.883  24.993   1.744
14019W        W77776   0.443  11.796   2.754
14020W        W77777   0.982  44.900  13.963
14021W        W77778  17.184  18.165   3.746
14022W        W77779  23.688  42.927   4.708
14023W        W77780  15.147  30.155  12.006
14024W        W77781  18.155  44.285   3.681
14025W        W77782  41.483  19.186  14.276
14026W        W77783  38.919  20.239   3.326
14027W        W77784  15.120   5.710  11.589
14028W        W77785  24.536  21.027   1.250
14029W        W77786   0.479  23.084  11.875
14030W        W77787  26.552  22.229  14.773
14031W        W77788   4.918  35.387   2.860
14032W        W77789  40.968  40.472  12.042
14033W        W77790   4.941  14.144   4.157
14034W        W77791  22.150   4.258  11.446
14035W        W77792  44.931  38.884   2.865
14036W        W77793  34.588  35.486  14.357
14037W        W77794  18.585   1.322   4.313
14038W        W77795   8.858  18.640  10.571
14039W        W77796  22.716  18.669  14.810
14040W        W77797  28.175  26.548   3.813
14041W        W77798  43.833  26.596   3.729
14042W        W77799   5.885  31.126   0.380
14043W        W77800  26.974  25.649  13.478
14044W        W77801  13.107  13.706   2.847
14045W        W77802  21.747  26.094  10.903
14046W        W77803  33.890  14.266  13.862
14047W        W77804  32.104   3.311  12.508
14048W        W77805  29.071   4.428   4.619
14049W        W77806   7.834  32.916  14.886
14050W        W77807  28.088  39.379   0.730
14051W        W77808  39.009  19.680   3.702
14052W        W77809  32.016   0.352   0.902
14053W        W77810   4.710  11.630  11.911
14054W        W77811   2.820  20.272   0.792
14055W        W77812  24.079  27.989   4.118
14056W        W77813  29.164   1.456   0.827
14057W        W77814  19.755  15.300   0.244
14058W        W77815  40.376  19.154   2.750
14059W        W77816  30.417   1.978   3.834
14060W        W77817  12.647   5.290  10.990
14061W        W77818  42.965   6.360  12.390
14062W        W77819   2.722  22.526   2.231
14063W        W77820  27.980   7.356  14.930
14064W        W77821   2.270  40.986  13.984
14065W        W77822  23.491  35.080  13.505
14066W        W77823   9.153  31.924   0.799
14067W        W77824  37.842  42.804  14.456
14068W        W77825  32.005  33.129   2.862
14069W        W77826  43.388  10.712  12.025
14070W        W77827  16.296  38.862  11.557
14071W        W77828  38.513  19.054  14.417
14072W        W77829   0.953  37.895   4.202
14073W        W77830   7.874  16.246   2.683
14074W        W77831  27.000   1.291  13.404
14075W        W77832  17.630  32.891   1.319
14076W        W77833  31.558  35.933  11.566
14077W        W77834  37.569  27.019   0.347
14078W        W77835  19.600  20.174   3.356
14079W        W77836  37.507  15.582  11.606
14080W        W77837   5.688  27.962  11.509
14081W        W77838   2.875  36.087  12.503
14082W        W77839  28.110  11.640   2.221
14083W        W77840  27.587  20.201   2.322
14084W        W77841  36.011  38.842   2.296
14085W        W77842  18.176  25.066  13.880
14086W        W77843  16.186  42.437   4.123
14087W        W77844  44.754   6.778   2.252
14088W        W77845  31.923  12.149  12.506
14089W        W77846  19.687  36.099  14.973
14090W        W77847   1.834   4.710   2.864
14091W        W77848  31.106  11.151  12.893
14092W        W77849   7.815  22.669   4.768
14093W        W77850  10.155  43.893  14.438
14094W        W77851   7.905   5.346  11.000
14095W        W77852   1.478  14.255   2.837
14096W        W77853  23.508   5.749   4.281
14097W        W77854   5.910  24.576  14.923
14098W        W77855  29.124  19.771   4.236
14099W        W77856   9.374  35.876   4.660
14100W        W77857  10.825   9.779  14.372
14101W        W77858  35.888   5.360  10.960
14102W        W77859  17.555  24.056   3.264
14103W        W77860  31.905  17.072  13.991
14104W        W77861  22.646  30.551   1.778
14105W        W77862  15.297  33.540  13.864
14106W        W77863   0.301  44.329  10.446
14107W        W77864   5.270  13.638   2.897
14108W        W77865  11.775  25.570   4.140
14109W        W77866  31.944  13.254   1.794
14110W        W77867  20.244  23.554  12.859
14111W        W77868  13.789   3.236  11.593
14112W        W77869   9.172  14.217   0.793
14113W        W77870   2.386   9.157   4.797
14114W        W77871  13.680  21.642  13.506
14115W        W77872   1.949  36.458   0.818
14116W        W77873  20.564   1.789   2.721
14117W        W77874  11.834  22.652  14.395
14118W        W77875   9.662  43.430  11.469
14119W        W77876  13.249  43.404   1.234
14120W        W77877  26.179   9.760  12.887
14121W        W77878  11.738  23.042  10.473
14122W        W77879   3.841  14.287  14.003
14123W        W77880  41.967   3.312   3.271
14124W        W77881   4.371   2.365   2.373
14125W        W77882   4.721   9.183   2.783
14126W        W77883   8.676  28.610   4.119
14127W        W77884   1.388  35.520  10.531
14128W        W77885   4.420  30.537   4.236
14129W        W77886  26.481  19.188  13.061
14130W        W77887  17.800  42.024  13.467
14131W        W77888  17.597  36.479   2.842
14132W        W77889  44.763  20.028   1.872
14133W        W77890   2.759  12.747   1.796
14134W        W77891  25.202  26.618   2.740
14135W        W77892  15.808   6.770  13.348
14136W        W77893  44.396   1.753  14.879
14137W        W77894  36.090  36.352  14.311
14138W        W77895  21.047  38.951   0.254
14139W        W77896  27.137  33.483   9.996
14140W        W77897  32.429  14.701   4.651
14141W        W77898  17.089  21.604   0.835
14142W        W77899  33.424  14.702  12.079
14143W        W77900  14.737  16.161  11.940
14144W        W77901  17.733   3.927  14.352
14145W        W77902  29.522  43.771   1.929
14146W        W77903  39.378  41.908  11.019
14147W        W77904  35.915   4.748  11.095
14148W        W77905  34.044   2.915  10.916
14149W        W77906  29.520  19.120   3.805
14150W        W77907  44.263  39.424  13.377
14151W        W77908   5.362  23.194  13.976
14152W        W77909  23.016  18.560  12.910
14153W        W77910  29.595  22.049   1.335
14154W        W77911  32.632  30.112  13.984
14155W        W77912  40.414  22.654   3.852
14156W        W77913  23.633  23.568  12.407
14157W        W77914  26.070  11.230   0.953
14158W        W77915  31.908  18.252  14.293
14159W        W77916  19.537   8.167  13.927
14160W        W77917  44.387   1.856   0.362
14161W        W77918   8.246  44.306   2.342
14162W        W77919  16.639  28.007  14.365
14163W        W77920  10.254   5.286   1.242
14164W        W77921   6.288  31.584  12.026
14165W        W77922   0.363   7.762  12.557
14166W        W77923  31.100  17.699   3.777
14167W        W77924  12.344  29.074  14.321
14168W        W77925  26.466  40.835   4.240
14169W        W77926  27.993  17.139  12.889
14170W        W77927  18.658  41.825  10.453
14171W        W77928  18.585  31.964  14.306
14172W        W77929  24.644  13.350  10.502
14173W        W77930  25.038  36.412  14.373
14174W        W77931  26.203  41.328  10.502
14175W        W77932  14.215  22.647   1.761
14176W        W77933  38.839  44.408  12.042
14177W        W77934  12.641  19.737   1.903
14178W        W77935  27.148  18.150   3.192
14179W        W77936  41.806  23.214   0.770
14180W        W77937  38.469  11.144   2.739
14181W        W77938  22.599   5.746   3.255
14182W        W77939  21.720  28.084   4.776
14183W        W77940  16.260  37.971  12.512
14184W        W77941   2.353  29.519   1.902
14185W        W77942   2.240  43.832   3.147
14186W        W77943  44.420   1.406  13.044
14187W        W77944  43.359  11.689   0.788
14188W        W77945   5.925  21.133  11.862
14189W        W77946  36.567   3.410  11.400
14190W        W77947  20.165  30.645   1.767
14191W        W77948  36.454   6.404  10.635
14192W        W77949  33.585  22.536   3.160
14193W        W77950  13.746  22.147   3.292
14194W        W77951  23.714   4.879   1.745
14195W        W77952  20.165  16.128  14.973
14196W        W77953  18.550  24.188   0.456
14197W        W77954  10.779  20.089  13.385
14198W        W77955  20.554  35.432  13.410
14199W        W77956  32.998  32.399   2.251
14200W        W77957  40.838  37.851   1.274
14201W        W77958  31.903   1.244   4.820
14202W        W77959  16.215   5.347  14.440
14203W        W77960  29.498   8.682   2.359
14204W        W77961  38.527  28.169   0.432
14205W        W77962  35.939  37.846   4.304
14206W        W77963  31.428  17.763   4.627
14207W        W77964  23.700  38.567  14.480
14208W        W77965  11.269  26.631  12.357
14209W        W77966  14.625   5.830   3.252
14210W        W77967   5.725  36.589   4.295
14211W        W77968  30.550  33.455  12.072
14212W        W77969  40.394  38.077  12.512
14213W        W77970   3.244  44.394  12.421
14214W        W77971   2.267  28.106   5.224
14215W        W77972  42.505  10.274   0.951
14216W        W77973  39.486   2.829   1.369
14217W        W77974  36.987  28.586   0.804
14218W        W77975  44.333   0.936   1.796
14219W        W77976  16.122  18.749  12.357
14220W        W77977  14.289  29.093   1.382
14221W        W77978   1.922  20.694   1.271
14222W        W77979   8.695  44.944  14.452
14223W        W77980  38.357  39.950   3.201
14224W        W77981  43.446  25.540  14.322
14225W        W77982  22.190  31.611  11.450
14226W        W77983  26.628  30.510   3.729
14227W        W77984  28.456  37.558   0.315
14228W        W77985  26.084  25.474   5.720
14229W        W77986  28.008  18.117  11.443
14230W        W77987   9.173  20.595   1.910
14231W        W77988   4.278  15.175   4.196
14232W        W77989  33.906  34.539   0.844
14233W        W77990   7.706  34.928   4.799
14234W        W77991  12.175   5.407  12.496
14235W        W77992  12.762  42.970  11.079
14236W        W77993  16.760   9.719   4.708
14237W        W77994  33.094  25.059  10.126
14238W        W77995  12.789   0.988  14.294
14239W        W77996  32.089  14.614   2.331
14240W        W77997  33.935   3.254   9.971
14241W        W77998  10.324  33.965   1.340
14242W        W77999  10.757   1.897   1.288
14243W        W78000  33.625   7.799  13.389
14244W        W78001  12.708   0.771   1.227
14245W        W78002  18.119  15.144  12.351
14246W        W78003  43.856   0.354   1.757
14247W        W78004  26.488  18.170   9.976
14248W        W78005  31.897  20.075  12.370
14249W        W78006  16.105   9.821   0.252
14250W        W78007  43.965  39.529   0.887
14251W        W78008  15.765  14.766  11.485
14252W        W78009  44.843  32.935   1.730
14253W        W78010  34.469  19.627   4.762
14254W        W78011   7.829  24.516   4.646
14255W        W78012  29.642   2.357  10.124
14256W        W78013  29.028  16.657  11.496
14257W        W78014   6.723  28.941   0.385
14258W        W78015  39.394  18.265   0.792
14259W        W78016  15.679  21.140  11.421
14260W        W78017  12.744  29.617   1.925
14261W        W78018   7.288  21.138  10.528
14262W        W78019   2.286  33.961   2.890
14263W        W78020  30.123  18.749   4.667
14264W        W78021  37.364  20.614   1.219
14265W        W78022  38.841  13.245   0.878
14266W        W78023  25.193  14.592  14.942
14267W        W78024  33.112  17.173   4.668
14268W        W78025  15.824   2.862  11.928
14269W        W78026  11.295   1.836  13.427
14270W        W78027  28.134  10.184   1.782
14271W        W78028   8.727  43.452  10.963
14272W        W78029   5.339  36.943  11.080
14273W        W78030  40.051   3.919  12.503
14274W        W78031  10.853  35.987  12.945
14275W        W78032  23.709   4.226   4.128
14276W        W78033  22.137  26.521  10.926
14277W        W78034  17.753  23.589   4.319
14278W        W78035  11.372  20.594   3.371
14279W        W78036  29.169   4.823   3.216
14280W        W78037  27.586   9.752  13.043
14281W        W78038   3.377   6.346  11.985
14282W        W78039  13.747  35.381   1.884
14283W        W78040  19.650  15.151   0.923
14284W        W78041  40.378  34.487  11.090
14285W        W78042  21.716  42.373  12.055
14286W        W78043  40.971  21.147  11.893
14287W        W78044   0.766  20.120   3.686
14288W        W78045  23.996  36.460  12.072
14289W        W78046   8.817  41.304   2.297
14290W        W78047  14.265  40.543  12.374
14291W        W78048   2.945  26.062  12.024
14292W        W78049  38.390  28.161  14.402
14293W        W78050   4.222   2.347   3.836
14294W        W78051  13.205  17.181   3.166
14295W        W78052   2.436   7.832   0.853
14296W        W78053  31.631  42.006   0.781
14297W        W78054  13.835  31.532   2.326
14298W        W78055  18.719  41.840   0.357
14299W        W78056   4.710  30.498   3.733
14300W        W78057  24.642   0.843  12.410
14301W        W78058  28.530  14.319   0.447
14302W        W78059   2.465  11.155  14.333
14303W        W78060  22.500  30.952  12.910
14304W        W78061  15.271  23.601  13.889
14305W        W78062   3.846  21.117  12.467
14306W        W78063  38.038  43.423   3.777
14307W        W78064  43.323  15.266   0.865
14308W        W78065  32.970  21.229   2.775
14309W        W78066  43.877  36.067   1.744
14310W        W78067  23.698   5.417  12.925
14311W        W78068  21.527   0.326   2.372
14312W        W78069  44.434  29.551  14.786
14313W        W78070  36.095  42.835   3.172
14314W        W78071  36.852  14.774   1.821
14315W        W78072  12.298  13.272  11.600
14316W        W78073  26.003  39.016   2.334
14317W        W78074   8.226  17.240  14.315
14318W        W78075  20.124  36.073   1.425
14319W        W78076   3.248  29.600  14.515
14320W        W78077  38.558  20.681  12.370
14321W        W78078   6.876   1.368   4.305
14322W        W78079  11.716  16.232  13.357
14323W        W78080  20.527   7.806  13.354
14324W        W78081  12.752  43.876  14.955
14325W        W78082   8.831  29.460  12.520
14326W        W78083  26.973  11.220   0.442
14327W        W78084  33.986  21.216  11.447
14328W        W78085  29.053   3.281  11.006
14329W        W78086  16.199   5.239  13.354
14330W        W78087   4.853   8.719  12.503
14331W        W78088  22.122  31.922  10.470
14332W        W78089  29.434  10.365  11.423
14333W        W78090   3.381  24.668   0.308
14334W        W78091   0.315  35.880   3.384
14335W        W78092  14.267  11.342   3.706
14336W        W78093  27.566  12.703   4.276
14337W        W78094   5.764  40.411   3.847
14338W        W78095  31.498  37.378   4.261
14339W        W78096   8.698  14.193   3.203
14340W        W78097  40.497  35.601   0.789
14341W        W78098   3.806  13.826  10.903
14342W        W78099  16.204   6.312   0.315
14343W        W78100  41.402  15.167  14.488
14344W        W78101  44.389  38.479   3.696
14345W        W78102  12.193  18.107   3.734
14346W        W78103  34.445  23.572   4.176
14347W        W78104  40.541  28.934   3.736
14348W        W78105  12.270  36.078   4.790
14349W        W78106  43.942  23.668   0.380
14350W        W78107  42.472  38.055  14.772
14351W        W78108  20.170  20.153   2.883
14352W        W78109  15.698  22.552  13.525
14353W        W78110  41.390  42.372  11.956
14354W        W78111  11.863  38.918   4.188
14355W        W78112   2.371  25.996   1.348
14356W        W78113  44.960  21.514   1.709
14357W        W78114  34.585   7.245  10.508
14358W        W78115  14.259  43.299   0.923
14359W        W78116  18.646  20.632  14.483
14360W        W78117  40.895  43.433  12.877
14361W        W78118  33.102  42.832   2.684
14362W        W78119  24.626   6.310  11.399
14363W        W78120  20.074   2.389   2.305
14364W        W78121  26.991  11.777   3.794
14365W        W78122  17.572  17.274   4.601
14366W        W78123  16.184   5.861   4.834
14367W        W78124  42.904  31.570  14.289
14368W        W78125  10.340   2.910  11.096
14369W        W78126  35.000  34.083  11.538
14370W        W78127  37.836  26.022  10.931
14371W        W78128  44.367  38.330   3.245
14372W        W78129  19.098  25.007   2.194
14373W        W78130   2.441  18.059   4.630
14374W        W78131  19.274  43.391   0.418
14375W        W78132   3.450  17.642  14.988
14376W        W78133  36.433  21.609   2.830
14377W        W78134   8.401  17.634   5.127
14378W        W78135   6.785  11.289   3.222
14379W        W78136  30.933  39.961   4.128
14380W        W78137   2.872  15.795   2.270
14381W        W78138  41.926  24.113   4.310
14382W        W78139  29.153   2.363   5.227
14383W        W78140   3.246  19.249   2.205
14384W        W78141  20.252  31.456   1.758
14385W        W78142  38.040   0.332   1.776
14386W        W78143  13.636  43.775   1.219
14387W        W78144  17.141  28.622   4.730
14388W        W78145   3.893   3.931  14.293
14389W        W78146   3.438  40.492   3.183
14390W        W78147  17.204   5.208   1.774
14391W        W78148  35.588  35.388   1.871
14392W        W78149  34.373  28.495   3.640
14393W        W78150  39.383  31.987  11.116
14394W        W78151  34.027  36.396  12.494
14395W        W78152   7.271  38.498   4.351
14396W        W78153   7.324  41.464  14.886
14397W        W78154   3.809   6.226  10.553
14398W        W78155  31.127  44.291  13.984
14399W        W78156  38.036   5.370   1.325
14400W        W78157  22.057  18.174  12.548
14401W        W78158   4.321  36.872  13.469
14402W        W78159  18.293  43.769   3.839
14403W        W78160  41.537  17.113  11.568
14404W        W78161  20.553  20.718  10.522
14405W        W78162  31.975  16.760  14.029
14406W        W78163  14.626  23.578  10.005
14407W        W78164  27.548  13.301   1.449
14408W        W78165   4.382  11.674   1.311
14409W        W78166  11.782   2.309   0.334
14410W        W78167  38.495  15.192   2.309
14411W        W78168  29.975  11.830   2.258
14412W        W78169  13.700  42.979  11.038
14413W        W78170  35.593  27.468   1.396
14414W        W78171   3.784   4.752   4.238
14415W        W78172  22.558  23.065  10.541
14416W        W78173  42.522  41.474  14.927
14417W        W78174   2.349  38.545  13.541
14418W        W78175  21.547   0.443  11.419
14419W        W78176  19.750  18.138   1.331
14420W        W78177   8.853  14.747  11.527
14421W        W78178   5.786   7.698  10.904
14422W        W78179  39.858  44.811   3.769
14423W        W78180  15.235  34.958  12.376
14424W        W78181  12.307  29.618   2.272
14425W        W78182   3.945  42.909  10.987
14426W        W78183  22.050  28.997   4.682
14427W        W78184  13.733  25.687   3.293
14428W        W78185   2.355  30.051   3.217
14429W        W78186  16.567   1.877   4.782
14430W        W78187  43.859  13.737   3.299
14431W        W78188  27.084  24.979   5.802
14432W        W78189  24.208  22.234   2.260
14433W        W78190   7.210  14.323  13.802
14434W        W78191  39.885  33.607   2.401
14435W        W78192  37.573  24.193   3.714
14436W        W78193  39.999  13.775  12.988
14437W        W78194  32.001   1.894  13.322
14438W        W78195   2.416   9.803   3.670
14439W        W78196  20.595  34.434   2.697
14440W        W78197  19.066   2.250   4.626
14441W        W78198  42.393  40.909  11.611
14442W        W78199  18.186  14.620   0.890
14443W        W78200   6.355  15.262   2.257
14444W        W78201  15.823  32.450   4.205
14445W        W78202   7.871  44.909  14.006
14446W        W78203  41.494  16.638  14.499
14447W        W78204   5.870  27.136  10.441
14448W        W78205  28.975  32.049  11.440
14449W        W78206  41.907  44.403  13.920
14450W        W78207  29.575  39.383  11.857
14451W        W78208  29.117   0.826   1.268
14452W        W78209   5.909  30.996  11.404
14453W        W78210  14.758  18.726   1.757
14454W        W78211   5.839   0.868  11.029
14455W        W78212  23.539   4.233   3.344
14456W        W78213  32.057  10.191   3.833
14457W        W78214  38.073  22.202   0.937
14458W        W78215  19.565  38.976  11.382
14459W        W78216   7.704   7.682   3.220
14460W        W78217   2.328  12.749   4.776
14461W        W78218  32.398  35.979   1.735
14462W        W78219   7.908  29.596  10.458
14463W        W78220   6.851   9.238  11.397
14464W        W78221  10.329  22.620   1.315
14465W        W78222  30.556   2.848   9.640
14466W        W78223  23.151  24.012  13.934
14467W        W78224  22.650  32.957  10.449
14468W        W78225  41.315  10.271  12.381
14469W        W78226  15.682  15.705  13.041
14470W        W78227   0.299  21.662   2.894
14471W        W78228   1.909  19.644  11.086
14472W        W78229  23.008  10.302  14.293
14473W        W78230  32.414  33.457  12.848
14474W        W78231  27.605  21.538   4.292
14475W        W78232  37.353   2.457  12.528
14476W        W78233  25.106  36.059   4.675
14477W        W78234   8.677   3.266   1.356
14478W        W78235  25.979  44.501  13.403
14479W        W78236  41.887   9.297   1.902
14480W        W78237   0.450   5.219  13.421
14481W        W78238  10.716   9.257   3.711
14482W        W78239  14.148  14.280  11.992
14483W        W78240  30.587  44.307  13.986
14484W        W78241  42.290  15.255  12.954
14485W        W78242  25.007   0.976  14.796
14486W        W78243  17.179  38.525   0.278
14487W        W78244  16.726  17.278   0.320
14488W        W78245  10.728  39.491  14.778
14489W        W78246   4.909  16.625  13.825
14490W        W78247  20.547  36.540   0.955
14491W        W78248  37.013   2.809   1.695
14492W        W78249  18.674  44.277   1.762
14493W        W78250  36.067  16.216   1.911
14494W        W78251  31.109  33.410  10.478
14495W        W78252   6.794  27.541   3.779
14496W        W78253  39.920  35.094  11.019
14497W        W78254  23.502  36.401   3.318
14498W        W78255  29.433  39.527  13.309
14499W        W78256  25.973  35.377   0.957
14500W        W78257  41.375  34.377  10.977
14501W        W78258  34.566  12.648  12.948
14502W        W78259  11.711  22.230  13.403
14503W        W78260  36.371  10.265   4.263
14504W        W78261  35.467  19.233  11.895
14505W        W78262  29.001  29.983   4.297
14506W        W78263  44.479   9.700   1.242
14507W        W78264  43.489  18.280   0.464
14508W        W78265  20.764  35.892  10.060
14509W        W78266  37.406  23.666  10.542
14510W        W78267   2.284   8.230  11.419
14511W        W78268  24.051   0.922  10.944
14512W        W78269  10.380  11.701   0.467
14513W        W78270  34.907  21.105   1.724
14514W        W78271  20.628  27.190  11.004
14515W        W78272  11.739  24.986  14.989
14516W        W78273  16.209  35.423   4.598
14517W        W78274  16.776  17.785  12.074
14518W        W78275  30.986  16.288  10.144
14519W        W78276  31.015  23.731   5.228
14520W        W78277  42.349  26.581  13.965
14521W        W78278  28.162   0.892   1.288
14522W        W78279  12.362  37.508  12.996
14523W        W78280  24.182  20.690   3.323
14524W        W78281  40.410  26.559  12.404
14525W        W78282  23.617   4.260  13.340
14526W        W78283  41.935  15.212   3.311
14527W        W78284  33.551   8.358   3.643
14528W        W78285   0.269  36.870   3.682
14529W        W78286  42.787  22.536   1.878
14530W        W78287  29.548  18.091  11.031
14531W        W78288  20.219  43.985   0.902
14532W        W78289   7.691  12.648   0.815
14533W        W78290   6.212  19.078   1.289
14534W        W78291  34.526   6.369  13.918
14535W        W78292  33.508  33.077  14.945
14536W        W78293  32.979   3.723  13.507
14537W        W78294   3.899  32.096  10.515
14538W        W78295  37.372  12.798   0.419
14539W        W78296  32.581  29.634   4.263
14540W        W78297  14.639  20.704  14.948
14541W        W78298  12.325  38.042   1.845
14542W        W78299  27.559   5.861   0.888
14543W        W78300   4.379  34.011   4.784
14544W        W78301  39.345  29.503  13.433
14545W        W78302   0.914   7.832   4.681
14546W        W78303  32.468  14.776   2.179
14547W        W78304  35.365  31.905   0.905
14548W        W78305  44.501  10.855  11.994
14549W        W78306  41.872   3.303  10.547
14550W        W78307  37.987  25.671   0.272
14551W        W78308  32.415   6.681   0.934
14552W        W78309  20.068  36.388  12.033
14553W        W78310  38.057  30.449   5.295
14554W        W78311   5.348  41.995  13.852
14555W        W78312  37.423  23.629   2.759
14556W        W78313   7.732  32.603   1.730
14557W        W78314  21.220  20.732  13.377
14558W        W78315  30.940  19.578   0.410
14559W        W78316  40.490  18.599  14.418
14560W        W78317  37.962  18.718   0.859
14561W        W78318   3.369  29.033  14.817
14562W        W78319  18.110  25.539   1.331
14563W        W78320  26.512  36.980   0.259
14564W        W78321  20.138  29.137  10.135
14565W        W78322  14.709   2.959   0.410
14566W        W78323  12.334  42.522   3.778
14567W        W78324  13.337  25.197   9.957
14568W        W78325  39.944  38.042  12.856
14569W        W78326   2.839  30.520   4.618
14570W        W78327  27.956  25.504   2.319
14571W        W78328   8.355  13.636  10.481
14572W        W78329  23.529  25.495  10.896
14573W        W78330  33.470  11.356  13.939
14574W        W78331  37.049  40.033   3.789
14575W        W78332   1.446  32.926   2.732
14576W        W78333   8.679   1.799  10.931
14577W        W78334  19.167  10.178  10.958
14578W        W78335  42.893   8.167  12.964
14579W        W78336  34.388  31.908   0.420
14580W        W78337   1.481  36.022  10.403
14581W        W78338  19.116  15.595   4.671
14582W        W78339  16.806  38.848  10.520
14583W        W78340  37.024   8.213   1.330
14584W        W78341  36.574  27.967   2.878
14585W        W78342  34.880  30.599  12.468
14586W        W78343  36.477  20.671  11.588
14587W        W78344  11.812  11.189   4.674
14588W        W78345  24.602  10.841  10.617
14589W        W78346  17.694  20.764   3.233
14590W        W78347  39.527  35.075   4.646
14591W        W78348   6.904  19.577  10.917
14592W        W78349  25.007   8.245   1.229
14593W        W78350  30.545  22.511   2.323
14594W        W78351  39.044  44.271   3.747
14595W        W78352  14.219  34.993  10.978
14596W        W78353  41.023  16.588   1.706
14597W        W78354  30.113  34.576  14.491
14598W        W78355  25.134  34.058  13.803
14599W        W78356  17.138  36.540  10.445
14600W        W78357  41.433  44.917   1.836
14601W        W78358  34.605  21.142  11.442
14602W        W78359  31.088  42.789   5.250
14603W        W78360  23.609   3.259   2.335
14604W        W78361  15.683  44.416  12.905
14605W        W78362  31.949  39.354  11.390
14606W        W78363   2.324  11.137  13.866
14607W        W78364  31.149  16.704   9.504
14608W        W78365   3.261   9.735  14.801
14609W        W78366  24.621  44.975   4.817
14610W        W78367  32.091  37.980  14.281
14611W        W78368   0.854  21.185  10.429
14612W        W78369  32.075  37.457   0.372
14613W        W78370  22.643  21.246   2.369
14614W        W78371  44.997  23.565   4.616
14615W        W78372  44.270  44.917   1.756
14616W        W78373   7.338  22.747   1.301
14617W        W78374   4.432   6.319  14.413
14618W        W78375  30.454  21.555  12.014
14619W        W78376   0.354   7.398   4.166
14620W        W78377  14.111   9.795   1.845
14621W        W78378  19.268  26.056  13.353
14622W        W78379  28.175  43.484   4.335
14623W        W78380  30.600   7.906  13.366
14624W        W78381  39.446  39.559  11.391
14625W        W78382  11.144  11.164   4.128
14626W        W78383  28.138   5.405  12.558
14627W        W78384  12.850  15.695   5.273
14628W        W78385   0.464  33.605  13.314
14629W        W78386  32.433  16.112   2.819
14630W        W78387   3.379  39.899   3.754
14631W        W78388  43.284  24.086  11.523
14632W        W78389  25.674  42.375  13.958
14633W        W78390   2.250  32.525  11.915
14634W        W78391  43.792  37.982   1.315
14635W        W78392  12.124   3.752  12.878
14636W        W78393   5.734   0.370   1.237
14637W        W78394  29.918  39.339   4.808
14638W        W78395  30.075   3.845   0.851
14639W        W78396  26.501  20.201  14.872
14640W        W78397  18.681  39.979  14.328
14641W        W78398  24.523  29.073  12.476
14642W        W78399  36.415  19.214  12.554
14643W        W78400  33.887  19.711   0.923
14644W        W78401  12.645  38.956  13.434
14645W        W78402  40.816  16.649  12.885
14646W        W78403  11.832   9.383   4.300
14647W        W78404  33.459  36.453   4.678
14648W        W78405   5.909  44.346   3.652
14649W        W78406  26.587  21.145  11.448
14650W        W78407   6.404  28.033   4.835
14651W        W78408   3.763  10.682  13.479
14652W        W78409  15.133   3.866  14.950
14653W        W78410  17.221  22.021  12.039
14654W        W78411   3.430  38.560   4.702
14655W        W78412  44.901   8.704  12.093
14656W        W78413  34.570  39.541   4.329
14657W        W78414  11.672  17.629   3.680
14658W        W78415  38.495  26.574  13.988
14659W        W78416  29.486   4.378   1.252
14660W        W78417  25.098  18.264  11.459
14661W        W78418  33.491  25.537   2.696
14662W        W78419   2.271   1.843   3.280
14663W        W78420  39.377   2.349  13.367
14664W        W78421  44.347  29.064  12.059
14665W        W78422   5.257  22.652  14.825
14666W        W78423   0.422  22.087  11.480
14667W        W78424  27.098   5.316  11.872
14668W        W78425  23.577  30.999  13.924
14669W        W78426  23.110   0.870   1.298
14670W        W78427  37.910  39.314  10.995
14671W        W78428  27.508   0.486   2.178
14672W        W78429   8.224  28.025   2.355
14673W        W78430  44.324  13.774  14.409
14674W        W78431  25.173  40.968   4.193
14675W        W78432  31.919   7.227  10.513
14676W        W78433  35.892   6.885  14.457
14677W        W78434   0.805   6.854   1.743
14678W        W78435  11.732  41.479   0.394
14679W        W78436  31.547  18.689  11.899
14680W        W78437  27.944   1.901   4.169
14681W        W78438  40.467   8.669  10.142
14682W        W78439   7.823  27.450   2.323
14683W        W78440   6.235  25.180  12.093
14684W        W78441  42.937  32.069   1.835
14685W        W78442  32.136  29.482  10.505
14686W        W78443   8.864  42.483   4.120
14687W        W78444  16.755  28.957  10.637
14688W        W78445  17.702  31.477  10.639
14689W        W78446  21.152  31.106   0.785
14690W        W78447  34.510  11.145  14.023
14691W        W78448  38.978  31.040   3.379
14692W        W78449   6.363   1.887   2.193
14693W        W78450  41.922   7.325   1.410
14694W        W78451   1.389  15.748  14.830
14695W        W78452  19.276  14.789  11.107
14696W        W78453  35.541  25.134   4.152
14697W        W78454  18.266  42.921  13.387
14698W        W78455  12.646  23.490   4.250
14699W        W78456   1.383   0.317   0.944
14700W        W78457  20.732  31.632  13.402
14701W        W78458  41.852  14.271  14.315
14702W        W78459  30.516  12.238  14.413
14703W        W78460   6.419   0.876  14.301
14704W        W78461  35.993  43.916   4.206
14705W        W78462   1.452  26.569   4.834
14706W        W78463   7.885  38.046   0.789
14707W        W78464  43.955   4.723   0.815
14708W        W78465   1.774  40.468   3.213
14709W        W78466  10.280   2.793   0.808
14710W        W78467   4.234  41.471  10.416
14711W        W78468  17.779  13.702  12.083
14712W        W78469   4.916  22.106  14.382
14713W        W78470  34.086  30.953   9.941
14714W        W78471  44.481   1.746  12.900
14715W        W78472  10.825  14.830   2.262
14716W        W78473  41.993  23.102   3.706
14717W        W78474  43.893  18.597   2.409
14718W        W78475  22.169   1.862  14.945
14719W        W78476  11.763  14.270  13.873
14720W        W78477  17.066  39.417   0.267
14721W        W78478   5.692  22.116  11.541
14722W        W78479   9.661  44.391  13.804
14723W        W78480  34.542   2.418   1.820
14724W        W78481   1.868   9.333   1.287
14725W        W78482  39.031  29.498   2.254
14726W        W78483  33.505   4.898   1.264
14727W        W78484   9.167   9.668  10.497
14728W        W78485   4.379  11.673   1.757
14729W        W78486  23.698  38.059  14.474
14730W        W78487  39.001  10.877   2.352
14731W        W78488  42.941  33.934  11.887
14732W        W78489  22.146  44.893   3.751
14733W        W78490  29.051  44.410   3.836
14734W        W78491  10.304   2.342   2.686
14735W        W78492  44.805   2.283   2.360
14736W        W78493  23.568  38.999  14.902
14737W        W78494  32.446  33.000  14.500
14738W        W78495   2.455   5.419   0.247
14739W        W78496   8.399  17.139   2.715
14740W        W78497  29.512  18.730   2.733
14741W        W78498  40.441  27.149  11.955
14742W        W78499  16.739  19.088  14.957
14743W        W78500  28.599  40.053   3.369
14744W        W78501  15.700  44.297   1.269
14745W        W78502  20.197  16.244   5.636
14746W        W78503   6.834  26.581  14.932
14747W        W78504   3.771  19.190  12.390
14748W        W78505  30.038  21.019   1.247
14749W        W78506  40.932  33.394  11.948
14750W        W78507  29.656  25.993   4.258
14751W        W78508  42.022   5.352  13.058
14752W        W78509  24.183  22.561  12.840
14753W        W78510   0.867   2.879  14.855
14754W        W78511  38.525  19.569   3.375
14755W        W78512  13.191  11.668   3.382
14756W        W78513  25.114  34.955  12.557
14757W        W78514   9.795  11.210   2.773
14758W        W78515   0.390   1.758   2.670
14759W        W78516  33.407  32.091  12.082
14760W        W78517  30.592   9.193   0.886
14761W        W78518   0.295  44.263   1.764
14762W        W78519  29.512  33.414   4.698
14763W        W78520  43.390  33.384  10.954
14764W        W78521  26.061  35.011   0.370
14765W        W78522  11.686  40.022  10.476
14766W        W78523   8.900  11.692  11.937
14767W        W78524  24.009  12.177   1.865
14768W        W78525   8.380   6.878  10.556
14769W        W78526  10.854  13.105  12.931
14770W        W78527  28.679  39.815   0.478
14771W        W78528  14.764   0.745   3.754
14772W        W78529   7.376  24.125  10.527
14773W        W78530  29.005   2.745   4.296
14774W        W78531  17.176  31.140   4.187
14775W        W78532   2.809  15.736  13.476
14776W        W78533  43.801   0.864  10.619
14777W        W78534  25.098  17.241   1.738
14778W        W78535  16.692  42.463  12.961
14779W        W78536   7.403  13.288  11.513
14780W        W78537  35.853  13.628  14.291
14781W        W78538  39.883   7.278  12.539
14782W        W78539  44.265  27.498  13.851
14783W        W78540  11.705  16.306   2.670
14784W        W78541   3.864  44.871   1.377
14785W        W78542  13.204   8.870  12.381
14786W        W78543  10.343  22.503  13.373
14787W        W78544   0.492   4.402  10.904
14788W        W78545   9.728  38.568  12.558
14789W        W78546   1.267   3.342  12.413
14790W        W78547  10.138  37.995   0.276
14791W        W78548  44.777  20.767  12.824
14792W        W78549   1.433   1.271  13.928
14793W        W78550  27.990  44.795  12.536
14794W        W78551   0.857  24.482   3.667
14795W        W78552  36.541  11.726  10.086
14796W        W78553  41.860   3.334   3.665
14797W        W78554   0.753  12.156   1.436
14798W        W78555  37.075  25.500   2.285
14799W        W78556  40.006  27.093   2.729
14800W        W78557   6.790   4.774  11.990
14801W        W78558   6.330   2.243   1.336
14802W        W78559  44.817  24.487  10.949
14803W        W78560  34.962   8.286   2.880
14804W        W78561  22.069  41.388   0.835
14805W        W78562  34.047  20.266  13.889
14806W        W78563  11.722  30.932  11.402
14807W        W78564  30.955  38.056   0.936
14808W        W78565  41.916  20.132  10.595
14809W        W78566  36.888  38.921  10.465
14810W        W78567  41.922  30.503   2.254
14811W        W78568  10.868  22.658   1.286
14812W        W78569  22.624  19.593  10.453
14813W        W78570  28.663  26.594   0.248
14814W        W78571   5.817  14.191  12.062
14815W        W78572  17.671   1.407  10.086
14816W        W78573  10.700   5.837  13.866
14817W        W78574  29.932  19.755   0.440
14818W        W78575  36.099   5.398  13.418
14819W        W78576   2.242   0.436  11.497
14820W        W78577  17.565  22.120  10.944
14821W        W78578   1.756  18.051   0.244
14822W        W78579   9.851  38.879   1.413
14823W        W78580   8.737   5.195  12.518
14824W        W78581  39.537  21.152  11.886
14825W        W78582  25.611  39.439  11.505
14826W        W78583  32.636   9.873   4.684
14827W        W78584  12.324  40.501   4.713
14828W        W78585  10.650  34.407   1.293
14829W        W78586  30.488  38.822  14.987
14830W        W78587  39.953  27.595  13.513
14831W        W78588   1.784  19.061   4.279
14832W        W78589   5.723  43.950  10.938
14833W        W78590  17.716  43.368  14.885
14834W        W78591  41.951  44.872   1.813
14835W        W78592   6.715  20.650  12.460
14836W        W78593  25.544  27.970   9.996
14837W        W78594  44.321  26.649  11.084
14838W        W78595  37.053  36.574  11.053
14839W        W78596  42.339  26.976  12.499
14840W        W78597  44.371  19.043  13.878
14841W        W78598  34.490   1.292   0.452
14842W        W78599  42.790   5.412  12.519
14843W        W78600  27.115   7.248  12.834
14844W        W78601  38.858   3.940   5.649
14845W        W78602   8.788  31.094   1.414
14846W        W78603  29.528  33.406   3.228
14847W        W78604   8.790   5.816  14.402
14848W        W78605  29.155  33.407  14.762
14849W        W78606   2.827  37.983  11.105
14850W        W78607  10.761   0.306  11.889
14851W        W78608  14.624  31.405  14.952
14852W        W78609   5.863  41.830  12.529
14853W        W78610   9.861  37.420  12.471
14854W        W78611  22.666  20.757   2.224
14855W        W78612  43.774  12.196   3.839
14856W        W78613   7.839   3.364   5.238
14857W        W78614  28.498  15.098  12.476
14858W        W78615   9.227  11.810   2.239
14859W        W78616   3.411   9.782   4.796
14860W        W78617   2.277  28.052   1.743
14861W        W78618  11.648  34.114   4.757
14862W        W78619  25.015  31.416   3.642
14863W        W78620   7.180  17.699   1.295
14864W        W78621  17.794  28.130   0.956
14865W        W78622  22.129  24.630   1.791
14866W        W78623   3.779  38.956  10.564
14867W        W78624  40.328   4.709  12.565
14868W        W78625  37.081  20.739   4.664
14869W        W78626  22.642  22.021   0.840
14870W        W78627  34.918  19.694   4.124
14871W        W78628  35.522  30.921   2.691
14872W        W78629   4.416  29.938   3.352
14873W        W78630  20.176  38.947  12.845
14874W        W78631  32.430  36.589  10.937
14875W        W78632  23.525  42.494  13.362
14876W        W78633  23.734  26.041   3.355
14877W        W78634  26.208  29.052   0.876
14878W        W78635  30.568  39.468   3.677
14879W        W78636  33.615  40.381   4.838
14880W        W78637  29.965  24.549   3.777
14881W        W78638  26.032  28.549  11.050
14882W        W78639  35.416   8.880   3.178
14883W        W78640  39.393   8.806   2.897
14884W        W78641   4.393   3.334   4.202
14885W        W78642  12.713  39.898   1.832
14886W        W78643  39.996  41.955   2.388
14887W        W78644  16.173  12.839   3.652
14888W        W78645  31.970  41.836  13.318
14889W        W78646  16.109  20.529   0.728
14890W        W78647  37.042  37.337   2.214
14891W        W78648   9.249  32.088  12.907
14892W        W78649  24.021  23.198   3.294
14893W        W78650   6.688  25.492  10.423
14894W        W78651  10.381   7.886   1.764
14895W        W78652   5.312  43.277   3.293
14896W        W78653   7.228   6.802  14.929
14897W        W78654   1.327  35.589  13.327
14898W        W78655   1.409   0.309  11.884
14899W        W78656  28.066  34.996  11.039
14900W        W78657   8.740  42.006   0.259
14901W        W78658  37.555  16.229   0.358
14902W        W78659  33.123  26.534  10.525
14903W        W78660  25.648  34.005  11.055
14904W        W78661  38.541  26.480   1.810
14905W        W78662  17.207  27.492  13.051
14906W        W78663  37.510  28.185  14.310
14907W        W78664  29.077  13.778   1.434
14908W        W78665  38.013   7.359   1.390
14909W        W78666  31.460  31.930   1.211
14910W        W78667  21.619  14.201   4.252
14911W        W78668  27.472  33.036   2.840
14912W        W78669  37.484  21.215  11.593
14913W        W78670  29.600   0.283   0.243
14914W        W78671  32.141  30.525  11.054
14915W        W78672  25.141  20.672   0.886
14916W        W78673   1.739  36.477  11.947
14917W        W78674  22.745   0.375  14.010
14918W        W78675  27.149   4.217   1.850
14919W        W78676  42.965  28.538   3.302
14920W        W78677   7.790  20.129   3.812
14921W        W78678  19.047  16.146   1.927
14922W        W78679   4.441  25.976   3.170
14923W        W78680  29.073   1.330  10.988
14924W        W78681   0.334  21.230   1.903
14925W        W78682  18.210  20.528  13.943
14926W        W78683  18.055  19.591   5.294
14927W        W78684  32.974  25.977   1.216
14928W        W78685   5.432  31.089  13.476
14929W        W78686  14.186  22.076   2.290
14930W        W78687  33.055  23.642   2.675
14931W        W78688  34.117  32.038   4.200
14932W        W78689   7.296  10.694   2.419
14933W        W78690  36.081   0.856   3.180
14934W        W78691  11.290  43.371  13.468
14935W        W78692  15.732  43.441   2.397
14936W        W78693  43.464  36.574  14.509
14937W        W78694  43.994  35.423   0.780
14938W        W78695  21.225  40.392   3.185
14939W        W78696  33.915  39.836  10.559
14940W        W78697  19.153  23.667  13.360
14941W        W78698  24.160  33.033  10.411
14942W        W78699   0.934  17.564  11.859
14943W        W78700  25.535  27.156  13.408
14944W        W78701  30.463  39.425  11.875
14945W        W78702   3.757   2.855  12.884
14946W        W78703   1.879  15.786   0.815
14947W        W78704  23.614  19.608   1.402
14948W        W78705  12.346  26.553   0.766
14949W        W78706  24.196  17.213  13.466
14950W        W78707  14.768  37.496   5.144
14951W        W78708  30.102   2.899   2.372
14952W        W78709  39.887  40.514  14.029
14953W        W78710  42.413  21.108  10.927
14954W        W78711  39.395  11.738  12.388
14955W        W78712   7.904  31.964  14.851
14956W        W78713   7.855   1.864   0.938
14957W        W78714  29.947  20.108   0.249
14958W        W78715  43.279  39.479  14.309
14959W        W78716  14.317  33.486   1.748
14960W        W78717  22.033  35.562   4.295
14961W        W78718  22.080  19.704   2.717
14962W        W78719   1.918   6.207  10.431
14963W        W78720  36.981  25.101   3.850
14964W        W78721   4.778   4.381  12.094
14965W        W78722  17.583  18.710  10.110
14966W        W78723  14.288  26.513   3.831
14967W        W78724  42.345  14.232   1.238
14968W        W78725  27.959   2.351  14.775
14969W        W78726  17.778  27.644  13.978
14970W        W78727  14.668   2.760  12.383
14971W        W78728  36.062  15.676   4.122
14972W        W78729  26.560  40.867  11.392
14973W        W78730  24.992  14.319   1.440
14974W        W78731  42.031  35.542   0.407
14975W        W78732   1.928  44.380  12.916
14976W        W78733  34.890   7.231   0.375
14977W        W78734   1.968  33.947  14.960
14978W        W78735   4.390   0.911  13.877
14979W        W78736   8.226  20.192  11.863
14980W        W78737   4.446  12.805   3.251
14981W        W78738  13.264  30.100   2.220
14982W        W78739  40.032  29.169  12.499
14983W        W78740  40.822  33.895   2.843
14984W        W78741  29.927   3.256   1.354
14985W        W78742  44.761  43.464   4.307
14986W        W78743  31.051   6.197  12.967
14987W        W78744  24.002   9.379   0.245
14988W        W78745  20.702  39.436   0.267
14989W        W78746  26.051   6.212  14.922
14990W        W78747  27.994  23.003  12.887
14991W        W78748   5.332  35.067   1.392
14992W        W78749   7.698  43.905  12.070
14993W        W78750   4.835  43.390   2.218
14994W        W78751  31.126   1.869   2.378
14995W        W78752   3.263  40.898   1.253
14996W        W78753  25.573  41.355   3.176
14997W        W78754  19.641   6.772   3.272
14998W        W78755  30.578  18.077   0.400
14999W        W78756  24.568  35.855  14.354
15000W        W78757  18.691  25.043  13.312
15001W        W78758  39.531  20.081  11.053
15002W        W78759  42.431  43.476  14.489
15003W        W78760  33.998  14.764  12.374
15004W        W78761  39.530  10.295   0.940
15005W        W78762   0.791  39.368  11.075
15006W        W78763  29.029   2.763   0.274
15007W        W78764  41.393  29.105  10.944
15008W        W78765  27.057  33.524   4.601
15009W        W78766  20.760  26.148   1.835
15010W        W78767  21.516  39.339   4.274
15011W        W78768  36.886  11.361  10.481
15012W        W78769  41.967  19.092  12.959
15013W        W78770  22.689  33.407   2.789
15014W        W78771  16.621  43.004  10.929
15015W        W78772  44.803  41.861  14.275
15016W        W78773  11.715  28.985  12.399
15017W        W78774   1.466  16.627  13.951
15018W        W78775  16.657   6.832  12.854
15019W        W78776  38.346  23.681  11.519
15020W        W78777  44.010  37.422   1.372
15021W        W78778   8.730  32.011  11.488
15022W        W78779   7.274  36.375   3.326
15023W        W78780   1.800   4.327   3.834
15024W        W78781  28.553  33.109   4.663
15025W        W78782  21.529   4.886  13.975
15026W        W78783  42.808  43.279  10.520
15027W        W78784  22.545  22.549   3.268
15028W        W78785  37.865  44.876  14.313
15029W        W78786  28.593  20.748   2.862
15030W        W78787  23.629   4.840  11.897
15031W        W78788  33.458  38.906   4.308
15032W        W78789  25.503  30.910  12.566
15033W        W78790   4.418  19.249  13.861
15034W        W78791  15.635  23.701   4.719
15035W        W78792  15.282  19.091   1.392
15036W        W78793   5.855   6.893  14.862
15037W        W78794   3.429  41.507   0.399
15038W        W78795  38.406  31.605  14.852
15039W        W78796  15.121  22.089  12.958
15040W        W78797  29.967  16.593   3.346
15041W        W78798  31.919  36.882   3.172
15042W        W78799  23.565   0.875  11.399
15043W        W78800  33.499  44.892   3.726
15044W        W78801  23.655  23.564  11.014
15045W        W78802   6.771   1.472  13.316
15046W        W78803  40.359  18.740   1.450
15047W        W78804   0.275  10.370   3.630
15048W        W78805  10.175  28.077   3.750
15049W        W78806  28.037   5.371   4.792
15050W        W78807   0.406  36.035  10.608
15051W        W78808   1.414  24.620   1.828
15052W        W78809  31.419   9.710   1.863
15053W        W78810  16.116  26.463  13.889
15054W        W78811  43.814   9.155   3.320
15055W        W78812  36.089  37.887  11.930
15056W        W78813  37.013  35.050  14.455
15057W        W78814  29.132   1.312  13.365
15058W        W78815  34.063  20.204  13.472
15059W        W78816   9.848  23.221   3.768
15060W        W78817  11.730  22.219   4.733
15061W        W78818   9.360  12.806  13.887
15062W        W78819  21.214   0.937   3.200
15063W        W78820   8.701  37.467  13.012
15064W        W78821  24.687  11.269   0.377
15065W        W78822   2.772  13.834  10.623
15066W        W78823   2.352  27.133  14.873
15067W        W78824  33.521  27.585   0.938
15068W        W78825  40.484  41.516  11.405
15069W        W78826   9.860   8.808  12.966
15070W        W78827  16.649   6.265   0.254
15071W        W78828   4.270  42.788  10.633
15072W        W78829   8.247  16.211   3.381
15073W        W78830  37.910  37.522  12.541
15074W        W78831   4.788  18.153  10.575
15075W        W78832  26.506   2.462  11.909
15076W        W78833  27.467  19.650  13.813
15077W        W78834   8.874   0.460   3.702
15078W        W78835  34.877  38.473   4.140
15079W        W78836  20.123  43.950   4.230
15080W        W78837  14.286  35.988  14.414
15081W        W78838  29.920   7.356   1.930
15082W        W78839  33.395  14.203  13.883
15083W        W78840  18.072  15.312  11.942
15084W        W78841  40.899  38.502  14.499
15085W        W78842  29.056  16.155  12.832
15086W        W78843  42.821  16.135   0.383
15087W        W78844   8.265  30.105  10.544
15088W        W78845  28.960  40.993   3.220
15089W        W78846  38.498  30.654  12.034
15090W        W78847   9.385  26.528   4.190
15091W        W78848   0.355  14.796  14.445
15092W        W78849  28.064  16.264   2.717
15093W        W78850  28.021  14.828  11.077
15094W        W78851  31.152  12.620  14.325
15095W        W78852  44.983   5.220  14.793
15096W        W78853  28.552  26.490   1.253
15097W        W78854  32.543  27.987   3.299
15098W        W78855   6.406  12.342   0.453
15099W        W78856   3.865  37.976  11.992
15100W        W78857  14.785   1.372   1.346
15101W        W78858  24.040  10.349   4.750
15102W        W78859  30.059  34.030  13.373
15103W        W78860   6.741  33.491  12.067
15104W        W78861  28.513   2.444  11.886
15105W        W78862  34.112   7.311  10.484
15106W        W78863  35.981  21.608  14.900
15107W        W78864  11.230  34.503   1.450
15108W        W78865  29.624   7.679   3.786
15109W        W78866  36.992  37.574  10.608
15110W        W78867   4.384   4.343  13.870
15111W        W78868   0.786  11.287  11.018
15112W        W78869   3.779  34.087   0.298
15113W        W78870  16.119  37.882  14.782
15114W        W78871   3.273   4.932  12.032
15115W        W78872  22.610  33.559   3.729
15116W        W78873  24.219  32.542  11.418
15117W        W78874  43.464  38.075   4.822
15118W        W78875  23.191  19.703   3.261
15119W        W78876  16.773  21.100   0.420
15120W        W78877  18.609  17.175   3.630
15121W        W78878  37.866  27.021  11.381
15122W        W78879  30.443  43.492   3.170
15123W        W78880  10.768  24.992   4.793
15124W        W78881  39.967  22.521  11.434
15125W        W78882  37.847  42.410   4.126
15126W        W78883  35.040   6.244   4.640
15127W        W78884  41.980   8.672  10.996
15128W        W78885  39.034   0.955   1.854
15129W        W78886  14.171  32.586   3.260
15130W        W78887  31.932  12.805   3.361
15131W        W78888  37.465  38.466   0.349
15132W        W78889  13.757  35.106  11.514
15133W        W78890  16.800  20.545  10.610
15134W        W78891   2.963  11.203  13.378
15135W        W78892  42.370   8.216   4.768
15136W        W78893  40.389  29.507  12.070
15137W        W78894   4.706  34.994  10.463
15138W        W78895  30.948  37.086  11.868
15139W        W78896  27.968  24.102  11.604
15140W        W78897  32.013  15.684  12.441
15141W        W78898  40.313   5.411   0.463
15142W        W78899  24.497  14.260   0.264
15143W        W78900  34.604  29.470  12.407
15144W        W78901  34.375  35.856   2.886
15145W        W78902  33.936  18.132  12.881
15146W        W78903  30.539  32.018  14.887
15147W        W78904  36.890  33.898   0.780
15148W        W78905  23.633  39.046  13.002
15149W        W78906  11.861  34.011   2.381
15150W        W78907  36.464   8.275  10.901
15151W        W78908   7.325  35.577   4.127
15152W        W78909  40.973  16.242   1.825
15153W        W78910  39.527  24.195   0.782
15154W        W78911  14.180  38.536   0.894
15155W        W78912  14.681  12.163   0.921
15156W        W78913  26.025  31.474   4.618
15157W        W78914  11.686  31.015   0.275
15158W        W78915  43.512  25.584   3.789
15159W        W78916   1.424  13.113  12.461
15160W        W78917  11.214   2.332   2.202
15161W        W78918  24.166  11.719  12.015
15162W        W78919  33.978  25.656   5.130
15163W        W78920  16.233  43.427  13.053
15164W        W78921   0.412  30.513   4.209
15165W        W78922  31.531  30.089  12.509
15166W        W78923   5.362  32.547  10.925
15167W        W78924  37.480  25.566   1.368
15168W        W78925  40.328  39.356  10.497
15169W        W78926  39.320  25.582  11.065
15170W        W78927  42.986  19.155   3.380
15171W        W78928   9.836  30.654   3.235
15172W        W78929   1.379   1.901  10.901
15173W        W78930   0.925  35.915  14.347
15174W        W78931  13.227   6.273   0.852
15175W        W78932   5.795   4.233   4.125
15176W        W78933   9.696   3.776  11.974
15177W        W78934  11.841  27.128   4.207
15178W        W78935   5.407  24.145  12.392
15179W        W78936  17.062   4.788   5.299
15180W        W78937  22.682   1.274  11.963
15181W        W78938  17.774  16.133   5.200
15182W        W78939  27.109  30.558  12.907
15183W        W78940  32.089  34.029  13.311
15184W        W78941  40.322   9.887  13.377
15185W        W78942  23.505  33.122  11.872
15186W        W78943   4.718  34.883  13.437
15187W        W78944  38.975  17.672   0.394
15188W        W78945  42.013   1.434  13.938
15189W        W78946  26.478  28.105  12.072
15190W        W78947  12.691   2.261  13.030
15191W        W78948  21.564  21.637   0.419
15192W        W78949  25.040  19.759  10.937
15193W        W78950  23.019  25.509   3.748
15194W        W78951   7.390   4.280   2.752
15195W        W78952  42.894   2.448   3.729
15196W        W78953  35.952  23.650   0.749
15197W        W78954   8.680  17.260  10.476
15198W        W78955  43.438  19.213   4.197
15199W        W78956   5.741  11.819  13.959
15200W        W78957  36.582  33.498  14.282
15201W        W78958  24.583  15.136   4.617
15202W        W78959  41.319  23.568   1.813
15203W        W78960  44.005   7.783  14.494
15204W        W78961  38.961  22.090  10.130
15205W        W78962  43.445  42.847  10.424
15206W        W78963   0.781  23.505  10.609
15207W        W78964   0.818  25.017  13.012
15208W        W78965   5.291  38.461  13.429
15209W        W78966  23.186  24.526  14.345
15210W        W78967  10.671   4.295  12.488
15211W        W78968  16.697  17.302  14.421
15212W        W78969  32.892  32.958  14.324
15213W        W78970  18.200  22.745   1.913
15214W        W78971  32.435   3.875   0.285
15215W        W78972  27.653  32.031   4.353
15216W        W78973  20.563  17.705   0.366
15217W        W78974   4.248  29.025  14.958
15218W        W78975  20.109   5.789  10.116
15219W        W78976  27.649  19.092  13.814
15220W        W78977  20.167   6.682  11.115
15221W        W78978  26.681   4.744  13.399
15222W        W78979   6.680  14.192  11.592
15223W        W78980  18.239  14.671   2.389
15224W        W78981  42.931  29.613  10.547
15225W        W78982  44.986  26.467  13.792
15226W        W78983  21.136  16.629  13.908
15227W        W78984  27.120   4.870  11.394
15228W        W78985  34.058  29.514  11.473
15229W        W78986  11.220  17.071  10.892
15230W        W78987   8.256  22.702  10.502
15231W        W78988   1.318  19.134   2.695
15232W        W78989  34.025  27.083  11.971
15233W        W78990  40.428   3.927   3.358
15234W        W78991  35.376   4.727  10.155
15235W        W78992  31.007  44.889  11.021
15236W        W78993  33.951   6.191   1.764
15237W        W78994  28.968  14.122  14.468
15238W        W78995   4.754  12.291  11.029
15239W        W78996  39.388  36.898  12.529
15240W        W78997   8.781  35.571  13.436
15241W        W78998  39.560   0.768   3.783
15242W        W78999  44.948  32.477  13.533
15243W        W79000   5.770  25.654  12.559
15244W        W79001  32.029  19.711   2.786
15245W        W79002  39.385  19.154  11.592
15246W        W79003  23.989  43.442   0.816
15247W        W79004  13.282  10.737   3.803
15248W        W79005  23.655  11.137  10.464
15249W        W79006  10.870   7.687  10.902
15250W        W79007  16.180  36.040  12.982
15251W        W79008  44.466  31.147   2.402
15252W        W79009   3.305  44.341  12.874
15253W        W79010  24.493  44.966  12.572
15254W        W79011  37.843   6.305   2.382
15255W        W79012  34.379  15.585   1.750
15256W        W79013  18.671  33.993  13.875
15257W        W79014  38.055  17.227   1.708
15258W        W79015  17.624   5.267  14.929
15259W        W79016  20.252  10.303  11.602
15260W        W79017  30.656  31.031   1.898
15261W        W79018  41.432  39.544  11.961
15262W        W79019  16.257  40.036   0.454
15263W        W79020  18.270  23.543   2.354
15264W        W79021  34.923  40.465  14.478
15265W        W79022  36.447  15.214   1.841
15266W        W79023  33.026   5.240   0.736
15267W        W79024  43.912  29.595   0.249
15268W        W79025   9.358   5.835  13.858
15269W        W79026  16.226  20.076  12.475
15270W        W79027  43.836  35.561  14.511
15271W        W79028  31.940  30.094  10.467
15272W        W79029  39.003  34.523   3.837
15273W        W79030   9.216  43.331   1.701
15274W        W79031  11.672   5.413   0.397
15275W        W79032  16.243  40.394   4.622
15276W        W79033   4.232  29.101  14.289
15277W        W79034  11.145  23.591  13.994
15278W        W79035  38.850  10.679   3.718
15279W        W79036  32.109  30.913   3.787
15280W        W79037  21.080  33.116   1.694
15281W        W79038  10.831  11.193   4.745
15282W        W79039  38.908  12.339   4.140
15283W        W79040  42.856   1.758  14.906
15284W        W79041  33.528   6.189   4.749
15285W        W79042  14.172  28.104   5.223
15286W        W79043  37.416  31.994   1.913
15287W        W79044  30.636  28.597   0.378
15288W        W79045  31.935  27.010   2.253
15289W        W79046  28.155  33.040   3.755
15290W        W79047  23.720  36.065   9.986
15291W        W79048  32.959   5.890   4.627
15292W        W79049  21.610  13.329   0.415
15293W        W79050  43.954  13.222  14.277
15294W        W79051  18.169  19.265  12.001
15295W        W79052   8.344  31.584   2.760
15296W        W79053  15.764  24.997  14.954
15297W        W79054  36.876   3.389   3.257
15298W        W79055  18.549  41.877   3.838
15299W        W79056   6.260   6.882  11.557
15300W        W79057  16.226  40.923  12.925
15301W        W79058  16.663  16.316  10.499
15302W        W79059  10.293  39.822  12.462
15303W        W79060   4.848  40.389   3.269
15304W        W79061  16.250  23.527   1.259
15305W        W79062   7.273  13.301  10.625
15306W        W79063   8.331  21.603  14.031
15307W        W79064  30.014  34.520  10.984
15308W        W79065  35.031   2.915   1.758
15309W        W79066  33.018  42.022   2.255
15310W        W79067  41.964  27.510   0.770
15311W        W79068  10.323  43.468   1.731
15312W        W79069  18.128  21.538  11.924
15313W        W79070  27.188  37.445  14.497
15314W        W79071  32.520  36.956   4.298
15315W        W79072  17.208  12.747   2.715
15316W        W79073   2.235  32.894   4.788
15317W        W79074  27.942  41.467   4.758
15318W        W79075  29.521  22.049   2.855
15319W        W79076  17.797  32.057  14.451
15320W        W79077   3.257  10.819  11.113
15321W        W79078  20.040   2.421  11.889
15322W        W79079  30.159  42.974  12.834
15323W        W79080  17.068  28.933  10.959
15324W        W79081  41.003  35.505  12.388
15325W        W79082  33.611   3.721  12.405
15326W        W79083  34.475   9.293  10.892
15327W        W79084  32.033   1.746   0.778
15328W        W79085  28.131   4.791  11.885
15329W        W79086   6.386   7.215  11.599
15330W        W79087  31.075  34.997  13.882
15331W        W79088  28.596   5.688  13.046
15332W        W79089  23.704  23.057  14.905
15333W        W79090  22.597  24.057   3.257
15334W        W79091  35.890  39.491   3.752
15335W        W79092   0.913  10.249   3.658
15336W        W79093   2.962  19.234   3.380
15337W        W79094  33.012  38.845  14.987
15338W        W79095  15.115  21.215   2.349
15339W        W79096  42.992   8.836   4.332
15340W        W79097  30.107   4.862   2.334
15341W        W79098  38.824  37.507  14.324
15342W        W79099  17.282  35.029   4.807
15343W        W79100  39.042   2.348   1.788
15344W        W79101  42.319  33.469   3.646
15345W        W79102  21.175  14.773   5.257
15346W        W79103  41.310  38.556  14.828
15347W        W79104  18.163  32.558  12.840
15348W        W79105  12.755  34.935  10.504
15349W        W79106   2.399  16.707   0.730
15350W        W79107  36.000  31.107  11.467
15351W        W79108  34.394  38.888   4.272
15352W        W79109  19.125  25.191   4.136
15353W        W79110   5.708  17.221  11.871
15354W        W79111  37.895  15.631   3.259
15355W        W79112  14.603  30.161  13.445
15356W        W79113  31.590  35.920  13.814
15357W        W79114  30.941  29.153   3.203
15358W        W79115  42.792  32.509  13.381
15359W        W79116  21.113  38.453  13.328
15360W        W79117  21.108  12.351  12.465
15361W        W79118  10.680  35.092  10.970
15362W        W79119   1.768  29.037  11.871
15363W        W79120  22.656  43.441  14.805
15364W        W79121   0.975  24.078   0.851
15365W        W79122  24.006  44.503   4.787
15366W        W79123   3.403  26.114  11.549
15367W        W79124   8.168  31.038  14.883
15368W        W79125  19.273  23.212   2.899
15369W        W79126  28.461  11.802   0.795
15370W        W79127  42.350  10.718   1.353
15371W        W79128   2.865  31.012   2.882
15372W        W79129  17.652  42.358  11.511
15373W        W79130  28.542   9.805  10.539
15374W        W79131   1.405  24.482   2.827
15375W        W79132  38.526  33.514   2.412
15376W        W79133  44.868  16.077  10.893
15377W        W79134  15.644  33.557  13.415
15378W        W79135  43.837  28.459  11.446
15379W        W79136  13.230  23.603   1.417
15380W        W79137  11.160  10.669   3.768
15381W        W79138  25.660  26.628  12.419
15382W        W79139  33.934  26.694   1.867
15383W        W79140  31.087  38.072  13.368
15384W        W79141  21.548  12.155   2.416
15385W        W79142  39.892  21.537  14.973
15386W        W79143  27.467   0.920  11.049
15387W        W79144   2.243  40.474  10.969
15388W        W79145  20.238   1.473   1.886
15389W        W79146  31.465  28.984  12.549
15390W        W79147  43.321  13.826   4.178
15391W        W79148   0.406  22.553  14.999
15392W        W79149  21.097  10.233  13.899
15393W        W79150  39.366  11.254  14.767
15394W        W79151   3.313  42.489  11.987
15395W        W79152  13.770   1.259   1.444
15396W        W79153  23.720   5.749  11.871
15397W        W79154   3.871  21.615  13.399
15398W        W79155   3.229  13.771  12.052
15399W        W79156  31.925  15.757  10.430
15400W        W79157  26.009  43.000  13.058
15401W        W79158  16.767  35.531  11.870
15402W        W79159   8.161  44.758   1.399
15403W        W79160  26.978   9.231  12.883
15404W        W79161   0.419  26.576   4.350
15405W        W79162  21.605  10.290   4.188
15406W        W79163  15.132  25.189  12.977
15407W        W79164  37.923   8.806   5.263
15408W        W79165  35.414  30.649   1.864
15409W        W79166  36.358  42.027  12.049
15410W        W79167  36.433  44.835   3.831
15411W        W79168   2.256  15.108   3.748
15412W        W79169   0.404   3.363  11.031
15413W        W79170  23.119  39.815  10.895
15414W        W79171  18.712  28.505   4.191
15415W        W79172  31.643  11.706   3.673
15416W        W79173  21.144  31.493   3.763
15417W        W79174   0.762  25.513  12.071
15418W        W79175  41.974  29.016   9.995
15419W        W79176  41.490  19.725   2.179
15420W        W79177  18.229   8.817   1.310
15421W        W79178   7.715  26.154  14.318
15422W        W79179  23.226  24.103   4.295
15423W        W79180   8.307  13.323   3.868
15424W        W79181  40.931  37.431  13.933
15425W        W79182   1.247  44.846  13.849
15426W        W79183  13.728  22.173  12.017
15427W        W79184  18.296  38.941   3.751
15428W        W79185   3.250  42.833   2.752
15429W        W79186   2.455  31.125   3.823
15430W        W79187   1.965  42.866   1.350
15431W        W79188  43.779  13.141   0.757
15432W        W79189  30.451  13.139  14.406
15433W        W79190  10.347  21.176   1.269
15434W        W79191  21.682   3.307   0.257
15435W        W79192   6.920  44.286   9.983
15436W        W79193  34.872  25.470  14.854
15437W        W79194  22.123  23.711  13.885
15438W        W79195  25.061  12.226   3.797
15439W        W79196   2.320  18.566  12.363
15440W        W79197  10.276  19.767   1.780
15441W        W79198  13.145   2.280   2.361
15442W        W79199   2.964  18.291  10.525
15443W        W79200  14.296  30.112   0.858
15444W        W79201  28.613   3.353   1.336
15445W        W79202   9.394  33.892   2.728
15446W        W79203  34.050  28.541  14.276
15447W        W79204  43.406  17.141   1.398
15448W        W79205  19.607  30.970   3.750
15449W        W79206  21.259  11.370   3.236
15450W        W79207  21.603   0.809  14.348
15451W        W79208   6.333  34.539   3.649
15452W        W79209  32.610  39.849  12.844
15453W        W79210  32.623  12.138   0.851
15454W        W79211  17.770   4.430  12.040
15455W        W79212  17.244  35.410   4.646
15456W        W79213   1.248  25.172  11.500
15457W        W79214  28.170  34.048  14.983
15458W        W79215  39.370   2.424   1.820
15459W        W79216  18.218  33.904  10.968
15460W        W79217   2.856  32.892  12.431
15461W        W79218  38.395   7.195   0.848
15462W        W79219  21.021   6.293  14.781
15463W        W79220   9.755   0.392   1.272
15464W        W79221   6.835  17.726   2.714
15465W        W79222  43.895  24.520   4.214
15466W        W79223  39.035  39.399   1.729
15467W        W79224  36.359  25.611   1.876
15468W        W79225  32.947   9.663   4.290
15469W        W79226   7.754  34.464  13.314
15470W        W79227  17.785  29.977   2.754
15471W        W79228  21.235  34.949   3.716
15472W        W79229   0.838   9.736   4.310
15473W        W79230  24.981   1.782   3.810
15474W        W79231  42.020  38.829   4.126
15475W        W79232   7.708  23.672   0.959
15476W        W79233  12.321   1.267  11.050
15477W        W79234  23.145  25.191  11.559
15478W        W79235  33.997  38.849  13.961
15479W        W79236   9.761  44.408  10.110
15480W        W79237  20.633   8.360   4.715
15481W        W79238  38.937   6.888  13.388
15482W        W79239   5.320  40.484   0.451
15483W        W79240  41.463   4.733   4.158
15484W        W79241   0.864   0.363   1.881
15485W        W79242  28.449  22.555  10.889
15486W        W79243  41.469  40.385  11.071
15487W        W79244  29.039  15.673   2.881
15488W        W79245  31.097  18.169  12.987
15489W        W79246   0.404  35.583  11.888
15490W        W79247  11.848  16.241  11.467
15491W        W79248  32.542   5.274   1.765
15492W        W79249   7.829  12.776  12.030
15493W        W79250   5.884   1.441  10.563
15494W        W79251  39.425  36.517  10.992
15495W        W79252  41.808  38.888  11.110
15496W        W79253   6.760  22.247   0.813
15497W        W79254   7.314   1.336  11.469
15498W        W79255  12.265  20.188  10.630
15499W        W79256  39.890  23.126   3.269
15500W        W79257   4.893  26.954  11.017
15501W        W79258   6.829  42.802  14.909
15502W        W79259  40.512  16.148   4.834
15503W        W79260   9.874  17.668   1.281
15504W        W79261  25.706  13.698   3.766
15505W        W79262  44.866   7.276   5.092
15506W        W79263  10.259   1.290   5.280
15507W        W79264  14.338  38.859   5.161
15508W        W79265  24.655  20.577   4.785
15509W        W79266  38.339  30.604   3.378
15510W        W79267  31.102  22.512  11.023
15511W        W79268  44.794  29.509   0.753
15512W        W79269  29.005  29.431  13.447
15513W        W79270  29.120   9.266   4.826
15514W        W79271  35.015  13.800   3.240
15515W        W79272  13.169  26.668   1.294
15516W        W79273   5.726  12.228  10.635
15517W        W79274  44.962  20.619   0.336
15518W        W79275  11.867  13.232   3.774
15519W        W79276  19.585   8.312   3.782
15520W        W79277   3.255  11.187   9.975
15521W        W79278  44.413  25.479   2.815
15522W        W79279   6.183  13.296   2.901
15523W        W79280  43.502  40.823   4.139
15524W        W79281  12.219  16.251   4.332
15525W        W79282  39.374   3.848   1.694
15526W        W79283  14.325  36.971  11.399
15527W        W79284  31.423  25.626   4.666
15528W        W79285  11.807  21.085  14.806
15529W        W79286  43.939  12.771   4.681
15530W        W79287  25.479  19.561   3.267
15531W        W79288  26.182  42.418  13.875
15532W        W79289  37.010  32.086  10.947
15533W        W79290   1.472  39.384   2.729
15534W        W79291  14.173  27.091   3.709
15535W        W79292  18.094   0.894   1.280
15536W        W79293  29.526  20.094   4.605
15537W        W79294  19.774  25.630  13.543
15538W        W79295  23.652   6.243  11.028
15539W        W79296  36.446  40.841   2.771
15540W        W79297   6.356  30.499   1.333
15541W        W79298  35.058   5.284   5.217
15542W        W79299   1.453  27.481  12.055
15543W        W79300   3.265  35.982   2.182
15544W        W79301   5.309  32.534   3.667
15545W        W79302  27.057  36.960   3.657
15546W        W79303  44.946  37.366  14.339
15547W        W79304  32.902   2.959   3.641
15548W        W79305  23.703  43.400   1.743
15549W        W79306  28.605  21.647   0.745
15550W        W79307  16.738   5.408   3.217
15551W        W79308  44.823  33.522   2.892
15552W        W79309   0.449  34.534   1.768
15553W        W79310  44.830  25.616  12.397
15554W        W79311  41.397  29.167  14.761
15555W        W79312  13.670  12.797   1.814
15556W        W79313   3.394  30.040   3.637
15557W        W79314  18.576  15.634  12.458
15558W        W79315  28.043  20.141   2.239
15559W        W79316   8.181  38.427   1.896
15560W        W79317  42.894  37.406   4.307
15561W        W79318  19.732  25.527   0.317
15562W        W79319  11.744   3.221  14.320
15563W        W79320  26.598  37.838  13.318
15564W        W79321   7.345   8.794  13.312
15565W        W79322   4.801  22.249  14.813
15566W        W79323  26.956  28.663   1.388
15567W        W79324   4.221  35.941  11.563
15568W        W79325  12.687  16.194   0.790
15569W        W79326  25.566  40.432  11.505
15570W        W79327  42.789   0.754   4.166
15571W        W79328  26.092  37.987  13.408
15572W        W79329  10.188  38.563  14.392
15573W        W79330  15.224  26.668  11.982
15574W        W79331   9.334  44.931  13.322
15575W        W79332  35.097  37.398   0.258
15576W        W79333  12.691  32.469   3.786
15577W        W79334  39.935   1.886  12.885
15578W        W79335  41.337  10.294  11.025
15579W        W79336  26.479  31.964  14.799
15580W        W79337  26.992   4.836   3.831
15581W        W79338   6.887   0.472   3.629
15582W        W79339  29.645  36.069   3.386
15583W        W79340  41.861  29.608   4.690
15584W        W79341  23.186   1.346  11.432
15585W        W79342  20.256  16.211  10.129
15586W        W79343  38.072  35.527   3.328
15587W        W79344   3.452  27.557  10.031
15588W        W79345  40.843  11.162   1.417
15589W        W79346  21.193  30.076  11.056
15590W        W79347  36.894   0.784  14.456
15591W        W79348  36.542  28.473  11.388
15592W        W79349  15.109  20.201  12.495
15593W        W79350  41.428  37.920   3.316
15594W        W79351   2.730  14.710   0.395
15595W        W79352  24.489  15.671   2.822
15596W        W79353  11.259  35.585   4.249
15597W        W79354  41.856   1.351  14.929
15598W        W79355  24.492  38.951  12.340
15599W        W79356  12.354  10.667   4.254
15600W        W79357  43.462  21.108  10.977
15601W        W79358  35.419   6.333  13.542
15602W        W79359  35.852   5.337   4.796
15603W        W79360  14.126  29.651   1.340
15604W        W79361  25.517  36.586  12.473
15605W        W79362  18.270  17.777  10.486
15606W        W79363  28.650  33.878   3.729
15607W        W79364  16.705   7.313   2.285
15608W        W79365   1.457  23.005   3.740
15609W        W79366  26.055  25.492   9.588
15610W        W79367  23.676  28.621  12.495
15611W        W79368  30.019  23.064  11.504
15612W        W79369  21.712   3.243  10.158
15613W        W79370   7.246   4.780  14.370
15614W        W79371  11.802  12.648  12.440
15615W        W79372  10.686  18.120  10.155
15616W        W79373  35.905   9.702  14.420
15617W        W79374  28.558  18.732   1.865
15618W        W79375  39.385  40.046   3.825
15619W        W79376  41.498   8.892  10.503
15620W        W79377  34.595   4.908  13.525
15621W        W79378  26.008   7.797  14.004
15622W        W79379  40.461  25.475  10.901
15623W        W79380  38.008  23.515   0.421
15624W        W79381  40.402   9.236  12.547
15625W        W79382   6.855  15.654  11.946
15626W        W79383  44.320  35.906   9.981
15627W        W79384  26.064  20.586   3.316
15628W        W79385  10.672  24.606  12.507
15629W        W79386  26.027  34.580  12.878
15630W        W79387  40.907  38.859  12.483
15631W        W79388  10.294   3.817   5.316
15632W        W79389   4.905   4.405  14.970
15633W        W79390  32.074   0.278  12.937
15634W        W79391  34.979  25.999   0.389
15635W        W79392  30.978  42.797  10.075
15636W        W79393  27.942   9.884   2.789
15637W        W79394  13.681  38.424  12.046
15638W        W79395  28.113   8.255  13.477
15639W        W79396  31.573   0.416   3.268
15640W        W79397  31.552  31.490   1.895
15641W        W79398  29.925  15.747  14.998
15642W        W79399  28.450  30.949   3.863
15643W        W79400  22.696  41.443   4.333
15644W        W79401  21.100  38.463   3.248
15645W        W79402  40.915  38.821  10.550
15646W        W79403  23.505  35.458  11.089
15647W        W79404   5.360  10.247  11.906
15648W        W79405  34.524   5.321   5.216
15649W        W79406   5.355  42.300  11.453
15650W        W79407  11.678  12.794  10.124
15651W        W79408  31.437  32.590  14.308
15652W        W79409  43.894  28.680  11.874
15653W        W79410  35.943  29.463   3.734
15654W        W79411   9.700  13.846   4.790
15655W        W79412   0.937  15.657  13.916
15656W        W79413  41.513   2.949   4.828
15657W        W79414  33.395   6.900   3.847
15658W        W79415  15.662  19.128   4.295
15659W        W79416  41.902  28.559   2.188
15660W        W79417  33.468   6.826  11.545
15661W        W79418   0.274  34.387  12.055
15662W        W79419   0.982  19.083  14.946
15663W        W79420  21.568  18.613   3.645
15664W        W79421  24.643  31.463  10.935
15665W        W79422  12.731  22.644  11.112
15666W        W79423  43.513  10.308  12.091
15667W        W79424   8.730  11.712   2.385
15668W        W79425  13.696  16.623  11.904
15669W        W79426  44.451   2.965   4.653
15670W        W79427   8.290  34.477   1.314
15671W        W79428   6.211  38.947   4.212
15672W        W79429  29.118  26.578  14.840
15673W        W79430  16.167   9.208  10.578
15674W        W79431  44.829  32.082  14.275
15675W        W79432   0.843  24.507   1.861
15676W        W79433   7.411  44.006   0.406
15677W        W79434  39.530  44.412  11.595
15678W        W79435  22.142   0.404   1.762
15679W        W79436  12.649  36.976   0.780
15680W        W79437  19.054  17.230   0.954
15681W        W79438  36.021  18.154  10.641
15682W        W79439  35.584   1.461  13.052
15683W        W79440   2.810  39.917  11.465
15684W        W79441   1.892   3.391  14.848
15685W        W79442   3.380  23.530  11.982
15686W        W79443   8.285  21.525  12.052
15687W        W79444   9.670  31.562  11.510
15688W        W79445  38.872  12.240  13.357
15689W        W79446  20.615  24.622   0.782
15690W        W79447  36.872   1.446  14.440
15691W        W79448  40.487  15.812  12.026
15692W        W79449   3.286   2.343  14.918
15693W        W79450   8.866  22.613  14.016
15694W        W79451  44.459  33.447   0.310
15695W        W79452  15.218  37.367  14.777
15696W        W79453  11.134   6.901   3.239
15697W        W79454  21.017  30.456  12.906
15698W        W79455   6.909  15.228  10.404
15699W        W79456   2.237  41.386  11.032
15700W        W79457  20.549  14.229  14.905
15701W        W79458  41.914   5.375  12.449
15702W        W79459  40.856   1.915   1.752
15703W        W79460  30.507  16.179  11.998
15704W        W79461  34.385  27.518  13.474
15705W        W79462  27.665  21.165   0.404
15706W        W79463  37.948  12.238  11.452
15707W        W79464   0.422  31.908   1.886
15708W        W79465  17.094  43.510   3.198
15709W        W79466   0.981  19.671   2.198
15710W        W79467  28.656  16.206   3.207
15711W        W79468   4.766  17.565   0.342
15712W        W79469   0.933   9.670  11.411
15713W        W79470   0.315  36.010  14.814
15714W        W79471  40.860  42.849  10.917
15715W        W79472  32.543  30.461  12.420
15716W        W79473   0.766   7.190  12.034
15717W        W79474  33.482   1.286  11.995
15718W        W79475   8.208  23.039  12.074
15719W        W79476  11.645  16.307  11.090
15720W        W79477  26.475  30.135   4.344
15721W        W79478   8.817  44.329   2.223
15722W        W79479  19.740  44.378  14.870
15723W        W79480  24.714   2.408   3.255
15724W        W79481  29.023  14.728   2.352
15725W        W79482  23.118  14.667  13.389
15726W        W79483  20.542  13.115  13.372
15727W        W79484  39.358   3.771   2.257
15728W        W79485  19.750  35.506  12.876
15729W        W79486  36.858  26.602   3.636
15730W        W79487  24.481  38.978   3.181
15731W        W79488   4.280   3.419  12.485
15732W        W79489  26.580  20.238   0.258
15733W        W79490  37.486  35.863   3.208
15734W        W79491   8.230  41.878  11.105
15735W        W79492  21.583  25.714  10.932
15736W        W79493  30.081  21.632  10.426
15737W        W79494  36.437  37.473  11.994
15738W        W79495  36.012  26.195  11.447
15739W        W79496  14.628   8.654  12.863
15740W        W79497   5.858  10.215  10.596
15741W        W79498   0.414  15.150   1.370
15742W        W79499  17.306  42.363  14.866
15743W        W79500  32.012  43.463  13.041
15744W        W79501  23.208  28.940  11.059
15745W        W79502  42.872  40.900  14.513
15746W        W79503  41.913  38.985  12.929
15747W        W79504   4.341  24.674  11.999
15748W        W79505  33.904  32.060   1.723
15749W        W79506  19.642  29.089  10.891
15750W        W79507  34.512  26.203   1.886
15751W        W79508  29.650  24.725   0.307
15752W        W79509   4.783  21.056   4.729
15753W        W79510   6.853  33.101  10.992
15754W        W79511  33.507  14.654   2.840
15755W        W79512  30.992  20.155  13.029
15756W        W79513  34.046   2.315   2.736
15757W        W79514   6.729   6.408   3.811
15758W        W79515  20.602  17.073  12.892
15759W        W79516   2.935  34.444   0.250
15760W        W79517  34.024   5.408  10.961
15761W        W79518   6.898   9.852  11.993
15762W        W79519  14.309  14.793  11.045
15763W        W79520  15.311  11.687   1.903
15764W        W79521  30.077  14.655   1.323
15765W        W79522  31.412  26.138   3.189
15766W        W79523   7.729  28.944  12.474
15767W        W79524  24.542  26.092   0.773
15768W        W79525  20.110   2.813   3.810
15769W        W79526  24.980   5.791   2.198
15770W        W79527   6.339   8.253   4.292
15771W        W79528  19.190  22.696   4.152
15772W        W79529  10.333  30.156  10.509
15773W        W79530  22.586  11.156  14.880
15774W        W79531  12.231  25.017  14.803
15775W        W79532   7.179  27.616  13.003
15776W        W79533  40.420   9.367  10.633
15777W        W79534  27.118  19.553   4.735
15778W        W79535  44.340  26.549   5.185
15779W        W79536   9.299  21.556  12.964
15780W        W79537   3.332  17.681   1.340
15781W        W79538  37.549  35.991  11.405
15782W        W79539  24.619   7.845  10.459
15783W        W79540  13.701  44.295  10.968
15784W        W79541  39.934  12.838  13.429
15785W        W79542  43.403  27.985  12.411
15786W        W79543  41.894  22.722   5.137
15787W        W79544  17.186  17.129  13.460
15788W        W79545  10.303  43.333  10.559
15789W        W79546   9.158  30.933  13.937
15790W        W79547  28.434  31.418   4.654
15791W        W79548  14.126  18.698  13.905
15792W        W79549  38.037  37.336   3.343
15793W        W79550  13.677  23.192  14.327
15794W        W79551  33.936  18.289   3.232
15795W        W79552   1.475  41.428  11.925
15796W        W79553  33.448  37.406   1.413
15797W        W79554  37.992  18.751   3.315
15798W        W79555  20.673  23.627   4.224
15799W        W79556  10.270  28.069   9.924
15800W        W79557  11.736  43.897  11.443
15801W        W79558   8.301  40.520   3.773
15802W        W79559  13.738  17.620   2.764
15803W        W79560  43.993   6.265  14.511
15804W        W79561  38.891  25.472  13.064
15805W        W79562  16.587   7.840  11.601
15806W        W79563  44.297   5.904  14.378
15807W        W79564  18.570  38.905   4.613
15808W        W79565  31.524  30.550  11.467
15809W        W79566  11.315  34.484  12.059
15810W        W79567  25.598  38.329  12.094
15811W        W79568  35.570  19.626   1.790
15812W        W79569  28.945  25.635  10.582
15813W        W79570   1.255  22.546  12.010
15814W        W79571   6.774  34.118   4.663
15815W        W79572  40.878  34.490   4.352
15816W        W79573  33.920  37.835  13.485
15817W        W79574   1.876  25.679  12.992
15818W        W79575  19.727  38.030  12.560
15819W        W79576   9.858   0.801  13.022
15820W        W79577   5.788  34.104  13.859
15821W        W79578  17.204  10.146  11.386
15822W        W79579   2.945   3.256  12.532
15823W        W79580  32.907   2.906  10.489
15824W        W79581  10.646  20.059  11.968
15825W        W79582  31.560  10.705  11.022
15826W        W79583  13.782  43.506  14.778
15827W        W79584  43.497  18.669   1.313
15828W        W79585  26.065  33.435  10.638
15829W        W79586  39.419  12.716   0.806
15830W        W79587  44.005   2.880   3.781
15831W        W79588  38.964  41.795  10.546
15832W        W79589  19.246  44.355  10.983
15833W        W79590  22.581  12.621  11.947
15834W        W79591  41.535   3.783  10.012
15835W        W79592  11.324  40.848  11.098
15836W        W79593  24.706  24.589   1.332
15837W        W79594  44.302  20.196  10.941
15838W        W79595   6.720  44.481   3.250
15839W        W79596  19.611  13.233  11.058
15840W        W79597  31.094   3.279   3.243
15841W        W79598  17.240  36.475  13.421
15842W        W79599   5.788   4.783   3.857
15843W        W79600  14.601  28.994  10.969
15844W        W79601  21.138  40.327   2.236
15845W        W79602  44.407  29.639  10.641
15846W        W79603  17.154  17.263   2.281
15847W        W79604  38.075  31.433  14.973
15848W        W79605  36.853  33.061  10.411
15849W        W79606   4.831   8.347   2.852
15850W        W79607  43.975   1.791  12.956
15851W        W79608  10.710   9.806  10.977
15852W        W79609  14.723  38.992  13.055
15853W        W79610   3.914  38.430  11.921
15854W        W79611  24.561  14.197   5.254
15855W        W79612  23.985  16.585   1.294
15856W        W79613  38.369  13.603   2.334
15857W        W79614  31.137  24.596  11.880
15858W        W79615  43.839  21.716   0.949
15859W        W79616   7.676  18.652   3.656
15860W        W79617   5.749  37.033   2.344
15861W        W79618  26.579  15.804   0.738
15862W        W79619  27.615  21.742  12.887
15863W        W79620  24.621  26.158   1.332
15864W        W79621   8.675   1.323  10.979
15865W        W79622  29.660   0.436   4.832
15866W        W79623  16.632  16.587  11.513
15867W        W79624   3.728  24.177  10.519
15868W        W79625   0.437   4.281   2.743
15869W        W79626  38.914  19.081  12.459
15870W        W79627  29.933  25.091  12.047
15871W        W79628  34.056   2.822   1.234
15872W        W79629  14.637  30.532   4.628
15873W        W79630  11.673  11.829   4.812
15874W        W79631  14.234  38.508   2.362
15875W        W79632  32.490  13.212   2.735
15876W        W79633   3.769  42.777   4.677
15877W        W79634  44.478  20.571  14.329
15878W        W79635  23.189   8.814  12.546
15879W        W79636   9.662  28.104  10.449
15880W        W79637  18.548  13.840  13.997
15881W        W79638  44.376   8.292  14.928
15882W        W79639  42.343  27.048  14.288
15883W        W79640  14.120   3.912  13.838
15884W        W79641  37.923  31.630   3.782
15885W        W79642  28.032  40.925   4.705
15886W        W79643  25.097  22.090  12.354
15887W        W79644  20.733   7.753   3.789
15888W        W79645  21.645  31.058  12.370
15889W        W79646  10.707  20.053   1.705
15890W        W79647   5.857  38.434  11.469
15891W        W79648  39.317  43.499   2.810
15892W        W79649   2.240  39.317   3.649
15893W        W79650  24.170  23.694   2.750
15894W        W79651  36.463  14.153   2.253
15895W        W79652   5.425  16.759  12.970
15896W        W79653  30.437  41.979  10.442
15897W        W79654   6.411  38.373   4.295
15898W        W79655   4.414  22.663  10.420
15899W        W79656  23.669  43.358   2.254
15900W        W79657  34.397  22.040   1.341
15901W        W79658  26.078  23.631  12.904
15902W        W79659  17.191  16.308   0.904
15903W        W79660  13.631  31.980  11.429
15904W        W79661   7.726   5.919   3.227
15905W        W79662  35.599  11.177   0.741
15906W        W79663   6.920  15.296  11.500
15907W        W79664  38.825  16.615   0.242
15908W        W79665  29.633  31.944  13.998
15909W        W79666  10.149  26.152   3.698
15910W        W79667  12.646  15.238   3.758
15911W        W79668   6.737  25.978  13.480
15912W        W79669   9.318  10.735   0.866
15913W        W79670  42.815  21.076   2.721
15914W        W79671  37.964   9.679   3.680
15915W        W79672   1.250  29.641  12.938
15916W        W79673  38.977  43.407  12.509
15917W        W79674  21.173   4.314   3.208
15918W        W79675  21.087  37.932   3.658
15919W        W79676  11.249   8.884   2.210
15920W        W79677  39.952  11.732  10.411
15921W        W79678  34.980  18.164   0.267
15922W        W79679   7.234   4.304   0.784
15923W        W79680  44.498   4.891  14.015
15924W        W79681  37.902  44.955  14.883
15925W        W79682  14.708  21.683  12.006
15926W        W79683  27.023  29.069  11.542
15927W        W79684  43.376  33.502   0.399
15928W        W79685   4.259  16.222   2.317
15929W        W79686   1.969   0.828   0.383
15930W        W79687   7.856   4.915   3.657
15931W        W79688   6.825   9.349   4.813
15932W        W79689  10.231  24.589   0.481
15933W        W79690  31.950  36.036  12.019
15934W        W79691  24.486  10.317   2.720
15935W        W79692  14.192  16.614  12.077
15936W        W79693  13.826  32.922   3.724
15937W        W79694  33.445   8.317   1.912
15938W        W79695  44.839  21.607  11.497
15939W        W79696   2.349  22.639   9.977
15940W        W79697   9.746  44.430   0.946
15941W        W79698  40.837   9.705   0.381
15942W        W79699  13.754  44.831  11.942
15943W        W79700   6.305   9.152   0.831
15944W        W79701  13.815   1.940  12.063
15945W        W79702  37.470  32.517   1.273
15946W        W79703   3.900  20.709   2.250
15947W        W79704  23.183  32.068  10.017
15948W        W79705   7.889  25.129   0.338
15949W        W79706   9.871  26.473   2.265
15950W        W79707  14.650  25.092   0.730
15951W        W79708   8.347  15.254  13.346
15952W        W79709   8.728  33.969  12.355
15953W        W79710  12.230  32.125  14.808
15954W        W79711  20.125  42.407  14.871
15955W        W79712  10.808  30.969  12.434
15956W        W79713  19.541  10.708   2.303
15957W        W79714  23.174  28.162   4.172
15958W        W79715  26.967  25.552  12.838
15959W        W79716  17.658   7.357   1.242
15960W        W79717  20.191  14.734   3.349
15961W        W79718   5.300  42.953  12.972
15962W        W79719   3.245  28.658   2.250
15963W        W79720  36.563  39.332  12.054
15964W        W79721  43.954  14.195   1.854
15965W        W79722  16.159   7.680   3.324
15966W        W79723  18.745  36.467   1.724
15967W        W79724   2.843  43.871  12.369
15968W        W79725  17.104  10.696  11.606
15969W        W79726  33.886  32.631  14.509
15970W        W79727  23.594  27.464  14.462
15971W        W79728  24.100  41.309   3.315
15972W        W79729  32.495  38.930  10.117
15973W        W79730  29.924  35.942  14.991
15974W        W79731  32.091   9.253   2.785
15975W        W79732   2.323  15.584   0.785
15976W        W79733  14.734  25.536  14.915
15977W        W79734  40.994   7.348   0.818
15978W        W79735   0.328  41.001   3.147
15979W        W79736   6.354  28.990   0.318
15980W        W79737   5.426  26.196   3.793
15981W        W79738  20.046  21.042   4.230
15982W        W79739   7.239  36.056  11.032
15983W        W79740  37.437  11.633   1.731
15984W        W79741  11.752   4.714   1.896
15985W        W79742  25.040   7.326  13.794
15986W        W79743  16.086   0.838   2.869
15987W        W79744   8.853  27.176  13.799
15988W        W79745  12.676  22.648  12.043
15989W        W79746  29.098  15.283  12.868
15990W        W79747  16.609  31.571  12.366
15991W        W79748  42.454   1.784   3.773
15992W        W79749  40.528  24.989  14.996
15993W        W79750  12.121  23.613   4.677
15994W        W79751   2.753  43.466   0.465
15995W        W79752  26.168  32.035  12.082
15996W        W79753   7.250  43.018   1.706
15997W        W79754  35.461  18.218   1.784
15998W        W79755  31.088  20.119  12.536
15999W        W79756   3.328   9.680   0.811
16000W        W79757  20.142   4.294   1.261
16001W        W79758  29.166  18.202  11.481
16002W        W79759   0.978   6.826  12.885
16003W        W79760  33.418   6.344   1.708
16004W        W79761  14.129  29.668  11.570
16005W        W79762  40.447  32.626   0.435
16006W        W79763  30.098  32.497  11.006
16007W        W79764   0.974  40.334  14.279
16008W        W79765  44.802  33.045   1.322
16009W        W79766  35.576  39.532   1.800
16010W        W79767  11.368   0.323   4.115
16011W        W79768  22.070  32.471   0.457
16012W        W79769  36.917   5.343  13.401
16013W        W79770  15.819   5.322  12.568
16014W        W79771  29.137  44.757   2.274
16015W        W79772  24.536  21.600  14.311
16016W        W79773  35.869  30.075   1.343
16017W        W79774  18.148  38.067  12.567
16018W        W79775   5.202   8.397  11.440
16019W        W79776   5.298   3.710  13.362
16020W        W79777  35.603  31.124   1.446
16021W        W79778  27.464  42.373   0.311
16022W        W79779   4.329  41.795   2.708
16023W        W79780  23.600  11.836   1.325
16024W        W79781  11.349  19.778   1.850
16025W        W79782  22.030   5.282   0.766
16026W        W79783  20.167   3.384   0.243
16027W        W79784  27.156  18.184   2.310
16028W        W79785  20.568  40.331  10.512
16029W        W79786   4.807  32.586   2.316
16030W        W79787   9.204  10.716  14.793
16031W        W79788  14.698  25.703  12.859
16032W        W79789   2.864  40.321  12.552
16033W        W79790  27.090  42.783  14.976
16034W        W79791   0.484  39.424  10.530
16035W        W79792  28.663  11.315   3.658
16036W        W79793  31.453  39.886   4.650
16037W        W79794  15.246  23.145  12.849
16038W        W79795  28.051  10.666  11.435
16039W        W79796  19.640  21.748   4.301
16040W        W79797  14.236  42.887   3.153
16041W        W79798  20.046  15.817  12.376
16042W        W79799  40.923  42.487   2.271
16043W        W79800   6.222   9.796  14.758
16044W        W79801  17.289  33.387   4.232
16045W        W79802  41.946   1.865  12.981
16046W        W79803  26.195  17.267  14.960
16047W        W79804   3.822  35.108  12.872
16048W        W79805  14.307  20.586  11.944
16049W        W79806  36.539  35.898  12.893
16050W        W79807  29.928  17.781   0.446
16051W        W79808  20.155  43.331  14.359
16052W        W79809  28.110  15.191   3.299
16053W        W79810  36.003   8.281  10.442
16054W        W79811  22.146  11.789   0.844
16055W        W79812  28.052  12.629  13.364
16056W        W79813  34.064  42.995  13.987
16057W        W79814   2.860  12.181  13.991
16058W        W79815  22.048   7.188   2.773
16059W        W79816  25.977  15.323   1.348
16060W        W79817   8.174  35.103  11.948
16061W        W79818  26.506  24.194   3.728
16062W        W79819  12.778  34.408   4.768
16063W        W79820  23.636  39.510  12.988
16064W        W79821  21.021   2.758  14.963
16065W        W79822  19.092  32.508   3.369
16066W        W79823  13.843  23.721   1.231
16067W        W79824  20.654  10.224  13.505
16068W        W79825  40.334  36.390   1.276
16069W        W79826  13.802  23.062  10.509
16070W        W79827  32.593  14.200   2.226
16071W        W79828  23.515  21.135  11.876
16072W        W79829  40.308  32.602   2.875
16073W        W79830  44.418   0.858   0.774
16074W        W79831  23.216   1.258  13.981
16075W        W79832   2.429  30.065  14.804
16076W        W79833  33.556   5.890  14.402
16077W        W79834  44.857  17.569   0.367
16078W        W79835  22.733  22.030  10.915
16079W        W79836  44.349  37.551  12.960
16080W        W79837  43.318  27.040   1.744
16081W        W79838   9.384   1.313   1.443
16082W        W79839  20.177  16.291   4.249
16083W        W79840  37.519   0.824   1.217
16084W        W79841  36.456   4.825   2.327
16085W        W79842  23.007  24.558   0.770
16086W        W79843  39.337  40.422  11.003
16087W        W79844  35.973  41.791   2.215
16088W        W79845  21.161   7.797   2.724
16089W        W79846  26.623  17.074   0.822
16090W        W79847  27.572  14.206   1.867
16091W        W79848  35.973  44.343  10.590
16092W        W79849   9.822   1.293  11.901
16093W        W79850  33.479  41.311   0.279
16094W        W79851  15.786  24.576  12.485
16095W        W79852   7.395  37.414  11.463
16096W        W79853  17.181   5.815  10.421
16097W        W79854   4.811   6.192  10.405
16098W        W79855  29.614  40.025   2.239
16099W        W79856  14.834  18.219  10.936
16100W        W79857   6.365  25.068  13.917
16101W        W79858   1.256  11.750  11.382
16102W        W79859   5.374  35.382  12.086
16103W        W79860  31.126   8.339  10.642
16104W        W79861   6.405  42.471  12.952
16105W        W79862  29.620  21.577   2.353
16106W        W79863  20.698   7.342   2.861
16107W        W79864  37.869  24.590   0.448
16108W        W79865   8.729  43.440  11.873
16109W        W79866  13.241   3.896  10.424
16110W        W79867  33.380  23.118  12.367
16111W        W79868  31.485  24.657   4.292
16112W        W79869   7.688  28.132   0.323
16113W        W79870  15.286  21.671   0.399
16114W        W79871  40.882  28.007  13.452
16115W        W79872  31.583  11.157  11.971
16116W        W79873  39.031  23.598  13.985
16117W        W79874  40.844   9.207   1.768
16118W        W79875  35.575  38.892   0.311
16119W        W79876  28.980  24.676   4.351
16120W        W79877   9.214  34.614  13.465
16121W        W79878  18.137  33.409  14.448
16122W        W79879  42.526  24.057  11.996
16123W        W79880  10.305  31.430  12.016
16124W        W79881  21.086   1.959   1.818
16125W        W79882  27.501   6.183  13.054
16126W        W79883   5.704  27.652  11.522
16127W        W79884   6.367  34.964   3.281
16128W        W79885  29.666  43.387   4.831
16129W        W79886  15.097   6.188   1.254
16130W        W79887   6.891  32.407   2.886
16131W        W79888   6.836  26.997  10.437
16132W        W79889  23.990  37.473  12.343
16133W        W79890  29.038   7.762   3.308
16134W        W79891   0.393  26.506   0.351
16135W        W79892  15.156   0.475   1.234
16136W        W79893  40.949  42.851  11.986
16137W        W79894  32.451   7.720  14.293
16138W        W79895  32.030  33.076   4.130
16139W        W79896  40.839  25.026  13.932
16140W        W79897  37.889  12.143  11.119
16141W        W79898  18.647  17.289  13.431
16142W        W79899  18.723  24.639  11.529
16143W        W79900  31.644  22.156   1.341
16144W        W79901   6.357   0.804   2.758
16145W        W79902  24.682  23.019  13.943
16146W        W79903  25.686   5.422  11.469
16147W        W79904   7.236  22.098  14.471
16148W        W79905  13.817  41.447   5.195
16149W        W79906  13.142  20.615   4.687
16150W        W79907   5.362  33.040   2.355
16151W        W79908  20.567  12.322   1.834
16152W        W79909  11.326  43.982   1.914
16153W        W79910  14.803   9.693  14.825
16154W        W79911  18.641  16.581  12.825
16155W        W79912  17.721  12.715  13.005
16156W        W79913  39.858  11.698   2.365
16157W        W79914  17.280  30.541  13.956
16158W        W79915   7.726  19.274   9.485
16159W        W79916  35.401  44.427  11.545
16160W        W79917  17.182  40.928  12.514
16161W        W79918   1.896  16.296  14.899
16162W        W79919  33.441  37.018   1.828
16163W        W79920   0.386  38.396   2.857
16164W        W79921   2.450  31.949   3.819
16165W        W79922  10.364  11.640  13.359
16166W        W79923  30.520  29.122   4.153
16167W        W79924  25.094  31.530  10.902
16168W        W79925   8.377  14.802  13.954
16169W        W79926  40.494  30.009  14.292
16170W        W79927  31.083  41.445  14.342
16171W        W79928   2.254   3.314  14.294
16172W        W79929  29.099  31.518  13.483
16173W        W79930  42.854  35.034  11.915
16174W        W79931  27.100  40.377  12.878
16175W        W79932   1.818  27.181   2.281
16176W        W79933   9.227  34.911  14.892
16177W        W79934   8.862  12.706  12.830
16178W        W79935  35.919  34.432  11.119
16179W        W79936  10.188  33.448  13.425
16180W        W79937  15.282  14.672   1.702
16181W        W79938  29.019  22.133   0.401
16182W        W79939  42.846  30.008  13.996
16183W        W79940  44.405  17.640   0.865
16184W        W79941  25.125   2.408  14.848
16185W        W79942  27.160   1.825   5.245
16186W        W79943   0.977   1.883  10.567
16187W        W79944  28.070  15.268  13.320
16188W        W79945   4.861  44.814  10.158
16189W        W79946  14.288  28.580  12.353
16190W        W79947  19.098  27.622   2.708
16191W        W79948   3.948  42.338  11.452
16192W        W79949   6.885  17.073   2.824
16193W        W79950  34.897  30.043   3.330
16194W        W79951  21.115  11.653  11.028
16195W        W79952  36.561  36.931  10.947
16196W        W79953  13.139   7.396  11.021
16197W        W79954  35.086   2.872   4.725
16198W        W79955  38.501  41.021   4.837
16199W        W79956  18.059  41.309   1.808
16200W        W79957  23.034  33.418   0.885
16201W        W79958  12.638  40.536   1.757
16202W        W79959  42.523  41.357  11.916
16203W        W79960  24.518   7.302  12.080
16204W        W79961   3.426  23.541   3.672
16205W        W79962   5.436  17.618  12.432
16206W        W79963  28.031  19.615  14.387
16207W        W79964  19.698  22.129  13.508
16208W        W79965   1.434  21.083   1.916
16209W        W79966  43.950  44.937  14.322
16210W        W79967  11.247  31.492  10.628
16211W        W79968  14.714  33.559   4.721
16212W        W79969  32.409  34.925   2.310
16213W        W79970  30.029  21.076   5.133
16214W        W79971  20.052   1.747  13.464
16215W        W79972  24.983  42.389   4.672
16216W        W79973  10.232  17.563   3.335
16217W        W79974  39.874  17.202  10.490
16218W        W79975  11.273  31.130   4.701
16219W        W79976  13.667  27.667   2.812
16220W        W79977  23.240  33.079   0.273
16221W        W79978  30.964  35.542   3.710
16222W        W79979  12.252  30.444   1.419
16223W        W79980  16.790   2.850  12.882
16224W        W79981  40.823  17.237  12.969
16225W        W79982  13.105  40.870  11.555
16226W        W79983   2.962  44.321   3.644
16227W        W79984  17.141  44.304   2.381
16228W        W79985   1.951  25.066   3.316
16229W        W79986  24.592  39.532   2.417
16230W        W79987   6.226  10.772  12.472
16231W        W79988  17.093  27.561   2.713
16232W        W79989  27.980  44.990  12.088
16233W        W79990  10.225  14.229  10.101
16234W        W79991   5.323  26.579  13.327
16235W        W79992  26.069   7.415  10.948
16236W        W79993  37.477   3.839  12.058
16237W        W79994  32.473  42.799  11.050
16238W        W79995  37.375  36.421   4.352
16239W        W79996  27.036  22.074  13.812
16240W        W79997   5.268  43.357  12.960
16241W        W79998   4.217  42.927  12.013
16242W        W79999  11.197  43.291   3.809
16243W        W80000   6.810  15.140   0.467
16244W        W80001  10.350  10.656  14.948
16245W        W80002  25.124   8.395  13.490
16246W        W80003   2.250  13.267   3.800
16247W        W80004  24.671  18.617   1.714
16248W        W80005  27.102  33.433  10.572
16249W        W80006  36.055  29.106   2.877
16250W        W80007   9.274  23.125  11.947
16251W        W80008   5.793   3.351  12.826
16252W        W80009   4.822  34.389   4.269
16253W        W80010   7.813  26.559   1.222
16254W        W80011  24.016  25.682  11.575
16255W        W80012  35.516  22.051  11.983
16256W        W80013  34.566  13.315  10.953
16257W        W80014   9.840  19.749   3.709
16258W        W80015  40.985   9.225  11.580
16259W        W80016  23.704   2.328   4.321
16260W        W80017  37.990  17.782  12.945
16261W        W80018   8.385  38.042  14.884
16262W        W80019   9.294   0.917   2.871
16263W        W80020  22.029   8.754   3.373
16264W        W80021  37.360  27.958  14.976
16265W        W80022  10.868  42.838  13.996
16266W        W80023  21.126  20.525   3.151
16267W        W80024  18.563  43.289  11.096
16268W        W80025  11.317  33.450   2.859
16269W        W80026   0.299   4.811   1.744
16270W        W80027  39.463  17.759   3.152
16271W        W80028  12.311  31.131  12.492
16272W        W80029  13.836  26.205   4.740
16273W        W80030  11.364  11.222  11.467
16274W        W80031  28.546  25.972  12.825
16275W        W80032  34.425   3.436  11.072
16276W        W80033   0.948  36.424  13.836
16277W        W80034   5.301  17.605  10.437
16278W        W80035   7.796  23.591   4.760
16279W        W80036  30.533  29.571   2.843
16280W        W80037  23.227  17.730  13.332
16281W        W80038  39.336   3.836  13.062
16282W        W80039  22.216  37.988   0.859
16283W        W80040  13.249   6.276  12.368
16284W        W80041  21.160  25.503   3.263
16285W        W80042  22.024  32.490   3.793
16286W        W80043   4.763  40.812   1.823
16287W        W80044  38.339  10.680   0.924
16288W        W80045  35.026   2.345   4.797
16289W        W80046  28.639  32.503   1.801
16290W        W80047  13.131  26.667   5.176
16291W        W80048  40.484  12.213   1.727
16292W        W80049  35.875  43.779  10.957
16293W        W80050  30.944  23.584  10.636
16294W        W80051  13.619  43.943  14.393
16295W        W80052   7.892  15.122   5.641
16296W        W80053  11.626  29.016  10.608
16297W        W80054  37.073  17.793  11.387
16298W        W80055  43.816   7.800   1.347
16299W        W80056  12.855  30.102  11.092
16300W        W80057  11.339  38.498  11.936
16301W        W80058  28.492  43.349   2.855
16302W        W80059   2.818  31.551   4.178
16303W        W80060   9.745  37.500   3.692
16304W        W80061  25.009   4.791  14.807
16305W        W80062  24.703  30.599  11.383
16306W        W80063   8.203  41.858  11.897
16307W        W80064  24.613  10.715   1.843
16308W        W80065   5.322   3.417   0.347
16309W        W80066   9.170  10.181  13.906
16310W        W80067   5.307  26.499   9.938
16311W        W80068  20.744  20.699  12.427
16312W        W80069  42.489  12.656  12.965
16313W        W80070  20.142   3.352   3.834
16314W        W80071   6.274  11.126   2.722
16315W        W80072   3.718  19.216   3.671
16316W        W80073   2.240  26.653   4.653
16317W        W80074   4.392  20.040  10.938
16318W        W80075  13.172  28.472   1.375
16319W        W80076   1.359  20.045   3.717
16320W        W80077  33.875   6.264  14.280
16321W        W80078  17.187  34.390  14.346
16322W        W80079   1.377  22.624   2.789
16323W        W80080  18.688  43.998   1.223
16324W        W80081  31.148  28.999   4.155
16325W        W80082  40.863  41.830  13.542
16326W        W80083   5.384  32.136  14.503
16327W        W80084  37.341  32.633   3.337
16328W        W80085  36.027  11.805   2.237
16329W        W80086  43.478  38.514  13.330
16330W        W80087  35.053   5.224  11.386
16331W        W80088  31.917  23.600   2.873
16332W        W80089  13.814  42.959   3.634
16333W        W80090  38.489  20.627  14.907
16334W        W80091  26.147  20.522  11.943
16335W        W80092  10.186  44.353  12.032
16336W        W80093   2.874  42.877  13.493
16337W        W80094  36.905   3.718   3.657
16338W        W80095  14.183  41.895   1.797
16339W        W80096  31.493  35.944  14.496
16340W        W80097  15.315  42.402   4.712
16341W        W80098  28.960  19.778   0.764
16342W        W80099  44.337  19.722  11.128
16343W        W80100  12.339  18.726   3.152
16344W        W80101   9.262  42.479  11.008
16345W        W80102  16.679  40.871  11.952
16346W        W80103  23.042  42.968  11.023
16347W        W80104   6.199  39.405   0.846
16348W        W80105   1.453  16.082  11.072
16349W        W80106  20.646  18.071  10.483
16350W        W80107  16.767  14.635  11.533
16351W        W80108  27.583  27.182  13.473
16352W        W80109  22.214  42.347   4.280
16353W        W80110  20.760  25.626  12.517
16354W        W80111  12.311  37.401   0.402
16355W        W80112  19.187   2.800   4.720
16356W        W80113   4.240  38.513   1.814
16357W        W80114  44.369  38.365   0.409
16358W        W80115  26.629  21.551  14.446
16359W        W80116  37.343  29.539  14.470
16360W        W80117  25.050  29.596  10.990
16361W        W80118  28.681  13.316   1.349
16362W        W80119  31.463  36.456  12.481
16363W        W80120   9.875  13.733   1.356
16364W        W80121  16.299  21.682  14.890
16365W        W80122   5.316  18.764  11.019
16366W        W80123   7.807   1.851  11.591
16367W        W80124  39.956  29.008   4.648
16368W        W80125   0.928  25.116  11.010
16369W        W80126  29.539   4.812   2.825
16370W        W80127  42.371  28.951  11.408
16371W        W80128  43.939   2.378  12.342
16372W        W80129   0.352  25.071   0.327
16373W        W80130   8.178   0.286   0.406
16374W        W80131   4.254   5.333   4.623
16375W        W80132  25.183   0.488  14.968
16376W        W80133  37.060  13.306   0.784
16377W        W80134  34.588  16.298  10.960
16378W        W80135  20.034   8.290   4.195
16379W        W80136   7.317  28.597  12.870
16380W        W80137  23.683   6.871   2.706
16381W        W80138   3.953  37.865   0.837
16382W        W80139  22.175  11.720   0.300
16383W        W80140  21.671   6.794  11.064
16384W        W80141  42.410  15.621  13.001
16385W        W80142  18.590  11.291   3.335
16386W        W80143   9.730  38.523   1.406
16387W        W80144   2.948   3.257  14.473
16388W        W80145   0.250  24.012  11.498
16389W        W80146  26.614  37.529  12.425
16390W        W80147  39.498  27.005   2.375
16391W        W80148  26.074  17.682  10.965
16392W        W80149  39.960  11.800   4.692
16393W        W80150  13.669  10.201   1.441
16394W        W80151  21.592  25.522   3.700
16395W        W80152   4.295  19.267   3.817
16396W        W80153  28.086  41.825  14.977
16397W        W80154  29.066  43.324  11.959
16398W        W80155  40.356  31.543  10.611
16399W        W80156  15.596  34.037   0.357
16400W        W80157  10.296  14.289  14.029
16401W        W80158   7.174  18.139  14.003
16402W        W80159  31.977   4.258  11.043
16403W        W80160  14.745  18.668   4.653
16404W        W80161  41.958  32.970  11.559
16405W        W80162   7.326   5.378   3.697
16406W        W80163  13.814  38.948   0.887
16407W        W80164  44.499   1.399   1.898
16408W        W80165   2.414  30.521  13.512
16409W        W80166  32.612   9.390  11.899
16410W        W80167  35.096  33.619   1.911
16411W        W80168   2.300  29.950  12.848
16412W        W80169  26.533  37.425  14.904
16413W        W80170   1.867  15.259   2.751
16414W        W80171  12.732  14.254  12.504
16415W        W80172  33.982  20.123   0.777
16416W        W80173  12.247  33.032   2.352
16417W        W80174  21.524  29.463  14.893
16418W        W80175  16.112  24.643  10.593
16419W        W80176  41.315  20.633   4.788
16420W        W80177   0.318  28.059  12.943
16421W        W80178   0.790  28.168  13.001
16422W        W80179   8.171  43.322   2.713
16423W        W80180  13.726  33.940   0.929
16424W        W80181  41.902  29.951  10.950
16425W        W80182   1.251   8.712  12.969
16426W        W80183  21.156  36.584  11.921
16427W        W80184   7.759  35.425  10.469
16428W        W80185  44.329  38.340   2.745
16429W        W80186  18.721  10.363  12.835
16430W        W80187   2.292  10.285   0.902
16431W        W80188   3.900  35.468  13.513
16432W        W80189  34.978  15.649  13.377
16433W        W80190   9.393   1.938  14.789
16434W        W80191  34.043   4.900   4.251
16435W        W80192  25.976  15.721   2.364
16436W        W80193  26.576   6.871  14.999
16437W        W80194  33.472  11.796  12.463
16438W        W80195  17.665   6.226   0.242
16439W        W80196  29.001  25.651   9.624
16440W        W80197  39.504   6.715   3.699
16441W        W80198   4.293  29.118  13.873
16442W        W80199  38.009   9.273  13.855
16443W        W80200  36.579  22.732  10.616
16444W        W80201  44.970  16.285  13.972
16445W        W80202  42.303   5.303  10.966
16446W        W80203  36.572  30.921   1.420
16447W        W80204  16.665  15.653  12.952
16448W        W80205   4.223  19.646  10.501
16449W        W80206  39.990  42.912  11.036
16450W        W80207   2.405  26.463  11.517
16451W        W80208  39.457   2.349   0.903
16452W        W80209  19.578   4.831   3.639
16453W        W80210  30.078  42.309   1.879
16454W        W80211  15.095  44.480   0.836
16455W        W80212  38.077  14.334  10.089
16456W        W80213  21.669  33.121  11.031
16457W        W80214  15.323  18.239   3.223
16458W        W80215  33.055  10.190   1.240
16459W        W80216  31.459  37.435  10.991
16460W        W80217  10.288  35.940  13.920
16461W        W80218  40.002  11.230   4.349
16462W        W80219  36.414  28.040  11.475
16463W        W80220  17.642  18.709   2.298
16464W        W80221  11.833   4.704   1.369
16465W        W80222  32.398   8.703  13.064
16466W        W80223   3.228  41.402  11.540
16467W        W80224  12.824  20.028  14.838
16468W        W80225  17.798  11.727   3.651
16469W        W80226  43.356  23.684  13.821
16470W        W80227  41.441   0.256  13.489
16471W        W80228  10.260  33.394  10.062
16472W        W80229  22.619  28.149  10.942
16473W        W80230  35.985  11.151  13.805
16474W        W80231  13.663  25.596  10.997
16475W        W80232  36.053  28.000   2.764
16476W        W80233  37.342   4.703   0.923
16477W        W80234   2.936  14.670   1.266
16478W        W80235  10.828  39.016  14.943
16479W        W80236   2.747   0.321  11.950
16480W        W80237  44.766  19.169   3.161
16481W        W80238  33.074  29.006  12.524
16482W        W80239  11.348  44.276  13.975
16483W        W80240  12.353  42.399  14.484
16484W        W80241  20.057  24.530  13.513
16485W        W80242  17.659  42.872  11.025
16486W        W80243  13.131  15.234  11.860
16487W        W80244  41.890  28.583  14.027
16488W        W80245  20.170  36.569  11.048
16489W        W80246   0.319  19.247  11.871
16490W        W80247  41.320   9.197  12.428
16491W        W80248  26.655  28.995   4.141
16492W        W80249  17.797   9.209  12.995
16493W        W80250   8.839   3.874  12.944
16494W        W80251  10.786   4.399   3.784
16495W        W80252  27.610  14.824  13.848
16496W        W80253   6.821  44.795  10.472
16497W        W80254  21.257   8.228  14.289
16498W        W80255  20.636  20.244   2.893
16499W        W80256  28.946   3.935  11.950
16500W        W80257  20.148   3.407  13.829
16501W        W80258  25.133   6.339   4.153
16502W        W80259  39.059  40.051  10.584
16503W        W80260   7.393  12.299  12.969
16504W        W80261   3.314  38.021  12.941
16505W        W80262  35.371  13.296  10.563
16506W        W80263  32.022  24.069   0.803
16507W        W80264  18.609   4.219  10.521
16508W        W80265  42.844  38.384   1.217
16509W        W80266  37.501  21.072  11.891
16510W        W80267  33.950  42.887  10.605
16511W        W80268  29.489  19.565   5.166
16512W        W80269  43.767   6.333   0.758
16513W        W80270  13.273  38.376   1.403
16514W        W80271  11.696  35.927   0.469
16515W        W80272  28.453  16.733  13.830
16516W        W80273  39.527  28.579  13.337
16517W        W80274  23.601  30.452   1.704
16518W        W80275  19.712  19.562  12.394
16519W        W80276  27.174  21.713  10.968
16520W        W80277   5.267  24.169  11.909
16521W        W80278   6.256  22.212   4.217
16522W        W80279  17.167  39.355   1.860
16523W        W80280   2.901  31.126   0.728
16524W        W80281  21.698  37.569   0.297
16525W        W80282  39.488  11.725   3.765
16526W        W80283  16.072   0.358  10.022
16527W        W80284  32.631  29.587  13.351
16528W        W80285   5.223  36.025  11.567
16529W        W80286  31.449  18.785  11.557
16530W        W80287  10.639  19.169   4.749
16531W        W80288  25.519  14.293  12.870
16532W        W80289  31.582   1.420  14.931
16533W        W80290  22.051  29.661  13.529
16534W        W80291   7.666  21.183  12.391
16535W        W80292   3.230  35.927   4.611
16536W        W80293   3.457   4.793   4.625
16537W        W80294  19.657   9.226   2.689
16538W        W80295  27.480  31.083   1.816
16539W        W80296   3.718   5.430   3.251
16540W        W80297  10.143   5.764  13.811
16541W        W80298  32.896  14.819   1.764
16542W        W80299  43.013   0.403   4.287
16543W        W80300  24.705   3.843   3.868
16544W        W80301  32.544  18.707   3.741
16545W        W80302   0.472   2.785  13.968
16546W        W80303  20.565   8.728   1.252
16547W        W80304  27.125  22.202   2.771
16548W        W80305  11.199  17.110   3.684
16549W        W80306  23.116   8.884   1.726
16550W        W80307  39.530  12.209   2.758
16551W        W80308  31.143  12.340   0.812
16552W        W80309   8.354  10.211  10.033
16553W        W80310  33.412  29.037  10.504
16554W        W80311  12.156  44.849   1.291
16555W        W80312  14.154  11.300  14.880
16556W        W80313  11.725  19.711   2.664
16557W        W80314  33.921  42.784   2.366
16558W        W80315  10.244   3.770   1.272
16559W        W80316   5.432   9.263  12.353
16560W        W80317   2.300  43.373  11.514
16561W        W80318  15.646  10.701  12.966
16562W        W80319  44.416  33.430  14.759
16563W        W80320  40.848  14.663   2.675
16564W        W80321  26.604   7.746   0.438
16565W        W80322  13.760  33.553  11.489
16566W        W80323  29.494   7.188   0.310
16567W        W80324  21.090  26.034  13.352
16568W        W80325  38.433  24.158   1.699
16569W        W80326   9.784   7.383  11.599
16570W        W80327  34.585  21.695   1.815
16571W        W80328  22.730  23.711   4.775
16572W        W80329  14.783  34.944  11.009
16573W        W80330   0.322  34.377   0.865
16574W        W80331  33.480   9.769  14.452
16575W        W80332  43.314  38.964   1.224
16576W        W80333  26.486   4.892   4.145
16577W        W80334   1.821   9.214  11.937
16578W        W80335  40.996  42.860  14.361
16579W        W80336   0.278  28.489   4.248
16580W        W80337  30.544  30.607   1.279
16581W        W80338   5.826  44.763  11.091
16582W        W80339  37.390  34.412  12.524
16583W        W80340  22.195  38.002   1.272
16584W        W80341  18.687   1.262   1.740
16585W        W80342  18.285  11.187   4.644
16586W        W80343   1.816  21.659  10.931
16587W        W80344  23.090   8.746  13.827
16588W        W80345  17.739  38.064  13.365
16589W        W80346  41.917  10.638  12.877
16590W        W80347  19.152  41.936   4.612
16591W        W80348  10.218  27.987  12.564
16592W        W80349  25.575  25.039   4.167
16593W        W80350  41.859   6.285   2.265
16594W        W80351  25.111  42.350   2.792
16595W        W80352  30.986  35.993  10.644
16596W        W80353  24.503  26.014  12.390
16597W        W80354  38.408   2.301  14.897
16598W        W80355  18.090  12.236   3.306
16599W        W80356  37.528  38.379  13.919
16600W        W80357  21.202   5.720   1.868
16601W        W80358  12.248  42.900   3.309
16602W        W80359  19.117  20.702  14.935
16603W        W80360  44.812  38.490   4.824
16604W        W80361   9.152  38.542  13.421
16605W        W80362  39.538  37.382  12.567
16606W        W80363  19.656  34.929  11.119
16607W        W80364  43.423  22.090   2.835
16608W        W80365  18.143  37.917   1.305
16609W        W80366  39.954  24.495   4.764
16610W        W80367  30.469   7.264  11.990
16611W        W80368  44.982  19.556   0.369
16612W        W80369  13.603  11.271   1.224
16613W        W80370   8.850  32.610  14.808
16614W        W80371   8.391  18.770   4.202
16615W        W80372  24.667  10.254   0.383
16616W        W80373  31.623  10.219  12.003
16617W        W80374  30.648  31.051  11.897
16618W        W80375  17.158   2.453   1.317
16619W        W80376   6.333  14.195   5.136
16620W        W80377  10.678  37.051   0.792
16621W        W80378  23.650  21.083   2.773
16622W        W80379  12.272  24.599   2.794
16623W        W80380  42.885  37.071  11.005
16624W        W80381  10.753  42.442  12.931
16625W        W80382   7.692  17.686   2.722
16626W        W80383  16.185   0.358   0.886
16627W        W80384   8.231  17.074   3.290
16628W        W80385  37.972  30.040   3.275
16629W        W80386   3.253  21.613  12.068
16630W        W80387  25.551  26.101  14.002
16631W        W80388  11.831  43.998  14.469
16632W        W80389  20.665   9.781  14.905
16633W        W80390  34.110  18.130  13.322
16634W        W80391  31.062  28.565   2.299
16635W        W80392  34.877  10.314  11.113
16636W        W80393  10.205  19.748  11.878
16637W        W80394   2.919   2.390   0.260
16638W        W80395  16.600  27.610  12.425
16639W        W80396   2.415  44.465   0.909
16640W        W80397  27.564  36.077   4.225
16641W        W80398  20.246  37.361   1.403
16642W        W80399  38.988  25.023   3.337
16643W        W80400  26.702  25.541  13.841
16644W        W80401  15.729  18.127   4.804
16645W        W80402  32.140  38.528   1.267
16646W        W80403  23.047   8.875  13.004
16647W        W80404  24.015  29.426  10.506
16648W        W80405  32.457  11.692  13.499
16649W        W80406  29.494  23.218   0.428
16650W        W80407  35.463  16.699   0.832
16651W        W80408   8.294  31.901  14.934
16652W        W80409  15.129  35.542  13.450
16653W        W80410  24.630   5.428   4.649
16654W        W80411  30.068  44.395   0.308
16655W        W80412   2.790  41.035  11.465
16656W        W80413  18.132   3.743   4.636
16657W        W80414  19.720  30.141   4.769
16658W        W80415  18.254   5.290  14.278
16659W        W80416   4.763  28.575  13.905
16660W        W80417   7.349  29.625   4.140
16661W        W80418  19.039  13.123  10.908
16662W        W80419  44.005  20.214  13.038
16663W        W80420  19.591  38.454   4.823
16664W        W80421  17.580  40.948   1.715
16665W        W80422  34.450  11.174   3.203
16666W        W80423  12.194  43.859   5.660
16667W        W80424  33.995   6.728  13.420
16668W        W80425  40.427   3.936  11.123
16669W        W80426  36.431  34.995  10.600
16670W        W80427  13.799   1.386   2.340
16671W        W80428  41.412  40.888   3.707
16672W        W80429  28.586  38.012  12.013
16673W        W80430  36.436  18.771  13.854
16674W        W80431  28.173  43.868   4.689
16675W        W80432  20.232   7.415  13.950
16676W        W80433  10.864  25.647   1.870
16677W        W80434  25.695  17.092   3.671
16678W        W80435  14.176  44.991   1.933
16679W        W80436   4.251  10.297   0.355
16680W        W80437  30.445  41.352  13.312
16681W        W80438   6.419  40.524   1.264
16682W        W80439  34.476  27.164   0.827
16683W        W80440  15.155  32.611   0.431
16684W        W80441  26.159  28.103   2.887
16685W        W80442  23.680  37.550   2.664
16686W        W80443   7.865  30.024  12.400
16687W        W80444  18.260   3.716   1.847
16688W        W80445  18.669  28.631   0.871
16689W        W80446  31.989  42.527  11.514
16690W        W80447  24.492  25.158  10.895
16691W        W80448   8.358  38.886  14.778
16692W        W80449  34.083  13.123  10.573
16693W        W80450  31.615   2.429   1.810
16694W        W80451  33.913  14.783   2.396
16695W        W80452  29.435  40.310  10.993
16696W        W80453  19.727  22.553   2.762
16697W        W80454  14.752  35.477   4.247
16698W        W80455  36.457   8.239  10.588
16699W        W80456  38.076  40.498  13.381
16700W        W80457   3.895  20.708  12.370
16701W        W80458  12.786  27.487   3.354
16702W        W80459  10.683  22.029  12.543
16703W        W80460  19.641  34.410  14.364
16704W        W80461   0.819  18.733   1.286
16705W        W80462  23.607   7.320   0.343
16706W        W80463  43.935  44.318   2.723
16707W        W80464   6.693   2.892   4.336
16708W        W80465  10.674   3.804   2.249
16709W        W80466  33.534   3.295   1.790
16710W        W80467  28.493  32.067  12.850
16711W        W80468  36.860  33.953  11.955
16712W        W80469   1.968   1.341  12.888
16713W        W80470  12.288  28.982   3.386
16714W        W80471   9.829   7.888  13.897
16715W        W80472  30.519   0.856   4.247
16716W        W80473   9.194   9.297   4.819
16717W        W80474  10.743  37.355   3.719
16718W        W80475  44.350  33.401  12.069
16719W        W80476  27.588  19.237   0.820
16720W        W80477  17.604  23.674   3.854
16721W        W80478  18.674   7.408  11.577
16722W        W80479  16.676  16.656   0.955
16723W        W80480  16.700  38.331   3.317
16724W        W80481   6.380  16.239   1.859
16725W        W80482   0.840  20.667  12.511
16726W        W80483  20.740  16.745   2.198
16727W        W80484  28.480  12.173   4.811
16728W        W80485  31.563  20.238   4.725
16729W        W80486  21.199  38.055   5.283
16730W        W80487  35.915   1.970   4.804
16731W        W80488   7.804  17.731  12.857
16732W        W80489   4.817  34.491   3.214
16733W        W80490  24.724   5.386  11.440
16734W        W80491  34.020  33.461  12.554
16735W        W80492  24.048  41.511   0.324
16736W        W80493   9.319  20.554   4.684
16737W        W80494  16.751  14.621  14.774
16738W        W80495  10.183  40.929  14.364
16739W        W80496  30.947  10.173   9.953
16740W        W80497   0.362  43.978   0.264
16741W        W80498  12.686  42.315  12.917
16742W        W80499  15.713   0.425   0.280
16743W        W80500  11.138   3.853   1.418
16744W        W80501  22.151  29.041  11.566
16745W        W80502   1.734  35.903  11.598
16746W        W80503   9.823  12.238  13.346
16747W        W80504  31.150   2.961   0.779
16748W        W80505  29.991  35.094   4.823
16749W        W80506  33.481  43.894   3.797
16750W        W80507  30.457  31.108  10.532
16751W        W80508  12.706  19.196  14.873
16752W        W80509   6.758  12.827   2.677
16753W        W80510  18.562  23.203   2.726
16754W        W80511  41.416   5.905   1.780
16755W        W80512   5.884  31.544  12.094
16756W        W80513  40.354   6.302  10.510
16757W        W80514  38.035  42.020  11.562
16758W        W80515  43.409  18.256  10.906
16759W        W80516  28.113  10.830  12.852
16760W        W80517   2.829  20.252  14.418
16761W        W80518   2.781  15.219  11.552
16762W        W80519  31.144  41.005   0.750
16763W        W80520  17.759  13.269  12.930
16764W        W80521  22.633  41.508  12.361
16765W        W80522  36.371  32.443   3.293
16766W        W80523  23.630  12.333  14.768
16767W        W80524  21.026  43.818  10.977
16768W        W80525   9.245  32.912   1.346
16769W        W80526  12.786  42.317   1.433
16770W        W80527  20.028  34.119   0.483
16771W        W80528  24.058  23.641  12.896
16772W        W80529  40.424  40.881   3.233
16773W        W80530  20.172   6.700  14.339
16774W        W80531  10.182  37.924   2.784
16775W        W80532  41.516  35.447  14.482
16776W        W80533  30.115  42.895   3.801
16777W        W80534  26.597  26.690   5.204
16778W        W80535  17.737  21.192   3.282
16779W        W80536  31.931   0.920  11.878
16780W        W80537  24.505   6.382   1.835
16781W        W80538   2.470   1.938  13.893
16782W        W80539   6.769  44.871  14.025
16783W        W80540  19.645  23.165   1.217
16784W        W80541  17.175  34.377  10.035
16785W        W80542  34.880   6.218   5.203
16786W        W80543  13.610  22.566  14.400
16787W        W80544   5.391  43.270   2.212
16788W        W80545   7.666   7.380  11.590
16789W        W80546  25.051   4.736  13.320
16790W        W80547  21.706   0.850   2.842
16791W        W80548  36.043  27.000  13.510
16792W        W80549  32.032  31.102  11.940
16793W        W80550  41.534  35.490   4.277
16794W        W80551  41.825  35.875   4.232
16795W        W80552  35.096  39.841   1.292
16796W        W80553  35.892   3.371  13.385
16797W        W80554  18.154  19.699  14.439
16798W        W80555  14.822  24.496   3.271
16799W        W80556  30.074  37.970  14.765
16800W        W80557   1.935  29.431   0.300
16801W        W80558  16.701  20.724  11.868
16802W        W80559  38.022  23.499   1.441
16803W        W80560   9.750  17.597   2.352
16804W        W80561   7.732  17.195  14.822
16805W        W80562  36.072  10.309  12.493
16806W        W80563  11.270  22.585  14.449
16807W        W80564  34.023  29.138  12.840
16808W        W80565  23.655  41.821   4.623
16809W        W80566  19.614  21.718   0.251
16810W        W80567  42.438  42.451  13.457
16811W        W80568  35.006  37.986   1.432
16812W        W80569  44.864  32.412  13.859
16813W        W80570  17.777   7.732  11.938
16814W        W80571   2.815  24.069  10.918
16815W        W80572   7.860  34.527   2.312
16816W        W80573   6.405   9.713   4.255
16817W        W80574  40.460  39.334  14.414
16818W        W80575  22.244  41.329  11.546
16819W        W80576   2.228  25.179   3.673
16820W        W80577  19.222  22.139  12.960
16821W        W80578  25.642  42.301  11.992
16822W        W80579  29.114  36.978   2.765
16823W        W80580  40.872  11.773   4.745
16824W        W80581   3.352  40.010   2.332
16825W        W80582  27.565  20.726  13.448
16826W        W80583  18.170  32.961  10.924
16827W        W80584  34.516  16.762   2.308
16828W        W80585  35.588  39.443   3.254
16829W        W80586   9.857  21.223   4.285
16830W        W80587   1.270  36.413   4.833
16831W        W80588  34.537  42.835   3.181
16832W        W80589  16.133  30.134   2.841
16833W        W80590  29.646  22.227   3.288
16834W        W80591  17.657  10.330   4.342
16835W        W80592  26.083  12.631  14.893
16836W        W80593  14.765  44.983   0.796
16837W        W80594   0.417   0.345   0.343
16838W        W80595  34.393  10.340  11.066
16839W        W80596  40.941  33.563  10.580
16840W        W80597  35.487  14.137   2.244
16841W        W80598   7.233  18.592  10.639
16842W        W80599  24.566  33.579  14.310
16843W        W80600   3.747  22.569   4.344
16844W        W80601  33.052  35.563  14.350
16845W        W80602  13.168   2.770   4.815
16846W        W80603  26.612  14.604   3.373
16847W        W80604   3.250  15.292   4.176
16848W        W80605   8.190  27.173  13.514
16849W        W80606  43.455  17.573  13.364
16850W        W80607   5.413   0.271   1.437
16851W        W80608  11.645  21.135   1.264
16852W        W80609   6.340  15.213   0.421
16853W        W80610  11.354  34.092   4.602
16854W        W80611  27.977  22.648   3.359
16855W        W80612  30.951  14.104   9.575
16856W        W80613   4.413   9.814  12.062
16857W        W80614  31.024  28.079   0.841
16858W        W80615  40.532  13.172   2.212
16859W        W80616  33.430  41.375   4.642
16860W        W80617  28.533   2.334   2.204
16861W        W80618  31.951  10.663  12.984
16862W        W80619   9.868   1.936  12.868
16863W        W80620   5.234   2.955   2.755
16864W        W80621  28.488  25.524  14.474
16865W        W80622  21.739   7.735   0.952
16866W        W80623  35.514  24.668   3.337
16867W        W80624  31.451  38.880  11.073
16868W        W80625  42.024  44.953   4.336
16869W        W80626  20.274  19.653  12.867
16870W        W80627  17.745   9.374  13.906
16871W        W80628  25.119  10.637  14.371
16872W        W80629  35.536  33.556  12.056
16873W        W80630  24.657   8.782   1.827
16874W        W80631  10.856   1.887   2.298
16875W        W80632  37.397  13.701   0.404
16876W        W80633  26.066  33.940  11.455
16877W        W80634  44.793  39.923   1.369
16878W        W80635   1.411  15.161   2.225
16879W        W80636  35.438   0.757  10.532
16880W        W80637  39.986   3.269   4.254
16881W        W80638  25.019  15.084  14.938
16882W        W80639  39.515  12.316   0.736
16883W        W80640  11.304  29.978   4.224
16884W        W80641  25.969  21.017   1.239
16885W        W80642   5.839  31.937  14.354
16886W        W80643  19.139  27.121   0.782
16887W        W80644  32.922  15.139   0.816
16888W        W80645  34.494  44.415   0.864
16889W        W80646  40.922  44.360  12.545
16890W        W80647  15.790   7.352  10.550
16891W        W80648   5.826  25.585   1.271
16892W        W80649   4.360   5.258   3.271
16893W        W80650  40.314   0.251  12.948
16894W        W80651  37.464  14.111   3.221
16895W        W80652  16.262  14.202  13.532
16896W        W80653  32.495  25.138  10.453
16897W        W80654  26.625   5.198  12.059
16898W        W80655  37.349  25.078   1.442
16899W        W80656  17.159  12.319  10.026
16900W        W80657  15.694  13.173  14.943
16901W        W80658  15.773   7.766   1.324
16902W        W80659   9.213  17.239  14.488
16903W        W80660   7.858  29.073  10.919
16904W        W80661  41.801  11.170  14.978
16905W        W80662  19.602  16.689  10.952
16906W        W80663  23.688   1.247   1.406
16907W        W80664  42.812  42.312   2.841
16908W        W80665  40.434   7.811   4.283
16909W        W80666   7.836  27.605  10.636
16910W        W80667  29.456  42.357   4.817
16911W        W80668  33.954  18.747   2.794
16912W        W80669   5.788  30.919   1.861
16913W        W80670  17.738  12.222   5.581
16914W        W80671   7.244  35.917   1.419
16915W        W80672   8.232   6.247  10.967
16916W        W80673   8.309  15.314   9.437
16917W        W80674  31.545  39.943  14.873
16918W        W80675   4.912  24.165  11.983
16919W        W80676  27.588  41.419   0.424
16920W        W80677  39.808  32.063   3.780
16921W        W80678  33.389  41.027   0.934
16922W        W80679   6.188   7.769   5.131
16923W        W80680  11.748  21.743  12.492
16924W        W80681  12.295  40.546  12.539
16925W        W80682  36.448  38.391   4.193
16926W        W80683  26.659  17.714   0.379
16927W        W80684   3.745  19.595   4.724
16928W        W80685  22.632  37.030  11.905
16929W        W80686  21.701  43.773   2.870
16930W        W80687   8.698  20.119  13.043
16931W        W80688  15.589  10.658   2.858
16932W        W80689  36.851   8.310   3.354
16933W        W80690  20.533   1.437  11.017
16934W        W80691   9.194   7.669  13.409
16935W        W80692  28.466  13.689  14.508
16936W        W80693  28.980  41.431   4.707
16937W        W80694  17.198  28.962   1.771
16938W        W80695  38.439  41.914  13.339
16939W        W80696  31.531  17.694  11.569
16940W        W80697  17.235  27.668   1.866
16941W        W80698   8.387   4.752   4.304
16942W        W80699  28.545  18.072   2.185
16943W        W80700  20.173  19.773  14.276
16944W        W80701  24.604  33.927  14.352
16945W        W80702  39.972  28.943  10.588
16946W        W80703  42.473   1.927   4.782
16947W        W80704  25.219   0.779  12.042
16948W        W80705  31.971  36.476  11.413
16949W        W80706  28.057  35.451   4.323
16950W        W80707   0.421   5.795   3.656
16951W        W80708  28.528   6.837  11.938
16952W        W80709   2.945   9.644   3.836
16953W        W80710  23.084  17.637  12.885
16954W        W80711  37.441   0.873  10.469
16955W        W80712  44.425  32.910  12.366
16956W        W80713  20.528  14.692   2.755
16957W        W80714  26.492   5.342  14.457
16958W        W80715  27.089  42.932  10.561
16959W        W80716  19.665  13.335   1.276
16960W        W80717  24.011  21.620  12.517
16961W        W80718  44.927  44.439  13.881
16962W        W80719  26.661  28.978  10.124
16963W        W80720  36.493   9.768   3.741
16964W        W80721   3.259   9.282  13.448
16965W        W80722   7.858  17.750  11.374
16966W        W80723  24.513  19.135   1.377
16967W        W80724  32.070  12.356   0.878
16968W        W80725   2.864  22.525  13.998
16969W        W80726   7.863  19.141   4.218
16970W        W80727  26.077  19.732  14.940
16971W        W80728   7.197  19.706   3.850
16972W        W80729  37.416  10.317  11.051
16973W        W80730  27.576   7.286   3.260
16974W        W80731  11.723  38.367  12.562
16975W        W80732   3.439  27.185  10.546
16976W        W80733   7.348  30.632  11.378
16977W        W80734  31.116  30.152  14.473
16978W        W80735   9.164  43.391   4.765
16979W        W80736  33.967  43.944  12.562
16980W        W80737  29.638  22.705   4.206
16981W        W80738  40.325  34.458  12.374
16982W        W80739   8.178  31.615  12.437
16983W        W80740  44.331  13.605  14.772
16984W        W80741  21.112  27.079   0.443
16985W        W80742  29.979  36.451   3.358
16986W        W80743  10.841  17.622  11.973
16987W        W80744  44.277  40.980   1.800
16988W        W80745  42.903  26.565   1.813
16989W        W80746  32.509  22.200  11.095
16990W        W80747  41.877  44.887   2.705
16991W        W80748  27.959  39.438  10.412
16992W        W80749  42.958  32.897   3.250
16993W        W80750  20.689  28.482  14.495
16994W        W80751  36.978   6.751  10.417
16995W        W80752  18.741  32.538   4.758
16996W        W80753  33.923  37.056   3.725
16997W        W80754   1.916   3.775   4.708
16998W        W80755  32.479  31.467   2.785
16999W        W80756  22.562  26.545  12.578
17000W        W80757   2.311  24.148  13.041
17001W        W80758  17.064  24.068   2.784
17002W        W80759  17.759  19.072   1.370
17003W        W80760  29.141   4.238   0.323
17004W        W80761  21.260   8.216   2.769
17005W        W80762  22.216  28.126   3.799
17006W        W80763  13.717  44.874  12.410
17007W        W80764  32.120  32.000  12.371
17008W        W80765  13.687   1.939  12.548
17009W        W80766  34.019  15.729   2.854
17010W        W80767  20.535  44.264   3.750
17011W        W80768  18.683   8.297   1.431
17012W        W80769  11.330  28.122   4.117
17013W        W80770  28.446  15.659   4.128
17014W        W80771  25.710  14.237   3.170
17015W        W80772  26.625  19.641  13.319
17016W        W80773   4.877  29.519   2.281
17017W        W80774  30.540  44.464   4.314
17018W        W80775   1.961  41.419   0.266
17019W        W80776  38.509  23.007   4.207
17020W        W80777  16.692  21.512   0.781
17021W        W80778  19.736  23.679  14.419
17022W        W80779  36.488  42.301  12.958
17023W        W80780  37.465  16.161   3.345
17024W        W80781  26.124  29.067  10.901
17025W        W80782  34.084  35.994   3.688
17026W        W80783  22.181   1.770   0.760
17027W        W80784  34.119  39.541  13.437
17028W        W80785  27.028  17.211  14.295
17029W        W80786   0.969  13.160  14.857
17030W        W80787   8.253  24.697  12.507
17031W        W80788   3.357   1.821  14.910
17032W        W80789  37.459   6.737   1.934
17033W        W80790  34.518  38.540   4.209
17034W        W80791   1.929  40.385   2.186
17035W        W80792  23.078   5.828   3.687
17036W        W80793   5.746  37.358   3.663
17037W        W80794  38.492   4.451  10.969
17038W        W80795  34.070   4.367   3.735
17039W        W80796  40.335  21.254   3.353
17040W        W80797  28.648   0.807   2.210
17041W        W80798  17.307  30.070  13.890
17042W        W80799   0.807  43.351   1.302
17043W        W80800  26.618  42.526   1.834
17044W        W80801  34.403   1.833  10.570
17045W        W80802  19.158  15.109   0.788
17046W        W80803  29.645  30.150   1.793
17047W        W80804  15.214  30.003  13.851
17048W        W80805  10.199  30.618   9.999
17049W        W80806  11.769  36.429   4.247
17050W        W80807   5.933  12.225  12.919
17051W        W80808  42.894  33.445   3.682
17052W        W80809  31.471   4.757   1.729
17053W        W80810  33.978   4.708   5.711
17054W        W80811  20.639  38.853  10.522
17055W        W80812  41.321   5.717   3.289
17056W        W80813  13.303  40.980   0.316
17057W        W80814  16.088  10.669   2.814
17058W        W80815  25.043  37.909   3.267
17059W        W80816   6.400   4.322  12.465
17060W        W80817  21.638   8.224  14.505
17061W        W80818  40.470   7.823   4.836
17062W        W80819  38.398  22.098  14.478
17063W        W80820   6.254  40.032   2.804
17064W        W80821   8.898   2.326   4.620
17065W        W80822  43.993  36.002  14.432
17066W        W80823  15.119   7.249  12.002
17067W        W80824  28.534   3.930   9.621
17068W        W80825  25.581   6.726  13.441
17069W        W80826  35.596  10.275  12.354
17070W        W80827  27.103   6.858  14.995
17071W        W80828  12.230  22.038   4.769
17072W        W80829  25.060  36.588  12.535
17073W        W80830   6.235  18.783   4.198
17074W        W80831  12.195  28.112  10.892
17075W        W80832  42.974   9.271  13.862
17076W        W80833   4.290  27.169  12.575
17077W        W80834  36.531  24.199   2.351
17078W        W80835  19.170  37.386  11.113
17079W        W80836   5.347  32.538   4.807
17080W        W80837  43.496   5.361   4.807
17081W        W80838   9.882  27.452   1.853
17082W        W80839  14.115  30.101   4.795
17083W        W80840  26.549   7.868  11.444
17084W        W80841  15.767  28.132   0.846
17085W        W80842   4.806  18.705   5.134
17086W        W80843   8.284  44.277   3.722
17087W        W80844  24.502  32.519   1.818
17088W        W80845  37.944  11.771   2.673
17089W        W80846  22.112   5.737  13.341
17090W        W80847  17.736  32.952  13.483
17091W        W80848  28.592  12.794   0.834
17092W        W80849   7.723   3.409  10.045
17093W        W80850  37.894   4.747   5.165
17094W        W80851  40.377   7.233  13.807
17095W        W80852  37.382  26.141   4.325
17096W        W80853   2.815  33.386   3.843
17097W        W80854  33.010  10.781   2.382
17098W        W80855  22.199  19.656  12.993
17099W        W80856  37.348  33.521  11.371
17100W        W80857  35.871  11.797   3.192
17101W        W80858  28.509  43.875  10.505
17102W        W80859  13.613  16.188   1.874
17103W        W80860  21.558  12.815   3.318
17104W        W80861  32.910  19.588   2.836
17105W        W80862   9.820  13.795   2.313
17106W        W80863  30.520  25.703  12.924
17107W        W80864  27.005  35.110  14.444
17108W        W80865   4.942  38.569   0.429
17109W        W80866  12.313  24.144   3.290
17110W        W80867  26.486  39.890  10.034
17111W        W80868   5.339  42.922  13.946
17112W        W80869  13.215  11.703   1.386
17113W        W80870  18.598  27.475  10.942
17114W        W80871  44.936  27.027   2.808
17115W        W80872  44.458  39.997  11.601
17116W        W80873  42.466  14.759  11.919
17117W        W80874  10.660  41.484  13.959
17118W        W80875  24.675   7.675  11.006
17119W        W80876  11.190  33.991  10.439
17120W        W80877   5.742  23.567  13.035
17121W        W80878   9.389  23.154  13.851
17122W        W80879   0.946  44.460   2.357
17123W        W80880  28.539  20.759   4.812
17124W        W80881  34.867  32.511   4.287
17125W        W80882  43.277  28.026   4.702
17126W        W80883  37.921  15.757  13.538
17127W        W80884  37.551  36.896  13.369
17128W        W80885  22.095  13.675  12.024
17129W        W80886  32.618  35.463  14.317
17130W        W80887  25.559  37.449  13.320
17131W        W80888   9.811  16.257   1.848
17132W        W80889  10.875  21.756  14.830
17133W        W80890  10.139  34.919   1.283
17134W        W80891   4.376  39.957   1.741
17135W        W80892  14.282  20.740  14.030
17136W        W80893  20.589  41.479   4.625
17137W        W80894  40.371   5.871  10.911
17138W        W80895  31.096  19.737   4.151
17139W        W80896   3.382  27.614  14.975
17140W        W80897   9.384   4.232  10.513
17141W        W80898  28.534  39.430  13.926
17142W        W80899  18.281  39.504   2.901
17143W        W80900  26.464   0.972   1.786
17144W        W80901  30.984   5.737  14.769
17145W        W80902  23.189  10.309   3.796
17146W        W80903  41.515   2.388  10.610
17147W        W80904  42.807  23.651   3.159
17148W        W80905  37.475  39.392  11.995
17149W        W80906  40.828   8.220   4.633
17150W        W80907  33.394  25.534   3.255
17151W        W80908  24.203  12.313   2.898
17152W        W80909  10.644  21.641  11.973
17153W        W80910  31.926  37.440  10.107
17154W        W80911   7.804  11.713  12.920
17155W        W80912  27.564  32.547  14.494
17156W        W80913  38.940  37.905   4.631
17157W        W80914  37.984  12.830  11.117
17158W        W80915   6.832   2.962   0.801
17159W        W80916   6.360  24.994  13.455
17160W        W80917  13.749  35.009  12.372
17161W        W80918  13.157   5.732   4.346
17162W        W80919  30.652  28.034  14.356
17163W        W80920  29.647  24.519  10.131
17164W        W80921   5.876  17.206   0.915
17165W        W80922  39.014  12.209  11.088
17166W        W80923  31.048  19.261  10.963
17167W        W80924  37.893  33.116   0.284
17168W        W80925  24.015  15.088  14.896
17169W        W80926  26.545  29.436  13.044
17170W        W80927  43.390  26.465  13.933
17171W        W80928   0.283  31.612  10.497
17172W        W80929   7.853  19.081  10.910
17173W        W80930  44.994  10.858  11.041
17174W        W80931  42.412  30.416   0.802
17175W        W80932  43.386  19.225   2.280
17176W        W80933   8.728   4.777   3.747
17177W        W80934  31.501  32.956  13.506
17178W        W80935  35.902  17.231  13.880
17179W        W80936  21.732   2.268  10.544
17180W        W80937  19.043  14.302   1.799
17181W        W80938  33.581  18.649   3.854
17182W        W80939  10.791  26.632   0.328
17183W        W80940  11.158  10.708  10.633
17184W        W80941  27.169  26.115  14.386
17185W        W80942  34.059  11.685   0.337
17186W        W80943  13.221  44.300  14.401
17187W        W80944   1.369  36.846  12.574
17188W        W80945  26.176   2.451   2.714
17189W        W80946  14.279  26.162   0.817
17190W        W80947  27.464  11.353   2.712
17191W        W80948  30.632  15.706   0.869
17192W        W80949  26.092  40.502  10.415
17193W        W80950  40.863  19.710   1.811
17194W        W80951   1.280   0.306   2.266
17195W        W80952  24.682  35.448  10.955
17196W        W80953  40.841  15.281  11.960
17197W        W80954   3.252  29.090   0.348
17198W        W80955   1.751  27.021   0.824
17199W        W80956  23.175  21.158   4.792
17200W        W80957   2.950  35.574  12.876
17201W        W80958   1.383  25.188   2.827
17202W        W80959  40.334  26.990  13.484
17203W        W80960  38.955  31.960   0.290
17204W        W80961  11.773  39.014   3.702
17205W        W80962  37.538   5.775   3.671
17206W        W80963   2.274  11.861   1.294
17207W        W80964  44.993  42.781   2.801
17208W        W80965  33.480   3.283   3.196
17209W        W80966  15.632  33.469  11.955
17210W        W80967  36.526  24.140   0.415
17211W        W80968  38.048   4.916   3.692
17212W        W80969  31.510  23.160  11.932
17213W        W80970  30.043  15.648   3.173
17214W        W80971  29.103  25.552   0.308
17215W        W80972  28.621   7.390  13.935
17216W        W80973  13.703  31.596  13.919
17217W        W80974  22.567  19.578  10.111
17218W        W80975  34.518   7.398   0.951
17219W        W80976  29.429  31.946  14.494
17220W        W80977  44.277  39.947   4.194
17221W        W80978  29.972  31.098  11.963
17222W        W80979  32.092  19.547  14.362
17223W        W80980  42.356   6.419  14.023
17224W        W80981  35.079   9.181   4.749
17225W        W80982  40.369  29.934  11.014
17226W        W80983  37.529  44.435  14.507
17227W        W80984  37.880  41.359   4.235
17228W        W80985  19.533  17.682  10.517
17229W        W80986  34.513  30.001   5.251
17230W        W80987  27.516  37.427  14.006
17231W        W80988  28.532   3.799  12.374
17232W        W80989  23.173   5.309  13.473
17233W        W80990  27.576  14.333  12.362
17234W        W80991  42.794   5.881   0.855
17235W        W80992  20.635  10.198   0.419
17236W        W80993  21.170  12.223  12.072
17237W        W80994  41.498  22.708   4.327
17238W        W80995  35.468  36.945   3.231
17239W        W80996  30.136  10.204   4.719
17240W        W80997   7.773  27.004   0.801
17241W        W80998  38.439   7.758  13.526
17242W        W80999  43.439  15.648  11.576
17243W        W81000  43.379  35.451   4.235
17244W        W81001  24.156  28.115  12.440
17245W        W81002  36.518   3.771   0.348
17246W        W81003  19.219  41.820  11.415
17247W        W81004  14.751   0.368  14.370
17248W        W81005  34.082  15.683   2.182
17249W        W81006   1.338  39.936  13.324
17250W        W81007  21.516   8.793  13.988
17251W        W81008  22.172  15.623   2.709
17252W        W81009  38.015  33.131   4.727
17253W        W81010   9.830  17.230   0.445
17254W        W81011  15.152   6.222  12.501
17255W        W81012  37.939  32.050   3.692
17256W        W81013   4.903   5.824   3.159
17257W        W81014   2.311  12.758   3.860
17258W        W81015   7.732  37.048  11.128
17259W        W81016  41.399  43.895  14.924
17260W        W81017  37.935   5.748   3.171
17261W        W81018  21.599  32.044  13.063
17262W        W81019  14.160  24.536  14.763
17263W        W81020  17.603  10.754  14.363
17264W        W81021  27.148   4.344  12.409
17265W        W81022  27.073   3.799  12.078
17266W        W81023   6.408  12.199  14.291
17267W        W81024  33.938  19.225   4.177
17268W        W81025  30.102   9.701   3.653
17269W        W81026  30.099  27.524  14.402
17270W        W81027  11.736  25.213   4.202
17271W        W81028  36.425  41.297  11.543
17272W        W81029  18.108  25.111  14.280
17273W        W81030  18.050  13.754   3.146
17274W        W81031  43.775  39.356   3.277
17275W        W81032  32.089  44.982  11.875
17276W        W81033   2.902  25.696  14.962
17277W        W81034  31.431   7.237   3.857
17278W        W81035  15.681   5.339   1.439
17279W        W81036  26.582  30.569  10.890
17280W        W81037  15.197  34.031  12.930
17281W        W81038  25.638  42.323   1.303
17282W        W81039  37.458  19.204   0.407
17283W        W81040  12.326  34.417  12.564
17284W        W81041  19.591  33.964  11.958
17285W        W81042  29.525   1.837   9.934
17286W        W81043   6.280  33.041  12.429
17287W        W81044  20.067  21.058   9.956
17288W        W81045  22.557  14.164   1.845
17289W        W81046  24.610  22.997   0.255
17290W        W81047  25.680  43.814   4.223
17291W        W81048  16.709  28.675  12.994
17292W        W81049   6.243   0.956   3.764
17293W        W81050  38.923   1.342  10.592
17294W        W81051  11.214   2.966   4.134
17295W        W81052  27.967   6.268   1.290
17296W        W81053  10.787  26.180   2.373
17297W        W81054  15.320  33.486  12.957
17298W        W81055  22.730   2.965   4.325
17299W        W81056  10.695   5.392  14.759
17300W        W81057  13.790  19.546  14.966
17301W        W81058   8.208   8.279  10.493
17302W        W81059  32.001  31.430   2.397
17303W        W81060   3.835   9.681  11.475
17304W        W81061  36.456  30.566   3.842
17305W        W81062   5.260  42.288  13.494
17306W        W81063   3.461  41.437   1.278
17307W        W81064  38.943  12.853   1.749
17308W        W81065  41.899  41.015   1.935
17309W        W81066  13.275  16.095   4.817
17310W        W81067  18.571  42.486  12.351
17311W        W81068  23.718  41.031  13.324
17312W        W81069  17.093  38.477  14.004
17313W        W81070  24.059  15.816  14.367
17314W        W81071  38.359  40.005   1.298
17315W        W81072  38.898  14.219   0.856
17316W        W81073  25.535  42.467   4.773
17317W        W81074  33.514  26.626   3.734
17318W        W81075  36.038  12.784   0.909
17319W        W81076  38.039  22.176  11.488
17320W        W81077   3.449  24.055   4.317
17321W        W81078   1.471  36.975   0.484
17322W        W81079  15.265  13.742   9.923
17323W        W81080  41.381  32.117  11.601
17324W        W81081  18.173  35.987  10.889
17325W        W81082  39.953  19.187  13.997
17326W        W81083  42.411  35.027   3.201
17327W        W81084  18.641  34.082   3.705
17328W        W81085  44.369  12.144   3.769
17329W        W81086  14.608  38.451  14.302
17330W        W81087   1.843  15.742   4.197
17331W        W81088  16.152  15.190  11.059
17332W        W81089  33.418  13.105   1.755
17333W        W81090  32.044  17.288  12.376
17334W        W81091  38.850   8.666   1.216
17335W        W81092  30.561  33.444  11.000
17336W        W81093   9.661  35.964  13.989
17337W        W81094  21.033  17.561  10.595
17338W        W81095  40.867  41.378  11.867
17339W        W81096   4.281  40.474   0.832
17340W        W81097  41.846   1.863  11.397
17341W        W81098   7.367  21.032  13.958
17342W        W81099   4.731  25.976  12.025
17343W        W81100  23.120  14.212  11.961
17344W        W81101  25.112  16.281   4.339
17345W        W81102  17.301   7.744  12.573
17346W        W81103   5.923  44.452   5.662
17347W        W81104  39.511  43.803   3.827
17348W        W81105  41.457  35.954  11.952
17349W        W81106   1.421  34.599   1.861
17350W        W81107  23.070  27.126  12.859
17351W        W81108   6.691   6.269   2.737
17352W        W81109   0.470   7.247   0.759
17353W        W81110   7.387  17.153  13.963
17354W        W81111   5.895   7.195   3.791
17355W        W81112   6.724  21.675   0.266
17356W        W81113   8.183  37.963   0.308
17357W        W81114  28.165  32.469   2.418
17358W        W81115  28.023  25.208  11.961
17359W        W81116   8.775  25.504  12.469
17360W        W81117  24.692  33.973  14.935
17361W        W81118   0.804  12.133   0.967
17362W        W81119  30.161  17.758  13.027
17363W        W81120  27.008  31.082  13.339
17364W        W81121  37.581  13.263   2.416
17365W        W81122  26.011  27.627   0.892
17366W        W81123  39.363  10.268  12.522
17367W        W81124   4.812  35.381   1.851
17368W        W81125   7.258   6.420   3.695
17369W        W81126  14.336  31.480   0.760
17370W        W81127  35.027  19.053   1.353
17371W        W81128  23.703  13.343   2.840
17372W        W81129  23.534  29.440  13.433
17373W        W81130  21.083   3.910  12.566
17374W        W81131  37.085  44.927   0.353
17375W        W81132  37.844  41.825   3.304
17376W        W81133   1.849  19.229  13.888
17377W        W81134   3.940  23.229   4.831
17378W        W81135  33.503   5.690   4.743
17379W        W81136  20.274  27.195  14.427
17380W        W81137  10.673   5.747  14.412
17381W        W81138   1.250  43.778  11.906
17382W        W81139  19.736  42.920   4.837
17383W        W81140  36.006  14.266  12.926
17384W        W81141  31.499  39.023   2.868
17385W        W81142  43.412  28.122  13.031
17386W        W81143  21.607  11.282   0.746
17387W        W81144   9.281  36.462  11.867
17388W        W81145  39.025  35.476   1.393
17389W        W81146  26.992  37.444  14.940
17390W        W81147  20.713  37.372   5.203
17391W        W81148  32.632  36.364  14.379
17392W        W81149  14.685   1.731   0.945
17393W        W81150  39.887  11.779   3.744
17394W        W81151  36.488   9.152  13.379
17395W        W81152  29.456  27.964  14.445
17396W        W81153  18.693  41.911   4.766
17397W        W81154  15.613   0.837  10.158
17398W        W81155  11.202  28.008  14.390
17399W        W81156   7.903  12.362   2.882
17400W        W81157  11.197  13.318  14.938
17401W        W81158  17.615   6.769   0.966
17402W        W81159  38.873  44.983   4.239
17403W        W81160   8.239  14.665  11.408
17404W        W81161  30.500  18.155   1.347
17405W        W81162   1.753  29.613   2.350
17406W        W81163  29.083  31.502   2.314
17407W        W81164  37.966  23.236  14.277
17408W        W81165  17.233   6.746  11.504
17409W        W81166  11.250  20.739  12.382
17410W        W81167  29.660  12.122  12.452
17411W        W81168  23.152  17.653  10.569
17412W        W81169  32.445   5.409   1.327
17413W        W81170  35.915  39.063   1.409
17414W        W81171  15.093  21.134  14.953
17415W        W81172  24.519  13.840   4.315
17416W        W81173  27.083   0.346  11.432
17417W        W81174  39.820   3.905   0.790
17418W        W81175  26.607  44.814  13.947
17419W        W81176   9.769   7.785   1.324
17420W        W81177  29.635  29.035  10.611
17421W        W81178  31.498   9.863   3.355
17422W        W81179  39.846  27.602   0.379
17423W        W81180   9.395   8.221  14.783
17424W        W81181  28.162  31.914  10.532
17425W        W81182  33.878  42.387  13.868
17426W        W81183  14.619  10.256   3.739
17427W        W81184  34.403  30.629   2.186
17428W        W81185  23.124   2.872   2.374
17429W        W81186  10.853  13.109   2.852
17430W        W81187  28.064  26.502   4.313
17431W        W81188   8.710  19.735   4.742
17432W        W81189  22.677  30.103  14.275
17433W        W81190  40.411  12.245  11.540
17434W        W81191  22.641   9.655  13.504
17435W        W81192  10.242  27.490  14.783
17436W        W81193  19.580   3.930  10.432
17437W        W81194   7.692  12.250  10.594
17438W        W81195  19.123  39.808   1.297
17439W        W81196  32.481   7.752   0.869
17440W        W81197  26.998  18.186  12.514
17441W        W81198  37.406  30.075   3.799
17442W        W81199  44.797  27.175   3.193
17443W        W81200  10.322  16.193   2.663
17444W        W81201  28.171  13.793  13.798
17445W        W81202  39.853  44.483   3.734
17446W        W81203  40.040  22.042  14.291
17447W        W81204  26.168  37.070   2.273
17448W        W81205  33.936  32.950   2.358
17449W        W81206  16.590  35.406  14.396
17450W        W81207  38.549  38.953  11.062
17451W        W81208  30.102  14.755   1.927
17452W        W81209  34.553  23.208   3.317
17453W        W81210  32.011  22.744   2.842
17454W        W81211  33.104   0.262  11.504
17455W        W81212  40.343   8.818  12.979
17456W        W81213  19.043   5.718  10.549
17457W        W81214   7.267   1.779  12.573
17458W        W81215  31.483  18.197  11.584
17459W        W81216  19.579  34.910  11.425
17460W        W81217  12.278  43.889   9.995
17461W        W81218  39.022  19.220   2.415
17462W        W81219   2.858  16.212  14.975
17463W        W81220  12.707  25.044   2.785
17464W        W81221   7.883  31.591  12.580
17465W        W81222   1.379   4.303  14.373
17466W        W81223  24.655  35.071   2.276
17467W        W81224  20.606  35.378   2.279
17468W        W81225  42.869  21.152   4.635
17469W        W81226  30.577  16.576   3.253
17470W        W81227  37.899  10.743  13.426
17471W        W81228  23.219  34.101   9.943
17472W        W81229  28.515  25.005  12.087
17473W        W81230  38.973  18.715  10.438
17474W        W81231  15.177  13.654   4.276
17475W        W81232  40.814  40.043  13.409
17476W        W81233  10.856   2.748   3.645
17477W        W81234  19.715  11.778   0.936
17478W        W81235  43.962   2.862  12.873
17479W        W81236  11.847  24.517  11.891
17480W        W81237  40.960   3.401   1.823
17481W        W81238  31.087  19.598   3.253
17482W        W81239  15.792  28.174  14.841
17483W        W81240  17.582  19.085   4.769
17484W        W81241  38.897  12.702   2.731
17485W        W81242  43.326   1.940   1.273
17486W        W81243  32.942  27.485  14.879
17487W        W81244  37.517  21.563  13.830
17488W        W81245  35.882  36.476   1.774
17489W        W81246  24.043  35.553   1.233
17490W        W81247  14.314  17.287   2.367
17491W        W81248   7.890  27.518   1.732
17492W        W81249  36.372  34.432  11.549
17493W        W81250  22.028  25.119  13.330
17494W        W81251  17.084  28.664   3.213
17495W        W81252  11.732  14.190   1.339
17496W        W81253  37.358  19.202  13.062
17497W        W81254  17.297  36.978   0.470
17498W        W81255  23.533  16.602  13.421
17499W        W81256  39.861  38.441   2.205
17500W        W81257  16.695   6.403   3.230
17501W        W81258  37.436  43.428   3.703
17502W        W81259  30.980  37.879   1.757
17503W        W81260  22.031   2.768  14.434
17504W        W81261   2.964  22.207  10.644
17505W        W81262  33.422   0.350  12.438
17506W        W81263  17.208  23.014  13.331
17507W        W81264  29.139  42.819  10.524
17508W        W81265  25.702  44.334  10.003
17509W        W81266  22.717  17.267   4.226
17510W        W81267   4.422  31.586  13.836
17511W        W81268   0.362   2.322   3.379
17512W        W81269  14.159   7.329  14.353
17513W        W81270  28.030   5.355   2.779
17514W        W81271  12.623   0.916   4.185
17515W        W81272  33.476  37.401   5.188
17516W        W81273  37.046  41.442   1.361
17517W        W81274   3.436  19.162  12.359
17518W        W81275  18.588  26.611  14.376
17519W        W81276  30.138  35.424   4.774
17520W        W81277  34.570   5.198  14.780
17521W        W81278  35.076  32.968  11.543
17522W        W81279  30.024  25.018   2.198
17523W        W81280  11.862  28.493  12.373
17524W        W81281   5.751   0.367   2.888
17525W        W81282  30.463  41.386   0.405
17526W        W81283  44.449  19.117   4.353
17527W        W81284  14.714  10.709  13.839
17528W        W81285  36.554  33.039   3.320
17529W        W81286  13.157  25.610   0.314
17530W        W81287   3.319   8.160  12.551
17531W        W81288   1.274  34.883   0.305
17532W        W81289   1.443  29.517  11.045
17533W        W81290   6.839  22.013   3.306
17534W        W81291  35.362  33.381  13.343
17535W        W81292  12.297  34.500   2.789
17536W        W81293   7.777  24.190   0.369
17537W        W81294  36.432  13.633   0.908
17538W        W81295  21.610  38.566   4.800
17539W        W81296  22.568  17.697  13.805
17540W        W81297  18.637   9.882  14.844
17541W        W81298   6.765  20.156  11.060
17542W        W81299   3.758  27.045  13.464
17543W        W81300   1.398  35.080   4.162
17544W        W81301  10.360  36.010  13.393
17545W        W81302  14.207  37.360  11.539
17546W        W81303  17.099  40.511   4.166
17547W        W81304  25.507  33.413   5.174
17548W        W81305  24.533   0.393  12.452
17549W        W81306  35.861  23.505   1.316
17550W        W81307  23.547  29.996  14.764
17551W        W81308  39.944  10.728  14.912
17552W        W81309  33.005  21.543   0.861
17553W        W81310  14.231  21.725  10.944
17554W        W81311   8.313  33.909  12.890
17555W        W81312  31.897   6.779  14.277
17556W        W81313   7.257  22.602   4.259
17557W        W81314   4.260  38.568   4.622
17558W        W81315  35.965  18.758  14.355
17559W        W81316   6.890   6.408  14.886
17560W        W81317  23.643   5.375   4.740
17561W        W81318   7.854   8.260  10.917
17562W        W81319  24.044  19.040   4.130
17563W        W81320  44.329  25.668   3.163
17564W        W81321  28.643  39.866   1.887
17565W        W81322  26.635  39.452  13.973
17566W        W81323   1.811  31.103  10.492
17567W        W81324  33.978  22.043   2.358
17568W        W81325  30.529  34.414  14.445
17569W        W81326   3.291  29.048  12.011
17570W        W81327  33.422  42.374  11.566
17571W        W81328  37.867  30.511  13.896
17572W        W81329  14.160   4.766   2.250
17573W        W81330   6.342  19.602  10.156
17574W        W81331   6.322  17.142  14.852
17575W        W81332  10.141  44.947   3.842
17576W        W81333  32.954   1.881   1.365
17577W        W81334  20.107  42.351   1.260
17578W        W81335  44.936   5.830   3.257
17579W        W81336  10.213   1.451  13.416
17580W        W81337  11.734  26.566   4.735
17581W        W81338  26.611  36.910  10.427
17582W        W81339  33.390  13.816   3.744
17583W        W81340   8.877  42.889  11.375
17584W        W81341   6.366   0.293  14.875
17585W        W81342  40.929  44.949   2.764
17586W        W81343  34.985   8.162  10.448
17587W        W81344  18.104  16.580   0.304
17588W        W81345  19.672  19.580  12.017
17589W        W81346  38.542  42.382  13.310
17590W        W81347  27.041  39.022  12.081
17591W        W81348  30.634  38.404   3.633
17592W        W81349  33.537  36.926   9.966
17593W        W81350   1.898  25.146  14.912
17594W        W81351  35.001  43.270   3.356
17595W        W81352  19.777  30.543   4.721
17596W        W81353  27.542   3.877   0.748
17597W        W81354  44.347   4.922   3.244
17598W        W81355  17.254   7.368  10.549
17599W        W81356  28.938  28.528  12.047
17600W        W81357  42.882  31.065  11.934
17601W        W81358  13.168   7.176   5.290
17602W        W81359  31.577  44.479  11.997
17603W        W81360  12.232  17.646  11.594
17604W        W81361  43.360  17.108   4.133
17605W        W81362  33.453   3.429  13.526
17606W        W81363  23.113  35.563  10.479
17607W        W81364  38.517  15.701   3.859
17608W        W81365  39.547  28.445  13.930
17609W        W81366  29.035  15.265  12.047
17610W        W81367  21.242   6.321   1.214
17611W        W81368  18.072  10.335   2.244
17612W        W81369  33.471  43.988   0.363
17613W        W81370  23.094  28.023  14.485
17614W        W81371  16.145  20.561  13.323
17615W        W81372  13.210   8.253  11.006
17616W        W81373  22.590   4.830   1.311
17617W        W81374  23.107  28.470   3.871
17618W        W81375   5.788  40.986  13.520
17619W        W81376  43.499  35.982   3.217
17620W        W81377  35.933  26.005   4.347
17621W        W81378   3.872  34.432  10.628
17622W        W81379  25.663  30.526  11.429
17623W        W81380   0.800  21.146   3.863
17624W        W81381  33.485  31.921  10.426
17625W        W81382  39.925  25.093  12.550
17626W        W81383  38.521  16.168  12.901
17627W        W81384  21.069  35.483   0.865
17628W        W81385  30.989   7.322  10.152
17629W        W81386  31.481   1.808   1.819
17630W        W81387   5.308  10.170   2.722
17631W        W81388  15.260  42.809   2.858
17632W        W81389  43.366  40.504  11.888
17633W        W81390   3.441  21.513  11.010
17634W        W81391  43.334  40.370  10.896
17635W        W81392  21.115  18.617   2.839
17636W        W81393   6.326  10.760  14.836
17637W        W81394  32.000  29.467  11.886
17638W        W81395  42.013  15.643  10.435
17639W        W81396  34.038  29.519   1.294
17640W        W81397  43.335  38.975  10.525
17641W        W81398   4.435  42.455  11.484
17642W        W81399  25.152   5.430   4.643
17643W        W81400   4.446  37.421   1.307
17644W        W81401  31.618   4.882  14.512
17645W        W81402  29.136   1.939   0.344
17646W        W81403  34.030  16.673  14.801
17647W        W81404   5.286  26.006   1.294
17648W        W81405   7.760  14.148   5.277
17649W        W81406  22.206   5.305   3.796
17650W        W81407  43.358  16.615  13.472
17651W        W81408  25.599  44.417   3.385
17652W        W81409  34.368  10.746   1.341
17653W        W81410  19.246   7.805   1.736
17654W        W81411  21.052  30.050  14.440
17655W        W81412  19.206  20.052  13.322
17656W        W81413   6.347  21.226  12.871
17657W        W81414  41.994  17.739  14.856
17658W        W81415  42.923   1.773   1.329
17659W        W81416  25.111   9.286   0.457
17660W        W81417  16.235  26.661   1.867
17661W        W81418  23.028  26.136  13.347
17662W        W81419  20.759  10.760  10.899
17663W        W81420  13.718  41.899   9.475
17664W        W81421  16.259  25.505  13.840
17665W        W81422  21.521  10.185  13.015
17666W        W81423  31.412   7.359   1.930
17667W        W81424  10.139  28.056  11.053
17668W        W81425  24.163  17.261   5.106
17669W        W81426   2.330  25.659  13.351
17670W        W81427  13.174  18.105  11.036
17671W        W81428  20.757  18.196   0.461
17672W        W81429  41.979   2.909  13.446
17673W        W81430  20.554  19.664  13.809
17674W        W81431   0.764  35.436  14.397
17675W        W81432   9.342  29.452  12.970
17676W        W81433  29.589  30.457   9.960
17677W        W81434  35.984  41.467   4.250
17678W        W81435  24.213   6.784  11.426
17679W        W81436  32.487  15.256  13.326
17680W        W81437  22.216  21.156  14.285
17681W        W81438  34.509  23.209  12.879
17682W        W81439  16.217  28.612  14.947
17683W        W81440  10.768  37.878   3.214
17684W        W81441  28.096  10.689   3.733
17685W        W81442  43.499  40.911   0.909
17686W        W81443  25.473  10.255  13.413
17687W        W81444  21.531  17.276   2.744
17688W        W81445  26.702  28.091   0.472
17689W        W81446   6.690   8.172   2.288
17690W        W81447  11.705  35.927   1.390
17691W        W81448   6.349  19.048   0.374
17692W        W81449  14.163   1.246   1.433
17693W        W81450   5.429  35.582   0.925
17694W        W81451  38.367  43.346  12.974
17695W        W81452  28.067   7.781  13.473
17696W        W81453  37.526  22.117   3.776
17697W        W81454  12.787  15.314  12.858
17698W        W81455  17.702   1.355   2.708
17699W        W81456  37.072  13.123  14.509
17700W        W81457   5.206  43.485  14.774
17701W        W81458  25.997  44.348  14.344
17702W        W81459   9.835  17.669  10.151
17703W        W81460  15.739  39.456   2.210
17704W        W81461  32.461   8.330  11.946
17705W        W81462   6.255  26.059   4.684
17706W        W81463  12.254  10.729  14.474
17707W        W81464  39.952   1.881   1.259
17708W        W81465  31.412  16.797   3.680
17709W        W81466  44.293  23.128   3.237
17710W        W81467   9.277  18.636   1.887
17711W        W81468  27.151  34.455   3.696
17712W        W81469   2.870   5.835  11.564
17713W        W81470   9.693  37.023   2.768
17714W        W81471  34.557  35.000   4.347
17715W        W81472   1.443  38.848  11.996
17716W        W81473  15.260  28.616  14.941
17717W        W81474  44.990   9.821  10.911
17718W        W81475  25.100  15.251   3.245
17719W        W81476  10.203   6.376   0.276
17720W        W81477   1.310  30.965  11.378
17721W        W81478  20.609   8.402  10.528
17722W        W81479  34.016   3.929  14.475
17723W        W81480   8.805  23.541   2.694
17724W        W81481  44.292  28.114   4.257
17725W        W81482   7.759   7.888   4.280
17726W        W81483  44.397  38.048  13.400
17727W        W81484   4.398  26.985  11.475
17728W        W81485   3.804   0.944   1.269
17729W        W81486  25.970  35.958  10.488
17730W        W81487  34.578   5.889   0.850
17731W        W81488  34.951   7.743  10.455
17732W        W81489  33.478  14.807  14.831
17733W        W81490  36.538  27.192   1.784
17734W        W81491  27.510   8.233  12.356
17735W        W81492  28.147  20.682  14.391
17736W        W81493   3.775   5.238   2.264
17737W        W81494  17.121  33.607  14.389
17738W        W81495  22.526   9.241   1.264
17739W        W81496   8.362  34.576  14.508
17740W        W81497   7.263  41.870   3.782
17741W        W81498  12.676  23.103   3.213
17742W        W81499   8.184  29.120  11.462
17743W        W81500  12.673  30.616   4.711
17744W        W81501  23.139  38.480   4.635
17745W        W81502  24.164  34.398   0.465
17746W        W81503  39.372   5.924  14.950
17747W        W81504  30.611  35.038   1.296
17748W        W81505  12.151  42.989  12.548
17749W        W81506  43.282  18.216   4.695
17750W        W81507  31.960  18.601   2.342
17751W        W81508  15.810  33.970  11.001
17752W        W81509   4.940  14.681  13.850
17753W        W81510  40.899  11.328   4.626
17754W        W81511   9.381  30.035   1.842
17755W        W81512   6.855  19.215  13.816
17756W        W81513   6.911  23.066  11.590
17757W        W81514  20.116  42.395  12.844
17758W        W81515  27.191  35.019  12.950
17759W        W81516  30.140   6.682  13.949
17760W        W81517  25.632   4.814  14.494
17761W        W81518   8.783  42.030  11.957
17762W        W81519  31.634   3.900  14.404
17763W        W81520   7.285  43.966  13.444
17764W        W81521  35.915  15.218   2.214
17765W        W81522  30.955   0.804  10.045
17766W        W81523  15.312  30.131   4.141
17767W        W81524  32.033  20.034   3.727
17768W        W81525  10.695  39.480  11.483
17769W        W81526  10.144  19.728   4.598
17770W        W81527  38.367  24.669   0.285
17771W        W81528   5.755  37.389  11.449
17772W        W81529  14.098  34.424  14.822
17773W        W81530   4.833  39.528   2.815
17774W        W81531  33.030  25.676   5.127
17775W        W81532  34.015   5.716  12.079
17776W        W81533  25.004  19.734  12.080
17777W        W81534  28.171  43.351   1.905
17778W        W81535  43.440  10.670  12.423
17779W        W81536   9.754  16.260  11.068
17780W        W81537   5.760  16.098  14.376
17781W        W81538  36.510  12.619  14.019
17782W        W81539  24.492  21.660  10.524
17783W        W81540  40.547  43.407  10.625
17784W        W81541  19.556  43.791  14.890
17785W        W81542  43.822  40.466  14.933
17786W        W81543   0.382  29.533  13.396
17787W        W81544  22.557  28.642  14.369
17788W        W81545  44.873   3.261  12.561
17789W        W81546  33.071  20.133  14.981
17790W        W81547   0.355  38.333   1.903
17791W        W81548  38.485  31.103  13.044
17792W        W81549  21.680  19.655  14.338
17793W        W81550  15.679  34.386  13.436
17794W        W81551   7.895   2.338   0.867
17795W        W81552  28.610  19.093   2.886
17796W        W81553  34.590  31.042   0.483
17797W        W81554  25.989  35.915   4.245
17798W        W81555  35.881  23.199   4.179
17799W        W81556   7.329  32.900   1.713
17800W        W81557  14.777  25.604  11.054
17801W        W81558  44.494   6.346   1.445
17802W        W81559  23.168  35.546  14.400
17803W        W81560  17.582  14.094  13.991
17804W        W81561   9.292  44.753  12.061
17805W        W81562  14.783  40.823  10.551
17806W        W81563  24.187  30.513  11.956
17807W        W81564  39.369  34.036  12.062
17808W        W81565  37.576  34.081  13.511
17809W        W81566  29.571   1.741   2.332
17810W        W81567  34.532  15.317  14.013
17811W        W81568  36.391  14.763  11.395
17812W        W81569  10.331  26.459  11.596
17813W        W81570  26.101  28.979   1.714
17814W        W81571  39.992  20.179  11.512
17815W        W81572  15.655  30.138  14.307
17816W        W81573  19.698   9.205  13.437
17817W        W81574   5.242   7.805   2.192
17818W        W81575  31.439  10.648   2.309
17819W        W81576  28.974  36.576   0.291
17820W        W81577  40.820  22.737  11.052
17821W        W81578  41.337  20.261   0.390
17822W        W81579  14.169  30.951  10.575
17823W        W81580  20.260  38.330   2.822
17824W        W81581  29.526  41.435  13.500
17825W        W81582  20.246  29.047  13.972
17826W        W81583  42.935   6.724  12.460
17827W        W81584  29.043  37.521   3.851
17828W        W81585  27.525  28.104   0.774
17829W        W81586  24.080   2.233  11.391
17830W        W81587   6.736  30.025  11.480
17831W        W81588  17.692   7.677   0.728
17832W        W81589  38.414  28.080   1.304
17833W        W81590  28.489  15.100  11.586
17834W        W81591  32.437  44.267  11.604
17835W        W81592  25.501   1.311   0.927
17836W        W81593  11.833  37.991  14.440
17837W        W81594  29.170  19.209   2.690
17838W        W81595  15.193  34.018   3.178
17839W        W81596  37.035  29.126  13.919
17840W        W81597   2.466  23.665  12.043
17841W        W81598  18.625  36.976  10.496
17842W        W81599  22.234  16.310  10.498
17843W        W81600  29.961  15.114  13.451
17844W        W81601  17.654  36.968   1.257
17845W        W81602   0.941  40.813  11.127
17846W        W81603   5.856  10.192  12.407
17847W        W81604  34.507  20.570   0.254
17848W        W81605  15.285  42.401   4.129
17849W        W81606  40.886  23.148  11.920
17850W        W81607  40.041  15.630   3.650
17851W        W81608  12.224   0.948   2.196
17852W        W81609  31.145  14.823   0.460
17853W        W81610  41.856  14.226  12.047
17854W        W81611   8.823  32.133  13.954
17855W        W81612  23.639  11.796   1.736
17856W        W81613  35.890  28.543   2.297
17857W        W81614  24.667  34.419  11.925
17858W        W81615  13.812   0.303  12.011
17859W        W81616   3.317   0.475   3.238
17860W        W81617  36.960  22.622  13.392
17861W        W81618   2.300  35.942  11.498
17862W        W81619  18.676  40.329   2.206
17863W        W81620  28.183  31.466   4.696
17864W        W81621   0.332   2.258   0.418
17865W        W81622  25.518   0.886  14.288
17866W        W81623  21.208  42.838   3.774
17867W        W81624   8.823  12.684   1.895
17868W        W81625  16.180  42.848   4.301
17869W        W81626   7.698   5.366  12.562
17870W        W81627  23.543  36.352   1.430
17871W        W81628  42.019  25.682  10.432
17872W        W81629  26.188   2.759  11.044
17873W        W81630   8.685  31.444   0.760
17874W        W81631  29.998  36.850  12.907
17875W        W81632   6.245   1.956  14.842
17876W        W81633  18.070  25.101   3.293
17877W        W81634  39.545  26.198  14.504
17878W        W81635  40.469  20.735  11.032
17879W        W81636  29.091  20.655  12.897
17880W        W81637  30.017   6.797   2.676
17881W        W81638  17.793  18.684  13.045
17882W        W81639  22.202  10.302  10.495
17883W        W81640  22.160  21.116  13.431
17884W        W81641   4.218  22.705   0.252
17885W        W81642   2.438  28.577  13.481
17886W        W81643  41.377  23.141   3.351
17887W        W81644  13.657  18.562   2.865
17888W        W81645   7.372  32.964  13.414
17889W        W81646  12.747  15.315  13.392
17890W        W81647  39.950  19.709   3.366
17891W        W81648  30.577  41.441  12.861
17892W        W81649  43.945  23.130  13.867
17893W        W81650  41.956  37.853  10.971
17894W        W81651  40.329   5.334   1.358
17895W        W81652  14.107   7.682   0.850
17896W        W81653  21.121  41.010  12.840
17897W        W81654  11.813  29.466   0.913
17898W        W81655  19.177   4.811  10.967
17899W        W81656  19.108   7.267   0.834
17900W        W81657  14.231  22.586  11.597
17901W        W81658  31.564  12.745   2.212
17902W        W81659  31.036  36.042  11.385
17903W        W81660  19.619  25.122   3.731
17904W        W81661  31.570  33.586  10.530
17905W        W81662   8.405  11.348   4.308
17906W        W81663  12.778  37.011   2.214
17907W        W81664  18.709  33.072   9.974
17908W        W81665  42.811  14.296  13.933
17909W        W81666  24.046  19.764   1.241
17910W        W81667  30.467  32.456  14.500
17911W        W81668  37.866  24.193  11.569
17912W        W81669  35.976  44.382   4.773
17913W        W81670  42.527  25.137  11.974
17914W        W81671   4.873  33.624  14.992
17915W        W81672  14.173  12.165  10.889
17916W        W81673  39.958  41.900  10.572
17917W        W81674  26.526  14.626   1.379
17918W        W81675  14.156   1.943   3.233
17919W        W81676  38.376  25.194   0.313
17920W        W81677  38.363  14.638   2.832
17921W        W81678  20.577  27.588  11.994
17922W        W81679  42.393  12.243  11.492
17923W        W81680  25.493   6.349   2.228
17924W        W81681   9.248  13.231  10.888
17925W        W81682  21.122  42.916   2.359
17926W        W81683  36.495  18.204  10.515
17927W        W81684   6.910  29.003   2.881
17928W        W81685  42.852  31.059   1.888
17929W        W81686  30.076  36.050  10.606
17930W        W81687  17.258  18.646   0.794
17931W        W81688  14.754  23.534  13.466
17932W        W81689  34.918  37.030   4.307
17933W        W81690  15.164  43.893  11.945
17934W        W81691  25.145  11.733  10.994
17935W        W81692  42.962  29.157  13.799
17936W        W81693  23.562  19.585  14.445
17937W        W81694   0.317  37.085  13.930
17938W        W81695  27.965  12.849   5.179
17939W        W81696   7.820   3.929   3.179
17940W        W81697  11.764   8.338  10.110
17941W        W81698  19.630  27.992   3.841
17942W        W81699  15.599  12.116   2.269
17943W        W81700  28.617  20.611   0.355
17944W        W81701  29.565  13.281  12.974
17945W        W81702  37.454  29.424   4.692
17946W        W81703   3.376   8.365   3.675
17947W        W81704  31.020   3.792   0.363
17948W        W81705  17.226  21.631  11.531
17949W        W81706  15.784  30.502   1.370
17950W        W81707  26.575  19.590  11.607
17951W        W81708  43.432   0.895   1.759
17952W        W81709  10.139  33.517   1.324
17953W        W81710  31.597   0.866   3.308
17954W        W81711   8.344  24.998  13.383
17955W        W81712   0.949  42.281   3.761
17956W        W81713  27.987   2.923   0.327
17957W        W81714  24.217  27.065   0.259
17958W        W81715  26.507  19.701   4.349
17959W        W81716  21.219   4.863  11.605
17960W        W81717  22.212  12.620  11.952
17961W        W81718   1.945   6.213  13.421
17962W        W81719   8.262  12.317   4.642
17963W        W81720  34.919  32.568  12.402
17964W        W81721  11.716   2.845  12.053
17965W        W81722  29.163  31.048   4.179
17966W        W81723  13.769  32.626   1.379
17967W        W81724  19.684  17.754   3.703
17968W        W81725  21.173  19.700  11.969
17969W        W81726  23.015  11.232   4.753
17970W        W81727  43.935  17.764   1.414
17971W        W81728  33.911  34.418  12.358
17972W        W81729   9.724  27.112  14.467
17973W        W81730  31.633   6.754  13.024
17974W        W81731  21.037  13.707   0.930
17975W        W81732  17.604   4.355   1.391
17976W        W81733   4.809  35.509   3.306
17977W        W81734  13.616  41.526   4.645
17978W        W81735  36.528  14.821  14.840
17979W        W81736  41.382  42.820   4.233
17980W        W81737   9.882  44.893  11.998
17981W        W81738  21.078  35.090  14.371
17982W        W81739   2.847  25.078  11.602
17983W        W81740  44.988  33.420   1.233
17984W        W81741   1.481   3.220   4.205
17985W        W81742   1.954   6.725   4.833
17986W        W81743  14.654  14.121   0.362
17987W        W81744  16.311   8.863   3.242
17988W        W81745  40.833  19.105  12.454
17989W        W81746   7.752  39.820   2.698
17990W        W81747  10.642  27.136   0.948
17991W        W81748  10.261   2.729  11.379
17992W        W81749  17.582  33.059   4.134
17993W        W81750  17.799  22.736  11.082
17994W        W81751  23.084  35.536   1.831
17995W        W81752  10.693  10.855   3.821
17996W        W81753  10.324  44.918  14.907
17997W        W81754  30.546  43.982   4.699
17998W        W81755  19.146  26.097   0.816
17999W        W81756  10.708   0.464  12.502
18000W        W81757  12.179  33.056   0.855
18001W        W81758  36.937  10.281  12.084
18002W        W81759  28.977  28.137  13.523
18003W        W81760   4.777  35.867   1.343
18004W        W81761  12.354  43.829  12.010
18005W        W81762  26.141  42.951  12.522
18006W        W81763  42.861  43.788  13.042
18007W        W81764  35.100   5.872   3.296
18008W        W81765  19.616  15.649   4.125
18009W        W81766   5.717  37.421   2.819
18010W        W81767  39.496  29.924   4.337
18011W        W81768  20.241  22.101   2.390
18012W        W81769   0.823   1.290  13.365
18013W        W81770  39.849   6.382  11.583
18014W        W81771  35.422  41.794   4.314
18015W        W81772  43.400  14.618   4.826
18016W        W81773  17.562  41.328   4.798
18017W        W81774  27.467   9.390   2.228
18018W        W81775   5.714  34.464  10.612
18019W        W81776  17.642  30.564  12.909
18020W        W81777  10.208  25.083   3.821
18021W        W81778  43.005   7.317  10.622
18022W        W81779  15.130  16.096   0.451
18023W        W81780  39.434  30.496  13.982
18024W        W81781  31.013  43.287  12.483
18025W        W81782   6.802  39.927  10.023
18026W        W81783   3.452  28.949   2.739
18027W        W81784   1.448  37.915   2.178
18028W        W81785  28.509  17.251   5.709
18029W        W81786  25.212  34.453  11.857
18030W        W81787  26.609  25.015  10.924
18031W        W81788  38.506  29.642   0.453
18032W        W81789  30.567  11.716   3.313
18033W        W81790   5.396   6.404  13.371
18034W        W81791   9.876   8.771  12.483
18035W        W81792  16.765  31.940  13.048
18036W        W81793  23.570   0.438  14.336
18037W        W81794  12.621  15.272  14.970
18038W        W81795   2.781  30.572  11.398
18039W        W81796  32.447   4.448  12.407
18040W        W81797  15.664   9.355  12.470
18041W        W81798  23.635  13.114   0.732
18042W        W81799  17.762  35.467  11.112
18043W        W81800  33.394   8.841   2.356
18044W        W81801  29.612  20.041  11.431
18045W        W81802  38.896   8.755   3.700
18046W        W81803  38.385  33.543   1.381
18047W        W81804  20.107  21.072  11.376
18048W        W81805  35.968  36.054   4.116
18049W        W81806   6.286  38.962  10.938
18050W        W81807  37.979  21.236  13.992
18051W        W81808  12.736   0.744   3.201
18052W        W81809  19.604  27.685  12.470
18053W        W81810   0.819  44.836  11.001
18054W        W81811   3.830  21.654   3.747
18055W        W81812  17.206  31.409  12.046
18056W        W81813  14.118  16.146   2.709
18057W        W81814   6.377   9.796   1.406
18058W        W81815   2.410  28.022   3.678
18059W        W81816  18.251   7.687   4.826
18060W        W81817  22.088   3.847  10.639
18061W        W81818  29.428   8.828  11.090
18062W        W81819   0.762   7.310   0.370
18063W        W81820   9.292  38.836   0.741
18064W        W81821   2.813  25.529   1.932
18065W        W81822  38.069  15.590   0.426
18066W        W81823  23.100  33.995   0.357
18067W        W81824   0.760  44.758   3.318
18068W        W81825  25.641  20.144  12.036
18069W        W81826   6.239   1.772  11.856
18070W        W81827  26.571  24.551   2.822
18071W        W81828  26.017  42.971  14.769
18072W        W81829  11.282  30.946   0.388
18073W        W81830  18.603  19.086  12.922
18074W        W81831  16.106   7.758  14.359
18075W        W81832  12.851   2.926   2.770
18076W        W81833  41.484  18.693  10.931
18077W        W81834   8.815  42.428  13.455
18078W        W81835   5.716  35.956   0.874
18079W        W81836   9.868  35.460  12.387
18080W        W81837  27.137  31.954   0.282
18081W        W81838  28.091  39.047   1.382
18082W        W81839  12.794  36.075  14.947
18083W        W81840   3.362  14.631   2.339
18084W        W81841  23.621  20.544   3.161
18085W        W81842  30.020   5.311   5.229
18086W        W81843   2.457  40.489  13.361
18087W        W81844  30.081  13.229  11.006
18088W        W81845  15.656  42.371  10.423
18089W        W81846   5.413  29.531   0.444
18090W        W81847  12.849  15.276   0.306
18091W        W81848  33.001  40.465   1.912
18092W        W81849   2.736  11.825  10.957
18093W        W81850   3.951   5.296  12.369
18094W        W81851  17.240   1.932  13.888
18095W        W81852   2.317   4.794  13.963
18096W        W81853   0.941  11.183   1.339
18097W        W81854   6.260  18.669  11.900
18098W        W81855  15.296  15.189  13.877
18099W        W81856  17.633   8.217  12.826
18100W        W81857  28.121  13.616  12.392
18101W        W81858  11.159   9.691  12.528
18102W        W81859  41.875  16.123  14.013
18103W        W81860  17.246  18.052   2.327
18104W        W81861   9.693  35.901   1.216
18105W        W81862  25.174  14.701  13.902
18106W        W81863  22.559  30.113  13.405
18107W        W81864  39.938  37.409  14.854
18108W        W81865  28.512  30.042  12.530
18109W        W81866   1.814  14.736  14.442
18110W        W81867  25.005  37.936   4.751
18111W        W81868   6.350  10.363  12.045
18112W        W81869  43.272  42.797   9.992
18113W        W81870  26.194  24.675  13.940
18114W        W81871  15.096  17.298  11.988
18115W        W81872  29.434  16.142   0.350
18116W        W81873  14.628   2.388   5.100
18117W        W81874  12.303  30.514  14.475
18118W        W81875  10.683   5.771  12.427
18119W        W81876   0.282  20.536   2.871
18120W        W81877   0.891  44.319  11.934
18121W        W81878  44.999  10.332  14.764
18122W        W81879  12.794  11.181  14.966
18123W        W81880  19.111  34.382   0.926
18124W        W81881  29.994   8.772  11.428
18125W        W81882  31.899  26.518  13.312
18126W        W81883  15.181  23.679   4.303
18127W        W81884  31.980  35.368   2.239
18128W        W81885  42.888  12.314  14.838
18129W        W81886  32.390  24.567   1.307
18130W        W81887   4.285  39.454   3.285
18131W        W81888  31.940  36.510  11.037
18132W        W81889   2.781   1.302  10.927
18133W        W81890   0.294  24.645  11.018
18134W        W81891   3.884   9.355   0.271
18135W        W81892  19.087  30.019  14.428
18136W        W81893  25.634  32.498   3.169
18137W        W81894  30.108  23.630   3.654
18138W        W81895  13.225  12.166   1.439
18139W        W81896  14.248   7.373   0.327
18140W        W81897  39.476  21.075   0.452
18141W        W81898  19.580  25.663  14.451
18142W        W81899   6.879  34.408   2.308
18143W        W81900  44.316  17.108  12.564
18144W        W81901   9.729  35.530  12.916
18145W        W81902   1.375  40.362  11.376
18146W        W81903  18.662  18.112  11.426
18147W        W81904  24.696  35.098  12.406
18148W        W81905   8.679  30.989  11.977
18149W        W81906   4.723  16.256  12.047
18150W        W81907   4.346  41.933  11.581
18151W        W81908  29.583  32.572  13.399
18152W        W81909  43.494  44.397  13.012
18153W        W81910  34.491   9.849   0.779
18154W        W81911  12.194  10.836   0.955
18155W        W81912  27.586  12.222   2.728
18156W        W81913  27.078   7.303   4.240
18157W        W81914  39.040  44.925   4.763
18158W        W81915  23.205  15.737   0.343
18159W        W81916  36.980  26.623  10.919
18160W        W81917  18.716  33.906  13.021
18161W        W81918  21.685  18.599   1.712
18162W        W81919  12.626  26.018  13.052
18163W        W81920  40.505  12.143  12.958
18164W        W81921  19.163   3.307   5.145
18165W        W81922  37.873  15.305   1.933
18166W        W81923  26.651  31.017  11.581
18167W        W81924  11.275  39.553  10.937
18168W        W81925  26.594   3.253  14.300
18169W        W81926  35.975   3.238   1.284
18170W        W81927  33.973  41.918   4.607
18171W        W81928   0.898  33.048   1.254
18172W        W81929  43.879  40.840   1.756
18173W        W81930   2.873  31.573   3.726
18174W        W81931  38.343   4.222  14.001
18175W        W81932  35.004   9.807   0.828
18176W        W81933  19.634  37.347  12.094
18177W        W81934   8.331  13.800   4.638
18178W        W81935   3.909   5.839   2.415
18179W        W81936  32.451  30.129   4.655
18180W        W81937  38.455  44.387  13.523
18181W        W81938  28.176  11.759  11.611
18182W        W81939   4.736  19.632  10.520
18183W        W81940  16.650  34.507   4.156
18184W        W81941  36.995  17.094  14.387
18185W        W81942  33.966  31.445   3.330
18186W        W81943  12.234   4.923  13.339
18187W        W81944  23.179  38.976  13.496
18188W        W81945   9.750   7.899  10.942
18189W        W81946  15.231  12.769   2.396
18190W        W81947  12.214  14.234   2.315
18191W        W81948   1.975  14.670  12.434
18192W        W81949  12.148  13.111   0.408
18193W        W81950  13.318  14.099   5.089
18194W        W81951  38.984   7.840   1.278
18195W        W81952  22.085  18.141  10.888
18196W        W81953  25.089  16.779   2.222
18197W        W81954   8.322  11.278   0.824
18198W        W81955  19.650  14.618   3.341
18199W        W81956  33.085  40.471  10.493
18200W        W81957  12.181  26.167   1.903
18201W        W81958  34.041   9.363   2.290
18202W        W81959   5.436   3.764   0.293
18203W        W81960  26.971   2.788   1.700
18204W        W81961   9.738  16.240  13.318
18205W        W81962  30.474  11.811   1.739
18206W        W81963   5.763   0.446  13.903
18207W        W81964  43.952   1.435  14.396
18208W        W81965   7.257   3.447   1.699
18209W        W81966   6.789   1.436   4.728
18210W        W81967  25.580  20.234  13.926
18211W        W81968  30.040  23.024  11.102
18212W        W81969   8.899  43.409  13.426
18213W        W81970  27.634  20.169   4.184
18214W        W81971   7.765  30.492   4.817
18215W        W81972  10.791   3.299   2.294
18216W        W81973   4.844  34.546   2.791
18217W        W81974  14.338  41.959  14.862
18218W        W81975  36.036  30.422   2.310
18219W        W81976  17.096  34.449   0.302
18220W        W81977  19.163  14.680  13.990
18221W        W81978  27.655  42.496  14.020
18222W        W81979  37.003  28.672   1.898
18223W        W81980  35.921  18.072   1.759
18224W        W81981  15.256  30.509   1.228
18225W        W81982  27.164  11.703   4.681
18226W        W81983  24.515  34.010   1.880
18227W        W81984   1.434  16.656  10.580
18228W        W81985  24.144  19.641   2.702
18229W        W81986  41.956  19.145   4.257
18230W        W81987   5.786  17.775  14.920
18231W        W81988  43.505  23.206   1.895
18232W        W81989  38.469  17.707  14.949
18233W        W81990   7.810  28.502   4.791
18234W        W81991  21.610  38.915  13.993
18235W        W81992  24.602  30.471  10.905
18236W        W81993  23.999  33.563   0.453
18237W        W81994   5.292  39.559   4.610
18238W        W81995  31.032  24.646  10.909
18239W        W81996  26.505  30.057   3.169
18240W        W81997  42.431  42.912   0.924
18241W        W81998  33.947  17.599   0.853
18242W        W81999  19.089  36.980   4.623
18243W        W82000  19.682  38.053  14.424
18244W        W82001  14.803   8.231   4.114
18245W        W82002  13.806   5.913   0.886
18246W        W82003  27.463  15.660   3.822
18247W        W82004  16.253  43.923   3.323
18248W        W82005   8.227  20.566  10.601
18249W        W82006  21.668  12.260  14.824
18250W        W82007  21.077   9.677  14.845
18251W        W82008  22.128  32.084  10.891
18252W        W82009  23.639   4.749  13.803
18253W        W82010  35.519  42.918  11.978
18254W        W82011  20.600  39.536  10.516
18255W        W82012   1.329   4.448   1.837
18256W        W82013  13.205  40.870  14.317
18257W        W82014   8.374  33.626   0.733
18258W        W82015   2.426  34.884   4.713
18259W        W82016  23.218  19.225  11.004
18260W        W82017   9.709  43.488   1.386
18261W        W82018   4.941   5.792  13.905
18262W        W82019  23.671  42.332   3.843
18263W        W82020  37.356  24.095   0.850
18264W        W82021   3.711  20.761   3.384
18265W        W82022  12.282  32.906   1.735
18266W        W82023  20.639  41.355   2.399
18267W        W82024  16.702  44.763  12.033
18268W        W82025  41.996   5.362  10.579
18269W        W82026   6.921  41.344   1.356
18270W        W82027  20.612  17.591  10.418
18271W        W82028  24.190  15.622   4.685
18272W        W82029  12.258  20.069   0.343
18273W        W82030  43.844  30.982  12.461
18274W        W82031  28.137  30.521  13.809
18275W        W82032  18.074  14.606   2.733
18276W        W82033  43.319   5.793  13.957
18277W        W82034  22.207  23.626   4.119
18278W        W82035   4.315  31.595   2.307
18279W        W82036   0.287  28.124   4.781
18280W        W82037  34.487  38.050  12.925
18281W        W82038  43.509  26.661  14.769
18282W        W82039  28.979  29.605   4.316
18283W        W82040  10.202  23.703   0.940
18284W        W82041  23.699  44.327  13.972
18285W        W82042  15.623  41.969   4.237
18286W        W82043   5.419  19.604   1.836
18287W        W82044  11.631   5.918  12.848
18288W        W82045  37.514  38.487   1.424
18289W        W82046  32.396  30.958   4.247
18290W        W82047  32.544  38.009   0.800
18291W        W82048  16.603  26.506  11.943
18292W        W82049  15.179  18.747  13.498
18293W        W82050  25.508  26.524   0.959
18294W        W82051  38.325  28.083  10.505
18295W        W82052  41.002  33.963   2.184
18296W        W82053  44.314  32.621  14.945
18297W        W82054  42.945  10.635   4.180
18298W        W82055  39.045  21.030   1.431
18299W        W82056  33.076  20.747   2.836
18300W        W82057  35.926  16.578   2.825
18301W        W82058  29.102  10.184   0.306
18302W        W82059  24.084  29.484   2.310
18303W        W82060   8.740   2.345   1.926
18304W        W82061   6.200   4.240   1.712
18305W        W82062  17.196  14.175   2.275
18306W        W82063  30.040  15.776   2.872
18307W        W82064  36.883  43.296   1.796
18308W        W82065   1.402  20.068  13.956
18309W        W82066  11.683   7.760  12.095
18310W        W82067  33.478   8.371  12.030
18311W        W82068  23.087  42.333   1.705
18312W        W82069  30.947  39.471  12.397
18313W        W82070   2.825   6.396  11.419
18314W        W82071   7.785  39.920   2.309
18315W        W82072  21.681  11.245   0.406
18316W        W82073  12.263   4.362   1.706
18317W        W82074   1.781   5.838   3.216
18318W        W82075  10.876  24.198   2.179
18319W        W82076  20.186   9.872   4.608
18320W        W82077  39.905   2.793  13.343
18321W        W82078  32.975   7.383  14.406
18322W        W82079  43.770  28.160  11.414
18323W        W82080  33.091  18.685   0.399
18324W        W82081  32.132  36.393   4.319
18325W        W82082  20.222  17.786  14.008
18326W        W82083  38.004  10.265  14.357
18327W        W82084  39.944  24.719  13.976
18328W        W82085  36.875  38.385  11.947
18329W        W82086   5.768  37.966   3.310
18330W        W82087  38.055   0.250  12.076
18331W        W82088  37.023  36.511  12.569
18332W        W82089   9.806  28.164   2.240
18333W        W82090  37.375   5.901   0.462
18334W        W82091   3.457  10.266  11.467
18335W        W82092  11.782   6.201   0.309
18336W        W82093  38.421  22.056  10.943
18337W        W82094  34.949  19.774   5.205
18338W        W82095   2.426   7.725  12.001
18339W        W82096  10.706  21.712   2.723
18340W        W82097  43.341   9.888  11.426
18341W        W82098   8.670  16.686  14.491
18342W        W82099  18.157  30.095  14.907
18343W        W82100   2.390  13.206   4.289
18344W        W82101  11.781  10.302   3.201
18345W        W82102   3.303   9.284  11.855
18346W        W82103  39.891  11.697  12.913
18347W        W82104  19.758  22.660   1.410
18348W        W82105  30.596  25.646  14.789
18349W        W82106  38.497  37.034   2.185
18350W        W82107  42.025   3.949   4.289
18351W        W82108  24.009   5.881  14.443
18352W        W82109   2.228  26.140  13.795
18353W        W82110  27.614  11.700  11.374
18354W        W82111   0.910  33.464   1.878
18355W        W82112   1.851  37.077  13.472
18356W        W82113  43.960   7.224  11.425
18357W        W82114  17.280  26.631   4.793
18358W        W82115  33.543  31.987  14.002
18359W        W82116   1.839  19.266   0.762
18360W        W82117  28.555  32.904   1.330
18361W        W82118  17.286  28.137   4.283
18362W        W82119  42.391  23.152  14.386
18363W        W82120  12.626  43.378   1.910
18364W        W82121  21.262  14.223  12.464
18365W        W82122  33.891  11.750   1.903
18366W        W82123  17.755  27.476  12.026
18367W        W82124  21.699  27.616   2.240
18368W        W82125  28.105  21.593   2.238
18369W        W82126  26.119   8.825   0.306
18370W        W82127  43.906  11.202  13.824
18371W        W82128  21.025  43.292   0.468
18372W        W82129  37.556  16.735   0.955
18373W        W82130  44.939   7.810  12.043
18374W        W82131   4.745   5.904  11.549
18375W        W82132  19.094   8.672   1.823
18376W        W82133  16.589  38.353  12.013
18377W        W82134   4.445   1.969  10.476
18378W        W82135  36.909  11.342   3.220
18379W        W82136  40.945   1.775   4.269
18380W        W82137  32.995  18.258  12.439
18381W        W82138  38.437  37.455   2.197
18382W        W82139  18.558  35.974   0.276
18383W        W82140  15.272  14.625  12.001
18384W        W82141   9.734  11.159   4.184
18385W        W82142  19.161  35.956   1.305
18386W        W82143  24.056  15.241  11.441
18387W        W82144   6.704   1.355  12.562
18388W        W82145  11.365   6.390   1.309
18389W        W82146  14.242  30.085  11.376
18390W        W82147  36.429  23.650   3.318
18391W        W82148  34.371  13.336   3.225
18392W        W82149  43.982   9.301  12.543
18393W        W82150  26.168   2.903  12.830
18394W        W82151  13.731  39.864  10.913
18395W        W82152  41.467  16.084  12.348
18396W        W82153  42.462   0.271  14.999
18397W        W82154   7.373  18.187   2.805
18398W        W82155  20.139   6.182   2.183
18399W        W82156  27.969  24.999  11.034
18400W        W82157  27.535   7.408  10.919
18401W        W82158  12.668  17.734  11.054
18402W        W82159  29.451  13.121   1.428
18403W        W82160  12.646  27.595   2.829
18404W        W82161  22.077  14.651   0.863
18405W        W82162   5.768  35.048  11.885
18406W        W82163   8.194  28.015   1.371
18407W        W82164   8.308  26.634  10.908
18408W        W82165  40.499   3.805   1.713
18409W        W82166  10.302  31.122   4.638
18410W        W82167  32.623  42.305   3.258
18411W        W82168  24.028  10.675  12.425
18412W        W82169  35.417  12.351   0.863
18413W        W82170  13.213  19.676   3.747
18414W        W82171  37.551  33.098   4.309
18415W        W82172   0.959   0.441   0.389
18416W        W82173  25.964  20.086   3.372
18417W        W82174   7.340  33.553   3.309
18418W        W82175  43.431  36.439  14.875
18419W        W82176  27.002  41.871  13.991
18420W        W82177  33.130  26.535  14.473
18421W        W82178  11.805  35.854  14.492
18422W        W82179  38.383   0.802  14.390
18423W        W82180  32.955  16.102   0.483
18424W        W82181  11.844  35.908  11.550
18425W        W82182  10.692   0.465   0.797
18426W        W82183  38.398   5.699   1.929
18427W        W82184  34.498  25.165   0.324
18428W        W82185  35.011  28.961   0.399
18429W        W82186  22.607  28.966  13.372
18430W        W82187  29.103  26.518   3.695
18431W        W82188  40.338  24.166  11.604
18432W        W82189  17.740  35.067  14.984
18433W        W82190   0.856  15.629   3.300
18434W        W82191   9.712  27.172  10.531
18435W        W82192  27.971  36.397  11.092
18436W        W82193  22.138  26.161  14.495
18437W        W82194  25.630  33.612  13.344
18438W        W82195  38.940  28.553   0.481
18439W        W82196  18.199  42.867   1.241
18440W        W82197  21.659  18.548  13.972
18441W        W82198  42.003  19.560  11.095
18442W        W82199  21.608  22.209  13.949
18443W        W82200  36.481  26.013  12.048
18444W        W82201  27.517  34.428  12.002
18445W        W82202  16.776  43.998  11.416
18446W        W82203  44.976   1.268  12.874
18447W        W82204  20.215   0.427  12.574
18448W        W82205  23.131  21.155  10.630
18449W        W82206  25.035   8.839   0.843
18450W        W82207  20.108   0.317   0.935
18451W        W82208  38.961  36.068  14.891
18452W        W82209  27.049   8.731   0.900
18453W        W82210  13.195  23.611   3.862
18454W        W82211  43.793   5.799   0.822
18455W        W82212   8.856  31.901   4.278
18456W        W82213   9.701  33.536   1.370
18457W        W82214  19.145   3.891   4.814
18458W        W82215   0.311  20.760   1.849
18459W        W82216  14.726  30.988  10.419
18460W        W82217  27.087  25.613   4.707
18461W        W82218   6.798   3.734  12.089
18462W        W82219  17.701  29.949   1.777
18463W        W82220   7.818  44.955  10.514
18464W        W82221  30.477  31.429  13.342
18465W        W82222  40.541  12.131  13.932
18466W        W82223  29.585  40.365   5.129
18467W        W82224   8.210  16.677  14.902
18468W        W82225  42.504  35.433   4.229
18469W        W82226   3.813  39.849  13.542
18470W        W82227  43.329   8.730   4.133
18471W        W82228   9.666  34.080   1.327
18472W        W82229  32.560  24.621   2.796
18473W        W82230  33.053  10.209  11.960
18474W        W82231  35.894  40.345   4.186
18475W        W82232  24.184  33.539   5.256
18476W        W82233   4.846  36.435  14.934
18477W        W82234  21.133   4.817  10.005
18478W        W82235   1.791  23.072   1.393
18479W        W82236  12.246  39.012  14.829
18480W        W82237  38.554   6.699  13.527
18481W        W82238  36.011   7.391   3.853
18482W        W82239  12.764  30.535   2.832
18483W        W82240   9.650   8.403  12.901
18484W        W82241  10.325  17.232  14.830
18485W        W82242  37.866   6.777   3.266
18486W        W82243   8.200  20.073   0.853
18487W        W82244   2.920  24.212   0.730
18488W        W82245  39.473  25.669   0.245
18489W        W82246   4.728  40.422  14.318
18490W        W82247   9.199  28.448  12.039
18491W        W82248  39.544   8.379  13.478
18492W        W82249  29.992   2.883  11.378
18493W        W82250  15.635  26.528  14.361
18494W        W82251  33.098  18.647  13.988
18495W        W82252  29.990  32.990   4.247
18496W        W82253  12.161  12.155   1.355
18497W        W82254   1.442  33.005  10.538
18498W        W82255  39.910  35.435  14.899
18499W        W82256  20.709  22.705  14.438
18500W        W82257  39.504  29.544  14.861
18501W        W82258  31.465  17.283  12.064
18502W        W82259  10.638  36.932  12.574
18503W        W82260  13.349  34.053  14.784
18504W        W82261  13.277  13.158  11.475
18505W        W82262  20.125  18.118  11.880
18506W        W82263   0.858  29.114  12.000
18507W        W82264   4.352  14.629   0.771
18508W        W82265  34.435  20.582  13.357
18509W        W82266   6.721   7.796  12.392
18510W        W82267  17.100   4.806  13.027
18511W        W82268  25.635  35.002   4.718
18512W        W82269  12.335   2.441  12.553
18513W        W82270   3.238  19.569  10.984
18514W        W82271  22.129  22.712  10.525
18515W        W82272  25.041  42.965   2.404
18516W        W82273  42.321  20.749   2.682
18517W        W82274  37.398  23.533   1.832
18518W        W82275   4.243  23.638  11.011
18519W        W82276  12.273  35.920  12.855
18520W        W82277  13.277  19.189   2.735
18521W        W82278  36.999  28.679   3.331
18522W        W82279  10.742  31.612  11.128
18523W        W82280  39.397   6.843  14.831
18524W        W82281  36.482  24.002  12.351
18525W        W82282   9.806  38.418   1.737
18526W        W82283  13.112  40.046   1.913
18527W        W82284  26.660  13.823   1.770
18528W        W82285  12.167   8.703   2.786
18529W        W82286  20.690  28.147   2.321
18530W        W82287  38.057  30.952   0.428
18531W        W82288  15.239  17.585  11.989
18532W        W82289  13.624   5.422  13.405
18533W        W82290  44.769  16.805  12.918
18534W        W82291   6.223  33.624   0.921
18535W        W82292  35.957  42.330   1.910
18536W        W82293  36.900  16.117  10.428
18537W        W82294  16.152  35.414  13.542
18538W        W82295  11.820  10.799  11.082
18539W        W82296   0.970  17.674   2.311
18540W        W82297  41.885   0.456   0.760
18541W        W82298  12.138   6.401   2.689
18542W        W82299  44.996  39.559  14.791
18543W        W82300  28.044  39.336   2.310
18544W        W82301  26.649  40.524   4.825
18545W        W82302  24.037   8.682  14.817
18546W        W82303  30.457  20.723   2.720
18547W        W82304  31.928  41.975  11.388
18548W        W82305  40.524  37.500   0.413
18549W        W82306   2.902   2.247   0.917
18550W        W82307  31.589  13.344   1.903
18551W        W82308   4.857  34.547  12.089
18552W        W82309  11.756  28.570  13.510
18553W        W82310  13.164  40.532  14.763
18554W        W82311  37.974  13.741  10.578
18555W        W82312  43.341  31.579  13.369
18556W        W82313  19.058  20.667  12.452
18557W        W82314  41.383  28.550   1.877
18558W        W82315   0.324  31.457  13.420
18559W        W82316  31.442  40.348   0.282
18560W        W82317  28.542  29.141   2.327
18561W        W82318  31.446  24.526  14.462
18562W        W82319   6.256  22.630   0.374
18563W        W82320  41.974  43.012  14.429
18564W        W82321  40.320   9.267   1.933
18565W        W82322  34.509  35.910   1.701
18566W        W82323   0.970  32.027  11.100
18567W        W82324   4.319   7.887   2.301
18568W        W82325  29.620  16.809   3.220
18569W        W82326  29.430  22.652  10.455
18570W        W82327  38.003  40.415   4.251
18571W        W82328   2.916  35.063  13.339
18572W        W82329  44.368  15.685   3.279
18573W        W82330  10.878   1.430   4.671
18574W        W82331   1.359   2.350  11.091
18575W        W82332  16.630  36.004   3.837
18576W        W82333  14.821  42.430  10.954
18577W        W82334   6.367  25.607  14.338
18578W        W82335  23.679  44.435   4.295
18579W        W82336  29.532  28.159  11.612
18580W        W82337  13.287  10.775   2.238
18581W        W82338  19.166   0.485   0.448
18582W        W82339  29.032  20.605   0.843
18583W        W82340   1.927  40.994  10.993
18584W        W82341  42.346  18.092  12.979
18585W        W82342  29.976  37.411   2.372
18586W        W82343  28.050  26.132  14.346
18587W        W82344   4.940   7.244   2.792
18588W        W82345  21.518  28.495   4.600
18589W        W82346   4.771   1.939  13.059
18590W        W82347  43.008  24.985   3.862
18591W        W82348  15.713  25.203   4.614
18592W        W82349  38.940  21.033  13.378
18593W        W82350  18.293  22.171   3.716
18594W        W82351   1.378  19.743   1.871
18595W        W82352  15.290  22.744   1.231
18596W        W82353  33.127  14.595   2.193
18597W        W82354  43.352  12.611   0.932
18598W        W82355  21.675  17.636   4.649
18599W        W82356  32.048  41.378  10.420
18600W        W82357  20.745  42.983  13.545
18601W        W82358  42.927  28.459  14.992
18602W        W82359  25.714  26.198  14.965
18603W        W82360  26.546  29.617   0.764
18604W        W82361  23.050  24.993  10.412
18605W        W82362  32.991  30.152   3.693
18606W        W82363  27.592  14.193   3.325
18607W        W82364   7.871  41.448   1.705
18608W        W82365  21.587  44.455   0.740
18609W        W82366  43.300   8.808  12.345
18610W        W82367  28.012  17.692  12.881
18611W        W82368  36.563  11.336   1.290
18612W        W82369   7.175  38.951  12.076
18613W        W82370  43.366  37.556  11.861
18614W        W82371  35.100  16.269  13.830
18615W        W82372  38.992  10.299   3.837
18616W        W82373  21.193  25.077   1.907
18617W        W82374  29.452  18.135   2.765
18618W        W82375   5.747  13.690  10.987
18619W        W82376  13.623  30.043   1.863
18620W        W82377  38.453  13.224   4.147
18621W        W82378  26.498  39.883  14.891
18622W        W82379   3.251  28.087   2.364
18623W        W82380  14.633   4.336  14.322
18624W        W82381  16.228  44.756  13.310
18625W        W82382  44.277  35.501  13.014
18626W        W82383  20.130   8.743  13.316
18627W        W82384  13.317  24.702   1.385
18628W        W82385  40.954  21.144   3.725
18629W        W82386   9.293  25.517  10.553
18630W        W82387  15.158  43.494  11.375
18631W        W82388  20.614  41.001  13.806
18632W        W82389  29.161  33.017  12.905
18633W        W82390  11.195   5.390   3.163
18634W        W82391   5.354  14.181  13.366
18635W        W82392   2.417  38.334  12.845
18636W        W82393  24.168  41.938  12.872
18637W        W82394  34.608  32.888  14.822
18638W        W82395  40.946   3.236   1.214
18639W        W82396  12.237  34.404   4.326
18640W        W82397  35.099  37.523   4.708
18641W        W82398  40.394  18.257  12.981
18642W        W82399  16.146  15.761   3.190
18643W        W82400  27.451   1.932  13.823
18644W        W82401  27.182  21.173   9.564
18645W        W82402   6.922   6.810  14.813
18646W        W82403  10.695  39.958  14.030
18647W        W82404   2.839  39.437   1.244
18648W        W82405  12.268  42.874  14.967
18649W        W82406  26.042  22.700   0.915
18650W        W82407   7.719  44.385  10.042
18651W        W82408  25.584   0.483   4.249
18652W        W82409  31.074  37.520  14.851
18653W        W82410  11.178  32.997  13.854
18654W        W82411  18.150   8.165  11.410
18655W        W82412  35.880  18.099   2.372
18656W        W82413  23.587  14.792   2.878
18657W        W82414  27.179  35.419  10.459
18658W        W82415  31.079  32.072  12.856
18659W        W82416  16.117  22.627  12.039
18660W        W82417  19.050   2.941   2.781
18661W        W82418  42.936  19.250   4.735
18662W        W82419  32.947   6.838   2.365
18663W        W82420  39.945  18.279  12.348
18664W        W82421  32.104   0.472  13.846
18665W        W82422  13.265  41.923  12.068
18666W        W82423   2.965   5.845   1.439
18667W        W82424  17.750   6.865  12.462
18668W        W82425  43.944  12.734  11.955
18669W        W82426  15.672  16.074   2.327
18670W        W82427  33.502  34.909   2.203
18671W        W82428  21.532   3.741  10.963
18672W        W82429  17.617  15.311  11.079
18673W        W82430  41.919  32.999   4.157
18674W        W82431  14.114   6.823  13.470
18675W        W82432  20.600  43.411   0.419
18676W        W82433  29.588  28.012   4.157
18677W        W82434  35.948  10.350   4.655
18678W        W82435   9.359  32.101  14.838
18679W        W82436   1.339  18.118   4.305
18680W        W82437  40.890   4.771   4.688
18681W        W82438  25.003   3.761  11.586
18682W        W82439  15.687  31.632  10.582
18683W        W82440   8.164  19.743   9.973
18684W        W82441  32.492  15.248   0.360
18685W        W82442   2.380   1.357   3.865
18686W        W82443  17.275  35.964  10.081
18687W        W82444  42.392  20.190  14.842
18688W        W82445  17.068  13.835   0.783
18689W        W82446  14.671  11.224  13.818
18690W        W82447  44.885  11.216  11.036
18691W        W82448  33.932  27.493  11.980
18692W        W82449   5.335  43.415   3.672
18693W        W82450  40.013  24.718   3.739
18694W        W82451   3.354  20.117   1.772
18695W        W82452  31.041  42.334  11.092
18696W        W82453  22.552  36.976  11.400
18697W        W82454  26.537  35.044  14.281
18698W        W82455   1.478   4.790  12.556
18699W        W82456  28.046  37.860  11.428
18700W        W82457  23.108  38.452  14.848
18701W        W82458   8.211  18.786   3.196
18702W        W82459  36.007   8.899  14.929
18703W        W82460  38.987  26.104   3.316
18704W        W82461  26.104  42.989   1.272
18705W        W82462   9.790  38.860   4.797
18706W        W82463  32.546  24.534   4.220
18707W        W82464  43.279  13.664   1.287
18708W        W82465  10.358  17.670  12.837
18709W        W82466   1.414   6.311  14.287
18710W        W82467  39.974  12.293   3.869
18711W        W82468  35.393  17.785   0.957
18712W        W82469  29.444  14.252   1.306
18713W        W82470  42.957  13.225  11.521
18714W        W82471  24.068  20.588   0.398
18715W        W82472  21.180  37.917  11.979
18716W        W82473  33.558  20.636  10.561
18717W        W82474  14.789   4.307  11.915
18718W        W82475  24.693  32.043   4.609
18719W        W82476   9.295  25.669  12.433
18720W        W82477  38.567  44.481   0.872
18721W        W82478  20.761  32.562  13.953
18722W        W82479  36.013  29.518  11.560
18723W        W82480  25.500  28.598  14.438
18724W        W82481  33.107  30.083   1.774
18725W        W82482  26.591  27.993   0.957
18726W        W82483  38.567   0.434  12.018
18727W        W82484  24.169  42.880   1.356
18728W        W82485  23.574  26.994   2.726
18729W        W82486  32.629  13.820  11.893
18730W        W82487  11.256  13.297   3.365
18731W        W82488  37.872  40.443  14.405
18732W        W82489  23.118  10.165   2.778
18733W        W82490  31.472  24.169  11.596
18734W        W82491   7.834  43.322   1.902
18735W        W82492  38.465  35.377   4.692
18736W        W82493  36.958   9.876   2.384
18737W        W82494  37.028  44.826   0.908
18738W        W82495  41.946  19.191   0.792
18739W        W82496  42.916  33.919   0.366
18740W        W82497  41.007   4.259  14.859
18741W        W82498  44.459  15.715  12.340
18742W        W82499  35.583   9.257  13.977
18743W        W82500  43.809  26.536   0.469
18744W        W82501   9.728  43.941   2.748
18745W        W82502  28.156  37.549  11.472
18746W        W82503  36.581  22.655  11.109
18747W        W82504  11.334  31.986  14.380
18748W        W82505  16.097  37.369  14.869
18749W        W82506  17.801  19.584  14.913
18750W        W82507  41.505   5.292  10.954
18751W        W82508  18.282  14.646  10.888
18752W        W82509  28.104  14.697  11.513
18753W        W82510  38.566  39.874  11.578
18754W        W82511  44.847  25.171  14.028
18755W        W82512  38.918   4.869  12.050
18756W        W82513  34.541  11.139  14.513
18757W        W82514   3.253  14.268  13.994
18758W        W82515   9.288  10.718  12.026
18759W        W82516  24.712  37.564  10.406
18760W        W82517  40.840  20.153  11.590
18761W        W82518  30.570  35.371   4.649
18762W        W82519  12.786   4.822   0.254
18763W        W82520  33.105   9.702   0.372
18764W        W82521  11.788  32.922  13.392
18765W        W82522  25.076  34.596   2.788
18766W        W82523  13.310  32.985   2.792
18767W        W82524  28.952  19.081  14.944
18768W        W82525  25.196  12.231  12.881
18769W        W82526  19.712   1.849  11.898
18770W        W82527   8.665   7.383  11.384
18771W        W82528  22.016  41.968  14.877
18772W        W82529  27.475  33.078  11.911
18773W        W82530   1.772  35.473  10.594
18774W        W82531  32.928  36.555   2.193
18775W        W82532  29.073  37.042   2.201
18776W        W82533  10.139   8.678  14.451
18777W        W82534   2.455  29.925   0.730
18778W        W82535   0.370  27.069  12.971
18779W        W82536  16.299   2.339   4.628
18780W        W82537  20.585  23.502   4.830
18781W        W82538  22.552  21.584  10.465
18782W        W82539  16.638  36.098  13.466
18783W        W82540  26.984   4.916   2.781
18784W        W82541  16.607  40.970  13.845
18785W        W82542  26.639   0.390  14.401
18786W        W82543   5.409  18.154  11.967
18787W        W82544  39.945  33.428   4.249
18788W        W82545   3.316  23.143  13.959
18789W        W82546  17.235  35.996  12.827
18790W        W82547   8.394  14.621  12.096
18791W        W82548   3.409   1.831   2.748
18792W        W82549  16.638  12.289   0.463
18793W        W82550  11.769   8.857  13.913
18794W        W82551  23.186  42.835  13.330
18795W        W82552  23.676  42.979   5.131
18796W        W82553  19.255  29.097  13.838
18797W        W82554  31.057  24.626   0.455
18798W        W82555  22.011  11.157  14.457
18799W        W82556  21.579  19.106  11.018
18800W        W82557   5.321   9.208  13.470
18801W        W82558  20.198  10.181  13.326
18802W        W82559  43.811  26.531  11.502
18803W        W82560  31.640  17.136  13.307
18804W        W82561  31.415  32.477  13.946
18805W        W82562  22.504  17.118   5.105
18806W        W82563   4.870  15.152   4.337
18807W        W82564  12.793  37.530  14.291
18808W        W82565  26.202   1.395   0.807
18809W        W82566  32.983  23.603   0.776
18810W        W82567  24.208  15.282  10.987
18811W        W82568  21.748   4.895  12.890
18812W        W82569   1.825   2.784  11.904
18813W        W82570   3.374  17.073  13.539
18814W        W82571  32.578  25.209   4.744
18815W        W82572  11.145  36.849  11.049
18816W        W82573  31.946  32.024   0.757
18817W        W82574  23.015  16.288   3.644
18818W        W82575  33.408  44.313   4.665
18819W        W82576  17.178  22.646  11.553
18820W        W82577  42.898  13.195   1.891
18821W        W82578  26.615   3.218   2.213
18822W        W82579  37.861  25.688  12.458
18823W        W82580  11.188  10.241  11.013
18824W        W82581  17.166  33.989   2.334
18825W        W82582  13.117  34.517  10.482
18826W        W82583  39.462  15.587  10.489
18827W        W82584  25.670  10.825  14.857
18828W        W82585  17.688   7.871  14.359
18829W        W82586  19.623  33.506   1.834
18830W        W82587  17.164   0.324  12.999
18831W        W82588   8.729  29.925   1.891
18832W        W82589  31.634   0.358  11.089
18833W        W82590  23.111  34.050   1.904
18834W        W82591  18.770   4.411   0.339
18835W        W82592   5.437   6.212  10.570
18836W        W82593  22.720  37.875  13.315
18837W        W82594  29.006  43.271  14.322
18838W        W82595  27.019  33.414   0.382
18839W        W82596  32.056  14.249  12.386
18840W        W82597  37.435  24.633  12.356
18841W        W82598   2.402  35.097   5.284
18842W        W82599  43.486   5.815   1.230
18843W        W82600   5.356   8.814   0.387
18844W        W82601  30.648  22.529  12.966
18845W        W82602  41.350  23.146   2.368
18846W        W82603  40.362  15.762  13.855
18847W        W82604  37.874   0.450  12.555
18848W        W82605  25.178   3.884  13.884
18849W        W82606  15.091   8.389   2.760
18850W        W82607  24.216  41.344   2.810
18851W        W82608  14.241  38.446  13.338
18852W        W82609  23.614   5.894   1.242
18853W        W82610  15.588   5.845   4.691
18854W        W82611  39.964   3.798  13.966
18855W        W82612  11.658  22.514   1.736
18856W        W82613  21.134  18.589  14.310
18857W        W82614  32.541  20.557  13.527
18858W        W82615   9.233  18.662   1.445
18859W        W82616   9.243  31.980  10.135
18860W        W82617  30.164  36.460   1.247
18861W        W82618  37.480  26.132   3.647
18862W        W82619  29.124   0.283   4.661
18863W        W82620  25.680  21.547   0.396
18864W        W82621  44.845  17.763  12.823
18865W        W82622   1.281  23.709   0.799
18866W        W82623  20.256  12.355  10.072
18867W        W82624  42.823  30.138   3.632
18868W        W82625  27.648  39.042  13.426
18869W        W82626  12.844   2.843  11.114
18870W        W82627  28.516  19.699  13.936
18871W        W82628  11.817   1.389   1.250
18872W        W82629  33.557  21.577   4.711
18873W        W82630  18.602  29.950   3.846
18874W        W82631   3.298  16.728   2.327
18875W        W82632   3.916  34.527   2.894
18876W        W82633  42.314  21.541   0.287
18877W        W82634  31.005  33.083  13.438
18878W        W82635  42.282  21.620  11.891
18879W        W82636   9.379  31.963  11.609
18880W        W82637  33.937  38.900  12.884
18881W        W82638  18.250  34.934   0.255
18882W        W82639  28.518  23.652   2.361
18883W        W82640   9.754  11.622   3.153
18884W        W82641   1.822   1.883  12.025
18885W        W82642  30.437  12.729   4.354
18886W        W82643  22.212   6.342  13.319
18887W        W82644  31.005  28.982  14.912
18888W        W82645  17.116   0.326   1.288
18889W        W82646   1.297  40.002  10.486
18890W        W82647  42.911   1.294  13.316
18891W        W82648  28.536  44.850   2.291
18892W        W82649  20.608  10.189  10.947
18893W        W82650  12.814  20.558   2.418
18894W        W82651   8.248  44.920   2.838
18895W        W82652  33.978  12.252  14.939
18896W        W82653   2.314  43.444  14.927
18897W        W82654  42.420  13.604  11.606
18898W        W82655  39.061  17.745  13.349
18899W        W82656  18.105  21.633  13.455
18900W        W82657  20.092  22.149   4.207
18901W        W82658   2.938  30.516   3.785
18902W        W82659   7.345  36.991  13.387
18903W        W82660  33.051   2.452   0.354
18904W        W82661  15.726   4.351  12.393
18905W        W82662   2.268  32.072   5.101
18906W        W82663  11.734  17.723   5.135
18907W        W82664  18.766   0.924   1.883
18908W        W82665  11.626  24.654   0.388
18909W        W82666  43.777  25.185  11.089
18910W        W82667  31.905   5.430   4.276
18911W        W82668  21.201  37.579   4.171
18912W        W82669  35.040  22.520  13.827
18913W        W82670  13.225  29.617  10.568
18914W        W82671  40.039  12.682  14.296
18915W        W82672  26.519  21.147   1.898
18916W        W82673  12.799  19.687  12.003
18917W        W82674  22.511  16.763   4.290
18918W        W82675  38.506   3.954   4.838
18919W        W82676  24.008  33.483  12.405
18920W        W82677  32.625  35.999   1.275
18921W        W82678  27.178  18.089  11.480
18922W        W82679  31.479  15.580   4.122
18923W        W82680   2.420  36.866  12.433
18924W        W82681  29.481  26.154  10.505
18925W        W82682  31.571  35.076   4.184
18926W        W82683   7.750  24.722   3.714
18927W        W82684  36.932  15.096  13.014
18928W        W82685  18.686  24.649  12.951
18929W        W82686  34.370  10.171  13.510
18930W        W82687  42.868  43.921   4.168
18931W        W82688  19.112  27.652  11.436
18932W        W82689  15.684  25.061   4.328
18933W        W82690   5.346  16.202  11.446
18934W        W82691   9.381  13.177  12.939
18935W        W82692  12.736   3.332  12.085
18936W        W82693  29.624  13.142   2.737
18937W        W82694  17.556   3.457  13.044
18938W        W82695  21.166  29.584   0.800
18939W        W82696   2.779  26.974  11.488
18940W        W82697   4.449  42.509   0.831
18941W        W82698  28.498  39.502   1.741
18942W        W82699  40.980  43.780   3.811
18943W        W82700  11.158   6.319   2.762
18944W        W82701  32.477  27.493   0.821
18945W        W82702  35.934  11.299   4.243
18946W        W82703  22.088  17.558   2.802
18947W        W82704  23.702  11.286   4.328
18948W        W82705  16.734  20.594   0.844
18949W        W82706  14.125  22.575  11.085
18950W        W82707   0.872  18.078  14.359
18951W        W82708  33.074  31.609   4.139
18952W        W82709  44.873  15.775   3.285
18953W        W82710  44.936  18.777   0.812
18954W        W82711  21.730  39.885  14.317
18955W        W82712   9.799  42.802  12.561
18956W        W82713  18.158  35.978  13.994
18957W        W82714   2.908  40.043   3.671
18958W        W82715   0.881  25.971   3.811
18959W        W82716   7.798  24.703  11.600
18960W        W82717   4.784  28.147   1.213
18961W        W82718   9.391   7.773  11.869
18962W        W82719  10.832  26.476  11.455
18963W        W82720  37.578  11.191   0.839
18964W        W82721  33.609  25.106  12.844
18965W        W82722  33.564  18.054   4.158
18966W        W82723  15.592  25.622   3.185
18967W        W82724  39.405  15.663  12.415
18968W        W82725   4.724  15.688   0.794
18969W        W82726  17.614  40.830   3.783
18970W        W82727  12.808  20.744  13.951
18971W        W82728  41.040  44.758  14.459
18972W        W82729  30.991  25.638  11.923
18973W        W82730  28.597   1.863   2.735
18974W        W82731  25.039  10.802   1.704
18975W        W82732  28.122  28.093   4.260
18976W        W82733  43.334   6.756   2.838
18977W        W82734  13.248  38.478   4.259
18978W        W82735  16.639  42.889   0.799
18979W        W82736  32.005  31.554   2.837
18980W        W82737   7.779  41.844  10.987
18981W        W82738  27.559  43.286  10.992
18982W        W82739  26.176  21.574  12.895
18983W        W82740   3.911  40.868   5.226
18984W        W82741  32.409   8.859  11.086
18985W        W82742  42.885   8.858   1.827
18986W        W82743  38.866  31.091  10.015
18987W        W82744   4.915  12.334  11.966
18988W        W82745  29.539  31.593   1.391
18989W        W82746   1.361  15.158   0.904
18990W        W82747  25.204   0.493  13.464
18991W        W82748   1.815  24.015  14.302
18992W        W82749  25.200  25.603   4.170
18993W        W82750  33.565  39.394   0.804
18994W        W82751  34.979  19.753   2.668
18995W        W82752   2.354  20.703  12.957
18996W        W82753  35.010  33.018   3.731
18997W        W82754  28.125  16.788  13.987
18998W        W82755  27.469   7.217  14.919
18999W        W82756   3.816  37.573   4.242
19000W        W82757  44.317   2.785   0.788
19001W        W82758  30.568   2.965   9.939
19002W        W82759  43.423  40.370   0.797
19003W        W82760  33.582  34.013  10.404
19004W        W82761   3.455   4.325   3.817
19005W        W82762  41.504   7.212  12.971
19006W        W82763   9.187   4.922  12.411
19007W        W82764  19.048  39.045   0.420
19008W        W82765   8.814  43.337  14.473
19009W        W82766  32.572   1.323   4.121
19010W        W82767  18.286   3.737   3.379
19011W        W82768  26.956   4.310   2.894
19012W        W82769  15.264  16.753   4.641
19013W        W82770  14.702  28.632   0.340
19014W        W82771   0.940  38.827   2.812
19015W        W82772  40.035  32.445  11.109
19016W        W82773  31.415  17.155   2.808
19017W        W82774  42.372  33.992  14.910
19018W        W82775   7.344  38.552   2.699
19019W        W82776  43.441   5.826  14.973
19020W        W82777  36.587  42.290  14.991
19021W        W82778  32.892  22.122  12.030
19022W        W82779  17.133  25.563  12.492
19023W        W82780  41.468  18.564   3.211
19024W        W82781  27.030  15.772  12.348
19025W        W82782  16.234  29.515   1.704
19026W        W82783  11.257  15.676  14.343
19027W        W82784  44.420  19.139  12.035
19028W        W82785   6.889  27.131  13.801
19029W        W82786  18.125  33.556   0.248
19030W        W82787  34.073   3.455  11.124
19031W        W82788   1.262  13.726   1.220
19032W        W82789  39.969  23.145  12.959
19033W        W82790   0.461  20.627  10.600
19034W        W82791  14.766  20.614  13.494
19035W        W82792   0.283  26.043   1.380
19036W        W82793  13.773  41.948   9.937
19037W        W82794  17.246   1.431  14.942
19038W        W82795  20.740  42.375   2.413
19039W        W82796   6.280  40.415   0.247
19040W        W82797  20.569   5.852   3.786
19041W        W82798  27.179  20.670  12.918
19042W        W82799  13.749  22.516  11.379
19043W        W82800  15.288  30.442  10.968
19044W        W82801  43.423  34.881   0.966
19045W        W82802   2.447  41.307   2.276
19046W        W82803   1.346  27.069  11.593
19047W        W82804  20.197   9.186   4.810
19048W        W82805  26.556  35.603   0.909
19049W        W82806  10.673  16.166   4.812
19050W        W82807   4.765  35.009   4.126
19051W        W82808  44.322  22.099  13.895
19052W        W82809   8.750  17.236  10.936
19053W        W82810  36.443  36.088   5.226
19054W        W82811  14.677  12.719  10.619
19055W        W82812  23.703   9.285  11.008
19056W        W82813   5.708  39.503   0.473
19057W        W82814  18.662  42.404  12.838
19058W        W82815  32.959  28.116  12.088
19059W        W82816  26.100   4.282  10.455
19060W        W82817  14.694  35.541   2.878
19061W        W82818  15.325  16.301  14.448
19062W        W82819  18.635   0.746  13.955
19063W        W82820  37.558  12.215  11.527
19064W        W82821  30.508  22.171  11.525
19065W        W82822  31.432  10.633  11.472
19066W        W82823   6.788  44.318   0.732
19067W        W82824  15.691   5.430  14.870
19068W        W82825  27.168  34.974  11.452
19069W        W82826  18.656  31.473  10.472
19070W        W82827  33.889   0.799  13.458
19071W        W82828  30.658  36.579   2.812
19072W        W82829  18.074  38.888   4.193
19073W        W82830  42.862   2.723  11.091
19074W        W82831  41.802   3.264  13.910
19075W        W82832   4.777  19.689  11.922
19076W        W82833  16.653  19.631  12.493
19077W        W82834  44.362   5.697   0.445
19078W        W82835  41.945   3.882  14.454
19079W        W82836  24.205  25.531  12.080
19080W        W82837   5.205  13.609  13.930
19081W        W82838  24.649  33.547   2.726
19082W        W82839  18.052  12.757  12.540
19083W        W82840  43.999   1.786   4.657
19084W        W82841  17.154  24.118  12.947
19085W        W82842  11.184  37.387  13.453
19086W        W82843  42.915  32.906   2.395
19087W        W82844  25.074  30.575  10.931
19088W        W82845  12.817  21.647  13.930
19089W        W82846  27.519   3.769   3.631
19090W        W82847  18.584  27.166   3.196
19091W        W82848  23.548  25.653   1.782
19092W        W82849  42.870  33.606  14.959
19093W        W82850  21.750  13.811  11.072
19094W        W82851  40.542  42.897   0.813
19095W        W82852  32.890   0.824   3.353
19096W        W82853   7.750  15.285  11.912
19097W        W82854  38.523  36.472   1.901
19098W        W82855  32.443  29.094  11.108
19099W        W82856  18.164  11.372   0.366
19100W        W82857  15.647  27.623  10.957
19101W        W82858  31.496   0.436   1.728
19102W        W82859  43.456  29.115   2.669
19103W        W82860  30.536  16.207  14.354
19104W        W82861  20.527  35.405   1.919
19105W        W82862   1.324  25.710   2.239
19106W        W82863   8.726  15.270   4.715
19107W        W82864  30.950  11.127  11.431
19108W        W82865  18.209  40.005   0.933
19109W        W82866  36.442  10.722  12.922
19110W        W82867   8.761  33.085  13.527
19111W        W82868  31.055  16.246   5.165
19112W        W82869  12.242  19.768  10.894
19113W        W82870  12.263   9.200   4.231
19114W        W82871  29.555  26.000   1.297
19115W        W82872  32.003   8.736  11.045
19116W        W82873  41.462   8.854   1.772
19117W        W82874  19.081  14.247   0.921
19118W        W82875  44.965   7.674  13.002
19119W        W82876  11.351  33.892   2.749
19120W        W82877   0.766   2.410  14.462
19121W        W82878  29.566  43.945   4.184
19122W        W82879  43.490   3.790  10.493
19123W        W82880   6.192  30.534  13.984
19124W        W82881  29.027  29.460  14.864
19125W        W82882  34.406  30.908  13.912
19126W        W82883   3.416  20.746  14.329
19127W        W82884   0.783  19.619   0.793
19128W        W82885  17.723   9.759  14.484
19129W        W82886  24.049  44.967   2.871
19130W        W82887  15.769  11.626   3.673
19131W        W82888  25.072  30.542  13.035
19132W        W82889  18.222   7.219   4.252
19133W        W82890  40.001  35.547  11.034
19134W        W82891  32.506   2.450  11.544
19135W        W82892   3.814  22.660  11.053
19136W        W82893   1.804  26.595  11.866
19137W        W82894   1.913  30.444   0.482
19138W        W82895   5.319   2.337  11.081
19139W        W82896  43.928  39.053  14.331
19140W        W82897  27.682  11.354   3.753
19141W        W82898  23.492  39.809  11.490
19142W        W82899  20.251  39.969   0.818
19143W        W82900  11.156  11.230   1.412
19144W        W82901  16.677   3.782  11.604
19145W        W82902   5.777  36.859   1.714
19146W        W82903  37.852  34.094   0.390
19147W        W82904  30.092  28.003   0.755
19148W        W82905  23.670  25.608  14.790
19149W        W82906  19.140   6.884   1.237
19150W        W82907  27.977  24.127  13.826
19151W        W82908   1.388   0.914   0.777
19152W        W82909   2.786  27.465   2.881
19153W        W82910  23.496   5.411  14.937
19154W        W82911  15.814   3.287   4.161
19155W        W82912  21.090  29.090   2.234
19156W        W82913  23.502   4.943   3.797
19157W        W82914  12.670   6.708  14.812
19158W        W82915  42.321  39.888  13.356
19159W        W82916  18.601  28.150   2.815
19160W        W82917  43.276   8.900  11.423
19161W        W82918   9.278  36.950   2.198
19162W        W82919  20.668  44.327   0.368
19163W        W82920  27.130   9.296   1.373
19164W        W82921   3.937  36.875  14.353
19165W        W82922  13.242  39.404  10.595
19166W        W82923  20.195  14.648  14.494
19167W        W82924  16.192  41.514  14.308
19168W        W82925  37.054  15.310  13.833
19169W        W82926   1.389  42.847  12.952
19170W        W82927  42.489  25.699  11.414
19171W        W82928  19.183  44.811  12.453
19172W        W82929  26.548  43.366  11.915
19173W        W82930  43.346   3.414   3.367
19174W        W82931  43.780  35.947   3.178
19175W        W82932  24.021  21.689   0.818
19176W        W82933   5.825  30.052  14.401
19177W        W82934   7.738  17.691   3.844
19178W        W82935  11.227  38.960   2.278
19179W        W82936   4.448  15.112  12.362
19180W        W82937  23.218  39.041   0.255
19181W        W82938  42.020  35.561  14.768
19182W        W82939  37.871  26.562   4.659
19183W        W82940  27.625  18.620   5.085
19184W        W82941   2.763  36.989   2.716
19185W        W82942  16.648  15.304   3.194
19186W        W82943   6.798   6.258  11.061
19187W        W82944  44.963  42.341   1.762
19188W        W82945   1.778  42.424  14.332
19189W        W82946   2.811  19.737   2.693
19190W        W82947  27.064  29.076   4.161
19191W        W82948  20.626  22.134  14.844
19192W        W82949  27.992  29.047   2.309
19193W        W82950  28.451  15.796  14.380
19194W        W82951  19.270  23.118  12.871
19195W        W82952  11.256  24.722  11.925
19196W        W82953  43.791  16.587  14.946
19197W        W82954  17.606  35.101   2.862
19198W        W82955  24.077  41.361   4.293
19199W        W82956  11.273  27.549   2.373
19200W        W82957  38.828   0.751  13.805
19201W        W82958  27.023  33.039  12.430
19202W        W82959  43.861  16.677  13.993
19203W        W82960  25.965  44.467  10.416
19204W        W82961   2.272  16.571   4.252
19205W        W82962  37.440  10.658   3.259
19206W        W82963  21.652  32.111   9.528
19207W        W82964  39.377  31.138   0.751
19208W        W82965  15.246  39.008   2.848
19209W        W82966  33.935  25.503   1.317
19210W        W82967  38.050  31.107   1.289
19211W        W82968  25.051  27.638  11.485
19212W        W82969  34.105   2.889  13.009
19213W        W82970  29.617   4.255  14.276
19214W        W82971  11.781  10.228  14.904
19215W        W82972  21.080   7.699  11.891
19216W        W82973  23.235  40.802  13.037
19217W        W82974  36.515  16.784   4.726
19218W        W82975  10.762  10.274   4.632
19219W        W82976  41.807   3.824  11.860
19220W        W82977   3.814  36.354  10.550
19221W        W82978  36.922  25.153  14.883
19222W        W82979  18.141  20.584  11.083
19223W        W82980  29.546  32.544   3.767
19224W        W82981  22.717  37.462   4.740
19225W        W82982  21.260  11.207  12.467
19226W        W82983  34.954  23.656   2.299
19227W        W82984   6.381   9.692   0.261
19228W        W82985  27.640  42.778  13.919
19229W        W82986  44.299  29.570  13.383
19230W        W82987   0.850   8.888   0.748
19231W        W82988  32.562  42.987   3.352
19232W        W82989  18.752  20.607  14.917
19233W        W82990  35.553  26.458  11.060
19234W        W82991  24.084  31.421  10.598
19235W        W82992  11.764   1.809   4.619
19236W        W82993  30.548   0.311   3.363
19237W        W82994  44.886  44.282   2.232
19238W        W82995  44.983  38.501  14.929
19239W        W82996   0.372  36.409  14.511
19240W        W82997  19.686  21.743   4.623
19241W        W82998  26.541  33.616  10.626
19242W        W82999  38.345  14.186   3.760
19243W        W83000   8.200  15.800   9.645
19244W        W83001  29.105  19.730  13.813
19245W        W83002  11.332  35.856   0.292
19246W        W83003  20.722  23.077  13.791
19247W        W83004  16.710  22.223   3.253
19248W        W83005  37.573  18.294   4.123
19249W        W83006   5.255  30.551  11.862
19250W        W83007   9.285  44.964   2.716
19251W        W83008   4.396  10.241   2.798
19252W        W83009  22.667  30.466   5.217
19253W        W83010  36.582   1.460  10.526
19254W        W83011  34.381  27.611   4.241
19255W        W83012   7.378  19.735   2.251
19256W        W83013   8.856   1.415  12.423
19257W        W83014  42.022  21.563   1.253
19258W        W83015   3.216  23.066  11.536
19259W        W83016  12.810   9.887  14.495
19260W        W83017  25.540  42.792  11.523
19261W        W83018  22.726  42.964  10.984
19262W        W83019  39.338  19.635  11.564
19263W        W83020  17.674   8.757   4.246
19264W        W83021   3.944  10.259   3.305
19265W        W83022  27.083  12.283  11.394
19266W        W83023  35.054  32.479   3.660
19267W        W83024   5.797  35.967  12.434
19268W        W83025  17.588  21.676   0.277
19269W        W83026  29.113  43.302   2.754
19270W        W83027  10.316  12.318   0.415
19271W        W83028  26.517  20.572  10.984
19272W        W83029   1.312  23.019  13.525
19273W        W83030  22.583  17.729   3.800
19274W        W83031  18.165   2.945  14.393
19275W        W83032  36.537  26.021  14.292
19276W        W83033  13.152  27.462   3.641
19277W        W83034  39.431  44.948  11.955
19278W        W83035   5.322  39.443   1.253
19279W        W83036  21.068  38.855  11.578
19280W        W83037  23.711  25.077  11.903
19281W        W83038  43.789  14.801  13.453
19282W        W83039  23.655   7.268   4.299
19283W        W83040  32.885  41.931  13.310
19284W        W83041  19.209  20.747   4.141
19285W        W83042  44.273  33.118  14.800
19286W        W83043   7.865  21.213   9.948
19287W        W83044  16.257  16.288   9.436
19288W        W83045   4.786  26.055  14.790
19289W        W83046  23.154  34.906   5.791
19290W        W83047  36.928  42.365   0.420
19291W        W83048  15.160   9.747   3.772
19292W        W83049   6.404   2.844   3.321
19293W        W83050  43.965  25.481  12.855
19294W        W83051  34.531  17.251   2.811
19295W        W83052  22.505   8.302   3.767
19296W        W83053  28.553  24.073  14.279
19297W        W83054  23.505  25.096  11.563
19298W        W83055   2.352  40.896  11.955
19299W        W83056  36.455   3.784   1.857
19300W        W83057  21.715  18.269  11.026
19301W        W83058  22.647  35.471  11.036
19302W        W83059  31.124   5.360   3.318
19303W        W83060  32.447  32.594   2.731
19304W        W83061  15.766   5.224   3.769
19305W        W83062  20.614  23.656  14.511
19306W        W83063  35.945  36.976  13.989
19307W        W83064   8.900  26.618   3.751
19308W        W83065  44.912   2.894   3.224
19309W        W83066  36.905  17.301   2.294
19310W        W83067   5.925  41.935  11.914
19311W        W83068  21.727  41.503  14.984
19312W        W83069  13.679  12.793  13.373
19313W        W83070  29.460  28.487  14.439
19314W        W83071  36.011  32.468   4.334
19315W        W83072   8.294  17.237   0.251
19316W        W83073  30.086  36.018  12.408
19317W        W83074  44.301  15.784   9.938
19318W        W83075   3.288  34.463  11.459
19319W        W83076  32.513  33.472   2.276
19320W        W83077  19.123   1.758   3.169
19321W        W83078  28.992  20.145  11.413
19322W        W83079  39.883  25.473   4.826
19323W        W83080  26.521  42.941  14.373
19324W        W83081  30.537  34.010  13.833
19325W        W83082  13.615  38.358  11.556
19326W        W83083  27.028  23.020  11.410
19327W        W83084  20.187  12.335  13.319
19328W        W83085  43.872   3.317  11.044
19329W        W83086  29.000  23.531  14.952
19330W        W83087   1.320  27.575  10.436
19331W        W83088  17.270   9.208   1.296
19332W        W83089   2.779  41.963   2.778
19333W        W83090  22.529  30.585   2.217
19334W        W83091   1.744  39.465  10.543
19335W        W83092  14.223  44.396   0.418
19336W        W83093  37.374  26.198  14.778
19337W        W83094  29.612  18.668   4.679
19338W        W83095   6.358  42.823   4.836
19339W        W83096   2.316  29.561   0.953
19340W        W83097  32.409   4.447  13.821
19341W        W83098  15.098   3.406   4.125
19342W        W83099  37.007  22.507   0.837
19343W        W83100   3.347  24.702   2.887
19344W        W83101  40.805  41.371  13.895
19345W        W83102   1.754   0.798   0.872
19346W        W83103  36.391  20.088  13.478
19347W        W83104   3.889  28.959   2.734
19348W        W83105   4.290  35.098  11.512
19349W        W83106  41.468   8.200   2.743
19350W        W83107  18.092  14.256  11.952
19351W        W83108  33.400   9.282  12.581
19352W        W83109  14.234  22.235   0.771
19353W        W83110  27.968  41.931  12.472
19354W        W83111   0.412   1.797  12.363
19355W        W83112  25.054  35.451  14.898
19356W        W83113  21.161  16.089  10.981
19357W        W83114   5.831  24.677  12.847
19358W        W83115  33.887  23.629   0.892
19359W        W83116  30.106   1.819  14.018
19360W        W83117  43.300  34.967  12.054
19361W        W83118  26.043   4.941   4.121
19362W        W83119  21.063  30.621  10.510
19363W        W83120  11.275  11.671   1.239
19364W        W83121  14.807  36.397   0.320
19365W        W83122  32.450  39.475   2.207
19366W        W83123  39.925  14.283   3.357
19367W        W83124  33.580  21.252   1.296
19368W        W83125  27.056  25.137   1.817
19369W        W83126  25.062  32.070  11.916
19370W        W83127  25.692  13.795   0.381
19371W        W83128  31.595  20.170  12.071
19372W        W83129  40.947   4.293  14.444
19373W        W83130  40.893  21.019  14.408
19374W        W83131  23.010  23.630   4.230
19375W        W83132   5.699   2.274   3.843
19376W        W83133  15.692  30.915   3.357
19377W        W83134  28.547  10.835  11.085
19378W        W83135  13.278  33.941  12.047
19379W        W83136  14.291  29.007   0.922
19380W        W83137  43.819  43.860   2.417
19381W        W83138  15.624   2.879   3.350
19382W        W83139  30.931   2.364   2.760
19383W        W83140   9.750  32.055   0.846
19384W        W83141   4.362   6.834  11.974
19385W        W83142  30.074   9.781   2.262
19386W        W83143  29.092  40.385   4.680
19387W        W83144  26.019  27.998   3.163
19388W        W83145  23.638  37.965  10.607
19389W        W83146  43.848  36.405   3.632
19390W        W83147  39.872  37.991   2.851
19391W        W83148  33.481  17.801  13.042
19392W        W83149  31.028  30.584  12.362
19393W        W83150  20.764  35.911  11.584
19394W        W83151   2.423  29.514   1.364
19395W        W83152  30.145  30.922  14.861
19396W        W83153  42.982  15.105   2.279
19397W        W83154   7.736  42.995  10.989
19398W        W83155  22.695  11.352   0.308
19399W        W83156  36.448   2.835   3.387
19400W        W83157  40.332  43.874  12.404
19401W        W83158  29.034  39.893  12.867
19402W        W83159  32.610  25.661   1.884
19403W        W83160  24.148  28.638   1.382
19404W        W83161  44.854  19.149  14.000
19405W        W83162   4.351  40.799  14.804
19406W        W83163   3.358  15.578  13.897
19407W        W83164   2.777   3.937   0.448
19408W        W83165  12.777   8.405   4.648
19409W        W83166  12.742   5.398  14.311
19410W        W83167  30.462  10.216   4.239
19411W        W83168  40.852  18.597   0.308
19412W        W83169  12.824  14.097   1.341
19413W        W83170  11.281  20.695  12.860
19414W        W83171  15.087  35.428   3.827
19415W        W83172   1.762  31.961  10.643
19416W        W83173  12.279  21.208   0.332
19417W        W83174  14.171  33.901  14.882
19418W        W83175  36.543  37.567   0.265
19419W        W83176  28.671  21.196   3.700
19420W        W83177  16.152  24.496  14.376
19421W        W83178  21.598  13.234   1.846
19422W        W83179  16.138  19.709   2.801
19423W        W83180  24.114  13.646  11.452
19424W        W83181  31.925  43.282  13.431
19425W        W83182  12.791   8.212  12.418
19426W        W83183   8.671  12.261   1.308
19427W        W83184  24.505  21.184   1.809
19428W        W83185  39.484  41.429  14.509
19429W        W83186  32.504  40.916  13.323
19430W        W83187  18.688  34.563   0.906
19431W        W83188  23.184  14.134  14.360
19432W        W83189  22.651  29.538   2.757
19433W        W83190   6.315  34.406  13.416
19434W        W83191  16.144  29.040  14.944
19435W        W83192  24.159  40.432  13.469
19436W        W83193   9.200  35.046   3.662
19437W        W83194   2.416  42.329  10.959
19438W        W83195   4.935  17.241   2.703
19439W        W83196  24.124  14.212  14.376
19440W        W83197  17.066   7.802  13.483
19441W        W83198  11.128  37.038   0.921
19442W        W83199  41.898  11.677   5.164
19443W        W83200  38.331  25.547  13.952
19444W        W83201  19.740  28.580   2.775
19445W        W83202   7.270  34.377   4.725
19446W        W83203  15.187  38.377   2.393
19447W        W83204  36.516  25.706  11.512
19448W        W83205  28.582  39.953   4.798
19449W        W83206  42.831  20.591  13.533
19450W        W83207  29.555  18.164   1.221
19451W        W83208   3.429   4.765   4.181
19452W        W83209  18.657  21.130  12.974
19453W        W83210  31.052   0.752   3.689
19454W        W83211   3.851  40.502   2.803
19455W        W83212  15.810  20.730   2.879
19456W        W83213  12.812  32.498  13.415
19457W        W83214  30.487  17.733  13.349
19458W        W83215  16.275  39.343   2.314
19459W        W83216   7.197  13.818   0.428
19460W        W83217  12.139  16.313  12.421
19461W        W83218  29.651  18.061  12.050
19462W        W83219   5.360  22.183  12.351
19463W        W83220  22.165  23.087   2.354
19464W        W83221  14.195  13.198  12.418
19465W        W83222  43.906  42.978  10.519
19466W        W83223  35.469   0.433  11.553
19467W        W83224  27.100  18.052  14.916
19468W        W83225  18.613  37.941   2.352
19469W        W83226  37.833  44.967   3.308
19470W        W83227  10.150  37.444  13.023
19471W        W83228  25.098  31.439  13.526
19472W        W83229  43.413   8.401  11.422
19473W        W83230  25.008  12.700  11.941
19474W        W83231  36.945  41.368  14.388
19475W        W83232   1.470  29.009   0.364
19476W        W83233  31.473  41.013  14.313
19477W        W83234  38.848  26.994   3.258
19478W        W83235  26.006  38.465  11.906
19479W        W83236  42.309  24.016   0.341
19480W        W83237   0.832  38.364  13.864
19481W        W83238  10.764  44.371   0.804
19482W        W83239   3.286   1.244   2.204
19483W        W83240  36.466  37.483  10.003
19484W        W83241  11.860  31.406   2.823
19485W        W83242   3.724  33.547   9.973
19486W        W83243  21.177  18.710  10.501
19487W        W83244  36.388  14.336   4.635
19488W        W83245  10.223  40.823   0.296
19489W        W83246  29.445  26.166   1.699
19490W        W83247   7.375  19.061   0.301
19491W        W83248   5.689  31.515   1.697
19492W        W83249  11.623  33.972   0.768
19493W        W83250  33.076  29.056   2.724
19494W        W83251   7.730  26.087   1.817
19495W        W83252  43.788  20.587   1.405
19496W        W83253  19.680  33.494  12.484
19497W        W83254   0.379  42.928  13.873
19498W        W83255  16.133   5.436   1.715
19499W        W83256  19.180  29.134  10.408
19500W        W83257   4.238   1.455   3.298
19501W        W83258   8.718  29.116   2.902
19502W        W83259   5.195  25.127   4.653
19503W        W83260  31.120  26.456  14.435
19504W        W83261  24.219  17.767   3.731
19505W        W83262  37.548  25.705  13.963
19506W        W83263  35.989  44.996   1.790
19507W        W83264   2.791  35.963  13.343
19508W        W83265  15.291   5.910   0.436
19509W        W83266  29.970  15.777   1.257
19510W        W83267  36.992  27.642  12.073
19511W        W83268  18.716   3.279  11.122
19512W        W83269  12.796  44.953   2.785
19513W        W83270  27.982   5.783  11.548
19514W        W83271  21.097  13.616   1.399
19515W        W83272   9.158  36.025   3.365
19516W        W83273  15.095  22.609  14.382
19517W        W83274  20.625  34.380  14.863
19518W        W83275  40.884  38.956  13.504
19519W        W83276   1.411  27.984   1.921
19520W        W83277  40.320  12.715   4.804
19521W        W83278  12.675  29.064  12.535
19522W        W83279  18.588   5.866  10.417
19523W        W83280  26.534   7.286  12.553
19524W        W83281  13.334  34.962   2.746
19525W        W83282   3.322  19.227  14.400
19526W        W83283  39.342  15.723   3.382
19527W        W83284  33.005  16.766   0.872
19528W        W83285   9.750   1.451   1.755
19529W        W83286  19.277  32.049   3.810
19530W        W83287  32.062  32.485   4.669
19531W        W83288  10.820  37.451   2.692
19532W        W83289  28.536  15.113   1.385
19533W        W83290   7.287  39.389  12.836
19534W        W83291   3.406  11.634  11.896
19535W        W83292   4.713  23.604   0.330
19536W        W83293   4.734  32.045   4.121
19537W        W83294  23.144  29.652  14.032
19538W        W83295  12.254  24.173  12.537
19539W        W83296   9.318   8.771   1.354
19540W        W83297   5.272   0.950  14.298
19541W        W83298  26.514   1.956   3.353
19542W        W83299  35.100  13.301  14.911
19543W        W83300  36.567  18.083   0.437
19544W        W83301  23.115  30.445  14.016
19545W        W83302  23.665  20.676  10.994
19546W        W83303  24.057  31.077  11.554
19547W        W83304   2.228  44.350   1.241
19548W        W83305  22.637  43.271   4.325
19549W        W83306  12.775  30.003   4.257
19550W        W83307  17.275   0.469  11.375
19551W        W83308   1.308   7.678  11.879
19552W        W83309  18.688  25.207   3.374
19553W        W83310  29.553  22.649  12.342
19554W        W83311   9.654  16.260  10.439
19555W        W83312  29.932  17.757  11.477
19556W        W83313  38.969  25.073   0.804
19557W        W83314  18.560  20.210  12.833
19558W        W83315  19.555  24.188  14.803
19559W        W83316  40.359  12.137  14.317
19560W        W83317  42.385  28.446   1.893
19561W        W83318   7.376  35.449   1.713
19562W        W83319  24.999  32.938  10.908
19563W        W83320  22.164   3.405  13.858
19564W        W83321  16.653   8.894   3.793
19565W        W83322   4.741  42.853   1.924
19566W        W83323  12.307  24.171  12.987
19567W        W83324  41.355   2.735  12.522
19568W        W83325  25.994  37.475  11.011
19569W        W83326   1.419  37.994  14.487
19570W        W83327  38.844  43.836  10.008
19571W        W83328  40.006  28.458  10.961
19572W        W83329   8.389   5.388   0.258
19573W        W83330   4.859   8.330  11.894
19574W        W83331  18.182  27.147  13.059
19575W        W83332  33.033  40.544   0.298
19576W        W83333  22.084  10.853  11.381
19577W        W83334  10.839   1.749  11.959
19578W        W83335  36.555  17.636  14.405
19579W        W83336  26.031  15.264   9.560
19580W        W83337  14.807  35.478   1.331
19581W        W83338  29.918   9.824   1.882
19582W        W83339  23.180  27.455  11.877
19583W        W83340   5.841  27.556  14.836
19584W        W83341  14.678  25.062  12.547
19585W        W83342  11.268  26.548   3.250
19586W        W83343  35.431  43.405   4.236
19587W        W83344  18.603   6.730  14.391
19588W        W83345   0.818  38.065  13.989
19589W        W83346   1.251  22.239  13.834
19590W        W83347   8.403  22.011  14.967
19591W        W83348  15.322  24.487  10.918
19592W        W83349  30.022   3.925   1.333
19593W        W83350  26.201  17.692   4.228
19594W        W83351  23.599  38.336  12.951
19595W        W83352   2.270  27.157  13.460
19596W        W83353   4.304  23.540  14.015
19597W        W83354  40.461  14.241  12.839
19598W        W83355  44.356  11.737  12.461
19599W        W83356  31.916   7.311  13.959
19600W        W83357  26.614  13.689   2.367
19601W        W83358  41.344  16.580   0.368
19602W        W83359  22.202  18.239   1.440
19603W        W83360  13.190  26.139   1.396
19604W        W83361   9.257  29.479  10.930
19605W        W83362  10.795  36.019   4.750
19606W        W83363  29.512  26.700   1.799
19607W        W83364   1.271   2.354  13.437
19608W        W83365  22.667  25.512  11.487
19609W        W83366   9.647  37.894  13.523
19610W        W83367  32.493  19.681   0.248
19611W        W83368  12.240  43.310   4.289
19612W        W83369   9.307  20.133   2.884
19613W        W83370  23.106  38.878  12.865
19614W        W83371  35.597  30.969   4.680
19615W        W83372  38.821  42.933   5.295
19616W        W83373  25.543   4.911   1.398
19617W        W83374   3.810  33.549  14.007
19618W        W83375  38.543  19.258  11.416
19619W        W83376  34.424  42.468  10.987
19620W        W83377  20.251   2.770  12.009
19621W        W83378  32.916  33.108   2.836
19622W        W83379  34.379  26.689  12.915
19623W        W83380  10.150  18.600   2.186
19624W        W83381  35.578  32.910  14.346
19625W        W83382  32.073  41.435  12.510
19626W        W83383   2.270  44.431  12.878
19627W        W83384  24.168  22.744   5.121
19628W        W83385  30.123  20.744   4.633
19629W        W83386  35.071   0.983   3.273
19630W        W83387  40.851  36.508   0.945
19631W        W83388  25.025  24.675   1.304
19632W        W83389  21.705   5.231  14.986
19633W        W83390  19.135   2.958   1.330
19634W        W83391  29.655  12.335   1.286
19635W        W83392   2.786   8.279  11.570
19636W        W83393   8.702  21.732   3.726
19637W        W83394  18.694  38.468   1.832
19638W        W83395  29.123  40.991   2.690
19639W        W83396  40.968   4.781  10.962
19640W        W83397  30.924   2.299  11.861
19641W        W83398  28.085  34.943  14.443
19642W        W83399  38.999   4.868   1.265
19643W        W83400  18.649  28.969  14.434
19644W        W83401  12.787  15.302   3.284
19645W        W83402  42.007  10.288   4.149
19646W        W83403   7.209  37.060   1.305
19647W        W83404   0.336  27.642  14.790
19648W        W83405  16.123  37.843   3.326
19649W        W83406  21.095   2.743   4.810
19650W        W83407  24.536  12.212  12.438
19651W        W83408  28.139  42.426   1.862
19652W        W83409  34.094  15.767  14.835
19653W        W83410  37.359  36.430   4.681
19654W        W83411  43.335  34.441  12.434
19655W        W83412  10.334  12.156  11.516
19656W        W83413  35.057  22.733   4.709
19657W        W83414  36.934  29.977  13.883
19658W        W83415  30.123   4.235   2.235
19659W        W83416   7.292   2.736   1.449
19660W        W83417  35.516  19.577  13.869
19661W        W83418  22.207  30.147  11.376
19662W        W83419  21.033   9.343  13.901
19663W        W83420  16.307  30.127   4.278
19664W        W83421  29.166  42.416  14.919
19665W        W83422   5.907  11.251  11.038
19666W        W83423  10.669   4.885  11.907
19667W        W83424  16.672  42.313  14.848
19668W        W83425  16.223  35.416  11.043
19669W        W83426  21.022  12.299  14.939
19670W        W83427   6.261  37.466   4.133
19671W        W83428   1.422   5.430   3.201
19672W        W83429   4.336  11.348  14.836
19673W        W83430  26.642  17.566   2.257
19674W        W83431  30.955  11.717  10.540
19675W        W83432   1.850  40.303  10.416
19676W        W83433  36.097  33.890   2.790
19677W        W83434  20.595  12.620   3.646
19678W        W83435  24.051  28.463   0.457
19679W        W83436  21.703  12.843   0.335
19680W        W83437  11.845  23.554   4.204
19681W        W83438  31.422  17.190  12.985
19682W        W83439  18.161  14.261  13.445
19683W        W83440  24.485  18.772  13.364
19684W        W83441  40.522  17.667   1.334
19685W        W83442  38.429  30.039  14.804
19686W        W83443   4.845  32.932  10.105
19687W        W83444  13.141   1.390   4.158
19688W        W83445   5.843   7.809   2.356
19689W        W83446   8.701   5.871  11.880
19690W        W83447   3.279  36.916  12.823
19691W        W83448  26.201  33.876   3.179
19692W        W83449  40.805   2.958   3.748
19693W        W83450  26.642   7.879   5.159
19694W        W83451  37.984  36.479  12.473
19695W        W83452  26.551  42.912   5.314
19696W        W83453   4.364  14.767  12.978
19697W        W83454   9.350  40.398   0.401
19698W        W83455  35.595  17.187  14.331
19699W        W83456  41.405  43.820   3.779
19700W        W83457  37.003  26.513   4.708
19701W        W83458  33.882  10.756   1.694
19702W        W83459  31.110  41.428   1.358
19703W        W83460  18.586  15.315  13.500
19704W        W83461   4.346  33.028  12.088
19705W        W83462  40.873  34.948  10.635
19706W        W83463  14.259  38.020   4.289
19707W        W83464   0.477  18.633   2.235
19708W        W83465  30.960  23.189   2.315
19709W        W83466  26.164   0.787   2.779
19710W        W83467  42.830   9.685   4.352
19711W        W83468  35.082  26.545   0.737
19712W        W83469  41.816  29.971  14.480
19713W        W83470  23.500  33.579   3.281
19714W        W83471  17.115  37.476  10.529
19715W        W83472  38.352  40.412   3.369
19716W        W83473  26.131  24.715  10.631
19717W        W83474   3.246  13.703  14.802
19718W        W83475  12.722   2.309  11.004
19719W        W83476  25.087  41.984  10.931
19720W        W83477  24.596  44.786  13.309
19721W        W83478   3.855  34.439   3.278
19722W        W83479   0.929  33.621  11.477
19723W        W83480  34.110   5.327  10.555
19724W        W83481  15.229  10.847   0.806
19725W        W83482  41.977   3.743   0.360
19726W        W83483  11.636   9.205  13.001
19727W        W83484   3.286  40.977  12.088
19728W        W83485  17.761   8.342   1.430
19729W        W83486   1.363  10.200  11.021
19730W        W83487  22.219  18.595   2.879
19731W        W83488  34.879   7.894   0.300
19732W        W83489  36.994  30.947   0.414
19733W        W83490  35.915  29.581  10.918
19734W        W83491  31.412  24.148   1.857
19735W        W83492  15.809  18.572  12.082
19736W        W83493   3.733   0.487   0.761
19737W        W83494  33.507  18.558   0.963
19738W        W83495  43.306   3.385  11.869
19739W        W83496  27.989  40.054  11.557
19740W        W83497  23.499   6.427   1.915
19741W        W83498  20.725   6.287   2.796
19742W        W83499   2.328   3.235  13.531
19743W        W83500  39.884  20.607   2.412
19744W        W83501  41.313  27.000  12.479
19745W        W83502   1.766  24.005  12.450
19746W        W83503  16.209  31.037  12.962
19747W        W83504   7.881  11.747  11.427
19748W        W83505  21.658  38.071  13.847
19749W        W83506  39.876  30.076   0.467
19750W        W83507   9.245  43.957  11.523
19751W        W83508  41.931   9.681  13.937
19752W        W83509   7.730  29.517  13.355
19753W        W83510  22.716  24.640   0.885
19754W        W83511  15.248  28.454  13.482
19755W        W83512  23.007   8.705   0.908
19756W        W83513  22.229  35.428   3.722
19757W        W83514  38.443  32.074  10.903
19758W        W83515  30.531  28.067  10.918
19759W        W83516   4.287  13.202  10.616
19760W        W83517   2.805   7.683  11.910
19761W        W83518  10.851  32.426  13.904
19762W        W83519  40.488  44.336   5.191
19763W        W83520  23.702  39.999   1.920
19764W        W83521  15.288  29.443  12.552
19765W        W83522  33.475  36.968   0.850
19766W        W83523  18.775  10.317   1.367
19767W        W83524  31.550  43.344  10.483
19768W        W83525  35.903   3.788   0.482
19769W        W83526  14.835  13.730   2.179
19770W        W83527  36.373  21.149   2.754
19771W        W83528  24.178  32.593   1.426
19772W        W83529  24.038  16.308  10.559
19773W        W83530  20.756  16.808  11.934
19774W        W83531  24.065  22.635   2.288
19775W        W83532   6.202  14.283   0.260
19776W        W83533  36.999  24.195  14.005
19777W        W83534  26.475  23.031   2.387
19778W        W83535  33.893  11.841   4.281
19779W        W83536   5.296   3.866  10.415
19780W        W83537   6.325  34.053   3.752
19781W        W83538  31.122  44.858   0.380
19782W        W83539   0.339  37.504   0.946
19783W        W83540  31.931  42.787  14.348
19784W        W83541  39.061  24.982  14.424
19785W        W83542  26.637  36.503  13.431
19786W        W83543  14.215  40.921  14.967
19787W        W83544  35.920  14.160   1.933
19788W        W83545  24.085  15.800  11.591
19789W        W83546  34.907  21.613   3.293
19790W        W83547   3.784  10.176   2.264
19791W        W83548  18.270  11.331  14.423
19792W        W83549  37.003   6.778   1.232
19793W        W83550  27.541  43.962   4.792
19794W        W83551   0.876  14.333   2.758
19795W        W83552  16.721  23.126   1.791
19796W        W83553  28.571  34.523   0.937
19797W        W83554  20.575  13.270   4.194
19798W        W83555  21.210   4.940   0.761
19799W        W83556  43.802   6.762  12.469
19800W        W83557  41.327  40.386   0.271
19801W        W83558  34.915   3.926  11.937
19802W        W83559  13.258  30.466  11.386
19803W        W83560  26.586  27.490  14.828
19804W        W83561  10.839  23.991  12.838
19805W        W83562  43.452  37.401  11.391
19806W        W83563   3.279  38.855  11.433
19807W        W83564  34.512   1.248   2.183
19808W        W83565  44.422   8.783  10.896
19809W        W83566  27.013  21.108   1.412
19810W        W83567  43.915  17.148  10.976
19811W        W83568  17.180  23.149  13.043
19812W        W83569  42.411  10.804   0.827
19813W        W83570  33.442  39.502   2.818
19814W        W83571  33.456  33.982  12.000
19815W        W83572  15.598  17.289  12.520
19816W        W83573  35.509  25.030  10.633
19817W        W83574  21.175   6.314  12.518
19818W        W83575   4.790   5.403   2.898
19819W        W83576  37.414  14.780  14.882
19820W        W83577   4.712  23.586   3.169
19821W        W83578  33.415  41.445  12.888
19822W        W83579  28.439   6.212   2.707
19823W        W83580  22.148   8.657  12.937
19824W        W83581  20.101  30.042  12.577
19825W        W83582  32.133   5.932  13.339
19826W        W83583  19.658  11.753   0.437
19827W        W83584   1.239  13.837   4.165
19828W        W83585  13.683  16.209   2.673
19829W        W83586  26.682   9.315   0.903
19830W        W83587  41.325  37.553   0.767
19831W        W83588   4.415  39.048   0.758
19832W        W83589  26.039  38.009  11.471
19833W        W83590  38.033  31.469  10.568
19834W        W83591  20.662  11.645  11.496
19835W        W83592  25.528  44.306   0.863
19836W        W83593  42.853  13.626   4.739
19837W        W83594  18.682  12.208   2.398
19838W        W83595  28.608   8.227  14.463
19839W        W83596  25.575  40.408   0.430
19840W        W83597  15.088  19.060   4.324
19841W        W83598  41.493  23.211  11.020
19842W        W83599   2.359  10.762  11.122
19843W        W83600  12.266  34.015  10.477
19844W        W83601  13.271  14.679  10.639
19845W        W83602  23.130  36.581  11.525
19846W        W83603  36.544   8.900  10.403
19847W        W83604   5.348  19.543  12.025
19848W        W83605   9.871  14.640  13.403
19849W        W83606  26.025  35.508  11.390
19850W        W83607   0.959  40.525  12.542
19851W        W83608  18.661  10.289   3.179
19852W        W83609  11.669   3.853  12.916
19853W        W83610  23.581  42.981   4.325
19854W        W83611  41.443  17.696  13.429
19855W        W83612  26.041   5.372   2.741
19856W        W83613  32.139  34.108   1.813
19857W        W83614   3.323  11.834   1.740
19858W        W83615  16.173   8.868  14.866
19859W        W83616  43.370   3.394   2.275
19860W        W83617   1.802  10.879   1.401
19861W        W83618  37.481  43.451   2.817
19862W        W83619  32.453  19.692  12.426
19863W        W83620   1.396  22.560   4.161
19864W        W83621   0.491  23.111   0.930
19865W        W83622   2.410   2.290  13.341
19866W        W83623  25.527   3.951   2.697
19867W        W83624  32.052  21.531  12.948
19868W        W83625   2.736   3.743  11.449
19869W        W83626  32.398  22.550   2.850
19870W        W83627   2.939  39.017  11.585
19871W        W83628   4.725  40.995   3.837
19872W        W83629  44.939  20.031   1.348
19873W        W83630   7.171  10.230   1.753
19874W        W83631  38.963  18.293   0.330
19875W        W83632  44.370  19.248  14.316
19876W        W83633  30.541  42.983  14.427
19877W        W83634   3.884  43.010  10.157
19878W        W83635  34.423  41.035   4.673
19879W        W83636  33.014   9.387  11.974
19880W        W83637  34.101  32.907   0.802
19881W        W83638   9.319  34.078   1.762
19882W        W83639  33.901   0.434   0.265
19883W        W83640  34.402  40.534   0.904
19884W        W83641  42.315  15.219  12.468
19885W        W83642   3.859   9.156   2.710
19886W        W83643  21.538   1.744   2.217
19887W        W83644  20.525  28.621   2.414
19888W        W83645  23.565  24.594   4.736
19889W        W83646   2.306   3.858  11.428
19890W        W83647  31.090  43.494  13.955
19891W        W83648  18.692   8.847   0.879
19892W        W83649   3.323  16.165  13.526
19893W        W83650   9.328  13.830   1.247
19894W        W83651   2.787  44.493  12.511
19895W        W83652  35.035  24.603  12.484
19896W        W83653  10.790   0.916  10.488
19897W        W83654  23.991  29.125  12.386
19898W        W83655  43.014  10.728   3.191
19899W        W83656  21.518   3.304  14.022
19900W        W83657  31.119  24.533   4.651
19901W        W83658  10.252  14.116   0.726
19902W        W83659   5.429  23.728  13.873
19903W        W83660  39.863   7.231   4.300
19904W        W83661  15.312  26.547   3.760
19905W        W83662  28.628   0.470   1.792
19906W        W83663  33.504  24.514  14.881
19907W        W83664  43.779  18.560   0.887
19908W        W83665  39.499  17.094  12.571
19909W        W83666   2.381   2.761   3.245
19910W        W83667   5.834  16.709   5.785
19911W        W83668  15.578  12.843   0.878
19912W        W83669   7.304  30.523   2.259
19913W        W83670  12.294  21.715  10.893
19914W        W83671  10.192  15.808  11.545
19915W        W83672  35.034   8.880   2.414
19916W        W83673  33.023  14.806  10.893
19917W        W83674   2.274  42.314  13.051
19918W        W83675  25.214   2.398  12.862
19919W        W83676   9.781  16.303   3.869
19920W        W83677  22.206  34.997  12.428
19921W        W83678  27.172  15.204   0.466
19922W        W83679  31.108  32.895   3.668
19923W        W83680  43.935  10.218   1.770
19924W        W83681   6.843  42.028  10.081
19925W        W83682  24.595  39.053   2.899
19926W        W83683  11.231  26.007   3.298
19927W        W83684   6.418  23.193  12.424
19928W        W83685  44.403  26.196   0.293
19929W        W83686   6.763  35.870   2.381
19930W        W83687  25.489  36.912   0.933
19931W        W83688  40.471  15.771   0.956
19932W        W83689  13.260   4.755  14.429
19933W        W83690   8.709  27.583  14.406
19934W        W83691  13.698  19.670   0.892
19935W        W83692  26.654  13.726  14.499
19936W        W83693  38.869  12.341  12.354
19937W        W83694  12.684  16.253   3.164
19938W        W83695  39.960   4.814   4.209
19939W        W83696  36.425  23.566  10.039
19940W        W83697  16.577  30.540   3.157
19941W        W83698   0.423  33.129   2.342
19942W        W83699  42.900   5.755  12.398
19943W        W83700  14.255  39.352  14.788
19944W        W83701  17.216  12.825   4.754
19945W        W83702  41.917  33.562   5.251
19946W        W83703  21.120  14.323  10.623
19947W        W83704  33.946  16.222  13.355
19948W        W83705  43.310  10.357   2.858
19949W        W83706  20.155  39.915  10.057
19950W        W83707  36.573  14.189   3.175
19951W        W83708   4.699  36.080  14.465
19952W        W83709  30.484  14.161  11.077
19953W        W83710  40.490  35.954  11.107
19954W        W83711  19.599  24.134  11.552
19955W        W83712  21.630  29.664   0.324
19956W        W83713  24.633  37.410  10.003
19957W        W83714  31.024  44.348  12.478
19958W        W83715   7.338  13.217   2.408
19959W        W83716  38.923  42.972  13.938
19960W        W83717   7.256  11.672  10.599
19961W        W83718   2.833  24.596   0.826
19962W        W83719  29.629  20.227  14.995
19963W        W83720   3.849  20.691  14.307
19964W        W83721  10.193  15.789   2.672
19965W        W83722   1.442  21.227  12.851
19966W        W83723  42.841  17.772   2.898
19967W        W83724  34.879  19.236   3.821
19968W        W83725  37.440  17.794   3.716
19969W        W83726  41.507   4.892   0.759
19970W        W83727   7.898  15.294   1.420
19971W        W83728  35.514   0.781   2.367
19972W        W83729  21.651  33.488  12.917
19973W        W83730  11.258  21.089   4.208
19974W        W83731  12.264  18.182  13.963
19975W        W83732   0.317  37.951  11.059
19976W        W83733  30.047  40.470   2.879
19977W        W83734  40.826   3.768  13.419
19978W        W83735  35.040   3.352   1.312
19979W        W83736  13.194   7.223  14.484
19980W        W83737  18.237   0.443  12.430
19981W        W83738   2.729  11.644  10.471
19982W        W83739  36.071   8.334   3.680
19983W        W83740  39.355  39.536  10.928
19984W        W83741  43.794  32.948  11.901
19985W        W83742  36.461  39.830   1.266
19986W        W83743  27.550  14.308  12.884
19987W        W83744   4.434  28.949   0.365
19988W        W83745   4.300   4.310  14.467
19989W        W83746   2.426  35.958   3.215
19990W        W83747  22.591   4.730  14.813
19991W        W83748  16.722  40.824   3.202
19992W        W83749  31.048  35.966   3.661
19993W        W83750  36.007  13.297  13.931
19994W        W83751  28.025  12.740   2.372
19995W        W83752  40.507  37.957  14.020
19996W        W83753   6.698  43.978   4.285
19997W        W83754  18.109   5.823  14.839
19998W        W83755  40.470  29.136   4.695
19999W        W83756  23.009   1.767   4.649
20000W        W83757  38.526  19.583  12.475
20001W        W83758   8.373  24.632  14.481
20002W        W83759  31.455   3.379  14.399
20003W        W83760  35.495  22.199  14.369
20004W        W83761  23.084  35.431   4.282
20005W        W83762  41.786  28.615   1.443
20006W        W83763  16.223  23.697   1.863
20007W        W83764  15.209   7.782   0.784
20008W        W83765   6.428  17.768   2.372
20009W        W83766  11.834  33.077   4.632
20010W        W83767  15.679  31.029  10.425
20011W        W83768  38.910  12.326  12.067
20012W        W83769  18.074  29.980  12.380
20013W        W83770   3.918  22.129  14.975
20014W        W83771  10.871   4.281  14.431
20015W        W83772  35.970  20.274  12.430
20016W        W83773  10.799  33.591  14.857
20017W        W83774  26.563   0.847   5.127
20018W        W83775  37.042  24.547  11.121
20019W        W83776  11.688  43.300   4.179
20020W        W83777  30.467  31.057  14.841
20021W        W83778  28.164  26.689   2.318
20022W        W83779  13.720  23.564  12.364
20023W        W83780  27.476   8.206   2.251
20024W        W83781  25.606  20.557  13.842
20025W        W83782  20.053  34.999   1.907
20026W        W83783  28.126  10.273   3.307
20027W        W83784   8.265  31.461   2.397
20028W        W83785  12.660   3.925  10.900
20029W        W83786  16.248   2.815   4.762
20030W        W83787  42.916  40.468   3.221
20031W        W83788   8.725  24.149   3.382
20032W        W83789   7.712   3.316   2.865
20033W        W83790  32.487   0.455   0.874
20034W        W83791  42.370  31.046   2.885
20035W        W83792  40.827   5.866  14.411
20036W        W83793  37.556  26.038   4.725
20037W        W83794   4.726  15.747  10.093
20038W        W83795  43.985  39.491  12.054
20039W        W83796  15.101  21.569   1.869
20040W        W83797  13.724   2.909  13.395
20041W        W83798  20.531  12.620   4.805
20042W        W83799  27.647   0.381   3.831
20043W        W83800  26.021   6.726  14.944
20044W        W83801  37.415  14.327  12.520
20045W        W83802   4.768  41.965   0.898
20046W        W83803   9.312   9.173   0.356
20047W        W83804   1.365   8.773  11.569
20048W        W83805   7.301  11.275  10.611
20049W        W83806   1.318  18.661   0.382
20050W        W83807  25.159  16.756  13.043
20051W        W83808  15.585  27.651  11.432
20052W        W83809  33.445  15.692   0.749
20053W        W83810  22.556   8.856  14.882
20054W        W83811  34.384  27.647   2.732
20055W        W83812  33.086  38.956   3.759
20056W        W83813  24.106  32.632   0.408
20057W        W83814  24.098   4.704   1.235
20058W        W83815  34.492  18.598  11.896
20059W        W83816  16.092  19.604   3.682
20060W        W83817  35.057   5.809  14.484
20061W        W83818  11.850  38.980   3.325
20062W        W83819  15.669   3.223   2.771
20063W        W83820  26.127   7.745   1.315
20064W        W83821  16.284  40.421  11.065
20065W        W83822  31.526  11.635  11.461
20066W        W83823   5.908  26.541  11.939
20067W        W83824  10.773   6.287   2.406
20068W        W83825  25.151  32.597   4.782
20069W        W83826  13.643  27.452  12.018
20070W        W83827   5.707  18.764  13.030
20071W        W83828  32.437  42.515  11.959
20072W        W83829  43.276  20.076  12.067
20073W        W83830  24.107  26.020  12.007
20074W        W83831  40.890  30.115   4.295
20075W        W83832  11.841  19.641   1.374
20076W        W83833   4.215  31.903  11.373
20077W        W83834  41.043  41.963  11.952
20078W        W83835  22.579  42.912  10.053
20079W        W83836  13.146   2.933   2.300
20080W        W83837  30.563  15.316   1.373
20081W        W83838  23.166  10.778  11.469
20082W        W83839  24.014   5.356   1.710
20083W        W83840   2.300  31.404  12.937
20084W        W83841  20.199  25.681   1.884
20085W        W83842   9.874   9.391  12.036
20086W        W83843  15.636  29.175  14.309
20087W        W83844  42.794   3.441   4.248
20088W        W83845   9.308  30.069   4.238
20089W        W83846  31.593  33.549   1.846
20090W        W83847  29.048   9.158  14.360
20091W        W83848  20.055   8.259  10.974
20092W        W83849   3.893  22.637  13.966
20093W        W83850  27.144   9.842  11.051
20094W        W83851   7.722  10.150   2.870
20095W        W83852   0.443  35.090   4.220
20096W        W83853   8.381   8.734   2.898
20097W        W83854  33.056  15.751  12.535
20098W        W83855  29.037   7.902   3.754
20099W        W83856  39.046  37.544   0.865
20100W        W83857   8.288  29.064   3.157
20101W        W83858  44.761  27.156  13.313
20102W        W83859  40.012  32.082   0.328
20103W        W83860  36.455  10.197   4.763
20104W        W83861  26.517  12.127   4.760
20105W        W83862  38.995  20.216  12.851
20106W        W83863  39.967   0.287   1.356
20107W        W83864  37.431  14.187   1.878
20108W        W83865  35.989  11.668  14.370
20109W        W83866  43.516  40.937   2.708
20110W        W83867   4.905  33.583  14.298
20111W        W83868  14.240  11.670   3.344
20112W        W83869  19.596  38.965   5.274
20113W        W83870  11.256  42.013  13.461
20114W        W83871  18.678   4.825   1.261
20115W        W83872   0.429  31.634  12.093
20116W        W83873  22.058  32.135  12.033
20117W        W83874  41.973   8.369  14.988
20118W        W83875  36.480  17.621  13.928
20119W        W83876  33.461  30.147   4.682
20120W        W83877   8.305  27.984  11.432
20121W        W83878   8.816  17.147  11.551
20122W        W83879  25.189  16.659   3.814
20123W        W83880  32.106  43.995   0.932
20124W        W83881   6.817  31.427   2.888
20125W        W83882  40.463   1.248   1.894
20126W        W83883  12.617  23.001   2.309
20127W        W83884  44.426  12.637  12.557
20128W        W83885  29.944  10.273  12.024
20129W        W83886  40.041  41.304   4.737
20130W        W83887  13.141  33.029   3.822
20131W        W83888  32.996  44.411   0.466
20132W        W83889  31.442  17.675   3.244
20133W        W83890  18.265   8.237   2.789
20134W        W83891  36.378  34.407  14.333
20135W        W83892   5.407  30.500  13.044
20136W        W83893  17.573  19.064  10.455
20137W        W83894  33.927  13.112   3.858
20138W        W83895  21.679  25.712  13.846
20139W        W83896  31.982  16.309  10.906
20140W        W83897  28.446  11.199  12.349
20141W        W83898   1.789   5.272   0.268
20142W        W83899   8.799   5.746  10.455
20143W        W83900  37.023  16.730  13.362
20144W        W83901  44.877  29.606   3.267
20145W        W83902   7.665   3.938  10.441
20146W        W83903  14.637   3.352   3.256
20147W        W83904  26.122  29.021  12.957
20148W        W83905  38.563   3.243   0.857
20149W        W83906  20.635   3.405   1.347
20150W        W83907   5.930  34.417   2.858
20151W        W83908  16.745  12.146  14.899
20152W        W83909  43.495   9.837   0.472
20153W        W83910  35.438  25.160   2.361
20154W        W83911  29.007  30.139  11.123
20155W        W83912  17.096   1.390   3.252
20156W        W83913   0.826   9.218   3.794
20157W        W83914  27.021  21.158  14.465
20158W        W83915  30.429  12.282   0.877
20159W        W83916  35.445   2.884  12.381
20160W        W83917  36.414   5.209  14.330
20161W        W83918  23.667  34.478  14.949
20162W        W83919  14.283   0.787   4.788
20163W        W83920   5.891  19.595   0.444
20164W        W83921  23.613  41.463   0.294
20165W        W83922  13.243  40.018   1.233
20166W        W83923  23.538  19.623   1.798
20167W        W83924  25.985  27.514   4.299
20168W        W83925  29.066   9.279  14.962
20169W        W83926  29.436  29.540   0.395
20170W        W83927   1.966  43.287   3.371
20171W        W83928  35.944  30.081   0.255
20172W        W83929  33.552  35.053  14.019
20173W        W83930  20.240  22.733  10.640
20174W        W83931   1.328   9.788   0.289
20175W        W83932  37.553  20.550  12.984
20176W        W83933  36.585  18.162   0.910
20177W        W83934   4.444   7.887   0.745
20178W        W83935  39.364   3.291  12.539
20179W        W83936   8.369  19.644  13.460
20180W        W83937   6.198  14.746   3.226
20181W        W83938  22.023  36.456  11.381
20182W        W83939   4.276  16.636   0.912
20183W        W83940  23.206  19.713   2.900
20184W        W83941  16.802  44.900   9.537
20185W        W83942   0.873  19.609  13.487
20186W        W83943  24.037  43.499  12.428
20187W        W83944  25.199   5.849  13.364
20188W        W83945  23.012  39.441   3.160
20189W        W83946  14.242  25.133  13.869
20190W        W83947  20.136  13.317   1.420
20191W        W83948  37.519  41.300  10.109
20192W        W83949  24.669  13.169   3.300
20193W        W83950   1.360  31.429  12.465
20194W        W83951   2.235  35.958  13.966
20195W        W83952   9.771  29.932  13.530
20196W        W83953   1.428  13.316  11.380
20197W        W83954   3.757   0.400   4.333
20198W        W83955   0.333  31.501   3.798
20199W        W83956  24.153  10.312   4.302
20200W        W83957  41.998  34.371  11.961
20201W        W83958   3.943  23.057  10.587
20202W        W83959  33.947   7.221   0.383
20203W        W83960   5.384  35.593   1.761
20204W        W83961  17.712  16.109  13.322
20205W        W83962   3.391  37.446  14.842
20206W        W83963  24.554  27.631   2.411
20207W        W83964  39.990  27.943  10.956
20208W        W83965   9.753  35.466  11.941
20209W        W83966   4.875   7.796  12.574
20210W        W83967   2.423  23.210  14.868
20211W        W83968  25.473  12.198  11.955
20212W        W83969  19.261  16.790   2.247
20213W        W83970   9.884  23.703  13.476
20214W        W83971  13.688  42.522   0.330
20215W        W83972  28.631  44.792   1.881
20216W        W83973  11.180  15.085  12.504
20217W        W83974   7.378  11.726  13.839
20218W        W83975  11.860  15.725   3.733
20219W        W83976  28.558   9.713  12.893
20220W        W83977  40.880  16.628   0.910
20221W        W83978   5.858   2.407   0.302
20222W        W83979  12.822  13.721   2.242
20223W        W83980  43.301   4.864   2.267
20224W        W83981  40.318  41.462  10.498
20225W        W83982  24.144  38.928  10.614
20226W        W83983   0.349  36.096  13.014
20227W        W83984   1.407  33.392  10.931
20228W        W83985   8.898  31.007  10.987
20229W        W83986   0.936  18.184   9.955
20230W        W83987   0.929  36.528   4.203
20231W        W83988  44.951   1.781  13.918
20232W        W83989  44.284  33.602  13.499
20233W        W83990   2.722  26.558  12.026
20234W        W83991  42.996  12.767   1.414
20235W        W83992  24.501  14.207   3.255
20236W        W83993  42.504  20.209   0.738
20237W        W83994  19.194   2.246  11.581
20238W        W83995  13.243  41.452  12.871
20239W        W83996   3.917  40.385  13.491
20240W        W83997  20.638  17.085   3.347
20241W        W83998  17.647   5.915   0.282
20242W        W83999   3.417  18.669  11.069
20243W        W84000  33.068  29.574  10.022
20244W        W84001  37.543  28.512  13.819
20245W        W84002  40.491  36.094  14.788
20246W        W84003  44.942   6.362   4.721
20247W        W84004  10.164  16.243   2.206
20248W        W84005   8.256  19.118   4.826
20249W        W84006  25.670  13.273  12.987
20250W        W84007  39.497  41.863  10.591
20251W        W84008  34.542  25.561  13.470
20252W        W84009  38.077  44.482  12.530
20253W        W84010  37.458   9.150   1.858
20254W        W84011  44.917  32.569   0.414
20255W        W84012  23.038  43.505   2.856
20256W        W84013  21.622  27.166  12.896
20257W        W84014  16.752   8.875   2.331
20258W        W84015  13.701  28.962   3.709
20259W        W84016  12.777   5.888  11.407
20260W        W84017  32.092  42.509   0.251
20261W        W84018  11.710  39.929   2.815
20262W        W84019  29.055  22.582   3.730
20263W        W84020  10.208  25.127  11.514
20264W        W84021   1.888  36.070  12.028
20265W        W84022  33.899  31.627   0.947
20266W        W84023  38.465   8.659  11.430
20267W        W84024   9.377  25.678   3.196
20268W        W84025  20.065   7.748  13.473
20269W        W84026   0.481  41.917   3.797
20270W        W84027  31.505  40.338   1.296
20271W        W84028  37.553   6.771  14.407
20272W        W84029  42.962  23.525   0.265
20273W        W84030  30.910  14.790   1.840
20274W        W84031   8.792  24.543  14.290
20275W        W84032  15.640   8.673  14.891
20276W        W84033  40.356   5.280  14.840
20277W        W84034   2.235  25.165   1.224
20278W        W84035   3.419   2.399  11.590
20279W        W84036  34.093  17.286  11.020
20280W        W84037  13.188   7.240  13.327
20281W        W84038  10.845  42.899  10.636
20282W        W84039   4.702   1.819  10.979
20283W        W84040   8.367   1.412  13.888
20284W        W84041  21.620  40.003   1.287
20285W        W84042  28.048  17.129  13.927
20286W        W84043  26.670  26.600  10.098
20287W        W84044  20.094  20.047  12.504
20288W        W84045   0.383   5.809  11.909
20289W        W84046  22.507  27.959   0.958
20290W        W84047  26.533  11.319   0.246
20291W        W84048  18.698  19.705  11.000
20292W        W84049  23.546   9.277   2.419
20293W        W84050  24.544   9.195   2.207
20294W        W84051  26.987  30.439   2.288
20295W        W84052   1.846  20.570   3.302
20296W        W84053  25.174  37.964   1.435
20297W        W84054   9.302  32.117   4.231
20298W        W84055  28.091  20.671   4.320
20299W        W84056  24.176  15.139  10.433
20300W        W84057   9.765   7.296  14.865
20301W        W84058  36.993  22.538   4.258
20302W        W84059  29.140  20.176   4.241
20303W        W84060   9.744   3.285  14.498
20304W        W84061  16.096   1.872   3.727
20305W        W84062  22.016  30.096   3.223
20306W        W84063   6.183  36.552  10.147
20307W        W84064  33.392  29.092  11.420
20308W        W84065  30.095  40.947   4.670
20309W        W84066   4.933   2.333  11.462
20310W        W84067   7.789  37.366   1.810
20311W        W84068  43.466  41.508   2.356
20312W        W84069  16.701  14.690  14.429
20313W        W84070  29.433   8.799  10.407
20314W        W84071  42.942  36.390   1.284
20315W        W84072  41.886  34.474  11.497
20316W        W84073  33.529  15.729  13.888
20317W        W84074  32.037  27.162   5.624
20318W        W84075  40.002   4.747   1.723
20319W        W84076  35.557   8.246   1.758
20320W        W84077   6.784  18.674  10.578
20321W        W84078  23.214  37.871  13.863
20322W        W84079  19.740   6.206  12.040
20323W        W84080  18.604   4.396   4.211
20324W        W84081  10.305  10.312  10.426
20325W        W84082  32.128   5.378   4.760
20326W        W84083  18.673  38.433  11.377
20327W        W84084  41.476  27.066   1.744
20328W        W84085  27.595  15.319  14.848
20329W        W84086  43.788  41.831  14.327
20330W        W84087   8.702   1.905   0.384
20331W        W84088  12.660  14.786  14.892
20332W        W84089  25.516   9.672  14.289
20333W        W84090   7.229  21.573   0.892
20334W        W84091  32.928  32.457   0.773
20335W        W84092  13.201   8.277  12.892
20336W        W84093  10.766  30.422  14.380
20337W        W84094  29.480  10.333  10.481
20338W        W84095  42.402  31.500   0.430
20339W        W84096   2.391  21.022   4.624
20340W        W84097  31.087  31.137   1.892
20341W        W84098  38.400  19.649   1.432
20342W        W84099  41.356  13.791  14.952
20343W        W84100   4.231  24.192  14.947
20344W        W84101  30.649  43.399   3.868
20345W        W84102  38.830  28.960  13.908
20346W        W84103  24.186  25.578  10.493
20347W        W84104   9.394  21.688   3.296
20348W        W84105  42.449  40.373   0.440
20349W        W84106  37.498  36.870  14.914
20350W        W84107  17.759   0.805   9.959
20351W        W84108  34.996  26.182  11.975
20352W        W84109   9.718   2.925  14.763
20353W        W84110  42.340  12.304  14.952
20354W        W84111  22.224  42.436   1.810
20355W        W84112   9.875  33.595  12.086
20356W        W84113   7.315  33.440   0.837
20357W        W84114  14.275   7.701   2.737
20358W        W84115  23.571  29.527   2.846
20359W        W84116   5.306  41.009  14.800
20360W        W84117  29.067  16.585   3.364
20361W        W84118  37.081  22.552   1.234
20362W        W84119  31.087  15.098   1.409
20363W        W84120  20.214  12.245   2.775
20364W        W84121  25.668  35.857   4.148
20365W        W84122  38.008  21.080   3.218
20366W        W84123  23.733   3.256  13.469
20367W        W84124  19.633  20.682   0.785
20368W        W84125  43.829  19.111  12.481
20369W        W84126  31.925  23.190   1.740
20370W        W84127   5.363  18.738   0.435
20371W        W84128  20.082  10.797  11.125
20372W        W84129  41.360   4.788  13.803
20373W        W84130  21.038  41.500  11.125
20374W        W84131   5.402  21.758  11.023
20375W        W84132   9.838   5.793   1.875
20376W        W84133   3.931  25.992   1.737
20377W        W84134   0.325  13.600   3.326
20378W        W84135  43.936  44.330  13.824
20379W        W84136  39.867  39.465   0.262
20380W        W84137  11.664   7.394   4.187
20381W        W84138  21.190  28.982   3.640
20382W        W84139  32.123   3.728  12.990
20383W        W84140  13.601  30.098   0.269
20384W        W84141  26.493  30.444  14.470
20385W        W84142  34.520  36.023   1.273
20386W        W84143  20.646  36.555   4.258
20387W        W84144  41.040  36.058   3.812
20388W        W84145  14.621  27.633   4.325
20389W        W84146   5.383   1.249   2.190
20390W        W84147  23.561  25.657   4.268
20391W        W84148  37.547  20.054  14.895
20392W        W84149   6.339  32.992   0.956
20393W        W84150  27.940  30.456  12.910
20394W        W84151   6.224  33.438   3.320
20395W        W84152  29.669  30.035  13.024
20396W        W84153   5.224  24.699  10.606
20397W        W84154  37.436  31.523  10.896
20398W        W84155  28.533  38.355   1.414
20399W        W84156   1.818  41.307   3.349
20400W        W84157  15.085  36.922   2.207
20401W        W84158  10.835  38.950   3.643
20402W        W84159  41.445  38.428   2.851
20403W        W84160   6.802   2.326   2.749
20404W        W84161  36.901   5.311   0.264
20405W        W84162  33.471  15.171   4.816
20406W        W84163  29.603  32.133  10.072
20407W        W84164  36.045   4.763  12.020
20408W        W84165  41.511  19.170   0.329
20409W        W84166  14.668  17.146  14.357
20410W        W84167  38.542  32.530   1.348
20411W        W84168  25.690  23.093  13.855
20412W        W84169  35.502   3.871   5.765
20413W        W84170  41.354  32.988   4.224
20414W        W84171  10.359  43.858  10.912
20415W        W84172  27.691  20.559  10.559
20416W        W84173  36.476  13.701   2.765
20417W        W84174   5.903  20.077  14.508
20418W        W84175   6.854  25.519   4.736
20419W        W84176  39.357  21.127  10.972
20420W        W84177  24.661  12.223  14.485
20421W        W84178  25.628   7.740   0.817
20422W        W84179  26.685  34.978  12.429
20423W        W84180   0.364  42.775  14.916
20424W        W84181   0.408   1.978   3.724
20425W        W84182   1.359   1.852   1.309
20426W        W84183   7.386  38.997  12.998
20427W        W84184   7.732   9.205   2.674
20428W        W84185   0.289  19.268   1.732
20429W        W84186  24.518  29.949  11.600
20430W        W84187   6.920  32.507   4.314
20431W        W84188  11.781  11.348  12.542
20432W        W84189  42.837  27.980   3.815
20433W        W84190  18.237  12.774   1.270
20434W        W84191  39.496   5.250  11.970
20435W        W84192  33.576  14.292   4.315
20436W        W84193  21.661  32.054   0.774
20437W        W84194  34.091   7.383  14.817
20438W        W84195  41.932  36.389   3.209
20439W        W84196  41.326  35.937  11.455
20440W        W84197  32.946  23.138   4.339
20441W        W84198   5.786  37.471  12.868
20442W        W84199  13.773   0.955  11.905
20443W        W84200  33.600  16.206   1.336
20444W        W84201  11.850  19.155  14.815
20445W        W84202  23.208  31.940  14.341
20446W        W84203  40.941  17.738   3.684
20447W        W84204  43.003  15.647  14.806
20448W        W84205  34.390  14.766   3.850
20449W        W84206  21.582  43.974   3.252
20450W        W84207  15.672   6.427  14.903
20451W        W84208  37.547  39.810  12.540
20452W        W84209  39.497  44.412  12.448
20453W        W84210  44.816  28.982  11.540
20454W        W84211  10.735  15.326  13.035
20455W        W84212   5.307  36.038  12.012
20456W        W84213   7.675  33.041   1.234
20457W        W84214  38.538  37.072   1.706
20458W        W84215  26.671  33.026   1.931
20459W        W84216   8.884  12.630  11.991
20460W        W84217  43.000  29.149   3.681
20461W        W84218  21.200   0.981  13.453
20462W        W84219   4.311   3.319  11.383
20463W        W84220  13.719   4.360  13.329
20464W        W84221  44.865   8.184   1.922
20465W        W84222  10.757  12.248  10.939
20466W        W84223  32.441  22.536  11.861
20467W        W84224  36.034  32.530   1.731
20468W        W84225  16.190  37.993   0.419
20469W        W84226  15.737  16.296  10.113
20470W        W84227  39.979  20.215  13.958
20471W        W84228  11.791  29.440   2.776
20472W        W84229   5.801  20.605  12.969
20473W        W84230  43.974  38.032  12.875
20474W        W84231  11.264  12.352   1.694
20475W        W84232   4.359   8.242   1.712
20476W        W84233   4.219  34.109  14.789
20477W        W84234  14.291  29.426   3.719
20478W        W84235  18.208   2.919  12.546
20479W        W84236  37.418  43.006   3.824
20480W        W84237  19.064  16.806   1.749
20481W        W84238  41.865  44.479   3.746
20482W        W84239   6.684  39.363   5.185
20483W        W84240  13.224  39.960   0.844
20484W        W84241  31.609   2.944   1.892
20485W        W84242  28.680  38.399   4.675
20486W        W84243  19.126   6.821  14.370
20487W        W84244   6.829  34.568  11.475
20488W        W84245  19.615  43.466   4.170
20489W        W84246   7.193   1.386   0.787
20490W        W84247  19.083   8.761   2.715
20491W        W84248  28.041  17.197  12.007
20492W        W84249  43.449   8.345  14.289
20493W        W84250  30.952  18.275   3.236
20494W        W84251  33.455  14.281   2.741
20495W        W84252  13.833   1.244   4.677
20496W        W84253  32.967   2.246  13.049
20497W        W84254  24.481  38.022  14.860
20498W        W84255  19.233   2.426   1.797
20499W        W84256  27.665   9.169  14.991
20500W        W84257   7.244  36.982  12.375
20501W        W84258   9.171  32.587   1.234
20502W        W84259   8.818  19.075   3.709
20503W        W84260  18.594  11.248   4.328
20504W        W84261   9.269  42.964   3.684
20505W        W84262  16.641  18.270   2.724
20506W        W84263  32.994  35.551  10.428
20507W        W84264  34.945  44.337   2.196
20508W        W84265  23.527  20.051   0.359
20509W        W84266  38.829  31.547   0.861
20510W        W84267  35.856  20.257   4.761
20511W        W84268  29.984   4.841  11.876
20512W        W84269   4.847  30.619   2.242
20513W        W84270  21.613  27.644  14.361
20514W        W84271  15.594  11.840  11.421
20515W        W84272  42.286   1.830   3.170
20516W        W84273   4.398  31.478   1.837
20517W        W84274  24.111  35.070  11.002
20518W        W84275  44.479  25.981   3.347
20519W        W84276  40.519  31.430   0.868
20520W        W84277   2.425  38.843  14.804
20521W        W84278  44.397  27.171  13.845
20522W        W84279  37.435  43.329  14.363
20523W        W84280  12.314  33.505  14.297
20524W        W84281  39.029  41.418  13.484
20525W        W84282  10.775  30.459  11.989
20526W        W84283  26.072  20.747   3.657
20527W        W84284   4.767  15.712   0.376
20528W        W84285  39.442  37.832  14.342
20529W        W84286  20.200  18.564  11.609
20530W        W84287  30.425   8.242   1.339
20531W        W84288  40.439  25.122   0.839
20532W        W84289  37.006  33.507  11.028
20533W        W84290   4.380  40.323   9.964
20534W        W84291  19.725  31.569  12.839
20535W        W84292   0.965  27.641  14.784
20536W        W84293  39.888  31.975   4.212
20537W        W84294   7.302   4.400   0.400
20538W        W84295  40.522   8.196  10.534
20539W        W84296  22.131   6.218   3.304
20540W        W84297  23.113   5.232   1.265
20541W        W84298  39.872   7.372  10.960
20542W        W84299  25.569  27.041  12.862
20543W        W84300  32.480  43.504  12.826
20544W        W84301  29.545  13.687  10.466
20545W        W84302  42.032  21.620  12.862
20546W        W84303  24.011  33.390   1.258
20547W        W84304  14.302  36.418   4.699
20548W        W84305  34.561  41.332   2.772
20549W        W84306  15.647   6.922   4.320
20550W        W84307  16.731   9.746   3.348
20551W        W84308  14.177  12.730  13.496
20552W        W84309  10.768   6.908  12.973
20553W        W84310  32.968   9.702   1.824
20554W        W84311  39.893  32.572  14.960
20555W        W84312  21.647  19.080   3.333
20556W        W84313   2.241   9.161   3.775
20557W        W84314  35.567   9.719   1.255
20558W        W84315  22.619  21.702   1.918
20559W        W84316  30.559  31.615  10.082
20560W        W84317   9.372  22.111  11.006
20561W        W84318  13.720  15.700  11.453
20562W        W84319  16.169  38.478  14.771
20563W        W84320  17.694  18.238  11.918
20564W        W84321   7.753  19.697   2.785
20565W        W84322   3.339  24.179   1.801
20566W        W84323  10.225  40.312   2.413
20567W        W84324  35.560  38.890  14.918
20568W        W84325   6.372   9.752  12.071
20569W        W84326   5.778   5.310   3.316
20570W        W84327  33.022  41.313  13.884
20571W        W84328  27.116   3.317   1.870
20572W        W84329  31.602  34.868  11.104
20573W        W84330  19.734  17.105  14.305
20574W        W84331  13.144  20.744   1.359
20575W        W84332   3.774  37.402  14.878
20576W        W84333  13.276   8.181   4.626
20577W        W84334  17.101  15.272   3.787
20578W        W84335  15.588  19.751  14.311
20579W        W84336  26.521  14.647  13.839
20580W        W84337  39.407  29.047   1.314
20581W        W84338  22.602  30.531  13.900
20582W        W84339   1.923   5.839  13.347
20583W        W84340   5.882   5.359   1.218
20584W        W84341  25.212  31.455   0.803
20585W        W84342  24.680  24.490   2.382
20586W        W84343   7.206  29.941  14.004
20587W        W84344   7.707  43.381   3.365
20588W        W84345   0.921   8.175  14.423
20589W        W84346   6.383  30.973   4.716
20590W        W84347   4.792  43.815  14.806
20591W        W84348  24.694  15.133  11.080
20592W        W84349  10.816   8.898   4.605
20593W        W84350  28.975   5.799   4.607
20594W        W84351  21.243  12.219   1.840
20595W        W84352  15.320  40.547  10.610
20596W        W84353  20.705  21.597  11.404
20597W        W84354   9.332   6.348   1.801
20598W        W84355  29.561   5.919   2.349
20599W        W84356   3.451  13.793  13.962
20600W        W84357   3.922  40.818  14.876
20601W        W84358  32.943   5.821   2.758
20602W        W84359  21.676   8.830   0.478
20603W        W84360  27.092  24.176   0.421
20604W        W84361  30.104  19.694  14.817
20605W        W84362  16.594  27.960   4.256
20606W        W84363  14.204  11.131  13.819
20607W        W84364   6.857  32.527  11.941
20608W        W84365  23.605  34.397   3.350
20609W        W84366  11.151  14.287  12.086
20610W        W84367  14.326  39.902  11.088
20611W        W84368  38.822  17.662  12.918
20612W        W84369  27.984  16.778   0.423
20613W        W84370  34.920   7.751   5.264
20614W        W84371  42.408  21.250  11.391
20615W        W84372  10.827   0.898  14.775
20616W        W84373  27.544  28.488   3.717
20617W        W84374  38.401  20.099   2.189
20618W        W84375  34.101  34.549   1.785
20619W        W84376   7.204   9.857  12.880
20620W        W84377  27.087  19.248   4.838
20621W        W84378   9.390  43.964  13.017
20622W        W84379   9.363   1.379   0.322
20623W        W84380  38.389  12.644   0.739
20624W        W84381  40.307  44.353   0.965
20625W        W84382  35.519  26.558   3.186
20626W        W84383  10.226  36.417   4.146
20627W        W84384  32.508   1.839  10.427
20628W        W84385  31.585   0.779  14.450
20629W        W84386  26.543   1.447  12.913
20630W        W84387  26.203  38.014  12.447
20631W        W84388   9.675  28.592  14.343
20632W        W84389   6.878   6.236   2.371
20633W        W84390  13.279  41.465  10.565
20634W        W84391  13.709  14.764  11.515
20635W        W84392  31.006   6.193   3.306
20636W        W84393  27.648   6.720  11.371
20637W        W84394   6.334   0.858  12.992
20638W        W84395  31.582  23.050  13.510
20639W        W84396   3.258  29.546  10.541
20640W        W84397  32.630  15.250  14.513
20641W        W84398   8.375  40.444   3.298
20642W        W84399   8.372  28.485  12.021
20643W        W84400   9.864   9.758  13.347
20644W        W84401  25.137  41.458  10.586
20645W        W84402  42.779  36.871  14.445
20646W        W84403   2.792   6.877   0.811
20647W        W84404   5.742   1.792   4.765
20648W        W84405  36.555  44.920   0.779
20649W        W84406  23.653   4.212  11.557
20650W        W84407  20.242  41.527   4.323
20651W        W84408  29.079   5.213   2.782
20652W        W84409  12.810  27.617  11.459
20653W        W84410  19.151  30.925  11.056
20654W        W84411  23.726  11.837  14.833
20655W        W84412  14.176  18.750   2.849
20656W        W84413  38.543  31.439  10.481
20657W        W84414  39.405  21.647   3.203
20658W        W84415   2.405  19.049   2.831
20659W        W84416  44.961  20.732   4.320
20660W        W84417  42.931   4.760   4.633
20661W        W84418  12.206  34.417  11.897
20662W        W84419   6.318  30.004  12.350
20663W        W84420  39.020  43.478  14.985
20664W        W84421  36.866  30.428  14.904
20665W        W84422  10.736  32.050   3.643
20666W        W84423  36.916  39.871   0.305
20667W        W84424  11.261  13.818   4.272
20668W        W84425  44.799  40.821  12.979
20669W        W84426  32.104  12.767   1.847
20670W        W84427  30.933  25.575   1.388
20671W        W84428  42.997   5.279   1.726
20672W        W84429  41.976  22.082   1.695
20673W        W84430  33.963   1.865   2.840
20674W        W84431  34.019  44.927  14.800
20675W        W84432  42.779  38.373   2.377
20676W        W84433  10.872  18.122   0.354
20677W        W84434  24.577  41.433   3.318
20678W        W84435  37.870  34.961  14.788
20679W        W84436  30.570  41.364   1.742
20680W        W84437  18.608  40.404   4.634
20681W        W84438  21.682  20.214  14.004
20682W        W84439   8.332  25.568   0.352
20683W        W84440  43.442  11.862  11.463
20684W        W84441  20.229  21.737  12.927
20685W        W84442   0.762   1.846  13.953
20686W        W84443   4.942  39.440   3.264
20687W        W84444  35.078  38.975   2.261
20688W        W84445   2.856  25.632  12.993
20689W        W84446  42.954  26.509   0.425
20690W        W84447  43.325  21.692  12.874
20691W        W84448   8.745  26.097  14.488
20692W        W84449  36.522  18.562   1.710
20693W        W84450  33.076  13.326   3.716
20694W        W84451  28.477  13.114   2.694
20695W        W84452  24.199  38.472  14.900
20696W        W84453  11.841  36.070   5.272
20697W        W84454  31.962  26.069  10.613
20698W        W84455  42.391  10.153   4.661
20699W        W84456  29.943  14.807   2.180
20700W        W84457  19.643  13.843  12.369
20701W        W84458  24.586  32.053  10.451
20702W        W84459  15.677   5.254  13.021
20703W        W84460  36.551  29.026  13.338
20704W        W84461  21.585  25.546  11.458
20705W        W84462   9.203   2.807   1.319
20706W        W84463  19.073  26.660   2.745
20707W        W84464  38.545   3.740  12.932
20708W        W84465  12.252   4.255   3.382
20709W        W84466  42.779   3.214   2.228
20710W        W84467   2.864  30.482   4.190
20711W        W84468  12.661   0.826   2.873
20712W        W84469  14.801  43.935   4.653
20713W        W84470  33.096  20.548  13.903
20714W        W84471  18.593  15.739  13.493
20715W        W84472   2.878  40.877   0.801
20716W        W84473  15.704   8.339  12.858
20717W        W84474  34.051  27.623  12.870
20718W        W84475  19.588  20.210   1.249
20719W        W84476  41.855   2.850  10.910
20720W        W84477  12.282  28.936  11.960
20721W        W84478  27.532  38.901  10.518
20722W        W84479  11.751  12.221  10.926
20723W        W84480   3.413  17.588   2.816
20724W        W84481  35.450  28.531  14.882
20725W        W84482  43.957  44.408  13.548
20726W        W84483  12.749  25.666  14.311
20727W        W84484  24.546  11.629  11.066
20728W        W84485  29.163  32.452   4.762
20729W        W84486  20.057  28.940  14.381
20730W        W84487  36.420  25.496  12.397
20731W        W84488  41.441  25.185  14.942
20732W        W84489  19.731   0.309  10.993
20733W        W84490   4.332  20.260  11.541
20734W        W84491  20.040  12.276   2.244
20735W        W84492  38.502  30.444  13.456
20736W        W84493  42.516  16.812  10.642
20737W        W84494  42.925  44.798   0.830
20738W        W84495  19.284  41.526  13.884
20739W        W84496  11.317  26.156  10.630
20740W        W84497  14.303  26.461  13.929
20741W        W84498   6.335  39.438  11.107
20742W        W84499  14.117  15.104  10.910
20743W        W84500   9.654  20.761  11.996
20744W        W84501  21.607   3.456  10.577
20745W        W84502  33.057  40.978  11.069
20746W        W84503  20.561  33.123  12.990
20747W        W84504  36.917   7.229  13.030
20748W        W84505  16.784  25.575   1.865
20749W        W84506  44.433  29.933  12.863
20750W        W84507  29.073   5.197   1.308
20751W        W84508   5.432  17.595  13.897
20752W        W84509  15.175   0.286  14.847
20753W        W84510  35.043  32.399  11.389
20754W        W84511  39.015   6.362   5.202
20755W        W84512  30.003  20.201   3.667
20756W        W84513  40.809  14.190   0.933
20757W        W84514  29.055  36.430   1.759
20758W        W84515   8.252  15.776  14.865
20759W        W84516  38.471  21.593   0.776
20760W        W84517  42.335  19.062   3.228
20761W        W84518  42.007   5.292   2.812
20762W        W84519  42.941  14.616  13.348
20763W        W84520  39.817  28.569   2.893
20764W        W84521  22.084   2.237   2.798
20765W        W84522  29.031  15.241  11.612
20766W        W84523  37.007  21.074  11.943
20767W        W84524  41.909   3.730   2.665
20768W        W84525  13.824  38.551   2.706
20769W        W84526   8.247  32.580  14.026
20770W        W84527  25.130   0.848  13.427
20771W        W84528  27.002  37.903   1.926
20772W        W84529  20.197  18.158   4.170
20773W        W84530   4.419  16.191  12.019
20774W        W84531  10.178   4.295   4.160
20775W        W84532  40.414  24.610   2.686
20776W        W84533  42.417   5.359  14.908
20777W        W84534   1.864   6.759   3.244
20778W        W84535   1.936  19.060  11.517
20779W        W84536  26.525  43.388   1.342
20780W        W84537  19.704  20.227  12.904
20781W        W84538  31.932  34.006  10.897
20782W        W84539  44.989  25.098   5.090
20783W        W84540  14.106  28.644  14.850
20784W        W84541  22.613   1.395  10.118
20785W        W84542  11.358  31.037  11.488
20786W        W84543   6.764  24.533  11.910
20787W        W84544  26.595   4.236  11.972
20788W        W84545  36.542   6.296   0.737
20789W        W84546  14.774   5.728   2.789
20790W        W84547  29.923  34.869  11.903
20791W        W84548  11.636  27.986   3.730
20792W        W84549  23.132  33.481   9.962
20793W        W84550  21.619   0.425   1.397
20794W        W84551  11.720  18.277   2.358
20795W        W84552  33.488  33.477   3.701
20796W        W84553  17.662   2.230   1.888
20797W        W84554  33.425  10.184   0.418
20798W        W84555   9.675  36.442  14.842
20799W        W84556   6.833  34.962   1.752
20800W        W84557  26.961  31.627   0.468
20801W        W84558  15.790  25.172  11.033
20802W        W84559  14.622  15.758   2.844
20803W        W84560  27.611  33.542  12.030
20804W        W84561   8.189  33.591   3.666
20805W        W84562  36.488  17.619   1.420
20806W        W84563  29.972   2.403   2.252
20807W        W84564  12.772  37.469   3.218
20808W        W84565  44.782  27.493   1.713
20809W        W84566  11.752  25.702  14.953
20810W        W84567  24.077  28.110   1.825
20811W        W84568  29.578   9.395  13.316
20812W        W84569  42.793  16.575  11.915
20813W        W84570  29.997  14.747  12.494
20814W        W84571  32.544  38.972   1.885
20815W        W84572  12.827   6.392  10.997
20816W        W84573  41.994  31.037  10.410
20817W        W84574  27.523  42.321  14.951
20818W        W84575  25.567  21.729  12.520
20819W        W84576   9.759  44.333   2.857
20820W        W84577  22.246  41.840   1.745
20821W        W84578  25.477  36.957   1.354
20822W        W84579  39.050  44.492   0.817
20823W        W84580   9.191  32.965   0.823
20824W        W84581  32.561  28.993   3.821
20825W        W84582  37.039  20.273   0.751
20826W        W84583   9.663  22.203   2.762
20827W        W84584  15.802  39.482   3.155
20828W        W84585  41.801   6.277  10.907
20829W        W84586  17.693  38.433  14.812
20830W        W84587   1.864  31.442   1.275
20831W        W84588  13.675   8.276   0.795
20832W        W84589  31.445  16.113   5.759
20833W        W84590  43.010  44.480   4.646
20834W        W84591  33.923  39.032   0.395
20835W        W84592  43.503  40.397   0.439
20836W        W84593  17.796  14.734  11.901
20837W        W84594  32.049   3.779  12.457
20838W        W84595   0.321  44.821  12.575
20839W        W84596  26.570  13.187   3.323
20840W        W84597  22.193   0.470  13.524
20841W        W84598  40.401  35.511  11.897
20842W        W84599  38.487  44.905  14.876
20843W        W84600  32.031  33.480   1.443
20844W        W84601   1.789  30.501  11.573
20845W        W84602  44.385   4.371   4.178
20846W        W84603   8.264  14.673  13.378
20847W        W84604  35.468  15.123   1.820
20848W        W84605   8.285  36.374  14.929
20849W        W84606  16.758   3.722  13.335
20850W        W84607   4.937  22.612  14.908
20851W        W84608  14.734  14.720  10.892
20852W        W84609  39.432  25.171   2.273
20853W        W84610  20.566  21.203   1.302
20854W        W84611  24.015  36.448  10.581
20855W        W84612  33.477  20.232  10.888
20856W        W84613  20.689  22.647  11.942
20857W        W84614  13.189  42.346   3.264
20858W        W84615  42.430  36.375  11.517
20859W        W84616  11.179   8.240   4.837
20860W        W84617  26.162  14.627   3.254
20861W        W84618   5.731   9.890  13.520
20862W        W84619  39.388  13.178   0.351
20863W        W84620  42.975  13.649   1.304
20864W        W84621  20.562   8.298  14.338
20865W        W84622  11.275  40.948  13.856
20866W        W84623   3.422  11.290   0.917
20867W        W84624  18.095   7.813  11.459
20868W        W84625  25.502   8.353   2.864
20869W        W84626  44.409   9.769  12.069
20870W        W84627  35.557  33.110   4.165
20871W        W84628   3.422  21.524   1.383
20872W        W84629  32.442  28.982   0.867
20873W        W84630   5.315  16.688   5.296
20874W        W84631  13.320  33.880  11.390
20875W        W84632  23.026  17.219   4.284
20876W        W84633  42.018  16.770   4.614
20877W        W84634  36.057   3.742  12.525
20878W        W84635   2.842  23.993   3.300
20879W        W84636  20.088  17.651   4.600
20880W        W84637  35.538   3.726  10.080
20881W        W84638   8.898  35.911   3.197
20882W        W84639   5.826  24.135   3.290
20883W        W84640  15.802  16.761   1.927
20884W        W84641  25.687  38.391   4.254
20885W        W84642  23.156   1.367  11.112
20886W        W84643  19.070  16.686  12.387
20887W        W84644  41.841   8.732  10.525
20888W        W84645   9.182  36.571  11.102
20889W        W84646   4.323  26.524  11.042
20890W        W84647  23.567  12.625   3.827
20891W        W84648  16.174  20.104  11.875
20892W        W84649   1.481  18.628  11.997
20893W        W84650  29.499  20.631   4.700
20894W        W84651  33.593  12.658   1.219
20895W        W84652   1.312  33.438  10.474
20896W        W84653  38.040  32.060  13.440
20897W        W84654  19.055   7.763   2.349
20898W        W84655  10.762  29.496  14.447
20899W        W84656  15.162  35.978  10.917
20900W        W84657  24.618  14.641  14.389
20901W        W84658  20.660  32.466  13.521
20902W        W84659   7.344  43.816   5.733
20903W        W84660   3.431  11.289   4.829
20904W        W84661  25.141  12.758   3.325
20905W        W84662  31.968  11.630   0.286
20906W        W84663  28.496   5.734   2.357
20907W        W84664  14.221  39.424   1.821
20908W        W84665  44.870  31.991   2.671
20909W        W84666  27.575  31.486   4.224
20910W        W84667  15.235  21.612  12.896
20911W        W84668  41.453  19.065   3.763
20912W        W84669  15.712   3.411   3.682
20913W        W84670   8.692  23.018  12.399
20914W        W84671   3.920   1.399  14.963
20915W        W84672  38.482  37.453   0.850
20916W        W84673  24.577  35.989  14.890
20917W        W84674  21.121  23.605  12.855
20918W        W84675  41.517   5.408   3.807
20919W        W84676   4.291  20.037  12.409
20920W        W84677  17.594   2.301  11.127
20921W        W84678  18.582  21.189   1.210
20922W        W84679  18.260  14.272   1.883
20923W        W84680  43.316  13.274   3.190
20924W        W84681  43.425  39.025  12.370
20925W        W84682  41.976  34.865  11.429
20926W        W84683  22.009  26.516   0.773
20927W        W84684  12.321  27.992   4.304
20928W        W84685  44.342  38.924  10.470
20929W        W84686  36.967  15.818   4.202
20930W        W84687  22.233  41.500  13.501
20931W        W84688  24.482  23.145  12.538
20932W        W84689   7.237  37.396   0.259
20933W        W84690   9.804  32.575  11.985
20934W        W84691   2.312   6.806   3.180
20935W        W84692   3.908  32.098  14.339
20936W        W84693  21.724   5.883   1.806
20937W        W84694  15.665  16.677  14.992
20938W        W84695  34.026  21.028  12.479
20939W        W84696  17.570  37.000   2.868
20940W        W84697  11.147  37.874  11.013
20941W        W84698  22.062  44.766   2.193
20942W        W84699  11.690  25.974  10.503
20943W        W84700   7.748  10.737   3.814
20944W        W84701  21.129  34.030  11.905
20945W        W84702   9.207   0.248   4.601
20946W        W84703  19.088  12.836   0.874
20947W        W84704  20.610  21.545   1.739
20948W        W84705   6.690  21.674  14.454
20949W        W84706  31.619  35.501  11.553
20950W        W84707  10.261   6.294   2.399
20951W        W84708  23.496   9.243  13.845
20952W        W84709  43.386   6.358   1.388
20953W        W84710  20.126  15.618   0.824
20954W        W84711  22.642  13.742   1.401
20955W        W84712  39.824   3.761   2.828
20956W        W84713  38.008  42.812  13.389
20957W        W84714   1.385  29.551  11.910
20958W        W84715  23.626   4.433   1.221
20959W        W84716  42.813  11.740   3.231
20960W        W84717  10.687  26.964  14.399
20961W        W84718   2.963  25.013   3.201
20962W        W84719  39.014   3.270   3.812
20963W        W84720  29.018  18.611  10.587
20964W        W84721  23.562  39.991  13.865
20965W        W84722  37.015   4.370   3.733
20966W        W84723  40.823  29.137   4.689
20967W        W84724  21.568   1.766  10.444
20968W        W84725   1.453   3.907  12.521
20969W        W84726  42.822   4.314  14.399
20970W        W84727   1.388  33.970   4.683
20971W        W84728   0.753  16.203   0.338
20972W        W84729  30.160   2.920  10.141
20973W        W84730  20.553   2.445   2.728
20974W        W84731  33.944  11.854   3.363
20975W        W84732  12.770  36.051   3.355
20976W        W84733  30.430  10.757   0.465
20977W        W84734  32.582  24.117  11.129
20978W        W84735  21.034  20.742  12.562
20979W        W84736  40.478  10.789  11.424
20980W        W84737  18.700  30.631  14.030
20981W        W84738  40.325  41.529   3.324
20982W        W84739   5.402  34.475   0.727
20983W        W84740  26.165  26.465   4.274
20984W        W84741  13.329  20.660   0.818
20985W        W84742  42.344  22.561   4.685
20986W        W84743   1.370  36.488  12.494
20987W        W84744  18.209   6.280   4.134
20988W        W84745  10.235  24.063   3.288
20989W        W84746  15.298  34.089  11.040
20990W        W84747  32.602   5.845   2.847
20991W        W84748   2.824  37.489  12.941
20992W        W84749   1.792  39.920   0.967
20993W        W84750  20.528  18.755  14.340
20994W        W84751  22.170  33.026   3.689
20995W        W84752  21.049  31.609   2.867
20996W        W84753  20.263  29.062   1.838
20997W        W84754  38.824  22.666  13.946
20998W        W84755  15.302  10.697  13.935
20999W        W84756   5.688   4.303  14.466
21000W        W84757   3.868  35.904   2.239
21001W        W84758  26.964  28.629  12.384
21002W        W84759  36.960  38.338  12.481
21003W        W84760  11.681   9.367  14.998
21004W        W84761   7.688  37.505   3.212
21005W        W84762   9.670  43.296  12.379
21006W        W84763  18.228  31.920   5.098
21007W        W84764  16.740   8.325   2.782
21008W        W84765  40.534  10.698   3.638
21009W        W84766   0.340  32.121   3.382
21010W        W84767  41.366  26.094   0.258
21011W        W84768   0.271  41.319  14.870
21012W        W84769  25.647  33.989  14.348
21013W        W84770  39.821   7.857   0.849
21014W        W84771  23.628  40.976   3.230
21015W        W84772  28.176  25.470  12.902
21016W        W84773  20.124   3.239  11.550
21017W        W84774  29.139  35.036  12.836
21018W        W84775  12.751  30.052  10.580
21019W        W84776  20.189   6.793   0.913
21020W        W84777   5.401   9.243  12.019
21021W        W84778  12.250  21.184   1.819
21022W        W84779  25.152  16.141  13.478
21023W        W84780  40.408  39.909   0.370
21024W        W84781  31.988  17.182   3.237
21025W        W84782  33.108  44.916  13.060
21026W        W84783  10.277  42.986   5.253
21027W        W84784   8.870  21.131   0.462
21028W        W84785  31.647  30.033   5.225
21029W        W84786   1.739  15.161  12.947
21030W        W84787  37.442  18.052   0.423
21031W        W84788  14.653  15.645  14.280
21032W        W84789  22.505   9.298   2.781
21033W        W84790  21.091   7.763  13.973
21034W        W84791  35.023  28.440  13.908
21035W        W84792  41.444  42.922   2.315
21036W        W84793  42.793  27.158   4.801
21037W        W84794  20.707   5.800  11.507
21038W        W84795  37.086  25.599   3.173
21039W        W84796  24.509  40.424   0.275
21040W        W84797  43.448   2.863  14.965
21041W        W84798  30.076  31.153  11.397
21042W        W84799   5.325   7.899  14.889
21043W        W84800  17.635  40.476  11.523
21044W        W84801  11.346  36.862   1.307
21045W        W84802  15.249  19.189  14.904
21046W        W84803  20.707  22.696   4.231
21047W        W84804   4.904   7.672   3.169
21048W        W84805  19.213   7.360   1.848
21049W        W84806   5.848   9.664  14.890
21050W        W84807  26.997   5.897  12.841
21051W        W84808  21.755  34.451  13.546
21052W        W84809  17.274  13.637   2.866
21053W        W84810  32.946  22.133  10.422
21054W        W84811  39.052  18.729  12.988
21055W        W84812  35.604  44.992  12.915
21056W        W84813  34.001  25.193  10.419
21057W        W84814  42.339   7.276   4.155
21058W        W84815   7.182   5.891  10.937
21059W        W84816  34.110  13.131  10.945
21060W        W84817  17.650  17.570   4.203
21061W        W84818   0.330  38.950  13.910
21062W        W84819   4.917  38.483  14.354
21063W        W84820  16.578   8.393  11.508
21064W        W84821  11.152  41.924   0.735
21065W        W84822  38.442  18.740  10.436
21066W        W84823  35.487  29.077   3.210
21067W        W84824  36.532  32.392   4.231
21068W        W84825  16.292  22.012  14.942
21069W        W84826  11.253   7.218   3.227
21070W        W84827  26.143  28.612   0.268
21071W        W84828   7.864  22.641  11.438
21072W        W84829  29.140   5.427  13.927
21073W        W84830  16.197  43.965  10.988
21074W        W84831  38.380  39.391  12.913
21075W        W84832  28.438  44.793  13.967
21076W        W84833   4.762   0.292   2.309
21077W        W84834  34.896  44.009  10.584
21078W        W84835   0.424  34.512  14.869
21079W        W84836   4.738  44.399   5.269
21080W        W84837  36.950  20.206   1.289
21081W        W84838  11.236  27.628   1.791
21082W        W84839  40.539   7.339   1.856
21083W        W84840  31.915  41.933   4.792
21084W        W84841  37.429  38.488  10.951
21085W        W84842  18.580  44.986  12.564
21086W        W84843  12.305  11.728   3.228
21087W        W84844  26.474  26.694  13.003
21088W        W84845  15.616  33.407   1.279
21089W        W84846  44.411  14.094  13.546
21090W        W84847  34.500   0.297  12.376
21091W        W84848  37.508  41.931  11.078
21092W        W84849   8.696  27.120   0.773
21093W        W84850  33.942  17.148  13.946
21094W        W84851   0.888  28.051   5.197
21095W        W84852   7.194  33.889  13.950
21096W        W84853   7.757  28.607   1.391
21097W        W84854  34.929  20.594   2.249
21098W        W84855  31.626  40.877  10.504
21099W        W84856  37.853  11.734   1.286
21100W        W84857  36.416  36.845   0.273
21101W        W84858   0.307  29.512   4.333
21102W        W84859  24.075  10.712  11.406
21103W        W84860  38.894  39.453  14.887
21104W        W84861  19.052   3.248   0.358
21105W        W84862  18.190  16.289  11.886
21106W        W84863  21.683  44.792   0.390
21107W        W84864  17.592  26.566   1.893
21108W        W84865  38.490  16.584   0.432
21109W        W84866   4.359  14.314   4.135
21110W        W84867  23.631  20.742  14.919
21111W        W84868  32.012   0.320   4.153
21112W        W84869  11.655  20.593   0.919
21113W        W84870  11.862  35.881   3.272
21114W        W84871  24.613  35.983  12.902
21115W        W84872  25.546  21.066   3.358
21116W        W84873  33.080  25.981   5.301
21117W        W84874  29.950  27.182   0.880
21118W        W84875  12.729  22.128  13.513
21119W        W84876  32.089  33.056   2.266
21120W        W84877  39.344  35.947   0.352
21121W        W84878  26.539  20.261   4.689
21122W        W84879  10.152  12.777  10.068
21123W        W84880  14.114  14.338  13.500
21124W        W84881  26.552  24.647   3.825
21125W        W84882   0.755   3.770  12.426
21126W        W84883  35.016  41.964   4.815
21127W        W84884  19.733  24.543   2.901
21128W        W84885  29.968   2.723   1.824
21129W        W84886  19.088  33.071  14.874
21130W        W84887  37.080  13.811   4.253
21131W        W84888  24.044  15.265  13.852
21132W        W84889   2.848  21.664   2.309
21133W        W84890   6.687   0.988   0.347
21134W        W84891  43.506  31.126   3.741
21135W        W84892   1.933  31.455  13.048
21136W        W84893   0.297  34.013   3.186
21137W        W84894   1.465  34.076   2.362
21138W        W84895  40.453  26.523  13.062
21139W        W84896  26.175  30.647   2.831
21140W        W84897  36.088  44.787  10.511
21141W        W84898  13.136  12.261   4.806
21142W        W84899  12.329  37.877  12.489
21143W        W84900  14.653  41.517   4.798
21144W        W84901  35.999  43.911  12.393
21145W        W84902  38.428  38.504  12.368
21146W        W84903  14.142  42.994   0.341
21147W        W84904   0.427  27.494   0.956
21148W        W84905  34.554   5.823   3.655
21149W        W84906   8.334  27.463  14.281
21150W        W84907  30.954  15.658   1.361
21151W        W84908  24.649  35.968  10.934
21152W        W84909  22.624   8.731   2.339
21153W        W84910  31.128  26.506   1.764
21154W        W84911  28.465  25.578  12.915
21155W        W84912  14.110  28.451   2.696
21156W        W84913   0.845  42.434   4.815
21157W        W84914  19.142   7.382   1.391
21158W        W84915  35.093  25.098  10.422
21159W        W84916  35.028   1.810  14.895
21160W        W84917  37.543  14.095  11.877
21161W        W84918  38.538  40.335  14.893
21162W        W84919  27.563  40.491   0.330
21163W        W84920  21.131  20.148  11.412
21164W        W84921  38.445  21.598  13.926
21165W        W84922  19.223  33.598  14.438
21166W        W84923   4.265   5.309   0.934
21167W        W84924  18.666  14.592  14.323
21168W        W84925   6.272  36.481   2.380
21169W        W84926  20.260  16.270  14.460
21170W        W84927  43.384  17.308  11.978
21171W        W84928  37.409  26.619  12.405
21172W        W84929   8.775  35.034   0.811
21173W        W84930  16.190   8.301   3.848
21174W        W84931  13.293  40.987   4.221
21175W        W84932  15.155  14.122  12.088
21176W        W84933  19.140  14.691  12.965
21177W        W84934  40.826  38.863  12.936
21178W        W84935  22.714  33.881  12.948
21179W        W84936  32.121  15.696   3.223
21180W        W84937  35.400  35.514  14.967
21181W        W84938  28.083  37.022   1.353
21182W        W84939  41.306  37.356  13.906
21183W        W84940   8.869  33.060   2.299
21184W        W84941  42.803  22.233  14.451
21185W        W84942  37.561   0.450   1.415
21186W        W84943  32.446  11.688   1.430
21187W        W84944  12.652  40.857  10.981
21188W        W84945  26.203  16.767   0.760
21189W        W84946  34.588  13.726   4.209
21190W        W84947  37.079  21.021  13.965
21191W        W84948   6.724  19.231  14.357
21192W        W84949  16.645   7.288  10.901
21193W        W84950   7.729  28.681  11.431
21194W        W84951  14.264  34.519   4.765
21195W        W84952  29.431  25.696  14.839
21196W        W84953  28.482  12.312  12.406
21197W        W84954  36.963  11.160  14.797
21198W        W84955  15.233  19.273   0.320
21199W        W84956  24.075   0.395  11.110
21200W        W84957  13.615  20.163  14.505
21201W        W84958  26.087   7.842  10.914
21202W        W84959   5.818  31.422  13.923
21203W        W84960  39.906  23.659  11.396
21204W        W84961  14.796  33.518  13.433
21205W        W84962   9.696  37.902   1.306
21206W        W84963   3.834   4.329  11.897
21207W        W84964  35.518  43.813  12.075
21208W        W84965  16.231  42.814  11.029
21209W        W84966  39.371   0.426  14.357
21210W        W84967  22.544  24.494   3.366
21211W        W84968  29.528   4.388  11.006
21212W        W84969  43.318   0.437  11.428
21213W        W84970  26.525  31.406   3.644
21214W        W84971  30.075  13.750   5.257
21215W        W84972  18.116  17.595  12.578
21216W        W84973  34.966  22.082  11.430
21217W        W84974  18.243  33.098   9.974
21218W        W84975  42.877  20.686   2.274
21219W        W84976   0.318  32.457   2.840
21220W        W84977  13.337  40.362   1.300
21221W        W84978  16.618   8.719   1.733
21222W        W84979  16.174   6.862  14.461
21223W        W84980   0.936  33.404  12.015
21224W        W84981  42.424  36.965   1.920
21225W        W84982  43.984  17.725  10.492
21226W        W84983  30.006  42.521   4.250
21227W        W84984  20.714  41.933   4.703
21228W        W84985  40.466  40.836   0.274
21229W        W84986  17.789   6.197  13.422
21230W        W84987  35.485  31.956  13.937
21231W        W84988  37.467  27.533   3.239
21232W        W84989   7.728  12.820   3.236
21233W        W84990  27.159  12.678  13.813
21234W        W84991  24.017  16.598  11.576
21235W        W84992  13.328  30.913  11.072
21236W        W84993  26.966  16.095   4.779
21237W        W84994  28.067   7.238  13.817
21238W        W84995  41.473  43.370  10.548
21239W        W84996   8.796  34.574  10.425
21240W        W84997  29.168   9.877   0.283
21241W        W84998  37.568  18.285  10.112
21242W        W84999   4.939  31.594  10.586
21243W        W85000  33.565  22.674  14.352
21244W        W85001  33.074  33.907  12.915
21245W        W85002   5.766  27.517   4.717
21246W        W85003  34.481   3.371  13.354
21247W        W85004  36.469  16.192  12.413
21248W        W85005  11.835  22.112  11.897
21249W        W85006  11.311  15.610   3.194
21250W        W85007  16.299   3.284  12.522
21251W        W85008  29.452  23.735   0.726
21252W        W85009   9.845  18.074  13.038
21253W        W85010  28.476  16.676   0.852
21254W        W85011   5.840  35.439   0.960
21255W        W85012  28.611   6.405   4.171
21256W        W85013   8.657  38.843   2.852
21257W        W85014  16.709   2.777   2.375
21258W        W85015  37.850  12.224  14.387
21259W        W85016  37.852  43.434   4.170
21260W        W85017  40.803  34.094  13.522
21261W        W85018   0.770  12.185  13.533
21262W        W85019  37.434  19.725  10.450
21263W        W85020   1.938  26.008   4.174
21264W        W85021  10.688  40.439   4.710
21265W        W85022  24.175  12.643   2.710
21266W        W85023  30.468   4.239  12.527
21267W        W85024  24.623  29.530  14.277
21268W        W85025   2.763  43.764   2.692
21269W        W85026  30.056  42.394  12.343
21270W        W85027  13.698  26.197  13.043
21271W        W85028   2.720  26.980  11.032
21272W        W85029   0.412  44.898   3.863
21273W        W85030  21.263  12.786   4.713
21274W        W85031  26.588  36.933   3.157
21275W        W85032  21.620  44.375   4.699
21276W        W85033   6.323  16.123   4.123
21277W        W85034  42.881  20.182  12.400
21278W        W85035  30.480  35.515   2.215
21279W        W85036  23.508  32.942   1.390
21280W        W85037  12.279  27.669   2.900
21281W        W85038  32.936   0.963  10.529
21282W        W85039  29.625  18.762   5.185
21283W        W85040   1.781  23.559   2.220
21284W        W85041  43.324  33.982   4.321
21285W        W85042  38.069  32.004   2.418
21286W        W85043  23.068  27.543   0.400
21287W        W85044  31.898  11.738  13.061
21288W        W85045  17.120  44.002   2.199
21289W        W85046   3.750   1.406   3.361
21290W        W85047  33.466  27.657   4.144
21291W        W85048  40.380  17.113   0.794
21292W        W85049  27.940  39.537   0.248
21293W        W85050  25.628  37.367   1.777
21294W        W85051  33.007  17.222  11.960
21295W        W85052   5.918  23.169   3.305
21296W        W85053  23.200  35.856   4.829
21297W        W85054   8.344  18.123  11.900
21298W        W85055  21.071   7.176  14.893
21299W        W85056   6.722  31.028   1.755
21300W        W85057   3.933   7.751   1.909
21301W        W85058  20.209  41.402  12.370
21302W        W85059  14.640  22.191  10.955
21303W        W85060  34.585  21.723  11.547
21304W        W85061  17.063  36.458   2.382
21305W        W85062  33.461  37.059  14.903
21306W        W85063   4.803   9.763  13.829
21307W        W85064  41.029  13.232   3.267
21308W        W85065   2.846  17.770   3.206
21309W        W85066  22.180   5.384   3.252
21310W        W85067   1.401  14.164   1.238
21311W        W85068  18.220  20.610  13.474
21312W        W85069  28.491  12.715   3.717
21313W        W85070  27.545  43.359   0.841
21314W        W85071  28.448  29.580  13.902
21315W        W85072  27.653  41.350  10.411
21316W        W85073  42.296   2.432   3.227
21317W        W85074   2.266   1.327  11.498
21318W        W85075  24.724  41.501   3.866
21319W        W85076  40.815   1.373   4.818
21320W        W85077  19.125   4.358  13.373
21321W        W85078  33.969  17.623   1.758
21322W        W85079  26.978  40.858  14.885
21323W        W85080  28.006  21.161  12.905
21324W        W85081  13.179  14.250  13.887
21325W        W85082  24.618   4.383   3.202
21326W        W85083  35.561  31.083  10.954
21327W        W85084  25.577  38.969  13.808
21328W        W85085  43.317  43.389   1.912
21329W        W85086   1.915  17.277   0.431
21330W        W85087  29.616  29.642   5.177
21331W        W85088  21.150  23.192  11.401
21332W        W85089  29.471  43.310   3.255
21333W        W85090  10.740   1.920   0.249
21334W        W85091  13.229  29.961  13.847
21335W        W85092  31.143  37.512  13.486
21336W        W85093  30.020  40.433  10.522
21337W        W85094  36.025  31.029  12.536
21338W        W85095  23.196  25.125   3.846
21339W        W85096  26.999  21.135   4.225
21340W        W85097  37.059  42.779  13.343
21341W        W85098  23.080   0.924   0.307
21342W        W85099  22.059   8.301  11.376
21343W        W85100  37.042  15.311  13.343
21344W        W85101  41.382  40.048   0.298
21345W        W85102  38.928  40.450  12.861
21346W        W85103   5.197   0.470   0.265
21347W        W85104  15.153  31.132   2.849
21348W        W85105   0.425  41.457   1.418
21349W        W85106  23.615  33.451   9.664
21350W        W85107  29.171   8.263   0.289
21351W        W85108   9.327  31.133   1.359
21352W        W85109  37.984  23.638   2.856
21353W        W85110  42.875  17.153  10.937
21354W        W85111   8.247  42.523  12.857
21355W        W85112   0.464  39.482   4.204
21356W        W85113   6.745   6.228   1.259
21357W        W85114  29.980  26.102   3.261
21358W        W85115   0.776  28.169  10.015
21359W        W85116  37.457   4.751  14.929
21360W        W85117  24.081  15.807   1.755
21361W        W85118   6.906  21.687  11.921
21362W        W85119  12.212  18.738   1.269
21363W        W85120  17.090   0.934  13.360
21364W        W85121  17.704   9.811  14.972
21365W        W85122  24.150  23.696   4.276
21366W        W85123  44.774  31.950   1.754
21367W        W85124   0.260  19.235   0.385
21368W        W85125  35.497  16.149   4.607
21369W        W85126  11.676  30.935  13.964
21370W        W85127  13.291  38.493   3.663
21371W        W85128  22.553   6.269   0.303
21372W        W85129   6.357  27.530  11.119
21373W        W85130  20.043  15.815   3.312
21374W        W85131  17.571   9.877  11.069
21375W        W85132  24.676  31.588   2.417
21376W        W85133  35.464   9.827  10.446
21377W        W85134  23.111  38.351  14.418
21378W        W85135  11.811  43.389   1.380
21379W        W85136  16.761  33.990   1.295
21380W        W85137  37.418  12.649  13.324
21381W        W85138  37.921  34.887  12.860
21382W        W85139  36.884  12.764   4.299
21383W        W85140   0.902  23.629   3.271
21384W        W85141  35.969  43.465   1.447
21385W        W85142  11.769  41.922   4.604
21386W        W85143  38.023  23.036   1.319
21387W        W85144  10.191   1.313   1.247
21388W        W85145  11.731  36.962  10.514
21389W        W85146  11.734  43.474  11.610
21390W        W85147  41.830  12.701   5.235
21391W        W85148  39.839  26.974   0.326
21392W        W85149  44.420  19.566   3.741
21393W        W85150   0.288  40.387   4.633
21394W        W85151  33.089  34.029  14.956
21395W        W85152  18.762  13.742  12.349
21396W        W85153  28.491  22.555  14.487
21397W        W85154  33.544  22.566   3.644
21398W        W85155  43.851  10.256  10.529
21399W        W85156  35.088  12.303  12.067
21400W        W85157  21.166  23.733  14.772
21401W        W85158   4.892  24.114   0.302
21402W        W85159  44.302  32.419   1.383
21403W        W85160  15.596  28.159   4.716
21404W        W85161   2.429  33.557   3.266
21405W        W85162  17.791   2.240   1.256
21406W        W85163  13.719  23.657  14.324
21407W        W85164   3.723  25.625   3.855
21408W        W85165  39.536  19.104   4.661
21409W        W85166   9.746   7.814   4.704
21410W        W85167  28.513  19.260   1.427
21411W        W85168  28.975  17.799  13.426
21412W        W85169   0.274  39.490   2.753
21413W        W85170   1.855  16.696  13.876
21414W        W85171  28.126  30.617  12.434
21415W        W85172   0.954  17.078   1.344
21416W        W85173  23.055  40.950   1.857
21417W        W85174  20.148  17.228   0.333
21418W        W85175  33.615   6.676  14.928
21419W        W85176  37.058   9.331   0.778
21420W        W85177  27.131  21.175   2.299
21421W        W85178  41.309  34.052   4.141
21422W        W85179   7.670  38.416   0.471
21423W        W85180  25.552  34.554   2.835
21424W        W85181  30.030  39.854   0.450
21425W        W85182  19.278  26.123   2.821
21426W        W85183   0.434  40.481   2.721
21427W        W85184   5.254   2.891  13.881
21428W        W85185  41.465  27.156  12.892
21429W        W85186  40.029   0.745  13.419
21430W        W85187  38.075   4.939  11.403
21431W        W85188  10.639  20.624   4.779
21432W        W85189  37.034  23.720   3.828
21433W        W85190  26.686  12.682   2.877
21434W        W85191  21.686  27.192   0.743
21435W        W85192  25.657   7.408   1.717
21436W        W85193  30.546   1.421  12.081
21437W        W85194   3.308  31.429   4.666
21438W        W85195  22.658  18.547  10.568
21439W        W85196  16.248  26.973  13.514
21440W        W85197  18.069  29.949  11.946
21441W        W85198   0.451  42.434  11.893
21442W        W85199  14.802  17.758   1.323
21443W        W85200  12.838  22.513   4.224
21444W        W85201  11.716  21.070  13.528
21445W        W85202  24.660  26.517   0.439
21446W        W85203   1.830  18.557  11.963
21447W        W85204  37.079  35.919   3.352
21448W        W85205  27.627   8.318  13.352
21449W        W85206  31.538  10.173  11.443
21450W        W85207   6.293  12.162  13.801
21451W        W85208  43.935  38.398  14.895
21452W        W85209  37.454  20.091   3.636
21453W        W85210  27.003   5.853   4.711
21454W        W85211  35.999   9.312  14.837
21455W        W85212   5.775  33.115   0.760
21456W        W85213  26.127   9.205  14.980
21457W        W85214  18.656  37.970   3.648
21458W        W85215  27.465   6.299  14.852
21459W        W85216   5.413   5.753   3.701
21460W        W85217  38.995   6.222  12.922
21461W        W85218   7.832  23.587   1.904
21462W        W85219  20.072   7.227  12.528
21463W        W85220  21.543  34.108  11.425
21464W        W85221  42.029  36.035   3.777
21465W        W85222  13.303  43.922   2.841
21466W        W85223  13.295  33.001   0.331
21467W        W85224  42.792  18.584  11.594
21468W        W85225   3.936   0.810  10.101
21469W        W85226  16.295   9.297   4.341
21470W        W85227  23.993  18.117  14.480
21471W        W85228  31.051   7.408  13.857
21472W        W85229  39.469   6.414   1.388
21473W        W85230   8.838   0.938   4.747
21474W        W85231  36.492  11.300   0.782
21475W        W85232   0.773  31.934  14.289
21476W        W85233  37.443  12.245  14.466
21477W        W85234  28.496  16.772  13.033
21478W        W85235   6.796  31.493   4.137
21479W        W85236  27.556  28.996   0.799
21480W        W85237   3.852   9.335   1.411
21481W        W85238  23.992   1.807  13.527
21482W        W85239   8.826  16.685  13.927
21483W        W85240  17.767  31.541   2.364
21484W        W85241  11.743  17.578   4.149
21485W        W85242  21.255  13.629  11.437
21486W        W85243  21.728  17.077   0.819
21487W        W85244   8.849  18.765  11.526
21488W        W85245  29.155  37.966  13.485
21489W        W85246   9.646  24.111   3.699
21490W        W85247  22.574  41.910   4.343
21491W        W85248  12.143   6.897  10.911
21492W        W85249  30.450   2.932  13.530
21493W        W85250   3.243  13.831  11.555
21494W        W85251  23.155  12.122  10.462
21495W        W85252  25.604  18.103   1.394
21496W        W85253  16.080  32.595  10.922
21497W        W85254  40.865  34.959   4.610
21498W        W85255  43.875   0.838  11.569
21499W        W85256  29.161  31.985   0.301
21500W        W85257  41.419  23.571  13.318
21501W        W85258  20.202   8.346   2.305
21502W        W85259  11.836   2.353  11.049
21503W        W85260   8.842  13.653  13.055
21504W        W85261  26.646  44.824   3.737
21505W        W85262  44.996   0.279   2.728
21506W        W85263  30.042  22.641   4.710
21507W        W85264  24.588   1.914  13.396
21508W        W85265   1.859  23.993   2.730
21509W        W85266  18.279  20.603   0.815
21510W        W85267   0.410  12.330  14.853
21511W        W85268  19.053   8.798   4.713
21512W        W85269  38.471  13.653  12.573
21513W        W85270   7.216  36.926   1.819
21514W        W85271  35.898   6.283  11.003
21515W        W85272  43.395  37.516  14.030
21516W        W85273  38.436   4.758  11.006
21517W        W85274  30.608  25.639   3.372
21518W        W85275   8.825  42.021  14.351
21519W        W85276  24.070   1.465   1.932
21520W        W85277   6.900  35.382   2.399
21521W        W85278  16.804   7.807   4.189
21522W        W85279   3.434  37.926  12.522
21523W        W85280  16.134  36.923  14.890
21524W        W85281  29.014  24.569   5.265
21525W        W85282  26.485  14.720  14.382
21526W        W85283  24.105  23.576  13.926
21527W        W85284  21.200   7.872   0.743
21528W        W85285  40.369  18.786   2.669
21529W        W85286  12.146   2.383   1.837
21530W        W85287   0.873  22.563   5.159
21531W        W85288  42.296  34.960   0.332
21532W        W85289  13.324  21.236  12.426
21533W        W85290  11.142  10.864   1.354
21534W        W85291   5.770  20.597   4.721
21535W        W85292  14.294   8.292  14.497
21536W        W85293  17.756  10.784   2.711
21537W        W85294   6.883  18.183  13.891
21538W        W85295  25.572  24.184  13.959
21539W        W85296  24.059  18.643  14.030
21540W        W85297  26.607  32.518   2.706
21541W        W85298  42.473  10.757  13.359
21542W        W85299   3.948  31.448   2.860
21543W        W85300   0.293  16.793   2.209
21544W        W85301   1.451   4.879   3.659
21545W        W85302  37.993  14.110   2.809
21546W        W85303  44.386   4.712  12.363
21547W        W85304  15.577  39.015  14.442
21548W        W85305  22.188   2.404   1.422
21549W        W85306   0.960  25.209  14.997
21550W        W85307  11.142  38.987  11.976
21551W        W85308  21.197  10.655   1.804
21552W        W85309   1.437   5.274   4.733
21553W        W85310  36.905  23.602  12.367
21554W        W85311  40.433  16.114   2.830
21555W        W85312  26.494  18.560   2.714
21556W        W85313   7.253  38.439  12.550
21557W        W85314   4.342  27.591   4.665
21558W        W85315   1.263   4.385   4.652
21559W        W85316   5.713  37.911  10.459
21560W        W85317   5.824  11.229   4.191
21561W        W85318  15.137  34.402  12.511
21562W        W85319  29.460  10.280   9.979
21563W        W85320  39.484  16.807  14.836
21564W        W85321   1.954  30.543   1.837
21565W        W85322  23.229  11.153   0.740
21566W        W85323  24.192  25.058  10.580
21567W        W85324  33.118  20.728  13.433
21568W        W85325  12.616  12.653  14.916
21569W        W85326  24.556  11.206  10.450
21570W        W85327  43.337  17.232  10.895
21571W        W85328   5.289  36.062  12.447
21572W        W85329  12.230  19.688  13.961
21573W        W85330  25.099  17.088   3.633
21574W        W85331  22.707  14.184   2.373
21575W        W85332  10.828  15.794   3.257
21576W        W85333  21.694  18.681  11.033
21577W        W85334  40.360  14.135   2.881
21578W        W85335  36.570  36.878  14.364
21579W        W85336  23.028  17.659  12.372
21580W        W85337   9.359  11.676  10.952
21581W        W85338  32.403   7.378  12.897
21582W        W85339  14.224   9.772  12.530
21583W        W85340  39.889   5.371  14.511
21584W        W85341  11.866   4.365  12.059
21585W        W85342  35.525  16.225   1.364
21586W        W85343   3.938  13.705   1.415
21587W        W85344  44.344  28.623   0.955
21588W        W85345   6.212   1.925  14.395
21589W        W85346  44.404  12.735   2.685
21590W        W85347  18.585  28.515  14.457
21591W        W85348  12.158  13.742  11.446
21592W        W85349   0.478  17.140   1.753
21593W        W85350  43.959  43.340  13.053
21594W        W85351  33.593  15.163  10.568
21595W        W85352  22.163  29.172   1.894
21596W        W85353  20.749  29.530  14.860
21597W        W85354  20.633  24.547  13.491
21598W        W85355  44.909  30.084   3.782
21599W        W85356  28.128  37.913  14.375
21600W        W85357  40.987  39.838  13.898
21601W        W85358   4.335  11.802  14.367
21602W        W85359  29.115  25.078  11.456
21603W        W85360  36.569  12.262   4.221
21604W        W85361  36.381   8.831   1.222
21605W        W85362  17.180  43.851   5.216
21606W        W85363  16.611  27.030   0.264
21607W        W85364  38.420  17.164   2.223
21608W        W85365  34.513  32.534   1.808
21609W        W85366  37.086  19.284  11.060
21610W        W85367  42.843  11.811  11.476
21611W        W85368   5.840  13.318   2.843
21612W        W85369  20.089  10.760   4.749
21613W        W85370   1.392   8.201  14.839
21614W        W85371  20.604  40.954   1.757
21615W        W85372  42.361  37.467   2.272
21616W        W85373  43.301  31.995   2.250
21617W        W85374  30.502   9.753  14.426
21618W        W85375   8.241  14.668   3.229
21619W        W85376  26.113  43.787  10.898
21620W        W85377  27.955  12.705   1.827
21621W        W85378  27.985  20.549   1.705
21622W        W85379  28.601  24.693   0.400
21623W        W85380  29.979  12.742   1.713
21624W        W85381   9.680  22.630  12.900
21625W        W85382   6.428   4.720  11.974
21626W        W85383  38.934  29.126  11.497
21627W        W85384  37.363   3.781  11.572
21628W        W85385   2.268  44.810   1.767
21629W        W85386   6.790   3.431  12.423
21630W        W85387  23.203   1.742   3.745
21631W        W85388  42.468   1.448  12.409
21632W        W85389   1.384  28.002  10.513
21633W        W85390  31.575  27.562  11.417
21634W        W85391  28.584  13.612   4.145
21635W        W85392  34.984  42.984  10.507
21636W        W85393  27.539   3.934   4.294
21637W        W85394  20.063  35.859   4.685
21638W        W85395  11.768  23.163   4.665
21639W        W85396  17.236  22.205  10.097
21640W        W85397  36.938  13.215   1.735
21641W        W85398  44.308  42.964  12.863
21642W        W85399  36.029  42.439   0.439
21643W        W85400  37.074  37.857   1.762
21644W        W85401   4.901  22.058  11.112
21645W        W85402  23.029  18.139   2.685
21646W        W85403  10.384  27.095  11.384
21647W        W85404  30.480  19.175   3.267
21648W        W85405  42.921   5.287  14.470
21649W        W85406  28.125  14.601   3.357
21650W        W85407  11.828  17.643   0.472
21651W        W85408  20.173  38.337   1.766
21652W        W85409  43.450  35.001  12.502
21653W        W85410  42.344  37.469   4.601
21654W        W85411   0.910  16.223  12.060
21655W        W85412  34.948  17.097   1.335
21656W        W85413  25.704   1.803   2.295
21657W        W85414  37.477  25.021  11.588
21658W        W85415  25.012  16.105   0.858
21659W        W85416   7.840  10.310   5.106
21660W        W85417   2.742  18.623   2.887
21661W        W85418  17.206  19.762  14.455
21662W        W85419  33.576   6.847  11.989
21663W        W85420   2.440  20.167   1.915
21664W        W85421   7.294  30.414  11.013
21665W        W85422  18.701  41.027  12.836
21666W        W85423  38.055   8.778  14.772
21667W        W85424  21.527  28.145   1.305
21668W        W85425   5.378   2.353  11.989
21669W        W85426   2.798  36.572   1.259
21670W        W85427  42.980  27.046   5.305
21671W        W85428  23.714   6.702  11.054
21672W        W85429  20.083  14.209   1.223
21673W        W85430  23.618  36.548  12.564
21674W        W85431  20.243  13.770  14.922
21675W        W85432  27.578  14.158   4.196
21676W        W85433  12.613  11.290  13.496
21677W        W85434  23.626   8.370   4.788
21678W        W85435  13.721  16.651   4.711
21679W        W85436   6.261  30.921  13.018
21680W        W85437  23.567  30.142   2.412
21681W        W85438   2.823  34.456  11.548
21682W        W85439  40.422  19.683   4.259
21683W        W85440   4.762  38.965  12.443
21684W        W85441  37.479  31.066  12.448
21685W        W85442  29.600  20.666  12.401
21686W        W85443   4.846   3.934   4.186
21687W        W85444  40.433  18.569   3.377
21688W        W85445  27.078   3.841  14.778
21689W        W85446   6.884  34.384   3.379
21690W        W85447  41.010  44.992   1.296
21691W        W85448   2.727  12.345  11.378
21692W        W85449  35.443  22.057   0.856
21693W        W85450  27.532  15.139   2.881
21694W        W85451  10.651  41.881  14.430
21695W        W85452  21.079   5.836   4.149
21696W        W85453   5.418  39.428  11.473
21697W        W85454   3.439  13.272   3.824
21698W        W85455   1.782  26.120   0.260
21699W        W85456  23.549   4.438  12.501
21700W        W85457   0.405  17.775   1.908
21701W        W85458   6.890  44.784   3.819
21702W        W85459   6.428   0.285  11.585
21703W        W85460  22.053  24.562  14.340
21704W        W85461  22.156  28.566  11.484
21705W        W85462  42.427   5.845   2.304
21706W        W85463   0.326   0.891   0.736
21707W        W85464  21.029  33.605   4.306
21708W        W85465  15.250  34.575   4.271
21709W        W85466   3.428  10.664  14.418
21710W        W85467  35.097   1.457  13.993
21711W        W85468   3.763   1.770  13.803
21712W        W85469  11.339  12.300   4.731
21713W        W85470  44.762  17.192   1.809
21714W        W85471  27.088  34.064  10.551
21715W        W85472  42.850   3.383  10.055
21716W        W85473  15.775  29.486  14.349
21717W        W85474   6.326  44.990   3.859
21718W        W85475  31.118  15.702  12.557
21719W        W85476  33.391   6.788   2.854
21720W        W85477  13.706  27.646   2.299
21721W        W85478  20.083   2.904   1.857
21722W        W85479  16.315  17.652   4.719
21723W        W85480  30.546   8.817  13.928
21724W        W85481  34.537   2.358  14.979
21725W        W85482  21.559   2.391  11.086
21726W        W85483  43.294  31.633   4.613
21727W        W85484  25.191  28.473  12.925
21728W        W85485  37.072  13.232   2.875
21729W        W85486  44.323  14.253  12.868
21730W        W85487   1.395  15.329   4.238
21731W        W85488   3.390  19.539  10.038
21732W        W85489  20.569  28.047  11.036
21733W        W85490  18.675  16.118   1.315
21734W        W85491   4.784  13.831   2.861
21735W        W85492   8.234  39.972  11.879
21736W        W85493  27.058  12.234  10.476
21737W        W85494  31.076  11.205  10.935
21738W        W85495  10.688  41.406   3.175
21739W        W85496  22.615  43.283   1.275
21740W        W85497  40.807  12.198  10.581
21741W        W85498  18.649  34.555  10.415
21742W        W85499  36.930  29.511  12.420
21743W        W85500  32.111  11.251  12.987
21744W        W85501  37.545  35.520   1.389
21745W        W85502  13.603  12.222   4.775
21746W        W85503  37.013  36.371  13.033
21747W        W85504  22.131  35.454  14.340
21748W        W85505  14.290  27.109  13.011
21749W        W85506   3.906  19.603  12.961
21750W        W85507   8.362  20.162   2.867
21751W        W85508  30.103  38.494  11.372
21752W        W85509  43.479  42.842   3.153
21753W        W85510  15.687  41.330   2.763
21754W        W85511  14.197  34.573   0.311
21755W        W85512  32.979   6.351   3.251
21756W        W85513  37.578  28.165   0.395
21757W        W85514  34.011  43.965   4.623
21758W        W85515  16.144   6.776  12.023
21759W        W85516  44.001  16.290   2.314
21760W        W85517  18.127   8.312  14.017
21761W        W85518  25.607  37.982   3.738
21762W        W85519  30.537  17.221  11.409
21763W        W85520  35.566  14.771   0.426
21764W        W85521  12.359  15.667   0.307
21765W        W85522  16.582  10.770   1.845
21766W        W85523  22.740  24.501  13.357
21767W        W85524   3.716  16.160   3.254
21768W        W85525   9.361  15.798   1.416
21769W        W85526  39.379  13.224   0.950
21770W        W85527  24.634   4.800   2.873
21771W        W85528  24.094  28.469  14.893
21772W        W85529  35.567  22.232   2.879
21773W        W85530   2.730  10.737  14.498
21774W        W85531   9.376   4.421  12.072
21775W        W85532   0.843  20.197  13.841
21776W        W85533  35.919  39.960   1.380
21777W        W85534  17.171  37.913  12.541
21778W        W85535  27.059  11.210  14.013
21779W        W85536  17.169   1.423   3.672
21780W        W85537   0.966  30.520  10.478
21781W        W85538  19.627  21.236   1.330
21782W        W85539  17.754   6.213   3.759
21783W        W85540   4.847  38.837   1.920
21784W        W85541   5.884   4.764  12.545
21785W        W85542  15.655  24.182   5.176
21786W        W85543  16.270  23.576   0.908
21787W        W85544  27.491  10.786  13.794
21788W        W85545  44.969   4.938   3.711
21789W        W85546  21.084   7.836  10.994
21790W        W85547   6.420  34.913  11.109
21791W        W85548  33.437  16.571  14.359
21792W        W85549  27.080  11.268   1.443
21793W        W85550  43.407   1.766  10.076
21794W        W85551  31.567   9.859   3.823
21795W        W85552   0.814  34.397   0.360
21796W        W85553  15.580  22.158   0.815
21797W        W85554   3.422  33.887   3.633
21798W        W85555  25.545  14.127  14.289
21799W        W85556   6.296  42.468  14.839
21800W        W85557  33.400  41.335  14.514
21801W        W85558  15.792  13.170  12.944
21802W        W85559  21.247  43.504   1.398
21803W        W85560  20.063   0.467   3.821
21804W        W85561   0.887  13.246   1.409
21805W        W85562  26.146  35.555   1.285
21806W        W85563   9.275  44.840  13.895
21807W        W85564  12.314   4.251  12.515
21808W        W85565  20.762  22.535  14.822
21809W        W85566  40.982  32.051   4.178
21810W        W85567  26.982  40.808   2.241
21811W        W85568   6.251  38.444   3.863
21812W        W85569   6.380  35.419   3.650
21813W        W85570  14.625   1.733   2.396
21814W        W85571   4.888  41.479  14.410
21815W        W85572  20.164  10.701   1.412
21816W        W85573  14.810   5.881  12.376
21817W        W85574  17.230  31.151  11.389
21818W        W85575  30.518   9.279   4.297
21819W        W85576  44.312  19.613  10.039
21820W        W85577  29.105   3.304   1.370
21821W        W85578   3.422   2.452  11.088
21822W        W85579  33.419  22.131   4.601
21823W        W85580  37.478  28.672  10.506
21824W        W85581  41.859   8.362   0.829
21825W        W85582  39.400  36.452  11.943
21826W        W85583  25.189  35.102   3.199
21827W        W85584   0.345  23.103   2.259
21828W        W85585  25.154  18.676  14.488
21829W        W85586  11.786  16.806  11.408
21830W        W85587  34.926  43.950   2.744
21831W        W85588  37.911  23.521   4.317
21832W        W85589  20.136   3.839   0.761
21833W        W85590  21.022  31.092  12.086
21834W        W85591  38.348  23.650   2.342
21835W        W85592  26.667  30.035   1.368
21836W        W85593   4.285  24.161   2.384
21837W        W85594  23.093  40.424  13.440
21838W        W85595   5.897  39.482  14.439
21839W        W85596  39.819   8.823  14.765
21840W        W85597  20.155   6.316  10.897
21841W        W85598   7.698  22.571  10.889
21842W        W85599   6.786  36.541   4.237
21843W        W85600  27.162   3.363   1.445
21844W        W85601  42.919   7.417   1.442
21845W        W85602  10.788  16.641   2.319
21846W        W85603   9.150  17.288   4.264
21847W        W85604   1.238  17.225  10.610
21848W        W85605  32.096  24.033  12.005
21849W        W85606  30.983  22.562  14.869
21850W        W85607  22.739  34.905  11.599
21851W        W85608  34.069  42.389   3.716
21852W        W85609  21.030  14.712   4.270
21853W        W85610  36.927  24.140  11.383
21854W        W85611   8.818  29.453   2.283
21855W        W85612  28.665  43.802   1.435
21856W        W85613   6.400  31.123  10.890
21857W        W85614  21.100  24.504  13.013
21858W        W85615   8.743  39.492   2.178
21859W        W85616   2.791  37.910   0.393
21860W        W85617   4.850   1.385   2.408
21861W        W85618  16.632  38.410   1.353
21862W        W85619  18.772  33.473   1.746
21863W        W85620  14.638  40.045   1.764
21864W        W85621  12.712  38.488   3.243
21865W        W85622  39.485  19.116  11.992
21866W        W85623  15.697   3.911  12.014
21867W        W85624  39.427  10.811  12.004
21868W        W85625   6.286  11.716   2.827
21869W        W85626  21.512   0.754   0.921
21870W        W85627  28.506  33.552   4.215
21871W        W85628  12.732  43.467   2.326
21872W        W85629  43.475  19.135   3.670
21873W        W85630  42.992  37.966   2.858
21874W        W85631   3.236  28.011  13.868
21875W        W85632  32.924  28.093   4.258
21876W        W85633  17.673  38.888   4.277
21877W        W85634  24.137  29.460  11.379
21878W        W85635  19.061  33.093  11.574
21879W        W85636  13.616   7.294   3.197
21880W        W85637  22.548   2.763  10.071
21881W        W85638  36.887  11.704   1.917
21882W        W85639  15.105  32.475   3.837
21883W        W85640  24.026  19.598  12.923
21884W        W85641  31.061  27.607  10.981
21885W        W85642  11.250  19.589   1.302
21886W        W85643  34.016  13.756  14.794
21887W        W85644  27.944  33.896  10.419
21888W        W85645  25.571  43.366  11.966
21889W        W85646  12.171  12.718  13.057
21890W        W85647   3.345  13.337  11.429
21891W        W85648  34.582  18.131  11.124
21892W        W85649  21.214  16.656  14.382
21893W        W85650   1.859  21.692  10.465
21894W        W85651   4.388   5.718  10.895
21895W        W85652  21.097  22.691   0.875
21896W        W85653   6.186   6.841   3.329
21897W        W85654  34.090  18.548   4.278
21898W        W85655   9.726  18.610   2.773
21899W        W85656  15.270  12.168   4.132
21900W        W85657  14.297  31.932  11.596
21901W        W85658  37.981  19.580  13.884
21902W        W85659  25.965  43.368  12.429
21903W        W85660  10.707  11.254  14.458
21904W        W85661  11.745  20.201  11.458
21905W        W85662  21.649  19.539   2.270
21906W        W85663  28.455  26.005   2.276
21907W        W85664  38.004   7.668   4.199
21908W        W85665   4.420  23.171   3.825
21909W        W85666  34.483   5.360  14.387
21910W        W85667  12.318  18.568   4.636
21911W        W85668  17.303  25.993   3.334
21912W        W85669  40.399  10.357   1.806
21913W        W85670  16.727  44.860   4.719
21914W        W85671  35.960  20.130  13.472
21915W        W85672  15.802  27.463  10.408
21916W        W85673  21.617  32.568   1.755
21917W        W85674  38.384  17.732   3.172
21918W        W85675  38.499  20.047  14.314
21919W        W85676  41.797  39.012   1.401
21920W        W85677  14.201  38.356  12.029
21921W        W85678   3.891   7.839   3.679
21922W        W85679  32.889  43.968  11.375
21923W        W85680  30.645  23.993   3.776
21924W        W85681  35.483   3.411   2.275
21925W        W85682  34.449  26.495   0.733
21926W        W85683   8.833  38.482  14.405
21927W        W85684  25.510  31.426  11.878
21928W        W85685  12.273  42.850   2.757
21929W        W85686   2.451  36.405  13.308
21930W        W85687  18.147  38.346   3.677
21931W        W85688   3.266  16.257   2.680
21932W        W85689  41.989  20.152  12.031
21933W        W85690   2.929  42.861  10.069
21934W        W85691   3.301  43.796   4.804
21935W        W85692  16.149  18.786   4.263
21936W        W85693  11.240   3.234  12.058
21937W        W85694  33.948  12.219  12.879
21938W        W85695   1.973  38.978   2.699
21939W        W85696  22.121   9.690   1.276
21940W        W85697  41.478   5.433   1.746
21941W        W85698  17.612   4.800   0.868
21942W        W85699  31.077  23.194  13.404
21943W        W85700   6.762   9.833  14.464
21944W        W85701  43.333  12.149  14.847
21945W        W85702  41.795  44.008  12.984
21946W        W85703  37.361  19.076  10.908
21947W        W85704  27.197  31.483   3.160
21948W        W85705  20.262  18.164   0.402
21949W        W85706  44.810  24.486  11.938
21950W        W85707   2.801  19.079  14.868
21951W        W85708  25.611  21.041   4.625
21952W        W85709  44.421  36.568   4.120
21953W        W85710  39.446  15.695  14.389
21954W        W85711  13.727   6.402   1.727
21955W        W85712  38.885  26.701  10.614
21956W        W85713  42.383  18.194   0.334
21957W        W85714  25.200  12.619  14.939
21958W        W85715  30.993  38.983   3.212
21959W        W85716  16.146  34.966   0.809
21960W        W85717  12.839   1.935   4.321
21961W        W85718  15.258  39.065   3.726
21962W        W85719   7.320  13.808   1.269
21963W        W85720  28.529  12.760   5.266
21964W        W85721  37.494  36.407  11.992
21965W        W85722  35.506  11.656  14.319
21966W        W85723  14.341  26.966  14.488
21967W        W85724  36.079  37.834   1.219
21968W        W85725  15.097  10.309  13.340
21969W        W85726   3.440   9.890  11.397
21970W        W85727  38.435  33.989   3.272
21971W        W85728  29.563  38.527   2.812
21972W        W85729   1.850  32.096   0.459
21973W        W85730  22.139  18.127   4.284
21974W        W85731  28.676  12.186  12.929
21975W        W85732  23.179   6.376   3.861
21976W        W85733  20.529  15.136  12.045
21977W        W85734  11.286  28.531  14.925
21978W        W85735   1.366   6.281   2.740
21979W        W85736  10.664  36.871   3.207
21980W        W85737  39.535  12.232  12.868
21981W        W85738  37.546  14.713   3.702
21982W        W85739  25.478  30.968  10.981
21983W        W85740  24.573   2.465   3.858
21984W        W85741  32.585   6.394   5.194
21985W        W85742   3.768  26.691  11.946
21986W        W85743  29.160  24.667  12.484
21987W        W85744  31.536  30.148   0.269
21988W        W85745   7.758  39.019  12.430
21989W        W85746   2.351  28.937  10.518
21990W        W85747   6.912   7.680  13.991
21991W        W85748  36.060  16.737  13.972
21992W        W85749  16.281  16.258  10.102
21993W        W85750  39.336  42.364   0.309
21994W        W85751   4.858  31.511   0.413
21995W        W85752  39.511  36.860   1.928
21996W        W85753  26.032   1.455   1.359
21997W        W85754  28.008  30.548   2.777
21998W        W85755  41.792   9.333   0.249
21999W        W85756  12.743  17.719  11.987
22000W        W85757  34.612   7.866   4.814
22001W        W85758   3.461  33.983  14.349
22002W        W85759  18.616  36.967  13.425
22003W        W85760  16.764  37.452   0.759
22004W        W85761   2.398  15.675   1.387
22005W        W85762  36.886  18.788   3.195
22006W        W85763  10.817  38.415   1.914
22007W        W85764  21.061  23.031  12.429
22008W        W85765  22.221   7.793   3.228
22009W        W85766  29.476  30.574   3.666
22010W        W85767   9.759   5.853   1.355
22011W        W85768  21.631  29.644  11.588
22012W        W85769  15.753  24.493   3.330
22013W        W85770  13.160  39.002   2.207
22014W        W85771  38.513  14.796  12.397
22015W        W85772  15.148  24.637   4.145
22016W        W85773   5.307  43.823   2.283
22017W        W85774  19.589  44.475  10.545
22018W        W85775  22.006  37.539  12.351
22019W        W85776  34.447   6.341  11.068
22020W        W85777  22.029  23.073   1.336
22021W        W85778  13.251   9.750   1.874
22022W        W85779  24.512  25.203   2.196
22023W        W85780   2.831   8.399   0.262
22024W        W85781  15.108  30.975   4.270
22025W        W85782  32.919  22.098   1.310
22026W        W85783  18.547   1.307  11.428
22027W        W85784   5.909   7.700   1.379
22028W        W85785  44.426  15.698  13.835
22029W        W85786  23.589  27.942   4.817
22030W        W85787  22.550  10.279   1.448
22031W        W85788  37.072   6.784   1.780
22032W        W85789  18.681  14.185  12.508
22033W        W85790  14.695  42.994  14.398
22034W        W85791   1.461  32.556  14.907
22035W        W85792  18.165  22.049   1.251
22036W        W85793  31.532  13.619   3.381
22037W        W85794  36.415  10.335   3.818
22038W        W85795  12.313  11.269  10.518
22039W        W85796  24.567  18.232  13.447
22040W        W85797   5.431  25.611   2.895
22041W        W85798  29.024  29.458  14.357
22042W        W85799  31.636  39.042  14.871
22043W        W85800  28.963  38.885  12.474
22044W        W85801  22.741  32.982   2.685
22045W        W85802  33.096  23.720   2.285
22046W        W85803  22.663  39.875   2.200
22047W        W85804  34.609  37.556   5.172
22048W        W85805  38.364  16.663  12.940
22049W        W85806  21.112  30.966   4.226
22050W        W85807   0.334  23.166   2.680
22051W        W85808  31.089  44.370   2.270
22052W        W85809  41.304  17.709   0.763
22053W        W85810   1.282  16.731   1.210
22054W        W85811  42.776  21.038  11.580
22055W        W85812  19.160  21.222   3.272
22056W        W85813   0.251  33.939  13.001
22057W        W85814  29.919  17.295  13.793
22058W        W85815   9.290  29.963  13.957
22059W        W85816  36.084  10.261   3.195
22060W        W85817  24.634  13.691  13.360
22061W        W85818  16.715  36.920   0.876
22062W        W85819  25.024  40.864   1.290
22063W        W85820   9.670  35.056   1.344
22064W        W85821  18.173   4.812   0.353
22065W        W85822  23.670  39.040   0.925
22066W        W85823  24.502  23.604   0.959
22067W        W85824  42.283  24.626  14.950
22068W        W85825  11.854   0.742   2.687
22069W        W85826  20.559  15.186  13.544
22070W        W85827  36.988   3.356   1.844
22071W        W85828  43.871   5.352   3.750
22072W        W85829  37.481  44.384   2.676
22073W        W85830   2.464  24.660  13.366
22074W        W85831  12.198  43.493   5.240
22075W        W85832   0.494  40.875  14.490
22076W        W85833  39.534  28.569  11.921
22077W        W85834  10.160  19.172  12.838
22078W        W85835  43.344  25.658   4.299
22079W        W85836  28.636  27.634  13.323
22080W        W85837  33.503  28.643  11.578
22081W        W85838  17.245   7.681  14.831
22082W        W85839   8.899  35.494   1.726
22083W        W85840  43.437  32.516  13.428
22084W        W85841  20.045  16.203  12.850
22085W        W85842  27.601  10.731   0.415
22086W        W85843   8.744   4.708  14.878
22087W        W85844  43.835  26.579  13.396
22088W        W85845   1.784   0.988   2.863
22089W        W85846  21.597   5.392   4.172
22090W        W85847  29.922  33.390   3.197
22091W        W85848   8.290  26.630   4.236
22092W        W85849  33.475  43.791  11.512
22093W        W85850  38.043  13.702  11.536
22094W        W85851  14.320  42.469  14.383
22095W        W85852  10.367  19.718  14.373
22096W        W85853  42.400  11.249   1.369
22097W        W85854  36.387   0.862   0.475
22098W        W85855   2.898  14.658   2.815
22099W        W85856  44.968  11.371  13.531
22100W        W85857  28.573  10.230   2.223
22101W        W85858  32.409  11.689   2.745
22102W        W85859  21.668  44.876  14.395
22103W        W85860  41.296  14.688   1.418
22104W        W85861  34.946   1.945  12.349
22105W        W85862  34.069  17.148   4.133
22106W        W85863  10.748  12.835   1.355
22107W        W85864  17.141  28.479   1.326
22108W        W85865  20.260  17.098  13.448
22109W        W85866  29.968  34.007  14.890
22110W        W85867  18.741  18.725  12.374
22111W        W85868  32.599  41.422   5.303
22112W        W85869  41.001  14.209   4.188
22113W        W85870   7.903   6.911   3.376
22114W        W85871  23.621  32.890  13.030
22115W        W85872  42.405  17.097   1.345
22116W        W85873  34.011  42.343  13.517
22117W        W85874  25.568  28.517   4.350
22118W        W85875  44.316  23.190   2.676
22119W        W85876  44.768   1.267  12.433
22120W        W85877  24.664   2.307  12.999
22121W        W85878  25.491  41.317  11.608
22122W        W85879   2.285  27.131   3.695
22123W        W85880   0.408   7.868   2.777
22124W        W85881  31.570   9.188  14.946
22125W        W85882  40.307  41.966  14.896
22126W        W85883  37.350  15.780   3.647
22127W        W85884   5.812   9.259  14.935
22128W        W85885  22.586  26.008  12.370
22129W        W85886  36.875  17.268  11.981
22130W        W85887  19.716  44.505   0.375
22131W        W85888   9.155   0.297   4.277
22132W        W85889   9.290  14.321  14.011
22133W        W85890  27.462  13.787   0.245
22134W        W85891  16.567  17.135  14.903
22135W        W85892  42.418   9.670  10.438
22136W        W85893   7.388  15.703  11.546
22137W        W85894   6.748  20.647   1.703
22138W        W85895  34.529   9.728   2.835
22139W        W85896  42.887  37.437   2.679
22140W        W85897  44.948   1.761   0.862
22141W        W85898  13.124  14.294  13.329
22142W        W85899  33.005  30.456   3.233
22143W        W85900  26.610  13.727   1.326
22144W        W85901  41.840  42.405  13.850
22145W        W85902   7.817  10.347  14.497
22146W        W85903  16.242  25.626   3.206
22147W        W85904  24.153  31.569  12.053
22148W        W85905  18.768   3.451   3.742
22149W        W85906   0.470   6.837  13.874
22150W        W85907  26.951  21.136  11.940
22151W        W85908  33.881  11.859   4.826
22152W        W85909   9.321  20.684  14.907
22153W        W85910  38.504   9.870  14.812
22154W        W85911  15.656  21.557   1.387
22155W        W85912  26.699  12.186  11.053
22156W        W85913  15.785  31.600  13.507
22157W        W85914  33.018   9.753  11.609
22158W        W85915  21.204  43.366  11.471
22159W        W85916  26.500  16.636   2.377
22160W        W85917  10.267  16.249  12.498
22161W        W85918   2.257  16.297  13.458
22162W        W85919   6.355  30.452  11.996
22163W        W85920   3.242  13.692   0.748
22164W        W85921   2.373  19.136  11.104
22165W        W85922  13.614   3.822   4.665
22166W        W85923   9.774  13.124   3.685
22167W        W85924  35.883  22.055  10.909
22168W        W85925   7.283  36.022   3.287
22169W        W85926  25.517  34.467  14.813
22170W        W85927   0.842  22.016   1.712
22171W        W85928  25.589  36.047   1.249
22172W        W85929  14.688  28.002  14.758
22173W        W85930  38.043  43.926  11.509
22174W        W85931  34.874  42.408  11.451
22175W        W85932   7.666  43.488  12.495
22176W        W85933  43.419   2.344   1.786
22177W        W85934  41.304  44.970   4.319
22178W        W85935  15.610  13.189   2.843
22179W        W85936  23.716  12.339   3.158
22180W        W85937  15.603  26.061  14.878
22181W        W85938  21.535   6.269  14.900
22182W        W85939  14.605  13.288  11.028
22183W        W85940  13.684  34.576   2.890
22184W        W85941   4.827   4.279   4.303
22185W        W85942  19.077  11.263  12.835
22186W        W85943  35.420  18.693   2.233
22187W        W85944  28.507  43.876  14.953
22188W        W85945  32.010   0.412   2.340
22189W        W85946   6.809  41.512   2.411
22190W        W85947  41.878   0.324  14.825
22191W        W85948  13.183  30.995   3.795
22192W        W85949  42.342  35.429  14.807
22193W        W85950  39.466  16.131  10.466
22194W        W85951  25.512  11.673   3.345
22195W        W85952  34.493  29.012   2.729
22196W        W85953  10.270  43.887   3.224
22197W        W85954   7.280   2.797   1.792
22198W        W85955  27.539  14.771   2.757
22199W        W85956  15.644  22.512   2.802
22200W        W85957  13.184  29.011   1.830
22201W        W85958  38.072  40.028   1.921
22202W        W85959   3.754   2.314   4.614
22203W        W85960  10.312  24.129   1.931
22204W        W85961   7.259  14.667  10.538
22205W        W85962  19.270   1.922   2.842
22206W        W85963  40.968  38.475   4.627
22207W        W85964  30.626  24.100   0.930
22208W        W85965  41.349  42.870  14.288
22209W        W85966  34.963  15.090  12.067
22210W        W85967   1.254  14.256   1.906
22211W        W85968   5.861   7.351   0.959
22212W        W85969  29.539  25.162   4.678
22213W        W85970   3.791  37.367  12.043
22214W        W85971  39.856  34.439  11.450
22215W        W85972  44.981  13.192  13.024
22216W        W85973  40.495  20.679   2.799
22217W        W85974  44.828  29.590   0.361
22218W        W85975  39.879   1.960  13.856
22219W        W85976  36.940  32.545  13.793
22220W        W85977   9.886  26.622   1.315
22221W        W85978  39.474  20.762  13.531
22222W        W85979  21.031   0.386  14.365
22223W        W85980  24.008  12.675  14.323
22224W        W85981   3.420  42.309   3.217
22225W        W85982  38.949  20.755   0.295
22226W        W85983  24.055   5.269  13.014
22227W        W85984   9.768  18.102   3.662
22228W        W85985  26.468  23.035  14.771
22229W        W85986  17.289   8.679   1.857
22230W        W85987   7.286  25.060  13.958
22231W        W85988  30.647  38.925  10.425
22232W        W85989  14.162  10.683   3.784
22233W        W85990  27.661  26.071  10.577
22234W        W85991  27.125  31.915  10.412
22235W        W85992  34.447  36.524  11.497
22236W        W85993   1.784  21.570  14.305
22237W        W85994  10.237  39.838   2.752
22238W        W85995  21.603  31.031   1.828
22239W        W85996   5.815  15.651  12.489
22240W        W85997  12.267   3.850   0.743
22241W        W85998  36.857   6.708   2.748
22242W        W85999  41.840   2.449  13.517
22243W        W86000  30.996  12.274  13.415
22244W        W86001   0.916  41.429   1.357
22245W        W86002  22.717  30.490   4.204
22246W        W86003   6.799   1.341  11.956
22247W        W86004  17.793  32.609   3.207
22248W        W86005  36.899  40.400  13.029
22249W        W86006   0.948  21.695  11.997
22250W        W86007  10.824  41.298   1.923
22251W        W86008  14.179   3.807  12.362
22252W        W86009  36.584  39.491   0.305
22253W        W86010  44.489  33.485   1.811
22254W        W86011   9.160   5.284   1.926
22255W        W86012   2.854  11.243   1.239
22256W        W86013   3.845  15.669   4.768
22257W        W86014   0.409  30.537   1.398
22258W        W86015  10.633   2.317  10.573
22259W        W86016  11.666  43.350   0.466
22260W        W86017  35.015  35.520   3.268
22261W        W86018  25.166   9.309   2.204
22262W        W86019   3.842  24.518   4.598
22263W        W86020  11.805  14.633   1.860
22264W        W86021  36.404  19.627  10.147
22265W        W86022  12.154  12.337   4.239
22266W        W86023  23.706   4.320  14.414
22267W        W86024  12.702   8.178   0.280
22268W        W86025  12.718  10.766   4.676
22269W        W86026  29.064  10.256   2.768
22270W        W86027   8.698  17.743  14.928
22271W        W86028  29.064  17.567  12.392
22272W        W86029  39.838  35.039   2.724
22273W        W86030  30.004   2.843   0.884
22274W        W86031  16.075  10.172  11.606
22275W        W86032  26.157  34.457   1.399
22276W        W86033  14.668  15.645   0.734
22277W        W86034   4.295  13.745  10.530
22278W        W86035   8.815  36.066   1.296
22279W        W86036   7.270  11.331  13.376
22280W        W86037  13.675  31.599   0.823
22281W        W86038   6.319   8.163  12.021
22282W        W86039  14.295  11.216  12.468
22283W        W86040  29.564  30.539   3.252
22284W        W86041   9.330  43.999  14.853
22285W        W86042  15.238  11.250  14.468
22286W        W86043  17.785  35.017   2.232
22287W        W86044  44.289  34.556  10.001
22288W        W86045  17.189  21.749   4.256
22289W        W86046  31.922  42.863   1.757
22290W        W86047  28.963  43.937  14.851
22291W        W86048  14.262   7.894  12.094
22292W        W86049  39.363   7.197  11.382
22293W        W86050  33.967  11.701  12.531
22294W        W86051   2.435  32.963   3.747
22295W        W86052  41.842  12.334   3.348
22296W        W86053  31.142  42.934  14.916
22297W        W86054  19.762  31.973  12.986
22298W        W86055  29.603   2.739  13.015
22299W        W86056  17.113   9.195   0.951
22300W        W86057  20.191  40.820  10.439
22301W        W86058  36.369  16.723  11.878
22302W        W86059   6.735  42.838   4.216
22303W        W86060  14.686  34.498  12.437
22304W        W86061  12.624  33.474   1.277
22305W        W86062  17.182  34.966  10.982
22306W        W86063  13.755   4.725   3.154
22307W        W86064  24.129  29.448   4.794
22308W        W86065  31.508   9.659   1.279
22309W        W86066  16.304  21.217   4.128
22310W        W86067  40.798  14.128   2.688
22311W        W86068  31.072  22.733  13.814
22312W        W86069  18.128  35.590   1.289
22313W        W86070  10.383  29.559   5.275
22314W        W86071   0.834   1.442  12.090
22315W        W86072  32.566   1.428  10.941
22316W        W86073  15.640   7.893  12.571
22317W        W86074  43.379  15.127  11.605
22318W        W86075  26.116   1.806  14.934
22319W        W86076  42.993  26.459   4.225
22320W        W86077  20.607  42.967  11.876
22321W        W86078  30.653  15.286  13.454
22322W        W86079  22.646   2.268  12.421
22323W        W86080  39.555  21.245   3.720
22324W        W86081  15.288  38.035  12.867
22325W        W86082  12.833  42.296  10.069
22326W        W86083  29.565  11.239  12.541
22327W        W86084  21.035   5.238   3.721
22328W        W86085  25.650  25.109  14.364
22329W        W86086  10.805  32.582   3.805
22330W        W86087  44.845  39.525  11.903
22331W        W86088  41.011  23.017   0.881
22332W        W86089   4.934  20.090  12.350
22333W        W86090  36.438  22.179   3.839
22334W        W86091   5.914  22.502  14.810
22335W        W86092   2.400  25.150   0.439
22336W        W86093   7.825  33.533   4.120
22337W        W86094   7.243   7.851  12.393
22338W        W86095  14.112  15.329  13.962
22339W        W86096   8.746  34.869  14.483
22340W        W86097  35.934  39.813   3.332
22341W        W86098  19.774  31.578   4.827
22342W        W86099  42.457  20.075  11.899
22343W        W86100  38.937   9.727  13.810
22344W        W86101  38.497  38.837  10.640
22345W        W86102  31.921   0.891   4.132
22346W        W86103  20.246   6.330   0.914
22347W        W86104  32.395  24.556  14.306
22348W        W86105   2.846  36.059   0.785
22349W        W86106  27.660  43.388  13.504
22350W        W86107   6.842  10.384   2.882
22351W        W86108   1.912   5.386  14.431
22352W        W86109  42.843  42.522  12.864
22353W        W86110  20.202   6.787  10.502
22354W        W86111  20.752  32.456  12.488
22355W        W86112  20.049  11.750  14.970
22356W        W86113  40.934  11.344  14.437
22357W        W86114  23.668  37.522   4.282
22358W        W86115  13.726  33.495  11.048
22359W        W86116  43.359  20.217   3.749
22360W        W86117   9.276  13.709  13.825
22361W        W86118  24.564  30.093  11.887
22362W        W86119  15.243  21.562  13.828
22363W        W86120   7.715   6.894   2.902
22364W        W86121  30.082  30.587  14.304
22365W        W86122  16.744  21.074   1.375
22366W        W86123  44.423  28.596   5.254
22367W        W86124  44.867  19.136   0.304
22368W        W86125  19.564  35.011   1.871
22369W        W86126  21.668  24.189   0.457
22370W        W86127  30.041  19.766   0.838
22371W        W86128  32.470  39.872  10.522
22372W        W86129  40.499  29.647   5.229
22373W        W86130   4.401  38.390  12.494
22374W        W86131  14.222  42.883   9.548
22375W        W86132  25.640  10.347  14.989
22376W        W86133  25.169  36.079  11.507
22377W        W86134  30.517  42.419   3.284
22378W        W86135  40.953  43.359   3.235
22379W        W86136  27.173  18.153   4.186
22380W        W86137   9.712  34.966   3.780
22381W        W86138  23.715  14.634  14.928
22382W        W86139  32.390  33.967   4.833
22383W        W86140  20.206  39.926  12.966
22384W        W86141  34.610  33.384   4.320
22385W        W86142   3.258  32.456   4.619
22386W        W86143   3.241   8.384  14.329
22387W        W86144   9.654  20.140  11.979
22388W        W86145  31.945  34.509   4.344
22389W        W86146  32.456   3.755  14.854
22390W        W86147  31.091  22.731  12.006
22391W        W86148  21.184  40.029  11.428
22392W        W86149  26.088  41.512  13.441
22393W        W86150  28.009  44.807  14.868
22394W        W86151  18.721   1.460  12.923
22395W        W86152  12.791   6.785  14.482
22396W        W86153  17.121  34.383  10.538
22397W        W86154  44.329  21.240   3.640
22398W        W86155  38.895  14.826  12.509
22399W        W86156  21.587   1.377  13.015
22400W        W86157  24.609  37.413  14.344
22401W        W86158   8.773  32.601  11.907
22402W        W86159  40.397   9.259   4.276
22403W        W86160  16.652   7.369  14.768
22404W        W86161  17.188  21.573   2.188
22405W        W86162  29.073  22.230  14.512
22406W        W86163  41.912  26.681  11.402
22407W        W86164  40.371  35.992  10.146
22408W        W86165  14.320  25.981   4.767
22409W        W86166   1.358   4.752   3.211
22410W        W86167   0.477  44.007   1.864
22411W        W86168  25.614  21.225  13.900
22412W        W86169  12.212   7.778   4.754
22413W        W86170  39.423  23.035   0.886
22414W        W86171   8.898  41.491   1.322
22415W        W86172  33.936  20.058   0.256
22416W        W86173   6.916  15.094  13.470
22417W        W86174  31.987  21.543  11.865
22418W        W86175  26.117   1.438  13.440
22419W        W86176   6.385  21.190   3.841
22420W        W86177  25.487   5.237   3.755
22421W        W86178  10.711  33.535   2.241
22422W        W86179  43.320  22.089   0.769
22423W        W86180   4.397  25.487  11.463
22424W        W86181  22.531  43.383  13.466
22425W        W86182   7.272  12.116  10.948
22426W        W86183  22.644  42.447  12.882
22427W        W86184  36.375  16.686  13.325
22428W        W86185   9.222  37.858   3.845
22429W        W86186  34.449  38.894  14.849
22430W        W86187   3.231  43.461   2.688
22431W        W86188  33.618  34.567  14.904
22432W        W86189  18.089  42.482  13.050
22433W        W86190   5.870  23.037  13.892
22434W        W86191  20.724  34.460  14.371
22435W        W86192  25.613  40.833  11.452
22436W        W86193  24.715   4.859  11.891
22437W        W86194  24.632  43.324   4.601
22438W        W86195   0.471   5.200  13.042
22439W        W86196  21.257  21.030  14.303
22440W        W86197   3.872  26.176  12.978
22441W        W86198  17.769  17.304  12.848
22442W        W86199  36.063  42.381   1.256
22443W        W86200   6.282  42.019  10.940
22444W        W86201   3.286  35.365   0.826
22445W        W86202   9.852  32.112   2.878
22446W        W86203  13.268  32.036  13.333
22447W        W86204  26.063  36.046   1.322
22448W        W86205   6.764  37.865   4.680
22449W        W86206   2.899  24.991  10.497
22450W        W86207   7.385  16.742   3.147
22451W        W86208  10.879   6.826  13.533
22452W        W86209   7.409  22.613  12.032
22453W        W86210   0.846  28.568  12.937
22454W        W86211  10.742  30.926  10.625
22455W        W86212   6.330   3.444   1.235
22456W        W86213  28.556   1.949  12.389
22457W        W86214  13.607  38.035   4.299
22458W        W86215  14.220  18.210   3.197
22459W        W86216   6.202  10.380   2.774
22460W        W86217  10.644  11.750  13.357
22461W        W86218  38.449  20.723   3.258
22462W        W86219  15.688  12.287   1.917
22463W        W86220  32.137  24.065  12.393
22464W        W86221  23.634   8.767  12.950
22465W        W86222   7.397  30.003  11.440
22466W        W86223   9.791  41.299   1.263
22467W        W86224  17.088  40.542   3.756
22468W        W86225  19.120  18.071  11.577
22469W        W86226  43.490  13.162   2.235
22470W        W86227  18.186  16.682  12.912
22471W        W86228  23.999   2.345  13.452
22472W        W86229  25.596  10.716   4.806
22473W        W86230  38.567  37.393   2.726
22474W        W86231  40.425  15.160  12.900
22475W        W86232  31.608   1.776  12.891
22476W        W86233  38.416  41.353   1.409
22477W        W86234  31.125  11.308   0.962
22478W        W86235  34.482  38.927   3.286
22479W        W86236  13.267  36.869   2.408
22480W        W86237  36.470   9.867  11.878
22481W        W86238  26.647  41.819   2.730
22482W        W86239  33.988   4.793   3.834
22483W        W86240  44.430  41.415  10.901
22484W        W86241   3.743  32.944  13.834
22485W        W86242  22.566  38.044   3.197
22486W        W86243  29.488   4.927  12.031
22487W        W86244  43.021  35.507   0.873
22488W        W86245  33.900   1.284   1.354
22489W        W86246   8.690  38.877  11.076
22490W        W86247  24.549  11.261  13.974
22491W        W86248  21.661  39.324  11.390
22492W        W86249  15.586  10.205  12.393
22493W        W86250  16.225  21.118  13.333
22494W        W86251  36.588  39.961  10.643
22495W        W86252  17.110  25.983   1.388
22496W        W86253   0.884  27.642  13.877
22497W        W86254  43.339  34.500   1.379
22498W        W86255  17.789  12.150  13.950
22499W        W86256   8.872  21.119   2.285
22500W        W86257   5.868  32.558  14.996
22501W        W86258   3.251  23.038  14.856
22502W        W86259   3.348  38.871   0.390
22503W        W86260  25.539  42.404  13.548
22504W        W86261  38.902  44.856  10.968
22505W        W86262  26.589   6.836  13.410
22506W        W86263  39.372   5.921  13.399
22507W        W86264  32.584   3.301   2.289
22508W        W86265  36.543  27.461   1.315
22509W        W86266   3.416  25.568   1.416
22510W        W86267   2.230  26.641   1.237
22511W        W86268  10.699  35.367   2.891
22512W        W86269  35.472  36.885  12.538
22513W        W86270  11.636  29.170   0.773
22514W        W86271  25.139  31.066   4.689
22515W        W86272   8.279  19.138  13.534
22516W        W86273  11.801  29.577  13.514
22517W        W86274  44.400  43.785   4.129
22518W        W86275   3.925  20.728   1.762
22519W        W86276   7.387  11.793   4.621
22520W        W86277  31.976  24.012   5.188
22521W        W86278  24.155  36.086   3.145
22522W        W86279   0.308  41.007  10.502
22523W        W86280  18.127  27.667  11.125
22524W        W86281   8.777  21.183  14.933
22525W        W86282  44.971  23.098   2.793
22526W        W86283  24.223  39.913  14.393
22527W        W86284  13.724  10.195  10.447
22528W        W86285  42.929  33.902   3.702
22529W        W86286  16.090   6.738   1.915
22530W        W86287  15.590   7.749  13.044
22531W        W86288   3.913   0.270  13.338
22532W        W86289   9.814   0.434   3.230
22533W        W86290  31.962  29.621   1.228
22534W        W86291  43.414  22.170   4.686
22535W        W86292  34.560   8.235   4.303
22536W        W86293  39.457  34.972   3.699
22537W        W86294   6.223  35.507  14.764
22538W        W86295  44.283  26.536   3.797
22539W        W86296  19.186  10.284  13.838
22540W        W86297   8.331  22.703  13.052
22541W        W86298  36.045   0.848  12.507
22542W        W86299  32.031  36.923  12.019
22543W        W86300  19.283   0.459  13.426
22544W        W86301  26.106  13.209  11.491
22545W        W86302  22.128  30.152   4.245
22546W        W86303  43.813  13.802   1.796
22547W        W86304  34.934   4.730  14.913
22548W        W86305   2.238  11.291   2.804
22549W        W86306  26.611  24.146   4.298
22550W        W86307  19.228   0.463   1.910
22551W        W86308  27.548  12.270   0.248
22552W        W86309  14.785  33.904   2.341
22553W        W86310   2.300  28.610   4.801
22554W        W86311  12.205  38.447   0.313
22555W        W86312  28.116  11.292   4.320
22556W        W86313   4.913   8.794   3.357
22557W        W86314  41.923  36.871  14.320
22558W        W86315   4.329  37.492  10.940
22559W        W86316   6.425  29.533   2.696
22560W        W86317   4.827  43.415  12.823
22561W        W86318  18.686  17.158  13.915
22562W        W86319  22.741  41.822  12.912
22563W        W86320  21.151  35.876  14.933
22564W        W86321   0.984  35.455   4.633
22565W        W86322  19.757  20.178   2.375
22566W        W86323  28.122  27.481  10.486
22567W        W86324  22.203  25.051  12.508
22568W        W86325  33.955  20.157  11.485
22569W        W86326  34.925  19.760  12.037
22570W        W86327  33.901   0.258  11.035
22571W        W86328   7.906  34.403   5.312
22572W        W86329  26.584  37.893   3.352
22573W        W86330  43.990   7.673  12.498
22574W        W86331  36.873  12.644   4.689
22575W        W86332  42.910  32.496   4.649
22576W        W86333  41.538   2.236  11.981
22577W        W86334  12.221  16.568   1.903
22578W        W86335   5.298  26.151  13.966
22579W        W86336  14.751  34.896  10.500
22580W        W86337   7.314   7.268  13.475
22581W        W86338  12.333  33.991  12.352
22582W        W86339  27.134  40.848   0.426
22583W        W86340  37.952   3.446   2.899
22584W        W86341  36.395   2.230  13.025
22585W        W86342  22.012  40.307  13.366
22586W        W86343  36.856   6.846   0.398
22587W        W86344  30.631  44.778  11.493
22588W        W86345  38.864  26.521  11.117
22589W        W86346  16.672  27.482   0.244
22590W        W86347  33.096  26.700   9.633
22591W        W86348  16.805   4.362   1.801
22592W        W86349   2.346  12.711   3.207
22593W        W86350  16.630  22.613   1.870
22594W        W86351  29.984  14.707   9.967
22595W        W86352  43.886  14.737   2.805
22596W        W86353  25.038  43.488  11.426
22597W        W86354  37.532   7.297  10.541
22598W        W86355  33.053   7.290   0.966
22599W        W86356  38.566  38.497   3.196
22600W        W86357  27.509   9.273  12.397
22601W        W86358  33.426   4.206   0.339
22602W        W86359   8.890  12.176   3.785
22603W        W86360   0.329  10.289  10.894
22604W        W86361   3.332  17.798  13.814
22605W        W86362  40.869  16.668  14.400
22606W        W86363  24.211  21.636   3.630
22607W        W86364  14.647   0.283   0.279
22608W        W86365  25.612  25.080   0.445
22609W        W86366  19.165  34.889  14.427
22610W        W86367   5.923  42.362  13.977
22611W        W86368   9.319  12.250   2.236
22612W        W86369  21.181   8.174   2.396
22613W        W86370   3.762  15.236   2.320
22614W        W86371   5.339  14.125  14.913
22615W        W86372  16.104  12.228   1.804
22616W        W86373  18.683  37.530   0.475
22617W        W86374  10.876  30.099  14.776
22618W        W86375  19.202   4.242  14.313
22619W        W86376  22.587  30.040  11.520
22620W        W86377  19.735   7.216   4.323
22621W        W86378  26.150  23.188  12.962
22622W        W86379  24.545  28.492  11.994
22623W        W86380  42.832  21.523  13.438
22624W        W86381  41.920   5.824  14.999
22625W        W86382  42.018  25.612   0.273
22626W        W86383   6.887  22.621   4.289
22627W        W86384   0.969  19.597  14.296
22628W        W86385  23.734  34.010  14.430
22629W        W86386   0.822  12.649  12.528
22630W        W86387   7.239  30.015   0.354
22631W        W86388   3.387  10.694   1.306
22632W        W86389  41.433  18.069   3.744
22633W        W86390  23.572  23.698   2.213
22634W        W86391  44.928  18.719   2.193
22635W        W86392  15.772  22.006  14.392
22636W        W86393  19.629  19.765   2.713
22637W        W86394  10.718  21.735   3.815
22638W        W86395   0.337  31.462   1.377
22639W        W86396  23.501  38.427  12.403
22640W        W86397  30.475   4.366   3.208
22641W        W86398  39.934  25.706  13.975
22642W        W86399  32.090  26.559  12.942
22643W        W86400   6.894  29.002  14.490
22644W        W86401  41.945  12.664   2.668
22645W        W86402   2.862  44.931  11.419
22646W        W86403  33.576  37.450   2.373
22647W        W86404   5.812  27.180   2.678
22648W        W86405  29.467  34.572  14.302
22649W        W86406  18.710   3.921   1.262
22650W        W86407  42.318  22.080   4.647
22651W        W86408  44.866  33.385  11.430
22652W        W86409  42.867   0.453   2.416
22653W        W86410  19.772   4.764  13.358
22654W        W86411  33.087   0.394  14.914
22655W        W86412   6.254  28.067   3.745
22656W        W86413   3.351  38.056   3.767
22657W        W86414  19.100  37.525  14.833
22658W        W86415   1.828  28.097  14.856
22659W        W86416  27.954   6.355  13.874
22660W        W86417  13.641  39.446  11.978
22661W        W86418  23.212  12.617   4.734
22662W        W86419  31.612  39.331  11.516
22663W        W86420  31.142  38.530   2.715
22664W        W86421  22.235  13.774   2.798
22665W        W86422  14.182  19.262  12.552
22666W        W86423   2.858  44.459   2.251
22667W        W86424  34.418  41.001   3.275
22668W        W86425  22.009  38.473   1.830
22669W        W86426  43.324   9.207  12.831
22670W        W86427  32.970  39.017   0.308
22671W        W86428  36.363   5.695   4.825
22672W        W86429  12.204  13.244  13.024
22673W        W86430  11.225  11.284   2.854
22674W        W86431  37.081   7.881   4.175
22675W        W86432  33.509  26.478  13.436
22676W        W86433  27.086  14.590   3.824
22677W        W86434  33.381  33.972   3.803
22678W        W86435  15.816  44.941   2.220
22679W        W86436  28.992  44.892  11.073
22680W        W86437  36.048  38.871  12.565
22681W        W86438  41.990  33.025  12.518
22682W        W86439  37.459  35.094   1.300
22683W        W86440  25.034  25.014   1.911
22684W        W86441   9.677   8.319  13.403
22685W        W86442  32.637  33.975  14.989
22686W        W86443  43.401  34.460   2.375
22687W        W86444  18.673  39.543   2.804
22688W        W86445   8.364  25.975   4.754
22689W        W86446  31.931  30.621  12.435
22690W        W86447  39.998  27.508   2.722
22691W        W86448  37.888   4.400  14.354
22692W        W86449   1.402   0.752   0.255
22693W        W86450   5.865  26.000   1.742
22694W        W86451  33.604  43.928   2.334
22695W        W86452  19.700  18.575   0.947
22696W        W86453  23.528  15.596  11.080
22697W        W86454  40.926  19.748   2.210
22698W        W86455  14.137  14.305  14.899
22699W        W86456  15.154  29.511  10.909
22700W        W86457  11.334  10.844   2.765
22701W        W86458   9.255  21.184   2.829
22702W        W86459  42.920  34.375   4.134
22703W        W86460   5.820  16.751  10.037
22704W        W86461  44.282  22.671  14.288
22705W        W86462  38.076  17.601  14.431
22706W        W86463   4.854  38.074  10.979
22707W        W86464  17.186  25.979   2.194
22708W        W86465   4.264  33.458   2.349
22709W        W86466  34.499   3.849   0.466
22710W        W86467  13.350   1.756  12.403
22711W        W86468  44.448   9.254   1.270
22712W        W86469  27.611  16.707   4.346
22713W        W86470  31.037  32.137   0.872
22714W        W86471  15.289  18.164  12.443
22715W        W86472  10.662   9.153   0.953
22716W        W86473  35.598  40.986   4.185
22717W        W86474  10.344   0.477   2.758
22718W        W86475  30.938   9.666   1.359
22719W        W86476  32.129  39.361   0.366
22720W        W86477  19.234   4.876  14.827
22721W        W86478   7.911  41.800   0.758
22722W        W86479  34.579  22.251  13.868
22723W        W86480  21.660  29.527  11.921
22724W        W86481  23.173   6.763  13.974
22725W        W86482  42.520  31.004  12.088
22726W        W86483  28.581  13.717   1.708
22727W        W86484  14.601  31.606  13.803
22728W        W86485  38.390  37.922   1.807
22729W        W86486  18.689   9.748   4.750
22730W        W86487  37.413  35.945  14.481
22731W        W86488  16.293  24.582   3.264
22732W        W86489  31.937  10.717   2.377
22733W        W86490  25.017  11.165  11.913
22734W        W86491  22.720  44.965  10.583
22735W        W86492  16.642  14.600   5.298
22736W        W86493  40.016  23.672  11.072
22737W        W86494   0.967  24.143   0.292
22738W        W86495  31.612   0.418   2.323
22739W        W86496  10.718   8.695  13.029
22740W        W86497  37.513  31.405  14.284
22741W        W86498  33.942  14.221  14.771
22742W        W86499  28.954   9.384  12.451
22743W        W86500  27.950  23.102   0.273
22744W        W86501  26.578  30.614  14.967
22745W        W86502   6.903   1.839   1.757
22746W        W86503  31.018   1.973  12.854
22747W        W86504  39.927  34.458   1.268
22748W        W86505   0.895  34.061  12.558
22749W        W86506  19.778  28.651   0.260
22750W        W86507  27.643  39.057   4.661
22751W        W86508   0.463  17.258  14.790
22752W        W86509  31.408  35.431  13.958
22753W        W86510  18.791  22.650  11.128
22754W        W86511  30.559  14.816  14.954
22755W        W86512  36.942  11.792   3.818
22756W        W86513  39.025  44.989   1.847
22757W        W86514  41.360  15.737   5.223
22758W        W86515  17.134  38.416   0.827
22759W        W86516  42.787  12.145   0.311
22760W        W86517  38.347  25.972  12.951
22761W        W86518  35.973   9.235   3.819
22762W        W86519   4.251  32.446  11.025
22763W        W86520  23.064  12.743   0.934
22764W        W86521  38.921  19.052   0.279
22765W        W86522   7.227  44.878   2.662
22766W        W86523  12.696  41.890   4.798
22767W        W86524   4.429   3.258   0.306
22768W        W86525   4.705  38.383  13.532
22769W        W86526  39.963  27.121   0.884
22770W        W86527  42.824  20.190   0.303
22771W        W86528  35.954  27.086   3.269
22772W        W86529  29.097  28.954   4.232
22773W        W86530  42.433   3.880   0.810
22774W        W86531  35.458  22.236   4.274
22775W        W86532   4.884  34.088  11.887
22776W        W86533  14.221  25.640  11.530
22777W        W86534  35.477  35.033   4.295
22778W        W86535  26.972  10.340   4.251
22779W        W86536   2.893  15.603   2.748
22780W        W86537  41.905  14.664  10.422
22781W        W86538  11.856  19.642  12.971
22782W        W86539   3.854  20.690   1.327
22783W        W86540  12.298  41.849   0.437
22784W        W86541  11.652  30.651  13.873
22785W        W86542  21.163   1.746  14.459
22786W        W86543   3.436   6.858  14.281
22787W        W86544   2.359  13.710  13.000
22788W        W86545  33.982  20.624  10.921
22789W        W86546  34.543  27.687  11.942
22790W        W86547  21.233  18.657   0.959
22791W        W86548   8.197  43.354  11.509
22792W        W86549  11.805  13.228  13.860
22793W        W86550  41.017   4.879   1.268
22794W        W86551   4.707  43.974   1.303
22795W        W86552  12.682  30.566  11.125
22796W        W86553   2.301  24.560  14.803
22797W        W86554  38.942   4.278   9.673
22798W        W86555   9.818  38.363   0.741
22799W        W86556  35.051  16.699  14.832
22800W        W86557  28.631  39.941  11.116
22801W        W86558  38.338   9.305  12.843
22802W        W86559  27.991  38.474  12.520
22803W        W86560   3.955  33.097   0.888
22804W        W86561   2.963  27.079   3.655
22805W        W86562  36.591  21.237  14.368
22806W        W86563  41.447  19.568  11.983
22807W        W86564  33.887  35.095  12.925
22808W        W86565  15.738  33.960  10.405
22809W        W86566   2.954  39.979  11.861
22810W        W86567  23.621  30.552   3.322
22811W        W86568   6.363  18.674  12.898
22812W        W86569   4.251   7.857   0.412
22813W        W86570   2.753  25.099  13.391
22814W        W86571  40.386  11.818  12.900
22815W        W86572  38.037   1.875  11.121
22816W        W86573  15.085  21.539  12.492
22817W        W86574  44.902  35.382  13.820
22818W        W86575  36.545   8.860   2.419
22819W        W86576   2.340  38.981  12.457
22820W        W86577   2.252   4.702   4.227
22821W        W86578  29.474  37.481  13.503
22822W        W86579  16.672  10.226   0.932
22823W        W86580  44.812  29.524  13.498
22824W        W86581  16.114  18.061   4.611
22825W        W86582  38.530  38.344  11.873
22826W        W86583  38.441  37.958   2.687
22827W        W86584  27.091  29.982   0.438
22828W        W86585  10.310   3.943   2.750
22829W        W86586  18.566   1.897   0.743
22830W        W86587   2.745  22.581   4.238
22831W        W86588  29.057  36.501   3.844
22832W        W86589  32.007  25.661  10.418
22833W        W86590  31.950  12.159   1.715
22834W        W86591  28.146  40.913   2.218
22835W        W86592   3.748  43.969  12.058
22836W        W86593  35.372   9.863   4.794
22837W        W86594   6.181  41.867  14.939
22838W        W86595  38.502  42.376  14.020
22839W        W86596  13.206  36.575   1.768
22840W        W86597  23.194  18.053   2.378
22841W        W86598  32.994  26.683  12.409
22842W        W86599  16.811   2.879   2.825
22843W        W86600   7.310   3.767   1.439
22844W        W86601  26.087   5.799  11.420
22845W        W86602  20.601  22.062  13.527
22846W        W86603   1.852  25.191  13.531
22847W        W86604  21.233  19.681  10.499
22848W        W86605  41.493  36.891  14.431
22849W        W86606   2.753  30.521   1.881
22850W        W86607  42.000  33.464   1.923
22851W        W86608   1.443  23.560  11.103
22852W        W86609  18.594  16.111   0.380
22853W        W86610  32.455  21.511   2.757
22854W        W86611   5.233  14.181  14.422
22855W        W86612   1.915   3.846   0.448
22856W        W86613  19.548  35.861  13.870
22857W        W86614  12.830  20.525   3.321
22858W        W86615   1.271  18.129  11.986
22859W        W86616  16.278  29.982  11.491
22860W        W86617  15.775  10.168  12.061
22861W        W86618  24.620  11.622   4.320
22862W        W86619  19.186  41.484  10.414
22863W        W86620  24.660  29.070  12.835
22864W        W86621  36.845  12.210   3.829
22865W        W86622  13.141  14.795  11.938
22866W        W86623  33.946  30.476  13.323
22867W        W86624  25.144  36.551   0.348
22868W        W86625  19.694  16.810  12.447
22869W        W86626  22.161   3.312   3.246
22870W        W86627  15.803  16.616  12.079
22871W        W86628  17.669  20.609  13.439
22872W        W86629  38.842  30.560  11.868
22873W        W86630  19.061  16.801   4.276
22874W        W86631  28.612   5.341   4.189
22875W        W86632  26.546  42.026   4.607
22876W        W86633  22.059   0.378  13.882
22877W        W86634  26.539  36.579  10.909
22878W        W86635  19.248  28.077   4.218
22879W        W86636   8.369   3.314   1.272
22880W        W86637  14.680   5.330  14.944
22881W        W86638  31.588  14.679   1.309
22882W        W86639  38.071  29.585  13.375
22883W        W86640  11.183  36.845   0.483
22884W        W86641  18.067  26.208  13.490
22885W        W86642  40.363  42.806  14.831
22886W        W86643  19.728  30.611  12.512
22887W        W86644  30.655  21.037  12.492
22888W        W86645  41.470  35.854   2.736
22889W        W86646  28.640  43.856   0.883
22890W        W86647  22.205  35.574  14.845
22891W        W86648  18.614  11.818   0.754
22892W        W86649  21.597  30.970  13.999
22893W        W86650  10.709  41.512   1.435
22894W        W86651  33.428  40.318  14.004
22895W        W86652  26.160   7.703   3.850
22896W        W86653  29.026   6.798   4.667
22897W        W86654   1.359  27.654  12.844
22898W        W86655  35.478  38.856   3.203
22899W        W86656  21.099  38.921   3.667
22900W        W86657  30.076  18.128  14.805
22901W        W86658  36.570   9.658  11.024
22902W        W86659  36.948  10.811   4.638
22903W        W86660   9.219  21.184   0.263
22904W        W86661  13.746  15.245   4.640
22905W        W86662  31.471  41.454   0.415
22906W        W86663  28.445  12.767  12.952
22907W        W86664  44.449   7.901  13.433
22908W        W86665  33.009  31.442   3.799
22909W        W86666  35.001  17.183  14.946
22910W        W86667  32.053  35.437  11.497
22911W        W86668  16.075  43.370   3.233
22912W        W86669   6.697   6.756   4.165
22913W        W86670  28.134  41.018   3.854
22914W        W86671  11.774  39.029   4.838
22915W        W86672  34.424   6.317  14.503
22916W        W86673  23.643  37.492  10.609
22917W        W86674  29.465  17.146  14.774
22918W        W86675  37.388  13.824  13.854
22919W        W86676  40.945  20.651  12.380
22920W        W86677   1.859  18.651   1.713
22921W        W86678  27.041  24.690   5.238
22922W        W86679  26.476  30.648   2.396
22923W        W86680   8.293   1.286  12.054
22924W        W86681  27.156  26.576  14.305
22925W        W86682  40.338   9.229  11.387
22926W        W86683  31.414  24.571  14.827
22927W        W86684  31.002  44.407  11.936
22928W        W86685   8.808   9.820  12.931
22929W        W86686  34.027   3.913   5.086
22930W        W86687  44.775  29.623   2.261
22931W        W86688  19.699  16.315   4.244
22932W        W86689  42.014   1.871   4.305
22933W        W86690  41.331  36.899   2.671
22934W        W86691  32.589  19.055  14.504
22935W        W86692  32.982  11.837  12.035
22936W        W86693  25.212   9.794  10.586
22937W        W86694  17.602  39.547   3.176
22938W        W86695  42.419  11.795  11.415
22939W        W86696  31.467  23.544  11.485
22940W        W86697  26.959  11.315   4.718
22941W        W86698  10.743  36.388  10.585
22942W        W86699  23.121  37.898   1.704
22943W        W86700  10.354   5.701   1.344
22944W        W86701  25.524  41.962  13.977
22945W        W86702  22.065  13.804   0.931
22946W        W86703   5.398   0.484  13.411
22947W        W86704  36.857  10.809  10.414
22948W        W86705   8.825  44.985  14.947
22949W        W86706  42.453  41.306  10.600
22950W        W86707  38.545   5.413  12.840
22951W        W86708   0.414   2.389  12.435
22952W        W86709  20.216  39.834   1.730
22953W        W86710  22.653  23.680  14.962
22954W        W86711   6.805  29.125   4.723
22955W        W86712  22.527  11.773   4.802
22956W        W86713  30.530  10.860  11.060
22957W        W86714  36.912  42.388  13.912
22958W        W86715  15.778  30.590  10.492
22959W        W86716  10.846  35.461   3.706
22960W        W86717   3.280  37.010  10.550
22961W        W86718  14.318  15.590  11.022
22962W        W86719   7.218  23.638  14.389
22963W        W86720  14.263  31.103   0.818
22964W        W86721  26.561  42.905  10.496
22965W        W86722  44.817  14.140  12.544
22966W        W86723  14.814   4.821  14.494
22967W        W86724  34.542  10.703  14.923
22968W        W86725  42.307  38.912  14.784
22969W        W86726  43.862  10.735  14.488
22970W        W86727  33.511  38.526  14.409
22971W        W86728   5.747  40.322   4.255
22972W        W86729   9.654   4.336   0.760
22973W        W86730   3.242   3.854  14.768
22974W        W86731   7.196  31.919   1.865
22975W        W86732  22.716  11.341  10.584
22976W        W86733  35.379  37.060   0.433
22977W        W86734   4.923   0.931  13.951
22978W        W86735  10.656  26.634  13.020
22979W        W86736  20.271  10.727  12.967
22980W        W86737  10.168  31.624   1.354
22981W        W86738  28.530   4.706   3.174
22982W        W86739  15.747   6.841   0.726
22983W        W86740   2.927   4.416   4.234
22984W        W86741  34.086  30.425   1.794
22985W        W86742  32.583  15.293   2.685
22986W        W86743   2.738  30.530  12.896
22987W        W86744  37.019  19.228   0.797
22988W        W86745  30.960  26.113   3.365
22989W        W86746  36.557   0.799   2.297
22990W        W86747  43.426   5.219   3.358
22991W        W86748  32.053  37.923   2.414
22992W        W86749  25.498  34.931   2.219
22993W        W86750  10.172  40.895  14.960
22994W        W86751  44.441   4.931   4.172
22995W        W86752   5.761  40.052  14.466
22996W        W86753  41.347  20.212  14.915
22997W        W86754  39.394   7.219  11.914
22998W        W86755  23.555   2.928  13.424
22999W        W86756  15.685  34.402  12.840
23000W        W86757  32.011  23.159   3.368
23001W        W86758  23.155  10.167   1.867
23002W        W86759   4.829  41.298  14.032
23003W        W86760  16.181  36.566   1.396
23004W        W86761  34.089   4.442  12.397
23005W        W86762  10.376   1.966  12.038
23006W        W86763   4.448  35.940  13.058
23007W        W86764  16.212  23.601  10.420
23008W        W86765  43.879  40.331   4.721
23009W        W86766  44.901  12.845   3.275
23010W        W86767   8.892   5.257  14.330
23011W        W86768  22.030  22.640   2.842
23012W        W86769  38.930  27.177   2.227
23013W        W86770  17.147   2.432   2.244
23014W        W86771  25.087   6.777   4.151
23015W        W86772  28.601  22.608  12.930
23016W        W86773  23.553  21.179  14.510
23017W        W86774  26.973  25.493  11.076
23018W        W86775   3.301  12.256  12.032
23019W        W86776  44.895  24.642  12.431
23020W        W86777  40.055   3.766  11.874
23021W        W86778  31.470   5.232  13.039
23022W        W86779  28.477  39.342  11.607
23023W        W86780   6.188   3.912   0.282
23024W        W86781   3.444  19.277   4.304
23025W        W86782  41.928  38.065  13.429
23026W        W86783  36.097  34.413  13.388
23027W        W86784  31.531  33.514  12.955
23028W        W86785  27.188  38.893   0.886
23029W        W86786  13.696  44.493   3.353
23030W        W86787  39.024   7.861   4.809
23031W        W86788   1.848  12.258  12.990
23032W        W86789  27.024  30.634   3.770
23033W        W86790  20.683  43.851   3.776
23034W        W86791  22.189  16.611  14.419
23035W        W86792  22.707  43.497  13.969
23036W        W86793  30.062   3.882  11.090
23037W        W86794  27.149   3.398  11.976
23038W        W86795  31.547  12.847  13.826
23039W        W86796   7.708  41.978  14.459
23040W        W86797   0.821  22.539  13.060
23041W        W86798  44.329   1.938   5.225
23042W        W86799  26.991  37.010  13.508
23043W        W86800   7.705  10.803  12.404
23044W        W86801  41.933   2.828   4.196
23045W        W86802  21.698  20.587   3.777
23046W        W86803  30.586  39.519  14.384
23047W        W86804  16.789   0.905  11.981
23048W        W86805   1.314  15.237  14.513
23049W        W86806  34.463  23.627  14.862
23050W        W86807  15.288   7.879  13.887
23051W        W86808  20.747  18.672   0.760
23052W        W86809  27.663   4.357  11.598
23053W        W86810   5.727  32.943  13.855
23054W        W86811  41.472  22.706   0.358
23055W        W86812  29.446  42.437  10.575
23056W        W86813  25.706  33.457   0.944
23057W        W86814  12.680  36.562   4.635
23058W        W86815  36.985  42.866  14.313
23059W        W86816  33.042  41.883  13.828
23060W        W86817  26.617  19.104   3.684
23061W        W86818  39.837   1.237   2.284
23062W        W86819   8.165  10.636   0.795
23063W        W86820  33.874  34.026  12.958
23064W        W86821  38.962   2.419   0.897
23065W        W86822  27.482  19.170  12.380
23066W        W86823  38.435  35.547   0.479
23067W        W86824  28.160  14.238  13.481
23068W        W86825  21.521  35.932  12.441
23069W        W86826  33.053   4.440  14.005
23070W        W86827  35.506   0.365  10.424
23071W        W86828   0.848  20.687   0.265
23072W        W86829  21.017  31.603  11.960
23073W        W86830  42.928  14.613   1.400
23074W        W86831  29.928  28.666  11.982
23075W        W86832  31.949  14.770   2.771
23076W        W86833  39.516   3.388   0.465
23077W        W86834  35.908  27.475  12.063
23078W        W86835  42.405   2.938  14.492
23079W        W86836   1.798   4.405  14.969
23080W        W86837  18.635  31.994   0.339
23081W        W86838   8.824  22.151  12.020
23082W        W86839  42.510  28.545  10.479
23083W        W86840  28.080  10.311  14.790
23084W        W86841   9.171  41.018   0.282
23085W        W86842  37.375   7.375   2.761
23086W        W86843  25.644  19.591   4.718
23087W        W86844  21.121   6.279   4.274
23088W        W86845   3.312  22.632   5.098
23089W        W86846   2.292   5.226  11.932
23090W        W86847  25.593  28.648  13.343
23091W        W86848   6.704  31.912   5.112
23092W        W86849  29.515  41.905  11.028
23093W        W86850  30.581  28.625   3.777
23094W        W86851  39.945  16.230   1.271
23095W        W86852  19.661  32.918  12.082
23096W        W86853  34.075  13.227  11.390
23097W        W86854  20.673  27.982   0.937
23098W        W86855  36.867  40.052  12.550
23099W        W86856  16.811  16.279   1.335
23100W        W86857   2.243   0.924   0.360
23101W        W86858  10.807  35.899  12.036
23102W        W86859   9.175  27.514  14.466
23103W        W86860  16.230   5.855   0.920
23104W        W86861  10.232  17.609   4.230
23105W        W86862  10.275  36.428  12.016
23106W        W86863   2.233   4.889  11.476
23107W        W86864  19.621   7.316  14.414
23108W        W86865  41.943  16.600   2.418
23109W        W86866  31.537  23.055   0.895
23110W        W86867  28.441  23.031   0.479
23111W        W86868  21.235  28.109  13.020
23112W        W86869  30.596  36.476  12.843
23113W        W86870   2.942   9.698   1.846
23114W        W86871  13.749  21.021   1.288
23115W        W86872  20.168  24.537   4.310
23116W        W86873   7.342  32.971   3.640
23117W        W86874   1.895  34.061  12.843
23118W        W86875  33.920  33.888   3.314
23119W        W86876   8.658  20.568  13.846
23120W        W86877  15.702   3.238  12.371
23121W        W86878  39.932  19.261   1.922
23122W        W86879  38.878  27.999  14.856
23123W        W86880  36.892  43.304   0.738
23124W        W86881   9.778  23.017  11.428
23125W        W86882  20.562   8.217   3.656
23126W        W86883   9.854   4.442  14.012
23127W        W86884  23.727  23.214  11.389
23128W        W86885   3.880  42.374   9.570
23129W        W86886   1.276   4.796   2.364
23130W        W86887  44.404  14.226  14.274
23131W        W86888  24.035  36.525  13.872
23132W        W86889   3.812  32.911  11.507
23133W        W86890  44.488  17.139  11.115
23134W        W86891  37.354   0.440   3.761
23135W        W86892  34.408   4.752   1.341
23136W        W86893  18.276  19.252  12.920
23137W        W86894  31.586  31.553   4.782
23138W        W86895  16.252  12.683   4.172
23139W        W86896  27.109  42.445   2.333
23140W        W86897   4.412   6.283   4.270
23141W        W86898  35.596  24.725  14.927
23142W        W86899  14.736   5.885  14.778
23143W        W86900   3.748  24.996   2.326
23144W        W86901  44.455  10.634   0.303
23145W        W86902  21.238  14.189  10.971
23146W        W86903  12.136  13.644   3.844
23147W        W86904  39.929  17.136  11.609
23148W        W86905  29.172  43.768   4.181
23149W        W86906  29.089  29.067   2.769
23150W        W86907  20.207  20.733   2.725
23151W        W86908   2.352  17.201  10.068
23152W        W86909  31.141   9.746  12.542
23153W        W86910  23.630  42.943   0.855
23154W        W86911   1.428   4.251  13.321
23155W        W86912   9.789  40.502   4.804
23156W        W86913  17.153  29.995  10.445
23157W        W86914  14.754  12.815  11.499
23158W        W86915  40.879  23.585  13.548
23159W        W86916  18.126  21.058  14.465
23160W        W86917   6.412  41.527  12.479
23161W        W86918  12.650  38.534  12.491
23162W        W86919   7.228  12.662  13.049
23163W        W86920  39.560  38.048   1.238
23164W        W86921   7.889  13.156  10.072
23165W        W86922  11.192   6.892   0.347
23166W        W86923  12.810  40.841  10.407
23167W        W86924  23.613   7.415  12.531
23168W        W86925  22.662  44.430  14.278
23169W        W86926  10.737  17.269  10.025
23170W        W86927  34.426   3.723   4.681
23171W        W86928  15.687  44.304   0.461
23172W        W86929  22.136  26.132   2.862
23173W        W86930  22.541  29.018   3.256
23174W        W86931  19.604  14.789  14.375
23175W        W86932  36.445  37.863  14.487
23176W        W86933   3.790  30.431  14.024
23177W        W86934  15.761  44.962  13.409
23178W        W86935  28.134   0.937  12.919
23179W        W86936  15.299   5.402   2.221
23180W        W86937  27.966  30.011   0.795
23181W        W86938  38.448  18.618  13.964
23182W        W86939  23.601  26.491  13.805
23183W        W86940  37.436   6.402  12.992
23184W        W86941   2.443   0.287   1.923
23185W        W86942  19.591  18.759  11.957
23186W        W86943  16.155  27.179   4.297
23187W        W86944  19.550  17.295   0.325
23188W        W86945   9.865  34.109   0.374
23189W        W86946  10.333  24.074   2.305
23190W        W86947  38.403  14.766   1.831
23191W        W86948   8.383   0.308  11.372
23192W        W86949  36.386  44.897  14.838
23193W        W86950  16.576  29.155  13.856
23194W        W86951  40.522  12.192   0.247
23195W        W86952  21.113   0.253   1.244
23196W        W86953  12.281  36.408  11.396
23197W        W86954  30.920  13.271  11.051
23198W        W86955  26.513  13.803   4.124
23199W        W86956  12.639  38.571  13.452
23200W        W86957  27.123  10.802   2.371
23201W        W86958  31.405  38.433  13.881
23202W        W86959  42.857   2.388  11.860
23203W        W86960  44.292  39.879  14.983
23204W        W86961  11.306  10.660   0.328
23205W        W86962  25.205  44.943   0.345
23206W        W86963  30.038  31.426  12.929
23207W        W86964  23.030   7.820  10.500
23208W        W86965  38.465  29.053   1.410
23209W        W86966   5.918  38.480  10.450
23210W        W86967  29.134  28.164  10.548
23211W        W86968  39.967  14.115   1.776
23212W        W86969  32.444   9.310  11.514
23213W        W86970  13.341  13.719   4.645
23214W        W86971   0.837  34.518  13.998
23215W        W86972  20.557  35.870  12.521
23216W        W86973   8.260  16.663  13.905
23217W        W86974  25.070  40.919  13.963
23218W        W86975  29.054  39.923   1.227
23219W        W86976  12.243  28.534   3.291
23220W        W86977  31.942  38.875  11.881
23221W        W86978  31.926  31.104  13.538
23222W        W86979  26.145  33.380  11.071
23223W        W86980  16.295  40.513  14.800
23224W        W86981  34.912  25.000  14.980
23225W        W86982  42.492  32.396   1.826
23226W        W86983  38.500  33.568  13.392
23227W        W86984  22.560  11.856  11.064
23228W        W86985  15.606   1.868   0.913
23229W        W86986  41.336  21.061  12.465
23230W        W86987  25.149  23.667  14.919
23231W        W86988  44.503  40.036  12.071
23232W        W86989  32.396  40.352   2.192
23233W        W86990  39.466  15.183   1.304
23234W        W86991  27.637   3.764  11.608
23235W        W86992  30.163  11.205   3.350
23236W        W86993  16.797  44.415   1.414
23237W        W86994  35.543  13.624   0.431
23238W        W86995  30.593  22.512  14.936
23239W        W86996  39.432  44.409  14.852
23240W        W86997  23.595   5.741  12.515
23241W        W86998   3.299   8.808   1.350
23242W        W86999  31.997  24.111   4.161
23243W        W87000  39.821  34.601  13.062
23244W        W87001  15.147  14.603   0.833
23245W        W87002   5.864  21.586  13.321
23246W        W87003  27.159  44.850  11.544
23247W        W87004  24.187  14.209  12.466
23248W        W87005  39.999  31.445   2.846
23249W        W87006  25.486  26.650  11.927
23250W        W87007   7.407  10.269   2.398
23251W        W87008  41.014  39.983   3.272
23252W        W87009   8.264  38.826   2.193
23253W        W87010  20.722  41.295  14.422
23254W        W87011   5.294  23.556   3.767
23255W        W87012  39.812  41.918   0.903
23256W        W87013  18.248  41.351   0.414
23257W        W87014  24.584  29.152  14.494
23258W        W87015  37.450  25.029  14.356
23259W        W87016  10.172  13.624   4.276
23260W        W87017  35.549  25.572  12.432
23261W        W87018  43.901  18.632   3.690
23262W        W87019  13.180  42.364  13.868
23263W        W87020  44.455  21.747   3.214
23264W        W87021   6.365  25.146   1.771
23265W        W87022  15.320  26.575   2.257
23266W        W87023  33.518  14.690  12.419
23267W        W87024   6.810  29.562   3.644
23268W        W87025  13.711   3.324   3.247
23269W        W87026  44.838  22.742  11.012
23270W        W87027   5.898  21.211  14.350
23271W        W87028   4.927  37.384   3.746
23272W        W87029   7.731  41.332  10.893
23273W        W87030  43.934  11.737  14.496
23274W        W87031  22.196  13.219  11.410
23275W        W87032  23.680  27.196  12.855
23276W        W87033  32.553  25.979   3.239
23277W        W87034  36.430  33.459   4.793
23278W        W87035   9.738   8.717  10.945
23279W        W87036   7.888  19.553  12.086
23280W        W87037  43.461  32.046  14.779
23281W        W87038  28.949  14.193  13.986
23282W        W87039   3.385  38.992   3.206
23283W        W87040  31.977  11.756   3.712
23284W        W87041  42.358   5.721   0.830
23285W        W87042  30.097  10.180  13.978
23286W        W87043  10.258  27.105  13.387
23287W        W87044  40.538  15.760   3.259
23288W        W87045  13.659  32.932   3.319
23289W        W87046  44.854  26.474   0.440
23290W        W87047   7.673   8.745   0.341
23291W        W87048   3.896  39.017  14.305
23292W        W87049  14.746  17.277  13.048
23293W        W87050   2.771  29.535   1.908
23294W        W87051  38.075  20.736  14.021
23295W        W87052  22.012  17.739  13.008
23296W        W87053  11.138   5.879   2.774
23297W        W87054  20.531  41.501  10.538
23298W        W87055  18.768  15.796   3.345
23299W        W87056  26.666  30.984  10.411
23300W        W87057   0.840  26.539   1.869
23301W        W87058   4.927  31.070   1.417
23302W        W87059  20.724  34.516  12.971
23303W        W87060  34.599  26.004  12.965
23304W        W87061   6.240  18.591   1.828
23305W        W87062  15.181  19.768   4.259
23306W        W87063  12.843  26.593   4.679
23307W        W87064   6.905   6.228  12.529
23308W        W87065  21.725   9.268  10.565
23309W        W87066  38.522   9.677   4.219
23310W        W87067  43.432   9.277  12.462
23311W        W87068  23.058  16.223  10.420
23312W        W87069  25.078  42.860   3.353
23313W        W87070   1.954  37.874   2.764
23314W        W87071  15.185  34.076   3.863
23315W        W87072   3.852  42.525   0.890
23316W        W87073  29.970  21.030  12.900
23317W        W87074  38.835   0.404   5.198
23318W        W87075  28.447  36.871   2.880
23319W        W87076  13.349  40.492  14.472
23320W        W87077   4.294   0.488   2.870
23321W        W87078  11.366  38.029  13.817
23322W        W87079  38.983  30.607   2.192
23323W        W87080   7.821  14.293  14.459
23324W        W87081   8.385   7.361  11.473
23325W        W87082  42.287  25.984  14.024
23326W        W87083  40.320  17.580  12.506
23327W        W87084  34.394   6.920  12.866
23328W        W87085  31.425  22.665  13.326
23329W        W87086  11.225  39.329   4.777
23330W        W87087  29.515  44.966   1.769
23331W        W87088  41.829  14.649   0.444
23332W        W87089  33.053  43.495  13.424
23333W        W87090  21.249  19.254  13.876
23334W        W87091  15.615  21.550   2.242
23335W        W87092  32.407  26.500  12.457
23336W        W87093  41.520  11.820   0.337
23337W        W87094   9.226  37.839   0.361
23338W        W87095  29.446   2.927   3.804
23339W        W87096  26.121  13.108   0.279
23340W        W87097  39.847   4.300   2.899
23341W        W87098  17.253  16.083   0.265
23342W        W87099  11.355  42.851   0.780
23343W        W87100  19.158  17.711   1.369
23344W        W87101  30.140  37.863   3.372
23345W        W87102  20.192  13.769   4.650
23346W        W87103   7.395  27.656   0.393
23347W        W87104  38.524  16.165   2.866
23348W        W87105   5.218  24.510   3.796
23349W        W87106  14.729  17.139   3.343
23350W        W87107  39.932   6.323  13.830
23351W        W87108  44.758  26.464   0.955
23352W        W87109  20.662  19.197   3.709
23353W        W87110  23.547  22.019   0.437
23354W        W87111   5.375  17.097  10.995
23355W        W87112  40.306  39.849  12.093
23356W        W87113  15.118  29.930  14.404
23357W        W87114  41.314   0.917   2.305
23358W        W87115   3.419  22.998   3.377
23359W        W87116  40.317   7.320   2.779
23360W        W87117  33.529   1.951  13.497
23361W        W87118  19.187  30.587  10.542
23362W        W87119  19.065  26.100   3.655
23363W        W87120  26.476   5.331   2.790
23364W        W87121   3.811  31.013  13.391
23365W        W87122  30.120   1.920   0.924
23366W        W87123  44.952  41.895   2.764
23367W        W87124  15.247  43.794   3.239
23368W        W87125  31.991   8.322   4.801
23369W        W87126  25.121  27.551  10.606
23370W        W87127  18.610  25.503  13.883
23371W        W87128  37.577  31.058  11.995
23372W        W87129  12.137  27.069   4.130
23373W        W87130   1.794  17.712   3.809
23374W        W87131  38.541  16.812   4.665
23375W        W87132  37.553  18.280   3.764
23376W        W87133  34.012  30.476  13.058
23377W        W87134   2.354  23.174   2.208
23378W        W87135  26.606  20.230  13.350
23379W        W87136  44.426  18.229   3.656
23380W        W87137   2.232  10.162  14.391
23381W        W87138  25.623  39.887   0.735
23382W        W87139  42.870  18.567  10.568
23383W        W87140   5.854  36.350   2.189
23384W        W87141  41.447  10.803  12.535
23385W        W87142  10.860   8.787   2.304
23386W        W87143   0.260  16.630  10.610
23387W        W87144   7.768  25.523   2.870
23388W        W87145  16.604  35.065   0.939
23389W        W87146  18.119  29.649  11.908
23390W        W87147  12.660   9.387   3.663
23391W        W87148  35.373  33.550   1.220
23392W        W87149  24.657  16.679  13.934
23393W        W87150   9.686  40.016  11.885
23394W        W87151  44.264  17.244   5.256
23395W        W87152  10.869  16.205   2.238
23396W        W87153  42.432   8.846  10.478
23397W        W87154  36.983   6.351   2.748
23398W        W87155  34.028  33.523   0.912
23399W        W87156  37.992  27.128  14.360
23400W        W87157  32.896  35.902   1.914
23401W        W87158  18.286  10.695  14.905
23402W        W87159  20.171  17.796   0.472
23403W        W87160  18.224  27.059   3.355
23404W        W87161  35.960   2.803   4.655
23405W        W87162  42.430  31.918   0.364
23406W        W87163  43.298   8.723  11.994
23407W        W87164  18.597  43.304  14.857
23408W        W87165  20.598   1.330   4.656
23409W        W87166  43.356   2.385   0.357
23410W        W87167  40.330  25.220  13.377
23411W        W87168  38.554  14.168  13.889
23412W        W87169  28.017  11.369  11.986
23413W        W87170  27.558  13.262  13.827
23414W        W87171  40.473  13.632   4.128
23415W        W87172   4.380  16.247  14.346
23416W        W87173  10.837  40.002  10.612
23417W        W87174  41.963  30.037   1.895
23418W        W87175  44.313  43.389   2.724
23419W        W87176  40.995   9.764   4.229
23420W        W87177  13.680  35.504   0.837
23421W        W87178  28.593  34.384  14.821
23422W        W87179   0.250  16.267   2.361
23423W        W87180  38.447   7.806  13.885
23424W        W87181  11.269   2.846  14.396
23425W        W87182   0.929  27.635  12.855
23426W        W87183  25.587  43.009  13.827
23427W        W87184  40.928   0.890  14.777
23428W        W87185  37.998  41.984   2.848
23429W        W87186  12.750  10.726  12.371
23430W        W87187  13.268   7.354   3.798
23431W        W87188  25.160  40.870  10.599
23432W        W87189  41.330  27.617   2.408
23433W        W87190  19.066  15.181  11.426
23434W        W87191  32.438   0.306   3.194
23435W        W87192  23.175  25.574  13.898
23436W        W87193  42.943  37.454  10.046
23437W        W87194  42.008  17.266  10.619
23438W        W87195  27.188  10.655   0.948
23439W        W87196  27.519   1.356   0.966
23440W        W87197  36.966  27.658   3.303
23441W        W87198  37.076   7.249   3.240
23442W        W87199  35.387  18.232  11.372
23443W        W87200  34.088   4.329  13.881
23444W        W87201   7.306  27.985   4.114
23445W        W87202  30.163  37.544  10.453
23446W        W87203  15.581  25.581  14.417
23447W        W87204  15.092   9.372   3.255
23448W        W87205  15.105  10.736  11.382
23449W        W87206   0.835   4.906   0.246
23450W        W87207  43.772  39.556   4.258
23451W        W87208   3.940  35.486  12.450
23452W        W87209  21.513  40.852  14.896
23453W        W87210  13.125  15.169  13.912
23454W        W87211   2.815  12.174   3.208
23455W        W87212  14.808   8.329  10.616
23456W        W87213  26.127  28.180   4.197
23457W        W87214  25.220  28.585  13.412
23458W        W87215  11.293  19.770   2.408
23459W        W87216  13.781  21.063   0.822
23460W        W87217  10.257  19.278  12.068
23461W        W87218   7.695   6.825   1.303
23462W        W87219   6.777  12.788   0.257
23463W        W87220  18.251  12.707   2.239
23464W        W87221  20.033  17.590   1.739
23465W        W87222  14.816  40.917  14.871
23466W        W87223   5.880  33.930   4.757
23467W        W87224  37.531  32.612  12.037
23468W        W87225  23.061   6.697  13.448
23469W        W87226  43.870  39.823   2.271
23470W        W87227  37.995  23.708  14.497
23471W        W87228  44.975  22.594   9.940
23472W        W87229   4.769  18.258   0.852
23473W        W87230  26.955  11.349   2.302
23474W        W87231  19.626  29.633  12.388
23475W        W87232  22.530  17.256  12.467
23476W        W87233  18.715  22.564  11.916
23477W        W87234  36.392  40.509   1.812
23478W        W87235   9.667   6.255  11.430
23479W        W87236  44.921  43.859  11.483
23480W        W87237  41.937   9.648  14.487
23481W        W87238  32.611  23.035   0.904
23482W        W87239  35.425  29.491   9.973
23483W        W87240  37.895  24.713  14.030
23484W        W87241  39.503  19.646  13.467
23485W        W87242  14.802  41.360  10.911
23486W        W87243  42.917  18.642  14.428
23487W        W87244  28.150  25.015  13.835
23488W        W87245  13.122  44.948  13.805
23489W        W87246  41.340  21.172   3.274
23490W        W87247  31.907  12.172  12.931
23491W        W87248  30.065  40.805   3.718
23492W        W87249  20.224  12.237   1.436
23493W        W87250  27.162  16.659   0.426
23494W        W87251  19.608  41.311  14.842
23495W        W87252  24.160  34.475   3.349
23496W        W87253  29.446  38.041  14.367
23497W        W87254  21.172  27.667   1.836
23498W        W87255  44.912  23.991  13.356
23499W        W87256   7.223  38.067   0.803
23500W        W87257  23.203  14.205  10.465
23501W        W87258   7.224  32.397   4.157
23502W        W87259  13.622  32.580  12.910
23503W        W87260   6.749   2.742   2.349
23504W        W87261  12.645  37.390   5.111
23505W        W87262  30.971   6.182   4.710
23506W        W87263  36.555  38.338  11.910
23507W        W87264  22.079  44.001   2.314
23508W        W87265  32.988   6.907   1.371
23509W        W87266  35.575  22.206   1.266
23510W        W87267  17.747  11.797   2.330
23511W        W87268  26.575  20.632   2.367
23512W        W87269  23.171  15.289   3.191
23513W        W87270  30.464  33.601  12.439
23514W        W87271  22.600  12.723  11.464
23515W        W87272  42.318  32.478   4.282
23516W        W87273   8.182  42.360  13.943
23517W        W87274  24.174   5.826   4.142
23518W        W87275  35.091  11.265   1.934
23519W        W87276  33.059  35.553  12.070
23520W        W87277   5.727  16.804  10.609
23521W        W87278  16.107  37.039  10.515
23522W        W87279   7.380  22.606  14.774
23523W        W87280  10.325  29.446   1.878
23524W        W87281  33.992  22.051  11.928
23525W        W87282  34.468  16.091   2.289
23526W        W87283  18.089  18.092   3.817
23527W        W87284  25.195   6.241  11.610
23528W        W87285   0.458  33.943   1.744
23529W        W87286  13.153  21.631  11.462
23530W        W87287   5.289  32.497  14.323
23531W        W87288  33.012  37.028   1.329
23532W        W87289  10.830  13.148  11.063
23533W        W87290   8.816   3.219   3.313
23534W        W87291   5.274  12.119   0.789
23535W        W87292   9.271  13.732   2.735
23536W        W87293  11.344  22.686  13.937
23537W        W87294  30.102  11.277  11.933
23538W        W87295  11.714  27.511  13.020
23539W        W87296  11.243  17.603   5.599
23540W        W87297  29.660  13.630   1.297
23541W        W87298  22.022  10.673   2.213
23542W        W87299  36.856  22.103  10.638
23543W        W87300  32.457   8.830   4.735
23544W        W87301   9.879  29.499  14.010
23545W        W87302  37.524  35.439  11.076
23546W        W87303  32.969   9.766   0.735
23547W        W87304  31.476  27.527   3.822
23548W        W87305  15.640  27.494   4.746
23549W        W87306   4.212  43.971  13.862
23550W        W87307  22.737  18.725  10.924
23551W        W87308  33.115   9.791   2.352
23552W        W87309  18.223  23.021  10.933
23553W        W87310  23.113  27.960   1.810
23554W        W87311  19.109   5.321   4.120
23555W        W87312   7.273  14.658  12.575
23556W        W87313   8.369  29.541   1.841
23557W        W87314  29.985  39.859   4.295
23558W        W87315   5.288  18.721   4.224
23559W        W87316  29.483  14.684  14.914
23560W        W87317  41.439  20.731  11.380
23561W        W87318  33.005  32.926  11.499
23562W        W87319  44.844  11.266   1.309
23563W        W87320  36.971  37.007   4.276
23564W        W87321  12.753  41.351   0.442
23565W        W87322  43.863  43.009   4.751
23566W        W87323  25.006  22.717   9.595
23567W        W87324  18.162  20.694   1.254
23568W        W87325  35.405  17.584   2.250
23569W        W87326  44.848  21.534  13.010
23570W        W87327  14.681  30.920   1.422
23571W        W87328  38.554  22.631  12.978
23572W        W87329  11.346  11.200  11.112
23573W        W87330  11.698   0.981  11.407
23574W        W87331  33.012  24.211   4.262
23575W        W87332  43.856  19.533   0.765
23576W        W87333  32.888   8.697   4.243
23577W        W87334  30.946  31.948   0.448
23578W        W87335  16.255  18.601   0.745
23579W        W87336  14.211  35.947   0.895
23580W        W87337  43.956  15.702   4.739
23581W        W87338  14.710   7.806   3.651
23582W        W87339   0.855  36.591   2.298
23583W        W87340   4.749  33.574  13.406
23584W        W87341  25.095  34.990  11.409
23585W        W87342  27.024  36.895  14.003
23586W        W87343   7.810  15.329  14.280
23587W        W87344  30.989  42.328  11.613
23588W        W87345  27.067   6.406   4.648
23589W        W87346  15.136  27.502   3.720
23590W        W87347  29.123   3.949  11.381
23591W        W87348  23.718   3.923  12.836
23592W        W87349   2.460  19.654  11.412
23593W        W87350  36.090  39.458   4.817
23594W        W87351   2.959  15.785   0.282
23595W        W87352  42.959  14.296   2.819
23596W        W87353  10.696  18.638  13.821
23597W        W87354  16.671  12.682   1.383
23598W        W87355   6.818  41.837   0.427
23599W        W87356  30.616  30.971   3.319
23600W        W87357  13.322  11.131  12.962
23601W        W87358  15.752  33.976   3.149
23602W        W87359  19.701  28.585  13.428
23603W        W87360  22.236  15.185  13.511
23604W        W87361  31.542  23.550   4.737
23605W        W87362  32.067   2.830  10.928
23606W        W87363   1.753   8.787   4.247
23607W        W87364  16.610  21.127  13.381
23608W        W87365  41.320  29.639  14.297
23609W        W87366  29.596  37.862  12.850
23610W        W87367  32.607  24.099  10.083
23611W        W87368  17.159   6.818   4.252
23612W        W87369  40.032  32.907  10.444
23613W        W87370   9.786  32.508   2.895
23614W        W87371  27.965  29.570  11.022
23615W        W87372  26.114  31.495   3.353
23616W        W87373  12.701  15.755   1.874
23617W        W87374  10.757  34.387  13.019
23618W        W87375  27.457   8.291   0.860
23619W        W87376  43.982  25.050  10.630
23620W        W87377  29.582   3.221  13.330
23621W        W87378  17.178  21.105  12.063
23622W        W87379  26.485  25.132   5.208
23623W        W87380  23.077  34.899  14.502
23624W        W87381  25.615  13.246   3.797
23625W        W87382  27.975  31.995   2.682
23626W        W87383  14.322  24.582  13.403
23627W        W87384  21.099  12.842   3.714
23628W        W87385  28.130  34.607   3.383
23629W        W87386  19.552  14.122   1.298
23630W        W87387   0.474  24.214   3.380
23631W        W87388   7.237   6.218  11.875
23632W        W87389   8.354  25.187  11.377
23633W        W87390  44.777  15.139   3.648
23634W        W87391  38.052  40.506   1.378
23635W        W87392   6.804   8.284  10.474
23636W        W87393  27.166   9.668   4.307
23637W        W87394  21.073  28.067  14.354
23638W        W87395  36.913  19.747  11.373
23639W        W87396  14.163  26.703   1.288
23640W        W87397  33.616  22.098  12.852
23641W        W87398  16.223  44.423  12.091
23642W        W87399  12.750  26.106   3.813
23643W        W87400  44.923  12.739  12.470
23644W        W87401  34.615  31.990   2.394
23645W        W87402  34.456  39.003  14.352
23646W        W87403   0.490   1.786   1.437
23647W        W87404   1.481  32.404   2.748
23648W        W87405   6.728  11.804  12.545
23649W        W87406  18.592  38.554   1.215
23650W        W87407  31.610   2.765   4.706
23651W        W87408   2.913  22.663   4.764
23652W        W87409  12.284  21.063  12.435
23653W        W87410  20.598  38.853  13.987
23654W        W87411  12.623  19.644  13.886
23655W        W87412  12.753  33.956   2.733
23656W        W87413   6.364  21.135  10.608
23657W        W87414  44.363  21.075   0.392
23658W        W87415  13.302  40.534   0.431
23659W        W87416  28.053  18.760  10.565
23660W        W87417   9.688   0.789   3.332
23661W        W87418  11.169  24.575  12.409
23662W        W87419  22.643  16.670  11.375
23663W        W87420  23.681   0.867   2.671
23664W        W87421  12.292   6.691  11.975
23665W        W87422   2.350   7.688   1.826
23666W        W87423   1.468  24.229  13.981
23667W        W87424  34.558  36.938   4.216
23668W        W87425  27.506  27.079   0.899
23669W        W87426  14.217  28.595   1.759
23670W        W87427  26.011   8.208   1.904
23671W        W87428  20.132  37.374  11.053
23672W        W87429  23.630  42.822  14.392
23673W        W87430  32.415  24.721   1.846
23674W        W87431  36.026  27.024   0.843
23675W        W87432  33.536  38.545  11.371
23676W        W87433  24.074  10.152  13.501
23677W        W87434  19.569  21.159  14.905
23678W        W87435  21.121  34.067   2.822
23679W        W87436  36.865  20.728   3.803
23680W        W87437  18.595  39.537   3.224
23681W        W87438  15.798  28.673  14.834
23682W        W87439  33.023  24.036   2.276
23683W        W87440  11.352  10.745  11.426
23684W        W87441  23.183  11.698  13.450
23685W        W87442  31.002  26.604  11.021
23686W        W87443  10.228  14.234   1.214
23687W        W87444  41.359   1.970  11.505
23688W        W87445  40.994  34.605  14.338
23689W        W87446  18.291  13.291   4.658
23690W        W87447  44.316  14.224   3.217
23691W        W87448  13.159  18.735   4.196
23692W        W87449  30.077  23.698   4.676
23693W        W87450  23.533  22.086  13.844
23694W        W87451  38.077  32.459   0.793
23695W        W87452  35.061  43.332  13.024
23696W        W87453  26.465  22.591  10.910
23697W        W87454  44.292  25.578  11.960
23698W        W87455  43.317   5.916  10.513
23699W        W87456  34.072  15.808   3.778
23700W        W87457  19.172  27.186  12.544
23701W        W87458  23.222  17.227   2.198
23702W        W87459  44.264  15.186  12.560
23703W        W87460  18.687  14.204   2.300
23704W        W87461  42.015  37.491   0.793
23705W        W87462  27.157  41.453  11.095
23706W        W87463  35.904  39.474  12.842
23707W        W87464  21.647  42.836   3.237
23708W        W87465  32.620  10.792  11.449
23709W        W87466   4.374  31.468  11.966
23710W        W87467  27.124  38.858   9.985
23711W        W87468  29.498  14.294  14.830
23712W        W87469  11.184   6.399   3.829
23713W        W87470   3.848   1.867  11.400
23714W        W87471  31.098   1.930   0.445
23715W        W87472  17.632   8.166   2.243
23716W        W87473  32.413  35.586  11.967
23717W        W87474  15.206  24.212   1.435
23718W        W87475  33.074  31.517   1.798
23719W        W87476  27.124  35.371   3.306
23720W        W87477  43.491  41.385   0.419
23721W        W87478  37.566  25.123   1.798
23722W        W87479  32.441   5.703  12.949
23723W        W87480  33.576   0.853   1.238
23724W        W87481  43.416   9.280  12.075
23725W        W87482  18.728  13.721   2.669
23726W        W87483  29.155  29.450  13.874
23727W        W87484  23.004   2.730   2.702
23728W        W87485  28.990  38.491  14.920
23729W        W87486  40.037   7.285  11.492
23730W        W87487   3.275   9.789   2.398
23731W        W87488  10.796  17.148   4.183
23732W        W87489   6.409  38.047  12.001
23733W        W87490  11.677  41.428   2.694
23734W        W87491  38.853  30.623   4.245
23735W        W87492  16.797  36.574  12.485
23736W        W87493   0.846  39.978  12.859
23737W        W87494  12.232  25.136  14.304
23738W        W87495  40.971  23.101  14.285
23739W        W87496  20.173  42.986  10.112
23740W        W87497  29.128  23.120   3.820
23741W        W87498  21.242  35.020   2.789
23742W        W87499  23.674   1.247   0.807
23743W        W87500  20.567   6.208   4.757
23744W        W87501  12.209  14.758  13.547
23745W        W87502  33.600  42.828   0.747
23746W        W87503   9.179  10.793   4.352
23747W        W87504   1.833  32.402   4.730
23748W        W87505  25.025  14.709  10.950
23749W        W87506  34.554  16.750   1.749
23750W        W87507  12.765  35.585  14.342
23751W        W87508  39.318  17.207   0.930
23752W        W87509  33.066  30.020  13.391
23753W        W87510  21.556  14.312   1.435
23754W        W87511  14.202  25.553  13.441
23755W        W87512  14.667  15.146   3.270
23756W        W87513  21.678  35.077  13.845
23757W        W87514  18.209  28.128  14.503
23758W        W87515  11.696   6.232   2.751
23759W        W87516   2.300  32.436  11.013
23760W        W87517  39.841  13.630   2.186
23761W        W87518  35.867  43.894   3.349
23762W        W87519  27.518  28.445   0.886
23763W        W87520  41.834  41.888   0.828
23764W        W87521  44.941  41.904   1.429
23765W        W87522  19.617  15.115  11.007
23766W        W87523  32.508  35.853   4.822
23767W        W87524  12.616  25.513  10.623
23768W        W87525   8.729   7.694  10.451
23769W        W87526  30.007   1.406   0.338
23770W        W87527   1.370  31.923  11.076
23771W        W87528  42.501  28.051  14.992
23772W        W87529  32.396  37.508  11.917
23773W        W87530   5.374  17.642   1.382
23774W        W87531   0.886  30.159  12.465
23775W        W87532   6.696  39.372   1.738
23776W        W87533  10.740  25.680  14.326
23777W        W87534  21.237  26.052   0.326
23778W        W87535  10.293  19.090   3.338
23779W        W87536  24.093  12.270  12.008
23780W        W87537  11.323  20.191   2.266
23781W        W87538  22.178  13.683  10.547
23782W        W87539  16.730  22.014   4.816
23783W        W87540   2.353  35.574   0.751
23784W        W87541  12.253  38.830  14.376
23785W        W87542  18.192  13.640   2.722
23786W        W87543  16.187  29.585  13.005
23787W        W87544  31.134  43.447   0.302
23788W        W87545  33.894   2.335   3.745
23789W        W87546  28.469   9.284   3.822
23790W        W87547  39.009  25.095   4.316
23791W        W87548  24.190  32.449   3.219
23792W        W87549  34.578  13.647   0.407
23793W        W87550  28.533  34.416  12.854
23794W        W87551   6.703  25.094   1.783
23795W        W87552  22.205  31.639   4.663
23796W        W87553   1.270  28.929  12.026
23797W        W87554  35.480  41.424  14.364
23798W        W87555  37.942  19.283  14.786
23799W        W87556   2.770  40.410   4.338
23800W        W87557  34.872  40.050  10.060
23801W        W87558  34.595   6.230  13.050
23802W        W87559  29.988  14.204   0.785
23803W        W87560  44.980  18.109   3.826
23804W        W87561  26.185  12.170   4.779
23805W        W87562   9.765   3.714   4.792
23806W        W87563  16.784   1.391   2.223
23807W        W87564   4.385   4.700  13.928
23808W        W87565  31.933  37.497   1.790
23809W        W87566  16.298  39.841   0.753
23810W        W87567  28.966  12.249  10.584
23811W        W87568  16.191  33.524   1.748
23812W        W87569  14.629  40.939   4.632
23813W        W87570  38.008  44.300  13.383
23814W        W87571  14.673   5.220   3.659
23815W        W87572   0.381  14.265  10.950
23816W        W87573   5.907   2.305  14.805
23817W        W87574  34.916  12.289   1.710
23818W        W87575   9.752  28.078   1.248
23819W        W87576  25.021  12.201   4.776
23820W        W87577  20.051  23.132  12.997
23821W        W87578  27.976  17.265   1.721
23822W        W87579   1.470  27.166  10.510
23823W        W87580  38.999  29.498   3.347
23824W        W87581  15.207  29.589   2.244
23825W        W87582  18.677  21.199  14.452
23826W        W87583  12.737  20.176  14.433
23827W        W87584  43.930  34.029  12.340
23828W        W87585   9.673  35.982  12.532
23829W        W87586  36.089   0.486  13.014
23830W        W87587  43.506  39.491   1.380
23831W        W87588  37.844  10.808   4.180
23832W        W87589  40.391  18.141   3.718
23833W        W87590  41.469   8.208  11.397
23834W        W87591  33.901  27.611  13.492
23835W        W87592  23.113  39.954  11.423
23836W        W87593  43.937  24.566  14.393
23837W        W87594  31.069   2.441   4.193
23838W        W87595  28.100  19.237   2.320
23839W        W87596  34.893  17.098   3.362
23840W        W87597  32.935   4.284   2.782
23841W        W87598  34.985  25.201   2.253
23842W        W87599  31.470  42.887   3.705
23843W        W87600  32.484  24.024  14.916
23844W        W87601  38.537  17.680  12.419
23845W        W87602  30.492  43.343  12.452
23846W        W87603  18.180   1.248  14.335
23847W        W87604   9.349   4.802   3.650
23848W        W87605   5.208  31.940  11.934
23849W        W87606  23.157  28.502   0.466
23850W        W87607  22.622  28.033   0.338
23851W        W87608   1.330  24.665  13.461
23852W        W87609   8.213  37.486  13.329
23853W        W87610  16.205  28.960  12.420
23854W        W87611   9.823   9.222   1.899
23855W        W87612  25.043  17.152  10.584
23856W        W87613  10.690   0.354  13.472
23857W        W87614  14.606  17.747  13.417
23858W        W87615  44.393  43.318  11.451
23859W        W87616  39.509  25.981   3.781
23860W        W87617   4.336  15.768   0.942
23861W        W87618  28.513   5.740   4.819
23862W        W87619  26.690   6.813  11.090
23863W        W87620  21.682   3.739  13.490
23864W        W87621  30.098  32.993  13.793
23865W        W87622  18.619  15.599   9.957
23866W        W87623  20.536  44.313  14.366
23867W        W87624  29.150  13.266  11.441
23868W        W87625   4.375  21.159  11.042
23869W        W87626   5.778  31.525   0.311
23870W        W87627  43.824  22.140   3.655
23871W        W87628   2.385  41.998  13.901
23872W        W87629  36.581  16.136  11.861
23873W        W87630  30.492   3.334  11.508
23874W        W87631   0.463  37.407   1.265
23875W        W87632  29.122  21.693  13.503
23876W        W87633   4.406  12.218   4.141
23877W        W87634  40.019  38.984   0.872
23878W        W87635  24.502   1.943  12.009
23879W        W87636  31.412  25.617   1.757
23880W        W87637   3.340   0.269   3.753
23881W        W87638  30.423  28.535  12.557
23882W        W87639  41.426  22.563  14.912
23883W        W87640  40.332   2.444   9.511
23884W        W87641  39.837  42.320  13.946
23885W        W87642  10.293   5.292  12.441
23886W        W87643  11.317  36.378  10.576
23887W        W87644  17.145   7.853   4.121
23888W        W87645   7.806   0.408   3.228
23889W        W87646  36.943   6.398  10.481
23890W        W87647  34.012  24.634  10.929
23891W        W87648   4.883  24.709   0.243
23892W        W87649   9.169  30.417  10.498
23893W        W87650  40.492   0.289   2.746
23894W        W87651  38.534  33.545  10.896
23895W        W87652  36.567  12.244  12.525
23896W        W87653  11.642  23.230  13.881
23897W        W87654  10.648  28.460   3.763
23898W        W87655  27.165  41.801  11.519
23899W        W87656  36.582   1.383  12.081
23900W        W87657  39.912   7.251  11.962
23901W        W87658  34.601   3.365   1.934
23902W        W87659  12.341  30.529  12.036
23903W        W87660  33.530   8.666   5.247
23904W        W87661  39.988  28.159   3.841
23905W        W87662  41.359   5.850   0.246
23906W        W87663   3.877  21.150  10.586
23907W        W87664  28.650  32.903  13.497
23908W        W87665  10.808  28.950  13.420
23909W        W87666  24.215   6.688   1.842
23910W        W87667   1.776  20.554   1.866
23911W        W87668  33.097  25.651  13.361
23912W        W87669   5.384   9.644   1.335
23913W        W87670  41.492  30.530  14.012
23914W        W87671  15.674  42.963   1.425
23915W        W87672  26.456  28.000   2.291
23916W        W87673  35.086  34.910  14.811
23917W        W87674  17.720  40.349   4.288
23918W        W87675   9.268  16.651  14.967
23919W        W87676  25.572  44.907  13.045
23920W        W87677  13.655  17.245   0.884
23921W        W87678  40.443  20.755   0.388
23922W        W87679  36.500  10.338  14.428
23923W        W87680  27.008  15.620   2.828
23924W        W87681  25.039  44.938  10.493
23925W        W87682  39.846  22.662  11.869
23926W        W87683  30.082  31.084   0.420
23927W        W87684  31.060  35.370   0.420
23928W        W87685  38.951   4.328   3.296
23929W        W87686  18.226  28.601  11.515
23930W        W87687  29.597  40.320   1.885
23931W        W87688  41.527  19.048   1.390
23932W        W87689   2.885   4.831  13.903
23933W        W87690  26.021  31.601   4.167
23934W        W87691   4.793  34.902  14.813
23935W        W87692   3.734  40.428   0.411
23936W        W87693  32.028  19.193   3.688
23937W        W87694  33.558   7.186  12.095
23938W        W87695   1.852   1.732   3.281
23939W        W87696  22.552   2.258  11.966
23940W        W87697  36.520  25.010  14.830
23941W        W87698  19.247  17.586   1.838
23942W        W87699   9.329  24.484   0.311
23943W        W87700  13.664  23.077  14.865
23944W        W87701  29.936  15.134   2.402
23945W        W87702  17.710  15.125   4.268
23946W        W87703  35.902   0.859   0.760
23947W        W87704  17.266   1.881   4.698
23948W        W87705   1.966  43.423  12.899
23949W        W87706   6.690  28.017   1.840
23950W        W87707   6.807  20.758   2.688
23951W        W87708  14.804  11.769   1.388
23952W        W87709   9.666  37.944   1.832
23953W        W87710  26.639  18.788  14.468
23954W        W87711  32.019  43.891  11.914
23955W        W87712  24.983  12.249   2.348
23956W        W87713  23.174   0.904   3.845
23957W        W87714   6.293  37.996   3.227
23958W        W87715  13.268  38.046   2.194
23959W        W87716  14.285   3.248  13.440
23960W        W87717  42.315   9.363  11.942
23961W        W87718  30.976  11.829  11.458
23962W        W87719  17.300   4.904  14.766
23963W        W87720  31.575  22.118   3.647
23964W        W87721  16.731   2.404  12.543
23965W        W87722  36.356   9.822  13.420
23966W        W87723  29.516  41.043  11.484
23967W        W87724  44.006  31.574  14.484
23968W        W87725  31.105  27.120  10.589
23969W        W87726  33.099  26.568   5.288
23970W        W87727  25.624  20.034  14.284
23971W        W87728  42.297  24.058  10.506
23972W        W87729  43.330   5.411   0.729
23973W        W87730  42.888  15.656   3.295
23974W        W87731  39.046  34.002   2.868
23975W        W87732  38.871  39.944   4.149
23976W        W87733  15.121  13.690  11.892
23977W        W87734  23.582   6.753  12.414
23978W        W87735   2.788  39.481   4.217
23979W        W87736  14.669  24.725  12.353
23980W        W87737  29.137  18.199   3.846
23981W        W87738  34.074   5.748  12.353
23982W        W87739  20.541  15.157   1.793
23983W        W87740  36.041   4.290   0.872
23984W        W87741  28.451  38.039   4.700
23985W        W87742  41.979  25.619   1.812
23986W        W87743  14.318  32.548   4.118
23987W        W87744  42.407  31.516   3.656
23988W        W87745  25.592  42.338  14.311
23989W        W87746  33.085  29.486  12.851
23990W        W87747  14.806  30.567   3.717
23991W        W87748  16.750  10.839   0.242
23992W        W87749  30.009  22.720   2.269
23993W        W87750   3.790  25.709  10.620
23994W        W87751   7.369   7.791   0.394
23995W        W87752  18.128  44.319  12.884
23996W        W87753  12.289  23.110   0.412
23997W        W87754  34.386   8.789  14.997
23998W        W87755  35.478  37.906   0.898
23999W        W87756  34.427  29.587   2.214
24000W        W87757   3.800   1.386  14.502
24001W        W87758  13.139  24.222  11.422
24002W        W87759  17.697  36.920   2.196
24003W        W87760  26.089   2.456   0.380
24004W        W87761  23.495  19.283  14.965
24005W        W87762   5.378  15.723   4.165
24006W        W87763   7.798  44.858   2.823
24007W        W87764  14.647  28.938   4.239
24008W        W87765  35.886  15.719   0.964
24009W        W87766   0.854   6.843   4.310
24010W        W87767  14.657  42.978   5.764
24011W        W87768  26.534  39.337  12.379
24012W        W87769  26.517   2.415   1.868
24013W        W87770  30.484   1.320   2.824
24014W        W87771   8.355  40.526  13.460
24015W        W87772   4.245  38.543   3.857
24016W        W87773  41.435  43.320  10.933
24017W        W87774   7.717  38.339   1.332
24018W        W87775  42.815   7.796   3.193
24019W        W87776  27.525  21.076  10.447
24020W        W87777  23.697   3.227  11.919
24021W        W87778  25.559  20.247  14.881
24022W        W87779  21.754  25.129   4.150
24023W        W87780  23.659  33.548   0.840
24024W        W87781  13.273  39.491   2.278
24025W        W87782  35.464  35.603  12.927
24026W        W87783   1.269  33.602   1.220
24027W        W87784   4.229   3.288  12.042
24028W        W87785  13.289  28.624  14.306
24029W        W87786  38.003  10.222  13.000
24030W        W87787   8.400  12.298  10.641
24031W        W87788  19.561  19.674   0.374
24032W        W87789  25.522  40.433  12.978
24033W        W87790  44.397  37.427  12.533
24034W        W87791   1.477  38.533   4.268
24035W        W87792  12.857  23.188   3.816
24036W        W87793  17.563  31.613   1.357
24037W        W87794  34.402  27.056   0.296
24038W        W87795  39.973  40.313   1.317
24039W        W87796  20.615   6.385  11.002
24040W        W87797  11.248   6.724  14.497
24041W        W87798  18.688  37.511  11.082
24042W        W87799   8.800  44.386  13.356
24043W        W87800  27.611  24.146   3.273
24044W        W87801   1.818  24.109   1.872
24045W        W87802  35.853  40.902  14.311
24046W        W87803  11.273  27.448   0.253
24047W        W87804  34.936  13.802   1.220
24048W        W87805  35.860  43.443  12.519
24049W        W87806  13.626  25.535   2.296
24050W        W87807   1.456  31.023   0.477
24051W        W87808  29.432  27.025  10.927
24052W        W87809  44.414  26.092   1.769
24053W        W87810  26.124  34.018   0.960
24054W        W87811  21.027  42.006  13.904
24055W        W87812  30.974  16.623  12.557
24056W        W87813   8.267  20.638   4.229
24057W        W87814  18.072  33.437   4.687
24058W        W87815   9.651  25.482  12.378
24059W        W87816  41.494  13.150  14.276
24060W        W87817  44.858  29.946   4.292
24061W        W87818   8.756  34.571  11.541
24062W        W87819  12.636  15.095   4.225
24063W        W87820  24.544  26.645  10.487
24064W        W87821   6.418   7.890  11.461
24065W        W87822  18.284  13.215   3.158
24066W        W87823   5.313  39.894  11.881
24067W        W87824   8.277   1.882   4.285
24068W        W87825   2.819   2.895   3.779
24069W        W87826  34.945  13.815   4.837
24070W        W87827  33.526  15.284  14.488
24071W        W87828  27.071  36.035   2.760
24072W        W87829  29.519  31.101   0.810
24073W        W87830  13.706  41.369   0.319
24074W        W87831   7.677   2.854   1.381
24075W        W87832   3.434  26.583  14.812
24076W        W87833  43.461  27.134   2.313
24077W        W87834  11.371  32.988   4.146
24078W        W87835  15.105   3.813  12.495
24079W        W87836   9.249  19.700   0.311
24080W        W87837  28.163  26.591  10.001
24081W        W87838  44.962   0.795  11.023
24082W        W87839   1.955   5.699  13.881
24083W        W87840   0.983  37.838  10.983
24084W        W87841   7.674  22.156  10.930
24085W        W87842  30.944  44.984   0.927
24086W        W87843  17.110  39.048  14.295
24087W        W87844  10.760  33.618   3.370
24088W        W87845   1.885  30.648   3.771
24089W        W87846  33.127  44.351   3.698
24090W        W87847  10.163  25.993   1.384
24091W        W87848  31.069  20.145  13.917
24092W        W87849   9.763   3.284   3.374
24093W        W87850   5.410  40.487   3.743
24094W        W87851   0.398  33.981  11.037
24095W        W87852  27.103  37.362   1.771
24096W        W87853   9.309  25.145  11.069
24097W        W87854   2.771  38.896   2.854
24098W        W87855   2.830  37.511   0.771
24099W        W87856  26.571  11.289  13.898
24100W        W87857  21.107   1.413  10.890
24101W        W87858  40.974   6.202   2.314
24102W        W87859   8.326  36.471  13.528
24103W        W87860  39.504  33.612  12.429
24104W        W87861  42.460  39.050   1.259
24105W        W87862  31.014  44.497   3.226
24106W        W87863   4.882  42.030  12.830
24107W        W87864  39.017  38.947  10.976
24108W        W87865  32.091  19.713   9.946
24109W        W87866   3.837  41.904   0.306
24110W        W87867  14.227  15.319   0.832
24111W        W87868  16.582  29.477   4.226
24112W        W87869  18.132  18.663   1.317
24113W        W87870   3.789   1.780   4.169
24114W        W87871  33.961  23.062   1.432
24115W        W87872  15.687  38.989  13.894
24116W        W87873  13.308  25.524   0.881
24117W        W87874  22.706  15.699  14.837
24118W        W87875  13.118   1.936   4.149
24119W        W87876  30.979  16.653  10.519
24120W        W87877  12.329   1.322  12.559
24121W        W87878   6.295  19.062  10.974
24122W        W87879  31.643  43.987   4.305
24123W        W87880  14.759   1.810   4.226
24124W        W87881  14.167  36.914  10.529
24125W        W87882  43.485  19.752   2.817
24126W        W87883  25.150  23.241  14.804
24127W        W87884  18.230  44.370   2.361
24128W        W87885  16.604  31.037  10.524
24129W        W87886  37.561  19.609   1.313
24130W        W87887  29.112  25.125  12.419
24131W        W87888  15.657  36.444  10.910
24132W        W87889  13.110  12.116   2.743
24133W        W87890   9.703  14.722   1.908
24134W        W87891  30.144  30.418   1.911
24135W        W87892   0.898   9.369   3.328
24136W        W87893   5.894  25.053   2.666
24137W        W87894  27.040   5.213  14.361
24138W        W87895  24.675  36.540   3.801
24139W        W87896  33.395  20.188  13.063
24140W        W87897  12.151   4.313   2.376
24141W        W87898  35.526  18.651  12.967
24142W        W87899  16.218  33.599  10.602
24143W        W87900  17.078  36.379   4.282
24144W        W87901   5.351  27.989  13.890
24145W        W87902  43.403   1.247   1.698
24146W        W87903  41.433   9.876   3.164
24147W        W87904  17.726  10.167   2.241
24148W        W87905  15.153  10.222  12.926
24149W        W87906  28.179  34.422   2.287
24150W        W87907  23.030  11.272   0.281
24151W        W87908  24.097  43.457  11.406
24152W        W87909  33.896  36.369  13.383
24153W        W87910   5.369  37.025   0.742
24154W        W87911   9.665  25.691   1.815
24155W        W87912  30.582   7.186   0.473
24156W        W87913  14.225  10.800  10.558
24157W        W87914  43.284  19.569  11.981
24158W        W87915  43.008  20.685  14.935
24159W        W87916   2.303  28.960   2.295
24160W        W87917  11.190  10.247  12.865
24161W        W87918  19.059  37.014   2.207
24162W        W87919  16.290  22.135  13.350
24163W        W87920   7.871  24.530  13.937
24164W        W87921  22.242  25.488   2.183
24165W        W87922  36.478  36.004   3.192
24166W        W87923  35.024  21.660   3.786
24167W        W87924  38.528   0.786  12.512
24168W        W87925   4.273  26.471   1.441
24169W        W87926  19.704   1.460   1.737
24170W        W87927  36.363  18.709   3.354
24171W        W87928  28.177  44.466   1.423
24172W        W87929   8.171  38.040  12.935
24173W        W87930  14.626  27.956  11.058
24174W        W87931  43.963   7.255  11.880
24175W        W87932  29.021  17.237   3.804
24176W        W87933   2.265  44.780   1.389
24177W        W87934  27.636  28.651  10.624
24178W        W87935  16.590  43.407   0.959
24179W        W87936   0.983  19.603  12.439
24180W        W87937  39.838  28.588  12.962
24181W        W87938   4.278  25.988   3.818
24182W        W87939  15.147  22.732   3.771
24183W        W87940  40.891  13.335  14.972
24184W        W87941   8.191  24.641  10.500
24185W        W87942  29.134  10.209   3.741
24186W        W87943  42.959  28.119   5.213
24187W        W87944   4.875  24.010  13.815
24188W        W87945  24.014  14.331  11.526
24189W        W87946  44.763   4.310   3.795
24190W        W87947  20.101  34.892   0.863
24191W        W87948  11.277  22.686  10.480
24192W        W87949  24.052  14.783  14.893
24193W        W87950  16.108   1.772   4.753
24194W        W87951  24.197  23.078  10.007
24195W        W87952  42.347  33.092  10.990
24196W        W87953   6.383   6.341  11.431
24197W        W87954  41.897  38.351   2.717
24198W        W87955  38.496  33.030   3.823
24199W        W87956  14.608  16.713   1.695
24200W        W87957  23.681  25.047   3.691
24201W        W87958   4.944  30.160  12.535
24202W        W87959   8.783  32.127  10.525
24203W        W87960   0.425  27.118   0.904
24204W        W87961  17.775   6.292   0.750
24205W        W87962   8.212  26.178   1.862
24206W        W87963  17.135   8.813  11.124
24207W        W87964  11.174  15.658  12.071
24208W        W87965  23.568  20.669   2.820
24209W        W87966  34.897  35.499   2.224
24210W        W87967  18.578  16.255   1.930
24211W        W87968  20.764  18.595   2.879
24212W        W87969  32.037  37.954   1.753
24213W        W87970  44.859  17.225  10.129
24214W        W87971  23.016  41.351  13.998
24215W        W87972  16.149  28.127  11.013
24216W        W87973  16.791  30.113  13.419
24217W        W87974  33.394  25.589   3.867
24218W        W87975   8.191  43.507   4.278
24219W        W87976  27.083  36.963   4.675
24220W        W87977  36.574   7.234   4.218
24221W        W87978  26.473   9.652  10.480
24222W        W87979  17.618  11.233   0.840
24223W        W87980   7.277  28.008   3.668
24224W        W87981  34.012  19.563  13.507
24225W        W87982  38.392   0.265   1.328
24226W        W87983  21.097  16.221   4.726
24227W        W87984  31.111   5.249  15.000
24228W        W87985  21.583  24.485  12.957
24229W        W87986  21.721  23.676  10.641
24230W        W87987  18.197  36.561  13.526
24231W        W87988  10.353  28.464   0.812
24232W        W87989  13.741  41.968   0.427
24233W        W87990  32.930  41.856   3.346
24234W        W87991  44.838  30.916   4.599
24235W        W87992  32.113  33.590  13.467
24236W        W87993  33.885  24.153   3.820
24237W        W87994  21.678   6.912  13.889
24238W        W87995   5.250  42.914  11.941
24239W        W87996   4.842   0.317   3.820
24240W        W87997  28.955  16.110  14.798
24241W        W87998  38.920   0.492   2.416
24242W        W87999  17.580  21.154   4.756
24243W        W88000  20.574  22.033   4.672
24244W        W88001   4.804  38.392  12.882
24245W        W88002  14.640  38.480  12.497
24246W        W88003   1.777  29.594  13.889
24247W        W88004  41.894  29.587  10.518
24248W        W88005  20.173  14.797   5.132
24249W        W88006   4.886   6.695   0.382
24250W        W88007  38.559  13.776  14.959
24251W        W88008  10.138  14.614   3.672
24252W        W88009  18.598   3.715  12.871
24253W        W88010   2.850  39.375  13.970
24254W        W88011  39.810   4.775  12.361
24255W        W88012   0.800  34.492   2.237
24256W        W88013  27.560   8.383   1.750
24257W        W88014  38.541  34.948  11.504
24258W        W88015  44.991  18.645  10.973
24259W        W88016  30.657  42.007   4.254
24260W        W88017  30.611  30.032   1.896
24261W        W88018   1.431  31.970   1.226
24262W        W88019  41.414  35.028  12.560
24263W        W88020  11.285   4.783   1.923
24264W        W88021  29.588  24.219  14.883
24265W        W88022  25.167  31.064  12.461
24266W        W88023   5.329  20.104   3.849
24267W        W88024  27.145   8.672  12.558
24268W        W88025  11.868  17.250  13.881
24269W        W88026  30.443  39.010   0.852
24270W        W88027   4.814  20.633   1.903
24271W        W88028  22.632  25.692   4.174
24272W        W88029  38.839  43.404  10.542
24273W        W88030   6.257  27.666   0.342
24274W        W88031  27.049  34.019   4.114
24275W        W88032   2.290   8.300   3.789
24276W        W88033  40.846  14.672  12.441
24277W        W88034   6.801  38.362  11.455
24278W        W88035  21.209  14.118   3.772
24279W        W88036  37.958  15.603  11.013
24280W        W88037  21.192  14.724  11.429
24281W        W88038  33.093  37.425  14.420
24282W        W88039  37.498  15.144  10.138
24283W        W88040  21.715   5.824   1.354
24284W        W88041  24.062  39.894   0.415
24285W        W88042  32.941  44.334   1.272
24286W        W88043  38.515  43.956   4.600
24287W        W88044  10.817  31.897  10.470
24288W        W88045  36.955   4.739   1.797
24289W        W88046  43.950   4.302   0.420
24290W        W88047   0.460  38.946  12.486
24291W        W88048  31.968  22.049   0.873
24292W        W88049  43.970  25.635   3.633
24293W        W88050  31.638  22.065  14.896
24294W        W88051  34.120   7.392   2.413
24295W        W88052  38.344  36.903  12.523
24296W        W88053  10.341  10.311   2.749
24297W        W88054  33.075  24.693   3.660
24298W        W88055  18.778  32.462  13.417
24299W        W88056  35.912  42.414   3.315
24300W        W88057  25.992   5.271   1.441
24301W        W88058  44.767  34.592  13.055
24302W        W88059  15.672  25.979  11.583
24303W        W88060  28.095  28.437   4.683
24304W        W88061  30.453  34.979   0.466
24305W        W88062  26.666  12.843   1.283
24306W        W88063  38.997  33.934  14.357
24307W        W88064  40.404   6.768   1.911
24308W        W88065   6.203  33.081  13.062
24309W        W88066   7.669  24.151  12.530
24310W        W88067   3.769   2.463   0.963
24311W        W88068  39.469  27.569   2.261
24312W        W88069  26.958  23.577  12.955
24313W        W88070   9.328  20.604   1.240
24314W        W88071   2.298   4.353  13.450
24315W        W88072  31.096   0.268   0.898
24316W        W88073  39.378   0.946   4.255
24317W        W88074  23.054  20.532   0.254
24318W        W88075  40.355  34.875   2.825
24319W        W88076   4.829  33.060  10.937
24320W        W88077  35.883   5.736  12.553
24321W        W88078  18.194  16.597   3.841
24322W        W88079   3.905  26.458  10.443
24323W        W88080   0.293  24.679  13.833
24324W        W88081  26.079  19.698  12.929
24325W        W88082  39.065   0.398  11.423
24326W        W88083   4.904  17.132   1.291
24327W        W88084  20.628  18.634   3.751
24328W        W88085  26.049  34.909   1.344
24329W        W88086  23.003   9.652   0.903
24330W        W88087  17.064  44.884  14.310
24331W        W88088  22.570  36.866  13.983
24332W        W88089  25.484  26.652  10.497
24333W        W88090   2.252  40.922   0.275
24334W        W88091  23.503  40.816   3.686
24335W        W88092   2.901  14.110  10.535
24336W        W88093  34.050  24.656  12.418
24337W        W88094  27.461  36.479   1.436
24338W        W88095  10.692   7.181   4.242
24339W        W88096  26.087   9.286   0.329
24340W        W88097  17.132  20.563  14.830
24341W        W88098  21.149   4.335  12.969
24342W        W88099  35.490  17.744   2.873
24343W        W88100  35.102  33.414   0.390
24344W        W88101  42.823   4.877  11.097
24345W        W88102  18.286  25.679  10.975
24346W        W88103  13.693  17.657  10.601
24347W        W88104   1.363   5.304  14.770
24348W        W88105  36.552   0.904  13.332
24349W        W88106  33.029  21.201  11.873
24350W        W88107   3.833  43.432   0.917
24351W        W88108  40.883  30.072  13.530
24352W        W88109  21.256  21.210   4.188
24353W        W88110  24.544  21.141  10.019
24354W        W88111  31.953  21.756   4.613
24355W        W88112   1.734  38.006  13.429
24356W        W88113  39.414   4.351   1.920
24357W        W88114  41.445  20.146   1.287
24358W        W88115  44.315  36.987  11.496
24359W        W88116  35.547  38.475  13.354
24360W        W88117  21.056  35.874  10.926
24361W        W88118  41.426  18.096   1.422
24362W        W88119  33.979  12.775  13.928
24363W        W88120  42.520  20.066  12.416
24364W        W88121  40.322   0.297   4.305
24365W        W88122   7.855  37.522  13.434
24366W        W88123  10.756  20.636  14.478
24367W        W88124  16.708  26.660   3.793
24368W        W88125  33.050  31.123   2.822
24369W        W88126  44.876   7.698   1.325
24370W        W88127   5.933  25.986  10.926
24371W        W88128  15.746   3.273   1.868
24372W        W88129  43.791   6.786   2.378
24373W        W88130  29.163   5.886  13.803
24374W        W88131  37.006  16.798   3.755
24375W        W88132   7.287  32.012  14.297
24376W        W88133  44.894  26.459   2.683
24377W        W88134  21.129  21.718   1.257
24378W        W88135  27.943   1.264   4.343
24379W        W88136  27.124  13.782  10.938
24380W        W88137  37.999   5.399  14.789
24381W        W88138  19.062  43.989  14.346
24382W        W88139   8.737  30.080   4.138
24383W        W88140  36.899  17.066   0.952
24384W        W88141  40.831  11.177   1.727
24385W        W88142   7.836  33.948   3.357
24386W        W88143  12.222  14.652   0.819
24387W        W88144  30.912  32.560  12.418
24388W        W88145  13.817   3.952  12.395
24389W        W88146  36.443  15.088   3.338
24390W        W88147  13.152  27.158   3.334
24391W        W88148  21.110  29.459   4.295
24392W        W88149  23.566   5.248   3.682
24393W        W88150  17.095  17.670  14.372
24394W        W88151  14.683  42.025  11.375
24395W        W88152  22.234  14.139  11.595
24396W        W88153  12.262  12.145  12.066
24397W        W88154   1.278  15.659  12.410
24398W        W88155   4.258  27.602   1.423
24399W        W88156   1.254  26.140  13.825
24400W        W88157   1.909  12.142  12.366
24401W        W88158  19.674  40.480   4.193
24402W        W88159  36.454  26.632   3.156
24403W        W88160  34.095  24.543  12.897
24404W        W88161  39.326  15.123  11.524
24405W        W88162   5.717  17.287   3.348
24406W        W88163  38.935  22.659   0.807
24407W        W88164  10.787  37.478  11.017
24408W        W88165  15.163  40.318  13.957
24409W        W88166  22.625  14.309   3.705
24410W        W88167  16.713   8.813   0.855
24411W        W88168  16.290  25.984   2.733
24412W        W88169  31.591  32.009   0.877
24413W        W88170  12.619   9.327  10.983
24414W        W88171  15.089  31.144   1.357
24415W        W88172   1.953  43.280  11.504
24416W        W88173  40.823  41.897  10.643
24417W        W88174   2.851  36.359  14.926
24418W        W88175  14.699  23.614  12.059
24419W        W88176   0.983  27.941  14.845
24420W        W88177  16.294  32.062  11.500
24421W        W88178  27.643   5.395  11.405
24422W        W88179   5.280   6.219   3.816
24423W        W88180   5.345  20.660  14.424
24424W        W88181  16.792   5.776  13.815
24425W        W88182  25.485  31.107  12.934
24426W        W88183  15.792  23.158  10.525
24427W        W88184  28.113  42.302   0.916
24428W        W88185  36.987   6.386  11.393
24429W        W88186  24.558  21.250  11.547
24430W        W88187  35.087  11.144  11.980
24431W        W88188   9.262  27.590   3.753
24432W        W88189  30.627  14.669  13.937
24433W        W88190  29.627  13.787  13.998
24434W        W88191  44.816   0.916  11.592
24435W        W88192   9.726  21.037  11.026
24436W        W88193  22.553   8.306   4.681
24437W        W88194  21.158  12.241   3.148
24438W        W88195  21.135  17.258  13.048
24439W        W88196  37.929   7.234  13.317
24440W        W88197  12.717   7.801  12.892
24441W        W88198  26.675  39.395   2.863
24442W        W88199  26.633  38.842  14.015
24443W        W88200  23.236  44.904   0.783
24444W        W88201  19.221  28.564  11.439
24445W        W88202  23.493  22.721  10.626
24446W        W88203  30.462  43.926  11.514
24447W        W88204  36.962   8.207   4.173
24448W        W88205  11.142  21.242   1.215
24449W        W88206   5.766   7.295   0.334
24450W        W88207   9.330   2.236   4.729
24451W        W88208  16.751  28.965  10.917
24452W        W88209  39.335   7.344   3.284
24453W        W88210  28.537  20.591  13.959
24454W        W88211  30.445  41.995   0.279
24455W        W88212  17.782  41.791   4.628
24456W        W88213  13.802   4.319   2.390
24457W        W88214   9.713  19.735  10.912
24458W        W88215  26.118  29.582  10.415
24459W        W88216  30.569  39.031   1.699
24460W        W88217  26.088  11.181  12.502
24461W        W88218  12.827  44.935  11.931
24462W        W88219  43.458   9.201  13.484
24463W        W88220   7.775  22.519  13.821
24464W        W88221  16.282  43.445  11.587
24465W        W88222  41.880  40.949  13.403
24466W        W88223  39.543   8.272   0.747
24467W        W88224  18.127   9.212   1.441
24468W        W88225  12.232  14.227   1.232
24469W        W88226   5.292  31.958  11.079
24470W        W88227  17.276  13.813  12.091
24471W        W88228   3.245  29.592  12.062
24472W        W88229   1.775  12.741  12.840
24473W        W88230  13.272  21.525  10.604
24474W        W88231  27.182  13.120   0.927
24475W        W88232   6.680  14.294   1.920
24476W        W88233  12.124  36.998  14.813
24477W        W88234  15.638   9.363   4.598
24478W        W88235  41.350  26.466   9.951
24479W        W88236   4.802  38.371  11.401
24480W        W88237  17.205   6.241   2.830
24481W        W88238  28.439  24.192  13.385
24482W        W88239  41.946  16.181   2.219
24483W        W88240  23.127  41.367   3.747
24484W        W88241   6.801   2.954   0.395
24485W        W88242  23.722  13.245   0.251
24486W        W88243  23.180  29.166  12.932
24487W        W88244  22.192  39.857   1.893
24488W        W88245  23.108  20.603  14.989
24489W        W88246  37.972  23.605  12.574
24490W        W88247  33.058  42.782   0.866
24491W        W88248   8.364  30.465  10.983
24492W        W88249  42.508  17.625  14.396
24493W        W88250  38.017  44.967   0.420
24494W        W88251  13.260  23.558  13.796
24495W        W88252  14.779   2.896  13.372
24496W        W88253  11.236  39.332   2.334
24497W        W88254  30.126  17.566   1.779
24498W        W88255  19.707  20.572  14.415
24499W        W88256  33.917  14.663   2.718
24500W        W88257  15.203  19.115  10.458
24501W        W88258  34.089  24.030  12.492
24502W        W88259  22.170   2.764   0.350
24503W        W88260  10.661   1.383   3.269
24504W        W88261   8.369  26.002  11.062
24505W        W88262  20.686   0.395  10.451
24506W        W88263  16.138  18.257   0.853
24507W        W88264  26.099  31.929  14.306
24508W        W88265  35.931   1.302   0.399
24509W        W88266  38.457  42.848  13.344
24510W        W88267  21.071  26.645   1.777
24511W        W88268  27.504  10.191  12.576
24512W        W88269  11.654  39.917   4.275
24513W        W88270  37.348   2.772   0.764
24514W        W88271  44.343   1.739   2.877
24515W        W88272  16.644   0.926  13.316
24516W        W88273  31.124  30.942  10.493
24517W        W88274  32.946  15.190  11.566
24518W        W88275   2.379  10.718  14.418
24519W        W88276   4.941   7.902  13.909
24520W        W88277  17.672  35.507   2.898
24521W        W88278  18.583  15.112   2.231
24522W        W88279   8.231  14.124  10.106
24523W        W88280  23.121  36.048  13.489
24524W        W88281  14.195   0.856   3.741
24525W        W88282  28.976  12.160  13.404
24526W        W88283  38.069  39.993   3.770
24527W        W88284  14.827  12.350  10.582
24528W        W88285  28.112   8.272  13.911
24529W        W88286  35.886  35.110  13.418
24530W        W88287   7.300  23.597   4.212
24531W        W88288  11.133  27.123   3.150
24532W        W88289  39.444   1.957  12.966
24533W        W88290  13.126  24.612   0.332
24534W        W88291   4.840  35.034   2.236
24535W        W88292  40.411  32.494   1.780
24536W        W88293   1.975  32.546   2.338
24537W        W88294  17.689  20.233  10.427
24538W        W88295  41.910  12.809   9.990
24539W        W88296  40.499   2.907   4.145
24540W        W88297  26.180  40.939   0.364
24541W        W88298  44.003  44.896   1.719
24542W        W88299  10.362  41.458   3.298
24543W        W88300   2.383  22.120  12.988
24544W        W88301  15.140  39.346  13.317
24545W        W88302  22.669   6.231  12.904
24546W        W88303  10.769  39.475  12.960
24547W        W88304   9.875  36.450  12.368
24548W        W88305  11.814  25.680   1.706
24549W        W88306  37.997   6.874   0.845
24550W        W88307  39.511  37.497  11.073
24551W        W88308   0.952   6.188  10.937
24552W        W88309  28.021   5.264   1.895
24553W        W88310  40.862  40.498   2.760
24554W        W88311  16.147   8.375  11.974
24555W        W88312   7.698   9.701   4.126
24556W        W88313  22.733  41.512   2.293
24557W        W88314   9.710  21.628   2.319
24558W        W88315   1.326   2.244  14.374
24559W        W88316  25.019  17.790   0.404
24560W        W88317  23.222  29.541  10.995
24561W        W88318   2.904  26.513   5.242
24562W        W88319  44.883  12.702  13.467
24563W        W88320  23.118   9.804  11.118
24564W        W88321  25.497  42.408  10.602
24565W        W88322   2.960  21.684  10.629
24566W        W88323   2.755  33.070  11.573
24567W        W88324   4.276   0.914  14.939
24568W        W88325  28.982   7.185   4.128
24569W        W88326  18.155   8.721  14.329
24570W        W88327  10.147  34.525   0.963
24571W        W88328  41.342  37.542  14.906
24572W        W88329  38.834   6.884  12.834
24573W        W88330  15.135  28.117   4.139
24574W        W88331  24.017   8.855   1.356
24575W        W88332  36.942  13.741  11.876
24576W        W88333  18.647  32.978   2.789
24577W        W88334  31.927  24.538  14.403
24578W        W88335  38.568  11.643   4.701
24579W        W88336  11.267  30.132  11.597
24580W        W88337  40.972  22.588   4.647
24581W        W88338   4.825  37.401   0.872
24582W        W88339  29.932   1.238  11.876
24583W        W88340  42.888  35.429   3.819
24584W        W88341   0.439  41.965   1.714
24585W        W88342  10.698  31.130  11.051
24586W        W88343   6.773  28.532  11.070
24587W        W88344  35.984  14.795  10.617
24588W        W88345  30.563  42.495  13.441
24589W        W88346   4.226  12.157  13.988
24590W        W88347   1.262  11.326  12.570
24591W        W88348  28.013   7.729   2.686
24592W        W88349  43.493  11.730  14.420
24593W        W88350  35.404  15.296  13.467
24594W        W88351  37.035   6.818  12.514
24595W        W88352  28.142  40.484  14.908
24596W        W88353  36.402  19.040  11.128
24597W        W88354  33.012  14.138  13.911
24598W        W88355   8.273  35.528   2.669
24599W        W88356  32.982  12.147  12.462
24600W        W88357  40.518  44.763   3.192
24601W        W88358  24.693  18.616  11.460
24602W        W88359  36.961  15.150  14.781
24603W        W88360  27.103  34.575  13.925
24604W        W88361  42.925  39.043   4.640
24605W        W88362  24.649  29.585   4.725
24606W        W88363  10.864  14.623  11.510
24607W        W88364  13.210  12.287  10.531
24608W        W88365  27.661  40.831  13.525
24609W        W88366  28.000  10.228  11.869
24610W        W88367   5.720  35.099   3.326
24611W        W88368  29.432  26.680  13.365
24612W        W88369  14.796   1.377   3.163
24613W        W88370  34.568   3.769   1.846
24614W        W88371  43.346  41.350  13.052
24615W        W88372  17.760  10.791   0.479
24616W        W88373  18.120  15.219   0.842
24617W        W88374  43.479  12.154  11.050
24618W        W88375   9.333  29.434   4.661
24619W        W88376  36.354   5.236   0.446
24620W        W88377  29.498  10.185   5.096
24621W        W88378  11.342  36.964   2.764
24622W        W88379   8.387  19.203   1.914
24623W        W88380  26.694  22.674   4.733
24624W        W88381   0.801  24.515  11.983
24625W        W88382  23.512  29.657  12.494
24626W        W88383  24.057  35.370   1.798
24627W        W88384   1.292  12.249  13.322
24628W        W88385  15.594  30.066   3.733
24629W        W88386  35.040  34.388   4.301
24630W        W88387   1.387   1.398   4.829
24631W        W88388  11.301  29.523  14.862
24632W        W88389   0.360  24.656   0.423
24633W        W88390  11.677  22.606  10.463
24634W        W88391  33.896   8.747  13.036
24635W        W88392   0.327  21.028   0.834
24636W        W88393   7.415  39.834   3.297
24637W        W88394  24.076  21.719   2.201
24638W        W88395   0.309  20.594  13.467
24639W        W88396  27.626  37.920  12.503
24640W        W88397  24.227   7.873   4.681
24641W        W88398   1.792   2.423  14.945
24642W        W88399  11.132  23.222  11.915
24643W        W88400  27.485  40.047   0.963
24644W        W88401  43.968   5.251  11.512
24645W        W88402  21.257  39.918  14.291
24646W        W88403  41.340  11.864  11.978
24647W        W88404   4.248  20.113  13.393
24648W        W88405  19.116  23.626  12.520
24649W        W88406   1.338  28.094  11.496
24650W        W88407  44.919  23.676   1.760
24651W        W88408   8.186  28.147  13.877
24652W        W88409  16.283   2.401  11.951
24653W        W88410  23.729  14.645   0.436
24654W        W88411  32.499   2.795  12.963
24655W        W88412  26.687  31.929  11.067
24656W        W88413  14.693   0.968  11.877
24657W        W88414  26.553   8.172   1.289
24658W        W88415  17.772  41.041  14.373
24659W        W88416  17.707   2.949  11.940
24660W        W88417  10.184  23.567  13.860
24661W        W88418  12.185  14.735  12.011
24662W        W88419  23.084   5.903   4.279
24663W        W88420  13.647  27.676  14.814
24664W        W88421  12.706  32.121   4.609
24665W        W88422  12.187  41.438   2.239
24666W        W88423  38.933  27.967   3.365
24667W        W88424  29.449  23.083   1.876
24668W        W88425  13.148  17.134  11.081
24669W        W88426  39.532  38.826  14.808
24670W        W88427   3.746  39.479  14.361
24671W        W88428  21.059   9.742   4.203
24672W        W88429  14.233  25.557   1.826
24673W        W88430  27.504   7.241   1.868
24674W        W88431  13.170  12.839   2.396
24675W        W88432   1.859  39.821  13.062
24676W        W88433   8.245  28.547  13.359
24677W        W88434  15.166   7.846   3.192
24678W        W88435  10.823  16.738  11.487
24679W        W88436  44.392  11.857  13.938
24680W        W88437  36.401   9.869   1.699
24681W        W88438  10.689  19.090  11.456
24682W        W88439  22.130  15.322  12.571
24683W        W88440   3.460  35.579   1.786
24684W        W88441  36.980   4.841  14.822
24685W        W88442  11.758   6.199  11.532
24686W        W88443  27.446   1.953  14.818
24687W        W88444   0.390  29.090   0.418
24688W        W88445  41.488  10.376   2.287
24689W        W88446  41.799  30.559  12.959
24690W        W88447  10.211  29.624   0.277
24691W        W88448  40.975  27.943   3.306
24692W        W88449  37.390   8.226   3.632
24693W        W88450  19.245   5.877   1.733
24694W        W88451  35.547  19.690   0.386
24695W        W88452   2.775   1.846   3.763
24696W        W88453  17.102   0.337  10.015
24697W        W88454  25.989   3.784   2.395
24698W        W88455  16.703  17.642   4.756
24699W        W88456  35.930  33.043   4.345
24700W        W88457  22.242  23.533  10.403
24701W        W88458  31.898  12.637  11.949
24702W        W88459  24.617  25.574  11.496
24703W        W88460  15.115  13.208   1.793
24704W        W88461  15.694  12.843   0.471
24705W        W88462  11.273  11.758   0.293
24706W        W88463  41.395  35.875   0.294
24707W        W88464   2.418  15.747  11.396
24708W        W88465  20.625   9.374   4.733
24709W        W88466  20.226  37.348  13.479
24710W        W88467  25.591  44.381  11.543
24711W        W88468   9.298  11.199  14.964
24712W        W88469  25.171   3.216  12.998
24713W        W88470  22.022  28.619   0.244
24714W        W88471  31.412  28.566  13.381
24715W        W88472   4.268  10.731   4.121
24716W        W88473  26.139   8.180  13.465
24717W        W88474  10.371  28.011   1.789
24718W        W88475   8.685  34.979   3.380
24719W        W88476  15.277   0.482  13.427
24720W        W88477  39.551   4.280   1.308
24721W        W88478   9.187  24.512   2.340
24722W        W88479  34.115  33.994  13.500
24723W        W88480  14.169  23.148  12.446
24724W        W88481  22.725  18.573   1.886
24725W        W88482  32.090  27.195  11.551
24726W        W88483  30.471  39.880  11.964
24727W        W88484  10.159  22.100  11.453
24728W        W88485  39.379  25.970  11.476
24729W        W88486  25.559   3.766  13.956
24730W        W88487  32.498   7.796   3.802
24731W        W88488  11.234   3.436  10.993
24732W        W88489   5.435  21.198   0.462
24733W        W88490  39.895  42.459  14.762
24734W        W88491   4.846  30.109   2.407
24735W        W88492   0.288  42.282   1.334
24736W        W88493  43.991   6.379  10.549
24737W        W88494   4.872  29.106  12.011
24738W        W88495  37.028  18.075   0.856
24739W        W88496  14.756  25.053   1.452
24740W        W88497  22.513   8.323  13.494
24741W        W88498  30.625  33.878  13.464
24742W        W88499  35.552  32.585   3.282
24743W        W88500  31.101   9.812  14.934
24744W        W88501   4.248  14.194   2.263
24745W        W88502  34.960  15.691  11.536
24746W        W88503  32.537  18.550  13.797
24747W        W88504  38.895  31.090   0.920
24748W        W88505  16.261  12.133   3.816
24749W        W88506  42.930  43.343  11.997
24750W        W88507  38.561  40.349   2.730
24751W        W88508  36.871  36.898  12.930
24752W        W88509  16.700  13.727   0.958
24753W        W88510   1.370  22.524   4.622
24754W        W88511  44.004   7.324   4.278
24755W        W88512  22.115  20.226   0.885
24756W        W88513  33.943   6.395   0.771
24757W        W88514  13.242   8.200  11.396
24758W        W88515  33.511   1.359   4.264
24759W        W88516  32.072   7.746  12.915
24760W        W88517  34.047  20.626   1.343
24761W        W88518  14.629  11.663  10.480
24762W        W88519  41.900   7.393  12.870
24763W        W88520  23.099   9.867  13.893
24764W        W88521   4.821   9.888  10.018
24765W        W88522  37.380  15.808  12.454
24766W        W88523  23.176  33.520   1.440
24767W        W88524  32.509  37.976   2.713
24768W        W88525  29.575  34.372  11.898
24769W        W88526   4.405  20.121   3.865
24770W        W88527   9.680  31.042   1.385
24771W        W88528  27.692   9.270  11.955
24772W        W88529  31.981   2.374  10.908
24773W        W88530  37.502  25.139   4.705
24774W        W88531  37.431  33.958  13.903
24775W        W88532  23.534  38.862   2.770
24776W        W88533  18.746   2.953   0.302
24777W        W88534  29.597  26.088   0.264
24778W        W88535  39.968  26.013   4.820
24779W        W88536  20.731   3.248   4.720
24780W        W88537  43.845  41.941   1.410
24781W        W88538   9.799  37.030  12.520
24782W        W88539  36.552   0.410   3.644
24783W        W88540  36.467  30.445  11.423
24784W        W88541   2.413  33.110   2.298
24785W        W88542  40.500   1.348   3.237
24786W        W88543  22.169  26.071   3.707
24787W        W88544  22.115  19.116   2.196
24788W        W88545  36.378  13.727   1.776
24789W        W88546  28.632   9.163   2.316
24790W        W88547  29.604   8.679  14.346
24791W        W88548  12.697   0.323  13.794
24792W        W88549  18.165   7.342   0.380
24793W        W88550   2.387   9.676  11.065
24794W        W88551  35.390  36.392  13.517
24795W        W88552   0.877  32.916  10.903
24796W        W88553   7.813  24.661  14.861
24797W        W88554  10.214  16.250   0.416
24798W        W88555  12.727  27.012  11.380
24799W        W88556  30.973  30.611  11.934
24800W        W88557  41.889  37.876  11.434
24801W        W88558  31.956   7.745   2.874
24802W        W88559  39.363  30.132  10.478
24803W        W88560  24.591  17.156  13.035
24804W        W88561  25.083  32.499  14.824
24805W        W88562  41.960   7.742  11.896
24806W        W88563   8.374  13.206  12.513
24807W        W88564  20.630   4.353  12.849
24808W        W88565  24.983  42.521  10.643
24809W        W88566  42.880  12.734  12.569
24810W        W88567  18.697  16.608  13.468
24811W        W88568  34.071  16.581   1.449
24812W        W88569  33.411  11.208   4.354
24813W        W88570  10.870  34.048  14.914
24814W        W88571   7.850  42.817   2.748
24815W        W88572  35.382  15.327   0.379
24816W        W88573  38.546  44.950  10.904
24817W        W88574  30.913  14.186  13.968
24818W        W88575  29.445   5.291  14.364
24819W        W88576  37.832  44.471   1.249
24820W        W88577  29.499  10.647  10.626
24821W        W88578  22.091  20.031  13.534
24822W        W88579  21.150  31.943  11.489
24823W        W88580   6.739   3.876   0.251
24824W        W88581   5.690   4.348  14.013
24825W        W88582   5.206  19.122   3.782
24826W        W88583  13.811  19.083  13.872
24827W        W88584  36.474   7.392  10.523
24828W        W88585  21.731  16.777   1.910
24829W        W88586  25.014  32.134  12.824
24830W        W88587  29.058   6.790  12.091
24831W        W88588  22.039  31.001   4.714
24832W        W88589   8.763  38.847   3.180
24833W        W88590  18.217  14.213   0.945
24834W        W88591   3.437   7.836  13.393
24835W        W88592  28.623  30.505   0.343
24836W        W88593  30.490  25.684   2.413
24837W        W88594  24.678  13.759   2.196
24838W        W88595  40.002  11.330  12.956
24839W        W88596  24.170  13.713  14.389
24840W        W88597  30.473  26.154  13.919
24841W        W88598   2.233  31.646  13.977
24842W        W88599  30.137  17.713  11.969
24843W        W88600  11.261   1.855  11.068
24844W        W88601  42.856  38.970  14.828
24845W        W88602  29.086  36.078   2.694
24846W        W88603  30.641  17.748  11.106
24847W        W88604  36.407  42.912  10.569
24848W        W88605   7.279  42.961  12.938
24849W        W88606  26.057  20.675  10.614
24850W        W88607  25.615   4.295  14.318
24851W        W88608  11.728  37.525  10.067
24852W        W88609   0.862   1.758   0.451
24853W        W88610  29.049   4.418   2.784
24854W        W88611   2.940  32.077   4.761
24855W        W88612   4.771   9.344  12.893
24856W        W88613  27.031  27.491   3.148
24857W        W88614   2.965   4.937   1.728
24858W        W88615   9.171  44.995   0.275
24859W        W88616  44.768   2.838  10.534
24860W        W88617  19.693  33.003  12.907
24861W        W88618  30.073  44.475  14.403
24862W        W88619  20.225  38.961   2.390
24863W        W88620  16.127  39.404  12.935
24864W        W88621  11.220  18.087   0.285
24865W        W88622  44.981   9.674  13.537
24866W        W88623  23.103  36.572  10.926
24867W        W88624  19.129  32.941  14.277
24868W        W88625  36.411   5.839  10.404
24869W        W88626  12.722  11.710   1.233
24870W        W88627  22.170  30.529  10.640
24871W        W88628  36.464  19.734   3.181
24872W        W88629  43.514  38.839  11.879
24873W        W88630  18.134   4.930   0.945
24874W        W88631  16.656  14.311  12.996
24875W        W88632   5.760  43.492  10.635
24876W        W88633  14.270   3.947  11.993
24877W        W88634  34.871   4.330  12.852
24878W        W88635  44.975  18.600   3.800
24879W        W88636  28.570  33.619  11.387
24880W        W88637  20.531  40.453   2.400
24881W        W88638  41.856  38.406  10.960
24882W        W88639  16.169   1.246  14.507
24883W        W88640  38.004  22.118   4.795
24884W        W88641   7.331  15.776   4.174
24885W        W88642  27.135   1.834   1.435
24886W        W88643  38.375   1.947   0.825
24887W        W88644  10.646  21.647  13.382
24888W        W88645  40.919  13.672  13.992
24889W        W88646  34.959  16.747  13.899
24890W        W88647  25.662  14.612  12.400
24891W        W88648  27.501  37.937  13.852
24892W        W88649  26.526   2.892   3.229
24893W        W88650   2.472   4.367  12.372
24894W        W88651   1.315  20.125  11.878
24895W        W88652  31.515   7.213  12.543
24896W        W88653  28.563   2.734   0.291
24897W        W88654  17.638   2.883  10.622
24898W        W88655   1.269   3.937  14.852
24899W        W88656  38.876  30.499  12.495
24900W        W88657  22.219  41.399   1.775
24901W        W88658   6.260  41.358  14.032
24902W        W88659   2.882  20.173   3.383
24903W        W88660  33.007   8.314   2.710
24904W        W88661   6.275  11.868  12.578
24905W        W88662  19.757  40.824   4.212
24906W        W88663  39.502  21.054  14.950
24907W        W88664  37.378  35.031  12.398
24908W        W88665   3.417   8.331   4.635
24909W        W88666  42.493  44.269  10.567
24910W        W88667  38.022  27.630  13.047
24911W        W88668  14.703  25.697   4.114
24912W        W88669   4.915  14.203   1.855
24913W        W88670  22.050  16.798  13.375
24914W        W88671  24.539  22.132  12.495
24915W        W88672  43.435  41.808   3.258
24916W        W88673  35.388  12.266   3.329
24917W        W88674  32.935  30.038   3.307
24918W        W88675  36.035  27.481  10.991
24919W        W88676   1.974  42.949   2.672
24920W        W88677  21.052  28.980  13.361
24921W        W88678  19.201  41.877  12.376
24922W        W88679  44.282  39.935  12.570
24923W        W88680  20.663  19.194  12.830
24924W        W88681  27.016  16.642   2.315
24925W        W88682  39.933  29.020   1.845
24926W        W88683  14.661  18.650  12.873
24927W        W88684   4.801   4.911   0.245
24928W        W88685  25.177   4.747  12.960
24929W        W88686  18.570  16.231   0.738
24930W        W88687  12.351   7.317  14.989
24931W        W88688  26.499  16.163   1.802
24932W        W88689  19.111  18.635   3.862
24933W        W88690  18.054   5.196  12.872
24934W        W88691  19.264  24.667  14.782
24935W        W88692  19.647  29.480   5.158
24936W        W88693  27.651  34.465  12.439
24937W        W88694  10.636  35.500  14.900
24938W        W88695   4.368   7.287  11.377
24939W        W88696   2.416  16.181   2.888
24940W        W88697  37.894   4.385  11.401
24941W        W88698   8.817  20.673  13.544
24942W        W88699   0.873  20.529   2.261
24943W        W88700  11.347  16.775  13.962
24944W        W88701   3.400  32.006   0.416
24945W        W88702  24.556  20.076   1.697
24946W        W88703   6.815  30.922  12.071
24947W        W88704   5.373   7.409   2.713
24948W        W88705   8.313   7.227   1.390
24949W        W88706  26.465  17.707   3.741
24950W        W88707  17.768  30.020   3.293
24951W        W88708   9.203  34.083   1.356
24952W        W88709  32.637   9.706  13.430
24953W        W88710  43.003  37.897  13.928
24954W        W88711  39.895  18.127  13.321
24955W        W88712  43.787  16.190  14.952
24956W        W88713  22.698  26.681  10.988
24957W        W88714   6.897   3.753   2.191
24958W        W88715   5.788  31.409   4.273
24959W        W88716  14.631  44.779  14.312
24960W        W88717  25.135  32.610   3.311
24961W        W88718  26.481  41.463  12.052
24962W        W88719  11.290  41.950  10.426
24963W        W88720  37.892  42.497  14.025
24964W        W88721  26.202  16.107   1.325
24965W        W88722   7.238  30.980   3.738
24966W        W88723  26.106  40.807  12.401
24967W        W88724  29.577  12.323  11.039
24968W        W88725  25.032   8.338   4.231
24969W        W88726   2.951   9.312  10.921
24970W        W88727  23.136   6.748   3.722
24971W        W88728  11.816  33.900   0.379
24972W        W88729  20.256  13.805  12.458
24973W        W88730  16.575  18.208   3.260
24974W        W88731  13.297   1.348   3.768
24975W        W88732  42.325   4.385   2.210
24976W        W88733  38.569   2.915  14.506
24977W        W88734  34.389  33.394   4.631
24978W        W88735  31.577  32.895   1.366
24979W        W88736  25.107   2.293   3.150
24980W        W88737  24.623   1.792  14.763
24981W        W88738  19.591   3.258   5.244
24982W        W88739  25.151  23.612  12.886
24983W        W88740  40.995  25.503   1.290
24984W        W88741  35.582  35.889  12.882
24985W        W88742   0.259   7.417   3.692
24986W        W88743  34.529  21.039  11.022
24987W        W88744  22.014  36.060  13.346
24988W        W88745  38.543  28.561   3.686
24989W        W88746  42.928  25.006  12.573
24990W        W88747  14.215  31.527  13.990
24991W        W88748  34.551  30.991  11.109
24992W        W88749  27.962  27.986  13.313
24993W        W88750  19.635  20.181   0.783
24994W        W88751  40.471  35.580   1.254
24995W        W88752  16.177  39.970  13.425
24996W        W88753  13.647  16.793   3.712
24997W        W88754  44.383  20.102  14.833
24998W        W88755   4.913   1.974  14.030
24999W        W88756  17.716  15.704  14.889
25000W        W88757  19.670  33.060  13.968
25001W        W88758  19.249  12.660  14.911
25002W        W88759  31.513   4.923  13.905
25003W        W88760   4.305   6.852   0.953
25004W        W88761  38.860  24.200   2.835
25005W        W88762  31.135   8.853  14.353
25006W        W88763  24.214  35.557   3.161
25007W        W88764  29.505  38.455  12.962
25008W        W88765  31.053  33.618  13.862
25009W        W88766  42.399  12.180   3.153
25010W        W88767  34.458  12.669  13.841
25011W        W88768  28.476  27.148  13.531
25012W        W88769  42.499  42.416  11.896
25013W        W88770  31.433  34.510   1.881
25014W        W88771  39.397  21.717   4.642
25015W        W88772  43.892  43.318  10.998
25016W        W88773  40.442   9.879   1.793
25017W        W88774  13.714  13.247  11.085
25018W        W88775  44.903  28.174  12.887
25019W        W88776  22.040  15.807  12.960
25020W        W88777  23.041  24.008   4.693
25021W        W88778  17.569  11.153  11.879
25022W        W88779  33.483  13.180  12.093
25023W        W88780   8.861  39.434  14.911
25024W        W88781  44.977  11.639  12.577
25025W        W88782   8.767  41.990   4.223
25026W        W88783  27.652  21.607   0.248
25027W        W88784  37.447  22.686  10.481
25028W        W88785  24.666  11.665   0.739
25029W        W88786   3.941   3.798   3.639
25030W        W88787  15.701  42.887  14.866
25031W        W88788  40.481  31.897   1.794
25032W        W88789  40.471  20.042  11.372
25033W        W88790  29.173  13.809  14.794
25034W        W88791  31.015  32.995  14.760
25035W        W88792   6.922  19.157  13.415
25036W        W88793   0.763   0.818   5.201
25037W        W88794  41.965  34.956   4.760
25038W        W88795  31.920  26.650  14.968
25039W        W88796  17.246  25.086   1.226
25040W        W88797  10.764  19.779  13.827
25041W        W88798  25.697  28.603  12.061
25042W        W88799   2.297   2.833   4.634
25043W        W88800  32.418  28.934   3.267
25044W        W88801  34.560  38.063  12.395
25045W        W88802   0.345  12.687   3.177
25046W        W88803  27.034  28.048  14.002
25047W        W88804  44.949  19.190  14.969
25048W        W88805  41.830   4.735  13.348
25049W        W88806  38.933  11.820  12.081
25050W        W88807  28.560  16.102  14.402
25051W        W88808  34.868  26.992  12.425
25052W        W88809  17.756  33.535  14.458
25053W        W88810  37.336  16.290   4.226
25054W        W88811  29.580  17.214   3.364
25055W        W88812  43.380  35.040   3.326
25056W        W88813  21.192   0.460   1.821
25057W        W88814  39.945  19.039   0.727
25058W        W88815   0.449  38.937   4.281
25059W        W88816   4.770  17.260   0.428
25060W        W88817   6.782   0.965  14.930
25061W        W88818  36.017  32.557  12.420
25062W        W88819   5.779  17.574   0.260
25063W        W88820   0.459  21.715  14.949
25064W        W88821  36.382  36.572  14.437
25065W        W88822   1.264  30.469   2.816
25066W        W88823   1.783   6.917   0.256
25067W        W88824  20.119  12.844   2.874
25068W        W88825  37.405  39.829  10.468
25069W        W88826   7.792   0.396  10.149
25070W        W88827  16.802  25.694   3.764
25071W        W88828  44.307  31.027  13.810
25072W        W88829  21.546   9.262   1.367
25073W        W88830  39.338  43.413   3.663
25074W        W88831   0.402  15.625  12.543
25075W        W88832  22.523  13.141   3.651
25076W        W88833  31.594  19.595  14.759
25077W        W88834   5.915  43.348  13.893
25078W        W88835  43.829  36.560  10.499
25079W        W88836  18.136  11.640   3.195
25080W        W88837  29.561  22.107  11.928
25081W        W88838  29.976  35.912   2.259
25082W        W88839  44.479  15.206  13.536
25083W        W88840   1.860   5.310   2.800
25084W        W88841   3.253  15.610  11.407
25085W        W88842   0.316  27.676   1.763
25086W        W88843  29.056  40.391   3.843
25087W        W88844  11.805  11.260   3.364
25088W        W88845  35.005  30.096   1.836
25089W        W88846  35.479  13.161   3.227
25090W        W88847   7.172  32.431  13.528
25091W        W88848  37.873   5.845   4.740
25092W        W88849  26.531  28.015  12.997
25093W        W88850  43.905  43.955  14.935
25094W        W88851  11.168  41.966  11.464
25095W        W88852  37.080  44.846   1.904
25096W        W88853   5.254  24.220  12.990
25097W        W88854  43.947  22.231  11.522
25098W        W88855  40.936  29.557  12.924
25099W        W88856  33.545  41.827   0.932
25100W        W88857  27.508  34.997   1.711
25101W        W88858  13.626  40.905   4.307
25102W        W88859  10.845  21.515   1.218
25103W        W88860  33.018   3.943   1.751
25104W        W88861  16.678  20.117   3.766
25105W        W88862  11.863   6.355  13.350
25106W        W88863  40.456  36.047   1.373
25107W        W88864  33.527  42.459   2.768
25108W        W88865  39.519  11.751  14.976
25109W        W88866   0.867  42.521  10.444
25110W        W88867   7.759   6.849  13.889
25111W        W88868  20.631  17.225  11.566
25112W        W88869  27.045   4.385  10.583
25113W        W88870  11.735   9.758  13.043
25114W        W88871  12.660  19.639   1.423
25115W        W88872  15.265  28.175   3.380
25116W        W88873  43.963  27.585  13.061
25117W        W88874  36.959   4.875   0.337
25118W        W88875   0.904  22.089   1.394
25119W        W88876   2.747  12.156  10.955
25120W        W88877  36.056  18.092   2.902
25121W        W88878  12.301  10.850  13.325
25122W        W88879   8.679  37.022  12.874
25123W        W88880  34.407  14.817   2.821
25124W        W88881  20.176  30.432  13.944
25125W        W88882  35.986  27.068   0.302
25126W        W88883   6.235  42.008   4.286
25127W        W88884  38.021  41.299  14.326
25128W        W88885  27.481  37.943  14.788
25129W        W88886  15.649  14.706  12.474
25130W        W88887   5.412  39.053  12.351
25131W        W88888  29.540  36.494  10.574
25132W        W88889  21.145  15.207  14.973
25133W        W88890  12.163  22.744   2.286
25134W        W88891   8.796  10.788   1.212
25135W        W88892  12.653  23.511   3.316
25136W        W88893  33.995  30.633   4.244
25137W        W88894  10.157  34.572  13.383
25138W        W88895  23.156  34.007  13.808
25139W        W88896   5.914  35.568   1.831
25140W        W88897  37.048  33.929   3.279
25141W        W88898  24.086  30.451   4.257
25142W        W88899  36.898  37.888  13.952
25143W        W88900  13.213  33.020  11.874
25144W        W88901  27.504  26.126  11.477
25145W        W88902   0.462  37.548   4.295
25146W        W88903  32.956  36.900   1.806
25147W        W88904  36.048  17.225   0.858
25148W        W88905  18.281  12.793   9.669
25149W        W88906  26.952  35.544  13.969
25150W        W88907  23.661  25.007  14.786
25151W        W88908  23.166   1.877  11.416
25152W        W88909  26.639   8.679  13.048
25153W        W88910  30.439  10.788   2.389
25154W        W88911  18.119  21.604   3.740
25155W        W88912  27.031  44.265   4.664
25156W        W88913  24.527  22.176  14.817
25157W        W88914  31.958   7.752  11.072
25158W        W88915  23.519  27.022   2.414
25159W        W88916  40.435  26.595  11.051
25160W        W88917  11.353  26.164  11.982
25161W        W88918   9.722  25.211  11.125
25162W        W88919  43.505  23.036  12.983
25163W        W88920  22.184   9.324  10.907
25164W        W88921   9.872  26.187   0.249
25165W        W88922   4.871  43.893  10.994
25166W        W88923  27.541  33.959   2.676
25167W        W88924   4.708  24.191   2.896
25168W        W88925  35.566  14.147  13.930
25169W        W88926  30.017   1.273  13.932
25170W        W88927  27.620   8.305  13.866
25171W        W88928  19.108  40.454  12.939
25172W        W88929  32.465  26.187  13.411
25173W        W88930   3.753  13.154  13.496
25174W        W88931  12.196  16.220  13.360
25175W        W88932  24.563  21.030  13.919
25176W        W88933  21.722   0.306  12.848
25177W        W88934  44.466  14.293   0.786
25178W        W88935  32.519  38.463  13.989
25179W        W88936  13.634   3.754   3.832
25180W        W88937  20.769   5.760  10.413
25181W        W88938  36.590  16.160  11.392
25182W        W88939  26.629  38.487  14.828
25183W        W88940  26.562   4.249  10.411
25184W        W88941   3.919  32.908  11.097
25185W        W88942  24.179  22.522   1.449
25186W        W88943  10.840  10.221  14.907
25187W        W88944  36.588  27.583   1.779
25188W        W88945  37.400  36.980   1.754
25189W        W88946  25.093  39.021   2.716
25190W        W88947  10.384  39.907  10.066
25191W        W88948  37.538  36.081  12.094
25192W        W88949  41.516  42.432   1.748
25193W        W88950  19.065   8.813   4.281
25194W        W88951  43.973  20.204   1.766
25195W        W88952   8.799  23.666  14.449
25196W        W88953  14.755  15.697   0.255
25197W        W88954  42.798  27.471   1.854
25198W        W88955  33.532  29.497  10.461
25199W        W88956   2.419  32.006   4.770
25200W        W88957  23.132   5.923   3.262
25201W        W88958  28.498   4.792   0.413
25202W        W88959  10.235  26.648  10.521
25203W        W88960  40.519  22.141   0.835
25204W        W88961   6.921  26.087  13.856
25205W        W88962  27.097   7.223   5.140
25206W        W88963  34.029  42.949  13.487
25207W        W88964   1.318  22.731  11.586
25208W        W88965  38.374  30.526  10.549
25209W        W88966  28.181   3.450  11.872
25210W        W88967   6.332   6.277  14.362
25211W        W88968  40.885  28.499   2.802
25212W        W88969  17.189  19.285   3.185
25213W        W88970   0.886   7.707   0.920
25214W        W88971  39.820   6.382   0.740
25215W        W88972  34.986  32.111  11.921
25216W        W88973   9.259  29.167   4.723
25217W        W88974  37.418  23.219  14.002
25218W        W88975  41.387  37.947   0.268
25219W        W88976  36.426   7.815   0.267
25220W        W88977  44.333  36.408   1.440
25221W        W88978  26.036  24.976   4.293
25222W        W88979  35.372  27.186   1.213
25223W        W88980  35.529   2.314  11.392
25224W        W88981  19.041  36.360   3.735
25225W        W88982  41.984   4.234   4.187
25226W        W88983  22.087  25.678  12.924
25227W        W88984   3.393   7.197   4.226
25228W        W88985  44.430   0.782   2.680
25229W        W88986  19.677  16.786   3.735
25230W        W88987  23.069  32.484   5.122
25231W        W88988  34.385  10.717   4.838
25232W        W88989  32.573  26.480   2.312
25233W        W88990  17.164   6.733   3.755
25234W        W88991   2.433  23.658  13.995
25235W        W88992  16.577  13.803   1.401
25236W        W88993  32.931  37.900  13.308
25237W        W88994  21.079  10.816  12.018
25238W        W88995  34.416   4.214   0.911
25239W        W88996  14.794  23.057  11.095
25240W        W88997   4.900  35.601  14.301
25241W        W88998  43.875   6.264   4.656
25242W        W88999  20.687  28.479  14.860
25243W        W89000  30.980   5.773   1.226
25244W        W89001   2.823  37.338  14.801
25245W        W89002   5.400  22.626   0.255
25246W        W89003  31.971  24.011  11.598
25247W        W89004  34.926  33.448   1.295
25248W        W89005  18.626  39.517  13.823
25249W        W89006  43.955  13.613   3.753
25250W        W89007   2.282  14.246  11.585
25251W        W89008  19.732   0.961  13.528
25252W        W89009  13.677  18.766  10.449
25253W        W89010  18.168  31.596  14.831
25254W        W89011  24.020  19.699   4.139
25255W        W89012  13.786   6.680  13.960
25256W        W89013   6.306  38.481   0.260
25257W        W89014  19.086   3.355  10.490
25258W        W89015  11.707   6.326  14.804
25259W        W89016   4.426  13.767   4.190
25260W        W89017  44.474   9.716  12.850
25261W        W89018   8.882  19.760   3.818
25262W        W89019  22.208  25.668   1.727
25263W        W89020  18.135  44.343   0.460
25264W        W89021  41.305  15.116  12.578
25265W        W89022  33.019  20.215   3.288
25266W        W89023  41.887   6.346   0.857
25267W        W89024  31.003   6.409   3.669
25268W        W89025  18.228   3.364   1.417
25269W        W89026   0.489  29.065  14.901
25270W        W89027  38.453  19.771  11.433
25271W        W89028  38.925  23.516  12.073
25272W        W89029  27.034  37.008   3.341
25273W        W89030  13.119  16.214  10.954
25274W        W89031  31.921  13.842   2.776
25275W        W89032  32.071  19.128  11.071
25276W        W89033   1.737  36.911  14.927
25277W        W89034  10.240  10.782   3.868
25278W        W89035  15.823  36.429   2.386
25279W        W89036   8.398  17.679  10.044
25280W        W89037  14.189  11.643   0.769
25281W        W89038   5.281   6.369   0.295
25282W        W89039  31.937  15.281  14.917
25283W        W89040  18.606  11.625  10.548
25284W        W89041   5.719   1.899   2.222
25285W        W89042  44.372   6.711  14.916
25286W        W89043  26.005  24.172  14.357
25287W        W89044   4.880  43.461   4.289
25288W        W89045   4.207   4.753   1.886
25289W        W89046   5.721  10.155  11.534
25290W        W89047  43.790  28.454  12.943
25291W        W89048   5.729  24.144   2.206
25292W        W89049  29.497  31.944   5.257
25293W        W89050   4.381  40.520  10.621
25294W        W89051  29.539  43.479  12.557
25295W        W89052  22.228  33.907   0.774
25296W        W89053  34.894  37.424   2.198
25297W        W89054  35.858  38.930   4.230
25298W        W89055  11.723  44.783   0.734
25299W        W89056  34.548  21.027  10.080
25300W        W89057  28.083  19.594  13.496
25301W        W89058  25.995   7.898  12.949
25302W        W89059  33.043  28.149  14.502
25303W        W89060  31.571  16.662   0.898
25304W        W89061  18.655  21.757  12.970
25305W        W89062   8.278  21.559   3.804
25306W        W89063   4.894  32.991   2.826
25307W        W89064  35.104   1.838   4.341
25308W        W89065  42.309  16.169   1.721
25309W        W89066  33.394   1.766   0.768
25310W        W89067  31.515  15.297   2.246
25311W        W89068  13.653  17.288   1.240
25312W        W89069  42.792  20.158  13.320
25313W        W89070  26.595  25.078   1.234
25314W        W89071  35.486  27.568   4.121
25315W        W89072  34.870  19.671   3.633
25316W        W89073  42.366  19.612   2.762
25317W        W89074  31.582  18.760   1.443
25318W        W89075   4.902  30.091   1.782
25319W        W89076  32.035  39.421   4.171
25320W        W89077  16.591  41.003   3.765
25321W        W89078  17.070  19.573   2.864
25322W        W89079  26.023  22.515   2.785
25323W        W89080  40.888   7.390  14.969
25324W        W89081  42.338  21.666   1.304
25325W        W89082   9.223  14.592   0.768
25326W        W89083  43.853  29.986  10.529
25327W        W89084  44.921  41.033  14.328
25328W        W89085   4.792   4.709   1.308
25329W        W89086  33.518  29.060   3.775
25330W        W89087  22.605  31.015  11.998
25331W        W89088  33.620  12.291  14.946
25332W        W89089   9.765  41.936   0.417
25333W        W89090   1.933  33.421  12.038
25334W        W89091  40.406  39.440   2.271
25335W        W89092   5.432  16.634   2.821
25336W        W89093  44.463  27.634   4.273
25337W        W89094  28.631  19.248   3.865
25338W        W89095  10.294  28.442   2.895
25339W        W89096  20.184  17.271  14.356
25340W        W89097  17.255  36.513  11.470
25341W        W89098  21.149  32.098  14.435
25342W        W89099  14.131  14.233  12.910
25343W        W89100  39.317   2.751   0.286
25344W        W89101  24.616   8.783  12.045
25345W        W89102  21.749  10.240  14.956
25346W        W89103  17.615   8.388   4.697
25347W        W89104  35.081  24.055  13.478
25348W        W89105  30.073  22.223   0.265
25349W        W89106  19.634  23.060   4.815
25350W        W89107   2.964  42.394  11.469
25351W        W89108   7.745  27.191   1.446
25352W        W89109   4.698  39.477   4.626
25353W        W89110  20.555  13.606  11.570
25354W        W89111  18.613  32.609  12.013
25355W        W89112   1.854  33.935   0.816
25356W        W89113   2.792  20.102   1.351
25357W        W89114  42.286  30.080   3.702
25358W        W89115  11.785  29.599  11.554
25359W        W89116  26.103  29.068  12.428
25360W        W89117  32.891  23.147   2.730
25361W        W89118  21.602  18.643  11.543
25362W        W89119   7.746  13.767   2.254
25363W        W89120  41.842  32.539  13.350
25364W        W89121  38.914  24.679  12.434
25365W        W89122  44.010  35.459  14.010
25366W        W89123  37.540  38.554  14.322
25367W        W89124  26.135  28.043  12.036
25368W        W89125  35.914   0.855  10.949
25369W        W89126  10.289  25.026  14.869
25370W        W89127  18.247  44.850  14.330
25371W        W89128  14.133   8.801  14.321
25372W        W89129  35.474  19.248   3.656
25373W        W89130  35.418   9.188  13.060
25374W        W89131  25.110   2.776   3.175
25375W        W89132  41.528   5.253   1.262
25376W        W89133  40.972   7.184  11.926
25377W        W89134  28.963  18.698  10.107
25378W        W89135  35.968   2.448  11.550
25379W        W89136  42.807  23.538  13.373
25380W        W89137  38.027  20.703   1.712
25381W        W89138  22.625  32.962   1.223
25382W        W89139   3.823   7.189  14.378
25383W        W89140  16.233  44.301  11.438
25384W        W89141  29.438  11.373   1.449
25385W        W89142   8.231  17.773  13.848
25386W        W89143  32.136  34.894   0.802
25387W        W89144  26.000  40.442  12.840
25388W        W89145  20.659  42.510   4.805
25389W        W89146  29.105  20.076   0.370
25390W        W89147  16.655  38.539  13.529
25391W        W89148  43.379  22.996   0.470
25392W        W89149   5.734  13.774   4.158
25393W        W89150  19.215   1.459  13.989
25394W        W89151  15.786  22.640   0.351
25395W        W89152   0.879  19.259  10.417
25396W        W89153  35.105   2.859  10.931
25397W        W89154   2.367   3.294  14.878
25398W        W89155  21.662  26.471  12.839
25399W        W89156  35.872  36.096  11.391
25400W        W89157  21.719  32.633  12.470
25401W        W89158  22.574  28.446  11.001
25402W        W89159   3.890  44.338  14.352
25403W        W89160   4.269  19.285   2.679
25404W        W89161  12.176  36.368  13.530
25405W        W89162  41.977  33.119   1.349
25406W        W89163   1.319   8.397   2.894
25407W        W89164  35.427  36.521   1.702
25408W        W89165  37.429   7.287   1.222
25409W        W89166  41.292  38.475   3.745
25410W        W89167   9.750   2.249   4.129
25411W        W89168   7.274  31.604  11.004
25412W        W89169   8.258   4.932  13.393
25413W        W89170  16.163   5.201  11.945
25414W        W89171  30.940  30.927  14.293
25415W        W89172  21.256  28.162   2.716
25416W        W89173  17.695  43.819   0.355
25417W        W89174  27.146  16.617   4.308
25418W        W89175  44.502  19.066   2.842
25419W        W89176  20.250  33.054  13.372
25420W        W89177  31.440   4.798  14.877
25421W        W89178  42.517  33.033  10.568
25422W        W89179  18.649  33.050   0.431
25423W        W89180  34.384  16.260  13.850
25424W        W89181  18.606  40.484   1.843
25425W        W89182  29.562  10.268  13.805
25426W        W89183   0.426  37.372   4.824
25427W        W89184  11.228  43.001  14.294
25428W        W89185  26.204   5.238  14.457
25429W        W89186   4.292  19.715  14.880
25430W        W89187  37.967  11.731  11.938
25431W        W89188   9.768  36.870  12.045
25432W        W89189  10.793  44.783  12.861
25433W        W89190  34.407  37.559  13.401
25434W        W89191  38.420  42.347   1.800
25435W        W89192  18.601   2.953   0.834
25436W        W89193  18.610  27.964  13.921
25437W        W89194  37.579   0.857  11.608
25438W        W89195  34.062  33.949  11.397
25439W        W89196  21.043  33.579  14.406
25440W        W89197  29.991   6.250  13.878
25441W        W89198  44.759  15.663  14.860
25442W        W89199  31.921  14.324  13.312
25443W        W89200  13.157  21.741   4.744
25444W        W89201   3.734  42.914   0.963
25445W        W89202  23.517  31.902  13.431
25446W        W89203   9.783  35.901   3.721
25447W        W89204  39.065  11.310   2.238
25448W        W89205   9.322   1.360  12.904
25449W        W89206  31.950  29.133   2.228
25450W        W89207  44.803   5.723  11.605
25451W        W89208  25.549  35.019   3.366
25452W        W89209  36.935   0.873  12.829
25453W        W89210   0.773  42.425   0.865
25454W        W89211  22.103  39.421   3.704
25455W        W89212   9.749   7.866  10.460
25456W        W89213  20.264   4.443  12.015
25457W        W89214   2.387  18.783  12.826
25458W        W89215  33.427  30.062   1.892
25459W        W89216  14.208  43.787   2.757
25460W        W89217  23.596  23.112  11.082
25461W        W89218  14.227  22.588   0.431
25462W        W89219  31.436   5.812   3.233
25463W        W89220   7.904  26.191   0.391
25464W        W89221  16.741  24.608   3.694
25465W        W89222   4.809   9.171  12.350
25466W        W89223   9.258  36.411   4.290
25467W        W89224   1.322  19.266   1.401
25468W        W89225  26.640  19.585  12.464
25469W        W89226  16.642  28.040   1.396
25470W        W89227  39.008   9.220  10.080
25471W        W89228   5.429   8.886  14.819
25472W        W89229  11.182  18.097   1.410
25473W        W89230   6.816  24.720  14.354
25474W        W89231  30.559  26.531  13.830
25475W        W89232   7.250  33.577  12.365
25476W        W89233  31.563  42.012  13.515
25477W        W89234  31.944  16.257   2.296
25478W        W89235  13.310   4.942  12.079
25479W        W89236  16.663  30.621  10.924
25480W        W89237  43.343   6.862   4.775
25481W        W89238  28.613   2.266   0.367
25482W        W89239   4.216  34.478   0.750
25483W        W89240  27.541  20.210  14.897
25484W        W89241  16.594  43.842   3.149
25485W        W89242  21.646   6.326   1.825
25486W        W89243  33.968  18.223   1.286
25487W        W89244   8.202  27.023   4.823
25488W        W89245  15.815   8.734   4.199
25489W        W89246   9.760  25.149  12.866
25490W        W89247  16.297   0.299  14.277
25491W        W89248  34.890  13.753   1.917
25492W        W89249  41.896   2.892  12.533
25493W        W89250  34.058  43.918   2.267
25494W        W89251   9.842  34.931  12.539
25495W        W89252  12.845  33.556   3.664
25496W        W89253  25.713  38.948  12.378
25497W        W89254  37.581  39.520   1.310
25498W        W89255  16.158  24.126  14.944
25499W        W89256   2.415  21.161  13.861
25500W        W89257  20.753  22.666   0.311
25501W        W89258  25.590  12.323  12.348
25502W        W89259  40.890  39.899  11.123
25503W        W89260  26.195  31.477   3.648
25504W        W89261  35.568  14.590  11.576
25505W        W89262  18.197   3.776  11.531
25506W        W89263  28.437  23.625  14.924
25507W        W89264  37.357  16.703   1.781
25508W        W89265  30.621  24.715  10.473
25509W        W89266  27.173  10.171  10.452
25510W        W89267  24.719  23.601  12.423
25511W        W89268   1.291   0.855  12.918
25512W        W89269  17.775  31.974   4.219
25513W        W89270  23.191   7.174   4.619
25514W        W89271  17.215  31.431   4.287
25515W        W89272  24.992   9.733  11.888
25516W        W89273  44.922  22.724  11.521
25517W        W89274   4.881  39.486  10.575
25518W        W89275   7.403  18.662  11.596
25519W        W89276  28.597  10.141   2.772
25520W        W89277  24.666  35.985   3.737
25521W        W89278  40.489  24.693  14.291
25522W        W89279  16.223  40.461   2.341
25523W        W89280  29.626  42.952   0.295
25524W        W89281  21.019  32.528  11.499
25525W        W89282  36.427  21.109  13.387
25526W        W89283  15.770  42.325  14.797
25527W        W89284  42.404  26.059   4.807
25528W        W89285   0.873  25.062   4.236
25529W        W89286   5.241  39.931   4.274
25530W        W89287  16.254  18.210   3.326
25531W        W89288   1.397   3.940  11.501
25532W        W89289   7.757  20.638  12.348
25533W        W89290  17.260  27.505  14.438
25534W        W89291  29.485  17.296   0.803
25535W        W89292  31.130   3.763   1.451
25536W        W89293  43.289  41.862   2.272
25537W        W89294  37.459   3.872  13.497
25538W        W89295  29.097   4.256   1.264
25539W        W89296  25.694  43.322  14.294
25540W        W89297   7.790  12.834   2.251
25541W        W89298   0.862  15.673   4.221
25542W        W89299   0.342  32.096   0.454
25543W        W89300  31.532  33.886   1.801
25544W        W89301  21.059  19.716   2.747
25545W        W89302  23.535  26.462  14.320
25546W        W89303  29.652  37.071   2.336
25547W        W89304  18.282   9.871  12.519
25548W        W89305  13.235  23.585  11.970
25549W        W89306  13.701  35.403   2.418
25550W        W89307  37.513   4.320  12.491
25551W        W89308   2.786   8.824   4.619
25552W        W89309  16.798  14.771   0.749
25553W        W89310  29.633   8.774   5.301
25554W        W89311  27.471  28.594  11.111
25555W        W89312  10.838  10.254  14.302
25556W        W89313   2.472  30.530   5.113
25557W        W89314  44.816  34.608   1.846
25558W        W89315  36.505  28.492  12.964
25559W        W89316  43.315  44.332  12.025
25560W        W89317  22.110  11.133  13.400
25561W        W89318  30.149  20.603   1.301
25562W        W89319  14.631  43.837   0.368
25563W        W89320  37.022   8.387  10.960
25564W        W89321  14.186  31.475  14.435
25565W        W89322  40.927  22.017  14.314
25566W        W89323   9.340  10.339  11.527
25567W        W89324   7.299  26.975   0.350
25568W        W89325  41.472  20.631   1.276
25569W        W89326  12.739  40.868   2.833
25570W        W89327  12.193  23.596   0.257
25571W        W89328   1.399  29.140   2.833
25572W        W89329   0.345  27.623   3.774
25573W        W89330  18.604  17.796  14.803
25574W        W89331  40.502  31.413   2.412
25575W        W89332  12.292  17.766   1.405
25576W        W89333   6.358   8.289   1.323
25577W        W89334   8.897  40.341  11.555
25578W        W89335   8.236  12.146  12.931
25579W        W89336  16.628   2.303  14.512
25580W        W89337  37.499  40.825  14.412
25581W        W89338  40.987   7.838   3.745
25582W        W89339   8.847  29.508   1.358
25583W        W89340  40.949  24.166  12.023
25584W        W89341  41.986  15.679  13.515
25585W        W89342   6.857   0.838   0.756
25586W        W89343  41.009   7.400   0.304
25587W        W89344  11.195  43.789  13.985
25588W        W89345  30.605  41.398   3.820
25589W        W89346  35.583  23.715   2.316
25590W        W89347  37.356  25.200  12.096
25591W        W89348  42.497  38.538  13.012
25592W        W89349  28.576  44.915   1.279
25593W        W89350  37.531  23.507  11.035
25594W        W89351  26.983  44.471  12.065
25595W        W89352  30.655  14.100   0.731
25596W        W89353   4.349  22.072   0.322
25597W        W89354  37.579   9.671   0.861
25598W        W89355   0.353   8.195   2.774
25599W        W89356  24.047  21.171  13.527
25600W        W89357  20.152  41.347  12.009
25601W        W89358   4.300  24.531   0.310
25602W        W89359  11.257  16.222   4.210
25603W        W89360   4.305  40.984   0.851
25604W        W89361  33.095  39.034  13.504
25605W        W89362  28.186  40.916  13.499
25606W        W89363  20.695  22.998   4.349
25607W        W89364  40.831  22.616   4.171
25608W        W89365   0.934  27.954   4.812
25609W        W89366  37.984  11.135  14.835
25610W        W89367  20.737   5.397   1.696
25611W        W89368  39.335  18.706  13.441
25612W        W89369   1.971  29.022   3.666
25613W        W89370  29.087  39.395   4.158
25614W        W89371   8.284  17.733   3.241
25615W        W89372  27.455   1.967   2.320
25616W        W89373  39.029   0.875  12.071
25617W        W89374  42.969  37.425  11.095
25618W        W89375  25.507  25.491  12.953
25619W        W89376   3.374  10.858   4.294
25620W        W89377  33.432  41.890   4.651
25621W        W89378  41.327  21.607  14.856
25622W        W89379  32.079  12.707  12.438
25623W        W89380  23.664  33.943  14.831
25624W        W89381  42.913  32.565   3.798
25625W        W89382   4.405   8.778   3.356
25626W        W89383  23.059  37.061   2.851
25627W        W89384  36.090  22.129  13.522
25628W        W89385  34.926   0.926   0.957
25629W        W89386  18.094  43.280   0.308
25630W        W89387  19.130  32.595   3.818
25631W        W89388  31.987  38.384  12.954
25632W        W89389  40.442  25.688   4.838
25633W        W89390  17.274   1.844   1.899
25634W        W89391  23.228  10.719  10.543
25635W        W89392  39.997  44.858  13.801
25636W        W89393  20.581  40.340   1.274
25637W        W89394  44.324  30.462  13.542
25638W        W89395  28.994  39.896  14.505
25639W        W89396   5.291  30.991   1.750
25640W        W89397  32.898   8.398  13.064
25641W        W89398   9.796   1.978  14.940
25642W        W89399  30.000  36.371   1.932
25643W        W89400   8.333  12.856   2.408
25644W        W89401  22.598  13.606  10.105
25645W        W89402  24.082  35.457   0.778
25646W        W89403  10.637  37.982  13.901
25647W        W89404  25.123  38.819  10.582
25648W        W89405  15.114  39.374  13.887
25649W        W89406  17.680  21.721  12.838
25650W        W89407  23.640  13.148  13.857
25651W        W89408  37.048  32.071   4.680
25652W        W89409  28.587  23.194  14.808
25653W        W89410  14.710  23.633   4.819
25654W        W89411  38.449  30.640   0.910
25655W        W89412   7.179  25.052  11.492
25656W        W89413  22.242  27.690   3.661
25657W        W89414  43.942  39.429   0.313
25658W        W89415  39.034   2.401   1.294
25659W        W89416  37.382   0.300  13.515
25660W        W89417  38.435  13.777  13.392
25661W        W89418   6.408  43.383   3.153
25662W        W89419  28.630  40.843  13.866
25663W        W89420  21.699  22.037  14.364
25664W        W89421  12.737   8.237   1.932
25665W        W89422  40.002  28.632   3.670
25666W        W89423  35.059  18.618  13.428
25667W        W89424  18.562  16.609  10.906
25668W        W89425  35.561  33.384   2.826
25669W        W89426  31.047  15.779   2.178
25670W        W89427   6.778  34.096   0.877
25671W        W89428  44.316  24.080  10.049
25672W        W89429  39.359  34.488   0.393
25673W        W89430  42.490  17.561  12.830
25674W        W89431  23.538  23.164   4.621
25675W        W89432  24.538   1.454   4.123
25676W        W89433   7.218  14.658   5.700
25677W        W89434  37.931   0.839   4.598
25678W        W89435  20.183  28.056   1.236
25679W        W89436  33.607  25.703  14.331
25680W        W89437  36.546  30.162  12.417
25681W        W89438  38.426  37.008   0.926
25682W        W89439   9.224  22.709  10.544
25683W        W89440  36.365  14.765   1.722
25684W        W89441  28.578  27.018  12.897
25685W        W89442  14.611  15.288  12.456
25686W        W89443  31.626   0.268   0.873
25687W        W89444  20.237  29.968  12.896
25688W        W89445  39.438  30.052  14.926
25689W        W89446  10.182  32.459   2.299
25690W        W89447  37.336   9.817  11.446
25691W        W89448  43.946  17.682  14.283
25692W        W89449  11.162  30.608  14.389
25693W        W89450  33.011  36.384  10.601
25694W        W89451  13.629  44.963   0.804
25695W        W89452  32.544   2.401  14.495
25696W        W89453  37.962  42.930  11.968
25697W        W89454   9.368  31.540   0.351
25698W        W89455  37.418  16.721  10.976
25699W        W89456  32.002  26.476  11.964
25700W        W89457   0.318  34.968  11.533
25701W        W89458  24.634  21.708  11.404
25702W        W89459   5.888   1.763  14.448
25703W        W89460  33.985  25.489   4.643
25704W        W89461   1.731   4.908   3.211
25705W        W89462  42.408  26.078   3.796
25706W        W89463  40.977  15.259   0.324
25707W        W89464   7.773  16.597  14.016
25708W        W89465  10.766  20.221  13.946
25709W        W89466  29.456  30.056   3.856
25710W        W89467   2.929   5.295  10.583
25711W        W89468   2.427   4.336   4.697
25712W        W89469  32.893   4.702   0.317
25713W        W89470  34.939  34.868   4.288
25714W        W89471  38.941  14.770   4.690
25715W        W89472  44.398  41.421   4.800
25716W        W89473  41.346   3.753   5.616
25717W        W89474  23.595   6.760   4.187
25718W        W89475   1.408  39.498  14.785
25719W        W89476  39.828   3.292  11.384
25720W        W89477  11.321  18.260  14.833
25721W        W89478  26.157  27.534  11.494
25722W        W89479  37.878  38.347   0.916
25723W        W89480  22.248  42.454  10.555
25724W        W89481  26.144  20.047  10.905
25725W        W89482  16.647   7.890   0.921
25726W        W89483  35.561  35.548  11.893
25727W        W89484  28.989  22.726   1.316
25728W        W89485   9.218   3.317   1.919
25729W        W89486   9.169  34.606  11.401
25730W        W89487  22.158  22.744  11.463
25731W        W89488  40.326   2.966   0.812
25732W        W89489  30.094  18.070   2.822
25733W        W89490  15.134  14.789  12.929
25734W        W89491  41.893  24.163   4.608
25735W        W89492  38.378  33.571  13.921
25736W        W89493  42.871  42.373  14.853
25737W        W89494   3.436  19.762  11.523
25738W        W89495  30.083  27.967   4.292
25739W        W89496  18.245  26.056  11.480
25740W        W89497   9.279   9.159   1.368
25741W        W89498   3.392   2.921  11.479
25742W        W89499  41.298   3.312   5.803
25743W        W89500  18.563  14.290  14.960
25744W        W89501  18.153  30.947   3.241
25745W        W89502  25.983  17.765   9.534
25746W        W89503   2.283  32.026   2.219
25747W        W89504  22.710  16.572  11.036
25748W        W89505  13.320  14.203  11.033
25749W        W89506  15.774  14.823  14.006
25750W        W89507  12.307   0.757  10.940
25751W        W89508  30.072  27.978  11.467
25752W        W89509  16.200  29.554   0.334
25753W        W89510  42.419  40.894  10.904
25754W        W89511  28.081   7.893  11.473
25755W        W89512   6.194  33.990  12.923
25756W        W89513  37.950   2.872   0.305
25757W        W89514   6.412  20.056  10.515
25758W        W89515   6.231   5.259  10.006
25759W        W89516  34.865   1.781  13.868
25760W        W89517  30.477  44.793  13.484
25761W        W89518  24.195  19.271  12.480
25762W        W89519   3.224  41.351   3.246
25763W        W89520   7.307  30.140  12.989
25764W        W89521  34.115  37.063  14.409
25765W        W89522   6.216   7.307  13.899
25766W        W89523   6.887  38.428   1.382
25767W        W89524  26.976  20.230  14.997
25768W        W89525  10.359   2.824   2.845
25769W        W89526  10.874  15.785  13.976
25770W        W89527  40.535   6.866   0.917
25771W        W89528  26.084  11.667  12.011
25772W        W89529  13.150  41.417   5.286
25773W        W89530  19.158  25.635   4.193
25774W        W89531  29.542   3.808   3.240
25775W        W89532   8.170  13.635   3.250
25776W        W89533  15.286   6.754  10.968
25777W        W89534   6.396  31.441  13.055
25778W        W89535  12.808  37.867  14.783
25779W        W89536  18.257  10.690   3.842
25780W        W89537  18.735   4.919   3.869
25781W        W89538  14.618   6.810  12.437
25782W        W89539  32.123  16.677  14.862
25783W        W89540  15.595   3.456  14.783
25784W        W89541  31.559  19.751   1.837
25785W        W89542  26.673  41.038  14.455
25786W        W89543  30.469  22.667  11.970
25787W        W89544  11.699  14.157   3.834
25788W        W89545   3.438  29.592  11.104
25789W        W89546   1.735  18.201   3.281
25790W        W89547  41.504  17.773   3.811
25791W        W89548  41.902   2.422  14.968
25792W        W89549  34.930  34.967   3.251
25793W        W89550  40.548  17.707   0.375
25794W        W89551  29.522  26.052   2.865
25795W        W89552  17.559   5.752   3.213
25796W        W89553  44.339  34.374   0.843
25797W        W89554  41.012   4.885   1.867
25798W        W89555  36.888  20.634  10.530
25799W        W89556  38.569  31.542  13.524
25800W        W89557  36.422  22.250   1.882
25801W        W89558  43.864   8.670  12.011
25802W        W89559  40.021   1.259  10.438
25803W        W89560  23.992  44.272   1.244
25804W        W89561   8.283  25.108   1.214
25805W        W89562  31.986  34.057  14.964
25806W        W89563  24.081  38.350  11.502
25807W        W89564   1.278  36.050   1.832
25808W        W89565  40.369  20.205   1.342
25809W        W89566  27.196  27.557  13.356
25810W        W89567   2.873  22.026   0.248
25811W        W89568  26.022  14.834   1.349
25812W        W89569  21.562  40.515   4.720
25813W        W89570  35.448  10.305   1.772
25814W        W89571  19.050   4.805   3.366
25815W        W89572  30.583  41.368  14.884
25816W        W89573  14.721  11.719  12.922
25817W        W89574  42.465  22.507   1.875
25818W        W89575  36.071   0.487   0.380
25819W        W89576  34.084  21.132   3.865
25820W        W89577  19.122   7.755   1.251
25821W        W89578  37.900  24.019   2.807
25822W        W89579   3.274  24.512  11.388
25823W        W89580   0.832  31.051   0.884
25824W        W89581  44.874  37.951  13.311
25825W        W89582   5.851  22.103  10.623
25826W        W89583  29.458  18.149   0.412
25827W        W89584  23.679   3.287  14.514
25828W        W89585  27.663  31.455  11.856
25829W        W89586   2.304   4.405  14.030
25830W        W89587  22.066  12.198  11.586
25831W        W89588  34.371   0.869   3.639
25832W        W89589   0.471   5.234  12.027
25833W        W89590  28.530  38.340  11.432
25834W        W89591  39.825  25.713   1.910
25835W        W89592  27.139  36.525   3.254
25836W        W89593   7.911   3.241  14.012
25837W        W89594   6.704  36.074   3.722
25838W        W89595  43.855  13.134   2.246
25839W        W89596  36.925  32.102   2.790
25840W        W89597   9.176  31.509   4.832
25841W        W89598  23.019  19.230  12.040
25842W        W89599  38.434   4.802   5.201
25843W        W89600  21.623  14.715   2.821
25844W        W89601  39.327  17.607  11.515
25845W        W89602  13.303  36.499  14.760
25846W        W89603  39.358  29.965   1.702
25847W        W89604  17.304  38.489  10.615
25848W        W89605   1.855  29.090   2.892
25849W        W89606  38.550   9.244  13.991
25850W        W89607  29.175   6.712  11.018
25851W        W89608   6.726   7.888   3.178
25852W        W89609   7.225  42.904   2.409
25853W        W89610  40.405   2.931  11.608
25854W        W89611   5.769  36.010  14.792
25855W        W89612  23.199  15.160  12.367
25856W        W89613  31.938   6.260  12.956
25857W        W89614  26.186   9.276   4.230
25858W        W89615  31.043  42.474  13.883
25859W        W89616   4.831  20.048   0.763
25860W        W89617  33.926  10.276   4.262
25861W        W89618  36.528   4.345   0.262
25862W        W89619  30.505  35.555   1.435
25863W        W89620  12.620  16.735   2.381
25864W        W89621  30.057  41.824  12.343
25865W        W89622  21.169  36.020  11.469
25866W        W89623  32.129  42.799   2.894
25867W        W89624   3.459   7.397   2.409
25868W        W89625  37.925   7.348   3.713
25869W        W89626   8.700  37.892  11.857
25870W        W89627  41.021  29.637  11.584
25871W        W89628   4.757  43.408   0.923
25872W        W89629  11.212  44.416  11.037
25873W        W89630   7.396  12.730   0.836
25874W        W89631  20.271  41.936  10.600
25875W        W89632  13.651  36.408   1.734
25876W        W89633  18.081  25.529  14.446
25877W        W89634  26.676  19.594   1.926
25878W        W89635  18.282  13.180   0.900
25879W        W89636  43.324  20.765  14.789
25880W        W89637  24.119   6.893   0.846
25881W        W89638  19.048  43.953   4.240
25882W        W89639  12.754   1.432   1.866
25883W        W89640  22.024  26.132  14.839
25884W        W89641  40.915  27.098  10.639
25885W        W89642  24.557  14.290  13.994
25886W        W89643  31.926  22.090   4.295
25887W        W89644  26.011  37.565  12.942
25888W        W89645  19.137  32.562  10.580
25889W        W89646   8.298  12.823   0.312
25890W        W89647  39.349  20.037   0.264
25891W        W89648  41.884  25.985   3.214
25892W        W89649  43.442   2.327  14.326
25893W        W89650  40.411  40.036  12.508
25894W        W89651  41.863   6.756   3.249
25895W        W89652  18.149  18.734  10.628
25896W        W89653  10.711  28.546  14.929
25897W        W89654   2.866   0.410  10.639
25898W        W89655   5.756  17.624  13.005
25899W        W89656   4.233   0.837  13.336
25900W        W89657   1.855  22.714  12.364
25901W        W89658  37.854  38.908  14.763
25902W        W89659  20.101  17.777   3.688
25903W        W89660   7.891   0.310  13.919
25904W        W89661  44.308   1.448  11.545
25905W        W89662   4.237   7.219   1.891
25906W        W89663   2.421  25.064  13.941
25907W        W89664   9.159  19.646  10.153
25908W        W89665   2.286   8.207   3.342
25909W        W89666  12.158  34.588  13.491
25910W        W89667  38.543  19.216   1.766
25911W        W89668  22.599  36.894  12.422
25912W        W89669  26.128   5.349   4.704
25913W        W89670   8.833  27.666   4.733
25914W        W89671   2.932   6.772  11.953
25915W        W89672  44.262  44.978   3.369
25916W        W89673  37.842   2.448  12.032
25917W        W89674   6.732  28.520   1.272
25918W        W89675  31.566  39.352  10.973
25919W        W89676  11.182  12.361  12.525
25920W        W89677  23.014  21.167   2.858
25921W        W89678  39.332  39.006  10.598
25922W        W89679   6.375  27.050   1.802
25923W        W89680  11.312  38.881   0.823
25924W        W89681  14.765  41.445  11.470
25925W        W89682  19.196  42.816  10.952
25926W        W89683  25.051   3.284   3.318
25927W        W89684  11.195  27.446   4.711
25928W        W89685  14.136  14.339   4.180
25929W        W89686  22.617   1.350   0.385
25930W        W89687   4.915  14.272  12.458
25931W        W89688  29.003   3.938  10.592
25932W        W89689  21.535  43.297  12.504
25933W        W89690   9.839   1.868   2.235
25934W        W89691   4.773   1.752   4.597
25935W        W89692  14.774  40.356  13.492
25936W        W89693  25.028   5.375   4.241
25937W        W89694  37.437  41.943  14.275
25938W        W89695   9.354  18.059  13.511
25939W        W89696  35.412  35.877   4.152
25940W        W89697  22.635   6.341   4.150
25941W        W89698   6.815  35.984   1.407
25942W        W89699  14.746  16.082  14.973
25943W        W89700  10.201  16.691  12.491
25944W        W89701  43.473   1.872  13.471
25945W        W89702  35.012  41.976   0.959
25946W        W89703  41.919  28.436   0.792
25947W        W89704  42.513   4.342  14.403
25948W        W89705  14.194  41.411  12.414
25949W        W89706  32.948  27.986   0.403
25950W        W89707  35.374  40.346   2.321
25951W        W89708  35.463  39.544  14.943
25952W        W89709  37.427  35.867   0.249
25953W        W89710  20.183  17.569  14.293
25954W        W89711  38.360  44.799   0.733
25955W        W89712  24.979   1.848  10.918
25956W        W89713  42.014  24.625  12.937
25957W        W89714  39.931  36.574  11.924
25958W        W89715  13.308  41.473   0.291
25959W        W89716  11.128  24.639   4.233
25960W        W89717  33.519  11.641  13.383
25961W        W89718  10.252  38.433   4.742
25962W        W89719  35.086  28.599   4.801
25963W        W89720   0.326  32.481  11.486
25964W        W89721  34.613  15.720   4.311
25965W        W89722  32.039  31.616   3.380
25966W        W89723  37.017   1.385  11.855
25967W        W89724  28.089  35.879   4.838
25968W        W89725  40.926  12.135  11.072
25969W        W89726  21.656  29.094  13.963
25970W        W89727  23.029  35.551   0.774
25971W        W89728  28.537  32.005  11.600
25972W        W89729   6.751   0.427   4.296
25973W        W89730  36.021  16.219  12.339
25974W        W89731  42.359  10.833   4.671
25975W        W89732   7.317  20.523  10.939
25976W        W89733  19.622  22.716  12.860
25977W        W89734  41.808   8.257   4.751
25978W        W89735  12.295  14.794  10.607
25979W        W89736  42.479  19.203  11.381
25980W        W89737  18.120  28.169   0.877
25981W        W89738  14.239  31.946   0.939
25982W        W89739   3.872  12.857   2.813
25983W        W89740  29.010  22.023   3.842
25984W        W89741  12.173  35.080   4.352
25985W        W89742  39.411  12.361   1.696
25986W        W89743  19.722  14.756  10.927
25987W        W89744  14.655  37.409   4.176
25988W        W89745   5.343  32.499   0.377
25989W        W89746  20.696  12.223  13.924
25990W        W89747  36.843  18.071  12.950
25991W        W89748   4.412  13.238  13.905
25992W        W89749  16.264  20.264   3.333
25993W        W89750  10.637  38.415   1.419
25994W        W89751  38.975  11.341   0.732
25995W        W89752  34.519  10.877  12.459
25996W        W89753  39.465  44.798  13.826
25997W        W89754  42.021  41.958  13.447
25998W        W89755  28.475   1.810  11.083
25999W        W89756   3.935   4.893   1.355
26000W        W89757  16.164  13.251   4.685
26001W        W89758  21.614  38.427  13.353
26002W        W89759  11.180  17.062   3.289
26003W        W89760  16.168  10.379   3.232
26004W        W89761  12.772   1.966  12.459
26005W        W89762  43.343  15.246   1.296
26006W        W89763  28.535   8.250  13.977
26007W        W89764  37.051   9.859   0.881
26008W        W89765  26.582  32.948   3.361
26009W        W89766  35.968  21.064   4.809
26010W        W89767   4.720   0.837   3.191
26011W        W89768  25.684  44.823  14.912
26012W        W89769  28.649  26.611   5.106
26013W        W89770  24.509  28.944  10.509
26014W        W89771  33.047  15.122   1.921
26015W        W89772  15.708  13.819  12.549
26016W        W89773  23.098  13.699  11.596
26017W        W89774  16.686  26.206   0.949
26018W        W89775  21.067   7.207  14.280
26019W        W89776  31.570  28.449   1.846
26020W        W89777   0.868  17.706   4.824
26021W        W89778  36.996  20.631   3.187
26022W        W89779  27.548  24.549   4.657
26023W        W89780  13.694  33.081   0.319
26024W        W89781  42.487  24.678   1.898
26025W        W89782  23.236  36.394   3.726
26026W        W89783   3.280   8.892   3.806
26027W        W89784   0.448  29.967  14.365
26028W        W89785  35.411  10.641   2.688
26029W        W89786  26.035   7.858   2.335
26030W        W89787  38.491  39.370   3.719
26031W        W89788  35.578   2.278   2.326
26032W        W89789  36.437   8.897   0.351
26033W        W89790   1.277   4.786  10.447
26034W        W89791   9.159  25.685   1.894
26035W        W89792  38.527  42.908  12.898
26036W        W89793  28.555  36.003   4.210
26037W        W89794  39.816  19.559  11.072
26038W        W89795  28.440   1.363   1.812
26039W        W89796  16.317   2.238  13.388
26040W        W89797  17.246   8.787   3.160
26041W        W89798   6.764  18.175  12.896
26042W        W89799   1.886  24.622  11.556
26043W        W89800  19.117  42.869   3.174
26044W        W89801  20.523  44.821   1.709
26045W        W89802  21.119  12.248  14.350
26046W        W89803  19.623  15.734   2.408
26047W        W89804  35.092  31.518   3.191
26048W        W89805  28.150   0.285   2.183
26049W        W89806  14.648  36.574   3.231
26050W        W89807  19.049  25.619   0.348
26051W        W89808  31.988  32.476  11.586
26052W        W89809  28.991  31.441  11.983
26053W        W89810  23.729  14.316  12.360
26054W        W89811  28.967   0.902  14.805
26055W        W89812  38.979  32.414   2.744
26056W        W89813  34.537  20.067  13.313
26057W        W89814  21.031   1.891  13.544
26058W        W89815  19.138  37.079   3.163
26059W        W89816  10.701   8.302  10.931
26060W        W89817   0.292  22.209  13.533
26061W        W89818  27.981  10.812  11.017
26062W        W89819  20.214  23.515   2.352
26063W        W89820   0.983  10.308  10.158
26064W        W89821  10.277  25.052  10.148
26065W        W89822  17.224  34.376  11.972
26066W        W89823  15.582  27.587  12.403
26067W        W89824   6.719  30.488   0.783
26068W        W89825  10.362  42.422   1.887
26069W        W89826   6.740  11.739  13.393
26070W        W89827  31.527  13.199   4.692
26071W        W89828  16.615   6.323  13.393
26072W        W89829  21.203   7.219   0.921
26073W        W89830  33.408  15.641  10.129
26074W        W89831   4.764  42.501  10.425
26075W        W89832  37.382   2.264   4.128
26076W        W89833   2.354  31.494   3.667
26077W        W89834   6.822  25.479  11.118
26078W        W89835  24.612   6.691  14.397
26079W        W89836   1.357  14.802   2.372
26080W        W89837  20.757  28.450   1.366
26081W        W89838  42.833  23.595  11.498
26082W        W89839   9.324  40.981   3.254
26083W        W89840   1.313  22.579  13.405
26084W        W89841  44.270  14.133   2.355
26085W        W89842  32.085  32.936   3.200
26086W        W89843  39.929  37.408  12.358
26087W        W89844  19.553  34.438  13.496
26088W        W89845  21.717  34.022   2.280
26089W        W89846   0.818  27.140   4.663
26090W        W89847  16.306   3.897  13.850
26091W        W89848  41.888  26.595  10.127
26092W        W89849  30.432  26.665  11.572
26093W        W89850  43.988  12.269  14.442
26094W        W89851  13.678  37.480  13.792
26095W        W89852  25.220  29.608  10.473
26096W        W89853  11.259   3.452  14.353
26097W        W89854  43.331  32.070  10.990
26098W        W89855   9.770   4.715  12.993
26099W        W89856   9.773  23.624  11.043
26100W        W89857  18.720  42.504   4.137
26101W        W89858   7.713  24.195   2.735
26102W        W89859   4.850  25.711   0.388
26103W        W89860  23.592  32.396   2.321
26104W        W89861  34.491  24.679   3.230
26105W        W89862  44.888   1.352  10.628
26106W        W89863   0.974   6.887   0.352
26107W        W89864  32.091   4.361  13.530
26108W        W89865   4.250   8.723  10.895
26109W        W89866   2.861  14.788  12.345
26110W        W89867  36.862  42.965  10.555
26111W        W89868  16.639  41.538  13.499
26112W        W89869  30.459  19.240   4.171
26113W        W89870  39.423  35.537  12.410
26114W        W89871   4.232  43.003   2.758
26115W        W89872   8.661  41.895   4.760
26116W        W89873  35.006  41.439  12.347
26117W        W89874  32.900   8.873  10.630
26118W        W89875   2.264   9.295  12.941
26119W        W89876  35.858  35.057   1.234
26120W        W89877  41.891   7.909   4.269
26121W        W89878  29.449  38.992   4.816
26122W        W89879  36.426  34.042   3.351
26123W        W89880  35.413  42.820   2.310
26124W        W89881  23.006   4.884  11.597
26125W        W89882   2.859  39.352  11.455
26126W        W89883  23.683   4.893  12.563
26127W        W89884  39.460   7.682  14.854
26128W        W89885  17.252  18.682   0.325
26129W        W89886  36.030  20.732   0.809
26130W        W89887  13.777  26.510  12.970
26131W        W89888  41.992  25.085  11.477
26132W        W89889   8.252  13.349  13.443
26133W        W89890  31.125  31.905  10.909
26134W        W89891  19.681   9.741  13.930
26135W        W89892  42.493  44.801  10.584
26136W        W89893  28.571  43.930   3.756
26137W        W89894  26.637  41.357  11.018
26138W        W89895  44.468  23.612   0.367
26139W        W89896  22.741  22.056   0.401
26140W        W89897  23.120   9.729  11.484
26141W        W89898  42.290  14.220  11.407
26142W        W89899  39.934  26.650   2.902
26143W        W89900  36.593  10.787   1.214
26144W        W89901  28.036  24.144   1.361
26145W        W89902  40.799  22.195  12.024
26146W        W89903  32.454  34.509   3.369
26147W        W89904  35.055  10.706  10.929
26148W        W89905  34.970  25.483  14.459
26149W        W89906  26.991  21.037   3.858
26150W        W89907  16.599  37.405   2.812
26151W        W89908  12.315  39.353  12.024
26152W        W89909  10.181  34.899  14.972
26153W        W89910  26.566  33.535   4.797
26154W        W89911  37.531   2.789  14.866
26155W        W89912  18.059  26.586  14.788
26156W        W89913  10.643  29.032   1.387
26157W        W89914  29.124   1.959  14.785
26158W        W89915  32.041  24.074  14.330
26159W        W89916  41.964   3.381  14.395
26160W        W89917   4.308  24.537   2.857
26161W        W89918  10.323  19.761   1.287
26162W        W89919  36.506  37.450  11.564
26163W        W89920  31.401  37.834   3.343
26164W        W89921   1.835  38.054  12.077
26165W        W89922   7.823   0.389   2.405
26166W        W89923  29.112  14.171   4.324
26167W        W89924   7.742  31.124  12.952
26168W        W89925  14.246   4.814   2.787
26169W        W89926  36.514  11.782   1.297
26170W        W89927   8.253  35.855  14.348
26171W        W89928   7.278  20.677   4.179
26172W        W89929   1.945   8.228   3.636
26173W        W89930   2.762  14.609   4.679
26174W        W89931  24.623  16.308  13.047
26175W        W89932  24.145  17.725  12.074
26176W        W89933  37.576  36.981  13.025
26177W        W89934   1.777  44.971   2.866
26178W        W89935   9.259  27.148  11.524
26179W        W89936  10.667  32.396  14.455
26180W        W89937  39.548  42.479   4.749
26181W        W89938  18.240  24.509   0.790
26182W        W89939  25.199  42.887  11.511
26183W        W89940   9.204  24.004   2.179
26184W        W89941   1.802   4.902   3.808
26185W        W89942  15.592  20.610  13.994
26186W        W89943  13.690  16.275  11.486
26187W        W89944   2.255  23.213   4.771
26188W        W89945  36.378  16.774   4.221
26189W        W89946  43.331  20.540   4.622
26190W        W89947   2.297   3.329  12.416
26191W        W89948   8.739  30.052   2.373
26192W        W89949  26.100  17.792  13.817
26193W        W89950  41.862  13.351  12.031
26194W        W89951  13.277  35.096   1.437
26195W        W89952   8.875   3.811   1.429
26196W        W89953  18.570  16.314  12.445
26197W        W89954  23.702  35.094   4.668
26198W        W89955  44.299  41.536   2.699
26199W        W89956  19.677  38.340  10.478
26200W        W89957  21.553  12.182  12.531
26201W        W89958  30.971  30.519   0.476
26202W        W89959   0.749  13.804  12.381
26203W        W89960  29.613  27.991  14.913
26204W        W89961  35.108   8.658  14.009
26205W        W89962  36.950   4.699   1.321
26206W        W89963  19.658  32.528   0.909
26207W        W89964  18.266  28.930  14.490
26208W        W89965  29.034  13.190  12.929
26209W        W89966   0.966  13.735   4.349
26210W        W89967   3.720  34.087   2.389
26211W        W89968   7.338  13.121  14.366
26212W        W89969  31.079  33.898  12.340
26213W        W89970  16.770  43.862   0.885
26214W        W89971   6.828   3.284  11.433
26215W        W89972  18.705  38.963   1.253
26216W        W89973  15.110   2.230  13.407
26217W        W89974   2.938  14.328   4.197
26218W        W89975  39.043  25.576  14.327
26219W        W89976  42.914  11.712   5.136
26220W        W89977   5.338  21.582  13.524
26221W        W89978   1.873  38.915   3.638
26222W        W89979  36.443  11.723  10.484
26223W        W89980  32.587  37.878  10.911
26224W        W89981  41.446  25.597  12.857
26225W        W89982   4.809  26.080  14.020
26226W        W89983  33.590  30.501   2.810
26227W        W89984  21.119  30.525   4.257
26228W        W89985  22.714   6.831  11.038
26229W        W89986  37.077   7.817   3.380
26230W        W89987  19.140  43.353   2.201
26231W        W89988  11.271   9.842   0.747
26232W        W89989  30.069  30.130   4.641
26233W        W89990  24.508  44.919  13.809
26234W        W89991  34.990  36.433   4.727
26235W        W89992   5.780  39.055   0.250
26236W        W89993  11.194  40.822   2.416
26237W        W89994  42.373  30.976   3.845
26238W        W89995   7.211  28.137  12.564
26239W        W89996   5.429  30.048   2.800
26240W        W89997  22.552  41.515  14.482
26241W        W89998  36.990  14.304   1.224
26242W        W89999  29.468  44.459   1.879
26243W        W90000  40.974  25.514  12.857
26244W        W90001  34.456  11.841  11.052
26245W        W90002   9.670  25.472  13.057
26246W        W90003  23.523  28.578  14.436
26247W        W90004  42.359  38.352   2.267
26248W        W90005  12.850  39.328  11.041
26249W        W90006  39.491  18.197   1.357
26250W        W90007  39.327  15.655  11.100
26251W        W90008  22.685   7.858  13.427
26252W        W90009  18.687  41.335   0.919
26253W        W90010   1.343  16.669  13.446
26254W        W90011  19.630  41.399   1.238
26255W        W90012  25.184   5.813  12.022
26256W        W90013   3.419  20.622  11.026
26257W        W90014  39.050   9.286  11.460
26258W        W90015  44.340  44.374  14.505
26259W        W90016  40.528  26.553  13.385
26260W        W90017  17.757   7.354  11.500
26261W        W90018  33.426  37.562   2.681
26262W        W90019  14.791  37.901  13.369
26263W        W90020  39.884  27.557  11.526
26264W        W90021  13.606   3.327   1.326
26265W        W90022  42.398  22.667  13.867
26266W        W90023  41.913  36.984   3.175
26267W        W90024  25.603   6.844  12.463
26268W        W90025  28.595  28.613  11.569
26269W        W90026  18.606  14.622   1.759
26270W        W90027  10.858   8.355  12.407
26271W        W90028   9.328  12.742   3.292
26272W        W90029   8.213  31.538  12.973
26273W        W90030  41.522  42.888  12.040
26274W        W90031   9.799  34.103  12.851
26275W        W90032  24.707  24.141  10.949
26276W        W90033  17.289   7.873   1.448
26277W        W90034  31.576  22.093  11.055
26278W        W90035  44.803  24.195   0.462
26279W        W90036  14.220  37.002   1.442
26280W        W90037  33.944  12.720   1.449
26281W        W90038  28.646  22.248  13.929
26282W        W90039  18.198   6.913   4.718
26283W        W90040  10.796  30.926  14.442
26284W        W90041  27.685   5.791  13.952
26285W        W90042  38.460  15.316  12.915
26286W        W90043   7.303   9.769  11.561
26287W        W90044  31.470   2.321  14.879
26288W        W90045  33.619  26.670  12.908
26289W        W90046   7.741  40.383  10.430
26290W        W90047  24.706  17.774  14.945
26291W        W90048  26.515  36.004   0.420
26292W        W90049  39.856  26.051   0.329
26293W        W90050   5.243   8.173   3.844
26294W        W90051  30.046  13.108  11.537
26295W        W90052  27.037  16.746  10.578
26296W        W90053   7.865   9.314  14.766
26297W        W90054  14.165   4.880   1.769
26298W        W90055  27.120  17.788   3.161
26299W        W90056  12.203  25.166   4.319
26300W        W90057   2.256   5.399   4.154
26301W        W90058  25.073  35.541  11.010
26302W        W90059  20.219  18.224   1.807
26303W        W90060  25.690   1.431  14.014
26304W        W90061  43.501   2.254   3.871
26305W        W90062  20.682  35.902   0.847
26306W        W90063   7.836  15.086  14.988
26307W        W90064  43.494  24.014  14.796
26308W        W90065  37.921  21.165  10.974
26309W        W90066  11.648  31.094   4.163
26310W        W90067  13.666   0.427   0.887
26311W        W90068  15.617  42.935   4.781
26312W        W90069  44.795  44.854  12.074
26313W        W90070  10.709  29.978  12.524
26314W        W90071   1.288  27.191   0.932
26315W        W90072  21.117  21.019  12.928
26316W        W90073  35.063  27.632   3.858
26317W        W90074  27.667  11.185  13.388
26318W        W90075   0.814  25.977   2.860
26319W        W90076   9.263  41.419  14.850
26320W        W90077  21.079  15.712   3.646
26321W        W90078  35.511   8.722   2.262
26322W        W90079  14.656  12.184  14.436
26323W        W90080  39.000  13.209   3.193
26324W        W90081  18.684  38.991   3.642
26325W        W90082  19.269  26.026   1.327
26326W        W90083   5.717  29.662  11.062
26327W        W90084  13.698  37.034  11.548
26328W        W90085  15.738  36.870  10.973
26329W        W90086  32.548  32.061  13.872
26330W        W90087  18.588  27.654   3.279
26331W        W90088  31.911   6.855  13.342
26332W        W90089  15.711  28.122   5.273
26333W        W90090  27.497  42.892   4.301
26334W        W90091  42.472  36.498  13.038
26335W        W90092  39.966  18.749  13.458
26336W        W90093   4.819   1.446   4.717
26337W        W90094  42.901  41.910  13.898
26338W        W90095  41.992  44.893  12.511
26339W        W90096  23.155  28.479   4.710
26340W        W90097  14.743  44.259  12.374
26341W        W90098  28.159  43.334  13.348
26342W        W90099  39.408  14.703   4.224
26343W        W90100  21.054  42.515  14.030
26344W        W90101  40.460  17.110  14.843
26345W        W90102  21.046  42.967   2.727
26346W        W90103   5.725  15.604  13.506
26347W        W90104  38.881  17.701  10.469
26348W        W90105   4.856  10.271  11.012
26349W        W90106   3.948  19.049  11.533
26350W        W90107  18.089  15.246  13.489
26351W        W90108  41.325  23.216  11.512
26352W        W90109  32.487  17.225   0.437
26353W        W90110  32.415  10.712  14.312
26354W        W90111  29.516  34.447   3.741
26355W        W90112  11.318  13.301   1.446
26356W        W90113   4.401   3.785   0.353
26357W        W90114  30.466  44.008   2.307
26358W        W90115  29.476   0.819   2.859
26359W        W90116  19.596  18.677   0.294
26360W        W90117  41.042  10.198   1.345
26361W        W90118   9.342  16.230   3.809
26362W        W90119  22.103  38.011   2.418
26363W        W90120  39.318   0.946  11.408
26364W        W90121  41.341  31.941   1.724
26365W        W90122  40.801   4.334  10.013
26366W        W90123  29.478  44.847  12.840
26367W        W90124  14.135  19.229  11.923
26368W        W90125  16.810  43.475  10.139
26369W        W90126  12.790  40.018   0.268
26370W        W90127   7.378  20.557   2.341
26371W        W90128  30.509  18.674  13.348
26372W        W90129  36.391   1.482  14.791
26373W        W90130  19.540  10.796   3.297
26374W        W90131   6.909  37.980  14.450
26375W        W90132  17.141   6.854   2.669
26376W        W90133  25.075   5.329  14.362
26377W        W90134  39.850  40.033   1.320
26378W        W90135   3.805  42.801   0.437
26379W        W90136  29.431  22.612  14.815
26380W        W90137  14.766  28.510  12.492
26381W        W90138  14.815  39.062  13.439
26382W        W90139  38.063  21.600   2.706
26383W        W90140  15.711   6.351   1.855
26384W        W90141  28.172   5.767   3.256
26385W        W90142  43.775  34.577  10.432
26386W        W90143  21.257  21.539  14.939
26387W        W90144  10.211  42.948   4.625
26388W        W90145  29.946   3.314   5.607
26389W        W90146   2.816  11.811   4.232
26390W        W90147  39.522  21.096   4.821
26391W        W90148  37.504  25.577  11.503
26392W        W90149  24.500  30.445  14.877
26393W        W90150  14.625  33.919   3.768
26394W        W90151  36.474  37.429  14.487
26395W        W90152  24.042  38.452   4.724
26396W        W90153   7.409   9.289   0.916
26397W        W90154  42.844  14.244  10.436
26398W        W90155  41.871  39.899  11.598
26399W        W90156  19.285  37.486  12.422
26400W        W90157  18.648  19.042   4.619
26401W        W90158  36.524  19.060  13.951
26402W        W90159   7.904  26.199   0.914
26403W        W90160  30.472  35.467   2.691
26404W        W90161  42.979  26.517  10.129
26405W        W90162  14.281  24.132  14.784
26406W        W90163  18.252   9.220   3.774
26407W        W90164   3.307  15.316   0.766
26408W        W90165   0.403  37.879   1.380
26409W        W90166   1.756  11.140   4.116
26410W        W90167  15.808  38.851   4.253
26411W        W90168  18.685  39.521  14.893
26412W        W90169  23.112  15.665  11.052
26413W        W90170   6.774  36.555  11.059
26414W        W90171  23.147   3.395   1.893
26415W        W90172   6.744  31.975   2.842
26416W        W90173   4.376  36.356   4.697
26417W        W90174  24.109  12.786  14.966
26418W        W90175  15.154  31.501   1.429
26419W        W90176  26.510  28.498   3.833
26420W        W90177  21.207  23.615   2.824
26421W        W90178  27.451  18.162  14.424
26422W        W90179  40.965  41.363   4.215
26423W        W90180  12.315  34.942   4.788
26424W        W90181   6.688   0.414  10.605
26425W        W90182  10.277   5.435  13.523
26426W        W90183  14.221  32.628  14.486
26427W        W90184  34.471  40.402   3.220
26428W        W90185  19.570  33.414   1.384
26429W        W90186  21.742  35.942   4.780
26430W        W90187   3.398  20.702  12.384
26431W        W90188  30.654   9.257   1.881
26432W        W90189  30.646  16.112   2.384
26433W        W90190  19.645  13.302  10.086
26434W        W90191  40.041  23.619  13.960
26435W        W90192  32.531  42.286  12.429
26436W        W90193   1.423  33.453   2.800
26437W        W90194  14.328  42.836   9.982
26438W        W90195   0.916  11.794  10.643
26439W        W90196  22.664  32.110  14.408
26440W        W90197  34.476  31.583  12.856
26441W        W90198  12.227  23.042  13.341
26442W        W90199  43.846  32.477   4.213
26443W        W90200  20.113  18.608   2.901
26444W        W90201  16.231  40.958  10.631
26445W        W90202  28.491  19.776   1.434
26446W        W90203   4.282  17.686   2.671
26447W        W90204  19.249  16.161   2.234
26448W        W90205  26.035  36.359  13.481
26449W        W90206  17.703  33.109   4.608
26450W        W90207  10.715  29.548   2.709
26451W        W90208  35.444  37.891   3.718
26452W        W90209  36.842  24.625  12.370
26453W        W90210  26.097  12.346  14.851
26454W        W90211  16.249  14.831   1.331
26455W        W90212  34.533  30.004   0.363
26456W        W90213  40.535   9.289  13.823
26457W        W90214  34.370  16.154  13.462
26458W        W90215  28.158   0.872   5.248
26459W        W90216  32.115  38.923  14.311
26460W        W90217  24.722   0.867   2.361
26461W        W90218  33.961  12.848  11.068
26462W        W90219  27.119  39.332  10.483
26463W        W90220  41.808  43.499   3.774
26464W        W90221  32.594   4.808  14.831
26465W        W90222   4.396  43.883  12.946
26466W        W90223  36.959   2.242   1.723
26467W        W90224  28.947   0.884   2.394
26468W        W90225  18.191   7.881   4.327
26469W        W90226  13.695   2.315  13.824
26470W        W90227  35.570   4.930   3.329
26471W        W90228  30.622  29.511  13.846
26472W        W90229  31.565  29.460   4.301
26473W        W90230   6.297  34.497  11.979
26474W        W90231  11.695  32.098  12.484
26475W        W90232  30.072  11.340  11.520
26476W        W90233  16.575  40.975  12.471
26477W        W90234   0.867   8.878   4.781
26478W        W90235  40.435  41.874  13.813
26479W        W90236  34.521  29.172  13.959
26480W        W90237  18.083  12.310  14.470
26481W        W90238  36.358  21.246   3.721
26482W        W90239  11.720  21.210  10.503
26483W        W90240  26.651  28.554  12.864
26484W        W90241  19.040  39.397  11.978
26485W        W90242   7.371  41.985   9.972
26486W        W90243  35.895   9.648   1.896
26487W        W90244  41.009   0.969  14.020
26488W        W90245  15.320  11.784   1.243
26489W        W90246   8.326  16.181  11.604
26490W        W90247   2.925  18.200  12.385
26491W        W90248  14.806  33.004   2.763
26492W        W90249  35.982  12.238   1.840
26493W        W90250   5.296  36.350  12.084
26494W        W90251  23.187   2.271   1.286
26495W        W90252  21.610  35.397   2.402
26496W        W90253  18.190  25.060  12.453
26497W        W90254   6.387   0.933   2.345
26498W        W90255  32.894  12.246   2.403
26499W        W90256  10.837  19.725   1.864
26500W        W90257  14.804  21.123  10.408
26501W        W90258  39.403  28.030  12.029
26502W        W90259  14.616  27.557  10.968
26503W        W90260  16.792  36.464  10.523
26504W        W90261  34.864  43.771   1.273
26505W        W90262   4.250  28.472   3.831
26506W        W90263  26.493  42.476  11.571
26507W        W90264  40.847   8.350  12.400
26508W        W90265   8.727  42.410   2.836
26509W        W90266   9.342   2.759   2.861
26510W        W90267  43.888  31.906  10.494
26511W        W90268  17.098  10.359   3.265
26512W        W90269  41.430   2.422   4.634
26513W        W90270   6.678  43.784  10.013
26514W        W90271  28.178  30.018  10.406
26515W        W90272  17.660  44.305   2.263
26516W        W90273  30.613  43.320  12.007
26517W        W90274  32.020  19.753   0.385
26518W        W90275  40.048  24.626   2.338
26519W        W90276   4.295  29.436   2.688
26520W        W90277   9.643  14.255  11.953
26521W        W90278  41.486  25.475   4.637
26522W        W90279  27.635  11.708   3.865
26523W        W90280  22.060  43.358  13.017
26524W        W90281   9.793  19.687  14.884
26525W        W90282   0.898   4.387  14.930
26526W        W90283  30.508  30.101   2.766
26527W        W90284  38.363  11.824  14.345
26528W        W90285  12.763  34.915  12.024
26529W        W90286   3.402  31.488  13.951
26530W        W90287  29.439  40.313  10.404
26531W        W90288  15.126  43.287  10.038
26532W        W90289  37.576   6.746  11.893
26533W        W90290  33.426  16.263  11.899
26534W        W90291   5.350   5.731  12.472
26535W        W90292   3.240  41.958  14.502
26536W        W90293  40.320  29.590   3.310
26537W        W90294  29.462  10.246  11.905
26538W        W90295   8.892  25.122   1.716
26539W        W90296   0.807  34.419   0.754
26540W        W90297  42.843  30.590   3.864
26541W        W90298   6.761  44.876  12.072
26542W        W90299  20.640  13.773  14.465
26543W        W90300  24.120  38.471  14.286
26544W        W90301  37.400  33.062  13.467
26545W        W90302  16.306  37.021   4.232
26546W        W90303  32.621  40.434  11.540
26547W        W90304   7.899  31.422   2.889
26548W        W90305  33.589  29.978  12.545
26549W        W90306  39.007  43.391   2.304
26550W        W90307  33.584  44.348  13.797
26551W        W90308  42.005  25.549  14.929
26552W        W90309  42.470  10.796  11.127
26553W        W90310   3.764   8.240   2.851
26554W        W90311  11.798  16.283  10.449
26555W        W90312   6.834   6.212  13.922
26556W        W90313  12.230   8.688   3.326
26557W        W90314   9.819  37.565  10.491
26558W        W90315  15.085  32.907  12.967
26559W        W90316  27.499  19.272   0.370
26560W        W90317  18.148  34.485   3.815
26561W        W90318  12.768   1.307  11.922
26562W        W90319  39.037   4.245  14.790
26563W        W90320  41.918  19.086   4.724
26564W        W90321   1.351  18.749  12.884
26565W        W90322  40.979  29.520  10.892
26566W        W90323  43.413  21.202  13.795
26567W        W90324  26.640  40.362   4.267
26568W        W90325  19.134  28.059  12.072
26569W        W90326  43.431   1.328   2.364
26570W        W90327  25.024   8.763  11.581
26571W        W90328   6.313   2.291   4.219
26572W        W90329   9.272  12.631   2.780
26573W        W90330  33.572   5.213   4.147
26574W        W90331  44.435  34.114  11.909
26575W        W90332  30.627  25.493   0.277
26576W        W90333  25.217   3.298   1.316
26577W        W90334  26.102  19.577   0.415
26578W        W90335   5.369   4.900  14.296
26579W        W90336  15.094  10.807   2.207
26580W        W90337  13.109  35.597  14.827
26581W        W90338   8.285   4.885  10.980
26582W        W90339  34.390   1.791  12.397
26583W        W90340  38.855  26.464   9.943
26584W        W90341  13.120  12.837  13.958
26585W        W90342  44.478  39.445   1.814
26586W        W90343  19.716  32.939   0.464
26587W        W90344  42.866   5.857   1.768
26588W        W90345   7.329  23.520   0.242
26589W        W90346  39.472  15.701   2.320
26590W        W90347  34.456  25.696   1.844
26591W        W90348  25.018   7.911   3.271
26592W        W90349  36.512  40.805  11.105
26593W        W90350   2.390  29.576  12.438
26594W        W90351  35.527   2.260  13.041
26595W        W90352  28.663  33.958  14.461
26596W        W90353  13.648  11.644   3.226
26597W        W90354  28.498  40.499   0.363
26598W        W90355  22.556  44.898   1.234
26599W        W90356  39.835  42.882  11.982
26600W        W90357  29.513   2.448   2.359
26601W        W90358  27.685  16.620   3.353
26602W        W90359  26.632  32.394   0.730
26603W        W90360  17.084  32.001   1.859
26604W        W90361  15.088  11.277  11.065
26605W        W90362  20.661  18.149   3.147
26606W        W90363  13.144   7.255  12.971
26607W        W90364   4.267  39.541  10.547
26608W        W90365  32.470   7.383   4.771
26609W        W90366  39.386   4.762  10.571
26610W        W90367   4.752  19.742  10.034
26611W        W90368   7.893  30.497   2.341
26612W        W90369  41.863  43.956  13.334
26613W        W90370   1.740  27.120   2.777
26614W        W90371  15.582  32.973  11.564
26615W        W90372   3.863  12.323   1.436
26616W        W90373  40.446  28.656   2.373
26617W        W90374  10.320  17.739  11.589
26618W        W90375  30.911   9.293  14.465
26619W        W90376  21.120  38.465  10.425
26620W        W90377   2.418  28.069   3.316
26621W        W90378  17.281  37.464   0.891
26622W        W90379  16.248   3.935   1.341
26623W        W90380   3.770  24.126   3.826
26624W        W90381  33.398  20.094   3.851
26625W        W90382  16.286  15.699   2.417
26626W        W90383  23.070  27.574   0.921
26627W        W90384   1.274  32.081  13.909
26628W        W90385   0.486  19.062   3.209
26629W        W90386  33.068  39.464  10.486
26630W        W90387  40.994  10.359   1.759
26631W        W90388  35.599   3.302  11.090
26632W        W90389  33.117  27.111  13.402
26633W        W90390  44.814  25.025   4.171
26634W        W90391  23.667  30.132  12.437
26635W        W90392  16.109   5.264   3.826
26636W        W90393  18.644   4.772  12.975
26637W        W90394   8.793  42.406   3.771
26638W        W90395  35.436  32.546  14.990
26639W        W90396  25.052  19.690  11.538
26640W        W90397  37.568   4.714  11.510
26641W        W90398  17.795  22.102  14.433
26642W        W90399  16.741  32.987   3.290
26643W        W90400   4.785  35.524   4.644
26644W        W90401  12.268  32.400  13.815
26645W        W90402  39.522   4.295  12.022
26646W        W90403  35.069  21.215  11.001
26647W        W90404  40.800  25.034  14.415
26648W        W90405  16.104  39.379  14.952
26649W        W90406   6.393  33.112   4.621
26650W        W90407  31.420  18.138   1.812
26651W        W90408  31.596  19.085  11.107
26652W        W90409  39.897  43.967  12.838
26653W        W90410  25.514  31.543   4.620
26654W        W90411   9.841  16.668   1.716
26655W        W90412   6.237  32.093   0.899
26656W        W90413  30.415  38.837  10.889
26657W        W90414  36.492  32.505  13.534
26658W        W90415  23.577  12.613  12.577
26659W        W90416  14.169  11.732  12.074
26660W        W90417   1.421   2.812   4.641
26661W        W90418  13.790  43.908  11.429
26662W        W90419  16.303   6.350   4.748
26663W        W90420  27.037   0.780   0.863
26664W        W90421   0.396  35.389   0.435
26665W        W90422   1.894  36.055   2.800
26666W        W90423  41.936  42.437  10.572
26667W        W90424  26.508  16.667  12.540
26668W        W90425  24.563  27.677  11.116
26669W        W90426  19.757   9.653  11.421
26670W        W90427  17.749   0.268   9.614
26671W        W90428  22.735  11.822  12.983
26672W        W90429   4.698  44.830   3.866
26673W        W90430  16.160  11.201   4.317
26674W        W90431   2.421  22.667  14.774
26675W        W90432  40.315  12.646  12.930
26676W        W90433  24.487   1.461   3.320
26677W        W90434  19.608  38.051   2.706
26678W        W90435  13.333  34.917  12.848
26679W        W90436  20.676  44.994   4.212
26680W        W90437  34.529  10.680  12.843
26681W        W90438  19.054  17.110  11.977
26682W        W90439  10.195   8.837   3.258
26683W        W90440  31.432   3.388   0.748
26684W        W90441  16.676  28.539  11.016
26685W        W90442  37.088  29.534  12.889
26686W        W90443  25.007  31.140   1.253
26687W        W90444   8.193  14.152  12.390
26688W        W90445  19.082  39.485  12.341
26689W        W90446  30.485  22.147   4.775
26690W        W90447  22.186  23.056  14.823
26691W        W90448  38.032  39.481  14.409
26692W        W90449  38.888  27.589  10.512
26693W        W90450  38.453  20.271   4.748
26694W        W90451  30.426  26.025  12.551
26695W        W90452   1.365  43.284  11.969
26696W        W90453  20.195   7.676   3.296
26697W        W90454  34.894  19.124  13.347
26698W        W90455  17.131   8.679  14.838
26699W        W90456  17.650   8.887  13.939
26700W        W90457  21.519  28.000   4.327
26701W        W90458  24.576   3.229  13.022
26702W        W90459  12.348   2.309   4.598
26703W        W90460  18.592  41.474   2.211
26704W        W90461   7.726  27.448   3.673
26705W        W90462   4.837   2.765   4.740
26706W        W90463  15.278  40.993  10.438
26707W        W90464   2.282  14.260   0.942
26708W        W90465  15.119  27.046   2.873
26709W        W90466  19.594  13.700   0.475
26710W        W90467  38.531  18.755  11.387
26711W        W90468   3.736  33.529   1.424
26712W        W90469  24.162  32.051   0.782
26713W        W90470  21.679   2.784   2.763
26714W        W90471   9.887  44.899  13.026
26715W        W90472   4.317  34.943   3.814
26716W        W90473  12.708  44.295   3.371
26717W        W90474   6.733  14.619  13.033
26718W        W90475  30.434  44.790   0.829
26719W        W90476  10.852  44.463   9.949
26720W        W90477  36.437  41.396   3.355
26721W        W90478  43.898  20.171   0.836
26722W        W90479  36.389   8.368  14.488
26723W        W90480  27.942  18.089  11.030
26724W        W90481   9.800   8.785   4.734
26725W        W90482   5.196  19.240   0.388
26726W        W90483  36.882  32.496  14.467
26727W        W90484  12.321   0.367  14.896
26728W        W90485  38.877  17.631   1.745
26729W        W90486  35.367  42.485  14.774
26730W        W90487  29.108  12.230   2.795
26731W        W90488  23.114  22.718  12.970
26732W        W90489  21.625   4.267  14.819
26733W        W90490  30.037  14.782   2.684
26734W        W90491  42.365   7.849   3.307
26735W        W90492  14.649  27.500  14.972
26736W        W90493  23.518  33.460  14.801
26737W        W90494  23.195  17.786   1.242
26738W        W90495  13.344  21.199  14.943
26739W        W90496  34.004  17.661  11.010
26740W        W90497  43.946   5.263   2.867
26741W        W90498  21.101  14.742   0.303
26742W        W90499  28.503  37.933   2.850
26743W        W90500  16.696  12.748  11.386
26744W        W90501  44.482   8.284  12.466
26745W        W90502   0.390  26.992  11.522
26746W        W90503  43.796  39.888  11.415
26747W        W90504  17.093  12.216  14.867
26748W        W90505  39.505  20.620   1.429
26749W        W90506  22.563  11.713   0.309
26750W        W90507  43.798  23.062  12.430
26751W        W90508  44.913  28.499  14.765
26752W        W90509  22.090   3.754  14.465
26753W        W90510  10.348  35.450   2.890
26754W        W90511  28.518  23.494   4.734
26755W        W90512  24.212   1.952   4.647
26756W        W90513  14.760  39.905   2.381
26757W        W90514  39.051  30.111  13.457
26758W        W90515  19.648  18.256  13.517
26759W        W90516  34.868   5.203  10.000
26760W        W90517  39.518  33.437  14.364
26761W        W90518  27.479  36.015   2.821
26762W        W90519  39.488  34.517  12.824
26763W        W90520  41.017  43.988   0.944
26764W        W90521  32.533   4.388   3.319
26765W        W90522  13.228  28.179   2.663
26766W        W90523  24.629  13.162   0.481
26767W        W90524  11.373   0.794   4.666
26768W        W90525  33.932   8.183   2.762
26769W        W90526  36.384  21.680   1.914
26770W        W90527  27.008  15.641   0.952
26771W        W90528  36.914  11.364   2.291
26772W        W90529  31.024  25.985  13.944
26773W        W90530  18.284  40.005   4.766
26774W        W90531  18.557  13.250  13.994
26775W        W90532   4.442   9.674   1.761
26776W        W90533  37.074  11.850   4.623
26777W        W90534  18.759   0.790   2.723
26778W        W90535  28.114   7.724  12.880
26779W        W90536   7.681  14.141  13.900
26780W        W90537   8.719  13.348   0.921
26781W        W90538  38.463  27.554   0.441
26782W        W90539   4.229  36.070   1.856
26783W        W90540   6.836  38.358  14.297
26784W        W90541  14.334  13.171  12.880
26785W        W90542  15.710  20.171   5.156
26786W        W90543   1.401  33.949  14.388
26787W        W90544  25.967  44.842   3.784
26788W        W90545  11.854   5.793   3.857
26789W        W90546   9.174  16.100   0.404
26790W        W90547  32.623  40.832  10.472
26791W        W90548  14.222   2.913   4.232
26792W        W90549  16.570  22.618  14.324
26793W        W90550  32.612   3.807  11.921
26794W        W90551   3.861  36.389  10.915
26795W        W90552   4.845  13.145   4.695
26796W        W90553  15.243  36.059  13.860
26797W        W90554  38.450  15.586  12.923
26798W        W90555  23.238   8.234   0.292
26799W        W90556   3.830  14.612  11.536
26800W        W90557   4.757  34.870   2.789
26801W        W90558  19.759  25.695   3.191
26802W        W90559   1.832  41.443   4.801
26803W        W90560  19.116  42.007   4.323
26804W        W90561  29.429  21.699  13.389
26805W        W90562  10.336  10.277   4.759
26806W        W90563  34.576  39.050  11.516
26807W        W90564   3.299  13.656  10.533
26808W        W90565  21.614  12.739  14.360
26809W        W90566  28.575   5.885   2.780
26810W        W90567   8.814  32.106   4.648
26811W        W90568  40.481  40.397  11.590
26812W        W90569  15.586   9.187  14.282
26813W        W90570  22.110   3.821  11.546
26814W        W90571  30.107  29.961   2.186
26815W        W90572  23.508  37.474   3.339
26816W        W90573  28.557  16.768   4.671
26817W        W90574  32.581  21.027   4.305
26818W        W90575  35.868  23.575   2.667
26819W        W90576   9.184  24.170   1.279
26820W        W90577  36.851  26.131  10.574
26821W        W90578   7.809  27.655  11.963
26822W        W90579  42.854  25.190  11.996
26823W        W90580   5.258  29.531  12.356
26824W        W90581  41.421  35.369   3.249
26825W        W90582  24.985  35.060  13.395
26826W        W90583   4.423  36.981   1.720
26827W        W90584  13.724  34.982   0.288
26828W        W90585  26.660  34.027   1.892
26829W        W90586  44.756  10.242  11.533
26830W        W90587  13.269  21.145  10.060
26831W        W90588  11.774  25.546  11.125
26832W        W90589  44.799  13.119   3.365
26833W        W90590  30.586   6.734  10.600
26834W        W90591  24.501  37.986   4.210
26835W        W90592  28.636  23.607  13.422
26836W        W90593  36.464   2.324  12.010
26837W        W90594  20.621   2.966   3.342
26838W        W90595  41.507  27.028   3.250
26839W        W90596  42.340  29.063  14.912
26840W        W90597  39.003  26.982  10.437
26841W        W90598  41.795  33.623  11.929
26842W        W90599  41.910  10.752  11.394
26843W        W90600  28.654  39.548   0.742
26844W        W90601   0.252  29.641  13.918
26845W        W90602  31.940  41.395   3.281
26846W        W90603  21.223  40.833   3.653
26847W        W90604  17.762  23.148   1.697
26848W        W90605   9.218  22.132   4.712
26849W        W90606  40.484   8.875   4.826
26850W        W90607  44.905   6.216  13.005
26851W        W90608   3.302  13.736  14.321
26852W        W90609  33.078  38.447   4.685
26853W        W90610  40.438  10.816  12.068
26854W        W90611   6.796  24.005  14.467
26855W        W90612  37.506   6.720   1.324
26856W        W90613  12.713  29.975   1.857
26857W        W90614  39.001  37.918  13.446
26858W        W90615  21.079  17.603   4.238
26859W        W90616  34.529  21.111   2.739
26860W        W90617  12.818   7.417  10.416
26861W        W90618  12.746  26.462  12.074
26862W        W90619  33.485  21.128   0.738
26863W        W90620  37.571  12.776   0.805
26864W        W90621  44.940  28.512  13.826
26865W        W90622  44.329  26.206  13.333
26866W        W90623  33.088  34.574   4.826
26867W        W90624  19.712  12.168   5.130
26868W        W90625  36.487   1.448   4.794
26869W        W90626  36.953  28.028   4.828
26870W        W90627  16.706  32.005  14.801
26871W        W90628  25.024  22.569   9.968
26872W        W90629  21.641  18.691   0.854
26873W        W90630  43.910  21.539  12.960
26874W        W90631  27.559  28.932   4.135
26875W        W90632   7.889   2.396  10.897
26876W        W90633  14.310   9.319  12.068
26877W        W90634  35.434   7.847   3.654
26878W        W90635   2.912  25.193   4.198
26879W        W90636  29.098  26.207   0.385
26880W        W90637  36.080   9.328   2.868
26881W        W90638  23.604   7.357  12.953
26882W        W90639  40.828  22.122  13.435
26883W        W90640  11.733   3.879   3.665
26884W        W90641   2.967  31.119   2.385
26885W        W90642  38.835  25.158  12.016
26886W        W90643  24.656  12.234  13.341
26887W        W90644   8.232  18.227  11.539
26888W        W90645   7.795  12.718  10.900
26889W        W90646  32.991  22.695   4.807
26890W        W90647  28.156  27.560  13.460
26891W        W90648  13.616  38.986   3.308
26892W        W90649  15.233  43.842   2.346
26893W        W90650  44.956  39.349   4.767
26894W        W90651  11.785   7.836  10.964
26895W        W90652  10.285   7.345   2.258
26896W        W90653  42.431  20.713   1.807
26897W        W90654   8.672  22.252   2.338
26898W        W90655  24.531  37.862   1.698
26899W        W90656  13.619   9.150  11.124
26900W        W90657  29.470  41.531  12.434
26901W        W90658  29.965  17.704   2.665
26902W        W90659  34.486  34.519   1.729
26903W        W90660   2.921  25.002  13.856
26904W        W90661  27.505  34.605  11.000
26905W        W90662   9.726  18.173   0.914
26906W        W90663  39.844  40.533  10.925
26907W        W90664   4.292  18.234  10.502
26908W        W90665  41.858   6.427   2.735
26909W        W90666  36.942  14.790   2.741
26910W        W90667  23.231  23.662  11.465
26911W        W90668  38.031  31.104  13.993
26912W        W90669  17.587  39.496  12.371
26913W        W90670  42.812   2.847   4.762
26914W        W90671  14.161  39.336   3.767
26915W        W90672  24.997  44.373  11.031
26916W        W90673  11.859  11.724  14.400
26917W        W90674  11.373   3.372   4.116
26918W        W90675  39.435  43.375  12.015
26919W        W90676  29.057  11.370   1.758
26920W        W90677  28.539  23.141   2.199
26921W        W90678   9.652  37.484   0.391
26922W        W90679  42.934  31.934   3.320
26923W        W90680   8.881  35.500  10.508
26924W        W90681  17.713  40.417  13.882
26925W        W90682   9.886  18.579   1.881
26926W        W90683   7.381  10.258   0.788
26927W        W90684   8.829   5.781  13.334
26928W        W90685  44.952  17.688   0.770
26929W        W90686  20.161  36.843   1.761
26930W        W90687   5.224  32.934  12.484
26931W        W90688  13.697  15.696   0.383
26932W        W90689   1.291  17.723  11.942
26933W        W90690  30.425   1.330   3.822
26934W        W90691   2.797  27.664   3.867
26935W        W90692  10.313  27.976   0.769
26936W        W90693   7.852  10.331  10.550
26937W        W90694  44.880  36.938  13.347
26938W        W90695  32.597  13.840   3.219
26939W        W90696  26.151   6.744   0.880
26940W        W90697  10.353  40.377   0.738
26941W        W90698  11.684  43.455  14.872
26942W        W90699  13.657  38.349   4.216
26943W        W90700  22.174  11.251   1.336
26944W        W90701  35.046  29.004  13.319
26945W        W90702   5.216  40.856  12.528
26946W        W90703   4.229  30.589  13.052
26947W        W90704   4.402  26.653   2.662
26948W        W90705   8.388  17.599   2.292
26949W        W90706  25.473  35.944  11.948
26950W        W90707  43.462  36.476   0.433
26951W        W90708  14.237  29.520   0.426
26952W        W90709  19.237  34.545   2.403
26953W        W90710  21.527  32.450  13.915
26954W        W90711  44.909  20.663  13.431
26955W        W90712  19.575  37.550  10.999
26956W        W90713   5.211   0.906  12.037
26957W        W90714  40.378  15.623  14.447
26958W        W90715  30.571   8.894  11.985
26959W        W90716  26.990   7.728   0.422
26960W        W90717  37.561  16.656   3.150
26961W        W90718  28.626  30.052  13.060
26962W        W90719  17.301  20.679   2.785
26963W        W90720  31.588  37.996  13.974
26964W        W90721  36.580  13.805   4.138
26965W        W90722   8.205   2.920   0.349
26966W        W90723  12.760  11.761  12.825
26967W        W90724  41.490  32.637  12.976
26968W        W90725  23.669  25.020   2.307
26969W        W90726  25.575   1.343   4.264
26970W        W90727  43.288  30.075   4.749
26971W        W90728  29.518  14.109   3.318
26972W        W90729  16.593  13.166   2.298
26973W        W90730   4.772  14.717  11.882
26974W        W90731  25.631  11.734  14.359
26975W        W90732   8.671  29.633   5.159
26976W        W90733  11.308  43.967  12.869
26977W        W90734  20.620  19.186   2.327
26978W        W90735  21.637  30.630  11.579
26979W        W90736   3.845  39.995  14.788
26980W        W90737  26.008   9.373   3.750
26981W        W90738  27.953  22.009   3.259
26982W        W90739  18.778  35.411   3.152
26983W        W90740  33.964  38.862  10.428
26984W        W90741   0.370  19.179   1.219
26985W        W90742  26.483  25.183  11.952
26986W        W90743  40.868  39.935   0.293
26987W        W90744   4.864  32.923  14.855
26988W        W90745   5.223  29.967  10.981
26989W        W90746  32.986  24.673  14.383
26990W        W90747   9.356  28.169  11.534
26991W        W90748  24.710  29.521  13.372
26992W        W90749  15.739   1.370  14.793
26993W        W90750   1.342  42.843  13.951
26994W        W90751  23.022  15.715   2.333
26995W        W90752   4.789  23.711  12.080
26996W        W90753  39.374  31.951   0.381
26997W        W90754  37.964  41.928  13.002
26998W        W90755  31.955  38.391  12.570
26999W        W90756  14.733  38.428  13.455
27000W        W90757  31.975   2.846  10.433
27001W        W90758  13.615   7.857  13.881
27002W        W90759   8.354  29.471   4.679
27003W        W90760   5.929  20.271  10.464
27004W        W90761  21.753  16.710  11.500
27005W        W90762  39.840  11.830  13.329
27006W        W90763  37.970  34.065  14.420
27007W        W90764  18.287   5.729  13.906
27008W        W90765  36.937   9.293  14.497
27009W        W90766  11.158  34.491  12.497
27010W        W90767   3.318  43.492   4.343
27011W        W90768  38.921  33.881   1.867
27012W        W90769  20.638  38.540   3.253
27013W        W90770  20.226  15.790  10.427
27014W        W90771   7.331  35.854  13.826
27015W        W90772  23.711  29.520  14.436
27016W        W90773  25.988  17.799   3.302
27017W        W90774  37.979  34.426  12.935
27018W        W90775  29.152  16.201  14.500
27019W        W90776  18.773  13.796   3.831
27020W        W90777  30.907  19.055  12.467
27021W        W90778   5.237   5.780  11.084
27022W        W90779   6.206   3.244   2.756
27023W        W90780  22.051   1.770   1.344
27024W        W90781   3.368  38.552   3.359
27025W        W90782   0.409  36.959   0.425
27026W        W90783   2.793  10.247   2.736
27027W        W90784  24.615  24.684  10.540
27028W        W90785  22.237  33.517  13.449
27029W        W90786  33.587   9.792   0.884
27030W        W90787  38.390   5.841   2.684
27031W        W90788   3.234  36.368   4.281
27032W        W90789  15.648  19.212   2.679
27033W        W90790  16.311   6.371   1.751
27034W        W90791  15.694  26.995   3.363
27035W        W90792  29.505  31.905  12.086
27036W        W90793  27.609  20.745   3.788
27037W        W90794  28.059  32.931   1.860
27038W        W90795  40.993  12.206   2.806
27039W        W90796  41.469  37.930   1.735
27040W        W90797  33.961   6.193   3.375
27041W        W90798  40.463  18.186   2.887
27042W        W90799  21.032   2.890  11.869
27043W        W90800  20.539  12.247   4.144
27044W        W90801  30.094  25.969   4.155
27045W        W90802   6.185  10.188  13.863
27046W        W90803  28.036   9.163  13.361
27047W        W90804  14.707  21.209   0.845
27048W        W90805  19.265  15.097  14.842
27049W        W90806  15.670  34.056  14.781
27050W        W90807  33.408  27.114  13.389
27051W        W90808  25.578  42.974   4.739
27052W        W90809  20.532  10.650   3.203
27053W        W90810  29.940  15.640   1.803
27054W        W90811  11.283  21.535  14.766
27055W        W90812  23.594  32.464  11.481
27056W        W90813   3.320  12.662  13.057
27057W        W90814  30.916  35.499  12.005
27058W        W90815  13.208  11.202   4.189
27059W        W90816  37.389   2.243   0.455
27060W        W90817   8.260   3.234   4.669
27061W        W90818  14.614   7.855   1.317
27062W        W90819   3.912  17.151  12.350
27063W        W90820  28.455  21.139  11.100
27064W        W90821   0.864  25.183  13.306
27065W        W90822  14.292  31.925   0.380
27066W        W90823  20.647  29.023   4.810
27067W        W90824  13.684   1.936  11.056
27068W        W90825  43.971  29.029   0.778
27069W        W90826  34.048  36.551   0.879
27070W        W90827   8.688   6.737   1.739
27071W        W90828  42.811  16.199   0.734
27072W        W90829   8.252  39.449  10.574
27073W        W90830  10.227   5.417   1.716
27074W        W90831   5.219   6.235  10.133
27075W        W90832   3.240   3.230   0.943
27076W        W90833  25.692  37.366  10.153
27077W        W90834  29.032   1.968   2.724
27078W        W90835  44.425  10.148  11.441
27079W        W90836  14.708  26.559   0.342
27080W        W90837  42.505   1.949  13.958
27081W        W90838  36.383   9.784  12.973
27082W        W90839  22.015  19.088  11.485
27083W        W90840   6.884  10.321  14.784
27084W        W90841  37.068  37.066   0.928
27085W        W90842  39.453   4.401   3.212
27086W        W90843  11.838  30.938  14.930
27087W        W90844  37.425  22.707   3.634
27088W        W90845  38.072  17.592   1.357
27089W        W90846   8.731  32.608  11.077
27090W        W90847  34.529  20.708  12.906
27091W        W90848   0.276   0.474   2.869
27092W        W90849  41.492  42.005   3.729
27093W        W90850  43.891   8.389   0.319
27094W        W90851  42.321  36.905  12.562
27095W        W90852  15.742  17.620  11.467
27096W        W90853  26.204  35.424  12.931
27097W        W90854  15.670  12.229  11.889
27098W        W90855  25.117   8.299   2.737
27099W        W90856  43.785  37.887  14.400
27100W        W90857  29.648  19.699   0.829
27101W        W90858  40.883  32.396  13.466
27102W        W90859  42.027  27.623  10.558
27103W        W90860  23.663  43.875   1.400
27104W        W90861  21.652  23.026  12.900
27105W        W90862  37.471   8.192   1.266
27106W        W90863  34.053  16.681  14.405
27107W        W90864  31.987   8.267   2.281
27108W        W90865  43.859  14.826   0.798
27109W        W90866  32.448  34.028   2.676
27110W        W90867  12.638  38.973   3.633
27111W        W90868  26.017  15.756   4.669
27112W        W90869  14.734  43.317   5.207
27113W        W90870   2.746  41.857  11.392
27114W        W90871  18.203   1.772  14.950
27115W        W90872   3.300  36.474  12.898
27116W        W90873  23.065  22.022  12.563
27117W        W90874  33.404  31.985   5.110
27118W        W90875  12.839  36.507  14.889
27119W        W90876   7.738  43.927  11.385
27120W        W90877  35.389   4.391  13.025
27121W        W90878  31.582  14.313  13.353
27122W        W90879  15.090  26.567  14.297
27123W        W90880  17.288  15.232  10.930
27124W        W90881  43.474  25.493  10.548
27125W        W90882  16.107   2.307   1.917
27126W        W90883  16.076  12.185   0.428
27127W        W90884  38.540  35.490   2.206
27128W        W90885  42.328  39.957   3.386
27129W        W90886  33.427   1.828   5.187
27130W        W90887  19.065  39.825   3.260
27131W        W90888  23.996  10.200  10.468
27132W        W90889  42.361  32.537   2.228
27133W        W90890  39.023   8.853  14.873
27134W        W90891  24.507   8.319  14.866
27135W        W90892  12.320  20.100  13.885
27136W        W90893  40.325  26.069   4.126
27137W        W90894  32.063   6.746   5.236
27138W        W90895   4.218   7.882  10.564
27139W        W90896  20.750   5.376  13.914
27140W        W90897  40.544  36.909   0.356
27141W        W90898   9.767  38.925  13.023
27142W        W90899   9.712  26.508  12.055
27143W        W90900  42.439  15.151   3.859
27144W        W90901  35.076  25.710  14.018
27145W        W90902  26.181  26.171  10.418
27146W        W90903  41.434  38.890  13.518
27147W        W90904  26.959  35.869   3.687
27148W        W90905  28.929  21.600   1.734
27149W        W90906  18.567   5.836   0.320
27150W        W90907  14.624  12.729   3.675
27151W        W90908  43.935   7.698  11.609
27152W        W90909  42.408  36.569  14.393
27153W        W90910   7.904  20.659   3.293
27154W        W90911  20.080  43.814  12.960
27155W        W90912  42.418  32.906   0.757
27156W        W90913  33.092  30.973  14.304
27157W        W90914  12.690   3.846   2.842
27158W        W90915  44.406  19.247  10.485
27159W        W90916  11.700  28.063  11.939
27160W        W90917   6.693  12.724  14.984
27161W        W90918  32.471  21.160   0.814
27162W        W90919  41.799  35.363   3.211
27163W        W90920  14.235   1.739  11.431
27164W        W90921  25.562  25.665   3.779
27165W        W90922  14.798  26.062  13.854
27166W        W90923   0.926  18.735  13.436
27167W        W90924  17.572  28.968   4.605
27168W        W90925  24.545  17.140  11.969
27169W        W90926  35.577  33.621  10.906
27170W        W90927  19.087  43.477  10.562
27171W        W90928  41.422  21.121   1.275
27172W        W90929  21.686  14.828  10.975
27173W        W90930  37.457  32.509  13.915
27174W        W90931  36.491  21.658  11.876
27175W        W90932   0.771  38.543  12.952
27176W        W90933  24.144   7.819   4.261
27177W        W90934   6.374  41.021   5.567
27178W        W90935  16.646  43.013  12.390
27179W        W90936  10.799  37.393   0.858
27180W        W90937  21.596  32.112   3.347
27181W        W90938   0.305  16.794  12.341
27182W        W90939  16.721  25.081  10.466
27183W        W90940  15.580  12.634  13.009
27184W        W90941  24.506  26.174   4.293
27185W        W90942  21.682   1.420  11.454
27186W        W90943  39.899   1.434  12.840
27187W        W90944  10.702  21.530   4.613
27188W        W90945  36.961  21.514   4.776
27189W        W90946  42.443  21.105   1.287
27190W        W90947  18.786  44.988  13.856
27191W        W90948   0.912  23.053   1.274
27192W        W90949  24.984  10.640  11.381
27193W        W90950  37.575  30.122   0.861
27194W        W90951  36.588  39.557   2.876
27195W        W90952  14.289  29.100   2.668
27196W        W90953  26.002  30.121   1.259
27197W        W90954  19.637   3.721  12.368
27198W        W90955  42.463   9.357   3.321
27199W        W90956  35.467   5.928  10.946
27200W        W90957  33.501  21.063   4.737
27201W        W90958  28.642   6.919   2.190
27202W        W90959  31.012  38.467  11.950
27203W        W90960  35.373   4.392  13.504
27204W        W90961  17.655   1.936   4.263
27205W        W90962  18.182   9.865   1.850
27206W        W90963   1.294  42.372   1.439
27207W        W90964  31.529  35.536  12.372
27208W        W90965  19.675  29.474  13.003
27209W        W90966  27.085  14.811   5.120
27210W        W90967  38.488  12.659   2.774
27211W        W90968  28.447  24.586  13.062
27212W        W90969  18.292  16.231  14.876
27213W        W90970   7.323  16.159   3.155
27214W        W90971  12.211  32.547   3.710
27215W        W90972  37.485   9.327  12.498
27216W        W90973  26.682  33.980  13.920
27217W        W90974   1.438   2.787   3.232
27218W        W90975   5.207  42.439   0.881
27219W        W90976   2.859  38.053   0.865
27220W        W90977  23.735  39.825   2.854
27221W        W90978   4.311  22.598   3.830
27222W        W90979  11.209   0.282  10.974
27223W        W90980  33.879  21.571   2.785
27224W        W90981  20.033  32.526   1.900
27225W        W90982  21.192  11.694  12.861
27226W        W90983   1.426   7.871   3.215
27227W        W90984  41.914  37.064  11.976
27228W        W90985  35.098  17.586  10.569
27229W        W90986   3.922  12.180  14.357
27230W        W90987  29.064  22.205   0.835
27231W        W90988  40.503  15.679   4.156
27232W        W90989  36.441  40.918  13.396
27233W        W90990   1.866   4.784  11.947
27234W        W90991   7.698  37.994   4.771
27235W        W90992  33.007  26.113  13.043
27236W        W90993  43.822  37.975   1.722
27237W        W90994  35.027  15.773   3.357
27238W        W90995   3.711  27.996  13.048
27239W        W90996  38.419  27.160   1.211
27240W        W90997  28.679  21.639   9.638
27241W        W90998  28.646   9.735  11.122
27242W        W90999  19.679  12.339  10.982
27243W        W91000  28.958   7.861  14.952
27244W        W91001  41.882  42.986   4.345
27245W        W91002  37.472  33.918  14.793
27246W        W91003  43.516  21.689  10.477
27247W        W91004   3.811  21.727   2.317
27248W        W91005  13.350  37.455   0.791
27249W        W91006  14.644  36.948  14.339
27250W        W91007  39.975  19.564   2.779
27251W        W91008   5.698  15.788  11.595
27252W        W91009  23.004  29.067  11.925
27253W        W91010  27.024   6.225  10.973
27254W        W91011  44.315  31.049   0.861
27255W        W91012  26.468  37.929   0.463
27256W        W91013   0.424   2.390  11.522
27257W        W91014  23.643  23.164   5.218
27258W        W91015  11.354  21.544   0.863
27259W        W91016  41.986  33.407  10.570
27260W        W91017  32.610   5.248  12.508
27261W        W91018  31.023  23.077   4.682
27262W        W91019  21.747  15.099   1.371
27263W        W91020  12.224  37.536  10.617
27264W        W91021  39.942  25.131   0.469
27265W        W91022   4.706  33.020  12.469
27266W        W91023   8.183   3.887   3.305
27267W        W91024  15.236  15.301   0.875
27268W        W91025  15.162  31.941  13.342
27269W        W91026   6.375  22.224  13.010
27270W        W91027  44.863  20.080  10.981
27271W        W91028   3.813  33.972  13.826
27272W        W91029  14.612  44.983  12.825
27273W        W91030   7.408  17.565  13.055
27274W        W91031  15.651  43.936  11.582
27275W        W91032   6.261  29.618  13.050
27276W        W91033  16.201  12.637   0.340
27277W        W91034  36.921  34.481  11.381
27278W        W91035  26.640  16.621   3.763
27279W        W91036   3.366  24.979  14.886
27280W        W91037  40.996   4.421  11.377
27281W        W91038  13.202  15.225   2.265
27282W        W91039  32.126  32.527  14.281
27283W        W91040  20.266  36.434   2.343
27284W        W91041  35.102   3.282   5.169
27285W        W91042   4.933  41.945   1.307
27286W        W91043  42.883  31.501   0.893
27287W        W91044  31.978  40.393  14.966
27288W        W91045  28.035  29.961   4.240
27289W        W91046  28.120  37.346   1.886
27290W        W91047  13.335  19.589   1.291
27291W        W91048   6.705   0.796  11.585
27292W        W91049  20.181  16.766  14.322
27293W        W91050  11.643  15.586  13.863
27294W        W91051   0.862  37.957   4.746
27295W        W91052  20.730  39.925   4.806
27296W        W91053  24.702  43.826   2.757
27297W        W91054  37.410  44.390   3.223
27298W        W91055  33.105  10.735   3.322
27299W        W91056  32.444  31.494  11.978
27300W        W91057  26.475  37.964  10.914
27301W        W91058  16.164  38.479  13.963
27302W        W91059   9.168  10.304  10.586
27303W        W91060  30.630   5.780  14.778
27304W        W91061  32.492  13.831  12.538
27305W        W91062  26.957  28.560  10.627
27306W        W91063   7.205   0.883  12.088
27307W        W91064  14.670  23.123   3.649
27308W        W91065   4.911  33.049   1.851
27309W        W91066  27.640   0.922   3.664
27310W        W91067  15.666  15.100   0.270
27311W        W91068  32.542  11.791   4.131
27312W        W91069   6.813  37.537   5.134
27313W        W91070  36.579  14.754  11.900
27314W        W91071  21.151  17.103  14.932
27315W        W91072  30.090  35.921  14.467
27316W        W91073  35.483  36.565  11.869
27317W        W91074  37.049  27.546   1.825
27318W        W91075  15.126  11.142  12.012
27319W        W91076  15.135  22.148   2.412
27320W        W91077  33.034  12.829  13.382
27321W        W91078   8.676  14.781  13.844
27322W        W91079   3.843  23.519   0.266
27323W        W91080  13.772  44.988   3.170
27324W        W91081  11.736   7.296  14.337
27325W        W91082   2.791   3.297  10.533
27326W        W91083  33.529   0.951   4.169
27327W        W91084  19.191  20.070  14.458
27328W        W91085  29.116  32.893  13.877
27329W        W91086  15.226  23.043   3.301
27330W        W91087  13.692  20.546   3.747
27331W        W91088   8.750  27.949  10.585
27332W        W91089  11.153  16.692  12.038
27333W        W91090  11.689  14.170  12.465
27334W        W91091   9.322  39.982   0.354
27335W        W91092  31.133  35.594   2.901
27336W        W91093  12.616  18.641   3.190
27337W        W91094  16.774  19.137  12.401
27338W        W91095  42.510   0.976  12.909
27339W        W91096  35.063   4.409   4.671
27340W        W91097  41.414  37.527   2.833
27341W        W91098  19.739   7.845   0.900
27342W        W91099  27.658  18.095  12.478
27343W        W91100  35.573  21.090  10.114
27344W        W91101  40.501   3.914   3.775
27345W        W91102  24.653  23.735  11.426
27346W        W91103  43.413  36.396   1.298
27347W        W91104  42.507  29.573   0.735
27348W        W91105   9.857  28.039  10.976
27349W        W91106  24.153  30.499   2.869
27350W        W91107  42.892  43.317  13.957
27351W        W91108  16.288  16.658   2.837
27352W        W91109  42.959   6.389  13.044
27353W        W91110  17.116  29.054  11.575
27354W        W91111   8.754   4.332  13.819
27355W        W91112   4.786  23.498   1.371
27356W        W91113   4.838  21.142   4.168
27357W        W91114   2.953  44.763  13.381
27358W        W91115  31.613  30.968  13.908
27359W        W91116  23.184  14.668   4.215
27360W        W91117  12.666  16.195  14.492
27361W        W91118  22.701  11.199  11.429
27362W        W91119   3.233  26.562   1.399
27363W        W91120   9.330  19.724  13.985
27364W        W91121  29.999  14.195  10.921
27365W        W91122   7.251  11.662   2.220
27366W        W91123  29.952  30.997  12.559
27367W        W91124  21.087  43.479   4.213
27368W        W91125  32.416  26.485   3.648
27369W        W91126  18.560  11.343  14.360
27370W        W91127  26.667  19.727  14.775
27371W        W91128  32.467  20.253   2.847
27372W        W91129  30.124  22.709  11.468
27373W        W91130   0.316  29.428   4.623
27374W        W91131  43.329   4.444   4.266
27375W        W91132  15.807  11.170  12.869
27376W        W91133   0.922  13.603  13.831
27377W        W91134  27.193  37.056   0.870
27378W        W91135  22.714   3.813   3.822
27379W        W91136   5.193   5.691  13.801
27380W        W91137  34.409  11.851  12.525
27381W        W91138  31.433   8.896   5.192
27382W        W91139  17.775  10.814  11.608
27383W        W91140  39.415  25.032  14.429
27384W        W91141  35.529  18.634   1.412
27385W        W91142   7.259  44.838  11.874
27386W        W91143  31.583  22.092   3.209
27387W        W91144  41.016  21.027   2.327
27388W        W91145  23.560  12.315  13.045
27389W        W91146  26.492  37.002  14.921
27390W        W91147  38.553  36.505   3.152
27391W        W91148   2.770  28.636  11.493
27392W        W91149  43.459  34.012   1.752
27393W        W91150   3.770  35.004  14.917
27394W        W91151  19.132  37.367   1.706
27395W        W91152  26.624  43.285   4.601
27396W        W91153  20.633  40.495   4.628
27397W        W91154  40.053  44.308   4.719
27398W        W91155  25.077  15.749   5.083
27399W        W91156   8.406   4.787  14.288
27400W        W91157  11.683  27.570  10.555
27401W        W91158  42.939  25.500  12.880
27402W        W91159  12.617  17.259  13.431
27403W        W91160  34.478  32.934  12.986
27404W        W91161  20.228  36.008   1.742
27405W        W91162  16.711  42.871  11.546
27406W        W91163   4.340  30.603   4.655
27407W        W91164  43.854  24.510  10.478
27408W        W91165  31.925  27.040  12.014
27409W        W91166  39.496  13.822   4.815
27410W        W91167  41.036  15.760  13.901
27411W        W91168  32.483  20.232   1.370
27412W        W91169   2.233  30.926  12.542
27413W        W91170  30.456  43.910  12.919
27414W        W91171  40.015  40.932   4.341
27415W        W91172  42.799  14.774  12.972
27416W        W91173   7.240  38.524   4.781
27417W        W91174  26.178  30.083  11.124
27418W        W91175  13.737  31.402  12.360
27419W        W91176  13.805  12.755  12.080
27420W        W91177  39.536  33.880   0.371
27421W        W91178  22.726  44.898   4.728
27422W        W91179  37.482   6.759  11.595
27423W        W91180   2.254  26.638   9.947
27424W        W91181  41.950  26.177   2.245
27425W        W91182  25.474  22.672   1.418
27426W        W91183  40.027  29.478  13.796
27427W        W91184  19.588  36.365   1.343
27428W        W91185  22.684  33.411  14.876
27429W        W91186   4.328  36.433  13.906
27430W        W91187  25.012  16.129  11.540
27431W        W91188  44.325  24.707  11.124
27432W        W91189  38.492  14.764   0.886
27433W        W91190   4.773  23.641  10.496
27434W        W91191  24.505   9.873   3.241
27435W        W91192  18.152  22.641  12.342
27436W        W91193  41.332  37.390  14.482
27437W        W91194  38.891  41.877  11.554
27438W        W91195  15.242  23.090  14.451
27439W        W91196   0.378  32.001  14.910
27440W        W91197   4.925  11.183   4.226
27441W        W91198  10.718  22.136   1.374
27442W        W91199   1.446   1.777  13.373
27443W        W91200  40.991   5.829   2.224
27444W        W91201  35.494  15.181   1.212
27445W        W91202  13.714  34.610  11.388
27446W        W91203  10.326  24.494   4.295
27447W        W91204  16.669  15.705  13.463
27448W        W91205  13.274  32.138   3.172
27449W        W91206  41.811   5.913   1.744
27450W        W91207  41.445  38.456   0.872
27451W        W91208  28.009  22.556   1.386
27452W        W91209  27.007  34.416  11.501
27453W        W91210  34.114  25.481  11.971
27454W        W91211  40.397  39.432   4.616
27455W        W91212  36.386  14.188  10.020
27456W        W91213   5.378   4.422  10.624
27457W        W91214  35.987  35.536   0.903
27458W        W91215  19.594  22.554  10.446
27459W        W91216  19.614  19.042  11.440
27460W        W91217  18.199  12.747  10.552
27461W        W91218  11.830   9.180  10.999
27462W        W91219  37.407  11.624  11.504
27463W        W91220  12.669  22.053  14.402
27464W        W91221  18.765  41.322   0.357
27465W        W91222  33.433  27.994   3.321
27466W        W91223  38.041  20.037   0.338
27467W        W91224  16.250  44.865  12.551
27468W        W91225   3.813   1.811  10.958
27469W        W91226   8.381   4.941   1.266
27470W        W91227  33.884  44.950  12.525
27471W        W91228  38.842   9.875   0.285
27472W        W91229  18.753  15.145  14.014
27473W        W91230  17.707  40.463  14.306
27474W        W91231   5.285  44.783   0.325
27475W        W91232   3.454  22.173  13.460
27476W        W91233  25.045  29.553  13.416
27477W        W91234  16.796  14.337  13.541
27478W        W91235   0.825   0.896  11.859
27479W        W91236  23.677   0.802  12.460
27480W        W91237   0.989  27.674  14.310
27481W        W91238  42.399  36.546  13.922
27482W        W91239   0.306   8.336   4.795
27483W        W91240  29.166  24.151   3.817
27484W        W91241  36.059  33.381  10.454
27485W        W91242   0.268  36.350   4.120
27486W        W91243  44.888   5.411   2.717
27487W        W91244   6.264  19.548   1.862
27488W        W91245  30.622  11.222   2.296
27489W        W91246  27.530  37.859   3.216
27490W        W91247   3.933  23.997   1.425
27491W        W91248  44.803   7.686  12.560
27492W        W91249  14.735   2.736   4.212
27493W        W91250   9.754  22.504  11.104
27494W        W91251  11.355  24.656   3.831
27495W        W91252  22.743  32.980  13.857
27496W        W91253  39.449  29.928  12.024
27497W        W91254  21.592  42.934   2.342
27498W        W91255  30.428  34.939  14.850
27499W        W91256  40.508  43.809  10.645
27500W        W91257  25.142  41.537   1.404
27501W        W91258  15.769  23.656  14.362
27502W        W91259   8.887  37.552  13.420
27503W        W91260  37.516  19.743   1.812
27504W        W91261   9.380  27.489   4.827
27505W        W91262   9.189  21.580  10.564
27506W        W91263   8.363  24.674   0.958
27507W        W91264  11.212  43.453   0.281
27508W        W91265   3.427  27.550   3.233
27509W        W91266  27.569  15.761   2.791
27510W        W91267   2.374   2.878  12.056
27511W        W91268  26.683  44.791  12.450
27512W        W91269   8.860  26.022  14.016
27513W        W91270  20.244  30.650  14.814
27514W        W91271   8.250  40.526  13.954
27515W        W91272  19.078  29.120  14.288
27516W        W91273  23.241  20.107   2.372
27517W        W91274  14.096  41.025   4.688
27518W        W91275  10.264  15.799   5.295
27519W        W91276  41.856  25.670  12.962
27520W        W91277  26.002  22.097   1.820
27521W        W91278  11.289  42.387   0.476
27522W        W91279  22.552  13.286  12.992
27523W        W91280  26.648  12.737  11.417
27524W        W91281  39.417   5.783  11.499
27525W        W91282  38.541   3.250  10.077
27526W        W91283  21.586  35.369  12.339
27527W        W91284  42.284  33.111  12.060
27528W        W91285  31.615  39.425   2.676
27529W        W91286  11.765  17.122   3.684
27530W        W91287  14.276  44.311  13.025
27531W        W91288   4.354   9.663  12.342
27532W        W91289  37.892  42.465   3.350
27533W        W91290  13.330   0.359  12.863
27534W        W91291  38.363   5.381   4.642
27535W        W91292   1.735  42.447   1.775
27536W        W91293  11.249   3.765   2.669
27537W        W91294  38.845  44.805   0.373
27538W        W91295  38.904   3.805   3.373
27539W        W91296  17.150  44.306  10.892
27540W        W91297  26.967  34.880  12.447
27541W        W91298  18.678   6.241   4.627
27542W        W91299  16.724  29.168  14.280
27543W        W91300   7.314  34.425   2.816
27544W        W91301  23.199  41.943  14.973
27545W        W91302  12.704  44.451  14.433
27546W        W91303  16.613  38.449   4.156
27547W        W91304  30.565   3.252  13.968
27548W        W91305   3.411  35.034   0.386
27549W        W91306  23.000   2.368  12.824
27550W        W91307  23.727   5.318  14.385
27551W        W91308  18.599  35.088  14.985
27552W        W91309  21.596  12.691  14.989
27553W        W91310  33.550  25.588   1.925
27554W        W91311  29.657  30.635   4.135
27555W        W91312  40.869  28.961   2.389
27556W        W91313  32.020  11.786   3.368
27557W        W91314  30.572  14.312   3.365
27558W        W91315  23.611   0.919   0.935
27559W        W91316   9.153  33.439  11.482
27560W        W91317  19.602  41.478  10.947
27561W        W91318  42.436  18.164  10.450
27562W        W91319   4.288  40.805  11.430
27563W        W91320  23.714   4.314  12.936
27564W        W91321  13.181  30.562   4.636
27565W        W91322  30.961   3.291   0.925
27566W        W91323  42.871  32.448  14.384
27567W        W91324  13.152  42.494  14.957
27568W        W91325  34.880  19.663  10.032
27569W        W91326  16.612  33.950  14.482
27570W        W91327  28.948  24.145   9.602
27571W        W91328   8.887  24.120  13.854
27572W        W91329  15.316  35.908   3.146
27573W        W91330   6.890  30.644   0.444
27574W        W91331   1.784   8.262   4.786
27575W        W91332  14.325  32.921  10.419
27576W        W91333  14.135  35.569   2.889
27577W        W91334  38.888  23.987   4.673
27578W        W91335  36.361   7.737  12.558
27579W        W91336   1.269  43.838   1.715
27580W        W91337  34.569  11.771  14.914
27581W        W91338  31.936  19.183   2.376
27582W        W91339   2.429   0.949  13.889
27583W        W91340  38.408  16.220  12.058
27584W        W91341  43.468   2.425  11.091
27585W        W91342  43.947   5.230   0.932
27586W        W91343  43.350   7.229  12.839
27587W        W91344  25.639  42.929  14.371
27588W        W91345  41.818  12.617   4.715
27589W        W91346  36.503   8.173  13.437
27590W        W91347  43.891  17.802   1.877
27591W        W91348  17.686  34.945   1.892
27592W        W91349  35.477  23.112  13.017
27593W        W91350  20.235  41.992  11.913
27594W        W91351  36.947  22.719  12.894
27595W        W91352  41.948  39.438   4.188
27596W        W91353  26.144  36.538   0.402
27597W        W91354  44.915  11.816   2.847
27598W        W91355  11.352  21.748  14.348
27599W        W91356   9.749  15.621  12.908
27600W        W91357  44.313  30.623   0.367
27601W        W91358  42.835   1.336  13.848
27602W        W91359  42.521   4.725  13.981
27603W        W91360  20.653  21.668   0.902
27604W        W91361  13.823  15.656  13.877
27605W        W91362  13.833   8.711  12.481
27606W        W91363  40.508  30.536  11.423
27607W        W91364  26.554  38.850  12.368
27608W        W91365  31.956  31.147  13.929
27609W        W91366  31.586  41.012  10.896
27610W        W91367   2.925   3.896   1.783
27611W        W91368   0.297  34.981   0.418
27612W        W91369   5.851  38.988   3.186
27613W        W91370  23.663   9.168   3.376
27614W        W91371   3.407   1.830   4.752
27615W        W91372  25.711  37.061  10.430
27616W        W91373  35.936  21.579   0.736
27617W        W91374  33.979  35.567  12.040
27618W        W91375  13.190  15.131  14.842
27619W        W91376   6.186   5.324   1.345
27620W        W91377  36.523  25.698  14.362
27621W        W91378   0.886  43.796   3.854
27622W        W91379  33.966  23.091  11.537
27623W        W91380  10.676   5.885   4.279
27624W        W91381  20.666  11.306  14.413
27625W        W91382  22.696  20.274   1.430
27626W        W91383  43.958  28.442  13.878
27627W        W91384  30.414  16.632   4.239
27628W        W91385  31.955  30.007   2.706
27629W        W91386   6.385  37.835  14.898
27630W        W91387  42.875   2.934   0.919
27631W        W91388  44.271   5.257   0.359
27632W        W91389  10.638  41.480  12.870
27633W        W91390  28.574  25.682  13.530
27634W        W91391   7.828  21.656  14.984
27635W        W91392  31.541  37.373  13.534
27636W        W91393  42.454  34.001   2.359
27637W        W91394  11.741   8.231   1.713
27638W        W91395  44.429   7.388   0.816
27639W        W91396  36.440  40.391  12.898
27640W        W91397  43.879  11.722   1.369
27641W        W91398   7.186  42.354   0.739
27642W        W91399  23.669  39.444  13.343
27643W        W91400  34.901   0.493  14.954
27644W        W91401  35.922  14.653   1.346
27645W        W91402  34.491  41.417   3.181
27646W        W91403  23.128  26.496  12.872
27647W        W91404  37.895  37.538  11.452
27648W        W91405  17.696  26.550   3.357
27649W        W91406  38.413   9.647   3.361
27650W        W91407  26.054  37.036   3.254
27651W        W91408  43.813  14.799   4.261
27652W        W91409  42.526  23.524  12.377
27653W        W91410  41.826  24.675   0.833
27654W        W91411  36.960   0.806  12.527
27655W        W91412  42.982  36.969   2.215
27656W        W91413  19.062   1.823  12.566
27657W        W91414  27.999   8.371  14.339
27658W        W91415   1.829  32.594  13.909
27659W        W91416  32.442  18.133  14.019
27660W        W91417  39.375  32.972  12.392
27661W        W91418  19.676  41.821   1.825
27662W        W91419   5.740  42.391   0.906
27663W        W91420  11.350  36.433  10.941
27664W        W91421  28.678  24.183   1.214
27665W        W91422  15.255  36.044  10.485
27666W        W91423   0.877   1.244   0.781
27667W        W91424  17.724  17.176   2.736
27668W        W91425  19.278  16.694   1.319
27669W        W91426  30.103  34.906  13.327
27670W        W91427  24.036  30.001  11.993
27671W        W91428  11.857   8.680   1.787
27672W        W91429  28.167  15.259  12.468
27673W        W91430  43.010   6.201   0.419
27674W        W91431  22.661  44.343   1.449
27675W        W91432  43.004  26.999   2.324
27676W        W91433   7.667  24.623   1.245
27677W        W91434  23.552  13.635  11.980
27678W        W91435  42.504  40.037   0.398
27679W        W91436  13.319  15.636  13.951
27680W        W91437   5.754   7.258   2.357
27681W        W91438   0.933  12.289  12.926
27682W        W91439  22.697  30.530   3.666
27683W        W91440  44.877  30.585  11.955
27684W        W91441  28.459  40.511   2.756
27685W        W91442   8.263   1.248  12.554
27686W        W91443   9.859   0.474  12.896
27687W        W91444   8.387   9.812  13.447
27688W        W91445  36.961  19.575  12.909
27689W        W91446  10.249  32.938   0.466
27690W        W91447  26.083  15.663   1.809
27691W        W91448  15.306   9.647   1.896
27692W        W91449  14.289  15.115  10.420
27693W        W91450   3.813  22.115  12.950
27694W        W91451   1.925   9.705  10.640
27695W        W91452   2.937  18.100  13.040
27696W        W91453  36.456   1.805  14.323
27697W        W91454  36.863  38.365  13.329
27698W        W91455  31.052  26.632   0.267
27699W        W91456   5.382  17.298   0.935
27700W        W91457   9.744   9.194   0.892
27701W        W91458   7.349  19.550  10.934
27702W        W91459  26.157  22.688  12.930
27703W        W91460   6.901  29.514   4.291
27704W        W91461  32.036  14.810   0.379
27705W        W91462   8.328  12.739   2.837
27706W        W91463   1.329  44.284   1.867
27707W        W91464  13.264  25.161   4.827
27708W        W91465  13.827  16.246  13.408
27709W        W91466  10.149  30.423  14.845
27710W        W91467  24.102  35.080   0.857
27711W        W91468  22.029  29.538  14.390
27712W        W91469  11.156  22.622  11.902
27713W        W91470  11.730  31.996   5.118
27714W        W91471  21.726  24.649  11.035
27715W        W91472  33.594  10.196   0.842
27716W        W91473  25.994  10.306  11.417
27717W        W91474  37.444   4.247   4.705
27718W        W91475  27.147  14.614   1.287
27719W        W91476  32.459  15.590   2.303
27720W        W91477   2.270  41.488   4.323
27721W        W91478  38.829   4.288  11.048
27722W        W91479  17.177  39.488   2.807
27723W        W91480  10.727  24.985   2.380
27724W        W91481  35.573  10.874  13.476
27725W        W91482  20.708  16.316   2.251
27726W        W91483  23.198  19.591  13.059
27727W        W91484  36.364   4.368   4.156
27728W        W91485  37.361  26.967  10.417
27729W        W91486   8.236  18.639   5.573
27730W        W91487  23.165  39.059   0.869
27731W        W91488  31.001  28.584   2.730
27732W        W91489  44.396   6.206   3.213
27733W        W91490  39.510  25.188  10.470
27734W        W91491   5.424  15.753  14.803
27735W        W91492   4.930  37.914  14.879
27736W        W91493  36.926  15.310   3.854
27737W        W91494  31.033  37.441   1.249
27738W        W91495   0.925  33.955   2.224
27739W        W91496  33.491  35.424   0.443
27740W        W91497  29.537  32.630   3.191
27741W        W91498  34.084   1.914  12.406
27742W        W91499  39.366  25.968   4.220
27743W        W91500  28.973  22.246   1.713
27744W        W91501  30.141  40.397  12.968
27745W        W91502  40.332  25.614   2.750
27746W        W91503  38.557  13.148   0.458
27747W        W91504   2.376  14.297  13.462
27748W        W91505  14.656  39.891  13.526
27749W        W91506  18.643  19.538  11.869
27750W        W91507  12.273  34.581  14.346
27751W        W91508  31.067  44.007  14.397
27752W        W91509  27.131  23.189  14.513
27753W        W91510  16.746  15.142   0.791
27754W        W91511  25.614  44.318  14.027
27755W        W91512   6.263  18.615   2.662
27756W        W91513   8.368  40.974  14.012
27757W        W91514  18.622  21.653   4.165
27758W        W91515  23.240  38.403   2.250
27759W        W91516  22.106  28.062   0.919
27760W        W91517   8.358  20.549  14.013
27761W        W91518  22.021  12.800   1.446
27762W        W91519  29.636  31.466  11.081
27763W        W91520  38.432  29.085   2.700
27764W        W91521   7.770  41.432   2.818
27765W        W91522  24.619   1.931  13.840
27766W        W91523   1.359   2.841  13.048
27767W        W91524   7.252  30.527   4.773
27768W        W91525   6.420  23.225   2.841
27769W        W91526   3.762   8.670   1.243
27770W        W91527  43.787   0.839   2.783
27771W        W91528  34.083  29.129  14.801
27772W        W91529  42.778  20.178   1.442
27773W        W91530  20.745  41.484   1.436
27774W        W91531  14.214  35.870   0.317
27775W        W91532  10.248  20.130   4.656
27776W        W91533  39.874  31.933  12.091
27777W        W91534   2.301  25.543   2.790
27778W        W91535  26.557  31.076  13.029
27779W        W91536   1.480   7.876  13.378
27780W        W91537  35.012  33.958  13.899
27781W        W91538   1.312  39.051   2.857
27782W        W91539  19.137  44.952   1.384
27783W        W91540  21.662  15.750  10.530
27784W        W91541  32.975  41.410   1.818
27785W        W91542  39.449  19.098   2.393
27786W        W91543  24.724  32.941  12.979
27787W        W91544  21.024  26.000   3.715
27788W        W91545   8.856   3.889  12.573
27789W        W91546   5.845  12.143   2.206
27790W        W91547  25.513  36.072   0.926
27791W        W91548  21.201  23.073  11.965
27792W        W91549   6.923  39.433   2.841
27793W        W91550   4.802   1.471  11.123
27794W        W91551   7.686   5.313  11.419
27795W        W91552  28.618  40.385  12.557
27796W        W91553  44.937  17.754  13.963
27797W        W91554  10.159   4.782  10.890
27798W        W91555  16.659  30.096   3.707
27799W        W91556  13.787  27.180   0.459
27800W        W91557   6.756  22.150  12.093
27801W        W91558  30.005  26.639  13.025
27802W        W91559  34.918  34.948   3.690
27803W        W91560  41.307   6.307   4.146
27804W        W91561  42.520  36.579   4.157
27805W        W91562  19.242  38.491  12.504
27806W        W91563  39.931  22.503  10.915
27807W        W91564  24.180  36.378  14.933
27808W        W91565  42.509  14.648   0.415
27809W        W91566  37.489  25.616   3.321
27810W        W91567   0.320   4.241   0.291
27811W        W91568  24.696  34.577   1.422
27812W        W91569  36.873  29.536   1.371
27813W        W91570  37.545  20.668  10.587
27814W        W91571  23.187  42.339   2.252
27815W        W91572  24.059   8.734   9.969
27816W        W91573  34.993  44.280   3.284
27817W        W91574   3.311   6.317   2.750
27818W        W91575  38.003  43.776   2.701
27819W        W91576  20.263   8.161   1.225
27820W        W91577  35.379   6.892  14.352
27821W        W91578  27.954  13.308   3.828
27822W        W91579   6.219  32.586  13.522
27823W        W91580  34.424   0.494   4.836
27824W        W91581  13.183  23.037   0.872
27825W        W91582  22.144  21.204  12.533
27826W        W91583  23.206  18.618  13.484
27827W        W91584  12.728  37.983   0.947
27828W        W91585  23.187  28.068  12.487
27829W        W91586  23.054  33.477   4.635
27830W        W91587  17.075  13.266   2.675
27831W        W91588  44.822   3.455  10.891
27832W        W91589  32.631  23.100  13.384
27833W        W91590  21.115   2.464  13.948
27834W        W91591   5.400   9.875  12.923
27835W        W91592   2.258   0.476   2.761
27836W        W91593  16.675  19.088   2.781
27837W        W91594  30.937  14.751  14.028
27838W        W91595  24.047  14.240   1.388
27839W        W91596  24.993  22.730   3.666
27840W        W91597  24.105  32.447  14.429
27841W        W91598  12.721  23.734  12.932
27842W        W91599  34.098  40.357   3.290
27843W        W91600  39.893  31.448  12.441
27844W        W91601  42.010   1.900   1.818
27845W        W91602  34.432  38.389  12.375
27846W        W91603  18.622  10.845  11.007
27847W        W91604   1.800  29.041  14.353
27848W        W91605   8.677  11.820  14.411
27849W        W91606   4.713  19.111   1.316
27850W        W91607  35.573  21.222   3.726
27851W        W91608  43.464  24.087   2.888
27852W        W91609  14.669  41.806  11.971
27853W        W91610  31.578  17.690  10.888
27854W        W91611  14.203  20.659  13.514
27855W        W91612  39.025  16.115   3.799
27856W        W91613   6.282  34.868  11.906
27857W        W91614  19.647  40.501   0.809
27858W        W91615  21.021  30.500   3.363
27859W        W91616  10.380   9.762   0.764
27860W        W91617  18.741  21.061  12.486
27861W        W91618  29.654   5.343   0.341
27862W        W91619  41.488   5.388  11.556
27863W        W91620   3.356  28.569  13.858
27864W        W91621   2.350  40.853   3.729
27865W        W91622  22.657  20.218  14.908
27866W        W91623   8.306  18.226   1.769
27867W        W91624  19.130  38.389   4.641
27868W        W91625  30.556  27.566   2.245
27869W        W91626  34.001  44.821   4.238
27870W        W91627   1.318  34.485   3.296
27871W        W91628  21.106  12.705   0.383
27872W        W91629  30.043  11.143   2.321
27873W        W91630  15.179  43.870  12.461
27874W        W91631  43.385   4.297   0.811
27875W        W91632  27.653  21.745  11.923
27876W        W91633  26.028  11.364   2.783
27877W        W91634   7.792  20.048  14.913
27878W        W91635  39.026  26.631   3.771
27879W        W91636  13.255   0.852  12.562
27880W        W91637  40.937   3.915  14.277
27881W        W91638  24.521  31.018  13.380
27882W        W91639  30.049  44.912  14.433
27883W        W91640   6.410  12.844  11.066
27884W        W91641   1.781  13.740   2.852
27885W        W91642  33.518  18.125   2.679
27886W        W91643   7.854  43.999   4.649
27887W        W91644  10.236  37.833   3.244
27888W        W91645  23.149  15.820   1.760
27889W        W91646  38.859  41.852  12.556
27890W        W91647  43.501  44.275   2.816
27891W        W91648  36.582  42.850  12.399
27892W        W91649  16.806  10.194  12.076
27893W        W91650  19.182  19.653  11.408
27894W        W91651  18.655  41.040   3.174
27895W        W91652   8.693   4.354   0.317
27896W        W91653  22.191  38.031   3.171
27897W        W91654  30.422   1.967   2.209
27898W        W91655  17.122  34.112   1.698
27899W        W91656  12.709   0.445  10.954
27900W        W91657  38.852   8.808   0.860
27901W        W91658   2.377  29.136   0.315
27902W        W91659  32.900   3.334   0.823
27903W        W91660  37.476  38.420   4.301
27904W        W91661  27.519  29.492   4.837
27905W        W91662  19.048  27.186  14.317
27906W        W91663  34.963   1.819  10.498
27907W        W91664  39.381   3.423  14.317
27908W        W91665  14.602  11.150   1.856
27909W        W91666   1.416  32.111   0.733
27910W        W91667  39.313   2.403   1.272
27911W        W91668   0.298  16.155   0.311
27912W        W91669  24.636  31.144   4.733
27913W        W91670  41.452   2.758  12.094
27914W        W91671  36.876   1.833   2.745
27915W        W91672   1.775   5.349   1.732
27916W        W91673   9.739  21.162   5.141
27917W        W91674  42.947   1.443   3.652
27918W        W91675  34.509  40.854  10.958
27919W        W91676  24.018  27.452   1.915
27920W        W91677  19.639  10.155  12.408
27921W        W91678  41.012  34.916   2.670
27922W        W91679   9.249   0.270   2.180
27923W        W91680  15.232  31.074  14.303
27924W        W91681  11.282  35.104  12.050
27925W        W91682  34.105  44.295  14.894
27926W        W91683   5.318   1.777  11.943
27927W        W91684  12.630  23.736  14.355
27928W        W91685  44.417  18.587   3.333
27929W        W91686   5.420  28.674   4.705
27930W        W91687  19.593  17.592  11.461
27931W        W91688  19.709  44.993  14.898
27932W        W91689   1.949   4.301   2.737
27933W        W91690   1.473  28.987  13.361
27934W        W91691  41.037  25.514   2.736
27935W        W91692   2.783  36.502  13.402
27936W        W91693   5.404   4.772   3.636
27937W        W91694   8.666  34.469   4.729
27938W        W91695  26.082   7.907   4.196
27939W        W91696  43.302  28.981   3.733
27940W        W91697  41.400  24.068  13.989
27941W        W91698  39.442  41.343   0.381
27942W        W91699   9.284  22.245  13.463
27943W        W91700  26.025  30.101   4.711
27944W        W91701  34.911  13.278  11.578
27945W        W91702  25.643   5.334  11.063
27946W        W91703  19.114  11.368   4.806
27947W        W91704  18.707  25.636  14.505
27948W        W91705   6.182  13.676   2.380
27949W        W91706   2.433  44.275  11.995
27950W        W91707   3.947  37.863  14.837
27951W        W91708  34.905   1.830  10.940
27952W        W91709   9.831  14.601  11.557
27953W        W91710  17.207  29.167   1.305
27954W        W91711  10.753  20.067   3.246
27955W        W91712  32.453   0.959  10.894
27956W        W91713  24.148  31.435  14.383
27957W        W91714  40.487  33.970   3.787
27958W        W91715  36.884  21.193   3.247
27959W        W91716  21.732  28.442  13.797
27960W        W91717   0.284  24.487  12.897
27961W        W91718  34.567   6.831  14.491
27962W        W91719  34.000  26.028  11.106
27963W        W91720  34.996  22.672  10.591
27964W        W91721  18.167   9.210  12.439
27965W        W91722   0.747  34.955   2.828
27966W        W91723  25.059  43.513   3.374
27967W        W91724  14.752  17.603  14.963
27968W        W91725  43.011  40.044   0.411
27969W        W91726   0.345  23.029   4.307
27970W        W91727  18.224  38.365   1.922
27971W        W91728  40.965  44.783  10.627
27972W        W91729  10.829  42.372  14.442
27973W        W91730   9.380  35.397   4.606
27974W        W91731   6.322   6.783   4.268
27975W        W91732   4.436   8.683   1.824
27976W        W91733  16.660  28.998   0.820
27977W        W91734  41.346  21.623   3.242
27978W        W91735  24.725  14.682   1.710
27979W        W91736   7.325  38.046   0.408
27980W        W91737  24.058  19.735  12.356
27981W        W91738   9.194   6.863  14.831
27982W        W91739  25.687  23.051  14.402
27983W        W91740  33.454   5.735  14.781
27984W        W91741  36.005  25.119   4.826
27985W        W91742  34.559  19.041  13.920
27986W        W91743  21.597  38.857   3.270
27987W        W91744  32.412  11.850   2.302
27988W        W91745  37.831   7.899  14.425
27989W        W91746  11.735  34.442   4.135
27990W        W91747  34.101  13.634   3.348
27991W        W91748  14.590  21.026   3.696
27992W        W91749  20.728  24.609   2.355
27993W        W91750  41.924  29.580   1.771
27994W        W91751  10.643  27.616  12.387
27995W        W91752  35.078  35.041   2.699
27996W        W91753  41.472  39.443   0.866
27997W        W91754  16.248  37.513  13.943
27998W        W91755  41.407  19.142   0.905
27999W        W91756   0.255  11.711  13.972
28000W        W91757   4.905   5.850   1.772
28001W        W91758  20.116   2.335   5.192
28002W        W91759  36.543  34.516   5.091
28003W        W91760   4.282  26.549   2.279
28004W        W91761  17.708  24.227   0.462
28005W        W91762  40.936  14.653   1.817
28006W        W91763  17.077  19.711   1.319
28007W        W91764  19.123  20.237  11.060
28008W        W91765  24.087  27.688   4.328
28009W        W91766  16.272  26.659  14.980
28010W        W91767   2.402   8.815   3.240
28011W        W91768   7.895  43.922   3.869
28012W        W91769  25.603  29.026  14.976
28013W        W91770  19.141  19.253  14.292
28014W        W91771   9.299  29.446   1.856
28015W        W91772  43.983  35.871   4.836
28016W        W91773  36.039   4.818   0.864
28017W        W91774  19.088  35.514   4.732
28018W        W91775  30.455  40.344   0.823
28019W        W91776  24.525  12.184  10.612
28020W        W91777  19.749  38.861   2.892
28021W        W91778  10.822  41.536  10.583
28022W        W91779  38.918  17.161   3.757
28023W        W91780   5.700  18.710  11.920
28024W        W91781  32.408  18.773  12.419
28025W        W91782   3.400  20.692  14.846
28026W        W91783   4.837  35.865   3.385
28027W        W91784  12.301  31.458  10.574
28028W        W91785  19.244  41.308  11.486
28029W        W91786   2.472  30.531   4.130
28030W        W91787  11.282  23.644  11.123
28031W        W91788  22.657   0.870   2.783
28032W        W91789  37.577  23.617  13.538
28033W        W91790   9.246  10.841   3.207
28034W        W91791  28.631   4.776  13.988
28035W        W91792  37.910  39.353   1.881
28036W        W91793  14.129   9.661   2.409
28037W        W91794  38.022  11.128  10.971
28038W        W91795  28.099   5.876  13.873
28039W        W91796   7.307  16.754   2.327
28040W        W91797  30.504  15.226   1.898
28041W        W91798  15.243  12.622  12.458
28042W        W91799  16.744   9.339   0.857
28043W        W91800  32.540  31.414  10.971
28044W        W91801  23.626  29.971   4.825
28045W        W91802   9.697  11.356   3.851
28046W        W91803  39.926  33.086  11.535
28047W        W91804  12.266  36.006   0.803
28048W        W91805  26.967  39.443  13.817
28049W        W91806   8.254   4.315  13.896
28050W        W91807  20.574  30.107  13.827
28051W        W91808   8.175  17.664   2.806
28052W        W91809  28.626   5.868  13.933
28053W        W91810  19.640  11.733  12.004
28054W        W91811   0.439  27.191   0.288
28055W        W91812  12.660  37.006  11.995
28056W        W91813  41.861   1.328   3.656
28057W        W91814   2.921  32.635  14.847
28058W        W91815  14.805  43.907  14.491
28059W        W91816  44.918   4.348   0.955
28060W        W91817   5.338  28.157   3.685
28061W        W91818  40.504  44.849  12.355
28062W        W91819  31.605  36.364  10.914
28063W        W91820  31.412  42.884  12.838
28064W        W91821  21.204  17.761   2.331
28065W        W91822  24.567  42.915  12.474
28066W        W91823  15.254   8.830   1.723
28067W        W91824  32.895  22.543  12.457
28068W        W91825  28.936  19.566  13.386
28069W        W91826   8.895  10.710  10.521
28070W        W91827  31.065  16.697  13.408
28071W        W91828  20.200  21.755   1.847
28072W        W91829  24.210   8.205  13.808
28073W        W91830  13.126   2.921   1.251
28074W        W91831  14.153   8.769   2.893
28075W        W91832  24.045   0.413  11.606
28076W        W91833  17.117  21.080   5.271
28077W        W91834  13.827  38.838   4.217
28078W        W91835  39.528  16.774   2.676
28079W        W91836  43.856  11.703  12.873
28080W        W91837  18.278   0.804  11.593
28081W        W91838  42.894   1.752   2.304
28082W        W91839  33.470  39.883   1.792
28083W        W91840  16.623  29.117   2.307
28084W        W91841  40.865   6.804  10.925
28085W        W91842   2.332  14.256  10.016
28086W        W91843  23.657  40.315   3.340
28087W        W91844  25.173  38.878  11.390
28088W        W91845  34.407  22.725  12.371
28089W        W91846  37.357  14.226  13.000
28090W        W91847  29.938  21.192   3.353
28091W        W91848  12.320  37.542   3.784
28092W        W91849  31.468  28.581   0.407
28093W        W91850  26.563  22.165   3.819
28094W        W91851   1.841  41.806  12.490
28095W        W91852  25.521  21.645   9.938
28096W        W91853  27.966   4.909   0.471
28097W        W91854  36.993  26.204   2.771
28098W        W91855  30.477  16.584   1.715
28099W        W91856  38.870  35.492  12.025
28100W        W91857   3.394  35.083  12.892
28101W        W91858   9.154  11.352   2.827
28102W        W91859   0.985   6.384  12.043
28103W        W91860  26.186  10.800  11.418
28104W        W91861  36.544  13.339   0.966
28105W        W91862  11.805  28.492   3.214
28106W        W91863  12.257  10.716   2.766
28107W        W91864   0.310   3.887   3.844
28108W        W91865  36.481  26.475   2.701
28109W        W91866  32.563  32.005   4.726
28110W        W91867  19.751   2.311   3.771
28111W        W91868  37.029  10.331   2.220
28112W        W91869  16.315  37.960  13.989
28113W        W91870  44.002  37.927   4.348
28114W        W91871  38.056  33.563   0.297
28115W        W91872  28.557   5.324   1.847
28116W        W91873  41.967   6.746  12.352
28117W        W91874   7.905  40.338   4.150
28118W        W91875  27.478  22.007  11.459
28119W        W91876  24.212  15.810   2.900
28120W        W91877  13.715   2.776   1.343
28121W        W91878  22.224   9.875  11.377
28122W        W91879  28.527  36.570   3.799
28123W        W91880  13.214  31.412  11.930
28124W        W91881  36.961  34.418   0.880
28125W        W91882  38.420  31.531  12.362
28126W        W91883  12.306   0.747  12.896
28127W        W91884  18.134  22.235   2.415
28128W        W91885   7.707  21.624   4.782
28129W        W91886  11.647  14.278   0.837
28130W        W91887   3.279   0.944  12.450
28131W        W91888  24.021   0.470   3.778
28132W        W91889  28.963   5.439   4.740
28133W        W91890  32.062  35.994   1.240
28134W        W91891  29.645  43.416   3.863
28135W        W91892  26.134  41.428   4.153
28136W        W91893  16.634  39.524   1.341
28137W        W91894  29.989  17.279   2.819
28138W        W91895   2.259  12.717   2.885
28139W        W91896  11.323  27.679  12.039
28140W        W91897  18.189  12.122   2.721
28141W        W91898  37.529  15.754  13.954
28142W        W91899  25.540   2.285   2.729
28143W        W91900   5.231   9.255   0.414
28144W        W91901  22.574  14.117   0.859
28145W        W91902  13.241  38.891  11.496
28146W        W91903  44.866  13.706  14.483
28147W        W91904   6.251  20.665  14.761
28148W        W91905  40.950  17.728   1.360
28149W        W91906  28.458  20.182   1.361
28150W        W91907  25.470   4.735   0.931
28151W        W91908  38.914  42.382  11.476
28152W        W91909   5.743  39.987   4.208
28153W        W91910  34.396   7.377   4.164
28154W        W91911  41.003  27.952  12.908
28155W        W91912  16.643  36.969  14.450
28156W        W91913   2.904  21.073   0.289
28157W        W91914  43.831  22.143  14.766
28158W        W91915  33.025  39.016  13.050
28159W        W91916   6.838  11.791   2.215
28160W        W91917  22.211  28.970   2.772
28161W        W91918   6.206  14.157  14.787
28162W        W91919  15.214  17.732  12.511
28163W        W91920  30.026  25.204   0.774
28164W        W91921  31.422  18.296   0.302
28165W        W91922  18.121  28.491   0.465
28166W        W91923  10.378   9.680   1.927
28167W        W91924   6.203  20.161   3.251
28168W        W91925  12.234  42.292  11.562
28169W        W91926   9.679  31.453   2.806
28170W        W91927   4.212  17.569  14.963
28171W        W91928  10.237   9.260   1.871
28172W        W91929   9.849  26.122  13.908
28173W        W91930  28.455   5.848  11.454
28174W        W91931  40.413   7.313  11.500
28175W        W91932  21.590  24.121   3.325
28176W        W91933  40.053   0.780   3.150
28177W        W91934   3.414  23.609  13.871
28178W        W91935  19.226  22.024  12.513
28179W        W91936  38.907  10.185   3.154
28180W        W91937  36.956   9.159  13.994
28181W        W91938  21.152   5.893  10.464
28182W        W91939   1.736  30.507  10.568
28183W        W91940  33.946  31.474  13.896
28184W        W91941  22.739  34.103  12.571
28185W        W91942  30.455  43.954   2.693
28186W        W91943  23.092  15.194   1.415
28187W        W91944  40.405  12.750   1.252
28188W        W91945  28.643  32.408  13.467
28189W        W91946  37.497  35.415   2.679
28190W        W91947   7.411  42.887  14.846
28191W        W91948   8.360   0.477   4.299
28192W        W91949  11.275  35.041   3.633
28193W        W91950  22.192  19.255  12.441
28194W        W91951  38.939  28.611  14.949
28195W        W91952  44.387  23.112  14.029
28196W        W91953  37.897  10.322   4.351
28197W        W91954  34.083  26.478  10.522
28198W        W91955   4.918  36.491   0.345
28199W        W91956  28.562  29.071  13.877
28200W        W91957  30.533  37.430  12.023
28201W        W91958  38.436  28.502  13.340
28202W        W91959  13.724  16.770   3.191
28203W        W91960  12.725  11.810   2.702
28204W        W91961  33.603  31.404  14.998
28205W        W91962  14.714  21.126  14.399
28206W        W91963   5.756  36.029   1.288
28207W        W91964  37.022   1.781  12.971
28208W        W91965  28.099  11.683   9.991
28209W        W91966   5.786   5.390   0.935
28210W        W91967   3.758  37.446   0.842
28211W        W91968  24.632   4.793  10.587
28212W        W91969  34.102   2.884   0.439
28213W        W91970  22.174  32.404  12.932
28214W        W91971  30.089  29.538   4.821
28215W        W91972  41.967   0.845  10.609
28216W        W91973  34.990  31.147  13.341
28217W        W91974  30.103  33.118  14.979
28218W        W91975   6.342  34.933  11.468
28219W        W91976  34.599  23.996   1.820
28220W        W91977  23.622  13.166   1.806
28221W        W91978  24.615  14.145   1.286
28222W        W91979  34.088   6.387  12.527
28223W        W91980  15.664   7.814   0.856
28224W        W91981  14.690   4.708  14.013
28225W        W91982  42.483  30.608   2.794
28226W        W91983  20.167  31.933  11.892
28227W        W91984  40.343  11.686   2.219
28228W        W91985  28.511  29.669  13.490
28229W        W91986  15.216  34.591   2.287
28230W        W91987  16.789  21.695  10.923
28231W        W91988  31.646  41.446  13.795
28232W        W91989  23.522  25.633   0.804
28233W        W91990  26.146  27.472   1.803
28234W        W91991  39.851  12.118  11.505
28235W        W91992  42.455   2.811  11.076
28236W        W91993  20.196  44.847  14.817
28237W        W91994  12.349  22.639  10.583
28238W        W91995  21.567  15.797   5.137
28239W        W91996  11.327  25.530  13.838
28240W        W91997  28.971  31.063  12.412
28241W        W91998  19.604  34.501  12.545
28242W        W91999   9.366  31.071   3.317
28243W        W92000  13.840  15.248   1.786
28244W        W92001  35.971  22.149   3.368
28245W        W92002   5.199  25.131  10.589
28246W        W92003  17.792   3.460  14.983
28247W        W92004  27.627  16.206   3.845
28248W        W92005  41.889  38.009   1.232
28249W        W92006  43.969  26.104   0.759
28250W        W92007  28.551  34.995  10.911
28251W        W92008  17.789  29.554  10.480
28252W        W92009  31.035  30.013   0.810
28253W        W92010  33.604  40.990   2.396
28254W        W92011  25.097  19.709   4.279
28255W        W92012  27.000  44.346   9.944
28256W        W92013   1.735  14.274  11.935
28257W        W92014  26.498  26.168  11.561
28258W        W92015  18.577  39.033  14.968
28259W        W92016  10.174  16.576  11.104
28260W        W92017  44.825  25.526   2.358
28261W        W92018  22.062  29.021   4.141
28262W        W92019  43.386  30.106   2.309
28263W        W92020  32.986  42.472  13.327
28264W        W92021  38.492   9.733   3.764
28265W        W92022  28.964  33.434  12.926
28266W        W92023  24.133  42.515  13.923
28267W        W92024  13.345  16.284  14.418
28268W        W92025  31.470  31.507  14.288
28269W        W92026   7.329  42.031  11.046
28270W        W92027  17.599  19.590  10.606
28271W        W92028   2.322  11.304  14.791
28272W        W92029   2.934  31.485   3.291
28273W        W92030  26.166  22.240   0.315
28274W        W92031  34.927  15.814  14.761
28275W        W92032   2.799   4.925   0.474
28276W        W92033  39.924  44.482   0.282
28277W        W92034  31.563   3.740   4.203
28278W        W92035   1.798  27.946  11.606
28279W        W92036   0.263  16.771  13.885
28280W        W92037  28.660  29.044  11.507
28281W        W92038  33.464  10.197  11.400
28282W        W92039  21.695  18.779  11.907
28283W        W92040  30.992  16.161   3.286
28284W        W92041  15.760  28.620   4.307
28285W        W92042  22.192  33.407   5.287
28286W        W92043  18.653  38.494  12.893
28287W        W92044  34.008  23.722  12.021
28288W        W92045  36.896  12.229  13.436
28289W        W92046  21.142  36.486  12.992
28290W        W92047   8.332  11.303  12.477
28291W        W92048   1.379  34.046  10.461
28292W        W92049   2.723  42.403   3.651
28293W        W92050  36.035  33.100  14.483
28294W        W92051  16.618  11.645  10.541
28295W        W92052   8.815  44.006   4.175
28296W        W92053   7.305  10.252   3.654
28297W        W92054  31.129  12.735   1.282
28298W        W92055  29.115  22.603  11.506
28299W        W92056  43.901  35.456  11.474
28300W        W92057  38.918   9.686   1.346
28301W        W92058  24.020  23.046  11.413
28302W        W92059  32.127  23.181   4.295
28303W        W92060  31.058  37.968   3.343
28304W        W92061  25.178  38.966  10.933
28305W        W92062  38.059  26.659  11.569
28306W        W92063  37.935  31.974   4.693
28307W        W92064   6.234  29.485  14.971
28308W        W92065  40.527  40.311   1.394
28309W        W92066   3.375   3.873   4.353
28310W        W92067   1.464  33.415   0.364
28311W        W92068  22.208  12.672  14.007
28312W        W92069   2.871   2.960   0.812
28313W        W92070  20.120   3.723  14.284
28314W        W92071  25.471  26.683   3.829
28315W        W92072  28.510  38.037  13.930
28316W        W92073  28.936   4.898   1.787
28317W        W92074  31.104  42.836  13.883
28318W        W92075  38.015   2.444   2.848
28319W        W92076  14.638  18.168   3.821
28320W        W92077  33.460  30.492   3.322
28321W        W92078  43.284  41.472  12.094
28322W        W92079  26.142  30.964  14.835
28323W        W92080  34.875  35.568  14.023
28324W        W92081  28.104  21.629   4.784
28325W        W92082  12.789  11.806  11.534
28326W        W92083  24.188   1.469  14.897
28327W        W92084   1.850  28.180   1.223
28328W        W92085   4.236  43.926   2.772
28329W        W92086  38.560  39.517  14.933
28330W        W92087   1.304   7.710  13.798
28331W        W92088  21.213  11.334   2.375
28332W        W92089  22.089  42.886  13.825
28333W        W92090  42.319  41.905   4.812
28334W        W92091   5.770  27.124  11.933
28335W        W92092  10.275  12.794  13.061
28336W        W92093   1.814   7.794  11.108
28337W        W92094  18.560  44.271  12.855
28338W        W92095  22.014  30.095   0.850
28339W        W92096  13.824  26.632   1.222
28340W        W92097  32.081  21.107   0.751
28341W        W92098   8.337  38.370   2.410
28342W        W92099  13.725  37.523   4.822
28343W        W92100  23.063  37.889   2.265
28344W        W92101  37.548   2.910   3.721
28345W        W92102  11.183  30.537  10.418
28346W        W92103  31.042  19.550   9.956
28347W        W92104  18.075  43.293   2.671
28348W        W92105  37.955  11.685   2.413
28349W        W92106  21.161   3.421   2.243
28350W        W92107  34.574  39.380  12.827
28351W        W92108  18.222  37.453  14.350
28352W        W92109   4.901  44.847  11.374
28353W        W92110  44.845   3.803   4.731
28354W        W92111  27.173  23.509   0.749
28355W        W92112   8.276  18.714  12.002
28356W        W92113  19.077  22.668   0.459
28357W        W92114  29.015  10.240  10.057
28358W        W92115  21.027  32.060  12.445
28359W        W92116   9.362   0.761   2.290
28360W        W92117  14.233  37.903  13.384
28361W        W92118   0.256  14.275   1.768
28362W        W92119   5.409  25.541  13.385
28363W        W92120  44.784  30.611   2.740
28364W        W92121  34.566  29.166  14.844
28365W        W92122  17.191  21.125   2.897
28366W        W92123  28.660  42.949   2.776
28367W        W92124  24.597  25.660  12.421
28368W        W92125  25.184  14.136   3.809
28369W        W92126  13.136   2.966  13.482
28370W        W92127  18.066   7.210  12.450
28371W        W92128  42.844  28.524  10.587
28372W        W92129  17.571   0.336  14.427
28373W        W92130  23.110   1.370  12.575
28374W        W92131  37.891  27.541  11.501
28375W        W92132  17.176  20.600  12.905
28376W        W92133  22.017   0.910  13.340
28377W        W92134  13.634  32.460  11.980
28378W        W92135  18.151   2.749  10.404
28379W        W92136  39.906  10.309   3.723
28380W        W92137  32.573  14.628   0.962
28381W        W92138   1.946  10.840   0.847
28382W        W92139  23.613  26.606  11.572
28383W        W92140  12.634   5.930  10.996
28384W        W92141  33.125   1.854   0.845
28385W        W92142  25.978  11.170  13.534
28386W        W92143  18.247  33.621   1.721
28387W        W92144  42.838  32.093  13.917
28388W        W92145  18.791  42.377   0.835
28389W        W92146  16.606  12.300   2.411
28390W        W92147  26.462  12.249   2.301
28391W        W92148   5.237  39.992  13.913
28392W        W92149  33.917  30.973   2.390
28393W        W92150  17.771  27.663   3.375
28394W        W92151  16.240  17.152  10.150
28395W        W92152  42.977  10.644   0.959
28396W        W92153   0.376  13.669   1.324
28397W        W92154  39.314  28.929  13.916
28398W        W92155  24.153  29.535  13.826
28399W        W92156  17.672  17.751   4.653
28400W        W92157  41.793  30.564   4.700
28401W        W92158  24.083  25.530  13.460
28402W        W92159  20.655  36.492   2.367
28403W        W92160   5.287  15.175   4.820
28404W        W92161  12.789  28.107  13.978
28405W        W92162   3.369  12.124   1.389
28406W        W92163  20.152  16.103   4.750
28407W        W92164  40.377  43.314  13.016
28408W        W92165  31.949  12.337   0.279
28409W        W92166  14.729  28.458   1.744
28410W        W92167  42.854   9.297   5.285
28411W        W92168  30.059   9.806  10.606
28412W        W92169  38.427  12.202  14.487
28413W        W92170  34.416  10.794  13.825
28414W        W92171   8.261  21.546   2.203
28415W        W92172  43.368  27.972  11.949
28416W        W92173  19.174  42.897  12.559
28417W        W92174  10.176   9.862  14.419
28418W        W92175  44.486   4.919  12.094
28419W        W92176   2.742   4.349  11.103
28420W        W92177  22.603   8.659  12.843
28421W        W92178  38.979  20.182  14.316
28422W        W92179  38.913   9.869  14.408
28423W        W92180  23.605  37.454  14.455
28424W        W92181  37.983  30.521   3.192
28425W        W92182   5.735  18.655   3.317
28426W        W92183   1.874  23.731  14.513
28427W        W92184   5.205  26.966  13.888
28428W        W92185  13.175  36.525  13.997
28429W        W92186  24.178  18.151  12.885
28430W        W92187  22.518  21.240  11.005
28431W        W92188  29.027  18.766   1.451
28432W        W92189  34.903  10.769  10.517
28433W        W92190   3.378  23.633  10.497
28434W        W92191  42.376  11.322  10.965
28435W        W92192  18.216   9.762   3.790
28436W        W92193  12.737  21.568  12.086
28437W        W92194  28.038  31.965   0.848
28438W        W92195  35.402  24.989  12.845
28439W        W92196  12.191  26.643  13.312
28440W        W92197   9.287  15.142  14.437
28441W        W92198  41.524   6.902  14.393
28442W        W92199  17.106   4.876   2.883
28443W        W92200  13.211  18.288   5.201
28444W        W92201   9.385  19.046   2.681
28445W        W92202  10.182  26.489  11.873
28446W        W92203   3.719  42.391   2.296
28447W        W92204  14.750  25.969  12.042
28448W        W92205   9.786  41.871   4.222
28449W        W92206  21.565   5.862   3.272
28450W        W92207  23.984  35.964  11.560
28451W        W92208  41.882  23.525  11.027
28452W        W92209  44.914  22.140  14.406
28453W        W92210   7.410   3.807  10.512
28454W        W92211  24.102  18.145  13.513
28455W        W92212   0.798  28.674   4.733
28456W        W92213  43.492  18.659   0.253
28457W        W92214   9.706  13.273   3.238
28458W        W92215  36.078  29.090   1.716
28459W        W92216  33.485   5.347   5.212
28460W        W92217  26.686  35.487  13.480
28461W        W92218  28.629  19.151  11.492
28462W        W92219  12.669  18.073   4.160
28463W        W92220  27.469  25.124  13.342
28464W        W92221  18.640   7.764  13.908
28465W        W92222  17.657  27.630   2.716
28466W        W92223   9.851   7.205  12.930
28467W        W92224   9.726  35.390   0.342
28468W        W92225  12.831  14.785   0.246
28469W        W92226  13.228  31.543   3.773
28470W        W92227  17.154  41.353   5.306
28471W        W92228  26.041  28.633  12.386
28472W        W92229  27.667  20.211  11.962
28473W        W92230  22.711   7.776  11.513
28474W        W92231   9.880  23.152   2.700
28475W        W92232  29.531  24.195  11.401
28476W        W92233   3.243  43.948  11.476
28477W        W92234  44.764  22.504  14.347
28478W        W92235  30.490   5.319  13.919
28479W        W92236   8.227  15.190  10.894
28480W        W92237  30.987   4.727  12.486
28481W        W92238  41.493  23.656  12.881
28482W        W92239   1.976  24.054   3.253
28483W        W92240  15.216  14.782  14.444
28484W        W92241  25.582  33.989   3.847
28485W        W92242  10.212  17.067   0.356
28486W        W92243  39.905   1.936  14.797
28487W        W92244  25.012  17.786   0.914
28488W        W92245  41.480  22.084  14.341
28489W        W92246   4.403   2.742  13.337
28490W        W92247  30.503  28.539  10.964
28491W        W92248  28.548  27.590  13.876
28492W        W92249  30.532   1.946  14.339
28493W        W92250   6.231  41.380   4.117
28494W        W92251  12.614  16.163  13.538
28495W        W92252  12.688   2.957  12.982
28496W        W92253  20.748  32.453   5.147
28497W        W92254  42.322  30.517  12.895
28498W        W92255  17.230  26.170   1.894
28499W        W92256  20.203  28.066  12.450
28500W        W92257  14.737  39.553  14.818
28501W        W92258  34.026  21.550  12.374
28502W        W92259  22.713  28.149  12.999
28503W        W92260  12.295  20.199   2.786
28504W        W92261  23.097   8.893   4.744
28505W        W92262  25.087  25.149  11.961
28506W        W92263  34.536  34.984   1.346
28507W        W92264   7.880   6.922  12.547
28508W        W92265   8.396   9.362  11.393
28509W        W92266  23.593  11.752   2.253
28510W        W92267  26.037  25.129  10.042
28511W        W92268   8.780  31.047   4.271
28512W        W92269   4.852  17.188  11.552
28513W        W92270  18.073  37.053   4.147
28514W        W92271   2.870  19.207   3.704
28515W        W92272  21.129  15.747   2.845
28516W        W92273  21.742   5.716  13.542
28517W        W92274  30.484   2.415   3.302
28518W        W92275  25.702   0.824  14.962
28519W        W92276  33.974   3.220   1.426
28520W        W92277  24.593   5.196  12.825
28521W        W92278  15.644   1.860  12.843
28522W        W92279  24.696   7.195  10.999
28523W        W92280  31.917  32.984   0.831
28524W        W92281  23.228  44.422  13.438
28525W        W92282  15.097  24.216  12.914
28526W        W92283  44.476  22.997  11.060
28527W        W92284  43.015   1.859   4.700
28528W        W92285  43.438  35.873   2.295
28529W        W92286  44.836   4.333   3.256
28530W        W92287   7.894   0.844  13.460
28531W        W92288  37.444  31.036  11.046
28532W        W92289  38.446   8.178  12.410
28533W        W92290  12.326  26.630  14.947
28534W        W92291  15.271  36.357   2.691
28535W        W92292  39.912   3.954  14.821
28536W        W92293  43.863  41.846  10.892
28537W        W92294  43.487   1.464  11.112
28538W        W92295  35.503  33.993  11.560
28539W        W92296  30.522  22.090   1.266
28540W        W92297  13.747  12.142   3.186
28541W        W92298  14.282  36.572  13.353
28542W        W92299  18.270   3.361   1.930
28543W        W92300  37.999  31.915  14.335
28544W        W92301  27.609  24.121  11.886
28545W        W92302  13.339   6.318   3.380
28546W        W92303  44.505  29.130  10.120
28547W        W92304   5.839  41.469   2.711
28548W        W92305  27.461  43.358  11.534
28549W        W92306  18.117   0.321   3.759
28550W        W92307  30.480  42.861   4.341
28551W        W92308   5.245  16.165   3.210
28552W        W92309  31.621  18.699   0.796
28553W        W92310  36.469  18.231   2.891
28554W        W92311  14.686  20.262  10.462
28555W        W92312  26.600  16.793  10.498
28556W        W92313   7.232   5.705   0.952
28557W        W92314  20.632  20.537   2.198
28558W        W92315  40.923  20.620   2.360
28559W        W92316  13.322   4.356   0.375
28560W        W92317  14.104  37.501   0.768
28561W        W92318  32.999  21.126  11.486
28562W        W92319  21.705  30.022   4.227
28563W        W92320  38.339  11.359   2.185
28564W        W92321  44.384   4.741   1.916
28565W        W92322  12.149  32.595  10.920
28566W        W92323  39.478  13.314   3.271
28567W        W92324  40.512  14.737   0.779
28568W        W92325  36.397  25.650   4.775
28569W        W92326   8.296  37.400  14.321
28570W        W92327  44.007   5.928  10.500
28571W        W92328   4.312  30.975  13.040
28572W        W92329   4.414  44.900   1.764
28573W        W92330  44.904  22.546   2.769
28574W        W92331   5.898   1.277  13.939
28575W        W92332  34.503  27.180   2.202
28576W        W92333   4.211  15.314   3.736
28577W        W92334  25.586  19.609   1.729
28578W        W92335  22.220  41.789   4.695
28579W        W92336  42.882   9.255   3.810
28580W        W92337   7.171  24.552  11.478
28581W        W92338   6.259   2.453   3.326
28582W        W92339  40.384  13.130   2.870
28583W        W92340  14.327  13.153   1.284
28584W        W92341  26.032   4.761   0.788
28585W        W92342  43.365  35.026   4.145
28586W        W92343  35.003  37.476  12.405
28587W        W92344  41.431  11.324  11.580
28588W        W92345  33.037   7.763  12.865
28589W        W92346  10.863  25.686   4.798
28590W        W92347  29.071  40.899  12.438
28591W        W92348   6.905  25.170  14.824
28592W        W92349  24.563  31.027   2.691
28593W        W92350  40.816  43.496  12.465
28594W        W92351   3.721  14.195  11.538
28595W        W92352  14.326  25.185  10.564
28596W        W92353  21.543  10.864  13.887
28597W        W92354  44.277  20.692  11.054
28598W        W92355   6.890  29.602   1.317
28599W        W92356   7.339   9.231   2.714
28600W        W92357  35.065  25.567  11.906
28601W        W92358  37.901  42.481   3.636
28602W        W92359  44.777  17.244   4.119
28603W        W92360  38.353  10.379  10.614
28604W        W92361   8.799  14.643  14.769
28605W        W92362  17.669  21.574   2.361
28606W        W92363  38.496  18.095   2.868
28607W        W92364  32.100  35.033  13.533
28608W        W92365  35.027  24.512   4.743
28609W        W92366  25.662  17.161  10.984
28610W        W92367  30.440  38.404  10.888
28611W        W92368  20.605   0.302   4.773
28612W        W92369  17.233  32.465  14.304
28613W        W92370  39.849  10.330   0.243
28614W        W92371   2.938  27.948   2.192
28615W        W92372   7.210  22.240   4.139
28616W        W92373  43.867  10.792   3.727
28617W        W92374  38.369   9.698   2.794
28618W        W92375  19.239   1.887   2.182
28619W        W92376  38.474  13.273  11.944
28620W        W92377  27.998  21.222   0.936
28621W        W92378   5.264  42.980  10.602
28622W        W92379  42.341  34.957   2.867
28623W        W92380  11.640  28.002   2.315
28624W        W92381  11.826  21.745  13.863
28625W        W92382   8.285  27.604  13.406
28626W        W92383   8.654   8.844  13.806
28627W        W92384  43.463  33.129  13.517
28628W        W92385  29.495  23.728  13.308
28629W        W92386  35.079   3.457  14.916
28630W        W92387  21.614  41.792  14.846
28631W        W92388   1.379  19.772  12.387
28632W        W92389  10.805  41.353   0.754
28633W        W92390  44.331  27.003   1.840
28634W        W92391  16.207  17.305  10.958
28635W        W92392  24.217  35.451  12.880
28636W        W92393   6.208  38.026  11.395
28637W        W92394   9.150  12.805  11.477
28638W        W92395  21.701  26.137  14.945
28639W        W92396   7.324  26.085  11.930
28640W        W92397   2.317  36.398   4.729
28641W        W92398  19.727  28.113  12.892
28642W        W92399  42.001  27.519   2.698
28643W        W92400   1.828  31.558  11.001
28644W        W92401  26.985  30.126  13.825
28645W        W92402  41.969  39.881   1.413
28646W        W92403  25.544  22.070  12.095
28647W        W92404   2.397  24.568   0.795
28648W        W92405  20.167   4.418   4.252
28649W        W92406  36.852  32.488  12.432
28650W        W92407  10.711  12.272   1.410
28651W        W92408   7.307   8.715   2.282
28652W        W92409  10.650  43.435   1.889
28653W        W92410  43.312  12.684  14.824
28654W        W92411  16.124   0.819   0.961
28655W        W92412  20.718  18.160  11.454
28656W        W92413  43.307  34.429   0.843
28657W        W92414  22.518  29.122   2.239
28658W        W92415  13.302  22.205   1.412
28659W        W92416  11.272   8.273   0.771
28660W        W92417  19.269  38.046   3.845
28661W        W92418   8.892  36.949  11.380
28662W        W92419  26.129   3.773  12.462
28663W        W92420  23.718  13.345  12.074
28664W        W92421  16.679  29.478   0.937
28665W        W92422  44.415  13.330  11.891
28666W        W92423   0.249  17.795  11.944
28667W        W92424  15.736  12.237  10.042
28668W        W92425  19.655   9.799   3.822
28669W        W92426  22.536  15.619  10.012
28670W        W92427  31.617   3.214   4.798
28671W        W92428   6.921  28.591   4.176
28672W        W92429  10.172   1.430   1.735
28673W        W92430  27.496  25.970   4.633
28674W        W92431  12.795  31.017   3.783
28675W        W92432  37.401  43.466   2.230
28676W        W92433  19.103  16.233  13.407
28677W        W92434  36.459  16.748   2.772
28678W        W92435   5.289  29.431  14.442
28679W        W92436  30.011  13.274   1.326
28680W        W92437  41.383  31.516  13.964
28681W        W92438   5.196  27.152   0.422
28682W        W92439  14.119   6.699   4.315
28683W        W92440   5.311  22.540  11.423
28684W        W92441  13.743  10.361   0.915
28685W        W92442  10.805  10.288  11.958
28686W        W92443  38.045  11.287   0.819
28687W        W92444  42.823   7.297  14.325
28688W        W92445  25.586  25.984   1.352
28689W        W92446  30.426  20.139   3.340
28690W        W92447  44.931  44.829  12.572
28691W        W92448  32.559  30.924   1.901
28692W        W92449  28.559  43.778   2.204
28693W        W92450  29.966  32.535   2.787
28694W        W92451   6.263  14.132   2.685
28695W        W92452  25.630  21.263   3.714
28696W        W92453  42.819  22.682   0.849
28697W        W92454  29.435   9.821  10.632
28698W        W92455  37.949   3.398  13.798
28699W        W92456  44.778  36.520  12.018
28700W        W92457  44.882  15.758  11.526
28701W        W92458  22.599  43.445   3.189
28702W        W92459  42.447  10.792  11.450
28703W        W92460  13.243   9.748   3.218
28704W        W92461  25.610  25.970   1.745
28705W        W92462  41.961  43.285  11.119
28706W        W92463  33.016  16.785  10.959
28707W        W92464  21.753  21.757   2.836
28708W        W92465  27.653  18.652   1.778
28709W        W92466  12.214  33.072   3.288
28710W        W92467  34.873  31.479   0.739
28711W        W92468  35.930  26.019   2.864
28712W        W92469  27.050  44.891   1.861
28713W        W92470   1.428  27.569   1.823
28714W        W92471  39.967  35.453  11.379
28715W        W92472  28.953  38.822   1.732
28716W        W92473  38.330  29.570   4.326
28717W        W92474  29.613  34.864  14.309
28718W        W92475  17.699  30.972  14.846
28719W        W92476  28.074  32.482  13.328
28720W        W92477  22.214  41.444  10.605
28721W        W92478  38.061   7.325   4.822
28722W        W92479  34.119   9.349  14.318
28723W        W92480   6.356  29.109  10.003
28724W        W92481  10.636  29.470  10.942
28725W        W92482  31.134   2.800   1.342
28726W        W92483  12.247  24.658  14.002
28727W        W92484   3.241  14.719  10.539
28728W        W92485  28.999  34.956   0.283
28729W        W92486   3.431   3.351  11.524
28730W        W92487  26.106  27.002   4.615
28731W        W92488  40.529  13.752  12.444
28732W        W92489  31.017  32.111  10.595
28733W        W92490  44.990   3.256  13.350
28734W        W92491  21.120  38.842  14.854
28735W        W92492  44.264  23.066   1.396
28736W        W92493  44.905  38.531   0.429
28737W        W92494  19.117   5.854   4.216
28738W        W92495   7.258  38.947  13.473
28739W        W92496   9.394  16.284  14.432
28740W        W92497  36.896  35.938  14.814
28741W        W92498   6.206  39.893   4.687
28742W        W92499  27.049   5.893   2.781
28743W        W92500  38.075   7.283   5.187
28744W        W92501   8.681  38.530  12.902
28745W        W92502  19.105   3.843  11.398
28746W        W92503  19.736  18.631   2.307
28747W        W92504  27.139  42.896   3.276
28748W        W92505   3.907  41.020  11.438
28749W        W92506  22.089  16.633   3.686
28750W        W92507  22.243  18.647  13.958
28751W        W92508  27.053  38.484   3.290
28752W        W92509  13.734  29.581   4.704
28753W        W92510   8.700  23.567   0.465
28754W        W92511   6.420   0.364  12.555
28755W        W92512  39.881   5.423   3.304
28756W        W92513  37.534  26.162   0.875
28757W        W92514  43.900  44.792  13.963
28758W        W92515   2.272  20.226   2.278
28759W        W92516  26.177  43.895   2.369
28760W        W92517   5.776  33.612   2.687
28761W        W92518  12.654   6.368   2.374
28762W        W92519  16.298  13.349  11.042
28763W        W92520   0.347  15.151  10.608
28764W        W92521  16.765  28.484   0.828
28765W        W92522  30.480  23.550  12.060
28766W        W92523  22.683  42.013   4.654
28767W        W92524  23.580  15.159  12.575
28768W        W92525  13.112  21.235   2.189
28769W        W92526  44.944  11.324  12.348
28770W        W92527  36.426   2.262   0.917
28771W        W92528  32.554  17.186   0.902
28772W        W92529  42.470  15.223  11.091
28773W        W92530   9.157   0.300   0.882
28774W        W92531  43.890   2.261  14.913
28775W        W92532  32.966  17.794   2.671
28776W        W92533   5.325   5.439   2.298
28777W        W92534  22.588  14.590  12.959
28778W        W92535  18.055   1.861  13.393
28779W        W92536  10.270  30.128  12.888
28780W        W92537  20.634  34.501  10.958
28781W        W92538   3.806  24.714   1.697
28782W        W92539  26.057  44.422   2.259
28783W        W92540  25.209  20.104  12.022
28784W        W92541   1.274  26.574   2.371
28785W        W92542  26.997  35.577  14.803
28786W        W92543  21.218  35.865   4.682
28787W        W92544  40.370   9.206   3.241
28788W        W92545   0.250  13.211   1.848
28789W        W92546  20.721  28.631   3.637
28790W        W92547  17.586  10.859  10.971
28791W        W92548  40.539  20.131   4.653
28792W        W92549  30.907  29.942  14.925
28793W        W92550   2.271  39.404   3.318
28794W        W92551   7.322   7.840  11.889
28795W        W92552  28.035  15.091  13.870
28796W        W92553   7.767   8.347  13.545
28797W        W92554  14.739  32.094   3.812
28798W        W92555   0.463  16.216   3.326
28799W        W92556  33.538   6.699   4.823
28800W        W92557  11.321  31.965   0.420
28801W        W92558  30.151  44.001  14.992
28802W        W92559  41.854   9.826  13.417
28803W        W92560  22.717  25.040   4.708
28804W        W92561  36.857  11.806  10.909
28805W        W92562  10.734  20.602  13.409
28806W        W92563  40.496   4.309   5.159
28807W        W92564  26.459  37.512   1.923
28808W        W92565   4.436  17.254   2.670
28809W        W92566  33.609  33.385   3.172
28810W        W92567  42.904  42.519   0.406
28811W        W92568  31.448  27.607  12.886
28812W        W92569  20.611  41.806   1.780
28813W        W92570  38.025   3.828   3.294
28814W        W92571  36.885  29.103  12.968
28815W        W92572  19.762   9.164   3.208
28816W        W92573  20.756  43.877  11.983
28817W        W92574   8.297   2.751  10.571
28818W        W92575  33.405  32.990   0.917
28819W        W92576  38.537  38.456   0.869
28820W        W92577  31.022  35.376   4.290
28821W        W92578   8.758   9.327   2.276
28822W        W92579  41.996  18.053  13.375
28823W        W92580  37.416   3.726   3.687
28824W        W92581  10.852  15.131   4.248
28825W        W92582   5.697  39.433   1.915
28826W        W92583  38.860  32.440  14.919
28827W        W92584  20.062  32.117  12.362
28828W        W92585  15.695  34.936  11.478
28829W        W92586  35.046   6.872  11.499
28830W        W92587   5.776   7.282  13.039
28831W        W92588  27.034  18.221   3.802
28832W        W92589  43.903  35.902   4.347
28833W        W92590  27.506  36.012  10.901
28834W        W92591  17.599  37.988  11.110
28835W        W92592   1.344  12.616   2.661
28836W        W92593  43.971  13.771  13.826
28837W        W92594   2.934  42.883  11.862
28838W        W92595   7.885  30.599  10.530
28839W        W92596  39.475  17.282  13.440
28840W        W92597  20.222  30.009   2.674
28841W        W92598  34.440  40.846  12.898
28842W        W92599  44.953   4.718   0.869
28843W        W92600  10.668  10.813   1.252
28844W        W92601  22.542  36.085  14.850
28845W        W92602  35.548  28.445   2.391
28846W        W92603  33.436   8.344  11.044
28847W        W92604  32.070  31.406  14.865
28848W        W92605  18.655   6.797  12.355
28849W        W92606  18.563   0.873  11.451
28850W        W92607  23.573  40.501   0.766
28851W        W92608   0.401  14.765   0.319
28852W        W92609  18.743   6.327  14.823
28853W        W92610  12.168  34.909   3.716
28854W        W92611  40.841  41.980  12.964
28855W        W92612   7.744   7.898  14.386
28856W        W92613  28.490  28.538   4.608
28857W        W92614  36.039  24.052   3.688
28858W        W92615  13.688   9.318  10.520
28859W        W92616  41.015  22.727   3.311
28860W        W92617  25.603   8.392   0.912
28861W        W92618  24.030  16.314  12.512
28862W        W92619  32.954  10.174  14.311
28863W        W92620  38.477  11.258   0.781
28864W        W92621  38.359  15.297   3.827
28865W        W92622  17.160  29.081   2.285
28866W        W92623   0.368  13.181  11.965
28867W        W92624   1.320  34.959   4.686
28868W        W92625  20.039  40.930   2.801
28869W        W92626  44.909  37.551  10.991
28870W        W92627  23.527  39.346  14.298
28871W        W92628  37.944   4.866   4.273
28872W        W92629  20.595  27.596   3.243
28873W        W92630  27.539  26.081   1.319
28874W        W92631  23.096  34.088   2.724
28875W        W92632   4.258  40.356   1.837
28876W        W92633   4.415  38.942  12.506
28877W        W92634   3.834  11.698  14.432
28878W        W92635  28.034  11.293   0.794
28879W        W92636  14.769  28.021   0.349
28880W        W92637  13.722  33.046   4.757
28881W        W92638  30.927   1.848   3.776
28882W        W92639  18.203  30.068  10.511
28883W        W92640  29.130  16.114   1.275
28884W        W92641   1.462  26.509  14.936
28885W        W92642  20.054  30.908   0.326
28886W        W92643  17.800  36.082  12.401
28887W        W92644  36.910  32.531   3.159
28888W        W92645  26.185  44.419  10.119
28889W        W92646  17.250  29.492  14.320
28890W        W92647   3.244  10.280  10.521
28891W        W92648  41.310  24.113   4.162
28892W        W92649  19.714  31.414  13.398
28893W        W92650   3.410  41.897   4.739
28894W        W92651  18.072  24.672   1.823
28895W        W92652  10.147  14.206   5.292
28896W        W92653  29.069  43.400   4.336
28897W        W92654   6.816  21.168  12.975
28898W        W92655  21.537  26.992   3.171
28899W        W92656  43.941  10.690  11.561
28900W        W92657  38.002  39.838   1.406
28901W        W92658  14.208   8.238  11.469
28902W        W92659   6.848  40.320  12.006
28903W        W92660  41.292  38.976   2.706
28904W        W92661  20.130  28.657  14.317
28905W        W92662  11.143  32.069  11.031
28906W        W92663  26.049   2.341   0.766
28907W        W92664   6.315  40.379  13.509
28908W        W92665  31.511  21.609   3.177
28909W        W92666  35.993  16.192  13.040
28910W        W92667   8.863   5.198  10.451
28911W        W92668  32.591  36.949   2.307
28912W        W92669  27.992  27.633  14.830
28913W        W92670   6.823  20.031   2.821
28914W        W92671   4.400   4.778   2.377
28915W        W92672  12.746   4.864   1.893
28916W        W92673  30.109  33.411  13.379
28917W        W92674  40.506  11.725   1.343
28918W        W92675  33.423  18.619  10.899
28919W        W92676  32.426  24.584  13.019
28920W        W92677  39.003  37.343  14.960
28921W        W92678  10.815   9.187   2.338
28922W        W92679   3.765  42.300  11.921
28923W        W92680  35.573  44.350  14.482
28924W        W92681  11.341   2.952  12.831
28925W        W92682   8.190  23.621  11.491
28926W        W92683  12.750  31.473  14.513
28927W        W92684  11.229  17.670   5.239
28928W        W92685   0.985  40.469   1.717
28929W        W92686  26.698  32.967  13.806
28930W        W92687   4.279  39.047  10.517
28931W        W92688  33.121  35.048  13.925
28932W        W92689  22.548  13.763   4.131
28933W        W92690  26.977  11.195  11.904
28934W        W92691  40.421  23.559  12.518
28935W        W92692   4.206  20.623  12.469
28936W        W92693  34.437  19.276   1.809
28937W        W92694  43.335  40.976   2.344
28938W        W92695  25.551  42.403   0.844
28939W        W92696  14.600  10.195   0.924
28940W        W92697   9.773  17.642   1.909
28941W        W92698  17.573   1.307  14.939
28942W        W92699  37.867  33.406  10.570
28943W        W92700  32.913  13.827   2.903
28944W        W92701  33.064   1.883  14.889
28945W        W92702  12.329  26.689   1.899
28946W        W92703   0.936   9.225  12.361
28947W        W92704  29.926  42.972   2.224
28948W        W92705  27.180  16.812   5.291
28949W        W92706   8.216  38.004   3.269
28950W        W92707   2.314  14.599   1.406
28951W        W92708  44.808  32.031  10.955
28952W        W92709  20.723  42.520  12.047
28953W        W92710  27.018  25.532   9.453
28954W        W92711  40.304  30.543  11.895
28955W        W92712  41.991  39.475   2.750
28956W        W92713  12.133  21.255  11.128
28957W        W92714  12.829  17.662   2.734
28958W        W92715  13.286  36.977   0.853
28959W        W92716  34.032  20.608  11.503
28960W        W92717  23.164  35.094   3.190
28961W        W92718   2.727  39.900   1.271
28962W        W92719   0.356   8.769   0.450
28963W        W92720   2.947  41.860  14.293
28964W        W92721   7.668  44.822   1.305
28965W        W92722  18.754  30.062   3.356
28966W        W92723  11.626  39.550   4.654
28967W        W92724  38.915  37.492   2.896
28968W        W92725  38.916  29.539  13.334
28969W        W92726  11.825   4.904   2.741
28970W        W92727  16.318  38.837   1.403
28971W        W92728  32.964   0.417   0.467
28972W        W92729  41.961  38.986  12.535
28973W        W92730  20.620  30.528   0.965
28974W        W92731  38.918  34.393  10.447
28975W        W92732  24.724   2.338   0.353
28976W        W92733  20.098  19.206   3.260
28977W        W92734  14.315   9.394   2.873
28978W        W92735  17.592  42.021  14.993
28979W        W92736   5.387   5.736  13.430
28980W        W92737  11.668  19.611   3.268
28981W        W92738   2.918   9.190  14.358
28982W        W92739   5.226   8.378  14.495
28983W        W92740  39.439  31.616  14.762
28984W        W92741  31.072  25.005  12.478
28985W        W92742   8.805  26.666  13.351
28986W        W92743   0.368  26.202  10.431
28987W        W92744  35.950  34.562   4.657
28988W        W92745  30.551   8.688  10.978
28989W        W92746  35.374  25.974   2.839
28990W        W92747  25.046  32.087  13.356
28991W        W92748  37.346  40.041   0.465
28992W        W92749  39.931  16.082   2.697
28993W        W92750  14.697  32.407   1.357
28994W        W92751   2.452  22.233  14.980
28995W        W92752  16.279  36.017   2.263
28996W        W92753  38.912   1.378   0.442
28997W        W92754   7.738  15.803   5.177
28998W        W92755  17.604  14.125  12.842
28999W        W92756  33.008  13.689   3.729
29000W        W92757  18.130  14.217   0.245
29001W        W92758  41.869  32.603   2.758
29002W        W92759  40.028  30.074  14.965
29003W        W92760  32.932  10.225  12.423
29004W        W92761  43.961  39.481  10.641
29005W        W92762  28.532  15.815  13.945
29006W        W92763  17.714  13.748   3.871
29007W        W92764  17.183  23.699   2.244
29008W        W92765  37.540   6.275   3.720
29009W        W92766  15.692  43.887   3.718
29010W        W92767  33.088   0.885   3.738
29011W        W92768  40.455  13.261  14.482
29012W        W92769  23.145   1.462   4.256
29013W        W92770  12.208   9.889  14.981
29014W        W92771   7.205   3.717  11.509
29015W        W92772  33.947   1.290   2.247
29016W        W92773  23.730  13.719  11.076
29017W        W92774   4.283  21.561   2.893
29018W        W92775  44.872  20.059  13.825
29019W        W92776  39.519  12.808  11.935
29020W        W92777  26.675  42.986  10.979
29021W        W92778  25.509  41.456  11.900
29022W        W92779  38.449  30.107  11.467
29023W        W92780  36.920  13.766   2.836
29024W        W92781  15.142  41.853   5.786
29025W        W92782   5.216  27.652   1.843
29026W        W92783  15.133   9.173   1.338
29027W        W92784  10.714  16.110  13.537
29028W        W92785  19.245  33.996   2.876
29029W        W92786  19.152  20.207   2.348
29030W        W92787  40.921   3.352  12.557
29031W        W92788   5.432  22.699  13.499
29032W        W92789  10.777  23.676   4.723
29033W        W92790  19.602  19.693  10.953
29034W        W92791  13.617  24.661   4.280
29035W        W92792   4.900   9.227   3.766
29036W        W92793   6.911  18.275   4.608
29037W        W92794  21.182  21.219  11.463
29038W        W92795   1.946  38.442   3.218
29039W        W92796  33.503  35.046  13.018
29040W        W92797  24.522  12.734   4.199
29041W        W92798  19.180   9.348   0.387
29042W        W92799  16.586   4.437  10.930
29043W        W92800   2.301  18.065  13.041
29044W        W92801  23.181  24.164  12.021
29045W        W92802  15.120   1.258  13.897
29046W        W92803  37.548   7.236   1.746
29047W        W92804   5.695  15.577   1.382
29048W        W92805   8.321  15.638   9.941
29049W        W92806  29.015  32.001   1.712
29050W        W92807  30.545  38.447   1.320
29051W        W92808  39.520  36.544  13.434
29052W        W92809  12.829  18.667  12.071
29053W        W92810  25.467   3.836   0.863
29054W        W92811  12.212  44.464   2.224
29055W        W92812  12.741  30.455   1.857
29056W        W92813  41.347  42.454  14.338
29057W        W92814  35.451  30.094   3.778
29058W        W92815  26.593  18.693  13.912
29059W        W92816  43.943  40.809   4.831
29060W        W92817  32.951   6.375   3.844
29061W        W92818  15.587  38.490   2.360
29062W        W92819  16.674   6.287  10.539
29063W        W92820  28.641   7.701  12.478
29064W        W92821  29.105  22.136  12.433
29065W        W92822   6.423  17.290  13.860
29066W        W92823  32.582  23.647   0.441
29067W        W92824  30.941  14.674   5.267
29068W        W92825  26.178  44.929  10.578
29069W        W92826  37.038   8.734  14.826
29070W        W92827  18.239  11.167   5.678
29071W        W92828  20.729  28.546  13.508
29072W        W92829  31.473  29.102  13.427
29073W        W92830  20.728  36.546   0.468
29074W        W92831  26.177  44.755   2.281
29075W        W92832  33.613   4.443   2.797
29076W        W92833  20.751  39.056  14.428
29077W        W92834  25.148  18.065   4.325
29078W        W92835  23.037  23.613  10.430
29079W        W92836  33.409  44.881  12.982
29080W        W92837  37.831  11.183   4.606
29081W        W92838   8.669  27.143  11.386
29082W        W92839  31.109   3.407  12.862
29083W        W92840   9.683  36.882   0.823
29084W        W92841  40.525  33.109   1.248
29085W        W92842  16.684  32.946   0.323
29086W        W92843   3.925  15.201  11.945
29087W        W92844  11.128  10.758  13.491
29088W        W92845   1.406  35.403   0.411
29089W        W92846  25.143  14.600   3.161
29090W        W92847  21.635  15.207   2.400
29091W        W92848  27.534  24.602  10.933
29092W        W92849  27.120  14.179  14.931
29093W        W92850  31.086  21.135   3.845
29094W        W92851   1.877  33.130  10.433
29095W        W92852   5.829   2.324   2.889
29096W        W92853  14.658  41.799   4.655
29097W        W92854  15.739   8.161  14.473
29098W        W92855  11.675  20.641   3.840
29099W        W92856  15.708  11.856   2.733
29100W        W92857   4.819  25.515   4.306
29101W        W92858  42.860   7.842  11.905
29102W        W92859  41.979  11.671   0.401
29103W        W92860  23.675  26.174   4.244
29104W        W92861  44.494  44.805   0.884
29105W        W92862  33.013   9.853  11.003
29106W        W92863  18.636  40.939  14.322
29107W        W92864   8.389  32.017   4.666
29108W        W92865  42.857   4.344  14.032
29109W        W92866  27.188  18.773   2.875
29110W        W92867  38.432  29.086   0.245
29111W        W92868  12.359   3.336  10.485
29112W        W92869  26.610  44.868   0.347
29113W        W92870  28.478  34.921   2.866
29114W        W92871  15.588  18.545   3.799
29115W        W92872  30.095  17.175   3.345
29116W        W92873  31.604  13.811   2.346
29117W        W92874  19.125  25.474   2.819
29118W        W92875  13.628  14.327   4.695
29119W        W92876  41.986  25.206   1.785
29120W        W92877   0.261  40.931  13.362
29121W        W92878  35.037  42.799  14.871
29122W        W92879  30.540  25.129  12.348
29123W        W92880  28.494  40.432  13.401
29124W        W92881   6.921  21.167  12.362
29125W        W92882  25.602  29.999   2.229
29126W        W92883  16.313   4.408  14.368
29127W        W92884  21.570   3.904   0.759
29128W        W92885  22.653  25.474   3.365
29129W        W92886  30.155  38.050  11.377
29130W        W92887  32.083  25.144   4.189
29131W        W92888  43.916   1.264   4.187
29132W        W92889  39.065  41.021  10.966
29133W        W92890   4.429   1.365   2.693
29134W        W92891  34.039   1.291  10.938
29135W        W92892  33.905  33.089  10.477
29136W        W92893  32.393  19.262   1.713
29137W        W92894  39.850   2.840  13.019
29138W        W92895  17.794  18.148   3.329
29139W        W92896   5.380  27.603   0.255
29140W        W92897   7.206  11.740  12.522
29141W        W92898  19.690  15.665   1.709
29142W        W92899  18.771  29.084   1.916
29143W        W92900  30.623  23.169   3.232
29144W        W92901  34.884  13.333  11.120
29145W        W92902  40.816  43.796   1.211
29146W        W92903  26.205  11.140   1.928
29147W        W92904  12.614  25.057  14.348
29148W        W92905  15.231  42.781   4.180
29149W        W92906  43.853   6.345  11.609
29150W        W92907  14.696   7.215   2.827
29151W        W92908  16.688  13.131  13.962
29152W        W92909   2.804  38.548   1.742
29153W        W92910  23.115  24.677   2.886
29154W        W92911  13.743   0.442  11.491
29155W        W92912  33.070  25.977   3.359
29156W        W92913  25.537  35.898   9.926
29157W        W92914  20.244  10.660  14.820
29158W        W92915  17.707  28.965  14.454
29159W        W92916  41.856   8.796   0.363
29160W        W92917  30.426   4.839  11.418
29161W        W92918  34.450  15.326  10.510
29162W        W92919   8.790  31.638   2.197
29163W        W92920  15.630  24.226  14.420
29164W        W92921  44.418  39.551  10.414
29165W        W92922   5.382  28.058   3.183
29166W        W92923  17.135  13.278  12.474
29167W        W92924  32.537  11.159   3.779
29168W        W92925  29.430  36.071   1.259
29169W        W92926  42.495  20.054  14.338
29170W        W92927  26.962  39.881  12.887
29171W        W92928  25.687  24.187   2.200
29172W        W92929  17.168  35.896  14.508
29173W        W92930  24.519  36.592  12.503
29174W        W92931  37.893   5.757   5.763
29175W        W92932  15.594   5.824   3.188
29176W        W92933  25.106  15.712  13.932
29177W        W92934  17.149  22.080  12.973
29178W        W92935  32.951  16.744   4.610
29179W        W92936  44.418  25.995   1.232
29180W        W92937  42.490  33.893   0.311
29181W        W92938   0.402  14.278   0.253
29182W        W92939  37.065   2.876   0.897
29183W        W92940  11.337  25.493   4.820
29184W        W92941  12.304  40.912  12.396
29185W        W92942   4.778  17.674  10.048
29186W        W92943  13.715   3.331   4.756
29187W        W92944  21.144  28.576  14.762
29188W        W92945  33.402  28.164   3.783
29189W        W92946  18.655  43.300   4.641
29190W        W92947  41.312  18.058  13.461
29191W        W92948  33.950  26.038   1.832
29192W        W92949  14.113  36.464  10.992
29193W        W92950   6.205  19.666   5.086
29194W        W92951  37.995  19.160   2.852
29195W        W92952  28.183  43.327   0.868
29196W        W92953  42.475  25.639  14.304
29197W        W92954  40.855  17.800  13.394
29198W        W92955  36.976  27.982   3.256
29199W        W92956  29.535  42.842   9.947
29200W        W92957  23.146  14.621  13.059
29201W        W92958  40.428  19.598   5.189
29202W        W92959  30.490  26.111   3.243
29203W        W92960  38.433  44.487   2.225
29204W        W92961   1.294  17.193   3.830
29205W        W92962  11.247  22.729  12.880
29206W        W92963  27.524  41.958   4.818
29207W        W92964   0.302  37.902  14.385
29208W        W92965  13.133  27.558   1.423
29209W        W92966  37.438  35.960   1.825
29210W        W92967  26.549   2.272  11.553
29211W        W92968  16.606  16.738  10.534
29212W        W92969  31.145   6.267  13.792
29213W        W92970   5.244  35.058  13.401
29214W        W92971  11.623  40.829   4.776
29215W        W92972   2.384  10.877   3.236
29216W        W92973  41.817  18.200  12.366
29217W        W92974  21.636  32.121  13.892
29218W        W92975  30.009  24.693   1.810
29219W        W92976   1.294  11.332  10.533
29220W        W92977  31.595  16.641  12.909
29221W        W92978  38.409   5.772   4.802
29222W        W92979  26.002  19.159  11.381
29223W        W92980  41.511  29.541   1.232
29224W        W92981  32.462  22.696   3.334
29225W        W92982  37.572   1.292   0.415
29226W        W92983  39.543   9.381   3.297
29227W        W92984  31.082  41.443   3.775
29228W        W92985  35.487   3.824  14.440
29229W        W92986  34.492  41.881  11.860
29230W        W92987  22.633  39.966  11.077
29231W        W92988  41.796   2.936   0.305
29232W        W92989  25.976  27.990   2.350
29233W        W92990  42.014  14.287   2.188
29234W        W92991  37.962  29.152  10.528
29235W        W92992  20.266  24.549   3.290
29236W        W92993   6.707  13.278   4.209
29237W        W92994  43.460  26.561   3.731
29238W        W92995   5.216  40.485   1.858
29239W        W92996  31.987  31.942   4.225
29240W        W92997  22.614   1.863   2.255
29241W        W92998  34.105  29.531   9.492
29242W        W92999   4.815  25.099  11.110
29243W        W93000   3.361  42.007  11.864
29244W        W93001  20.541  24.072  13.927
29245W        W93002   1.882  22.089  11.966
29246W        W93003  11.290  13.621   0.347
29247W        W93004  12.754  41.845  12.920
29248W        W93005  30.978  31.414  11.515
29249W        W93006  25.122  15.815  10.406
29250W        W93007   3.337  10.734   2.187
29251W        W93008  25.610  37.571  10.916
29252W        W93009  19.161  11.212  12.095
29253W        W93010  25.565   4.814   2.363
29254W        W93011   5.268  44.864   0.876
29255W        W93012  20.746   7.225   4.825
29256W        W93013   0.887  37.470   1.347
29257W        W93014  13.646  43.431  13.475
29258W        W93015   7.190  13.278  10.916
29259W        W93016  30.635  39.889  10.580
29260W        W93017  11.759   2.928   3.756
29261W        W93018  38.415  21.758   2.345
29262W        W93019   8.831  42.909   0.335
29263W        W93020  26.547  34.387  13.419
29264W        W93021  44.382  30.044   0.962
29265W        W93022  39.993  26.136   2.850
29266W        W93023  15.592  29.496  12.087
29267W        W93024  44.466  28.116   3.284
29268W        W93025  25.985  25.509   3.671
29269W        W93026  41.311   4.392   0.479
29270W        W93027  27.963   2.280   1.400
29271W        W93028  38.339  10.696  13.410
29272W        W93029  27.013  42.296  12.952
29273W        W93030   1.406  29.515  14.887
29274W        W93031  24.037  36.852  12.064
29275W        W93032  23.700  14.654   1.302
29276W        W93033  39.393  42.417   2.890
29277W        W93034  26.000  11.709   2.742
29278W        W93035  40.943  39.441  13.326
29279W        W93036  36.055  17.180  10.568
29280W        W93037  21.521  20.132  12.412
29281W        W93038  39.810   8.250   1.258
29282W        W93039  15.646   5.916  14.956
29283W        W93040  29.141   3.862   2.257
29284W        W93041  33.503  44.854   4.627
29285W        W93042  15.736  37.570   3.711
29286W        W93043   4.370   1.361  14.814
29287W        W93044  13.299  19.715   5.217
29288W        W93045  27.085  17.716   4.145
29289W        W93046  28.672  40.365   1.893
29290W        W93047  39.981  12.131   4.633
29291W        W93048  24.585  31.597   0.406
29292W        W93049  26.080  12.793   4.261
29293W        W93050  39.558   1.796   0.731
29294W        W93051  44.827  26.016  12.534
29295W        W93052   4.257  12.822   2.768
29296W        W93053  37.475  41.864   2.901
29297W        W93054   7.735  26.989   2.307
29298W        W93055  33.974  41.379  10.989
29299W        W93056  25.025  28.547  14.858
29300W        W93057  20.699  18.154   2.292
29301W        W93058   3.384   0.813  12.043
29302W        W93059  40.498  23.665  14.416
29303W        W93060   2.265  18.789   1.273
29304W        W93061  35.859  33.454   2.251
29305W        W93062  33.473  33.434   5.202
29306W        W93063  40.970   8.170  13.936
29307W        W93064  44.453  25.128   3.385
29308W        W93065  24.101  33.954   4.314
29309W        W93066  14.663  24.123   4.830
29310W        W93067   6.686  28.019   3.176
29311W        W93068  32.093  37.547  14.825
29312W        W93069   0.297  23.690   0.341
29313W        W93070  42.980  21.654   0.274
29314W        W93071   9.197  15.769  13.999
29315W        W93072  24.624  31.028   1.798
29316W        W93073  32.897  27.084  12.422
29317W        W93074  17.177  17.682   3.678
29318W        W93075  24.188  18.198   2.376
29319W        W93076  25.037  17.699  14.321
29320W        W93077  30.003  26.628  11.373
29321W        W93078  14.655  41.917   4.182
29322W        W93079  27.953  44.459   2.886
29323W        W93080   8.724   1.342   2.833
29324W        W93081  39.970  27.585  14.908
29325W        W93082  30.511  37.973   2.813
29326W        W93083   3.347  32.896   4.686
29327W        W93084  41.468  27.592   2.877
29328W        W93085   5.311  19.735   2.398
29329W        W93086  40.007  32.936   1.314
29330W        W93087  30.646   0.373  12.979
29331W        W93088  31.955  14.695   0.866
29332W        W93089  22.523  42.854   4.342
29333W        W93090  30.022  43.372  14.339
29334W        W93091  28.105  37.482   4.826
29335W        W93092  16.125  34.537  13.889
29336W        W93093  29.106   8.887  10.563
29337W        W93094  37.582  40.477  12.397
29338W        W93095  39.033  21.218   4.247
29339W        W93096  16.126  38.870  11.871
29340W        W93097   0.899   9.882  13.400
29341W        W93098  39.537  16.632   1.436
29342W        W93099  26.633   4.864   1.792
29343W        W93100  30.616  37.032   2.862
29344W        W93101  27.129  11.189  13.418
29345W        W93102  37.449   8.316  12.893
29346W        W93103  12.762  15.150  10.941
29347W        W93104  15.156  34.395   0.848
29348W        W93105  10.309  11.323  13.325
29349W        W93106  18.697   0.880   4.130
29350W        W93107  33.440  42.506  12.025
29351W        W93108  19.096  36.428  14.777
29352W        W93109   9.285  37.401  11.411
29353W        W93110  13.817   8.673  13.806
29354W        W93111   1.356  17.201   0.317
29355W        W93112  32.625  20.147   2.301
29356W        W93113   7.190   2.899  10.405
29357W        W93114  17.561  28.051   0.468
29358W        W93115  22.065  18.262  13.308
29359W        W93116  19.119  34.998  12.497
29360W        W93117  36.523  37.393  12.400
29361W        W93118   9.737  43.363  13.885
29362W        W93119  40.840  31.559   4.817
29363W        W93120   8.672   7.382   2.781
29364W        W93121   5.419  25.091   1.332
29365W        W93122  10.260  29.425  12.913
29366W        W93123  18.185  40.809   4.288
29367W        W93124  27.081  33.614  11.101
29368W        W93125  35.497  42.845   4.345
29369W        W93126  12.342  22.673  11.387
29370W        W93127  25.046  12.772   0.835
29371W        W93128  24.220   9.209   1.269
29372W        W93129  22.171  21.577   3.798
29373W        W93130   3.833  41.315  13.426
29374W        W93131   1.358  10.263   0.290
29375W        W93132   3.237  31.946   0.745
29376W        W93133   5.731  36.509   4.830
29377W        W93134   5.406   4.886   4.258
29378W        W93135  23.702  22.153   2.223
29379W        W93136  20.560  11.150   3.848
29380W        W93137  16.757  43.020  10.537
29381W        W93138  35.437  21.251   0.927
29382W        W93139  44.499  24.708   1.698
29383W        W93140   2.945  32.571   1.280
29384W        W93141  39.542  21.532  10.571
29385W        W93142  32.130   8.818   3.372
29386W        W93143  40.506  25.067   3.717
29387W        W93144   4.885  18.119   3.650
29388W        W93145   2.847  26.630   0.762
29389W        W93146  24.649  34.381  12.456
29390W        W93147  16.248  31.077   1.827
29391W        W93148  16.652   9.742   0.246
29392W        W93149  42.489   0.932  14.296
29393W        W93150  34.397  34.877   2.317
29394W        W93151  22.568  28.459  10.579
29395W        W93152  35.110  18.151  11.555
29396W        W93153  39.925  14.759   0.961
29397W        W93154  10.763  39.863   2.232
29398W        W93155  12.735   1.368  13.448
29399W        W93156  36.393  24.991   1.903
29400W        W93157  16.295  21.643   2.734
29401W        W93158  10.138  18.679   0.938
29402W        W93159  43.392  42.428   0.962
29403W        W93160   8.378  40.035  14.429
29404W        W93161  41.397  39.529  14.464
29405W        W93162   0.798  25.535   2.317
29406W        W93163  29.053  24.720  13.511
29407W        W93164  34.556  20.233  11.603
29408W        W93165  23.655  22.102   3.207
29409W        W93166  44.307   6.776   4.148
29410W        W93167  10.329  23.654  12.396
29411W        W93168  15.153  33.122  10.911
29412W        W93169  16.731  39.465   0.289
29413W        W93170  10.812   8.330  11.403
29414W        W93171  32.978   0.945  14.338
29415W        W93172  44.900  43.355   3.365
29416W        W93173  22.714  44.298   2.394
29417W        W93174  24.657  31.639   3.288
29418W        W93175  39.456  22.588  11.910
29419W        W93176  28.488   5.222  10.607
29420W        W93177  23.612   4.780   3.340
29421W        W93178  22.631  12.778   3.662
29422W        W93179  21.672  36.873   1.761
29423W        W93180  28.675   3.848   4.813
29424W        W93181  30.045  27.667  13.408
29425W        W93182  28.512  16.685  14.510
29426W        W93183  15.769   1.971  11.496
29427W        W93184  26.033   5.400  10.627
29428W        W93185  32.632  36.358   2.299
29429W        W93186  28.102  32.511  14.492
29430W        W93187  19.666  30.914  10.441
29431W        W93188  14.589   4.416   0.944
29432W        W93189  30.001  23.127   4.755
29433W        W93190  41.341   0.756   3.736
29434W        W93191   4.253  15.751   4.242
29435W        W93192  33.543  24.157   2.363
29436W        W93193  35.565  30.151   4.657
29437W        W93194  25.028   5.821  10.449
29438W        W93195  12.667  25.528   2.272
29439W        W93196  31.141   3.811  13.368
29440W        W93197  36.850  16.771  14.765
29441W        W93198  32.133  20.646  12.963
29442W        W93199  36.412  36.056  14.860
29443W        W93200  24.027   3.357  14.002
29444W        W93201  33.493  41.308  10.452
29445W        W93202   7.211   7.388   4.213
29446W        W93203  12.658  28.541  13.336
29447W        W93204  38.548  30.953  12.545
29448W        W93205  37.843  26.616  13.329
29449W        W93206  35.367  30.155   5.800
29450W        W93207  20.564  12.272   4.612
29451W        W93208  31.052  15.296  11.070
29452W        W93209  37.382  14.760   0.777
29453W        W93210  35.361  34.057  14.027
29454W        W93211  30.118  19.104   1.720
29455W        W93212  14.262  36.351   0.341
29456W        W93213   9.786  18.714  12.905
29457W        W93214   3.818  23.129   1.335
29458W        W93215  30.966   3.422  11.579
29459W        W93216  34.562  15.666   3.163
29460W        W93217  10.183   9.323  13.806
29461W        W93218  18.173  22.123  13.007
29462W        W93219   0.266   3.293  11.948
29463W        W93220  20.181  38.976  10.921
29464W        W93221  29.054  30.453   1.234
29465W        W93222  11.284  18.682  11.591
29466W        W93223  11.277   9.732  12.980
29467W        W93224   2.904  25.710   0.845
29468W        W93225  20.531  22.724  13.021
29469W        W93226  33.055  11.140  10.565
29470W        W93227  41.878  25.559  11.939
29471W        W93228  19.609   5.277  12.540
29472W        W93229   3.327   1.337   1.853
29473W        W93230  39.447  30.631   2.742
29474W        W93231  33.408  20.056  14.481
29475W        W93232   0.800  19.169  12.010
29476W        W93233  23.220   4.813  12.035
29477W        W93234  27.665   0.264  10.615
29478W        W93235  12.703   1.405  10.592
29479W        W93236  37.508  13.223  11.943
29480W        W93237  22.019   7.323  13.325
29481W        W93238   8.767  42.430   2.360
29482W        W93239  38.541  37.437   3.261
29483W        W93240  29.665   6.394  13.516
29484W        W93241  19.075  42.310  12.550
29485W        W93242  34.383  36.020   0.289
29486W        W93243  16.233  44.423  13.839
29487W        W93244  33.016  37.842   1.306
29488W        W93245  31.929   8.406   1.794
29489W        W93246   1.471  43.857   4.635
29490W        W93247  34.583  23.496   3.341
29491W        W93248  31.993  40.400  11.060
29492W        W93249  20.104  23.027  10.553
29493W        W93250  27.022  29.109  13.381
29494W        W93251  39.472  44.422   2.791
29495W        W93252  16.685  13.661  14.923
29496W        W93253  17.597  38.336  12.017
29497W        W93254  21.242  35.863   5.651
29498W        W93255  30.046  11.686  14.911
29499W        W93256   5.790  28.983   3.780
29500W        W93257  29.635   3.220   4.667
29501W        W93258   6.748  43.009   1.447
29502W        W93259  41.943  12.618  13.936
29503W        W93260  41.900  39.932  11.866
29504W        W93261  32.482  20.184   3.649
29505W        W93262  28.063   1.943   0.927
29506W        W93263   6.732  27.123  12.979
29507W        W93264  32.950  24.552   2.391
29508W        W93265  22.052  38.845  10.496
29509W        W93266  22.159  31.449   0.862
29510W        W93267  33.015  40.543  12.083
29511W        W93268   4.268  33.984   0.944
29512W        W93269   8.753  27.000   0.378
29513W        W93270  26.018  28.644  11.563
29514W        W93271  11.128  28.497   2.298
29515W        W93272  25.631  33.558  14.952
29516W        W93273   2.433  38.565  12.058
29517W        W93274  35.494  23.701  11.555
29518W        W93275   9.786   0.374  12.019
29519W        W93276  22.613  13.703   3.266
29520W        W93277  13.755   6.739   4.153
29521W        W93278   8.289   9.706  14.511
29522W        W93279  24.013  10.823   2.902
29523W        W93280  28.659  16.670  13.321
29524W        W93281  39.385  36.082  10.419
29525W        W93282  30.550  39.975   2.728
29526W        W93283   9.369   9.657  14.417
29527W        W93284  26.663   4.305   0.758
29528W        W93285  14.709   0.907   2.198
29529W        W93286  10.813  25.037   0.808
29530W        W93287  42.526  16.718  11.516
29531W        W93288  17.595   3.941  11.527
29532W        W93289  32.886  26.511  14.789
29533W        W93290  15.210  24.655   1.717
29534W        W93291  26.959  35.391  12.888
29535W        W93292   7.388  20.076   2.852
29536W        W93293  42.462   0.403   0.930
29537W        W93294  19.697  17.623   2.342
29538W        W93295  22.691  27.664  12.480
29539W        W93296  34.406  21.618   4.710
29540W        W93297  24.224   9.346  12.414
29541W        W93298  40.932  34.892  11.515
29542W        W93299  34.475  23.693  10.895
29543W        W93300  25.026  17.663  14.940
29544W        W93301  26.110  17.233   3.169
29545W        W93302  18.097  28.156  13.929
29546W        W93303  37.443  18.553  14.816
29547W        W93304  31.056  33.428   2.268
29548W        W93305  32.502  24.652  12.457
29549W        W93306  36.364   7.189  11.127
29550W        W93307  40.973   6.721  12.935
29551W        W93308  20.195  40.518   4.646
29552W        W93309  44.476  23.642   4.647
29553W        W93310  28.580  11.816   1.302
29554W        W93311  26.138  14.787  14.937
29555W        W93312  20.667   4.349  14.990
29556W        W93313  20.544   3.721   4.688
29557W        W93314   5.307  32.450  12.076
29558W        W93315  16.669  29.449   1.780
29559W        W93316  27.018  20.274  11.388
29560W        W93317   8.333  44.965  11.529
29561W        W93318  22.555  14.778   2.726
29562W        W93319  43.394   9.749  13.360
29563W        W93320  21.055  30.930  14.985
29564W        W93321   3.258  42.309  13.849
29565W        W93322  14.185  18.215   2.339
29566W        W93323  14.614  39.926   4.646
29567W        W93324   1.268   1.744  11.514
29568W        W93325  32.500  16.638  14.003
29569W        W93326  17.209  23.505  14.299
29570W        W93327  13.167  22.232  14.821
29571W        W93328   2.840  35.978   0.478
29572W        W93329  19.590   3.234   3.386
29573W        W93330  34.477  20.210  10.955
29574W        W93331  19.128  26.043  13.062
29575W        W93332  40.011  32.578   0.751
29576W        W93333   5.885  43.846  13.835
29577W        W93334  23.010  27.122   2.386
29578W        W93335  25.497  13.756  11.474
29579W        W93336  41.402  18.075  14.900
29580W        W93337  13.117  26.628  12.393
29581W        W93338   2.729  11.654   2.695
29582W        W93339  12.800  35.517  12.883
29583W        W93340   4.854  40.883  10.069
29584W        W93341  21.197  35.390   3.859
29585W        W93342   7.867  31.978   1.246
29586W        W93343  35.543  35.543   3.853
29587W        W93344  23.019  38.027   0.775
29588W        W93345  28.155  12.315  11.970
29589W        W93346  43.436  33.953   3.239
29590W        W93347  26.574   3.795  14.358
29591W        W93348  27.153  19.736  12.392
29592W        W93349   2.751  16.225  10.632
29593W        W93350   8.325  10.811  11.521
29594W        W93351   8.700   8.831   2.368
29595W        W93352   5.795  35.882  10.930
29596W        W93353  23.522  39.460   4.275
29597W        W93354   2.283  17.557   1.728
29598W        W93355   2.253  41.960  14.871
29599W        W93356   8.736  18.583   3.690
29600W        W93357   1.977  13.787   4.620
29601W        W93358  36.951  44.775   2.386
29602W        W93359   4.397  22.616  13.886
29603W        W93360  23.175  30.931   2.331
29604W        W93361  28.975   5.779   2.271
29605W        W93362  22.702  24.009   2.394
29606W        W93363  18.631  24.705   2.281
29607W        W93364  10.662  24.096   0.314
29608W        W93365   7.382  32.142   2.200
29609W        W93366  16.635   9.152   0.481
29610W        W93367   3.763   1.403  11.021
29611W        W93368  28.127  28.605   0.827
29612W        W93369  15.784  19.230  12.902
29613W        W93370  18.577  23.704  13.538
29614W        W93371  41.895   3.788  12.842
29615W        W93372   7.671  30.551   2.839
29616W        W93373  23.554  19.565   4.617
29617W        W93374  38.049  17.572  10.589
29618W        W93375  12.672  13.309  10.948
29619W        W93376  27.463  27.114  11.562
29620W        W93377  19.551  26.625  14.935
29621W        W93378  25.567  20.728   3.801
29622W        W93379  41.496  11.719   3.257
29623W        W93380  31.642   1.417  12.406
29624W        W93381  18.551  43.333  12.827
29625W        W93382  20.706   5.387  12.530
29626W        W93383  18.712  27.550  12.556
29627W        W93384  40.886  33.880   3.722
29628W        W93385  12.841  32.104   2.874
29629W        W93386   8.353   9.872  11.995
29630W        W93387  15.714  30.485  14.917
29631W        W93388  23.157  19.551   1.306
29632W        W93389  38.337  44.767  12.063
29633W        W93390  20.631  39.852   4.219
29634W        W93391  10.796  41.847   3.201
29635W        W93392  27.996  35.980  10.552
29636W        W93393  17.203  43.372  14.474
29637W        W93394   0.949   7.811   2.241
29638W        W93395   6.872  40.902  12.366
29639W        W93396  29.146  13.265  14.993
29640W        W93397  21.732  28.050  10.141
29641W        W93398  19.585   0.259  13.353
29642W        W93399  27.147  30.012   3.867
29643W        W93400  32.921  39.552  13.883
29644W        W93401  25.535  20.624  14.924
29645W        W93402  34.993  42.521   3.190
29646W        W93403  30.020  23.553  14.987
29647W        W93404  44.421  43.489   1.723
29648W        W93405  16.579  24.200  14.762
29649W        W93406  17.249   9.673   1.402
29650W        W93407  18.667   5.301  13.332
29651W        W93408  42.969  16.110   2.818
29652W        W93409   1.788  24.673   2.187
29653W        W93410   6.264   2.381  14.304
29654W        W93411  43.915   1.879   3.813
29655W        W93412  28.543   5.311  13.355
29656W        W93413   3.339  24.216   1.346
29657W        W93414  32.617  35.569   2.799
29658W        W93415  16.761  24.570   3.329
29659W        W93416  36.061  29.014  14.336
29660W        W93417  28.623  37.065   3.178
29661W        W93418  13.166  30.984  14.288
29662W        W93419  19.633   1.861  10.632
29663W        W93420  16.627  14.173  11.587
29664W        W93421  40.012   3.830  10.900
29665W        W93422  40.903  15.788  11.899
29666W        W93423   3.373  25.598   4.347
29667W        W93424   5.911  32.438   0.246
29668W        W93425  35.502  29.107  13.864
29669W        W93426  37.855   3.292  14.503
29670W        W93427  32.131   0.926   4.751
29671W        W93428  25.507  36.972  13.521
29672W        W93429  23.137  26.596   2.192
29673W        W93430  25.630  13.244   1.224
29674W        W93431  18.271  39.341   3.725
29675W        W93432  13.694   4.832  12.915
29676W        W93433  23.221   7.410   3.704
29677W        W93434  14.323  13.308  10.521
29678W        W93435  13.179  21.543  10.915
29679W        W93436  15.717  31.422  12.451
29680W        W93437  41.851  20.049   0.434
29681W        W93438  44.990  41.374   2.876
29682W        W93439  40.381  13.787   1.711
29683W        W93440  35.460   5.729  14.316
29684W        W93441  13.812   4.910   2.772
29685W        W93442  14.153   7.320   2.890
29686W        W93443  19.590  37.033  11.408
29687W        W93444  41.412  34.897  11.857
29688W        W93445  31.955   5.835   1.768
29689W        W93446  38.555   7.394   2.246
29690W        W93447  28.048   9.735  13.514
29691W        W93448  12.647   4.944   3.321
29692W        W93449  14.320   4.263  11.000
29693W        W93450  17.708  16.237   3.739
29694W        W93451  16.140  29.103  13.987
29695W        W93452  37.850  12.856  12.438
29696W        W93453   9.751  40.810   3.179
29697W        W93454  19.060   7.170   3.309
29698W        W93455  34.114   5.913  11.020
29699W        W93456  16.179   6.352  14.980
29700W        W93457   6.872  16.113  12.967
29701W        W93458  23.639  19.077  14.291
29702W        W93459  17.687  30.616   1.832
29703W        W93460   3.923  17.726  11.394
29704W        W93461   9.166  12.686  10.946
29705W        W93462  24.979  43.309   2.279
29706W        W93463   3.445  31.137   3.303
29707W        W93464  12.732  33.600   4.220
29708W        W93465  12.731  10.648  14.442
29709W        W93466  31.444  19.225  13.514
29710W        W93467  17.229   9.826  14.885
29711W        W93468   6.267  40.432  11.523
29712W        W93469   9.224  14.589   5.217
29713W        W93470  10.348  36.007   1.328
29714W        W93471   1.241  18.270   2.309
29715W        W93472  36.420   6.812   0.414
29716W        W93473   9.382  13.330   3.339
29717W        W93474  19.640  43.336  12.486
29718W        W93475  16.200  14.618  14.873
29719W        W93476   2.246   3.360  12.968
29720W        W93477  43.804  29.094  11.506
29721W        W93478  21.667   7.232   3.207
29722W        W93479  34.401   5.796   2.678
29723W        W93480  29.980  43.846   0.726
29724W        W93481  40.493  18.676  10.456
29725W        W93482   6.182  21.723   1.308
29726W        W93483  21.103  24.527  12.413
29727W        W93484  32.008  14.298  10.927
29728W        W93485  24.554  34.952  13.498
29729W        W93486  29.512  33.444  13.492
29730W        W93487  18.599  44.794   4.165
29731W        W93488  26.175   1.319   3.654
29732W        W93489  33.065  17.668   4.173
29733W        W93490  38.913   3.355   2.896
29734W        W93491  17.671  26.593  11.926
29735W        W93492  29.971  27.502   3.172
29736W        W93493   3.390  31.110   0.867
29737W        W93494   2.227   1.297  12.444
29738W        W93495  41.968  24.023  12.442
29739W        W93496  28.941  18.621  13.339
29740W        W93497  21.737  18.260  12.048
29741W        W93498   7.696  18.270   2.851
29742W        W93499   2.308  38.416   1.716
29743W        W93500  31.504  10.376   2.664
29744W        W93501  15.195  16.102   3.355
29745W        W93502  31.041  25.006  10.930
29746W        W93503  10.198  23.561   9.960
29747W        W93504   6.897  16.651   1.339
29748W        W93505  32.065  12.716   3.668
29749W        W93506  33.467   0.303  10.468
29750W        W93507  24.589  11.670  13.363
29751W        W93508  44.953  36.484  10.584
29752W        W93509   3.247  14.602  11.948
29753W        W93510  20.150  38.400   0.840
29754W        W93511  23.179  21.643  11.028
29755W        W93512   0.955  14.707   1.858
29756W        W93513  36.929  22.047  11.427
29757W        W93514  13.216  40.535   2.395
29758W        W93515   2.799   0.282  13.428
29759W        W93516   0.944  44.880   4.805
29760W        W93517  19.722  10.741   2.787
29761W        W93518   4.737  42.962  11.121
29762W        W93519  10.828  42.812  13.048
29763W        W93520   5.415  22.237   1.764
29764W        W93521   0.437  15.299   2.305
29765W        W93522   8.884  29.432  11.371
29766W        W93523  22.541  43.021   1.286
29767W        W93524  16.594  25.564   1.238
29768W        W93525  23.170  42.459   4.248
29769W        W93526  19.738  34.910   2.775
29770W        W93527  31.547  35.399   4.615
29771W        W93528  28.473  14.210   5.267
29772W        W93529  38.965  16.219  11.399
29773W        W93530  32.044  19.740   3.758
29774W        W93531  13.317  37.011  12.512
29775W        W93532  26.161  27.021  13.376
29776W        W93533  32.595  18.061   3.258
29777W        W93534   2.773  35.033  11.882
29778W        W93535   8.685  37.552  14.921
29779W        W93536  44.404   8.867   4.291
29780W        W93537  21.747  25.000   1.420
29781W        W93538  12.210   8.291   4.339
29782W        W93539  29.009  31.154  13.858
29783W        W93540  19.108  23.076   4.275
29784W        W93541  13.156  34.434  14.973
29785W        W93542  32.507  43.490   4.649
29786W        W93543  18.080   9.347   4.819
29787W        W93544   5.351  32.970   1.447
29788W        W93545  40.418   7.878  11.501
29789W        W93546  17.066  19.161   1.352
29790W        W93547  29.137  30.451  12.040
29791W        W93548   7.288  29.645  12.857
29792W        W93549  28.672  18.583   4.180
29793W        W93550   5.408  34.554  10.893
29794W        W93551  41.898  40.017   3.712
29795W        W93552  27.149  25.665   2.705
29796W        W93553  10.764   9.647   3.244
29797W        W93554  21.608   8.804  11.596
29798W        W93555  31.088  32.630  11.505
29799W        W93556  24.673  12.350   4.623
29800W        W93557  25.178   9.685  10.930
29801W        W93558  37.869  23.633   0.736
29802W        W93559  12.195  35.394   2.835
29803W        W93560  18.759  14.752   2.835
29804W        W93561  40.020  30.986   2.802
29805W        W93562  34.421  42.427  11.560
29806W        W93563   2.844   5.843  10.549
29807W        W93564   8.217  41.299   2.241
29808W        W93565   6.917  28.439   2.713
29809W        W93566  25.054  25.149  13.990
29810W        W93567   6.195  37.387  13.904
29811W        W93568   5.847  29.069   1.372
29812W        W93569  33.030  18.050   0.952
29813W        W93570  39.831  35.986  11.441
29814W        W93571  28.131  41.829  11.009
29815W        W93572  28.458  28.636   4.307
29816W        W93573  14.181  20.058  12.089
29817W        W93574  13.803  32.478  11.037
29818W        W93575  44.856  32.140   5.274
29819W        W93576  42.932  24.006  11.608
29820W        W93577  11.654   9.381   1.758
29821W        W93578   0.935  22.520  11.517
29822W        W93579  27.489  37.345  14.799
29823W        W93580  10.229  35.493  10.586
29824W        W93581  18.286  14.143  14.401
29825W        W93582  25.115  34.489  14.497
29826W        W93583  27.094  42.342  12.552
29827W        W93584  35.480  20.197   1.731
29828W        W93585  15.778  35.958  11.030
29829W        W93586  31.622  31.086  11.551
29830W        W93587   7.905  25.179  10.119
29831W        W93588  14.801   2.929   4.751
29832W        W93589   5.411  20.721  11.931
29833W        W93590  41.322  14.622  10.615
29834W        W93591  21.670  25.491   3.212
29835W        W93592   3.439  32.619  11.567
29836W        W93593  40.962  17.787   0.257
29837W        W93594   4.397  16.573  14.439
29838W        W93595  14.336   7.732  11.050
29839W        W93596  32.084  29.523   3.770
29840W        W93597  14.268  41.481  11.552
29841W        W93598   9.333  15.725   4.215
29842W        W93599  39.053  43.890   1.382
29843W        W93600  23.662  20.696   1.263
29844W        W93601   3.873   3.357   0.743
29845W        W93602  21.556   8.251   3.219
29846W        W93603   7.391  16.757  13.828
29847W        W93604  34.377  13.753   3.836
29848W        W93605  28.962  30.936   4.744
29849W        W93606  42.289   4.716   3.365
29850W        W93607   1.413  16.080   0.276
29851W        W93608  29.072   2.274   3.325
29852W        W93609  37.570  25.103   4.292
29853W        W93610  30.121  43.984  13.848
29854W        W93611  16.219   8.181  14.513
29855W        W93612  23.588  10.278  13.863
29856W        W93613  22.740  27.633  11.054
29857W        W93614  19.212  15.720  13.963
29858W        W93615  20.192  21.087  12.052
29859W        W93616  23.191  40.854  13.431
29860W        W93617  42.898   0.843  14.454
29861W        W93618  22.234  34.016   1.698
29862W        W93619  25.974  44.446  13.798
29863W        W93620  36.589  36.448  11.504
29864W        W93621  33.517  18.093  11.415
29865W        W93622   0.312  17.698  13.956
29866W        W93623  19.187  33.071  10.031
29867W        W93624  19.219  27.469  14.285
29868W        W93625  11.133  33.092   3.350
29869W        W93626  40.369  13.763  10.561
29870W        W93627  11.369   3.459   1.353
29871W        W93628  25.483   6.733  11.077
29872W        W93629  14.227  23.558   1.713
29873W        W93630  29.609  41.913  13.965
29874W        W93631   9.327  41.299  12.859
29875W        W93632  12.658  13.293  13.832
29876W        W93633   9.711  31.511   3.782
29877W        W93634  20.135  35.394  14.510
29878W        W93635  22.566  35.097   1.211
29879W        W93636  23.115  39.922   3.661
29880W        W93637  22.648  35.462   2.859
29881W        W93638   5.864  18.721   1.235
29882W        W93639  20.542  43.979  13.817
29883W        W93640  36.975  14.778   0.829
29884W        W93641  11.734  40.348   4.207
29885W        W93642  32.555  30.083   2.846
29886W        W93643  23.091   1.310   0.726
29887W        W93644  15.587  44.357  10.928
29888W        W93645  37.450   0.374  12.068
29889W        W93646  39.980  19.084   0.338
29890W        W93647  20.154  36.085   4.354
29891W        W93648   9.696  36.949   0.430
29892W        W93649   2.462  44.338   5.150
29893W        W93650   5.871   6.229  10.902
29894W        W93651  40.833  33.964  12.917
29895W        W93652  30.594  30.979   1.366
29896W        W93653  23.237  32.463   3.241
29897W        W93654   6.832  43.924  13.873
29898W        W93655  14.728   0.838   2.878
29899W        W93656  40.525  15.633  14.773
29900W        W93657  11.717  39.524  13.000
29901W        W93658  14.591  39.498  11.044
29902W        W93659  38.845   7.879   3.186
29903W        W93660   6.280   0.923   4.233
29904W        W93661  31.963  37.834  13.364
29905W        W93662   6.326  27.628   4.767
29906W        W93663  40.312  25.010   2.355
29907W        W93664  36.866  24.187  14.419
29908W        W93665   4.764  11.813  13.878
29909W        W93666  26.661  20.104  11.076
29910W        W93667  10.171  33.533   4.119
29911W        W93668  38.902   3.340  12.372
29912W        W93669  25.196  25.141  11.591
29913W        W93670  14.095  15.651  13.320
29914W        W93671  29.538  35.950   0.823
29915W        W93672  36.039  13.608   0.916
29916W        W93673  30.624  18.093  11.545
29917W        W93674  13.767  43.860  13.872
29918W        W93675  29.039  38.504   1.316
29919W        W93676   6.211   4.715   2.874
29920W        W93677   8.900   4.253  11.028
29921W        W93678  21.698  34.505   0.957
29922W        W93679   2.462  12.704  13.364
29923W        W93680  10.674  44.910   3.853
29924W        W93681  15.152  27.096  12.475
29925W        W93682  41.974  26.604   0.320
29926W        W93683  39.518  22.729   0.788
29927W        W93684   3.296  40.021  14.912
29928W        W93685   1.850  24.116   1.268
29929W        W93686  14.767  24.666   3.693
29930W        W93687   2.728   3.405   4.652
29931W        W93688  24.518  36.890  13.355
29932W        W93689  40.342  22.058  11.464
29933W        W93690  17.251   5.295  12.021
29934W        W93691  25.659  21.526   2.232
29935W        W93692  41.303  27.003   0.423
29936W        W93693  20.193   7.413   1.327
29937W        W93694   7.877  39.550   0.742
29938W        W93695  43.399  24.134  13.480
29939W        W93696  26.982  32.585   3.168
29940W        W93697  28.529  13.109   2.324
29941W        W93698  43.308  12.153   3.834
29942W        W93699  42.485  42.000  12.933
29943W        W93700  12.643  21.078  11.519
29944W        W93701   5.221  33.592  14.793
29945W        W93702   2.879  24.041   1.794
29946W        W93703  43.455  40.364  10.048
29947W        W93704   5.801  38.983   1.382
29948W        W93705  33.959   2.770  14.837
29949W        W93706  26.206  17.133  13.363
29950W        W93707  29.997   2.377  13.391
29951W        W93708  15.103  33.486  11.499
29952W        W93709  35.941  13.239   1.340
29953W        W93710  26.989  43.488   3.146
29954W        W93711  35.483   5.739  10.534
29955W        W93712   9.315  41.934   1.882
29956W        W93713  28.639   4.208  12.358
29957W        W93714  40.476   4.822  14.494
29958W        W93715   1.364   2.793  13.880
29959W        W93716  38.007  13.617   0.853
29960W        W93717  43.988  17.576  12.833
29961W        W93718  37.972  19.671   0.819
29962W        W93719  41.366  28.496   4.350
29963W        W93720  21.190  30.542   1.844
29964W        W93721   4.364  33.499   3.706
29965W        W93722  12.739  17.109  10.897
29966W        W93723   6.770  31.402   0.462
29967W        W93724  43.490  11.291   0.734
29968W        W93725   2.785   0.444  12.433
29969W        W93726   4.744  42.956   2.396
29970W        W93727  16.133  34.407  11.057
29971W        W93728  11.842  43.327   1.900
29972W        W93729  36.043  26.029  11.080
29973W        W93730  19.773  24.719  11.397
29974W        W93731  28.975  30.518  13.918
29975W        W93732  18.673  36.885  10.980
29976W        W93733  27.498  43.818  14.976
29977W        W93734   6.733  33.896   3.372
29978W        W93735   0.949  32.457  14.427
29979W        W93736   2.239  41.850  12.085
29980W        W93737  32.057  43.371  14.472
29981W        W93738  19.663  14.737  10.044
29982W        W93739   7.179  21.256  14.955
29983W        W93740  24.160   7.891   2.703
29984W        W93741   2.819  41.327   4.620
29985W        W93742  21.639  29.080  11.011
29986W        W93743  10.773  39.811  11.554
29987W        W93744  38.916  39.431   1.290
29988W        W93745  43.493  10.782  13.429
29989W        W93746  11.200  32.143  10.604
29990W        W93747  11.192   4.359  11.998
29991W        W93748  16.300  38.909   4.167
29992W        W93749   0.256   2.860  12.519
29993W        W93750  34.502   1.821   1.815
29994W        W93751  38.948   9.276   3.169
29995W        W93752   5.786  37.835   0.897
29996W        W93753  18.214  28.038  10.458
29997W        W93754   2.388  17.709  13.808
29998W        W93755   8.768  40.429   2.777
29999W        W93756  30.987   8.732   5.204
30000W        W93757  24.540  43.962   4.205
30001W        W93758  29.946  37.912   2.742
30002W        W93759  16.812  14.139   0.343
30003W        W93760  15.247   2.885   3.254
30004W        W93761   8.852   2.442   1.391
30005W        W93762  43.430  12.124  14.446
30006W        W93763  30.924  37.448   0.268
30007W        W93764  44.981   4.269  12.394
30008W        W93765  34.494  27.466  13.828
30009W        W93766  32.557  39.054   1.329
30010W        W93767  27.669  27.060   2.402
30011W        W93768  18.650   9.235  13.424
30012W        W93769  16.775   2.745  12.422
30013W        W93770  38.966  11.658  10.150
30014W        W93771   3.278  29.094  14.350
30015W        W93772   2.729  37.339   2.255
30016W        W93773  11.170  14.732  11.526
30017W        W93774   3.888   3.351  14.344
30018W        W93775  33.962   2.352  12.926
30019W        W93776  14.815  14.730   1.410
30020W        W93777  43.401  43.783   4.617
30021W        W93778  17.203  27.164   2.738
30022W        W93779  30.938  39.889  14.842
30023W        W93780  33.948   4.411   4.330
30024W        W93781   4.449  29.965   0.732
30025W        W93782  28.047  17.201  13.530
30026W        W93783   1.869  28.520   2.246
30027W        W93784  25.103  19.557   2.266
30028W        W93785  12.285   6.284   3.309
30029W        W93786  14.651   2.264   2.338
30030W        W93787   3.369   5.250   1.363
30031W        W93788   3.947  44.415   1.315
30032W        W93789  26.057  23.573  11.442
30033W        W93790  28.056   0.867  13.496
30034W        W93791  23.497   2.400  14.922
30035W        W93792  40.975  42.837  11.497
30036W        W93793  43.769  42.352  13.978
30037W        W93794   7.859  14.788  11.537
30038W        W93795  28.938  12.625   0.751
30039W        W93796  15.806  29.440   0.912
30040W        W93797  30.145   3.870  13.327
30041W        W93798  11.761  38.045   0.330
30042W        W93799  14.303  12.316   2.744
30043W        W93800  33.071  41.005   1.716
30044W        W93801  19.719  33.002   4.280
30045W        W93802  22.710  24.639   4.788
30046W        W93803  33.989  18.095   4.204
30047W        W93804  34.880  25.025  12.362
30048W        W93805  11.356  30.535   4.220
30049W        W93806  39.402  31.995   2.902
30050W        W93807  16.627  16.719  13.851
30051W        W93808  21.156  11.154   2.890
30052W        W93809  27.656  16.779   4.630
30053W        W93810   5.742   1.798   3.759
30054W        W93811  14.174  17.127   0.429
30055W        W93812   0.252  35.507  12.535
30056W        W93813  29.093   9.370   1.832
30057W        W93814  19.562  21.161  14.479
30058W        W93815  20.606  23.114   4.688
30059W        W93816   9.735   2.383   3.316
30060W        W93817   8.825  25.038   2.297
30061W        W93818  22.580  15.638   1.316
30062W        W93819   7.280  31.478   2.790
30063W        W93820  35.082  32.635  12.992
30064W        W93821   4.758  12.743  11.123
30065W        W93822  16.763  33.112  11.910
30066W        W93823  44.887  40.922   3.230
30067W        W93824  23.224  17.253   2.710
30068W        W93825  13.264  33.490  14.371
30069W        W93826   7.298   7.861  12.871
30070W        W93827   5.383  12.826   2.194
30071W        W93828  36.419  37.446  14.021
30072W        W93829  17.120   4.926   1.325
30073W        W93830  28.514  22.518   0.828
30074W        W93831  19.199  43.005   1.901
30075W        W93832  39.892  26.134   1.724
30076W        W93833  10.735   3.952   0.350
30077W        W93834  38.469  17.645   4.227
30078W        W93835  17.254  31.419   1.438
30079W        W93836  33.619  11.296   0.763
30080W        W93837  33.587  22.745   1.414
30081W        W93838   7.346  16.126  11.493
30082W        W93839  42.435  32.985  13.405
30083W        W93840   9.837  14.805   2.408
30084W        W93841   5.776  27.503   2.408
30085W        W93842  12.702  28.623  12.438
30086W        W93843  36.530  31.927   3.796
30087W        W93844  12.189  35.015   0.380
30088W        W93845  40.976   8.347   0.324
30089W        W93846  44.810   0.831  13.975
30090W        W93847   1.455  42.294   0.816
30091W        W93848  37.852  31.565  11.407
30092W        W93849   3.770  25.189  13.895
30093W        W93850  21.217  24.053   4.273
30094W        W93851  39.528  23.607  11.557
30095W        W93852  18.258   0.822  13.977
30096W        W93853  18.669  32.026   3.194
30097W        W93854  11.704  37.465  14.784
30098W        W93855  41.866  18.671  12.351
30099W        W93856   5.197   1.306   4.706
30100W        W93857  21.018  41.404  14.845
30101W        W93858  21.122  39.050  14.416
30102W        W93859  18.279  17.241  11.957
30103W        W93860  36.985  33.523   1.847
30104W        W93861  36.063   4.373  14.312
30105W        W93862  39.461  34.899   1.278
30106W        W93863  34.919  34.113   4.716
30107W        W93864  20.747   4.329  11.011
30108W        W93865  23.098  38.880   3.639
30109W        W93866   4.363   8.234  11.529
30110W        W93867  16.585  21.743   0.392
30111W        W93868   0.822   9.259  14.929
30112W        W93869  16.739  22.667   2.388
30113W        W93870  44.841   9.888   1.863
30114W        W93871  40.318  22.146  10.461
30115W        W93872  19.263  36.397   9.597
30116W        W93873  29.539  24.082  12.541
30117W        W93874  36.859   9.841  14.285
30118W        W93875  26.056  24.505   0.245
30119W        W93876  18.581   9.267  12.824
30120W        W93877  11.730  20.169  12.885
30121W        W93878  32.459   9.655   3.287
30122W        W93879   6.255  29.938   4.760
30123W        W93880   4.253  26.070  11.519
30124W        W93881  23.007   3.228   2.702
30125W        W93882  38.995  18.709   1.703
30126W        W93883  36.889  29.486  13.995
30127W        W93884  31.493  28.148  14.510
30128W        W93885   4.903  43.897  13.389
30129W        W93886   0.851  31.983  12.346
30130W        W93887   1.392  26.011  14.399
30131W        W93888  17.132   3.755  13.324
30132W        W93889  26.095   5.282  11.931
30133W        W93890  37.362  28.583   1.245
30134W        W93891  42.416  40.916   1.402
30135W        W93892  18.225  16.236  13.337
30136W        W93893  29.598   6.197  11.380
30137W        W93894  36.376  34.014   0.253
30138W        W93895   1.375   5.745   2.378
30139W        W93896   6.362  43.966  12.041
30140W        W93897  17.775  28.650   3.691
30141W        W93898  20.655  21.644  13.893
30142W        W93899  36.998  25.033  11.037
30143W        W93900   5.767  29.114   2.696
30144W        W93901  20.150  30.070   4.203
30145W        W93902  30.469  16.604  11.542
30146W        W93903  12.338  18.676   2.305
30147W        W93904  31.092  32.441   1.868
30148W        W93905  11.819   1.897   3.313
30149W        W93906  18.273  38.542  13.986
30150W        W93907  33.128  33.518   2.350
30151W        W93908  41.363  37.433   0.293
30152W        W93909  38.035  18.289  14.288
30153W        W93910  39.839  41.957  12.951
30154W        W93911  17.261  43.406   2.391
30155W        W93912  38.907  34.956   3.250
30156W        W93913   1.749  15.145  11.551
30157W        W93914  23.041   1.866  12.953
30158W        W93915  26.629  26.042  10.609
30159W        W93916  32.974  42.952  10.530
30160W        W93917  25.018  15.718   4.142
30161W        W93918  41.874  20.168   1.448
30162W        W93919  39.331  37.486   0.936
30163W        W93920  43.327  29.959   2.856
30164W        W93921  33.522  29.155   4.284
30165W        W93922  18.634  20.138   2.860
30166W        W93923  16.769  16.084  14.417
30167W        W93924   9.823  23.079   3.242
30168W        W93925   9.827  43.839   1.729
30169W        W93926  25.505   6.222  11.039
30170W        W93927  35.989  31.426   0.918
30171W        W93928  34.531   8.875  14.408
30172W        W93929  36.397  10.176  14.851
30173W        W93930  12.679  42.905  12.444
30174W        W93931  10.141   0.453  10.452
30175W        W93932  31.051  11.790   3.368
30176W        W93933  24.665  40.861   0.461
30177W        W93934   9.247  34.538   2.383
30178W        W93935  34.960  30.552   4.297
30179W        W93936  40.926  10.840   4.636
30180W        W93937  32.109   9.163  14.279
30181W        W93938   6.315  18.203  14.911
30182W        W93939  18.113  44.000  12.064
30183W        W93940  26.042   9.650  11.125
30184W        W93941  43.998   8.188  10.953
30185W        W93942  33.979  34.897  14.475
30186W        W93943  43.341   9.693  12.975
30187W        W93944  29.971  37.533   2.806
30188W        W93945  22.590  19.590   2.333
30189W        W93946  14.637   2.367  10.135
30190W        W93947   8.759  31.973  13.489
30191W        W93948  40.525  36.076  13.384
30192W        W93949  11.622  24.010   1.273
30193W        W93950  35.434  24.498  11.971
30194W        W93951   2.424  13.838  14.345
30195W        W93952  17.687  27.108  13.384
30196W        W93953  27.119  13.708   4.232
30197W        W93954  39.352  36.915   0.750
30198W        W93955  22.547  23.561   3.195
30199W        W93956   2.820   8.316  10.539
30200W        W93957  14.710  20.677  14.013
30201W        W93958  33.397  13.307   4.676
30202W        W93959  21.074  22.057  12.461
30203W        W93960  43.358   9.277  13.851
30204W        W93961  33.099  31.943   5.295
30205W        W93962   0.455  25.996  14.946
30206W        W93963  12.240   6.857   3.803
30207W        W93964  22.145  14.724  12.349
30208W        W93965  32.528  36.082  13.363
30209W        W93966  13.681  30.567   2.363
30210W        W93967  10.278  41.358  10.938
30211W        W93968  35.884  17.696   0.857
30212W        W93969  36.969  18.721   2.758
30213W        W93970  11.782  39.962   3.857
30214W        W93971  31.403  28.947   4.293
30215W        W93972  12.805  44.361   4.229
30216W        W93973   6.192  18.130   1.827
30217W        W93974   5.397   7.773  11.588
30218W        W93975  13.296  18.223   0.803
30219W        W93976  28.128  25.062  14.784
30220W        W93977  11.695   7.851   2.778
30221W        W93978  21.231  16.753   2.745
30222W        W93979  19.621  43.004   4.143
30223W        W93980  41.466  29.636  10.521
30224W        W93981  19.063  18.196   2.708
30225W        W93982  35.947  34.984  13.988
30226W        W93983   0.394  29.125   3.653
30227W        W93984  31.009  40.371  13.382
30228W        W93985  12.848  33.939   4.625
30229W        W93986  41.368  15.136   2.688
30230W        W93987  28.500  25.197   0.753
30231W        W93988  40.428  34.085  10.903
30232W        W93989  41.496  39.484  12.443
30233W        W93990  36.040  25.501  14.943
30234W        W93991  23.227  41.000  11.404
30235W        W93992  16.599   5.343  12.862
30236W        W93993  21.250   2.891  11.506
30237W        W93994  19.247  10.791   2.894
30238W        W93995  40.003  19.105   3.314
30239W        W93996  19.738  30.002  14.965
30240W        W93997  12.689  25.180  13.954
30241W        W93998  14.098  34.102  11.121
30242W        W93999  17.769   8.838   1.314
30243W        W94000  15.284   6.287   2.296
30244W        W94001  15.205  35.944  12.848
30245W        W94002  33.398  43.370  11.909
30246W        W94003  14.715  44.788   3.657
30247W        W94004   8.325   3.271  13.839
30248W        W94005  23.690  17.771   2.250
30249W        W94006   0.977  34.572  13.537
30250W        W94007  13.213  39.015  10.058
30251W        W94008   1.906   2.423   4.723
30252W        W94009  17.146  23.611  11.551
30253W        W94010  37.535  22.140  10.106
30254W        W94011  16.607  26.608   4.810
30255W        W94012  29.085   7.729  11.974
30256W        W94013  39.822  43.486   0.352
30257W        W94014  40.337  34.984   5.236
30258W        W94015  42.013  19.635  10.443
30259W        W94016  44.415  19.681   1.856
30260W        W94017  24.492   6.237  13.047
30261W        W94018  44.876  38.433  14.349
30262W        W94019   5.750  11.236  14.389
30263W        W94020  29.929   3.334   5.221
30264W        W94021  32.553  31.947   0.354
30265W        W94022  41.899  41.959  12.944
30266W        W94023  24.043  19.048  11.473
30267W        W94024  27.668  35.086   0.250
30268W        W94025  35.368  39.348   4.601
30269W        W94026  22.027  22.644  13.394
30270W        W94027  32.416  32.033  11.906
30271W        W94028  10.816  42.383   3.825
30272W        W94029  13.230  29.113  13.793
30273W        W94030  26.156   4.796   2.829
30274W        W94031   0.918  25.181  10.436
30275W        W94032  18.700  41.816  11.592
30276W        W94033  39.515  30.528  11.393
30277W        W94034  42.514  29.005  10.497
30278W        W94035  42.445  30.419  10.928
30279W        W94036  10.643  23.694  13.423
30280W        W94037   6.277   7.803  10.154
30281W        W94038  23.132   5.385  11.997
30282W        W94039   1.860  26.650   1.245
30283W        W94040  40.968  42.032   2.763
30284W        W94041  26.669  31.092   2.367
30285W        W94042  19.588   3.722   0.399
30286W        W94043  19.097  12.209   2.848
30287W        W94044   5.737  13.793  14.945
30288W        W94045  44.827  29.545  10.462
30289W        W94046  30.995  32.549  14.933
30290W        W94047  26.533  10.791   2.207
30291W        W94048  41.424   6.807   3.206
30292W        W94049  30.914  28.491   4.718
30293W        W94050  21.208   0.344   0.960
30294W        W94051  16.115  38.073  11.390
30295W        W94052   6.424  16.771  11.493
30296W        W94053   4.823  36.918   4.205
30297W        W94054  24.178  30.560   4.631
30298W        W94055  11.654  26.643  10.456
30299W        W94056  26.178  14.226   4.143
30300W        W94057  35.884   5.823   0.957
30301W        W94058  35.061  39.894   3.767
30302W        W94059   9.373  31.648  12.970
30303W        W94060  30.997  37.417   1.865
30304W        W94061  19.238   8.164  10.502
30305W        W94062  27.975  30.086  11.538
30306W        W94063  27.159  14.322  10.911
30307W        W94064   3.748  44.940   1.906
30308W        W94065  24.046  40.978   2.386
30309W        W94066   3.855  43.932   1.696
30310W        W94067   1.432   5.740  14.331
30311W        W94068  40.018   4.831   4.612
30312W        W94069  23.175   8.366   3.693
30313W        W94070  18.658   5.221   2.818
30314W        W94071  17.699  27.523   2.186
30315W        W94072  11.757  30.148  14.442
30316W        W94073  15.678  35.905   2.744
30317W        W94074  23.644  31.956  14.389
30318W        W94075   1.403   6.761  10.922
30319W        W94076   9.683  19.112   0.481
30320W        W94077  39.836  18.746   1.373
30321W        W94078  44.284  33.998   0.390
30322W        W94079   3.728  23.670   1.877
30323W        W94080  18.128   4.217   3.210
30324W        W94081  16.745  25.575  10.408
30325W        W94082  21.557   8.791  14.305
30326W        W94083  16.179  23.088  12.481
30327W        W94084  36.527  28.000   1.210
30328W        W94085   8.207  31.131  10.444
30329W        W94086  40.838  12.693  11.985
30330W        W94087  11.169  42.885  10.152
30331W        W94088  41.823  16.233   2.760
30332W        W94089  20.685  20.231   1.726
30333W        W94090   4.881  21.715  13.460
30334W        W94091  44.861   2.253   4.333
30335W        W94092  40.490  22.731   0.775
30336W        W94093  37.856   2.872  14.283
30337W        W94094  26.132   5.386   0.307
30338W        W94095   3.327  18.267   3.217
30339W        W94096  37.560   0.296   4.668
30340W        W94097  11.679  19.605   5.173
30341W        W94098  36.385  32.626  13.878
30342W        W94099  37.015  44.415   1.306
30343W        W94100  38.820  13.111   2.380
30344W        W94101  26.185  23.109   2.821
30345W        W94102  38.894  15.813   4.748
30346W        W94103  16.078  10.665   0.295
30347W        W94104  13.702   5.769   2.300
30348W        W94105   6.676  12.152   1.288
30349W        W94106  15.795  27.972   3.702
30350W        W94107   5.269  26.190   2.820
30351W        W94108  37.899  24.650  14.954
30352W        W94109   6.772  19.242   0.824
30353W        W94110  10.284  33.029   9.991
30354W        W94111  14.794  40.411  11.029
30355W        W94112  17.665   4.922   2.373
30356W        W94113  35.367  20.136   2.860
30357W        W94114   1.369  14.172   0.941
30358W        W94115  31.438  19.143  12.430
30359W        W94116  27.668  12.299  11.953
30360W        W94117  27.122  30.985   3.864
30361W        W94118  37.468  11.672   4.803
30362W        W94119  28.944   5.390   3.280
30363W        W94120   8.268   1.387  11.490
30364W        W94121  37.882  32.998  14.777
30365W        W94122  21.534   8.868  10.610
30366W        W94123  25.528   6.287  14.004
30367W        W94124  27.978  43.502  14.761
30368W        W94125  27.679  42.927   3.829
30369W        W94126  28.575  14.162  13.911
30370W        W94127   7.363  12.728   1.871
30371W        W94128  16.625  39.425  12.874
30372W        W94129  12.644  44.837   2.228
30373W        W94130  24.606  11.263   4.603
30374W        W94131  11.273  31.626   0.817
30375W        W94132  38.359  23.559   2.663
30376W        W94133   7.710  15.216   2.399
30377W        W94134   8.781  25.488  10.613
30378W        W94135  42.953   7.779  11.472
30379W        W94136  12.279  38.325   3.670
30380W        W94137  24.201  23.064  14.313
30381W        W94138  34.059  13.137  11.903
30382W        W94139  43.424   0.958  14.926
30383W        W94140  11.135  42.922  11.511
30384W        W94141  24.191   2.745   0.930
30385W        W94142  34.058  25.534   9.952
30386W        W94143  10.845  35.373  13.047
30387W        W94144  39.548   1.351   3.699
30388W        W94145  34.878  18.746   1.450
30389W        W94146  29.127   6.892   0.366
30390W        W94147  10.646   4.446  13.437
30391W        W94148  36.880  40.968  10.968
30392W        W94149   0.800  13.209  12.014
30393W        W94150   2.323  37.580   0.819
30394W        W94151  42.412  18.714   0.457
30395W        W94152  27.642  31.469   3.319
30396W        W94153   0.441   5.880   4.347
30397W        W94154  39.361  10.207   4.828
30398W        W94155   2.725  39.530   1.807
30399W        W94156  32.889  23.162  13.795
30400W        W94157  15.252  14.339  13.797
30401W        W94158   4.286  18.210  13.505
30402W        W94159  38.956  28.954   1.344
30403W        W94160  38.417  25.641   0.274
30404W        W94161  43.470  38.546   1.885
30405W        W94162  18.247  32.141   3.667
30406W        W94163  40.038  30.085   4.836
30407W        W94164  30.061  26.689   4.710
30408W        W94165  17.162  19.647   2.378
30409W        W94166  25.074  36.899  13.811
30410W        W94167  12.626   6.294  11.416
30411W        W94168   8.674   2.822   1.757
30412W        W94169   7.200  29.098  10.887
30413W        W94170  27.558  18.077  10.118
30414W        W94171  38.395  37.064   3.206
30415W        W94172  15.688  12.305  10.460
30416W        W94173   8.278  22.046   2.718
30417W        W94174   1.855  20.526   0.255
30418W        W94175  42.407  30.948   1.818
30419W        W94176  28.434  23.618   3.697
30420W        W94177   7.784   6.804   0.885
30421W        W94178   3.752  22.742  12.371
30422W        W94179  32.035  20.109  13.397
30423W        W94180  20.054  10.674  10.618
30424W        W94181  35.561  25.522   2.266
30425W        W94182  32.086  38.900   0.918
30426W        W94183   0.862  31.470   4.224
30427W        W94184   4.349  44.993  14.961
30428W        W94185  27.964  42.370   0.307
30429W        W94186  14.701  21.722  13.955
30430W        W94187  15.582  26.057   1.780
30431W        W94188   9.859   9.666  12.558
30432W        W94189  20.152  12.779  10.996
30433W        W94190  17.218  39.942  14.966
30434W        W94191  20.239  39.899   1.447
30435W        W94192  30.984  36.580   1.282
30436W        W94193  19.611  21.262  12.393
30437W        W94194  33.928  22.738  14.280
30438W        W94195  37.339   1.472  10.404
30439W        W94196  10.330   0.909   3.369
30440W        W94197  15.290  37.963  12.524
30441W        W94198  41.339   1.923   3.298
30442W        W94199  21.229   8.284   0.905
30443W        W94200  32.446   6.402   3.269
30444W        W94201  15.747  15.179  10.576
30445W        W94202  41.791  44.910   1.316
30446W        W94203  42.808  27.678  14.320
30447W        W94204  40.830  36.033  13.934
30448W        W94205  33.507   9.660  13.371
30449W        W94206   0.493  18.114  12.516
30450W        W94207  23.595  37.540   3.823
30451W        W94208  17.124  33.625  14.023
30452W        W94209  39.028  10.824  12.039
30453W        W94210   4.716  18.278   2.344
30454W        W94211   5.784  36.403  10.601
30455W        W94212  44.447   4.375  12.886
30456W        W94213  25.999  18.783   3.263
30457W        W94214  10.655  10.776   1.714
30458W        W94215  10.708  44.425   1.835
30459W        W94216  36.563  18.703   4.799
30460W        W94217  32.907  13.836  14.029
30461W        W94218  34.455  15.295  12.477
30462W        W94219   7.249  26.107   2.297
30463W        W94220  24.205  13.812  14.985
30464W        W94221  19.151   5.292   1.443
30465W        W94222  31.492   5.734   4.755
30466W        W94223  20.697  23.180   1.855
30467W        W94224  25.132  22.067   3.346
30468W        W94225   8.694  27.079   2.667
30469W        W94226   9.353  16.751  12.022
30470W        W94227   6.807   8.397  10.895
30471W        W94228  28.017  29.026  14.988
30472W        W94229  21.056  20.659   3.708
30473W        W94230  18.254  36.509   4.175
30474W        W94231   6.332  37.859  11.105
30475W        W94232  37.996  16.726  13.366
30476W        W94233  18.588  40.035  14.031
30477W        W94234  24.593  44.929  13.062
30478W        W94235  28.636  40.000  14.419
30479W        W94236  39.370  37.015   2.316
30480W        W94237  28.665  31.506  14.429
30481W        W94238  29.081   7.196  13.870
30482W        W94239   1.932  39.040  12.905
30483W        W94240  19.755  42.333   0.332
30484W        W94241   4.762  13.725   0.350
30485W        W94242  43.441  33.458   1.360
30486W        W94243  44.411  29.591   1.820
30487W        W94244  39.842  13.115  12.428
30488W        W94245  37.496  38.547   0.944
30489W        W94246  31.453  31.902   3.653
30490W        W94247  40.929  37.977   0.264
30491W        W94248  26.046  19.112   4.253
30492W        W94249  35.024  44.359   4.675
30493W        W94250  21.217  10.229  11.601
30494W        W94251  28.669  13.141   3.212
30495W        W94252  10.228  19.586   3.306
30496W        W94253  14.640   2.296   0.796
30497W        W94254   8.384  41.931   3.659
30498W        W94255  31.546  24.671  10.986
30499W        W94256   1.835  29.585   0.939
30500W        W94257  12.740  12.831  12.915
30501W        W94258   0.985   0.294   3.694
30502W        W94259  19.269  28.449   0.783
30503W        W94260  26.523  14.147   2.342
30504W        W94261  44.286  25.015   4.261
30505W        W94262   6.234  16.281   2.815
30506W        W94263  20.559  43.920  12.550
30507W        W94264  25.141  11.736   3.257
30508W        W94265  29.932  21.173   4.608
30509W        W94266  35.864  18.204  13.486
30510W        W94267   8.790  26.486   1.294
30511W        W94268   1.805  23.053  10.606
30512W        W94269  11.165   6.711   4.350
30513W        W94270  27.074  34.485  13.370
30514W        W94271  37.004  18.108   3.236
30515W        W94272  28.549  29.547   2.219
30516W        W94273  18.701  17.564   1.357
30517W        W94274  13.831   0.748   3.152
30518W        W94275  44.794  39.550  14.430
30519W        W94276  16.571  30.612  12.043
30520W        W94277  24.030  27.107   0.864
30521W        W94278  17.755  16.075   1.811
30522W        W94279   5.748   2.901  12.362
30523W        W94280  24.560  18.256  14.831
30524W        W94281   8.229   7.806  11.019
30525W        W94282   8.369  25.128   2.835
30526W        W94283   5.321  25.552   3.214
30527W        W94284  24.502  39.497   3.368
30528W        W94285   6.820  10.818   2.412
30529W        W94286  43.345  14.644   4.334
30530W        W94287  18.213  32.540  14.483
30531W        W94288  11.625   7.213   5.295
30532W        W94289  37.390  22.565  13.791
30533W        W94290  10.227   8.800   2.284
30534W        W94291  21.640   0.404  13.332
30535W        W94292   7.802  28.537   4.202
30536W        W94293   9.846  31.436  12.431
30537W        W94294   8.775  18.236   0.816
30538W        W94295  27.606   8.261  14.381
30539W        W94296   0.775  22.721   2.672
30540W        W94297  26.644  16.250  11.602
30541W        W94298  39.447  28.107   1.422
30542W        W94299  31.522  25.215   0.375
30543W        W94300   3.859  36.449   4.779
30544W        W94301  44.388  22.087   2.862
30545W        W94302  26.692  21.087   3.696
30546W        W94303  43.862  40.517   4.177
30547W        W94304   1.468  12.755  12.847
30548W        W94305  26.112  30.020   2.852
30549W        W94306  37.962   4.824   3.208
30550W        W94307  25.152  21.125  10.569
30551W        W94308  39.993  43.857  11.080
30552W        W94309  24.701  15.695  14.366
30553W        W94310   7.341  40.992   0.431
30554W        W94311  38.917  17.252   1.374
30555W        W94312  34.948  24.030  12.389
30556W        W94313  25.556   8.692  11.111
30557W        W94314   7.363   8.759   3.741
30558W        W94315  22.009   7.359   1.372
30559W        W94316  26.490   3.823  13.498
30560W        W94317   3.235  32.530   4.306
30561W        W94318  15.257  23.725  10.600
30562W        W94319  32.459  31.420   4.772
30563W        W94320  36.556  30.496  14.357
30564W        W94321  43.823  36.935   0.368
30565W        W94322   2.254  17.670   2.846
30566W        W94323  29.920  30.415   2.756
30567W        W94324  34.057   6.893  12.902
30568W        W94325  11.344  25.509  14.453
30569W        W94326  29.632  36.903   3.801
30570W        W94327  22.718  13.293  11.882
30571W        W94328  28.603  22.566  13.885
30572W        W94329   5.759  30.536   0.826
30573W        W94330  25.161  23.995  11.515
30574W        W94331   8.748  20.083   5.171
30575W        W94332  42.865   8.356   0.356
30576W        W94333   1.879  32.508  13.405
30577W        W94334  12.347   6.777   2.673
30578W        W94335   7.874   9.675   2.267
30579W        W94336  15.127  39.551  14.312
30580W        W94337  33.388  26.177   2.192
30581W        W94338  29.456  17.597  13.978
30582W        W94339  41.485  25.015   5.261
30583W        W94340  27.542  25.046   0.834
30584W        W94341  35.914   1.327   0.870
30585W        W94342  43.363  37.907   4.303
30586W        W94343   2.230  16.135  12.036
30587W        W94344   1.931   9.651  13.483
30588W        W94345   5.688  18.636   2.762
30589W        W94346  44.886  29.101  12.341
30590W        W94347   7.719  15.175   3.386
30591W        W94348  10.768  13.136   1.846
30592W        W94349  44.960  30.558  12.919
30593W        W94350  28.163  24.122   4.236
30594W        W94351  33.939  33.022  11.857
30595W        W94352  41.332  21.109   2.773
30596W        W94353  39.051  38.474   3.167
30597W        W94354   4.703  20.652   1.439
30598W        W94355  34.456  28.548  11.575
30599W        W94356   4.743  16.221  12.930
30600W        W94357   5.351  19.043  11.421
30601W        W94358  38.997  31.579  11.995
30602W        W94359  28.492   3.801   3.836
30603W        W94360  34.016  16.311  13.968
30604W        W94361   2.749  44.491  11.089
30605W        W94362  35.069   7.314   3.158
30606W        W94363  10.827  32.400   4.641
30607W        W94364   6.830  15.186  12.559
30608W        W94365  21.565  32.992   0.799
30609W        W94366  25.561   7.759   0.418
30610W        W94367  27.672  32.918   3.632
30611W        W94368  12.248  39.448  10.630
30612W        W94369  32.946   3.448  11.863
30613W        W94370  40.440  33.031   1.708
30614W        W94371  44.873  15.144   2.377
30615W        W94372  18.774  18.258   1.762
30616W        W94373  34.098  19.635  11.553
30617W        W94374  44.963   4.842  10.005
30618W        W94375  24.977   2.912  14.286
30619W        W94376  44.363  44.463  12.467
30620W        W94377  28.971   2.397  12.436
30621W        W94378   1.763  37.377  11.096
30622W        W94379   3.456  26.124   2.801
30623W        W94380   8.812  32.413  14.307
30624W        W94381  39.419   8.373   4.715
30625W        W94382  20.748  36.541   5.216
30626W        W94383   3.879  11.226   3.731
30627W        W94384  10.769  31.500   2.406
30628W        W94385  23.614  40.409   1.739
30629W        W94386  35.564  41.297  12.531
30630W        W94387  27.973  41.498  14.969
30631W        W94388   4.899   0.344  13.447
30632W        W94389  19.561  29.466   2.764
30633W        W94390  18.655  31.995  13.325
30634W        W94391   0.425  23.093  13.895
30635W        W94392   9.363  25.479   0.303
30636W        W94393  39.402  22.223   1.366
30637W        W94394  30.008  35.987   4.599
30638W        W94395  35.990   8.343  11.917
30639W        W94396  11.781  29.066   0.421
30640W        W94397   0.401   8.827  11.927
30641W        W94398  23.998  41.509  14.915
30642W        W94399  29.533   2.259   4.235
30643W        W94400  37.964  19.628   3.850
30644W        W94401  17.569  32.530   0.849
30645W        W94402  15.787  24.573  13.491
30646W        W94403  16.080  40.884  11.530
30647W        W94404   0.879  27.981   3.371
30648W        W94405  12.846  32.044  14.440
30649W        W94406  42.983  43.480  14.464
30650W        W94407  14.817  22.533   3.358
30651W        W94408  39.315  18.749  11.059
30652W        W94409   0.488  41.325   3.251
30653W        W94410  32.907  25.680   3.356
30654W        W94411  39.810  29.451   2.693
30655W        W94412  41.925  24.563   3.678
30656W        W94413  11.149  43.805  11.920
30657W        W94414  33.421   0.877   2.319
30658W        W94415  34.584  30.942   2.902
30659W        W94416  19.230  20.249  14.026
30660W        W94417  32.942  34.922   1.408
30661W        W94418  18.275  41.434   3.215
30662W        W94419   9.652  42.313   2.856
30663W        W94420  26.676  35.378   2.722
30664W        W94421  40.837  17.138  13.859
30665W        W94422  36.909  34.096   4.792
30666W        W94423   4.248  23.519   0.859
30667W        W94424   4.702  35.582  12.018
30668W        W94425  22.720  40.028   0.271
30669W        W94426  26.997  11.635   1.823
30670W        W94427   4.280   2.472   4.254
30671W        W94428  25.983  42.508  12.555
30672W        W94429  31.012  39.515   1.267
30673W        W94430   2.722  26.608   1.749
30674W        W94431   7.400  32.459  11.386
30675W        W94432  39.855  22.737   2.902
30676W        W94433  19.065  14.326   3.762
30677W        W94434  18.276   5.350  10.601
30678W        W94435  29.951  22.548  14.829
30679W        W94436  37.482  24.639   1.850
30680W        W94437  30.614  30.152   4.651
30681W        W94438   8.292   7.889   0.333
30682W        W94439  24.589   3.434   1.864
30683W        W94440  10.830   8.229  13.797
30684W        W94441  24.974  20.525   4.280
30685W        W94442  28.114  22.176   5.136
30686W        W94443   6.296  18.288   0.371
30687W        W94444   4.908  22.566   5.188
30688W        W94445  36.391   6.882   1.896
30689W        W94446  16.813  23.726   2.406
30690W        W94447  32.431  41.527   1.841
30691W        W94448   5.917  11.670   1.863
30692W        W94449  11.732  33.982   1.825
30693W        W94450  34.892  20.059  13.831
30694W        W94451  40.858   5.398   2.796
30695W        W94452  36.535  14.616   3.713
30696W        W94453  34.381   9.387  13.019
30697W        W94454   7.171  18.283  10.446
30698W        W94455  40.410  29.528  13.796
30699W        W94456  10.814   7.263   0.333
30700W        W94457   0.423  42.863  12.028
30701W        W94458  31.005   8.773   3.371
30702W        W94459  22.152  21.712  11.904
30703W        W94460  39.485  32.992   0.348
30704W        W94461  26.133  36.410   1.797
30705W        W94462  25.079  36.993   3.273
30706W        W94463  20.032  31.438  12.457
30707W        W94464   8.805  43.504  13.043
30708W        W94465  37.013  34.421  10.416
30709W        W94466  39.462  25.545  13.851
30710W        W94467  18.547  20.612   2.287
30711W        W94468  34.953   0.349  11.949
30712W        W94469  29.042   3.272   3.305
30713W        W94470  34.006   0.275  12.550
30714W        W94471  28.187  14.747  12.022
30715W        W94472  39.944  36.417  12.418
30716W        W94473  35.361  15.807  14.770
30717W        W94474  30.047  29.061   1.846
30718W        W94475  10.169  27.583  11.079
30719W        W94476  21.143  34.531  14.323
30720W        W94477   8.896   4.414  14.992
30721W        W94478   0.874   7.199  13.901
30722W        W94479  43.877  14.326  13.324
30723W        W94480  17.647  33.428   2.770
30724W        W94481  30.051   7.906  13.438
30725W        W94482  14.168  20.071  14.930
30726W        W94483   2.766  31.927   4.226
30727W        W94484  40.415  31.622   2.792
30728W        W94485  35.595  15.134  14.355
30729W        W94486   5.843   4.855  12.044
30730W        W94487  38.560  35.866   4.751
30731W        W94488   0.270  29.053  11.948
30732W        W94489  16.700  43.001  14.475
30733W        W94490  44.320  28.445   3.778
30734W        W94491   6.863  14.245  14.440
30735W        W94492  39.416  12.743  14.829
30736W        W94493  21.543  18.184   2.717
30737W        W94494  33.021  18.114   1.914
30738W        W94495   3.361  31.624   0.752
30739W        W94496  10.816   2.886  11.425
30740W        W94497  10.184  15.261  10.120
30741W        W94498  44.479  32.978  14.289
30742W        W94499  10.185   9.385  11.863
30743W        W94500  42.306  36.940   3.250
30744W        W94501  13.351  28.648   2.815
30745W        W94502  41.340  41.861  14.909
30746W        W94503  30.915  44.406  10.454
30747W        W94504  22.152  16.109  12.425
30748W        W94505   9.386   9.389   1.838
30749W        W94506  41.489  10.183  13.308
30750W        W94507  32.074  41.910   4.186
30751W        W94508  26.650  26.498   2.268
30752W        W94509   2.929  29.476   0.404
30753W        W94510  39.383  31.433   1.812
30754W        W94511   9.209   9.256   3.840
30755W        W94512   7.181  21.627  14.972
30756W        W94513  17.556  29.020  11.490
30757W        W94514   9.819  42.808  11.563
30758W        W94515   6.922  40.981   0.964
30759W        W94516  38.378   0.352  10.980
30760W        W94517  25.990  35.050   4.353
30761W        W94518  10.335  33.409   1.709
30762W        W94519  43.485   8.711  10.519
30763W        W94520  17.081  13.137   0.841
30764W        W94521  22.207  28.631  12.078
30765W        W94522   5.367  27.941   4.317
30766W        W94523  15.194  17.295  12.420
30767W        W94524  22.079  34.545  13.031
30768W        W94525   4.366  32.118   1.775
30769W        W94526   5.844  43.822   5.246
30770W        W94527  43.374  37.410  12.385
30771W        W94528  39.815  20.706   1.430
30772W        W94529  39.510  37.368  14.875
30773W        W94530   7.285  44.975  12.475
30774W        W94531  32.990  26.095   2.711
30775W        W94532  31.973  40.481  10.406
30776W        W94533   2.787  34.935  11.103
30777W        W94534  12.299  40.918   1.360
30778W        W94535   7.298  12.248   1.310
30779W        W94536  39.055  32.106  10.126
30780W        W94537   1.306  11.755  13.812
30781W        W94538   0.894  28.465  13.879
30782W        W94539   8.279  14.640  14.478
30783W        W94540  31.510   6.903  12.565
30784W        W94541  21.695   9.879   1.916
30785W        W94542  17.162  16.179  11.589
30786W        W94543   8.714  31.999   1.750
30787W        W94544  37.504  32.514  13.367
30788W        W94545  20.543  22.685   3.806
30789W        W94546  23.124  18.713   1.914
30790W        W94547  26.132  40.031   2.835
30791W        W94548  31.530  35.860   0.433
30792W        W94549  22.550  24.045   0.787
30793W        W94550  31.497   4.286   0.301
30794W        W94551  16.257   7.841  11.028
30795W        W94552  20.031  26.659  10.627
30796W        W94553  43.437  31.053   1.285
30797W        W94554  27.513   7.785   2.376
30798W        W94555  37.357   9.685   3.265
30799W        W94556  13.675  11.238   4.653
30800W        W94557  41.508  25.002  13.843
30801W        W94558  37.529   4.328  14.511
30802W        W94559   8.696  38.973  14.832
30803W        W94560  17.191   7.352  11.883
30804W        W94561  23.077  31.074  14.329
30805W        W94562  32.622  17.106   9.990
30806W        W94563   9.771  25.056   4.617
30807W        W94564  30.605   7.719   1.451
30808W        W94565  19.042   6.225   3.200
30809W        W94566  44.472  31.524   2.671
30810W        W94567  29.535  12.341  14.379
30811W        W94568  26.648  21.263  14.484
30812W        W94569  34.918  11.328   2.202
30813W        W94570  15.288   9.227  14.027
30814W        W94571  22.622  12.626  10.003
30815W        W94572  11.799  36.497  12.979
30816W        W94573   1.856  28.597   1.727
30817W        W94574   4.361  25.179   4.830
30818W        W94575  36.579  43.490   2.674
30819W        W94576  40.823  31.517  14.848
30820W        W94577  44.449  22.103   0.802
30821W        W94578  27.598  26.653   1.756
30822W        W94579   1.740  28.649   0.920
30823W        W94580  26.049  37.838  12.987
30824W        W94581  41.498  34.537  13.407
30825W        W94582   8.821  33.510   0.899
30826W        W94583  38.945   4.368  10.432
30827W        W94584   5.730  19.196   3.334
30828W        W94585   7.269   8.238   4.717
30829W        W94586  37.086  25.522   0.429
30830W        W94587   3.380  30.427   4.804
30831W        W94588   6.297   8.270  11.567
30832W        W94589   2.395  14.150  14.466
30833W        W94590  41.016  37.928  12.499
30834W        W94591  32.046  23.607  11.533
30835W        W94592  29.639   0.447  10.627
30836W        W94593  34.424   4.860   4.602
30837W        W94594  10.712  38.873   1.431
30838W        W94595   9.799  35.402  13.894
30839W        W94596  24.113  38.917   0.278
30840W        W94597  39.498  39.984   3.211
30841W        W94598  38.491  10.340   4.736
30842W        W94599  40.348  24.157   5.221
30843W        W94600  32.921  13.782  12.866
30844W        W94601  10.720  41.026   2.749
30845W        W94602  14.289  32.558  10.406
30846W        W94603  27.186  20.538   3.687
30847W        W94604  18.735   5.839   2.231
30848W        W94605  28.564  32.437   1.438
30849W        W94606  10.743  37.836   3.843
30850W        W94607  16.601  37.870   1.354
30851W        W94608  26.587  28.679   1.226
30852W        W94609  22.588  18.673  11.553
30853W        W94610   4.352  10.371   3.187
30854W        W94611  36.086  25.687  13.389
30855W        W94612  27.976  28.655  13.471
30856W        W94613  41.902  14.196   4.120
30857W        W94614  30.573  24.102  10.505
30858W        W94615  38.893  14.165  13.546
30859W        W94616  28.160  39.895   3.291
30860W        W94617  31.015  29.442  12.088
30861W        W94618  10.783  18.141  11.038
30862W        W94619  19.120   0.940  10.472
30863W        W94620  40.831   5.231   0.425
30864W        W94621   9.166   7.244  13.331
30865W        W94622  19.569  10.179  14.452
30866W        W94623  16.666  39.953   1.884
30867W        W94624   2.245  29.997   0.392
30868W        W94625  32.601  29.522  13.010
30869W        W94626  17.778  43.881   9.996
30870W        W94627  36.497   6.269   4.331
30871W        W94628   6.838   1.826  14.888
30872W        W94629  11.152   1.481   4.162
30873W        W94630   1.371  33.122  11.909
30874W        W94631  28.178  35.512   3.690
30875W        W94632  44.902  34.536   4.629
30876W        W94633   9.210  43.271  10.598
30877W        W94634  17.558  15.300   3.714
30878W        W94635   5.315  40.921   1.737
30879W        W94636   6.232  38.329  12.938
30880W        W94637  22.694  42.454   0.468
30881W        W94638   7.395   4.726   2.754
30882W        W94639   8.332   6.264  12.918
30883W        W94640  36.955   7.842   0.325
30884W        W94641  25.212  13.339   5.200
30885W        W94642  13.602   7.212  11.508
30886W        W94643  13.345  25.710   4.348
30887W        W94644  43.894  28.986   3.171
30888W        W94645  33.033  37.960   0.285
30889W        W94646  39.466  40.375   1.232
30890W        W94647  40.479  31.090   2.206
30891W        W94648  29.649   9.263  10.487
30892W        W94649   4.742   0.356  10.632
30893W        W94650  36.001   9.352   1.802
30894W        W94651  37.450  27.141  12.855
30895W        W94652  28.152  35.086  11.610
30896W        W94653  28.511   7.306  13.353
30897W        W94654  37.485  40.433   2.311
30898W        W94655   1.821  37.509  11.415
30899W        W94656  41.373  33.534   1.227
30900W        W94657  39.353  40.522   3.717
30901W        W94658   6.277  20.043  14.956
30902W        W94659  18.661  36.586   9.967
30903W        W94660  14.611  37.427   3.664
30904W        W94661  32.946  24.607  11.885
30905W        W94662  32.050  39.879   0.303
30906W        W94663  43.357  40.959  13.524
30907W        W94664  33.076  14.814   4.280
30908W        W94665  15.665  39.330   1.839
30909W        W94666  15.598  24.062   4.805
30910W        W94667  11.693  25.136   4.698
30911W        W94668  18.659  24.140   4.307
30912W        W94669  20.538  32.615   4.825
30913W        W94670  32.988  35.437  11.117
30914W        W94671  34.510  30.087  14.400
30915W        W94672  20.732  38.530   4.296
30916W        W94673  24.525  24.115   4.689
30917W        W94674  10.352  30.083   0.400
30918W        W94675  26.013  41.042   3.817
30919W        W94676   9.752  28.122  12.457
30920W        W94677  20.176  27.449   0.431
30921W        W94678  11.865  28.435   4.164
30922W        W94679  43.974   4.861   2.360
30923W        W94680  12.719  10.821   0.928
30924W        W94681  18.282   4.727  12.528
30925W        W94682  15.640  25.055   2.813
30926W        W94683  17.115  23.006  11.400
30927W        W94684  32.121   9.667   3.836
30928W        W94685  31.951  30.612   4.325
30929W        W94686   1.919   2.395  13.817
30930W        W94687  28.664  30.032   0.887
30931W        W94688   3.769  17.626  12.466
30932W        W94689  37.482  26.584   5.194
30933W        W94690  24.982  33.095  11.437
30934W        W94691  12.201   0.407   9.602
30935W        W94692  11.671  28.659  14.775
30936W        W94693  13.278  38.564   0.857
30937W        W94694   4.329  16.675  13.936
30938W        W94695  21.693  38.028  11.478
30939W        W94696   8.900  35.559  14.281
30940W        W94697   6.705  22.525  14.958
30941W        W94698  37.500  43.405  12.048
30942W        W94699  24.070  10.290   0.918
30943W        W94700  43.855  25.090  11.593
30944W        W94701  36.533  34.459   4.606
30945W        W94702  37.878  10.237  13.874
30946W        W94703  32.134  29.043   2.854
30947W        W94704  36.365  28.995   4.161
30948W        W94705  23.634  28.545  14.975
30949W        W94706  10.261   6.710   0.784
30950W        W94707  16.188  36.942  11.542
30951W        W94708  29.052  12.640  13.959
30952W        W94709  10.715  38.040  12.538
30953W        W94710   5.210  27.074  11.555
30954W        W94711  37.971  23.535   4.648
30955W        W94712  23.591  37.871  13.058
30956W        W94713  24.672  32.603  13.406
30957W        W94714  34.571  14.705  13.988
30958W        W94715  13.193  25.112  11.037
30959W        W94716   6.863  26.671  12.882
30960W        W94717  34.035  34.416   0.403
30961W        W94718   7.306   3.775  11.121
30962W        W94719  39.479  11.657  14.365
30963W        W94720   6.755  34.398  12.360
30964W        W94721  30.084  24.174  10.548
30965W        W94722  38.518  25.068   2.404
30966W        W94723  32.919  36.437   2.863
30967W        W94724  40.351   4.784  14.948
30968W        W94725  27.478   0.776  14.495
30969W        W94726  14.270  23.503   2.794
30970W        W94727  36.403   4.811   4.140
30971W        W94728  43.329  37.059  14.419
30972W        W94729  40.418  26.955   2.893
30973W        W94730  15.723  17.699   1.788
30974W        W94731  42.951   5.699   1.269
30975W        W94732   3.428   4.779  10.547
30976W        W94733  38.908   1.302   0.726
30977W        W94734  41.919   1.403  10.966
30978W        W94735  11.276   7.377   4.800
30979W        W94736   7.363  43.516   5.210
30980W        W94737  11.240  22.526  12.419
30981W        W94738  26.700  34.604   3.760
30982W        W94739  18.285  16.775  14.319
30983W        W94740  32.988  35.895  11.070
30984W        W94741  29.026   3.329   0.903
30985W        W94742  17.662  40.431   1.323
30986W        W94743   3.861  37.451   4.643
30987W        W94744   8.326   1.831  10.565
30988W        W94745  17.225  15.602   4.129
30989W        W94746  33.405  22.115   4.172
30990W        W94747  10.868  22.095   3.369
30991W        W94748   8.767  29.153  11.042
30992W        W94749  27.675  10.175  10.525
30993W        W94750  33.582  14.725  10.063
30994W        W94751  35.503  41.847  14.998
30995W        W94752  23.133  12.128   3.631
30996W        W94753   4.747   1.968   2.293
30997W        W94754  36.066   6.908   0.805
30998W        W94755   9.149  41.421  13.988
30999W        W94756  34.524   7.675   2.359
31000W        W94757  42.937  42.502  10.645
31001W        W94758  41.402  35.949   4.138
31002W        W94759  42.312   4.257  12.010
31003W        W94760  32.937  36.579   0.377
31004W        W94761  19.701  44.862  10.977
31005W        W94762  31.457  42.373  12.093
31006W        W94763  19.102  32.999   2.851
31007W        W94764   4.207  25.983   0.367
31008W        W94765  20.704  22.595   0.910
31009W        W94766   9.316  29.488  14.985
31010W        W94767   7.258  35.914   2.295
31011W        W94768   8.725  10.367  12.981
31012W        W94769  43.773  31.613   1.248
31013W        W94770  13.189  18.050  11.979
31014W        W94771  17.157  21.686   0.417
31015W        W94772  15.098   1.890  10.959
31016W        W94773   0.494   9.381   4.743
31017W        W94774  24.226  19.745   4.658
31018W        W94775  34.562  10.700  13.417
31019W        W94776  32.930  29.432   4.237
31020W        W94777  20.572  29.018  12.078
31021W        W94778   5.214  34.886  14.289
31022W        W94779   9.650  36.880   4.216
31023W        W94780  41.802   7.901   1.728
31024W        W94781  27.678  37.035   4.816
31025W        W94782  13.605  40.502  13.903
31026W        W94783  22.156   4.869   1.861
31027W        W94784  12.169   3.261  12.006
31028W        W94785  27.174  39.403   4.292
31029W        W94786  34.925   2.357  11.522
31030W        W94787  17.270  21.748   1.375
31031W        W94788  38.968  39.006  12.025
31032W        W94789  42.428  20.108  10.454
31033W        W94790  19.594   1.756   3.773
31034W        W94791  27.606  22.623  10.160
31035W        W94792  40.963  29.654   0.250
31036W        W94793  11.841   3.325   0.342
31037W        W94794  23.529  30.519  10.549
31038W        W94795  34.892  31.482  12.418
31039W        W94796  36.390   5.913   3.670
31040W        W94797   2.253  36.372   2.209
31041W        W94798   8.852  24.148   1.245
31042W        W94799  21.127  25.522  12.406
31043W        W94800  11.289  28.043  11.429
31044W        W94801   4.835  12.815  12.959
31045W        W94802   4.760  43.310   4.737
31046W        W94803  21.193  38.836   3.375
31047W        W94804  25.019  14.216   0.459
31048W        W94805   6.314  25.527   1.850
31049W        W94806   3.914  36.994   3.237
31050W        W94807  44.871  24.505  14.941
31051W        W94808   7.665   9.810  10.448
31052W        W94809   6.904  35.431   3.175
31053W        W94810  25.119  26.071   4.695
31054W        W94811  18.107  20.548  12.421
31055W        W94812  31.096  44.422   3.751
31056W        W94813  25.212   4.387   4.254
31057W        W94814  24.660  26.650  14.422
31058W        W94815   9.158  10.639  12.498
31059W        W94816  41.880  41.537  13.311
31060W        W94817   1.462  23.993   4.261
31061W        W94818  29.635   4.230  13.444
31062W        W94819  29.097  15.139   1.799
31063W        W94820  36.575  37.350  13.326
31064W        W94821  13.798   2.963  10.929
31065W        W94822  34.967   4.744  13.943
31066W        W94823  21.638  24.161   2.692
31067W        W94824  18.173  44.906   4.811
31068W        W94825  15.637  10.697   3.375
31069W        W94826   9.161  37.336  11.025
31070W        W94827  36.957  16.722   0.302
31071W        W94828  35.442  11.312   4.255
31072W        W94829   0.752   4.837   2.664
31073W        W94830  24.228  20.569   2.236
31074W        W94831  23.513  36.429   2.684
31075W        W94832  34.524  32.947   2.864
31076W        W94833  19.727  21.578  14.463
31077W        W94834  36.094   2.757  12.903
31078W        W94835  39.452   6.248  14.507
31079W        W94836  32.999  30.063  10.061
31080W        W94837  28.174  25.673  13.944
31081W        W94838  35.386  44.876  13.792
31082W        W94839   7.356  14.245   4.600
31083W        W94840  40.861   1.339   3.718
31084W        W94841  28.103  11.322   2.858
31085W        W94842  35.096   4.874   5.246
31086W        W94843  28.096  42.407   4.203
31087W        W94844  14.691   8.830  13.984
31088W        W94845   2.768  23.528   2.787
31089W        W94846   4.394  36.948  14.947
31090W        W94847  29.612  24.995   0.284
31091W        W94848  35.854   9.358  10.993
31092W        W94849  12.325  25.076  11.533
31093W        W94850  20.192  21.568   2.412
31094W        W94851  36.564  11.319   3.344
31095W        W94852   1.929  31.058  14.875
31096W        W94853  37.896   1.381   0.742
31097W        W94854  34.454  28.021  11.036
31098W        W94855  42.843  33.997   0.735
31099W        W94856  12.288  15.120   1.770
31100W        W94857  14.304  23.587   4.825
31101W        W94858  17.777  18.730   2.734
31102W        W94859  35.891   3.858  10.998
31103W        W94860  32.130  30.163  12.055
31104W        W94861   3.837  38.538   4.829
31105W        W94862  26.632   7.191  13.409
31106W        W94863  32.533  11.137  15.000
31107W        W94864   6.812  39.388  13.920
31108W        W94865  35.507  42.974   1.289
31109W        W94866   1.796   3.374  14.391
31110W        W94867  39.045  39.910   9.920
31111W        W94868  23.058  31.051  13.500
31112W        W94869  14.223  21.110  10.437
31113W        W94870  14.685  13.210  13.898
31114W        W94871   5.314  28.667   0.334
31115W        W94872  22.016  33.087  11.595
31116W        W94873  16.569   8.343   3.268
31117W        W94874  32.443  28.039  14.804
31118W        W94875   5.842  35.438  11.124
31119W        W94876  18.699  10.634  13.837
31120W        W94877  15.770   7.239  13.939
31121W        W94878  41.016  35.958   0.456
31122W        W94879  14.323   2.818   2.871
31123W        W94880  29.586  18.745  14.422
31124W        W94881  24.696  33.406   1.352
31125W        W94882   9.273  31.952  13.358
31126W        W94883  39.903  26.604   0.770
31127W        W94884  24.129  18.680  12.001
31128W        W94885   0.419  40.901  14.852
31129W        W94886  39.921  21.225  11.033
31130W        W94887  11.150   8.198   1.803
31131W        W94888  35.448  25.713  11.946
31132W        W94889  30.465  17.238   0.417
31133W        W94890  17.154  25.690   0.731
31134W        W94891  13.816  15.212   1.269
31135W        W94892  38.941  15.663   2.662
31136W        W94893  20.734  18.134  12.473
31137W        W94894  10.328  40.492  10.045
31138W        W94895  40.331  27.531   3.640
31139W        W94896  12.185  29.044  11.567
31140W        W94897  27.470  28.539   4.710
31141W        W94898   0.954  35.926  11.909
31142W        W94899  27.663  11.784   0.464
31143W        W94900  36.047   9.764   2.282
31144W        W94901   3.379   3.407  11.865
31145W        W94902  24.586  43.781   0.804
31146W        W94903  42.355  28.582   2.283
31147W        W94904  16.095  28.641   2.319
31148W        W94905  41.438   4.713   4.747
31149W        W94906  36.426   2.870  10.955
31150W        W94907  27.118  29.577  13.930
31151W        W94908  25.677  27.143  14.402
31152W        W94909  42.899  38.451  10.560
31153W        W94910  41.467  29.605  12.517
31154W        W94911  44.283  15.808   3.678
31155W        W94912  33.964  29.027   3.735
31156W        W94913  10.823  12.263   2.840
31157W        W94914  13.765  17.668  11.605
31158W        W94915  29.988  42.781   1.439
31159W        W94916  32.134   6.776   1.772
31160W        W94917  28.574   4.248   0.810
31161W        W94918  39.372   5.264  10.046
31162W        W94919   4.213  43.914  14.433
31163W        W94920  16.197  19.190   1.823
31164W        W94921  39.906  16.165  12.510
31165W        W94922  28.170  24.512   0.394
31166W        W94923   7.389  32.552   0.259
31167W        W94924   6.196  37.067   0.765
31168W        W94925  43.965  19.614   3.732
31169W        W94926   0.465  31.941  12.884
31170W        W94927   6.910   7.665  14.852
31171W        W94928  41.530  39.813   2.305
31172W        W94929   8.260  33.609  12.011
31173W        W94930   3.850  37.405  11.112
31174W        W94931  36.375  32.054   4.271
31175W        W94932  40.435  11.646  14.942
31176W        W94933  21.702   3.406   4.722
31177W        W94934  38.995  36.866   2.725
31178W        W94935   6.347  22.153   3.348
31179W        W94936  30.053   9.694   4.253
31180W        W94937  12.668  13.334   1.767
31181W        W94938   0.481  33.445   1.759
31182W        W94939   2.925  28.562  13.920
31183W        W94940  21.741  30.091   0.416
31184W        W94941  18.632  20.103  13.385
31185W        W94942  13.138  16.111  12.050
31186W        W94943  23.994  33.110  13.452
31187W        W94944  20.550  42.437  12.860
31188W        W94945  38.827  17.617  13.959
31189W        W94946  36.982  16.113   0.775
31190W        W94947  16.195  30.115   0.319
31191W        W94948  35.008  27.003  13.486
31192W        W94949  10.230  14.776   1.406
31193W        W94950  19.543  26.967  13.358
31194W        W94951  16.690   3.916   4.263
31195W        W94952  31.576  16.733   2.228
31196W        W94953  29.591  29.095  14.877
31197W        W94954  26.073   0.329   0.311
31198W        W94955   3.330  31.915  14.000
31199W        W94956  24.608  34.885  11.940
31200W        W94957   8.776  22.220  14.445
31201W        W94958  31.091  38.402   3.147
31202W        W94959   7.287   6.255   4.642
31203W        W94960   5.373   4.379   1.223
31204W        W94961  29.628  17.633  12.385
31205W        W94962  33.904  21.641   1.784
31206W        W94963  35.507  36.443  13.994
31207W        W94964  37.054   9.188  14.817
31208W        W94965  36.072  38.432  11.403
31209W        W94966  29.114  24.038  10.520
31210W        W94967  26.201  23.566  14.957
31211W        W94968  43.490  25.212  13.890
31212W        W94969  30.618  30.058   3.270
31213W        W94970   9.818  28.568   4.246
31214W        W94971  10.727  36.587  11.610
31215W        W94972  13.751  19.067   3.708
31216W        W94973  42.477   3.773  14.411
31217W        W94974  36.004  41.320  14.498
31218W        W94975  26.640  36.972   2.203
31219W        W94976  20.552  36.391   5.624
31220W        W94977  22.580  10.324  12.544
31221W        W94978  31.482  10.284   3.788
31222W        W94979  27.183  43.929   0.409
31223W        W94980  37.853  31.537  11.081
31224W        W94981  25.194  42.323   0.277
31225W        W94982  12.656  12.612   0.759
31226W        W94983   4.228  31.078  11.544
31227W        W94984  15.085   1.758   1.835
31228W        W94985   1.313  29.973   2.773
31229W        W94986  43.305  44.948   0.337
31230W        W94987  21.204   9.735  12.882
31231W        W94988  41.865  29.000  13.458
31232W        W94989   7.376  39.034  10.486
31233W        W94990  36.507  33.098  12.087
31234W        W94991   2.837  23.232  14.797
31235W        W94992   2.356  15.617   3.237
31236W        W94993  41.852  18.625   3.681
31237W        W94994  28.591  41.479  11.861
31238W        W94995  20.600   4.741   1.334
31239W        W94996  28.986  16.781   4.251
31240W        W94997  36.946   4.262   4.774
31241W        W94998   2.448  41.389   1.933
31242W        W94999  21.720  42.322  14.961
31243W        W95000  15.798  13.792  11.884
31244W        W95001   6.908  44.821   0.458
31245W        W95002  37.027  30.159   3.793
31246W        W95003  43.276  35.870  11.959
31247W        W95004  19.090  17.763  11.561
31248W        W95005  37.436  34.092  12.376
31249W        W95006   1.757   0.882   2.211
31250W        W95007  39.905   5.921   1.909
31251W        W95008  30.017   3.369  14.904
31252W        W95009  41.825   3.928  12.437
31253W        W95010  32.943   3.282   3.214
31254W        W95011  29.651  29.573  13.468
31255W        W95012  21.093  27.137   4.615
31256W        W95013   5.291  39.812   2.856
31257W        W95014  32.530  12.201  11.532
31258W        W95015  29.493  39.828  12.461
31259W        W95016  44.765  30.939  10.478
31260W        W95017  14.219   4.887  13.541
31261W        W95018  19.615  15.142   1.236
31262W        W95019  16.669   4.322   4.830
31263W        W95020   1.432  19.731  12.062
31264W        W95021   2.770  11.132  14.816
31265W        W95022  37.951  12.664   1.934
31266W        W95023  13.302   9.752   4.666
31267W        W95024  15.633  25.483  12.899
31268W        W95025  34.874  28.643   2.313
31269W        W95026  15.711  25.962   3.790
31270W        W95027  13.677   0.767   5.085
31271W        W95028  38.901   9.368  11.121
31272W        W95029   9.798  17.161   2.889
31273W        W95030  36.565  29.971  13.002
31274W        W95031  26.688  25.587   2.316
31275W        W95032   2.856  13.627   4.295
31276W        W95033  16.655  23.011  14.001
31277W        W95034  21.659  44.374  11.107
31278W        W95035  29.145  32.453  12.442
31279W        W95036   8.228  34.412  13.925
31280W        W95037  25.054  23.696  13.474
31281W        W95038  11.222   7.779   0.917
31282W        W95039  15.270  21.200  11.440
31283W        W95040   3.248  15.654   0.386
31284W        W95041  31.896  13.146   3.796
31285W        W95042  14.831   8.687   0.481
31286W        W95043  15.731  42.984   0.421
31287W        W95044  22.029   2.412  13.502
31288W        W95045  20.118  29.591  14.759
31289W        W95046  24.592   2.425  13.414
31290W        W95047  29.174  41.304  14.019
31291W        W95048  40.834  36.477  12.881
31292W        W95049   8.704  28.104   2.669
31293W        W95050   2.365  41.368   4.698
31294W        W95051  43.803  26.654   1.238
31295W        W95052  42.790   1.971  11.571
31296W        W95053  38.331   5.277   0.373
31297W        W95054  36.504  13.701  13.946
31298W        W95055  15.244  25.526  10.516
31299W        W95056  39.359  18.196  12.477
31300W        W95057  40.467   2.421   3.290
31301W        W95058  13.677  19.101   0.822
31302W        W95059  11.147   8.712   3.824
31303W        W95060  43.478   1.336   4.614
31304W        W95061  43.816  17.708   3.652
31305W        W95062  41.410  44.857   0.728
31306W        W95063  36.080  32.129  13.050
31307W        W95064  25.099  33.123   1.732
31308W        W95065  18.173  22.697   2.883
31309W        W95066  35.951  30.593   1.925
31310W        W95067  43.829  44.451   0.307
31311W        W95068  40.828  31.003  12.563
31312W        W95069  42.510   2.299   1.697
31313W        W95070  10.645   0.926   2.370
31314W        W95071  11.739  22.586  11.384
31315W        W95072  31.968   7.329   0.285
31316W        W95073  36.004   6.914   1.434
31317W        W95074  18.558  17.617   3.829
31318W        W95075  25.201  17.275   0.473
31319W        W95076  38.067  29.025  10.941
31320W        W95077  31.519  20.034  13.494
31321W        W95078   9.319   0.797  13.045
31322W        W95079  19.204  31.033   0.476
31323W        W95080   0.287  26.483  13.954
31324W        W95081  26.613  14.674   4.351
31325W        W95082  43.997  32.042  14.352
31326W        W95083  33.504   4.338  12.343
31327W        W95084   8.764  11.364   0.855
31328W        W95085   6.840   5.746  14.279
31329W        W95086  12.183  37.415  11.450
31330W        W95087  43.412  20.087  11.038
31331W        W95088   0.881  26.203  10.937
31332W        W95089  13.218   6.827  11.519
31333W        W95090  29.103  22.235   3.223
31334W        W95091  29.553  29.656   1.223
31335W        W95092  19.235  25.479  12.071
31336W        W95093  14.660  34.560  12.916
31337W        W95094   9.326  23.651  14.280
31338W        W95095   1.357   3.747   1.858
31339W        W95096  25.163   6.354   0.425
31340W        W95097  12.320  27.492  12.366
31341W        W95098  14.274  23.070  13.962
31342W        W95099  36.565  11.220   2.737
31343W        W95100  41.381  44.882  14.511
31344W        W95101  35.498  19.142   2.876
31345W        W95102  34.117   6.369   4.273
31346W        W95103  42.889  22.675  13.404
31347W        W95104  18.672   3.947   4.691
31348W        W95105  40.977  43.431   1.211
31349W        W95106  22.600  43.777   2.719
31350W        W95107  17.296  42.830   0.847
31351W        W95108  17.753   6.195  14.907
31352W        W95109  38.986  14.663   1.240
31353W        W95110   0.380  21.062  10.983
31354W        W95111  22.026  17.171   1.344
31355W        W95112   4.392  30.926   4.180
31356W        W95113  12.640   7.695  14.358
31357W        W95114  18.099  33.044  14.814
31358W        W95115  43.460  12.277   2.320
31359W        W95116  12.245   5.268   0.839
31360W        W95117  14.821  25.530  11.445
31361W        W95118   3.897  41.533   9.926
31362W        W95119  20.179   4.740  10.455
31363W        W95120  39.018  35.477  11.092
31364W        W95121  30.042  28.479   1.879
31365W        W95122  11.720  28.571  10.031
31366W        W95123  41.813  31.950  11.867
31367W        W95124  16.811  22.553   2.894
31368W        W95125   3.366  43.950  13.968
31369W        W95126  10.831  38.326   4.769
31370W        W95127  34.368  20.203   1.716
31371W        W95128  24.178  26.525  12.000
31372W        W95129  12.725  41.025  14.984
31373W        W95130   2.256  17.065  11.391
31374W        W95131  33.547   9.225   1.929
31375W        W95132  37.976  15.297  10.486
31376W        W95133  39.017  28.118  10.547
31377W        W95134  13.813  33.614   3.183
31378W        W95135  15.591  13.323  11.517
31379W        W95136  25.984  16.078  11.077
31380W        W95137  16.603   5.232  12.388
31381W        W95138  37.364  17.084  10.516
31382W        W95139  10.324  22.188   0.775
31383W        W95140  33.479  13.220  14.767
31384W        W95141  10.728  23.178  11.962
31385W        W95142   5.281   7.771  10.596
31386W        W95143  17.273  12.200  11.025
31387W        W95144  42.986  24.527   2.282
31388W        W95145  43.869  18.147  11.956
31389W        W95146  33.601  34.009  12.374
31390W        W95147  15.585   8.674  12.982
31391W        W95148  41.838  38.820  11.406
31392W        W95149  28.101  17.712   3.832
31393W        W95150  41.022  22.574   3.805
31394W        W95151  32.004  38.887   3.236
31395W        W95152   4.281   2.322  14.949
31396W        W95153  39.374  36.545  13.936
31397W        W95154  20.241  36.385   0.836
31398W        W95155  13.204  12.154  13.366
31399W        W95156  42.284  17.693  11.556
31400W        W95157  44.927  32.509   0.925
31401W        W95158  31.081  14.814   2.752
31402W        W95159   4.908   0.903  12.491
31403W        W95160  37.529  15.675   4.675
31404W        W95161   7.717   8.692  10.525
31405W        W95162   3.792  11.790  12.442
31406W        W95163  14.674  34.381  13.315
31407W        W95164   6.874  40.525  12.546
31408W        W95165  31.937   5.196   2.894
31409W        W95166  31.622  24.034  11.934
31410W        W95167  13.236  22.166  11.549
31411W        W95168  34.511  30.425  13.395
31412W        W95169  18.170  36.872  10.434
31413W        W95170  17.302   3.339  12.494
31414W        W95171  33.972  19.273   0.394
31415W        W95172  30.640  18.759  12.879
31416W        W95173  39.881  17.795   4.263
31417W        W95174   0.878  38.465  11.494
31418W        W95175  43.505  16.572  11.563
31419W        W95176  13.150   2.233  12.445
31420W        W95177  39.018  17.210   2.378
31421W        W95178  37.863  12.780   3.746
31422W        W95179  37.858   8.223   1.328
31423W        W95180   1.953  17.725   4.163
31424W        W95181  34.539  24.719   0.773
31425W        W95182   9.225   0.954  10.432
31426W        W95183  34.577   2.801  13.540
31427W        W95184  41.920  22.650  12.958
31428W        W95185  44.927  22.689  13.906
31429W        W95186  23.709   0.878   3.813
31430W        W95187   9.792  16.761   1.304
31431W        W95188  16.289  42.508  12.869
31432W        W95189  13.288  42.825   3.369
31433W        W95190   0.793  10.224  12.933
31434W        W95191  10.779  35.869   4.348
31435W        W95192  43.932  28.460   1.718
31436W        W95193  10.361  20.576   4.134
31437W        W95194  35.975  41.960  14.794
31438W        W95195  25.670   2.939  12.898
31439W        W95196  12.288  38.979  12.486
31440W        W95197  13.243  37.932  14.296
31441W        W95198  30.437  12.727  12.974
31442W        W95199  35.871  33.974  14.852
31443W        W95200  27.116  23.109  12.363
31444W        W95201  40.908  15.706   4.694
31445W        W95202  32.418  39.846  14.014
31446W        W95203  22.025  44.364   1.313
31447W        W95204   6.348  17.278   3.227
31448W        W95205  21.654  42.419   3.382
31449W        W95206  22.566  22.156   3.756
31450W        W95207  28.946   6.822   2.192
31451W        W95208  22.616   7.827   2.414
31452W        W95209   1.946   6.418  13.940
31453W        W95210  40.007  40.863  10.423
31454W        W95211  44.472  23.102  12.903
31455W        W95212  27.107  14.737  14.464
31456W        W95213  31.505  43.953  12.979
31457W        W95214   3.875   1.363   4.635
31458W        W95215  22.997  18.754   2.268
31459W        W95216   3.439  26.601  14.399
31460W        W95217   8.187  11.689   0.419
31461W        W95218  36.383   0.265  10.548
31462W        W95219  14.784  24.672  13.387
31463W        W95220  41.828  38.860   1.834
31464W        W95221   8.346   3.724  14.917
31465W        W95222  31.027  43.911  13.509
31466W        W95223  42.892  24.200   0.915
31467W        W95224   6.407  27.019   4.759
31468W        W95225  37.034  17.785   1.216
31469W        W95226  33.913   6.814  14.303
31470W        W95227  33.030  34.469   4.201
31471W        W95228  14.614  36.443   1.837
31472W        W95229  31.513  39.350  15.000
31473W        W95230  15.713  33.534  11.376
31474W        W95231  19.042  11.162   1.325
31475W        W95232   8.685  24.081   5.114
31476W        W95233  24.610  40.050  12.949
31477W        W95234  37.396   4.755  10.490
31478W        W95235  12.685  16.687   0.393
31479W        W95236  41.491  14.663  14.849
31480W        W95237   4.266  26.637  13.913
31481W        W95238   7.870   8.241  14.908
31482W        W95239  29.058  22.103   4.625
31483W        W95240  30.429  26.162  12.035
31484W        W95241  36.900  27.676  12.993
31485W        W95242  32.134  37.065   4.606
31486W        W95243  36.539   3.826  13.930
31487W        W95244  35.049  11.717   2.294
31488W        W95245  30.012  43.852   1.877
31489W        W95246  32.969  34.526  11.428
31490W        W95247  11.807   9.809  12.545
31491W        W95248  26.102  38.486  13.060
31492W        W95249   9.767  43.343  14.483
31493W        W95250  25.690  24.560  14.881
31494W        W95251   0.843  11.350  12.909
31495W        W95252  26.570   5.804  10.120
31496W        W95253  27.616   3.321   3.257
31497W        W95254  15.790  41.405  11.913
31498W        W95255   5.911  24.665   2.365
31499W        W95256  22.519  39.351  13.360
31500W        W95257  20.051  33.068  14.434
31501W        W95258  13.129  12.257  12.002
31502W        W95259  29.604  23.566   1.420
31503W        W95260  27.589   4.934  13.024
31504W        W95261  22.086  10.830   2.741
31505W        W95262  33.590  28.653   1.913
31506W        W95263  20.563  37.977   2.822
31507W        W95264  16.689  40.932   2.759
31508W        W95265   2.424   4.440   0.332
31509W        W95266  31.040  28.139  12.022
31510W        W95267  37.057   5.932   3.335
31511W        W95268  14.135  37.925   4.744
31512W        W95269   2.254   7.771  12.885
31513W        W95270  10.231   5.433  13.955
31514W        W95271  40.452   4.439  13.922
31515W        W95272  32.605  22.094  12.565
31516W        W95273  30.981  37.838  10.935
31517W        W95274  13.221  15.746  13.533
31518W        W95275  11.305  34.389   2.901
31519W        W95276  21.563  34.095   3.292
31520W        W95277   4.934  32.903  14.515
31521W        W95278  32.994  13.227  14.773
31522W        W95279   0.269  24.136  14.871
31523W        W95280   9.659  16.281   5.749
31524W        W95281  11.256  11.138  10.626
31525W        W95282  20.704  20.613   0.917
31526W        W95283  30.610  14.607   2.703
31527W        W95284  26.081   1.746   2.255
31528W        W95285  22.026   3.363   2.365
31529W        W95286   6.723  38.537   2.711
31530W        W95287  43.809  17.268  14.329
31531W        W95288  23.220  25.139   1.897
31532W        W95289  20.739  29.466  13.923
31533W        W95290  16.802  19.631   2.343
31534W        W95291  31.028  16.788   2.791
31535W        W95292  36.570   5.910   1.772
31536W        W95293   7.396  21.055  11.013
31537W        W95294   5.815  16.183  10.128
31538W        W95295  30.034  33.537   4.300
31539W        W95296  14.252  21.091  12.941
31540W        W95297  17.655  11.254   2.860
31541W        W95298  16.255  23.162  14.961
31542W        W95299   3.807  44.485  10.007
31543W        W95300  28.548  29.156  12.508
31544W        W95301  25.513  42.292   3.269
31545W        W95302  32.093   4.738  12.468
31546W        W95303  44.395   0.342  10.122
31547W        W95304  25.069  10.769   4.628
31548W        W95305   5.705  15.637  12.076
31549W        W95306  15.604  30.045   2.765
31550W        W95307  38.895  43.419  13.969
31551W        W95308  15.692   7.201   0.325
31552W        W95309  27.062   7.186   3.783
31553W        W95310   7.173  25.598   4.142
31554W        W95311  32.065  21.206  13.915
31555W        W95312  32.976  22.512  12.860
31556W        W95313  19.578  26.505  12.073
31557W        W95314   5.750  22.638  13.004
31558W        W95315   3.729  28.040  10.116
31559W        W95316  27.540  10.227   3.383
31560W        W95317  38.438  14.750  14.489
31561W        W95318  31.462  14.662  14.957
31562W        W95319  39.413  23.221  10.961
31563W        W95320  25.561  39.427   2.875
31564W        W95321  12.735   7.698  10.519
31565W        W95322  21.069  34.883  14.817
31566W        W95323  16.238  33.928   3.184
31567W        W95324  28.107   3.458  11.542
31568W        W95325  34.451  40.329  13.024
31569W        W95326  43.932  33.087  11.392
31570W        W95327  19.238   1.309   4.119
31571W        W95328  44.754  37.075  13.006
31572W        W95329   0.284  19.210   2.327
31573W        W95330   0.436   8.297   0.828
31574W        W95331  14.152  17.708  13.873
31575W        W95332  24.621   8.325   1.713
31576W        W95333  17.690  36.948   0.265
31577W        W95334   9.240  36.451   3.867
31578W        W95335  36.451   3.794  13.461
31579W        W95336  25.972  43.388  13.342
31580W        W95337  19.632  32.494  12.902
31581W        W95338   7.744  30.636   3.776
31582W        W95339  33.003   2.846   2.874
31583W        W95340  21.234  43.396   1.895
31584W        W95341  12.360  28.100   0.752
31585W        W95342   7.193  40.821  12.006
31586W        W95343  28.553   5.239  12.019
31587W        W95344  25.669  30.510  14.478
31588W        W95345   1.430  11.726  11.085
31589W        W95346   1.324  11.643   4.739
31590W        W95347  13.673  44.835   3.870
31591W        W95348  15.316  41.359   1.891
31592W        W95349  44.386  34.102  13.033
31593W        W95350  41.469   2.907   1.302
31594W        W95351  35.089  36.885   2.304
31595W        W95352  12.219   0.474   1.400
31596W        W95353  36.473  39.364  10.938
31597W        W95354   8.236  33.904  14.023
31598W        W95355  15.217  17.685  10.418
31599W        W95356  19.088  21.563  13.036
31600W        W95357  25.630  18.051  12.900
31601W        W95358  17.712  16.593  12.993
31602W        W95359  31.601  30.574   0.314
31603W        W95360  11.702  29.173  13.345
31604W        W95361  37.087   4.869  13.848
31605W        W95362  29.159   9.707  14.461
31606W        W95363  19.046   7.808  11.904
31607W        W95364  18.681   2.799  12.571
31608W        W95365  11.330  29.020  10.957
31609W        W95366  39.383   8.818  12.507
31610W        W95367   6.860  37.085   3.726
31611W        W95368   2.755  15.743  11.943
31612W        W95369  38.930   0.832  10.115
31613W        W95370   8.824  16.619  13.403
31614W        W95371  44.420   6.347  11.951
31615W        W95372  39.400   4.744  13.979
31616W        W95373  39.379  27.685   1.703
31617W        W95374  27.641  21.628   2.282
31618W        W95375  32.556  15.133  13.041
31619W        W95376   4.785  16.307  14.844
31620W        W95377  34.075  16.810   3.637
31621W        W95378  33.422  35.393  13.415
31622W        W95379  38.900  35.084   1.897
31623W        W95380  30.972   3.802   2.749
31624W        W95381  15.610  13.688  13.486
31625W        W95382  24.645  35.095   1.351
31626W        W95383   1.375   3.856  10.902
31627W        W95384  13.131  43.288   0.901
31628W        W95385  18.586  44.988  11.441
31629W        W95386  17.761  34.429   4.786
31630W        W95387   9.683   6.821  12.529
31631W        W95388  20.735  29.666  12.969
31632W        W95389  22.655  26.572   4.813
31633W        W95390  29.951  30.143  14.374
31634W        W95391  35.106  42.027  12.359
31635W        W95392  22.181  33.447   1.721
31636W        W95393  40.846   4.721   3.663
31637W        W95394  28.483  15.260   0.906
31638W        W95395  18.280   9.756  14.443
31639W        W95396  23.071  44.863  14.275
31640W        W95397  13.703   4.256  12.833
31641W        W95398  26.544  15.671   2.325
31642W        W95399  11.357  35.365   0.828
31643W        W95400   5.243   0.940  12.368
31644W        W95401  29.499   7.342  14.936
31645W        W95402   2.791  13.184  14.451
31646W        W95403  24.107   6.873   4.184
31647W        W95404  44.389   9.156   1.886
31648W        W95405   2.881  34.037   3.681
31649W        W95406  31.986  36.081   3.160
31650W        W95407  11.171   0.491   0.812
31651W        W95408   7.861  23.651   9.980
31652W        W95409  39.004  21.750  14.959
31653W        W95410  19.137  14.831  10.108
31654W        W95411  32.943  29.990   0.326
31655W        W95412  28.539  38.045   2.367
31656W        W95413   7.894   6.363   9.961
31657W        W95414   8.801  29.436   1.755
31658W        W95415  18.071   4.240   0.788
31659W        W95416  32.391   8.869   5.188
31660W        W95417   4.253  12.298   2.719
31661W        W95418   8.238   7.367  10.945
31662W        W95419  35.443  25.138   1.380
31663W        W95420  43.803  16.691  14.482
31664W        W95421  39.476  29.072   4.245
31665W        W95422   3.728  15.290  10.613
31666W        W95423  20.573   1.769   0.787
31667W        W95424  10.321  28.580   2.178
31668W        W95425  38.871  20.261   0.327
31669W        W95426   3.403  24.609  12.851
31670W        W95427  22.644  13.647   2.777
31671W        W95428  44.472  14.253   5.267
31672W        W95429  22.632   8.263   2.862
31673W        W95430  33.400  40.323  14.874
31674W        W95431  35.856  38.524   3.775
31675W        W95432  11.149  44.844  12.894
31676W        W95433  19.122  41.526  14.287
31677W        W95434  13.694   9.743  10.997
31678W        W95435   8.762  41.834   1.267
31679W        W95436   3.839  41.891   0.854
31680W        W95437  21.152  35.413  10.464
31681W        W95438   7.240  32.029  14.780
31682W        W95439  23.065  31.962   2.218
31683W        W95440  18.572   8.297  10.459
31684W        W95441  11.232  24.030  13.013
31685W        W95442   5.812  34.033  12.863
31686W        W95443  39.997  39.467  11.903
31687W        W95444   7.816  12.230  11.079
31688W        W95445  37.935   6.848   4.724
31689W        W95446  12.711  19.089   2.805
31690W        W95447   6.191  25.020  12.835
31691W        W95448  37.999   9.188   4.717
31692W        W95449  14.283   2.811   1.901
31693W        W95450   2.396  30.058  13.386
31694W        W95451  34.451  13.320  12.930
31695W        W95452  23.168   9.390  14.443
31696W        W95453  10.833  29.964  12.996
31697W        W95454  13.640  10.677   1.739
31698W        W95455   3.943  31.907   4.185
31699W        W95456  22.644   0.800  12.451
31700W        W95457  19.070  16.198  11.586
31701W        W95458   5.343  37.336   3.328
31702W        W95459  17.567  30.984  10.625
31703W        W95460  12.358  10.641  12.824
31704W        W95461  36.578  37.882  12.470
31705W        W95462  28.993  43.844   2.377
31706W        W95463  42.816  26.983  11.086
31707W        W95464  33.947   3.855   2.238
31708W        W95465  31.093  30.061   9.439
31709W        W95466  43.503  41.523  11.518
31710W        W95467  24.572  43.353  14.458
31711W        W95468  24.605  22.058   2.891
31712W        W95469  22.585  34.541   3.296
31713W        W95470  31.524   6.372   3.275
31714W        W95471  20.715  23.589   0.281
31715W        W95472  42.910  28.024   2.284
31716W        W95473  37.037  10.213   1.918
31717W        W95474  40.043  23.133  14.464
31718W        W95475   4.752  34.409  10.608
31719W        W95476   6.256  21.118  12.342
31720W        W95477   8.679  19.715  12.534
31721W        W95478  18.710  42.898  11.533
31722W        W95479  30.492  25.525   1.778
31723W        W95480  32.987  37.456   2.359
31724W        W95481   6.794   7.341   3.304
31725W        W95482  18.129  10.363   4.195
31726W        W95483  22.021  27.990  11.611
31727W        W95484  35.918  37.536   1.425
31728W        W95485  29.071   9.249   2.366
31729W        W95486   3.951  39.904  14.319
31730W        W95487  11.752   2.749   2.818
31731W        W95488  39.899  13.184   2.886
31732W        W95489  15.766  41.295   4.687
31733W        W95490  10.148  32.597   3.167
31734W        W95491  41.876  32.593   2.410
31735W        W95492  14.307   0.760   3.229
31736W        W95493  32.418  36.939  14.382
31737W        W95494  28.163  42.500  10.997
31738W        W95495  12.619  17.774  14.926
31739W        W95496   2.360   3.820  11.971
31740W        W95497  17.750  43.273  12.959
31741W        W95498  28.135  21.681   1.226
31742W        W95499   2.814  44.415   4.221
31743W        W95500  42.919  36.945  11.433
31744W        W95501  19.632  42.798  10.966
31745W        W95502  19.242  18.714  13.511
31746W        W95503   2.439  24.060   0.442
31747W        W95504  30.548  12.147   4.674
31748W        W95505   2.926  10.234  13.877
31749W        W95506   1.414  44.265   0.336
31750W        W95507  12.148  34.500   4.620
31751W        W95508  27.020  34.907  11.035
31752W        W95509  22.501  42.391  13.372
31753W        W95510  24.610   7.394   0.462
31754W        W95511   2.927  15.639   4.300
31755W        W95512  12.742  18.589   4.801
31756W        W95513  34.963   2.865  12.970
31757W        W95514  25.519   5.212   3.359
31758W        W95515  23.074  38.873   4.126
31759W        W95516  30.003   4.910   2.733
31760W        W95517  33.911  31.563  14.970
31761W        W95518   4.427  35.481  14.967
31762W        W95519  18.276  19.079   3.181
31763W        W95520  28.627  41.506  10.504
31764W        W95521   6.196  16.232   0.367
31765W        W95522  40.381   8.222   1.779
31766W        W95523   0.927  14.708   4.701
31767W        W95524  24.002   0.379  12.515
31768W        W95525  30.051  24.624   2.667
31769W        W95526  22.735  13.703  14.475
31770W        W95527  43.927  15.297   1.744
31771W        W95528  11.327  41.533   3.363
31772W        W95529   6.786  26.056   2.338
31773W        W95530  20.661   6.799   3.796
31774W        W95531  43.341   0.802  14.378
31775W        W95532  18.234   0.933  12.424
31776W        W95533  41.483  13.204   5.232
31777W        W95534  35.555  15.706   4.703
31778W        W95535  41.961  13.144  13.994
31779W        W95536   7.415  15.311   1.399
31780W        W95537  30.039  35.433   3.381
31781W        W95538  38.853  42.357  14.944
31782W        W95539  34.524  23.529   4.725
31783W        W95540  39.366  23.578  13.342
31784W        W95541  15.200  15.189   0.376
31785W        W95542  33.547  27.642  12.848
31786W        W95543  15.131  26.496  12.929
31787W        W95544  41.932  31.947   0.787
31788W        W95545   9.392  17.234  10.586
31789W        W95546  20.168   5.723   2.672
31790W        W95547   8.684  43.825   1.853
31791W        W95548  21.699  29.621   2.198
31792W        W95549  33.394  44.782  10.408
31793W        W95550  38.447  25.554  14.395
31794W        W95551  44.313  14.754   0.302
31795W        W95552  12.638   3.311   1.328
31796W        W95553  21.600  22.505   1.421
31797W        W95554   2.375  31.633   0.481
31798W        W95555  34.512  14.642   0.806
31799W        W95556  39.063  34.918  10.409
31800W        W95557  38.044   2.454   4.117
31801W        W95558  41.834  21.031   1.921
31802W        W95559   2.762  40.838   3.754
31803W        W95560  35.978  11.134  14.913
31804W        W95561  42.777  44.267  10.938
31805W        W95562  29.975  24.505   1.212
31806W        W95563  17.754  18.582   4.730
31807W        W95564  22.034  42.997   0.885
31808W        W95565  43.935  11.297   3.688
31809W        W95566  20.200   5.931   1.703
31810W        W95567  12.716  12.270   1.414
31811W        W95568  32.522  36.981   1.893
31812W        W95569  30.639   5.826   3.177
31813W        W95570  24.981  15.713   3.721
31814W        W95571  19.682  14.825   5.217
31815W        W95572  16.208  38.888   2.311
31816W        W95573  44.889  32.507  12.404
31817W        W95574  17.183  38.071   0.395
31818W        W95575  34.571  28.993  14.320
31819W        W95576  13.712  16.083  10.458
31820W        W95577  34.020  32.436   0.755
31821W        W95578   3.257  38.900  10.430
31822W        W95579   2.941  14.251   2.664
31823W        W95580   4.925  21.221  14.407
31824W        W95581   0.455  28.621  10.956
31825W        W95582  37.429   0.901   0.465
31826W        W95583  33.936  27.481   0.869
31827W        W95584  10.380   1.971  13.968
31828W        W95585  37.914  19.660   1.810
31829W        W95586  11.735  18.625  12.053
31830W        W95587   9.208  11.275   1.908
31831W        W95588  31.017   6.187   4.172
31832W        W95589   5.907   4.348  11.129
31833W        W95590   7.202  38.995   4.662
31834W        W95591  26.565  31.483  10.950
31835W        W95592  42.014  42.299   1.340
31836W        W95593  21.688   5.720  11.045
31837W        W95594  28.146  26.120  11.559
31838W        W95595  27.116  10.191  10.157
31839W        W95596  29.626  40.906   4.667
31840W        W95597  31.536  10.645  14.436
31841W        W95598  28.558  33.560   1.358
31842W        W95599  43.897   3.430   0.876
31843W        W95600   0.427   5.255   2.383
31844W        W95601  36.430  31.426   3.147
31845W        W95602  39.982  16.278  13.440
31846W        W95603  31.119  13.160  14.946
31847W        W95604  23.184  24.576  12.020
31848W        W95605  31.076   1.345  11.521
31849W        W95606  37.535  20.177   2.823
31850W        W95607  14.263  34.955  14.491
31851W        W95608  21.139  44.463   5.169
31852W        W95609  16.575  24.661   2.196
31853W        W95610   4.784  14.286  10.474
31854W        W95611   2.229  33.450   4.603
31855W        W95612  14.116  17.645   0.783
31856W        W95613  14.784  15.715   1.439
31857W        W95614  33.514   7.857   0.756
31858W        W95615  33.079  10.775  13.885
31859W        W95616  15.751  12.687  13.870
31860W        W95617   1.415  24.588  12.081
31861W        W95618  29.460  43.381  13.345
31862W        W95619  31.477   2.863   3.192
31863W        W95620  41.345  23.646   3.341
31864W        W95621  27.517  41.973  10.626
31865W        W95622  16.176  40.817   0.314
31866W        W95623  12.794  26.592  10.637
31867W        W95624  23.618  37.945   4.130
31868W        W95625  18.135  33.936   5.200
31869W        W95626  17.579  16.769  10.433
31870W        W95627  12.207  11.654  10.070
31871W        W95628  35.898   0.881   4.226
31872W        W95629   9.356  14.214   3.375
31873W        W95630  44.400   4.277   3.310
31874W        W95631  18.707   2.345   3.704
31875W        W95632  40.376  37.039  13.337
31876W        W95633  12.814   9.161  11.855
31877W        W95634  16.750  25.126   1.317
31878W        W95635   1.316  37.939  13.313
31879W        W95636  14.731  34.402  14.497
31880W        W95637  16.306  23.003   3.337
31881W        W95638   4.748  41.458   0.958
31882W        W95639   1.936  30.501  10.924
31883W        W95640  27.643  16.232   0.818
31884W        W95641  13.350  25.141   0.818
31885W        W95642  28.994   9.389  13.380
31886W        W95643  39.939  29.150  13.833
31887W        W95644  28.995  32.957  11.888
31888W        W95645  23.634  35.586   9.454
31889W        W95646  36.891  14.339   4.820
31890W        W95647  12.711  41.436  11.869
31891W        W95648  25.605  26.611   4.686
31892W        W95649  41.859  20.640  11.867
31893W        W95650  37.935   7.845   4.790
31894W        W95651  42.398  27.129  12.074
31895W        W95652   4.876  24.988   4.608
31896W        W95653  11.794  18.120   4.752
31897W        W95654  30.537  18.133   3.268
31898W        W95655   8.726  22.676   0.268
31899W        W95656  29.118   9.168  13.857
31900W        W95657  15.675  13.227   4.269
31901W        W95658  12.258  25.132  14.014
31902W        W95659   5.231  21.045   4.677
31903W        W95660  41.426   6.899  12.352
31904W        W95661  25.117  26.466  11.482
31905W        W95662  13.277  29.651  11.866
31906W        W95663  33.012  12.811   1.765
31907W        W95664  15.094  22.140  11.951
31908W        W95665   8.391  38.891   4.654
31909W        W95666  40.908  13.705   4.193
31910W        W95667   2.831  25.506  13.458
31911W        W95668  37.526   9.776   2.735
31912W        W95669  17.706  44.848  10.979
31913W        W95670  32.977  15.097   4.224
31914W        W95671  35.446  15.242   4.731
31915W        W95672  14.276  14.633  13.026
31916W        W95673  39.058  40.912  10.590
31917W        W95674  32.589  22.705   4.778
31918W        W95675  37.405   6.355   1.841
31919W        W95676   1.759  22.109   4.733
31920W        W95677   7.177   3.832   3.781
31921W        W95678  25.029  19.586  14.277
31922W        W95679   0.754  17.272  11.426
31923W        W95680  35.509  41.326   0.860
31924W        W95681  39.552  19.117   1.259
31925W        W95682   9.813  35.887   0.480
31926W        W95683   1.927  12.749  13.980
31927W        W95684   6.254  26.054   3.781
31928W        W95685  12.656   0.316   1.348
31929W        W95686   8.196  12.669  12.899
31930W        W95687  41.410  23.702   0.762
31931W        W95688   0.755  29.438   3.229
31932W        W95689  20.273  42.869   2.224
31933W        W95690   0.965  42.861  13.308
31934W        W95691  16.611   0.443  12.400
31935W        W95692  42.382  10.872   2.182
31936W        W95693  35.056   4.425   2.798
31937W        W95694   7.803   4.222  14.330
31938W        W95695  34.948  28.942  11.448
31939W        W95696   5.321   4.299   4.250
31940W        W95697  42.867   5.236  14.813
31941W        W95698  27.513  36.992  11.511
31942W        W95699  19.700  32.416   1.787
31943W        W95700  22.551  41.490  11.607
31944W        W95701  16.097  43.019  13.022
31945W        W95702  23.196  41.297   2.280
31946W        W95703  28.945  38.923   0.895
31947W        W95704   3.437  21.562  14.933
31948W        W95705  17.270   1.912   3.147
31949W        W95706  37.017  44.391  13.948
31950W        W95707  42.484   5.934  13.024
31951W        W95708  30.997  16.122   0.323
31952W        W95709   7.284   5.380   1.299
31953W        W95710  38.433   7.862   3.323
31954W        W95711   2.783  13.763   1.919
31955W        W95712   8.887  37.547   0.359
31956W        W95713  11.286  18.725   0.947
31957W        W95714   2.760  18.088  14.815
31958W        W95715   3.941  11.299  12.862
31959W        W95716   9.726  16.598   4.286
31960W        W95717   9.816   6.209  10.587
31961W        W95718  37.394   0.795  13.547
31962W        W95719  41.391  29.599   0.743
31963W        W95720  22.248  32.557   2.860
31964W        W95721  21.675  42.473  10.928
31965W        W95722  24.537   7.371   4.807
31966W        W95723   5.890  30.082  10.523
31967W        W95724  28.041  12.816  12.463
31968W        W95725  36.090   3.776  14.378
31969W        W95726  42.284   1.382  10.409
31970W        W95727  20.683   6.679  13.356
31971W        W95728  14.305   6.299  14.875
31972W        W95729  40.806  15.780  11.017
31973W        W95730   4.275  24.159  13.533
31974W        W95731  24.526   2.414   0.795
31975W        W95732  12.727  42.372  11.923
31976W        W95733   8.272   8.183  11.413
31977W        W95734   3.836  25.062   2.679
31978W        W95735  22.679  12.345   4.137
31979W        W95736  35.480  12.712  11.582
31980W        W95737  30.618  15.630   2.410
31981W        W95738   9.285   2.851   1.889
31982W        W95739  30.957  42.949   0.930
31983W        W95740  17.246  23.717   3.768
31984W        W95741  39.327  16.647   4.156
31985W        W95742  29.061  31.576   0.284
31986W        W95743  26.534   9.807  12.365
31987W        W95744  44.973  34.094   4.171
31988W        W95745  25.976  32.112   3.304
31989W        W95746  12.829  25.144   3.751
31990W        W95747  28.079  31.923   0.260
31991W        W95748  37.444  36.511  14.988
31992W        W95749  35.547  41.389  11.434
31993W        W95750  20.150  11.262  12.379
31994W        W95751  42.361  21.129   4.271
31995W        W95752  18.055  11.180   1.754
31996W        W95753  20.041   7.242  12.950
31997W        W95754  40.865  38.979   0.964
31998W        W95755  35.870   3.351  14.856
31999W        W95756   8.745  13.337   2.762
32000W        W95757  30.990   1.470  11.990
32001W        W95758  32.532  18.607  14.380
32002W        W95759  27.165  34.466   4.669
32003W        W95760   2.921  41.968   1.325
32004W        W95761  24.621  43.386   3.799
32005W        W95762  35.017  22.175  14.391
32006W        W95763   5.688  44.438   9.955
32007W        W95764  14.638  21.151   4.158
32008W        W95765   4.409  34.094  12.910
32009W        W95766  21.058  29.956  11.575
32010W        W95767  27.981  34.374  10.074
32011W        W95768   7.702  30.566   0.307
32012W        W95769  30.072  23.596   3.155
32013W        W95770   1.958  11.337  13.047
32014W        W95771  27.690  37.338   3.829
32015W        W95772   2.247  29.534  10.532
32016W        W95773   2.776  21.517  14.495
32017W        W95774   5.878  43.839  12.491
32018W        W95775  21.604  31.960  11.417
32019W        W95776  23.728  19.044  10.591
32020W        W95777  12.361  26.965  14.938
32021W        W95778   3.736  27.020  14.474
32022W        W95779  21.031  12.299   3.650
32023W        W95780  43.905  31.488   4.759
32024W        W95781   0.335  42.987   0.876
32025W        W95782  15.235  25.140  10.603
32026W        W95783  29.176  41.314  10.587
32027W        W95784  40.331  38.389  13.813
32028W        W95785  11.251  16.176   2.852
32029W        W95786  35.059  36.503   3.190
32030W        W95787  43.282  29.106  11.954
32031W        W95788   2.788  31.048  12.050
32032W        W95789  17.633   8.864   1.821
32033W        W95790   9.783  23.508   0.891
32034W        W95791  27.092  10.832   1.407
32035W        W95792  28.459  38.381  14.411
32036W        W95793  22.122  29.000  12.074
32037W        W95794  25.677  10.740  13.459
32038W        W95795  25.602   0.306   1.913
32039W        W95796   7.238  12.716  10.588
32040W        W95797  31.426   8.890  11.917
32041W        W95798  10.270   7.881   2.327
32042W        W95799   3.238  29.123  11.476
32043W        W95800  13.190  25.582  10.645
32044W        W95801  11.719   7.695   4.804
32045W        W95802  11.814  42.861  14.330
32046W        W95803  19.039  29.069   2.682
32047W        W95804  31.641  24.518  13.926
32048W        W95805  44.897  21.692   0.951
32049W        W95806  43.411   6.383  10.545
32050W        W95807   4.341  28.662   0.893
32051W        W95808   7.902   6.855   4.838
32052W        W95809  20.648  42.322  11.020
32053W        W95810  15.121   0.912   1.438
32054W        W95811  19.241  33.524   0.307
32055W        W95812  28.451  19.043  12.464
32056W        W95813   4.824  36.356   2.199
32057W        W95814  28.047  36.372  13.828
32058W        W95815  29.425  32.961  10.447
32059W        W95816  40.306  18.216  10.507
32060W        W95817  10.356  15.770   0.886
32061W        W95818  21.213  20.154   3.272
32062W        W95819  20.527  37.070   2.182
32063W        W95820  12.618  36.084  10.596
32064W        W95821   3.786  29.576   0.454
32065W        W95822  24.686  19.584  14.312
32066W        W95823   7.712  40.542   1.349
32067W        W95824  24.072  27.049   3.275
32068W        W95825  29.655   8.399  11.597
32069W        W95826  12.246  38.545  14.342
32070W        W95827  25.145  35.879   3.312
32071W        W95828  36.461   2.360  14.805
32072W        W95829   6.348  19.582  14.390
32073W        W95830   8.893   0.473  14.429
32074W        W95831   9.286  36.085  12.825
32075W        W95832  37.936   6.833   0.378
32076W        W95833  17.635  21.024   4.209
32077W        W95834  42.873  32.971  12.873
32078W        W95835  23.152   5.243  10.583
32079W        W95836  41.819   4.226  14.925
32080W        W95837  42.480  26.117   1.283
32081W        W95838  23.165  19.151   0.874
32082W        W95839  33.404  23.572  11.999
32083W        W95840  22.555  25.661  14.007
32084W        W95841  43.406  30.920  11.465
32085W        W95842   6.407   6.686   2.784
32086W        W95843  23.495  12.361  11.393
32087W        W95844  25.488  16.769  11.038
32088W        W95845  19.146  42.917   2.774
32089W        W95846  28.991   3.443  14.014
32090W        W95847   3.234   8.798  12.036
32091W        W95848  20.068  35.538   5.241
32092W        W95849  11.726  43.450   0.898
32093W        W95850  21.084  17.670  12.900
32094W        W95851  31.577  19.191   1.382
32095W        W95852   8.189  25.545  11.865
32096W        W95853  25.546  17.286  12.948
32097W        W95854  22.550  13.238  14.986
32098W        W95855  44.847   5.290  13.367
32099W        W95856   5.341  16.596  12.022
32100W        W95857  19.706  17.634  12.921
32101W        W95858   0.452  26.593   5.173
32102W        W95859  35.958  18.677  11.445
32103W        W95860  13.262  44.322   0.835
32104W        W95861  26.555  22.067  11.603
32105W        W95862  43.796  24.135  12.994
32106W        W95863  20.156  27.158  11.391
32107W        W95864  12.804  43.459   4.660
32108W        W95865  15.723  37.958   0.344
32109W        W95866  35.425  14.207  11.990
32110W        W95867  40.530  23.141   4.642
32111W        W95868   3.348  42.830  14.000
32112W        W95869  41.878  43.851   3.791
32113W        W95870   2.423  35.375   2.370
32114W        W95871  12.336  23.530   0.929
32115W        W95872  44.846  42.795   0.391
32116W        W95873  12.349   6.721  13.482
32117W        W95874   8.393  15.321  14.470
32118W        W95875  27.574  15.161   3.377
32119W        W95876  28.060  44.280  10.109
32120W        W95877  14.711  41.472  14.985
32121W        W95878  35.524  10.710   0.479
32122W        W95879  25.072  42.020  12.889
32123W        W95880  16.668  40.546  14.992
32124W        W95881  10.732  40.883  11.951
32125W        W95882  38.509  17.793  11.510
32126W        W95883   9.349  14.147   5.199
32127W        W95884  29.595  19.092   4.828
32128W        W95885  19.196   9.243   2.268
32129W        W95886  26.698  28.669   4.603
32130W        W95887   2.401  20.088  13.407
32131W        W95888   9.878  13.170  12.424
32132W        W95889  12.772  44.476   0.792
32133W        W95890  17.245  19.604  10.614
32134W        W95891  36.845  12.627  11.955
32135W        W95892  20.045  40.986  12.530
32136W        W95893  37.408  25.038  12.438
32137W        W95894  14.607  37.015   0.923
32138W        W95895  19.268   4.718  12.390
32139W        W95896  10.139  41.940   2.777
32140W        W95897  18.625  44.900   1.350
32141W        W95898  22.724  40.365   4.686
32142W        W95899  41.955  38.534  12.903
32143W        W95900  11.676   5.338   4.765
32144W        W95901  19.107   0.258  13.799
32145W        W95902  36.916  17.136   4.305
32146W        W95903  19.043  20.613   1.369
32147W        W95904  44.323  33.941  14.308
32148W        W95905  16.307   7.704   0.438
32149W        W95906  19.162  22.185   4.700
32150W        W95907  37.377  29.439  13.848
32151W        W95908  23.671  26.136  10.440
32152W        W95909  26.003  43.319  13.047
32153W        W95910   9.229  34.528   3.344
32154W        W95911  18.687   8.333   0.332
32155W        W95912  28.945   6.783  13.529
32156W        W95913  16.306  40.005   3.820
32157W        W95914  30.618  33.000   2.880
32158W        W95915  18.789  17.694  11.021
32159W        W95916  12.150  17.108  11.449
32160W        W95917  41.298  34.577   2.419
32161W        W95918   4.241  28.510  11.085
32162W        W95919  32.901  19.583   4.145
32163W        W95920  43.407  20.036   4.175
32164W        W95921  36.913  32.561   3.860
32165W        W95922  29.656  19.649  11.417
32166W        W95923  23.219  11.692  14.342
32167W        W95924  15.625  13.147  14.388
32168W        W95925  27.480  41.834   2.389
32169W        W95926  11.762  22.066   0.308
32170W        W95927   2.907  24.504   2.803
32171W        W95928   1.481  39.014  10.535
32172W        W95929  19.694  23.554  13.885
32173W        W95930   4.755  18.740   1.730
32174W        W95931  19.553   0.437   4.702
32175W        W95932  14.818  36.902  12.944
32176W        W95933  14.822  39.523   2.179
32177W        W95934  19.656  11.733  12.971
32178W        W95935  42.508  44.980  11.461
32179W        W95936  38.893  33.115   3.304
32180W        W95937  13.770  17.165  12.572
32181W        W95938  20.564  12.218   0.392
32182W        W95939  29.507  14.132   0.918
32183W        W95940  41.388  44.313   1.221
32184W        W95941  20.270  35.016  13.395
32185W        W95942  18.657  23.540  11.937
32186W        W95943  11.243  25.032  12.526
32187W        W95944   2.953  28.160  11.451
32188W        W95945  32.420  15.612   3.707
32189W        W95946   9.340  38.431  11.931
32190W        W95947  19.259   4.436   2.664
32191W        W95948  11.141   8.869   1.709
32192W        W95949   1.977  11.299   3.820
32193W        W95950  21.543  25.702   1.279
32194W        W95951  24.502  31.464   1.873
32195W        W95952  28.568  38.375  13.452
32196W        W95953  24.505   8.765  13.956
32197W        W95954  30.511  25.643   4.125
32198W        W95955  27.165   5.265   1.444
32199W        W95956  43.440   0.395  14.004
32200W        W95957  41.999  11.822  11.384
32201W        W95958   6.778  28.525  11.578
32202W        W95959  40.437   0.948  10.986
32203W        W95960  41.899   2.759   3.290
32204W        W95961  35.998  38.329  10.534
32205W        W95962  18.668  37.463  11.387
32206W        W95963  19.150  16.809  13.320
32207W        W95964   6.718  15.694   3.745
32208W        W95965  19.284  29.993   4.720
32209W        W95966  11.182  16.307   4.734
32210W        W95967  10.831  14.201   0.472
32211W        W95968   0.329  13.290   3.645
32212W        W95969   8.678   9.247  14.855
32213W        W95970  10.655  39.826   0.770
32214W        W95971  16.157   1.319  12.422
32215W        W95972  29.535  10.825  13.477
32216W        W95973  40.410  19.752  10.536
32217W        W95974  33.091   0.380   2.705
32218W        W95975  42.509  41.423   2.760
32219W        W95976   4.214  42.439   0.419
32220W        W95977   6.389  19.110  12.910
32221W        W95978   0.827   5.323  14.978
32222W        W95979  32.896  39.930   4.116
32223W        W95980  21.680  23.993  13.796
32224W        W95981  26.016  33.898   1.275
32225W        W95982  12.725  36.502   1.368
32226W        W95983   3.918  26.982   2.721
32227W        W95984  36.347  12.235  14.485
32228W        W95985  38.503  19.675  10.951
32229W        W95986  10.310  29.005   2.366
32230W        W95987  31.568  25.001   0.954
32231W        W95988  32.573   6.901   2.262
32232W        W95989  13.282  26.670   4.641
32233W        W95990  14.832  41.927   3.718
32234W        W95991  40.476  43.924   0.369
32235W        W95992  43.831   5.360  14.374
32236W        W95993  44.970  40.944  13.399
32237W        W95994   3.216  31.593  12.343
32238W        W95995  19.535  39.421   2.797
32239W        W95996  21.539  31.090  14.361
32240W        W95997  42.831   2.322  10.483
32241W        W95998  36.854  13.819   1.329
32242W        W95999  39.008  15.329   0.908
32243W        W96000  36.398  35.432  14.501
32244W        W96001  12.817  30.056   3.250
32245W        W96002  20.216  36.978   0.870
32246W        W96003  42.461  27.020  13.469
32247W        W96004   4.786   9.869  11.467
32248W        W96005  13.263   0.404   3.793
32249W        W96006  28.499   5.428   4.635
32250W        W96007  23.031  43.457   1.697
32251W        W96008  22.217  39.353  12.566
32252W        W96009  30.447   3.900  13.431
32253W        W96010   2.856  32.085   5.114
32254W        W96011  10.745  31.142   4.763
32255W        W96012  14.199  21.232  10.948
32256W        W96013   9.854  10.187  12.081
32257W        W96014  11.194  26.088   1.842
32258W        W96015   6.801   6.352  14.427
32259W        W96016  28.568   5.816  14.391
32260W        W96017  11.828  38.444   2.745
32261W        W96018  17.640  10.843   0.925
32262W        W96019  29.448  29.929   0.315
32263W        W96020  37.874  15.240   2.209
32264W        W96021   3.751   3.243   2.776
32265W        W96022  38.984  18.583   3.770
32266W        W96023  33.119  33.431  14.871
32267W        W96024  40.920  43.341  13.963
32268W        W96025  37.012  41.308   4.225
32269W        W96026  33.060  36.409  14.778
32270W        W96027  27.172  18.675  10.602
32271W        W96028  34.560  12.765  11.063
32272W        W96029  40.457  38.982  11.894
32273W        W96030  37.517  10.241   4.734
32274W        W96031  23.054  40.852   3.244
32275W        W96032  21.163   9.253   0.459
32276W        W96033  20.193  28.524   2.764
32277W        W96034  34.553  41.790   4.169
32278W        W96035  37.416   5.215  13.876
32279W        W96036  34.603  44.968   4.654
32280W        W96037   9.871  33.582   0.469
32281W        W96038  39.984   8.342   2.752
32282W        W96039  29.152  14.631  14.921
32283W        W96040  21.208   6.740   2.741
32284W        W96041  42.858  31.096   4.720
32285W        W96042  39.828  37.900  14.968
32286W        W96043  10.776  31.618  10.467
32287W        W96044  34.516   7.723   0.451
32288W        W96045  11.355  21.536   3.336
32289W        W96046  14.310  26.011   3.804
32290W        W96047  18.591  36.985   0.924
32291W        W96048   3.383  35.499  13.951
32292W        W96049   1.387  29.493   1.406
32293W        W96050  24.639  22.560  13.402
32294W        W96051  17.300  42.017  10.899
32295W        W96052  23.002  33.423  14.348
32296W        W96053  15.288  10.157   2.319
32297W        W96054  40.988   3.912   2.288
32298W        W96055  37.994  39.416   0.812
32299W        W96056  20.053  34.079  12.470
32300W        W96057   5.929  33.104   0.251
32301W        W96058  42.959   8.207   0.882
32302W        W96059  30.049  41.406   2.847
32303W        W96060   1.423   5.884   3.317
32304W        W96061  39.882  27.964   0.410
32305W        W96062  25.688  18.204  14.842
32306W        W96063   7.247  25.526  14.880
32307W        W96064  44.387   6.878  11.060
32308W        W96065   1.436  15.813  13.406
32309W        W96066  22.026   5.846  12.431
32310W        W96067   4.724   9.169  10.613
32311W        W96068   6.232  17.193   5.585
32312W        W96069  40.946  39.940   3.689
32313W        W96070  20.678  37.987  13.475
32314W        W96071  31.513  29.004   2.356
32315W        W96072   9.334  22.699  13.513
32316W        W96073  33.529   9.756   3.244
32317W        W96074  44.279  32.603   4.174
32318W        W96075  15.716  36.419   0.306
32319W        W96076  14.597  24.667   2.675
32320W        W96077  13.694  18.106   1.392
32321W        W96078  36.464  39.384  10.414
32322W        W96079  19.111  18.698  10.494
32323W        W96080   1.382  33.881  12.530
32324W        W96081  14.201   7.709   4.167
32325W        W96082  22.248  18.169  13.059
32326W        W96083  12.853  38.018   3.857
32327W        W96084   8.167   5.391   3.186
32328W        W96085  34.879   4.280  14.780
32329W        W96086   4.896  14.329  14.481
32330W        W96087  31.549  13.728   4.163
32331W        W96088  42.294  21.076  14.333
32332W        W96089  13.248   6.399   1.918
32333W        W96090   2.376  32.005  14.479
32334W        W96091   3.812   7.364   0.940
32335W        W96092   9.339  24.052   4.136
32336W        W96093   0.789  26.977   2.772
32337W        W96094  21.105  27.147   4.344
32338W        W96095   6.205   9.392  14.302
32339W        W96096  28.137  23.085  12.426
32340W        W96097  22.250  41.407   1.386
32341W        W96098  37.570   9.735   9.998
32342W        W96099  14.684  42.484  10.051
32343W        W96100   1.975  16.722   4.315
32344W        W96101  22.533  40.495   5.086
32345W        W96102  26.143  34.605   3.289
32346W        W96103  36.897  12.793   0.745
32347W        W96104  13.650  28.589   1.269
32348W        W96105  13.805  39.994  13.042
32349W        W96106  40.919  14.787   2.331
32350W        W96107  10.835  40.876  14.784
32351W        W96108  22.118   7.344  12.340
32352W        W96109  41.946  32.490   0.877
32353W        W96110  10.760  27.094   4.170
32354W        W96111  34.479   0.364  12.839
32355W        W96112   0.286   1.340  12.456
32356W        W96113  21.653  14.129   4.681
32357W        W96114  19.681  23.033   0.445
32358W        W96115  42.342   5.230  11.457
32359W        W96116  20.035   0.389  10.019
32360W        W96117  40.344  42.489  14.281
32361W        W96118  44.940  29.557   4.804
32362W        W96119   9.394  34.474   3.688
32363W        W96120   9.274  32.522   4.160
32364W        W96121  14.741   7.171  14.931
32365W        W96122  43.857   0.792  12.453
32366W        W96123  37.961   6.407   9.972
32367W        W96124  16.201  14.161  11.569
32368W        W96125  28.176  27.069   3.290
32369W        W96126  14.724  44.362  13.371
32370W        W96127   8.676  21.690   2.692
32371W        W96128   0.840  35.540   1.707
32372W        W96129  23.628   7.823  10.642
32373W        W96130   0.887  22.587  10.104
32374W        W96131  23.699  10.243   1.833
32375W        W96132  37.043  43.379  12.560
32376W        W96133  24.493   4.247  13.986
32377W        W96134   8.718  19.569  10.156
32378W        W96135   0.303   4.778   3.179
32379W        W96136  22.582  10.805   2.852
32380W        W96137  36.010  40.416  10.425
32381W        W96138   3.310   7.287   9.974
32382W        W96139  23.596   8.673  11.070
32383W        W96140   4.901  28.105   3.172
32384W        W96141  44.810  34.924  14.827
32385W        W96142  13.779   7.882  14.983
32386W        W96143   0.763  23.193   3.245
32387W        W96144   2.347  33.962   0.899
32388W        W96145  12.342  15.107   2.410
32389W        W96146   7.854  40.878   1.221
32390W        W96147   4.925  14.615   3.753
32391W        W96148  11.292  10.358  14.785
32392W        W96149  32.537  17.127  10.948
32393W        W96150  17.576   0.338   3.751
32394W        W96151  21.179  30.123   2.858
32395W        W96152  22.017  13.285  10.984
32396W        W96153  15.163  12.349  12.986
32397W        W96154  30.003  19.710   4.634
32398W        W96155   1.476  23.207   2.809
32399W        W96156  40.468  24.200  12.025
32400W        W96157  23.496  31.121  14.986
32401W        W96158   8.240   8.255   2.195
32402W        W96159  33.920  27.595   0.393
32403W        W96160  19.684   6.310  13.460
32404W        W96161  39.957  32.491  13.820
32405W        W96162  25.534  22.658   1.878
32406W        W96163  28.971  43.988  12.551
32407W        W96164   5.904  34.025   0.775
32408W        W96165  35.383  28.149  14.445
32409W        W96166  19.095  26.183   2.270
32410W        W96167  13.715  42.489  14.957
32411W        W96168  30.564   3.263   1.777
32412W        W96169   0.304  19.539   1.323
32413W        W96170  32.886  17.267   2.397
32414W        W96171  42.483  22.087  11.571
32415W        W96172  30.517  14.307  12.553
32416W        W96173  16.258  35.010  14.927
32417W        W96174   8.713  39.953  12.445
32418W        W96175  23.732   0.401  14.911
32419W        W96176  35.101  35.077   4.796
32420W        W96177  30.990  29.038  10.996
32421W        W96178  32.016  39.488   1.231
32422W        W96179  38.862   0.406   9.643
32423W        W96180   0.295  35.479  10.488
32424W        W96181  42.863   1.342  11.090
32425W        W96182  43.947  14.620   3.366
32426W        W96183  37.919  20.182   1.318
32427W        W96184   9.706  29.057  13.938
32428W        W96185  42.966  11.737  11.028
32429W        W96186  25.075  20.212   2.825
32430W        W96187  37.357  23.985   4.217
32431W        W96188   4.382  44.359   1.283
32432W        W96189   3.230  33.016  12.350
32433W        W96190  11.680  10.212   0.323
32434W        W96191  10.169  19.594  14.977
32435W        W96192  27.523   7.691  11.032
32436W        W96193  36.928  15.313   0.251
32437W        W96194  17.107  18.295  10.008
32438W        W96195  10.787  12.778   2.813
32439W        W96196  32.443  35.536   0.405
32440W        W96197  23.542   8.673  13.892
32441W        W96198  44.782  41.493  11.913
32442W        W96199  15.706  24.126  13.020
32443W        W96200  38.965  19.061   2.740
32444W        W96201  26.020  34.381   4.262
32445W        W96202   1.264   0.451  12.388
32446W        W96203  23.678   8.786  11.974
32447W        W96204  13.343  26.598   0.364
32448W        W96205  22.999   8.378  12.429
32449W        W96206  31.064  10.270   4.172
32450W        W96207  39.447   8.831   4.286
32451W        W96208  19.114  16.701  11.564
32452W        W96209  44.895  31.640   1.874
32453W        W96210  32.976  42.376   1.323
32454W        W96211  22.625  16.072   0.374
32455W        W96212  15.757  25.507  11.941
32456W        W96213   7.352  31.142   4.181
32457W        W96214  36.377   8.725   1.866
32458W        W96215   2.423  21.671  13.964
32459W        W96216  20.043  25.472   2.410
32460W        W96217   2.272  21.210   3.342
32461W        W96218  41.921  39.539  12.517
32462W        W96219  28.030  27.498   4.690
32463W        W96220  25.524  12.802   3.174
32464W        W96221  16.077  40.966  13.481
32465W        W96222  12.834  42.985   3.769
32466W        W96223  13.676  13.280   3.328
32467W        W96224  34.918  34.929  13.373
32468W        W96225  34.081   7.764   0.954
32469W        W96226   1.822   2.765  13.846
32470W        W96227  39.361   4.268   0.941
32471W        W96228  14.604  33.399  13.026
32472W        W96229  10.809  22.071   0.426
32473W        W96230  42.301  30.565   4.665
32474W        W96231  15.089  29.663  12.962
32475W        W96232  30.426  25.193   2.885
32476W        W96233  41.924  18.597  14.452
32477W        W96234   5.420  25.034  11.111
32478W        W96235  34.042   2.894   3.345
32479W        W96236  11.862  32.537   4.792
32480W        W96237  19.734  37.933  13.362
32481W        W96238  17.302  16.636   1.219
32482W        W96239  30.000  22.573  12.454
32483W        W96240  19.180  14.101   1.332
32484W        W96241   1.353  35.958   2.327
32485W        W96242  27.154  31.896   5.288
32486W        W96243   7.205  11.798  14.809
32487W        W96244  12.621  21.099   1.326
32488W        W96245  28.552  26.196  10.583
32489W        W96246   5.244   4.435  14.030
32490W        W96247   7.352  42.353   1.275
32491W        W96248  12.322  11.743   2.902
32492W        W96249  36.361  41.893  11.068
32493W        W96250  18.059  23.128   3.168
32494W        W96251   1.454  44.901   0.450
32495W        W96252  35.452  12.673  11.932
32496W        W96253   5.915  39.389  12.467
32497W        W96254  41.827  25.135  13.982
32498W        W96255   3.259   3.739   3.749
32499W        W96256   6.362  13.213   4.635
32500W        W96257  35.585  43.901  13.960
32501W        W96258  28.068  39.331  11.868
32502W        W96259  44.896  25.067   1.409
32503W        W96260  13.160  12.692  14.385
32504W        W96261   7.796  40.804   2.272
32505W        W96262  39.494  41.516   3.651
32506W        W96263  43.466  15.688  14.818
32507W        W96264  35.924  19.652   4.837
32508W        W96265  31.901  35.975  13.501
32509W        W96266  12.286  35.362  13.399
32510W        W96267  27.671  38.923  14.028
32511W        W96268  26.574  11.658  12.462
32512W        W96269  33.993  21.736  11.952
32513W        W96270  41.425   6.399   2.278
32514W        W96271  38.997   1.883  12.832
32515W        W96272  15.774  40.395  11.560
32516W        W96273  31.635  41.375   1.869
32517W        W96274   7.691  35.018  10.520
32518W        W96275   0.294  43.834  11.511
32519W        W96276  37.352   3.228   0.856
32520W        W96277   1.353  12.176   3.158
32521W        W96278  10.803  40.923   3.808
32522W        W96279  36.526   3.422   1.418
32523W        W96280  19.684  39.013  13.503
32524W        W96281  37.452  37.478  10.927
32525W        W96282   1.933   5.852   4.129
32526W        W96283  10.632  19.079  14.364
32527W        W96284   5.352  33.883  14.909
32528W        W96285  43.911  37.431  10.519
32529W        W96286  19.708   4.394   3.851
32530W        W96287   7.728  16.265  12.081
32531W        W96288  15.297  20.044   3.287
32532W        W96289   6.679  21.147   0.375
32533W        W96290  36.880  32.487  10.957
32534W        W96291   7.769  42.932  14.831
32535W        W96292  23.540  36.484   4.221
32536W        W96293  20.665  12.203  12.500
32537W        W96294  32.428  37.946  14.831
32538W        W96295   4.415  37.527   0.742
32539W        W96296  13.741   6.302  12.024
32540W        W96297  30.109   9.367  12.549
32541W        W96298  13.239  40.951  12.044
32542W        W96299  16.302  36.085  14.912
32543W        W96300  26.123   8.170   0.854
32544W        W96301  42.908  43.827   1.303
32545W        W96302  27.075  22.644  14.965
32546W        W96303  20.252  44.287  14.930
32547W        W96304  14.309  14.797   0.427
32548W        W96305   8.181  40.800   3.769
32549W        W96306  13.629  16.600   4.337
32550W        W96307  25.493  18.789  14.917
32551W        W96308  44.463   2.377  13.425
32552W        W96309  31.636   1.955   4.293
32553W        W96310  20.132  17.096   3.343
32554W        W96311  24.014   4.221  13.919
32555W        W96312  12.708  41.376   1.218
32556W        W96313   2.296  39.818  13.453
32557W        W96314   6.807  18.285  12.065
32558W        W96315   2.833   7.342   4.195
32559W        W96316  19.057  44.426  13.968
32560W        W96317  35.456   4.353  14.375
32561W        W96318  13.655  32.099   3.694
32562W        W96319  27.636   6.748  10.975
32563W        W96320  19.226  13.127   4.165
32564W        W96321  25.062   3.781  13.525
32565W        W96322   4.311   6.322   2.306
32566W        W96323  20.122   9.294   2.675
32567W        W96324  26.672   0.781  12.074
32568W        W96325  14.225  26.051   2.216
32569W        W96326  34.867  13.117  14.372
32570W        W96327   4.416  39.548  14.498
32571W        W96328   3.776  38.904   0.478
32572W        W96329  12.691  12.143   0.761
32573W        W96330  34.438   7.281   0.247
32574W        W96331  38.341  31.032  13.522
32575W        W96332  34.576  28.490  14.487
32576W        W96333  17.245  40.331  11.863
32577W        W96334  22.594  27.656   3.171
32578W        W96335  21.519  29.634   4.681
32579W        W96336   7.365  35.068   4.609
32580W        W96337  22.069   4.935  13.470
32581W        W96338   8.805  32.018   0.322
32582W        W96339   0.981  34.016   0.938
32583W        W96340   0.370  38.950  11.561
32584W        W96341   7.743   0.250   1.337
32585W        W96342   3.814  12.211  13.376
32586W        W96343  38.558   2.455  10.912
32587W        W96344   2.886   9.371   1.260
32588W        W96345   6.856  32.629   0.804
32589W        W96346  37.037  36.398   2.784
32590W        W96347  30.131  24.611  12.425
32591W        W96348   7.193  15.091  14.423
32592W        W96349  16.572  37.023   2.896
32593W        W96350  17.701  43.777  13.033
32594W        W96351  36.035   9.357   4.648
32595W        W96352  20.591  36.474  13.363
32596W        W96353  42.494  25.698  12.535
32597W        W96354   7.412  17.697   1.711
32598W        W96355   0.290  32.587   3.811
32599W        W96356  44.825  21.205   3.716
32600W        W96357  29.154   4.927  12.950
32601W        W96358  30.936  25.644  12.534
32602W        W96359   3.746  26.521   3.355
32603W        W96360  32.026  42.293  13.414
32604W        W96361  31.490  14.282   0.819
32605W        W96362  18.167  16.608   1.250
32606W        W96363  42.430   4.703   2.391
32607W        W96364   4.442   5.740   3.351
32608W        W96365  28.607   8.390  14.946
32609W        W96366   7.191  20.668  12.454
32610W        W96367   9.330  11.661  11.965
32611W        W96368  27.009  39.970   2.695
32612W        W96369   7.224  43.347   0.960
32613W        W96370  38.473   2.406   2.844
32614W        W96371   2.419   2.252   3.187
32615W        W96372  17.268   0.857   2.413
32616W        W96373  27.555  29.052  12.084
32617W        W96374  24.063   0.754   1.377
32618W        W96375  10.245  28.072   4.350
32619W        W96376   9.803  10.216   4.340
32620W        W96377  26.643  15.136  14.856
32621W        W96378  22.524   2.794  12.087
32622W        W96379  10.238   1.932   0.929
32623W        W96380   0.963  19.276   2.310
32624W        W96381  26.572  29.156   3.647
32625W        W96382  37.443  11.155   4.810
32626W        W96383  38.073  43.319   2.311
32627W        W96384  29.041  27.169  11.032
32628W        W96385  28.992  42.776   0.819
32629W        W96386  28.978   0.811  13.967
32630W        W96387  35.539   0.393   4.114
32631W        W96388  40.458  12.853   0.360
32632W        W96389  21.063   3.955   4.169
32633W        W96390  11.283  39.470  11.856
32634W        W96391  13.134   8.655   4.306
32635W        W96392  37.963   4.270  13.477
32636W        W96393  10.683  12.344   3.289
32637W        W96394  33.954  41.299  13.420
32638W        W96395  41.886  40.026   2.893
32639W        W96396  40.436  27.665   1.911
32640W        W96397  26.698  27.189   3.672
32641W        W96398  38.912  24.719   0.475
32642W        W96399   9.227  40.982  13.483
32643W        W96400  42.974   1.371   1.878
32644W        W96401  27.152  12.778   4.828
32645W        W96402  18.245  28.024  12.388
32646W        W96403  15.690  29.509  14.835
32647W        W96404  15.249  28.457   3.265
32648W        W96405   4.229   1.433  13.403
32649W        W96406  33.075   2.961   5.253
32650W        W96407  31.487  12.210  14.938
32651W        W96408  24.540  20.042  13.449
32652W        W96409  10.310  19.574   4.337
32653W        W96410  38.452  16.152   4.256
32654W        W96411  16.568  31.996   0.438
32655W        W96412  17.565  40.410  12.457
32656W        W96413  20.147  33.015  14.856
32657W        W96414  28.444  26.547  10.973
32658W        W96415  23.096  32.121   2.772
32659W        W96416  41.296   6.401   3.324
32660W        W96417  33.411  13.270  10.444
32661W        W96418  16.237  19.760  13.389
32662W        W96419  40.321   8.670   2.778
32663W        W96420  20.254  35.527   0.402
32664W        W96421  20.538  14.095  13.819
32665W        W96422   1.451  19.569  10.439
32666W        W96423  25.215   8.887  13.027
32667W        W96424  31.957   8.365   3.809
32668W        W96425  37.057   7.897   0.746
32669W        W96426  36.036  16.111  14.491
32670W        W96427   3.404  36.370  11.934
32671W        W96428  43.022  30.123  10.410
32672W        W96429  28.020  29.044  11.928
32673W        W96430  36.081   7.858   2.337
32674W        W96431  43.853  33.406   2.801
32675W        W96432  42.856   7.841   1.747
32676W        W96433  19.134  10.245   1.309
32677W        W96434  31.139  43.920   2.213
32678W        W96435  21.732   5.804   0.278
32679W        W96436  29.962  24.107  13.529
32680W        W96437   6.388  41.433   0.780
32681W        W96438  32.127  27.005   9.933
32682W        W96439  40.033  23.041   0.933
32683W        W96440  32.886  16.078   3.335
32684W        W96441  14.290  22.080   4.134
32685W        W96442  42.907  25.065   0.900
32686W        W96443  10.337   0.808   0.884
32687W        W96444   3.931  32.901  12.039
32688W        W96445  21.553   1.385   1.217
32689W        W96446  14.818  33.538  11.946
32690W        W96447  37.506  19.282   2.216
32691W        W96448  21.633   6.368   3.688
32692W        W96449   1.826  24.555  12.028
32693W        W96450  15.194  11.863  14.299
32694W        W96451  40.951  39.001   2.690
32695W        W96452  36.901  14.292  11.403
32696W        W96453  24.563  22.182   0.253
32697W        W96454   1.975  44.479  10.449
32698W        W96455  21.022  33.070   3.833
32699W        W96456  13.703   2.732  14.012
32700W        W96457  42.450   3.443  11.114
32701W        W96458  12.749  28.632   0.818
32702W        W96459   4.271  42.293   4.647
32703W        W96460   1.835  15.239  10.906
32704W        W96461  42.906  22.168   1.295
32705W        W96462  35.905  41.502   0.931
32706W        W96463  10.853  31.640  11.932
32707W        W96464  23.734  17.112  11.952
32708W        W96465   3.777  12.193   1.822
32709W        W96466  24.135  37.054   4.232
32710W        W96467  23.101  17.226   0.421
32711W        W96468  20.224  15.819  11.863
32712W        W96469  14.325  28.981  14.368
32713W        W96470  34.891  35.890   1.234
32714W        W96471  38.065  37.340  11.946
32715W        W96472   3.399   4.368  10.513
32716W        W96473  13.630  15.247  13.048
32717W        W96474  16.188  34.458   3.686
32718W        W96475   8.787  19.687  10.585
32719W        W96476   9.335  34.097  14.996
32720W        W96477  17.763  21.028   1.356
32721W        W96478  35.569  14.178  14.962
32722W        W96479   3.460  14.339  11.589
32723W        W96480  33.622  32.994  11.498
32724W        W96481  37.059  37.363   2.822
32725W        W96482   0.762  12.828  11.895
32726W        W96483  37.536   4.213   4.222
32727W        W96484  10.376  31.475   2.674
32728W        W96485  39.334  34.949   2.669
32729W        W96486   6.348  40.519   3.829
32730W        W96487  43.776  34.508   4.667
32731W        W96488  16.685  22.085  11.449
32732W        W96489   6.402  28.096   2.199
32733W        W96490  40.393  35.430   1.827
32734W        W96491  38.056  18.614  11.438
32735W        W96492  40.836  36.991   1.376
32736W        W96493  41.421   7.407   1.776
32737W        W96494  10.151   8.717  10.925
32738W        W96495  29.619  31.630  12.551
32739W        W96496  14.251  20.593   4.645
32740W        W96497  23.030  31.481  14.832
32741W        W96498   7.745  21.713  12.006
32742W        W96499  38.335  43.429  11.869
32743W        W96500  28.942  39.897   3.724
32744W        W96501  18.721  37.510   4.292
32745W        W96502  21.147   3.224   5.123
32746W        W96503  10.754  22.610   1.773
32747W        W96504  44.315   7.347  10.428
32748W        W96505  43.332   4.842  11.018
32749W        W96506  35.034  17.157  10.490
32750W        W96507  27.465  27.635   0.933
32751W        W96508  19.678  24.671   2.341
32752W        W96509  12.623   3.430  12.358
32753W        W96510  32.406  10.686   4.263
32754W        W96511  40.388  41.859   2.380
32755W        W96512   9.742  22.702   4.818
32756W        W96513  36.519  16.093   0.842
32757W        W96514   7.178   5.819   4.243
32758W        W96515  21.751  14.800  13.349
32759W        W96516  24.181  30.994  11.034
32760W        W96517  31.950  30.534  10.045
32761W        W96518  25.195  16.133   2.279
32762W        W96519  40.462  33.999   4.708
32763W        W96520  44.303   7.741  12.053
32764W        W96521  22.239  44.996   1.431
32765W        W96522  27.083  29.520   1.920
32766W        W96523  31.573   7.695   4.732
32767W        W96524  42.959  12.316   3.766
32768W        W96525   5.297  26.136  12.488
32769W        W96526  19.547  17.091  13.881
32770W        W96527   4.895   5.263  12.847
32771W        W96528  44.952  36.525   2.411
32772W        W96529  39.366   9.879  12.546
32773W        W96530  24.708  33.088   0.818
32774W        W96531  25.032  20.061   3.280
32775W        W96532  33.910  15.254   0.429
32776W        W96533  23.591  38.052  10.935
32777W        W96534  11.678  32.589   3.203
32778W        W96535   8.186  35.549  13.050
32779W        W96536  34.876  11.744   3.147
32780W        W96537  33.991  14.202   0.861
32781W        W96538   9.258  32.582   3.700
32782W        W96539  19.602  42.871  10.482
32783W        W96540  38.890  29.123  10.916
32784W        W96541  21.616   7.730  10.567
32785W        W96542  39.420  38.064  12.460
32786W        W96543  11.813  43.941  10.976
32787W        W96544  16.665   7.897   2.852
32788W        W96545  35.859   5.279   0.407
32789W        W96546  16.700  44.828  13.528
32790W        W96547  36.475  20.185  14.981
32791W        W96548  22.221   7.735   0.247
32792W        W96549  35.996  33.885   4.228
32793W        W96550  32.006   1.856   2.808
32794W        W96551  39.901   8.165   1.705
32795W        W96552  41.826  20.637  12.846
32796W        W96553   6.249   3.867  11.026
32797W        W96554   5.907  41.396  14.308
32798W        W96555  29.162   2.965   4.706
32799W        W96556   7.179  27.025  14.486
32800W        W96557  25.665  21.515   0.845
32801W        W96558  26.990  13.300  11.999
32802W        W96559  28.602  30.092   2.762
32803W        W96560  19.691  37.088   2.772
32804W        W96561  42.839  31.031  12.412
32805W        W96562   7.416   2.726  13.437
32806W        W96563  33.621  12.134   3.636
32807W        W96564  44.970  28.005  11.595
32808W        W96565   7.741  14.282  14.924
32809W        W96566  25.563  17.234  14.383
32810W        W96567  23.596  20.228   2.708
32811W        W96568   4.862  38.039   0.754
32812W        W96569   2.258  43.839   2.231
32813W        W96570  15.253  32.521   2.876
32814W        W96571  22.007  21.250  11.435
32815W        W96572  38.913  27.062   1.288
32816W        W96573  29.479  43.874   4.812
32817W        W96574  27.052  34.516   0.360
32818W        W96575  17.163   5.284   4.676
32819W        W96576  40.326   7.298  11.060
32820W        W96577  32.900  13.112   4.617
32821W        W96578  30.113  13.105   2.401
32822W        W96579  12.849  39.523   0.934
32823W        W96580  39.414  29.484   4.318
32824W        W96581  27.521   4.771  14.407
32825W        W96582  29.478  33.610  11.571
32826W        W96583  36.448  15.703  13.536
32827W        W96584   7.769  13.316   0.440
32828W        W96585  31.030  23.093  14.969
32829W        W96586  44.419  36.043   1.270
32830W        W96587   9.205  44.841   2.292
32831W        W96588  39.854  12.253   0.258
32832W        W96589  37.850  40.945  11.549
32833W        W96590   6.825  32.057  12.860
32834W        W96591  14.213  33.987  12.394
32835W        W96592  17.596   9.235  12.383
32836W        W96593  25.574  41.008   0.365
32837W        W96594   3.349  28.158  12.900
32838W        W96595  37.856   7.824   3.802
32839W        W96596  15.589   2.397  14.485
32840W        W96597  44.963  13.698  13.538
32841W        W96598  38.520  40.882   4.167
32842W        W96599  16.124  13.281   1.781
32843W        W96600  32.094   7.391  10.105
32844W        W96601  38.073   3.397  13.036
32845W        W96602  36.422   7.255  13.931
32846W        W96603  41.295  35.551  11.115
32847W        W96604  33.086  14.621   4.785
32848W        W96605   8.809  15.778   0.765
32849W        W96606   6.280   7.204  12.067
32850W        W96607  23.156  23.234   1.698
32851W        W96608   4.205  26.504  12.828
32852W        W96609  19.256  38.362   3.379
32853W        W96610   7.727  12.806  11.545
32854W        W96611  12.808   7.396   0.755
32855W        W96612  23.214   3.353  13.820
32856W        W96613  22.094  36.961  11.891
32857W        W96614   3.914  42.289   2.784
32858W        W96615  38.411  32.628  12.378
32859W        W96616   2.854   0.468   1.222
32860W        W96617  30.967  33.555   3.659
32861W        W96618   9.366  23.071  12.451
32862W        W96619  27.519  33.967  12.459
32863W        W96620  41.976  23.012   2.199
32864W        W96621  16.594   1.264   4.274
32865W        W96622   7.273  44.920   4.295
32866W        W96623  18.662  10.199   2.797
32867W        W96624  34.874  23.118  10.643
32868W        W96625  22.112  16.129  13.956
32869W        W96626  27.512  17.750   3.650
32870W        W96627  17.152  44.785   4.277
32871W        W96628   1.735  24.084   4.310
32872W        W96629  17.621  21.535  14.803
32873W        W96630  18.097  32.605  13.500
32874W        W96631  20.179  33.919  13.507
32875W        W96632  14.714  35.978  13.420
32876W        W96633  42.813   0.276   1.385
32877W        W96634  37.512  21.641   2.817
32878W        W96635  38.551  21.643  10.425
32879W        W96636  36.472  12.845  14.406
32880W        W96637  13.806   3.888  11.570
32881W        W96638  16.119  30.461  11.463
32882W        W96639  32.591  42.841  13.382
32883W        W96640  41.445  19.542  14.276
32884W        W96641   6.752  13.184  11.989
32885W        W96642  43.997  41.890  11.525
32886W        W96643  34.506  38.389  11.581
32887W        W96644   8.748  17.655  11.603
32888W        W96645  23.506   9.184   3.726
32889W        W96646  32.951   7.728   2.360
32890W        W96647  39.903   3.809   1.739
32891W        W96648  29.624   3.384  14.785
32892W        W96649  35.006  39.536   2.340
32893W        W96650  14.589   9.251   2.279
32894W        W96651  39.018  43.385   1.237
32895W        W96652  32.619  16.289  14.385
32896W        W96653  42.345  37.366   0.362
32897W        W96654   8.267  25.130  13.941
32898W        W96655   3.811  19.284  11.861
32899W        W96656  39.960  30.544  13.028
32900W        W96657  21.591  25.499  13.007
32901W        W96658  39.535   6.400  10.985
32902W        W96659  36.981  12.236   1.917
32903W        W96660  25.995  33.444   1.406
32904W        W96661  23.010  34.891   4.156
32905W        W96662  39.977  16.160   4.831
32906W        W96663   8.683  16.711  14.836
32907W        W96664  17.690  26.979  14.508
32908W        W96665  44.799  19.735  10.481
32909W        W96666  42.835  34.070   3.325
32910W        W96667  33.978  18.777  13.401
32911W        W96668  23.557  20.136   1.427
32912W        W96669  35.565   0.868  11.089
32913W        W96670  12.831  16.703  13.969
32914W        W96671  24.490  14.300   2.857
32915W        W96672  11.634   3.872   3.286
32916W        W96673  30.521  26.589  11.012
32917W        W96674   3.409  31.098  14.899
32918W        W96675  23.220   2.771  14.831
32919W        W96676  23.080  32.409  13.010
32920W        W96677  36.942  16.718   4.711
32921W        W96678  19.599  26.170   2.182
32922W        W96679   2.300  17.129   4.351
32923W        W96680  38.822  14.229   4.820
32924W        W96681  32.096  16.776  12.499
32925W        W96682  28.140   6.820   1.893
32926W        W96683  14.628   5.882  13.859
32927W        W96684  13.154  39.862  11.447
32928W        W96685   6.718   2.882   2.774
32929W        W96686  27.018  18.696   0.367
32930W        W96687   7.193  23.997   2.342
32931W        W96688  34.479  30.657   2.678
32932W        W96689  18.692  25.209   4.254
32933W        W96690  38.955  37.871   0.906
32934W        W96691  24.182   4.304   0.462
32935W        W96692   8.246  37.008  14.939
32936W        W96693  17.294  33.988  12.922
32937W        W96694  22.625  19.615   1.834
32938W        W96695  32.094   1.829  10.463
32939W        W96696   8.165  13.302  11.905
32940W        W96697  14.233  38.870  14.770
32941W        W96698   4.354  27.055  10.542
32942W        W96699  38.419  33.584   4.675
32943W        W96700  36.048  29.448   2.257
32944W        W96701  37.068  10.330  14.464
32945W        W96702  39.051   5.771  13.803
32946W        W96703  34.576  22.551  11.952
32947W        W96704  13.134  44.904  14.463
32948W        W96705  16.243  22.727   0.409
32949W        W96706   7.895  44.281   0.478
32950W        W96707   1.296  16.779   1.756
32951W        W96708  44.295  33.057  11.946
32952W        W96709  36.354  27.079  13.482
32953W        W96710  31.927  41.390   0.398
32954W        W96711  29.960   5.801  13.894
32955W        W96712  41.478  19.242   4.155
32956W        W96713  41.969  42.385   2.792
32957W        W96714  42.355  27.505  10.569
32958W        W96715   7.797   2.746  12.369
32959W        W96716  42.847  21.211  10.480
32960W        W96717  28.615  19.173   4.227
32961W        W96718  16.686   8.782  14.763
32962W        W96719  42.914  30.509  10.558
32963W        W96720  27.146   8.290  12.432
32964W        W96721   6.312  28.554   1.833
32965W        W96722  44.427   4.929  10.065
32966W        W96723  24.207  23.730   0.391
32967W        W96724   9.784   4.938   4.601
32968W        W96725   6.708  36.988   1.302
32969W        W96726  12.644   4.751   0.947
32970W        W96727  37.568  10.662  11.125
32971W        W96728  22.107  44.317   1.842
32972W        W96729   9.392  16.772   3.630
32973W        W96730  19.643   0.760   4.175
32974W        W96731   3.824  11.274   0.342
32975W        W96732   9.693  40.987  12.895
32976W        W96733  30.584  31.051   0.802
32977W        W96734  29.468  42.794   4.786
32978W        W96735  17.684   1.262   4.208
32979W        W96736  31.145  15.765  11.408
32980W        W96737  38.416  16.142   1.333
32981W        W96738  26.068   8.259  14.828
32982W        W96739  15.631  28.062  10.409
32983W        W96740  22.516   9.232  10.981
32984W        W96741  17.600  23.696  13.941
32985W        W96742  27.003  18.594   1.273
32986W        W96743  10.236  39.045   2.345
32987W        W96744  37.382  18.189  12.575
32988W        W96745  23.725  24.645  10.994
32989W        W96746  25.984  11.757  14.914
32990W        W96747  15.640  25.189   3.734
32991W        W96748  44.919  27.674  13.885
32992W        W96749  17.258  25.984  13.319
32993W        W96750  23.046   2.898   3.809
32994W        W96751   1.259  24.517  11.066
32995W        W96752  20.536   5.716  12.962
32996W        W96753  14.103   5.401   4.715
32997W        W96754   4.880  10.778  14.322
32998W        W96755   1.922   5.290   2.268
32999W        W96756  36.481  31.628  12.854
33000W        W96757   4.379  34.383   0.354
33001W        W96758  24.499  22.598   3.228
33002W        W96759   2.457  26.528  10.541
33003W        W96760  30.125   0.372  11.061
33004W        W96761   8.783  35.941  13.941
33005W        W96762  27.012  22.680  11.397
33006W        W96763  38.495  23.170   1.839
33007W        W96764  23.150  28.575  14.787
33008W        W96765  39.830  17.682   2.409
33009W        W96766  35.039  16.295   0.287
33010W        W96767  43.947   9.795  11.587
33011W        W96768  31.435  27.537   2.369
33012W        W96769  16.158  21.110   1.846
33013W        W96770   6.712  41.872  12.457
33014W        W96771  22.621  42.832  11.941
33015W        W96772   4.918  42.395   3.749
33016W        W96773  13.685  22.716   4.789
33017W        W96774  41.953  14.674   1.325
33018W        W96775  18.665  22.597   2.331
33019W        W96776  37.832  28.028  14.016
33020W        W96777  44.304  36.008  13.827
33021W        W96778  25.199  30.570   2.352
33022W        W96779   7.232  23.674   2.776
33023W        W96780  21.057  16.125   2.249
33024W        W96781  41.981  32.418  12.571
33025W        W96782   8.233  23.065  10.564
33026W        W96783  24.120   6.429  10.144
33027W        W96784   4.746  15.318   2.854
33028W        W96785  33.551  17.187  11.057
33029W        W96786  28.553  31.035   1.811
33030W        W96787  29.504  39.516  11.557
33031W        W96788  13.788   2.865  13.026
33032W        W96789  34.578  44.783  10.999
33033W        W96790  14.167  40.320   5.135
33034W        W96791  21.045  25.696   2.834
33035W        W96792  30.603  14.312   3.790
33036W        W96793  37.888  35.047  10.513
33037W        W96794  15.731  38.503  11.996
33038W        W96795  17.215  24.109  12.440
33039W        W96796  21.554  12.820  12.079
33040W        W96797  38.541  39.938   2.842
33041W        W96798  41.926  40.965   3.652
33042W        W96799  38.436  21.185   1.343
33043W        W96800  39.466  35.985   1.760
33044W        W96801  38.375  12.332   0.886
33045W        W96802  10.290  31.488   2.258
33046W        W96803  15.148  35.433   3.236
33047W        W96804  25.665  21.222  11.473
33048W        W96805  30.066  35.057   0.295
33049W        W96806  15.769  23.122   3.863
33050W        W96807   2.806  44.411   0.343
33051W        W96808   4.847   4.718   2.323
33052W        W96809  27.641  38.067  12.929
33053W        W96810  15.710   8.682   3.242
33054W        W96811  10.384  12.682   2.688
33055W        W96812  29.585  17.619   5.317
33056W        W96813  39.051  18.116   4.782
33057W        W96814  19.666  22.026   0.786
33058W        W96815  34.493  43.946  12.352
33059W        W96816  11.653  41.964   2.304
33060W        W96817  40.979  19.082  13.027
33061W        W96818  33.427  36.423   3.718
33062W        W96819  28.973  11.678  12.949
33063W        W96820  41.494  27.629   4.778
33064W        W96821  33.000  41.890  10.465
33065W        W96822  30.930  18.167   0.456
33066W        W96823  16.728  43.279  14.805
33067W        W96824  17.631  30.974   0.803
33068W        W96825   9.834  34.553  12.568
33069W        W96826   3.818  43.952  13.823
33070W        W96827  13.769  42.883   4.234
33071W        W96828  14.746   9.769   1.296
33072W        W96829   0.960  11.333   2.775
33073W        W96830   4.320  37.904  11.479
33074W        W96831   4.795   4.228  13.339
33075W        W96832  18.077  23.193  14.483
33076W        W96833   0.489   4.343  11.596
33077W        W96834   6.765   3.431   3.189
33078W        W96835   5.887   8.298   0.337
33079W        W96836  31.016   0.371   2.213
33080W        W96837   9.652   6.291  13.949
33081W        W96838  12.712  12.668  12.032
33082W        W96839  38.466   3.448  12.453
33083W        W96840  43.338   4.825   0.295
33084W        W96841  11.649  13.761  11.978
33085W        W96842  32.089  28.016   3.809
33086W        W96843  12.718  42.457  13.847
33087W        W96844   9.270  38.506   1.757
33088W        W96845  39.063  30.520   2.779
33089W        W96846   9.802  25.698  11.953
33090W        W96847  20.587  26.092  11.099
33091W        W96848  21.194  30.159   2.208
33092W        W96849  13.615   1.802   0.336
33093W        W96850  34.446  20.068   0.755
33094W        W96851  13.629  15.720   2.256
33095W        W96852  35.362  35.481  11.512
33096W        W96853   3.262  29.578   4.334
33097W        W96854  24.069  40.910   1.374
33098W        W96855   5.206  14.323   0.296
33099W        W96856  35.867  14.295   4.196
33100W        W96857   9.830  29.157  10.510
33101W        W96858  20.568  11.702  13.320
33102W        W96859   5.822   3.215   0.767
33103W        W96860   9.794  37.562  14.023
33104W        W96861  10.831  27.946  10.476
33105W        W96862  12.814  37.406   2.406
33106W        W96863   5.920  40.347  10.430
33107W        W96864  13.213  40.431   0.932
33108W        W96865  32.485  10.360  12.878
33109W        W96866  44.439  23.208  10.118
33110W        W96867  28.566  39.029  11.387
33111W        W96868  21.519   6.829  14.936
33112W        W96869  41.524  24.056  12.576
33113W        W96870   4.449  32.041  12.981
33114W        W96871  32.920   5.691   0.775
33115W        W96872  36.970  44.865  12.878
33116W        W96873  26.458  42.980  11.945
33117W        W96874  32.583  39.344  13.818
33118W        W96875   7.876  10.255  10.133
33119W        W96876  36.977  35.076  10.960
33120W        W96877  37.504  11.154  13.947
33121W        W96878  13.229  44.278  14.891
33122W        W96879   2.348  28.958  14.439
33123W        W96880  37.075  37.995   4.220
33124W        W96881  23.083   8.254  12.892
33125W        W96882  39.495  33.555   2.712
33126W        W96883  32.107  24.139   2.699
33127W        W96884  15.239  10.647   2.823
33128W        W96885   7.381  35.063  13.542
33129W        W96886  28.594  33.922  14.771
33130W        W96887  30.054  38.463   3.807
33131W        W96888  35.535   4.805   1.330
33132W        W96889  16.772   1.278   0.864
33133W        W96890  11.227  26.481   0.321
33134W        W96891  28.102  33.987  12.356
33135W        W96892  34.606  20.617   3.755
33136W        W96893  13.158  20.695  14.497
33137W        W96894  16.611  29.455  11.497
33138W        W96895  29.558   0.874  11.988
33139W        W96896  22.716  13.315  12.411
33140W        W96897  34.974  42.338  11.080
33141W        W96898  29.964  30.135   4.118
33142W        W96899  17.620  38.565   0.365
33143W        W96900  27.672  43.475   4.744
33144W        W96901   8.836   2.323  12.019
33145W        W96902  13.646   0.308   2.750
33146W        W96903  22.552  11.163  10.157
33147W        W96904  12.722   0.903  10.976
33148W        W96905  36.949  24.067  13.482
33149W        W96906   2.924  24.684   0.306
33150W        W96907  26.563   1.946   3.738
33151W        W96908  17.616   7.287   3.324
33152W        W96909  44.291  22.057  14.890
33153W        W96910  17.128   3.346  14.971
33154W        W96911  39.887  13.314   2.375
33155W        W96912  17.159   4.755   1.870
33156W        W96913  11.732  41.030  12.943
33157W        W96914  29.031   4.437  14.759
33158W        W96915  11.138   3.805   2.200
33159W        W96916  18.295  39.963   1.424
33160W        W96917  35.967  18.772   0.461
33161W        W96918  31.112  18.082   4.626
33162W        W96919  26.147  42.404  14.996
33163W        W96920   9.685  39.923   2.741
33164W        W96921  14.701  43.367  13.400
33165W        W96922  15.222   3.803   3.847
33166W        W96923  36.589   6.895  14.993
33167W        W96924   0.931  20.216   1.893
33168W        W96925  37.481  39.533   2.313
33169W        W96926  23.049  23.997   1.708
33170W        W96927   1.767  34.376  12.935
33171W        W96928   1.900  22.165  13.538
33172W        W96929  37.878  42.409  10.426
33173W        W96930  44.000  13.110   4.657
33174W        W96931  29.066  34.003   1.867
33175W        W96932  19.732  13.118  11.880
33176W        W96933  17.283  24.589   0.320
33177W        W96934   7.362   4.299   2.357
33178W        W96935   3.229  20.100  14.964
33179W        W96936  44.894   0.807   3.821
33180W        W96937   3.953  30.953   0.372
33181W        W96938  17.592  13.199   4.732
33182W        W96939  13.218  43.021  10.419
33183W        W96940  27.019  27.509   0.849
33184W        W96941  27.663  12.275   3.154
33185W        W96942  11.714  16.192   1.763
33186W        W96943  24.669  19.055   2.359
33187W        W96944  43.484  21.755   1.438
33188W        W96945  24.977  18.111  10.492
33189W        W96946  39.037  42.405   4.143
33190W        W96947  16.262  13.170   3.746
33191W        W96948  37.073  40.890  11.963
33192W        W96949  37.440  41.295  12.569
33193W        W96950  38.971  12.816  11.078
33194W        W96951  25.185  41.428  12.934
33195W        W96952  14.262  39.530  13.528
33196W        W96953   3.725  44.367   0.924
33197W        W96954  20.727  19.621  12.824
33198W        W96955  44.431  27.581   3.777
33199W        W96956  44.928  30.072   0.301
33200W        W96957  16.084  26.563  12.359
33201W        W96958  34.986   1.857   0.800
33202W        W96959   4.222  37.426  10.433
33203W        W96960  18.731  20.735   1.772
33204W        W96961  20.584   1.816   0.429
33205W        W96962  14.792  42.480   0.913
33206W        W96963   2.322  39.065   4.694
33207W        W96964  16.626  39.495  11.498
33208W        W96965  37.930  19.560   5.194
33209W        W96966   9.885  40.341  11.547
33210W        W96967  25.494  36.957   2.255
33211W        W96968  43.304  29.521  12.563
33212W        W96969  22.070   7.179   0.330
33213W        W96970   4.300  38.509   2.286
33214W        W96971  39.418   9.327   2.757
33215W        W96972  34.438  32.097  12.353
33216W        W96973  19.759   4.430   1.390
33217W        W96974  13.212  15.312  12.357
33218W        W96975  41.848   0.430  12.005
33219W        W96976  40.023  20.206  14.322
33220W        W96977  22.047   4.246   3.297
33221W        W96978  25.109  12.728   2.369
33222W        W96979  27.028   0.973   2.789
33223W        W96980   1.251  15.194  10.605
33224W        W96981  14.315   8.231   3.688
33225W        W96982   3.781  37.944   4.706
33226W        W96983   4.903   9.169   4.809
33227W        W96984  40.453  39.816  13.403
33228W        W96985  32.549   8.691   2.262
33229W        W96986  41.504  31.919  12.866
33230W        W96987  40.908  27.163   1.343
33231W        W96988   4.204  37.531   4.766
33232W        W96989  19.225  15.654   1.854
33233W        W96990  26.605   5.864   0.771
33234W        W96991  14.317   6.302   4.350
33235W        W96992  33.997  42.384   4.757
33236W        W96993  30.158  28.106   3.713
33237W        W96994   7.854   3.808  12.374
33238W        W96995  24.651   4.772   4.648
33239W        W96996   7.831  29.559  11.912
33240W        W96997  16.617   3.755  12.840
33241W        W96998  31.023  29.128  13.045
33242W        W96999  35.929   5.698   4.719
33243W        W97000   7.815  27.561  14.023
33244W        W97001  24.214  27.447   4.745
33245W        W97002  41.932  20.093   4.672
33246W        W97003  42.449  29.661  14.771
33247W        W97004  34.413   3.803   3.260
33248W        W97005  16.162  36.994  11.002
33249W        W97006  27.499   5.693   3.668
33250W        W97007  34.059   9.652  12.980
33251W        W97008  41.453  30.040  12.049
33252W        W97009  27.039  21.181  10.075
33253W        W97010  21.103  13.288   3.702
33254W        W97011  15.218  24.021   1.789
33255W        W97012  34.446  17.305  12.425
33256W        W97013   6.369   3.889   4.187
33257W        W97014  21.649   0.351   0.893
33258W        W97015  20.681  37.854   5.114
33259W        W97016  10.747  32.447  10.615
33260W        W97017  28.473  14.331   3.765
33261W        W97018  33.988  17.709  12.339
33262W        W97019  43.003  31.412  12.018
33263W        W97020   4.847  32.558   2.900
33264W        W97021  23.087  16.286  12.058
33265W        W97022  31.419  25.028  11.944
33266W        W97023  40.938   0.489  12.362
33267W        W97024   0.774  14.137   1.910
33268W        W97025  24.046  12.812   3.357
33269W        W97026  40.977  22.215   4.313
33270W        W97027  28.106  22.640   2.252
33271W        W97028  17.672  43.934   2.307
33272W        W97029  31.505  40.880  12.350
33273W        W97030  35.448  28.069   1.779
33274W        W97031  41.031   7.350   4.189
33275W        W97032   6.780   7.214  12.469
33276W        W97033  43.868  35.413   1.299
33277W        W97034  21.032  11.267  13.897
33278W        W97035  41.367   2.833   2.185
33279W        W97036   6.317  27.946   3.238
33280W        W97037   6.307  14.831  10.982
33281W        W97038  25.989   5.415  13.516
33282W        W97039  23.168  35.374  13.309
33283W        W97040   2.339  21.097   0.459
33284W        W97041  31.133  22.130  11.583
33285W        W97042  17.107  40.982   2.870
33286W        W97043  44.481  27.149  13.496
33287W        W97044  43.954   2.300   4.287
33288W        W97045  20.161   8.815   2.823
33289W        W97046   7.736  15.661   3.323
33290W        W97047  11.696   5.299   1.226
33291W        W97048  35.043  24.501   1.754
33292W        W97049  28.597  25.171  10.545
33293W        W97050  33.917  39.999   4.126
33294W        W97051  11.354  12.677  11.084
33295W        W97052   1.769  25.586  11.856
33296W        W97053  39.420   5.720   5.781
33297W        W97054   0.379  38.948   3.351
33298W        W97055  37.883  24.142   4.647
33299W        W97056  31.482  20.680  13.940
33300W        W97057  40.390  16.261   4.338
33301W        W97058  42.818   6.182   3.206
33302W        W97059  42.522  18.066  14.504
33303W        W97060   0.487  22.502   3.635
33304W        W97061  17.246  37.516   5.298
33305W        W97062  22.567  40.937   0.445
33306W        W97063  14.105  36.568   0.812
33307W        W97064  24.106  38.906   3.335
33308W        W97065  30.586  11.168  12.428
33309W        W97066  29.555  27.071   3.775
33310W        W97067  19.194  33.926   4.156
33311W        W97068  16.741  18.708   1.218
33312W        W97069  35.485  29.669   3.216
33313W        W97070  31.932   6.263   1.247
33314W        W97071   8.404  40.519   5.194
33315W        W97072  42.972  16.578  13.473
33316W        W97073  22.585  25.076   1.289
33317W        W97074  14.316  41.926  11.582
33318W        W97075  11.806  27.943   0.873
33319W        W97076   4.423  40.984   5.283
33320W        W97077  35.518  11.700   1.230
33321W        W97078  24.097  36.934  13.510
33322W        W97079  38.406  39.414   4.200
33323W        W97080  21.219  30.146   1.405
33324W        W97081  44.788  23.603  14.768
33325W        W97082  31.898  24.633  12.838
33326W        W97083  19.153  38.897  14.430
33327W        W97084  42.295  13.749  10.531
33328W        W97085  29.527  12.649  12.382
33329W        W97086  35.546  34.915   3.338
33330W        W97087   6.819  15.638  13.898
33331W        W97088  37.909  44.936   2.299
33332W        W97089   2.297  43.015  10.521
33333W        W97090   7.297  23.669   3.361
33334W        W97091  36.523   2.803   1.419
33335W        W97092  39.819   5.933  11.383
33336W        W97093   5.298  14.625   1.241
33337W        W97094  30.483   2.784   5.253
33338W        W97095  39.036  29.040  10.054
33339W        W97096   9.283  40.487  10.938
33340W        W97097  15.198  26.154  14.916
33341W        W97098  13.773   8.663   0.419
33342W        W97099  27.617  36.411  13.434
33343W        W97100  13.287   1.743   3.659
33344W        W97101  44.361  11.338  11.013
33345W        W97102  27.040   7.884  12.557
33346W        W97103  35.589  25.550   3.301
33347W        W97104  22.141  23.735  13.418
33348W        W97105   1.908  27.959  12.044
33349W        W97106  19.553   4.781  14.376
33350W        W97107  30.027  35.878   3.219
33351W        W97108  13.832   8.383  10.409
33352W        W97109  33.943  10.193  14.282
33353W        W97110   1.887   1.788  11.035
33354W        W97111  29.045  29.616   4.745
33355W        W97112  30.978   8.802   2.187
33356W        W97113  41.452  38.489  12.877
33357W        W97114  38.884  29.953  10.954
33358W        W97115  15.161  20.170  11.427
33359W        W97116  15.592  30.023  12.412
33360W        W97117  17.295  34.926  14.504
33361W        W97118  29.089  35.895  12.935
33362W        W97119  33.598  23.625   4.292
33363W        W97120  23.005  11.659  14.951
33364W        W97121  31.474  40.439  12.988
33365W        W97122   2.321   6.851  13.342
33366W        W97123  12.740   3.368  14.402
33367W        W97124  25.211  32.895   3.215
33368W        W97125   0.785   0.268   3.170
33369W        W97126  25.173  16.211  14.925
33370W        W97127  40.004  37.973  14.345
33371W        W97128  44.444   6.740  12.494
33372W        W97129  30.943  25.584   0.473
33373W        W97130   1.336  40.903   4.275
33374W        W97131   2.427  27.515   0.754
33375W        W97132  29.036  19.196  13.925
33376W        W97133  39.868  15.148  11.987
33377W        W97134  12.714  20.060   0.416
33378W        W97135   9.869  41.827   4.827
33379W        W97136   1.432   3.437   0.348
33380W        W97137  37.000  43.349  10.611
33381W        W97138   3.949  25.552  10.906
33382W        W97139  18.220   4.929   1.740
33383W        W97140   9.873  11.240   1.435
33384W        W97141   1.415  17.174  13.851
33385W        W97142   2.844  36.994  12.364
33386W        W97143  18.590  34.460   4.209
33387W        W97144  31.411  43.895   3.811
33388W        W97145  27.542  19.567   2.761
33389W        W97146  22.186  14.676   3.360
33390W        W97147  34.015   9.198   4.310
33391W        W97148  42.527  42.425  12.850
33392W        W97149   1.885  35.896  13.452
33393W        W97150   6.358  17.215  14.449
33394W        W97151  20.608  27.683   2.393
33395W        W97152  26.015  36.963  14.347
33396W        W97153  20.541  21.176  10.441
33397W        W97154  21.241  28.114   3.295
33398W        W97155   0.255  35.507   0.905
33399W        W97156  29.977  34.076   2.682
33400W        W97157   5.337   1.321   3.346
33401W        W97158   1.968   4.862  12.846
33402W        W97159   0.365  44.373   4.645
33403W        W97160  10.876  22.252  14.000
33404W        W97161  33.522  29.996  14.808
33405W        W97162  20.599  33.031  12.580
33406W        W97163   0.433  28.981   0.952
33407W        W97164  13.351  26.038   4.654
33408W        W97165  38.820  42.497   0.465
33409W        W97166   8.315  26.556  11.856
33410W        W97167  26.603  40.973  13.812
33411W        W97168  10.803  43.437   3.161
33412W        W97169  35.551  37.902   0.413
33413W        W97170  11.781  17.232  12.970
33414W        W97171  32.143  25.123   0.341
33415W        W97172  10.675   4.820  11.534
33416W        W97173  18.746   6.791   2.331
33417W        W97174   8.389  20.214  13.440
33418W        W97175  23.512   8.836   2.796
33419W        W97176  34.099  11.267  13.941
33420W        W97177  26.672  34.981  13.922
33421W        W97178  42.920   0.979   3.231
33422W        W97179   1.357   4.932  11.944
33423W        W97180  43.004   4.853   2.771
33424W        W97181   0.973  31.006  10.956
33425W        W97182  16.270  19.121  13.535
33426W        W97183  35.868  32.618  10.977
33427W        W97184  13.229  35.071   0.310
33428W        W97185   5.879   0.934   4.263
33429W        W97186  11.161  19.732  13.525
33430W        W97187   3.751  30.019   3.228
33431W        W97188   6.875  31.118   3.353
33432W        W97189   2.888  24.709  11.971
33433W        W97190  39.365  43.482  13.346
33434W        W97191  26.005   1.429  12.895
33435W        W97192  12.645  19.220   1.919
33436W        W97193  43.332  27.978   9.928
33437W        W97194  35.912   0.924  11.612
33438W        W97195   6.704  31.106   0.359
33439W        W97196  17.784  41.417  11.926
33440W        W97197   1.773  25.147   3.750
33441W        W97198   3.315  34.440   3.157
33442W        W97199  40.003  25.191  14.305
33443W        W97200  20.559  43.271   2.902
33444W        W97201   9.814  32.534  12.523
33445W        W97202   2.267  36.042  14.934
33446W        W97203  39.527  23.570   3.153
33447W        W97204   5.813  11.692   0.868
33448W        W97205   1.416   0.817  13.804
33449W        W97206  28.459   3.388   2.276
33450W        W97207  35.943  10.346   5.260
33451W        W97208   8.271  39.441  13.003
33452W        W97209  38.466  42.987   2.374
33453W        W97210   0.833  30.558   3.861
33454W        W97211  35.588  43.845   4.714
33455W        W97212   9.368  26.459  10.572
33456W        W97213  33.380  39.948  10.552
33457W        W97214  20.171  10.811  13.457
33458W        W97215  24.554  28.976   1.219
33459W        W97216  35.422   4.816  14.472
33460W        W97217  33.558  16.595  12.079
33461W        W97218  43.943   8.387  14.279
33462W        W97219  28.174  17.654   0.845
33463W        W97220  39.478  27.678  12.964
33464W        W97221   3.304  13.803  13.346
33465W        W97222   9.347   7.879  14.865
33466W        W97223  29.613  44.897   2.776
33467W        W97224  10.781  25.013  11.458
33468W        W97225  10.201  29.424  11.594
33469W        W97226  21.545   5.884   0.866
33470W        W97227   8.351   1.837   2.388
33471W        W97228  44.756  29.936   1.786
33472W        W97229  28.101  17.092  10.618
33473W        W97230   2.793  44.498  11.450
33474W        W97231  14.695   4.341   3.180
33475W        W97232  41.954  29.002  10.924
33476W        W97233  15.132  39.841   1.374
33477W        W97234  42.381  35.458  12.368
33478W        W97235  33.961  27.457   3.850
33479W        W97236  10.236   4.938  11.403
33480W        W97237   2.836  22.063  11.599
33481W        W97238  19.135  16.164  11.098
33482W        W97239   5.926  34.994   0.820
33483W        W97240  18.130   4.701  14.758
33484W        W97241   2.251   6.222   0.743
33485W        W97242  23.088  37.487  13.885
33486W        W97243  29.172  31.605   1.826
33487W        W97244  34.473  41.413   4.164
33488W        W97245  17.181  23.064   3.712
33489W        W97246  22.542  17.068  13.386
33490W        W97247  17.281  24.111   1.849
33491W        W97248  12.210  23.523   1.785
33492W        W97249   9.745  16.166  11.420
33493W        W97250   9.256   1.839  12.477
33494W        W97251  43.957  24.695   4.767
33495W        W97252  21.199  30.550   0.897
33496W        W97253  14.661  24.694  10.924
33497W        W97254  36.074   9.883   2.669
33498W        W97255   5.384  10.293   4.622
33499W        W97256  16.583   5.322   2.340
33500W        W97257  39.928   4.340   3.683
33501W        W97258   7.282  36.556   1.761
33502W        W97259   1.806   6.880  10.912
33503W        W97260  22.168   0.905  11.882
33504W        W97261  39.549  22.194   4.759
33505W        W97262  38.897  42.879   0.330
33506W        W97263  11.250  26.123  12.371
33507W        W97264  18.186   9.362   0.296
33508W        W97265  25.150  31.045   0.281
33509W        W97266  39.818   6.809  14.996
33510W        W97267  30.950   7.263  13.418
33511W        W97268  35.871  42.987   0.410
33512W        W97269  35.946  12.765  13.969
33513W        W97270  10.814  18.708  10.600
33514W        W97271  19.074  12.857   3.637
33515W        W97272  41.913   0.332   2.292
33516W        W97273  27.626  29.494   0.854
33517W        W97274  40.387   8.194   2.709
33518W        W97275  41.828  19.097   0.454
33519W        W97276  17.671   9.381  13.339
33520W        W97277  39.038   3.352   2.282
33521W        W97278  33.978   4.376  14.446
33522W        W97279  19.181  31.508  12.375
33523W        W97280  23.081  40.042  13.964
33524W        W97281  20.688  42.986   2.316
33525W        W97282  23.029  43.330   1.348
33526W        W97283  12.824  24.127   0.741
33527W        W97284  11.801  22.671  11.994
33528W        W97285  33.921  36.942   4.709
33529W        W97286  38.445  22.057   0.892
33530W        W97287  24.658   0.882  12.948
33531W        W97288   5.876  12.848   2.290
33532W        W97289  42.815  42.365   3.371
33533W        W97290  18.103  43.365  14.805
33534W        W97291  28.552  19.108   0.477
33535W        W97292  12.764  34.385  11.870
33536W        W97293  13.808  11.783   1.325
33537W        W97294  40.972   6.189  10.954
33538W        W97295  15.744  38.556   0.402
33539W        W97296  21.151  31.455   5.577
33540W        W97297  28.659  44.402  10.450
33541W        W97298  31.591  21.038  11.067
33542W        W97299  25.585  10.787   1.818
33543W        W97300  34.106   4.771   3.244
33544W        W97301   4.733  19.662   3.273
33545W        W97302  29.655  35.495  13.873
33546W        W97303  17.139  32.063   0.273
33547W        W97304  40.870  17.666  14.794
33548W        W97305  26.154  20.084   3.696
33549W        W97306  24.543   9.231  12.467
33550W        W97307  21.542   6.323  11.974
33551W        W97308  18.088  34.058   1.294
33552W        W97309   6.265  27.611  14.382
33553W        W97310  36.879  18.255  11.048
33554W        W97311   7.344  25.613   0.337
33555W        W97312  41.851  34.531  14.768
33556W        W97313  35.582  23.140  12.548
33557W        W97314  29.927  36.378  10.426
33558W        W97315  39.953  36.986   0.786
33559W        W97316   2.405  44.310  14.001
33560W        W97317  29.991  35.030  14.489
33561W        W97318  44.288   1.919   0.941
33562W        W97319  15.267  34.053   0.452
33563W        W97320  44.390   5.271  14.498
33564W        W97321  41.477  14.755  12.913
33565W        W97322   0.284   3.242   2.189
33566W        W97323  29.079   9.765   0.734
33567W        W97324  24.037  13.639   2.779
33568W        W97325   3.897   5.201   4.619
33569W        W97326   1.955  41.879   1.714
33570W        W97327  26.605   1.747   0.870
33571W        W97328  30.976  31.423  13.436
33572W        W97329  35.484   2.763  11.117
33573W        W97330  37.551  23.178   3.714
33574W        W97331   1.455   6.690   0.844
33575W        W97332  17.190   9.242  11.501
33576W        W97333  21.151  38.442   4.154
33577W        W97334  10.651  44.468   3.145
33578W        W97335  33.477   6.402   3.785
33579W        W97336  24.699  36.591  14.011
33580W        W97337  31.069  28.082   5.084
33581W        W97338  41.008  35.504  14.961
33582W        W97339  26.696  40.380   5.206
33583W        W97340   4.813  16.635   4.672
33584W        W97341  28.137   6.766   4.189
33585W        W97342  37.414  25.110   0.281
33586W        W97343   4.702  21.073  12.574
33587W        W97344  22.680  30.625   1.259
33588W        W97345  25.668   9.354   2.393
33589W        W97346   5.343  22.041   0.899
33590W        W97347  23.638   6.918  10.470
33591W        W97348  20.722  18.643   0.459
33592W        W97349  21.714  27.496   4.143
33593W        W97350   8.804  34.035   3.194
33594W        W97351  19.558   0.425  11.530
33595W        W97352  43.382  28.516  14.512
33596W        W97353   8.807  27.155  12.461
33597W        W97354  23.529   1.783  13.875
33598W        W97355  34.613  39.484  11.959
33599W        W97356  24.187  27.501   2.366
33600W        W97357  12.239  15.787  14.829
33601W        W97358  36.586   4.227  14.343
33602W        W97359  21.718  13.730  13.418
33603W        W97360  43.961   7.315  12.827
33604W        W97361  23.222  43.375   3.717
33605W        W97362   4.815  31.898   4.752
33606W        W97363  42.937  18.721   4.633
33607W        W97364  10.342  14.680   0.429
33608W        W97365  17.281  30.526  10.155
33609W        W97366  38.928  42.486  12.945
33610W        W97367  15.712  42.298  12.045
33611W        W97368  33.899  41.967  14.848
33612W        W97369  12.262   2.921  11.916
33613W        W97370   7.222  43.313   3.362
33614W        W97371  31.521  34.517   2.214
33615W        W97372  15.271  34.039   2.382
33616W        W97373  22.231  13.823  14.002
33617W        W97374   9.886  28.638  12.067
33618W        W97375  18.266   5.352   0.306
33619W        W97376  36.949  13.284  14.809
33620W        W97377  28.628  42.313   4.205
33621W        W97378  23.730  43.356   0.763
33622W        W97379  18.221  28.507   1.697
33623W        W97380  39.920  42.831   3.826
33624W        W97381  38.035   6.685  10.907
33625W        W97382  39.839  17.085  14.362
33626W        W97383  12.800  12.335  11.457
33627W        W97384  23.710  24.038  14.010
33628W        W97385  12.793  25.126  11.006
33629W        W97386  43.841  24.042  14.401
33630W        W97387   1.266  18.061   0.728
33631W        W97388  35.070  12.793   0.450
33632W        W97389  35.955  38.487  14.414
33633W        W97390  14.311  18.719  12.018
33634W        W97391   5.261  13.294  13.507
33635W        W97392  11.308   7.383  13.901
33636W        W97393   5.380  43.812  13.027
33637W        W97394  24.577  44.810   1.772
33638W        W97395   1.839  29.992  13.966
33639W        W97396   2.459  39.932   4.776
33640W        W97397  33.608  26.461   2.248
33641W        W97398  31.949  12.259  14.984
33642W        W97399  20.230  31.519  13.025
33643W        W97400  39.875  33.904   4.194
33644W        W97401   0.952  35.025  13.999
33645W        W97402   7.696  29.521  11.603
33646W        W97403   8.391  27.038  10.584
33647W        W97404  30.601  17.694   0.243
33648W        W97405  11.853   9.354   0.862
33649W        W97406  40.002   5.211  14.906
33650W        W97407   5.226  22.696   4.728
33651W        W97408   8.327  24.008   0.364
33652W        W97409  31.488  39.445  11.973
33653W        W97410  17.156  26.597  10.610
33654W        W97411  34.120  25.077  12.501
33655W        W97412  29.554  15.308  12.053
33656W        W97413  26.521   4.335   1.870
33657W        W97414  23.489  11.843   4.304
33658W        W97415  13.712   3.289   2.380
33659W        W97416  44.917  42.490  14.313
33660W        W97417  40.333  38.447  11.927
33661W        W97418   1.247  42.329  14.319
33662W        W97419  23.098  31.956  13.038
33663W        W97420   4.224  14.219  11.930
33664W        W97421   3.408  43.421   1.720
33665W        W97422   4.417  18.278   4.275
33666W        W97423  34.451  23.623  13.494
33667W        W97424   3.785  34.013  10.511
33668W        W97425  39.547  38.471   1.266
33669W        W97426  42.372  14.767   2.836
33670W        W97427  18.243  31.487   1.697
33671W        W97428  31.131   1.814  14.400
33672W        W97429  12.665  43.397  11.550
33673W        W97430   1.902  44.784   1.928
33674W        W97431  23.195  43.795   4.198
33675W        W97432   2.803  15.231  10.441
33676W        W97433   5.758   1.402  11.912
33677W        W97434  33.601  26.100  12.984
33678W        W97435  23.666  44.331   0.892
33679W        W97436   3.850   0.885   2.790
33680W        W97437  18.647  15.115  11.059
33681W        W97438  21.083  16.763  12.357
33682W        W97439  37.551  25.677   2.380
33683W        W97440  33.110  26.065   9.457
33684W        W97441   3.940  25.690  12.070
33685W        W97442  34.913  31.068  10.498
33686W        W97443  16.117  26.561   2.878
33687W        W97444   2.445  14.178  12.979
33688W        W97445  24.622  31.580   4.245
33689W        W97446  11.855   8.221   0.758
33690W        W97447   1.432   8.295  13.851
33691W        W97448  27.970  22.631   4.220
33692W        W97449  27.640  11.370  11.925
33693W        W97450   3.758  21.133  11.473
33694W        W97451  30.461  18.785   0.877
33695W        W97452  15.627  23.728  11.117
33696W        W97453  21.247  16.670  11.407
33697W        W97454   0.847  41.795   3.857
33698W        W97455  33.937  36.919   1.919
33699W        W97456  12.677  41.011  13.063
33700W        W97457  21.094  34.973  10.421
33701W        W97458   4.412  10.663  14.935
33702W        W97459  28.568  29.040   2.752
33703W        W97460  16.693  31.065   3.285
33704W        W97461  34.019  43.270  13.430
33705W        W97462  34.571  36.364  14.892
33706W        W97463  21.532  36.093   3.274
33707W        W97464  25.034  30.991   3.219
33708W        W97465   4.922   7.719   2.867
33709W        W97466  32.998  38.006  11.547
33710W        W97467   7.225  25.578  13.983
33711W        W97468  31.423  32.950   4.234
33712W        W97469  33.535  15.175  13.035
33713W        W97470  17.074   1.351   2.378
33714W        W97471  39.513  39.949   2.816
33715W        W97472  16.775  44.313  11.892
33716W        W97473  13.200  14.826  14.819
33717W        W97474   6.183  19.149  10.466
33718W        W97475  15.286   5.847   2.413
33719W        W97476  10.340   0.424  14.809
33720W        W97477   4.398   0.905  12.974
33721W        W97478  17.559  34.519  11.503
33722W        W97479  44.905   7.414  14.783
33723W        W97480  31.003  35.453  11.397
33724W        W97481  44.278  37.368  13.795
33725W        W97482   2.470  18.736  14.477
33726W        W97483  33.495  24.201   9.977
33727W        W97484  35.015   7.351  12.908
33728W        W97485   1.354  35.944   0.352
33729W        W97486  31.935  23.526  12.000
33730W        W97487   9.827  19.542   1.272
33731W        W97488   1.304  39.978   3.278
33732W        W97489  21.545  39.420  12.348
33733W        W97490   1.766   7.266   2.347
33734W        W97491  21.252   9.692   4.810
33735W        W97492  43.412   1.412  13.330
33736W        W97493  39.932  14.112  12.907
33737W        W97494  30.132   7.743   2.269
33738W        W97495  15.697  39.011  11.045
33739W        W97496  11.765  12.766   0.923
33740W        W97497  37.491  24.095  11.109
33741W        W97498  41.293  28.027  11.078
33742W        W97499  23.736  36.939   3.704
33743W        W97500   3.396  24.535   3.740
33744W        W97501  21.709  42.296  14.437
33745W        W97502  17.068  26.975   1.712
33746W        W97503  42.440  17.791  10.916
33747W        W97504  44.363  27.159  10.568
33748W        W97505  27.945  20.668  14.800
33749W        W97506  38.010  18.286   4.130
33750W        W97507  22.618   9.334  13.965
33751W        W97508  33.520  38.501  10.983
33752W        W97509  28.633  32.540  12.459
33753W        W97510   1.271  38.470   2.900
33754W        W97511  22.598  13.110  10.060
33755W        W97512   1.735  32.061   3.200
33756W        W97513   9.394  18.756  12.075
33757W        W97514  41.420  26.606  11.058
33758W        W97515  37.569  37.546   4.132
33759W        W97516   0.352  19.079  13.824
33760W        W97517  27.497  25.702   2.195
33761W        W97518  44.497   8.728   0.754
33762W        W97519   6.188  30.481   2.870
33763W        W97520   9.824  30.164  12.410
33764W        W97521  18.238  26.677   1.922
33765W        W97522  35.906  42.421  12.988
33766W        W97523  16.684   4.243  14.979
33767W        W97524  43.920  28.968   2.186
33768W        W97525  42.818  39.399  12.969
33769W        W97526   7.716  10.205   3.867
33770W        W97527   5.883  18.663   0.835
33771W        W97528  29.103  16.736  10.410
33772W        W97529   5.413  42.347  12.015
33773W        W97530  30.071  37.493   1.242
33774W        W97531  40.344  39.819   2.697
33775W        W97532   6.202  21.147   2.701
33776W        W97533  23.506  32.528   3.237
33777W        W97534   0.276  42.922  11.495
33778W        W97535  30.529  44.427  13.053
33779W        W97536  39.468  25.137   1.398
33780W        W97537   9.223  33.403  10.613
33781W        W97538  33.420  35.000   1.934
33782W        W97539  14.647  25.078  14.010
33783W        W97540  28.101  16.175   0.788
33784W        W97541  26.548  18.270   3.174
33785W        W97542  26.549  22.125   2.346
33786W        W97543  19.550  24.222  11.997
33787W        W97544  15.144  16.175  11.599
33788W        W97545   0.972   2.872   2.207
33789W        W97546  34.393   1.466  12.998
33790W        W97547   7.175   8.389  12.968
33791W        W97548   4.281   3.411   1.843
33792W        W97549  28.934  31.945   4.215
33793W        W97550  32.474  25.029   0.276
33794W        W97551  34.429  42.904   0.480
33795W        W97552  34.573  34.597  13.814
33796W        W97553  35.000   1.851   2.805
33797W        W97554  18.572  16.271  13.956
33798W        W97555   5.824  32.979  12.054
33799W        W97556   0.408  41.828   2.321
33800W        W97557   5.839   1.423   3.631
33801W        W97558  16.196  30.957   4.691
33802W        W97559  41.520  19.184   1.695
33803W        W97560  35.099  32.138  14.850
33804W        W97561  26.177  26.010   2.363
33805W        W97562  13.325  32.971  14.511
33806W        W97563  37.976  12.232  12.396
33807W        W97564  14.660  17.688   0.390
33808W        W97565  38.984  15.675  14.467
33809W        W97566   1.431  17.605   0.735
33810W        W97567  32.517  42.836   2.856
33811W        W97568  39.536  23.636   2.397
33812W        W97569  26.508  23.180   1.350
33813W        W97570  23.144   7.271  11.069
33814W        W97571  16.675  30.139  11.968
33815W        W97572   1.326  31.003   0.813
33816W        W97573  28.938  25.472  14.516
33817W        W97574  22.722   6.304  14.396
33818W        W97575   8.228  19.230   3.208
33819W        W97576  35.414  35.994  14.444
33820W        W97577  40.948  43.477  13.326
33821W        W97578  26.116  43.284   4.709
33822W        W97579  43.448   2.381  12.530
33823W        W97580  34.983  29.963  11.425
33824W        W97581  28.138  29.100   3.212
33825W        W97582  10.639  10.849   4.718
33826W        W97583   3.250  15.710  11.014
33827W        W97584  24.187  15.819   3.263
33828W        W97585   8.202  43.495   3.370
33829W        W97586  27.996   4.827   0.850
33830W        W97587   9.811  41.861   2.188
33831W        W97588   9.341  43.318  11.376
33832W        W97589   9.390   6.789   3.318
33833W        W97590  14.739   3.728   1.215
33834W        W97591   3.818  43.771  13.045
33835W        W97592   3.853   3.856  14.964
33836W        W97593  24.536  42.943   2.789
33837W        W97594  30.657  11.242  12.036
33838W        W97595   2.391  28.609   3.273
33839W        W97596  33.381  28.451   0.879
33840W        W97597  14.126  25.003  12.826
33841W        W97598  24.486   4.901   3.735
33842W        W97599  41.829  10.269  13.826
33843W        W97600   8.178  43.839   5.144
33844W        W97601   0.385   2.233   1.802
33845W        W97602  15.622  13.655  13.865
33846W        W97603  35.104  28.550   0.785
33847W        W97604  34.986   7.724  11.879
33848W        W97605  31.053  21.544   2.854
33849W        W97606  38.439  34.898  12.991
33850W        W97607  24.110  34.407   0.828
33851W        W97608  37.363  18.692  12.926
33852W        W97609  15.655  30.535   2.899
33853W        W97610  12.612   6.276  10.454
33854W        W97611  40.303  34.012   1.867
33855W        W97612  40.381  14.784  13.960
33856W        W97613  27.940   9.703   4.197
33857W        W97614  17.268   7.751  11.601
33858W        W97615  39.064  24.712  10.502
33859W        W97616  31.023  25.552  14.440
33860W        W97617  14.156  36.521   2.370
33861W        W97618  19.244  30.055   2.187
33862W        W97619   8.271  16.750  13.519
33863W        W97620  37.373   1.801  13.340
33864W        W97621  27.473  38.013   4.692
33865W        W97622  39.538  30.942   4.606
33866W        W97623  17.210  15.598  12.971
33867W        W97624  38.341   3.443   2.189
33868W        W97625   4.215  28.557  13.485
33869W        W97626   6.696  29.602  11.595
33870W        W97627  34.081  20.145   2.224
33871W        W97628  23.186  39.413   1.400
33872W        W97629   4.432  24.063  11.983
33873W        W97630  22.205  16.273   2.407
33874W        W97631  20.578  30.073  14.358
33875W        W97632  22.063  12.661  13.513
33876W        W97633  10.636  24.196   1.807
33877W        W97634   8.871  20.244  11.487
33878W        W97635  38.502   4.279  14.813
33879W        W97636  28.098  25.983  13.967
33880W        W97637  23.136   9.295  13.896
33881W        W97638  40.983  27.663  10.504
33882W        W97639  33.456   2.240   4.619
33883W        W97640  32.550  43.804   0.846
33884W        W97641  32.978  21.515  13.887
33885W        W97642  34.553  39.961  10.936
33886W        W97643  38.009  12.778   1.437
33887W        W97644   6.200  19.617  12.897
33888W        W97645  21.170  20.162  14.895
33889W        W97646  40.349  37.531  10.939
33890W        W97647  18.286  44.466  10.910
33891W        W97648   8.812  10.747   1.879
33892W        W97649   6.365  40.920   9.928
33893W        W97650  38.038  13.749   1.321
33894W        W97651  21.579  42.970  14.431
33895W        W97652  27.526  10.371  12.068
33896W        W97653  32.592  34.567   1.811
33897W        W97654  24.114  12.179  11.458
33898W        W97655  23.051  21.627  13.818
33899W        W97656  30.993  12.798   4.140
33900W        W97657   3.393  42.503   1.420
33901W        W97658  13.219  18.142   4.637
33902W        W97659  28.176  43.418  12.379
33903W        W97660  41.311  27.617   3.264
33904W        W97661  13.620   6.743   0.915
33905W        W97662  28.551  11.817  13.041
33906W        W97663  43.464  22.734   1.420
33907W        W97664   4.893  15.086   1.883
33908W        W97665  32.064  37.411  13.321
33909W        W97666  15.212  22.585  13.308
33910W        W97667   6.187  11.306   4.629
33911W        W97668  28.459  28.609  14.330
33912W        W97669   5.885  12.719  14.885
33913W        W97670   6.886  19.181  12.092
33914W        W97671  17.765  22.068  14.846
33915W        W97672  43.928   7.343  10.994
33916W        W97673  16.116  23.698   2.849
33917W        W97674  15.170  18.569  12.443
33918W        W97675  35.453   3.886   4.150
33919W        W97676  13.791  22.600  13.915
33920W        W97677  38.886  12.735  14.975
33921W        W97678   2.280  42.450  14.914
33922W        W97679  24.988   0.872  12.423
33923W        W97680  34.913   4.837  14.443
33924W        W97681  32.121   0.491  12.447
33925W        W97682  18.145  34.963   2.738
33926W        W97683  29.091  11.259   0.441
33927W        W97684  37.450  17.714  12.454
33928W        W97685  10.827  13.350   3.739
33929W        W97686  27.578  13.625  13.527
33930W        W97687  23.988   2.356   2.793
33931W        W97688  19.628   7.877   4.272
33932W        W97689  38.483  17.129   3.703
33933W        W97690  19.660  37.375   1.250
33934W        W97691   7.407  44.908   3.311
33935W        W97692   6.881   0.969  12.374
33936W        W97693  42.008  21.040  12.518
33937W        W97694   1.242  44.441   4.776
33938W        W97695   6.214  18.121  10.635
33939W        W97696  11.835  37.848   1.836
33940W        W97697   5.205  13.113   1.365
33941W        W97698  20.580  33.096   9.598
33942W        W97699  31.499  34.441  11.577
33943W        W97700  13.214  10.723   0.765
33944W        W97701  10.875  36.543  11.964
33945W        W97702   4.293  41.947  11.916
33946W        W97703  29.429  40.496   3.763
33947W        W97704  23.545   2.305   3.188
33948W        W97705  14.617  30.528  13.455
33949W        W97706   7.224   0.871   4.732
33950W        W97707  36.417  23.054  14.356
33951W        W97708  34.947  37.381   3.630
33952W        W97709  13.641   5.245  12.539
33953W        W97710  21.118  44.912  13.347
33954W        W97711  18.694  13.278  14.422
33955W        W97712  29.935  31.984   0.442
33956W        W97713  13.621  35.956   1.856
33957W        W97714   7.340  25.590  12.846
33958W        W97715   8.805  18.557  13.308
33959W        W97716  30.463  21.566  14.438
33960W        W97717   7.857   7.245   1.295
33961W        W97718   3.842  26.676  14.464
33962W        W97719  18.637  21.255   0.370
33963W        W97720  11.358   9.738   1.779
33964W        W97721  42.504  36.931  11.594
33965W        W97722  32.063  24.634   1.252
33966W        W97723   0.250   2.810   3.737
33967W        W97724  28.944   2.441  13.546
33968W        W97725  41.823  36.884   4.706
33969W        W97726   1.280  17.725   4.751
33970W        W97727  12.749   0.407  10.532
33971W        W97728  31.530   6.223   4.767
33972W        W97729  15.102  39.020   1.857
33973W        W97730   3.846  43.497  14.330
33974W        W97731  39.035  44.258   2.780
33975W        W97732  20.192   1.394  12.523
33976W        W97733  27.986  13.795  13.395
33977W        W97734   7.890  34.399   0.374
33978W        W97735  15.243  25.067   0.466
33979W        W97736   4.261  43.380   0.863
33980W        W97737  25.107  12.257   0.836
33981W        W97738  15.774  30.994   4.341
33982W        W97739   6.757  19.691   3.720
33983W        W97740  28.002   9.788   3.300
33984W        W97741  14.278  36.939   3.287
33985W        W97742   5.901  35.471  14.482
33986W        W97743  17.561  43.908   4.676
33987W        W97744   0.944  23.047  13.862
33988W        W97745   8.837  18.123   4.779
33989W        W97746  23.550   9.388  12.001
33990W        W97747  44.770   3.381   4.298
33991W        W97748   6.684  39.489  12.492
33992W        W97749  27.559  39.900   1.433
33993W        W97750  10.313  22.714   4.275
33994W        W97751  25.646   1.321   1.338
33995W        W97752  37.056  38.830   0.455
33996W        W97753  21.256   2.348   2.725
33997W        W97754  32.506  21.156  12.577
33998W        W97755  21.031  43.937  13.392
33999W        W97756  10.345  38.452  12.002
34000W        W97757  33.614  43.419   0.813
34001W        W97758   8.232  24.695   1.902
34002W        W97759   1.936   7.841  12.358
34003W        W97760  35.547  40.478  13.480
34004W        W97761  31.614  30.985   4.321
34005W        W97762  12.332  24.688   0.458
34006W        W97763  32.003  24.485  10.548
34007W        W97764  20.558   7.775  10.483
34008W        W97765   4.894  28.617  12.555
34009W        W97766   8.733  38.873   1.707
34010W        W97767   3.950   5.435   1.364
34011W        W97768  32.981  40.916   4.668
34012W        W97769  24.536  31.593  11.965
34013W        W97770  17.625  15.274   1.895
34014W        W97771   5.245  44.501  13.813
34015W        W97772  44.001  32.117   1.306
34016W        W97773  31.427  15.131   4.150
34017W        W97774  15.204  39.525   1.386
34018W        W97775   5.223  36.372  10.582
34019W        W97776   1.361   8.861  14.393
34020W        W97777  19.133  17.190  11.404
34021W        W97778  41.389  44.953  11.110
34022W        W97779   0.976  36.039   3.332
34023W        W97780  30.451   2.438  10.934
34024W        W97781  39.418  13.734   4.221
34025W        W97782  44.997  33.401  14.997
34026W        W97783  19.111  36.868  10.561
34027W        W97784  26.003  20.171   1.931
34028W        W97785  17.306   4.324  14.851
34029W        W97786   1.369  38.413  11.989
34030W        W97787  35.403   1.372   4.303
34031W        W97788  12.705   9.290  14.023
34032W        W97789  14.227   2.469  12.553
34033W        W97790  24.570  24.210   0.822
34034W        W97791   7.831  27.108   2.880
34035W        W97792  36.012  40.524   3.794
34036W        W97793  29.100  23.619   4.199
34037W        W97794  24.164  19.774   1.821
34038W        W97795  19.550   5.781   3.266
34039W        W97796  19.628  20.221   1.716
34040W        W97797  27.121  17.750  11.971
34041W        W97798   4.256  33.465   4.648
34042W        W97799  18.282   8.896  13.931
34043W        W97800   5.836  31.554   2.392
34044W        W97801  43.503  23.086  12.412
34045W        W97802  28.038   3.250   3.713
34046W        W97803  11.649  15.624  10.599
34047W        W97804  23.654  44.874  14.023
34048W        W97805   9.358   7.324   3.657
34049W        W97806  33.480   2.807  12.563
34050W        W97807  44.264  41.791  11.507
34051W        W97808  24.991  21.054  12.534
34052W        W97809  32.066  22.654  13.438
34053W        W97810   0.794  15.702  11.455
34054W        W97811  11.851  43.790  10.113
34055W        W97812   0.837   2.448  11.512
34056W        W97813  15.618  34.968   5.240
34057W        W97814  10.735  17.688   9.590
34058W        W97815  14.657  20.708  11.544
34059W        W97816  25.004  20.151  14.761
34060W        W97817  37.526  37.010  11.561
34061W        W97818  12.138  22.077   1.784
34062W        W97819  37.368   2.247   2.295
34063W        W97820  43.803   1.282  11.565
34064W        W97821  36.004  12.804  11.096
34065W        W97822  16.250  38.958  11.070
34066W        W97823  19.267  14.723  13.484
34067W        W97824   0.778  18.158   2.381
34068W        W97825  42.493  26.655   2.690
34069W        W97826   3.261   9.228  14.968
34070W        W97827  44.923  31.532   2.693
34071W        W97828  42.855  42.398   2.265
34072W        W97829   3.814  29.564  14.323
34073W        W97830   7.691   6.781   4.312
34074W        W97831  33.994  40.460   4.322
34075W        W97832  36.445  36.390  11.880
34076W        W97833   8.678  17.583   2.267
34077W        W97834   7.385  34.060  11.956
34078W        W97835  28.067  38.888  11.017
34079W        W97836  29.042  11.746  11.894
34080W        W97837   3.342  25.141   4.745
34081W        W97838  35.408  35.012  14.411
34082W        W97839   1.401  32.914   1.707
34083W        W97840  32.963  36.975  14.883
34084W        W97841  18.179  13.661  13.500
34085W        W97842   9.284   9.817   2.717
34086W        W97843  30.928   6.333   1.807
34087W        W97844   2.386   7.174  11.006
34088W        W97845  31.644   1.443   0.760
34089W        W97846  40.518  11.239  13.373
34090W        W97847  11.153  10.203   4.116
34091W        W97848  38.041  33.876   2.278
34092W        W97849  42.884  34.885  13.545
34093W        W97850  32.909  30.032  11.972
34094W        W97851  43.855  23.631  11.517
34095W        W97852  27.534   1.740   1.900
34096W        W97853   5.851  28.949   0.314
34097W        W97854  23.730   0.850   3.195
34098W        W97855   1.328  13.655  10.957
34099W        W97856   3.724  11.695   0.261
34100W        W97857   8.798  24.546   4.709
34101W        W97858  30.572  36.927   0.445
34102W        W97859   1.824  40.013   1.890
34103W        W97860  42.908  14.727  10.905
34104W        W97861  44.986   8.196   4.241
34105W        W97862  40.992   2.885   0.467
34106W        W97863  28.595  24.177  11.058
34107W        W97864   8.275   3.274   0.907
34108W        W97865   7.716  39.428  13.317
34109W        W97866   7.694  39.392   3.738
34110W        W97867  44.951  37.866  13.912
34111W        W97868  29.132  30.108   3.373
34112W        W97869  14.619  22.042  10.518
34113W        W97870   6.212  30.527  12.371
34114W        W97871  18.682   2.785   4.313
34115W        W97872  33.920  37.883   2.839
34116W        W97873  33.020  26.652   4.622
34117W        W97874   6.330  28.630   3.667
34118W        W97875  19.563  15.620  11.376
34119W        W97876  11.632  18.065   1.751
34120W        W97877  29.052  37.937  12.493
34121W        W97878  44.270  17.092  12.041
34122W        W97879   6.825   5.770   0.249
34123W        W97880  32.901  39.925   0.303
34124W        W97881  10.223  40.405   1.805
34125W        W97882  39.899  32.086   3.315
34126W        W97883  28.184   0.941   1.878
34127W        W97884  43.887  33.443  12.973
34128W        W97885  18.252  15.651   0.940
34129W        W97886  38.492  14.275  11.594
34130W        W97887   5.370  36.064  13.001
34131W        W97888  19.779  17.640   1.929
34132W        W97889  26.175  18.207  14.017
34133W        W97890  13.153   0.869   4.607
34134W        W97891   6.234   0.744  10.028
34135W        W97892  26.140  14.134   3.806
34136W        W97893  40.350  24.597  13.397
34137W        W97894   5.369  28.486  11.113
34138W        W97895  15.090  44.484  14.345
34139W        W97896  38.495  44.978  12.847
34140W        W97897  16.659   0.808   2.834
34141W        W97898  17.178   2.238  12.967
34142W        W97899  28.137  34.400  13.323
34143W        W97900  36.353  40.307  14.327
34144W        W97901  39.333  42.472  12.863
34145W        W97902  41.313  19.117  13.312
34146W        W97903  28.182  15.604  13.320
34147W        W97904  19.254  12.627  12.514
34148W        W97905   1.792  25.042  10.566
34149W        W97906  22.083  22.147  13.378
34150W        W97907   7.250   8.768  11.933
34151W        W97908  22.570  32.634  11.976
34152W        W97909  18.177  10.790   1.749
34153W        W97910  42.428   0.940   1.246
34154W        W97911  14.203  39.918   3.197
34155W        W97912  29.442  10.256   3.785
34156W        W97913   2.387  11.284  11.487
34157W        W97914  27.946   6.270  12.016
34158W        W97915  44.475  27.564  10.608
34159W        W97916  42.018  29.593  11.558
34160W        W97917  29.578  24.639   1.810
34161W        W97918  14.157  44.992   2.864
34162W        W97919   3.739  17.289  11.477
34163W        W97920  25.041  33.564   1.844
34164W        W97921  23.043  22.625   1.368
34165W        W97922  42.385  40.513  14.311
34166W        W97923   0.745  15.651  12.869
34167W        W97924  21.562   9.802  11.549
34168W        W97925  29.449   7.401   4.659
34169W        W97926  12.125  42.347   4.152
34170W        W97927  19.595  32.404   4.627
34171W        W97928  32.555  30.586  13.909
34172W        W97929  29.532  14.629   2.770
34173W        W97930  21.027  10.823   0.738
34174W        W97931   6.268   8.274  13.357
34175W        W97932   3.741  33.944   1.807
34176W        W97933   7.270   1.336  13.492
34177W        W97934   8.828   3.308  14.930
34178W        W97935  39.479  25.475   0.844
34179W        W97936  10.147  38.013  14.813
34180W        W97937  36.433  24.590  10.526
34181W        W97938  25.025   3.322   2.393
34182W        W97939  33.383  28.546  14.891
34183W        W97940   9.350   6.730  10.513
34184W        W97941  35.411   8.233   3.219
34185W        W97942  12.238   7.211  13.333
34186W        W97943   3.293  41.514  12.913
34187W        W97944   1.376   3.844   2.889
34188W        W97945  26.474  14.809   5.767
34189W        W97946   3.745  30.559   3.202
34190W        W97947   4.296  15.278   2.350
34191W        W97948  17.566  31.444   3.342
34192W        W97949   2.745  39.025  11.109
34193W        W97950  35.549  35.424   4.674
34194W        W97951   0.353  41.310   2.762
34195W        W97952  11.829   2.749  14.324
34196W        W97953  29.500  12.174   0.961
34197W        W97954   2.939  42.787   1.354
34198W        W97955  20.184   9.659  13.389
34199W        W97956  31.455  38.366   3.663
34200W        W97957  33.950   6.208  13.362
34201W        W97958  25.034  23.074  11.542
34202W        W97959  11.680  41.404  14.900
34203W        W97960  26.069  23.167   0.956
34204W        W97961  35.057  29.628   4.248
34205W        W97962   2.396  18.744   1.909
34206W        W97963  29.611  17.187  13.846
34207W        W97964  26.067  30.084  13.964
34208W        W97965  29.169  24.721   0.375
34209W        W97966   3.258   5.251  13.383
34210W        W97967  29.649   4.211   1.755
34211W        W97968   2.329   4.786  12.944
34212W        W97969  33.937  42.986   4.259
34213W        W97970  32.521   7.859  12.064
34214W        W97971  10.361  37.377  12.020
34215W        W97972  43.471  39.915   3.160
34216W        W97973  41.398  26.672   3.682
34217W        W97974  32.084   2.764  13.018
34218W        W97975   6.887  20.184  12.457
34219W        W97976  25.605  31.436   4.296
34220W        W97977  31.949  15.580  13.957
34221W        W97978  33.565  23.165  11.586
34222W        W97979  36.433  30.997   0.908
34223W        W97980  43.373  29.655   3.272
34224W        W97981  40.011  23.117   1.826
34225W        W97982   7.776  29.450  12.975
34226W        W97983   4.281  44.009  13.328
34227W        W97984  35.441  14.128   5.287
34228W        W97985   4.383  42.985   0.813
34229W        W97986  14.711   8.398   1.382
34230W        W97987  22.193  34.044  14.869
34231W        W97988  43.958  43.420  14.282
34232W        W97989  31.059  26.683  14.879
34233W        W97990  39.880  16.697   4.262
34234W        W97991  25.176  39.405  12.053
34235W        W97992  22.215  31.137   0.820
34236W        W97993  18.290  44.351  10.458
34237W        W97994  35.905  10.644  13.856
34238W        W97995   3.330  23.571   0.921
34239W        W97996  27.503  29.610  10.573
34240W        W97997  34.456   7.404  14.513
34241W        W97998  32.893  17.701  12.533
34242W        W97999  38.339  36.437  10.515
34243W        W98000  16.145   0.898  12.061
34244W        W98001  26.178   3.819  13.883
34245W        W98002  38.072  12.636   0.874
34246W        W98003  15.748  36.957  11.564
34247W        W98004  43.294   6.911  10.515
34248W        W98005  38.488  22.200   2.280
34249W        W98006  16.713  29.630   2.818
34250W        W98007   3.924  10.300  13.879
34251W        W98008  38.058   4.837   2.198
34252W        W98009  24.618  42.858   4.617
34253W        W98010  31.981  18.765  10.608
34254W        W98011  42.285   5.327  11.932
34255W        W98012  33.059  31.954  11.446
34256W        W98013  24.998  15.318  11.065
34257W        W98014  27.161  28.627  10.906
34258W        W98015  12.162  22.094   0.250
34259W        W98016  13.186  31.926  13.038
34260W        W98017   4.707  32.121  14.981
34261W        W98018  18.291  25.553  12.077
34262W        W98019  23.691  27.603  12.374
34263W        W98020  35.368  38.882  10.946
34264W        W98021  12.185  35.095  11.095
34265W        W98022  44.963  31.549  12.013
34266W        W98023  44.764  15.288  13.941
34267W        W98024  39.061  16.795   3.254
34268W        W98025  27.123  20.583  14.803
34269W        W98026   4.290   2.951  12.919
34270W        W98027  20.758  33.924   4.295
34271W        W98028  39.404  20.728   3.376
34272W        W98029  16.177  18.584  10.620
34273W        W98030  25.646   6.260  14.940
34274W        W98031  18.122  24.518   4.202
34275W        W98032  33.530  15.743   1.248
34276W        W98033  39.421  36.494   1.382
34277W        W98034  44.405   2.362   0.334
34278W        W98035  17.110  12.738   2.288
34279W        W98036  30.162  40.522   4.674
34280W        W98037  19.223  32.143  11.000
34281W        W98038  31.637  26.481  11.448
34282W        W98039  42.789  33.113  13.381
34283W        W98040   2.815  29.573   1.273
34284W        W98041  44.327  37.013   2.899
34285W        W98042   1.237  40.983  12.504
34286W        W98043  15.249  25.096   3.206
34287W        W98044  44.481  15.096   1.226
34288W        W98045  29.139  27.555  13.000
34289W        W98046   1.262   4.296   2.226
34290W        W98047  16.789  13.347   4.223
34291W        W98048  15.229   2.328   2.222
34292W        W98049  11.624  11.338  12.979
34293W        W98050  43.325  30.420   3.369
34294W        W98051   0.259  42.001  13.463
34295W        W98052  24.034  18.667   4.737
34296W        W98053  18.547   2.239  11.486
34297W        W98054  33.538   0.826  14.765
34298W        W98055  10.872  40.477  10.443
34299W        W98056   4.421  41.314  13.794
34300W        W98057   6.212  24.979   3.266
34301W        W98058  31.061   0.906  13.458
34302W        W98059  34.911  23.585  14.014
34303W        W98060  14.802  30.589   2.351
34304W        W98061  44.274   5.897   2.770
34305W        W98062  38.397  20.760   4.236
34306W        W98063  25.492  28.036  14.371
34307W        W98064  21.636  22.996   4.715
34308W        W98065  24.653  35.396  14.434
34309W        W98066  31.942  19.168  14.818
34310W        W98067  26.469  15.213  13.545
34311W        W98068   0.913   6.787  11.402
34312W        W98069  31.065  27.633  12.388
34313W        W98070   7.298  40.480   1.298
34314W        W98071  38.928  39.957  11.599
34315W        W98072  10.797  14.172  14.768
34316W        W98073   9.227  19.688   1.218
34317W        W98074  22.729   3.793  12.077
34318W        W98075  31.409  19.746  13.488
34319W        W98076  37.503  40.971  12.432
34320W        W98077   9.815  39.885  13.910
34321W        W98078  40.465   4.881   4.269
34322W        W98079   3.785  23.081  12.980
34323W        W98080   9.742  12.168   2.900
34324W        W98081  18.272  20.115  14.401
34325W        W98082  15.814  41.978  10.921
34326W        W98083  36.365  27.658  12.422
34327W        W98084  42.442  40.035  10.910
34328W        W98085  39.381  37.859   4.166
34329W        W98086  12.127  32.612   4.807
34330W        W98087  23.640  38.410  13.453
34331W        W98088   9.231  15.107  11.545
34332W        W98089  38.828  12.634  10.629
34333W        W98090   2.739   8.899  13.027
34334W        W98091  43.912   4.400  14.861
34335W        W98092  11.209  30.013   1.740
34336W        W98093  42.492  30.632   2.325
34337W        W98094  29.077  35.021   2.324
34338W        W98095  37.031  28.644   4.731
34339W        W98096  42.005   4.837  10.462
34340W        W98097  18.785   8.282  14.919
34341W        W98098  32.098  35.068   2.867
34342W        W98099  23.217  16.141   0.919
34343W        W98100  38.429  40.832  11.084
34344W        W98101  40.395  36.438   4.621
34345W        W98102   0.810  35.374   3.300
34346W        W98103  39.555  18.104  13.331
34347W        W98104   0.828  38.964   0.729
34348W        W98105  15.650  18.727   3.212
34349W        W98106  39.814   9.856   0.751
34350W        W98107  12.814  32.617   0.464
34351W        W98108  30.110  29.564   3.833
34352W        W98109  29.441  16.698  10.512
34353W        W98110  24.565  30.913  10.404
34354W        W98111   9.705  11.238  10.991
34355W        W98112   9.248   9.277  11.953
34356W        W98113   7.746   4.776  10.566
34357W        W98114  43.905  43.870   2.815
34358W        W98115  26.562  12.202  10.538
34359W        W98116  41.537  38.047   4.207
34360W        W98117   1.258  30.460   1.290
34361W        W98118  21.633  11.769   2.809
34362W        W98119  12.848   8.729   1.365
34363W        W98120  43.909  34.416  13.899
34364W        W98121   5.379  44.771   1.229
34365W        W98122  23.629  28.127   1.451
34366W        W98123  41.369  22.506   4.629
34367W        W98124  10.269  21.641  12.011
34368W        W98125   7.725  41.404   4.132
34369W        W98126  37.048  15.683  14.880
34370W        W98127  22.552   2.344  14.811
34371W        W98128  38.910   6.700  14.997
34372W        W98129  42.498  15.714   4.715
34373W        W98130  24.701   7.274  12.854
34374W        W98131  11.270  35.025   1.250
34375W        W98132  34.487  44.011  10.426
34376W        W98133  35.371  31.562  11.990
34377W        W98134  29.924   3.769   4.117
34378W        W98135  31.018  11.330   1.848
34379W        W98136  43.495  26.143  11.067
34380W        W98137  29.493   7.325  13.445
34381W        W98138  38.028  28.436  11.037
34382W        W98139  38.423   6.786  10.517
34383W        W98140  35.403  16.249  11.421
34384W        W98141   6.679  31.478   4.766
34385W        W98142  32.511  28.056  13.402
34386W        W98143  30.566  32.104   0.325
34387W        W98144  42.015  40.399  13.991
34388W        W98145  42.813  15.232   3.292
34389W        W98146   2.803  38.339   4.188
34390W        W98147  43.858  35.532   3.289
34391W        W98148  10.833  20.673   2.201
34392W        W98149  44.946  40.821  12.510
34393W        W98150  37.449  15.144  11.040
34394W        W98151  33.013  22.560  13.417
34395W        W98152  12.782  29.604   1.215
34396W        W98153  30.611  34.103  10.448
34397W        W98154  15.721   9.773   4.775
34398W        W98155   0.925  29.935   0.257
34399W        W98156   6.260  12.807  12.363
34400W        W98157  42.812  11.248  10.958
34401W        W98158  27.104   1.464   3.245
34402W        W98159  15.681  31.007   3.658
34403W        W98160   1.257  35.905   2.795
34404W        W98161  35.005   6.215   3.752
34405W        W98162  38.839   1.285   3.249
34406W        W98163   1.976   1.349  11.530
34407W        W98164   9.183  42.338   1.906
34408W        W98165  20.029  31.921  13.014
34409W        W98166  21.166   8.654  14.032
34410W        W98167  15.271   8.245  13.034
34411W        W98168  21.578  20.152  14.279
34412W        W98169  41.462  22.227   4.669
34413W        W98170   9.787  10.774   0.278
34414W        W98171   4.205   7.802  12.937
34415W        W98172   5.859  30.053  11.956
34416W        W98173   1.350  26.479  10.590
34417W        W98174  22.618  14.152  12.825
34418W        W98175  32.111   5.704   3.719
34419W        W98176  26.630  40.378   0.284
34420W        W98177  21.105  12.285   1.331
34421W        W98178  11.307  37.531   4.264
34422W        W98179  35.052  38.041   0.780
34423W        W98180  28.132  39.533   4.131
34424W        W98181   2.794  27.531  13.324
34425W        W98182   9.380   9.723   0.941
34426W        W98183   7.186  15.144  12.053
34427W        W98184  37.839  24.157  14.966
34428W        W98185  30.116  10.686   2.299
34429W        W98186  38.519  31.916  13.862
34430W        W98187  17.220   9.163  11.870
34431W        W98188  25.479  15.108  13.797
34432W        W98189   8.227  29.554   2.766
34433W        W98190   4.820   3.372  14.321
34434W        W98191   5.687  40.415  13.999
34435W        W98192  41.948  38.062  14.809
34436W        W98193  20.068   8.390  12.940
34437W        W98194   7.729  16.607   4.287
34438W        W98195  29.540  20.668   1.786
34439W        W98196   2.906  11.301  12.005
34440W        W98197  27.183  19.245   2.237
34441W        W98198  18.689  32.468  13.913
34442W        W98199  43.280  15.729  10.581
34443W        W98200   7.879  15.806   1.368
34444W        W98201  14.793   7.349  13.026
34445W        W98202  14.097  24.062   2.372
34446W        W98203   5.795   4.825   3.292
34447W        W98204  38.439  39.868  11.121
34448W        W98205   4.413  41.919   0.733
34449W        W98206  39.345  44.952  14.468
34450W        W98207  42.517   4.311  14.807
34451W        W98208  36.074   1.794   2.881
34452W        W98209  38.372  39.978   3.859
34453W        W98210  28.120  33.875  10.902
34454W        W98211  26.509  19.660  10.628
34455W        W98212  34.978  42.962   2.791
34456W        W98213  21.152  25.110   2.767
34457W        W98214  44.397  36.356   3.228
34458W        W98215  28.661  38.409   0.386
34459W        W98216  44.307  41.440   2.225
34460W        W98217  38.064   7.299   0.454
34461W        W98218  30.088   4.281   0.253
34462W        W98219  17.665  33.130  11.037
34463W        W98220  19.201  38.553   0.940
34464W        W98221   3.938  22.601   1.763
34465W        W98222  22.200  33.035   3.307
34466W        W98223  42.972  38.498   3.383
34467W        W98224  12.279  36.014  12.343
34468W        W98225  15.760   2.761  13.009
34469W        W98226  18.119   5.745  10.591
34470W        W98227  20.270   2.275   1.755
34471W        W98228   4.774  15.718   4.222
34472W        W98229  32.888  15.813  14.842
34473W        W98230  27.064  16.202   3.226
34474W        W98231  13.780   8.318   2.841
34475W        W98232  38.840  40.474   4.131
34476W        W98233  26.457  20.643  11.464
34477W        W98234  37.981  11.806  10.913
34478W        W98235  12.763  32.077   2.254
34479W        W98236  23.610  17.584  11.961
34480W        W98237  18.170   8.188  14.785
34481W        W98238  43.883  21.752   1.840
34482W        W98239   1.395  26.660   3.790
34483W        W98240  42.466   7.194  13.033
34484W        W98241  31.150  32.944   3.344
34485W        W98242   5.729  10.684  11.487
34486W        W98243  11.162   4.843   3.213
34487W        W98244  21.148  37.831   2.870
34488W        W98245  19.633  27.450  11.124
34489W        W98246   3.907   9.312  14.890
34490W        W98247  21.680  32.034   5.610
34491W        W98248  18.782   9.323   0.883
34492W        W98249  24.978  21.258   2.791
34493W        W98250  26.616  11.746   3.307
34494W        W98251  17.269  20.769   0.948
34495W        W98252  12.655  30.978  10.924
34496W        W98253  30.484   2.814   1.262
34497W        W98254  13.828   3.857   1.254
34498W        W98255  33.973  39.025   1.905
34499W        W98256   8.405  30.972   1.765
34500W        W98257  13.763   0.829   3.760
34501W        W98258  43.770  31.082  11.016
34502W        W98259  29.430   1.293   2.359
34503W        W98260  27.587  24.608   2.704
34504W        W98261   4.442   7.333  14.826
34505W        W98262  39.448   5.762   1.381
34506W        W98263  28.967  11.684  14.025
34507W        W98264  15.672   0.461   1.817
34508W        W98265  36.514  23.592  14.834
34509W        W98266  35.023  25.072   4.275
34510W        W98267  12.149  31.137   1.432
34511W        W98268  40.002  41.961  14.513
34512W        W98269  15.248  31.473  10.926
34513W        W98270   9.300   2.456   0.857
34514W        W98271  35.370  17.227   3.318
34515W        W98272  22.184  14.685  11.529
34516W        W98273  21.664  37.016   4.144
34517W        W98274  12.361   1.439   2.797
34518W        W98275  39.953   6.863   3.252
34519W        W98276   3.939  44.385  13.873
34520W        W98277  13.642  17.560  11.981
34521W        W98278  41.019  15.774  11.596
34522W        W98279   4.408  12.165  11.382
34523W        W98280   3.777  32.546  13.406
34524W        W98281  44.977  36.048   2.237
34525W        W98282  17.623  42.030  12.344
34526W        W98283   8.881  31.945   2.223
34527W        W98284  34.538  12.211  14.491
34528W        W98285  16.695   3.459   4.247
34529W        W98286  18.676  29.980  11.415
34530W        W98287  22.615  26.951  13.016
34531W        W98288  41.522  21.196   3.860
34532W        W98289  16.651  22.602   3.757
34533W        W98290   8.173  14.262   4.351
34534W        W98291  36.384  34.085   4.215
34535W        W98292  12.209  39.986  14.420
34536W        W98293  43.898  34.480   2.343
34537W        W98294  33.449  29.996  12.952
34538W        W98295  14.247   5.814  11.472
34539W        W98296  39.957   7.287   2.843
34540W        W98297  41.504  33.028  14.884
34541W        W98298   8.829  44.299  13.023
34542W        W98299   4.340  41.472   1.869
34543W        W98300   6.696  16.268  11.900
34544W        W98301  41.523  32.957   1.351
34545W        W98302  35.052   4.330  13.964
34546W        W98303  24.223  14.113  13.518
34547W        W98304   8.762  11.689   0.953
34548W        W98305  22.081  17.726   4.351
34549W        W98306   3.864   2.393  12.400
34550W        W98307   6.778   4.423   2.206
34551W        W98308  17.162  20.198   3.640
34552W        W98309  39.986  20.059  13.533
34553W        W98310  34.576  25.156  14.989
34554W        W98311   3.404  37.481   4.321
34555W        W98312   5.250   7.247   3.230
34556W        W98313   3.888  13.108  10.888
34557W        W98314  32.084   9.168  12.510
34558W        W98315  18.261  29.982  10.925
34559W        W98316  21.618  29.062   3.800
34560W        W98317  19.571  42.029   0.765
34561W        W98318  22.652   8.727  14.363
34562W        W98319  44.882   7.676  14.884
34563W        W98320  13.777   4.779   0.756
34564W        W98321  30.557  38.538   3.239
34565W        W98322  13.722  14.099   2.251
34566W        W98323  39.351  34.416  13.833
34567W        W98324  26.663   3.876  12.389
34568W        W98325   4.288  42.388   5.190
34569W        W98326  28.555  10.665   4.639
34570W        W98327   8.362   5.750   1.914
34571W        W98328   5.293  40.962  13.472
34572W        W98329  43.832   1.737  10.529
34573W        W98330  33.509  28.589  11.051
34574W        W98331  31.971  44.283   1.421
34575W        W98332   5.232  10.357  13.873
34576W        W98333  34.998  39.841  13.794
34577W        W98334  17.730   1.825  14.959
34578W        W98335  28.113  33.120   3.385
34579W        W98336  14.591   9.695  10.566
34580W        W98337  35.998  40.050  10.457
34581W        W98338   3.289  38.838  12.348
34582W        W98339  29.931  32.532   0.883
34583W        W98340  14.265   3.891   4.181
34584W        W98341   3.730  22.523  14.306
34585W        W98342   0.833  43.332  10.509
34586W        W98343  43.836  23.005   0.865
34587W        W98344  29.004   0.754   0.807
34588W        W98345  37.930  38.885   3.295
34589W        W98346   0.425  43.498  13.307
34590W        W98347  23.019  37.885   4.685
34591W        W98348  29.995  24.015  14.847
34592W        W98349  16.762  27.452  11.886
34593W        W98350  11.652  18.725   2.737
34594W        W98351  15.686  32.572  10.598
34595W        W98352  25.020  40.347   2.277
34596W        W98353  32.633  44.349  12.947
34597W        W98354  21.180  42.028  11.072
34598W        W98355   4.867  33.402  10.570
34599W        W98356  13.140  16.738  12.521
34600W        W98357   3.453  41.476  13.380
34601W        W98358  43.303  44.894  10.589
34602W        W98359   7.195  37.857  11.859
34603W        W98360  38.499   5.786  14.299
34604W        W98361   9.762  38.524  14.915
34605W        W98362  35.952  43.938   0.952
34606W        W98363  24.600  13.675   4.811
34607W        W98364   1.432  14.602   4.598
34608W        W98365  19.234  33.951  12.528
34609W        W98366   6.913  39.499  13.463
34610W        W98367  11.856  43.414  13.395
34611W        W98368  14.094  12.210  11.988
34612W        W98369   8.291  23.680   1.317
34613W        W98370  11.642   1.851  14.499
34614W        W98371  27.013  12.325   4.655
34615W        W98372  27.173  14.727  13.064
34616W        W98373  37.987  37.343   3.825
34617W        W98374  17.778  31.905   3.315
34618W        W98375  32.525   7.811   2.775
34619W        W98376  15.798  24.094  10.127
34620W        W98377  32.528  25.015   5.156
34621W        W98378  27.680   6.712  13.006
34622W        W98379  21.164  37.399  12.965
34623W        W98380  17.189  18.678  14.776
34624W        W98381  21.556  40.811  10.486
34625W        W98382  31.070  27.491   4.791
34626W        W98383   2.834  28.565   1.297
34627W        W98384  39.423  16.163  11.583
34628W        W98385  11.675  14.755  13.379
34629W        W98386  28.000  26.124   1.443
34630W        W98387   0.402   2.266   1.418
34631W        W98388  17.767  16.235  13.810
34632W        W98389   6.200  23.566  12.520
34633W        W98390  39.370  32.412  11.059
34634W        W98391  42.526  34.580   4.637
34635W        W98392  30.599  44.276  10.625
34636W        W98393  24.580  30.488   4.701
34637W        W98394  18.583  37.064  11.564
34638W        W98395   8.799  32.530   0.891
34639W        W98396  28.528  23.722   5.669
34640W        W98397  34.869  35.887   5.156
34641W        W98398   0.320  34.919   3.220
34642W        W98399  29.948  27.568   4.652
34643W        W98400   9.372  27.451  13.927
34644W        W98401   5.305  42.475   9.545
34645W        W98402  27.625  12.165   1.912
34646W        W98403  34.577  35.401  12.014
34647W        W98404  38.907   1.961   4.147
34648W        W98405   7.211  23.212   3.207
34649W        W98406  29.561  26.549   4.746
34650W        W98407  30.513  15.627   0.480
34651W        W98408   8.783  11.163  12.458
34652W        W98409  33.899  10.176  11.492
34653W        W98410  16.572  33.592   2.899
34654W        W98411   8.359   9.705   1.348
34655W        W98412  40.479  17.564   1.864
34656W        W98413   4.780   4.433  12.964
34657W        W98414  16.667  31.435  14.966
34658W        W98415  40.303  43.946  14.973
34659W        W98416  32.089  39.008   4.166
34660W        W98417   4.771  19.266  10.919
34661W        W98418  19.088  11.250  13.507
34662W        W98419  42.494  15.818   2.894
34663W        W98420  32.125  28.477  14.992
34664W        W98421  12.350  14.264  11.905
34665W        W98422   6.782  41.412   4.123
34666W        W98423  40.401   3.890   0.840
34667W        W98424  30.028  28.456  14.788
34668W        W98425  37.967   4.702   4.784
34669W        W98426   4.426  34.501   2.786
34670W        W98427  44.364  13.153   1.417
34671W        W98428  25.646  37.888   3.325
34672W        W98429   0.757  44.938   2.361
34673W        W98430  21.145   5.881   3.811
34674W        W98431  28.068  32.577   2.862
34675W        W98432  25.638  35.502   2.221
34676W        W98433  18.162  29.600   2.378
34677W        W98434  41.506  17.129  14.004
34678W        W98435   1.768  21.239  14.408
34679W        W98436  19.740  23.071   4.287
34680W        W98437  29.006  28.572   1.719
34681W        W98438   2.403  30.595  14.378
34682W        W98439  25.647  38.331  12.461
34683W        W98440  12.199  27.988   3.734
34684W        W98441  37.555   0.424  10.615
34685W        W98442   3.320  23.007   1.293
34686W        W98443  31.987  25.173  13.840
34687W        W98444  40.418  17.135   0.443
34688W        W98445  12.250   8.786   1.222
34689W        W98446   2.902  20.237   4.200
34690W        W98447  36.016  33.037   2.240
34691W        W98448  42.897  24.216   2.258
34692W        W98449  44.823   8.893   4.729
34693W        W98450  16.733   9.854  12.003
34694W        W98451   5.703  26.080   2.875
34695W        W98452   8.875   8.894  14.448
34696W        W98453  29.640   0.787   5.101
34697W        W98454  43.478   2.724  11.402
34698W        W98455  11.642  39.406   0.378
34699W        W98456  39.330  15.822  11.533
34700W        W98457  39.500  30.659  12.879
34701W        W98458  36.440  20.712   3.757
34702W        W98459  39.991  14.197   2.345
34703W        W98460  24.204  10.760  14.480
34704W        W98461  35.578  11.830   0.330
34705W        W98462   1.924  20.563   3.802
34706W        W98463  18.558  29.167  11.109
34707W        W98464  44.418  16.138  10.602
34708W        W98465  42.286  20.685  11.877
34709W        W98466  30.106  44.813  13.054
34710W        W98467  21.209  31.585  11.004
34711W        W98468  16.696  36.080  12.511
34712W        W98469  23.168  43.481   4.682
34713W        W98470  35.391   7.397   4.172
34714W        W98471  39.325  41.843   1.850
34715W        W98472   8.840  33.544   4.125
34716W        W98473   7.778  33.114  11.923
34717W        W98474  31.511   6.845   2.404
34718W        W98475  34.601  26.653   0.453
34719W        W98476  28.168  39.314  13.458
34720W        W98477  17.184  21.100  10.960
34721W        W98478  23.631   7.846   3.867
34722W        W98479  23.501   6.314  12.555
34723W        W98480  16.592  10.271  11.574
34724W        W98481   9.242  29.168  10.914
34725W        W98482  43.344   1.947  11.574
34726W        W98483   7.262  14.820   9.990
34727W        W98484  28.153  34.539  10.430
34728W        W98485  16.180  11.726   0.846
34729W        W98486   0.850  43.315  10.919
34730W        W98487   5.398  40.804   9.457
34731W        W98488  35.021  16.805  13.368
34732W        W98489   3.389   4.420   4.163
34733W        W98490  33.982  31.039  13.474
34734W        W98491  19.772   8.297  13.456
34735W        W98492  33.397  26.564   5.181
34736W        W98493  31.532   6.241   2.290
34737W        W98494  33.903  42.322   3.268
34738W        W98495  23.657  19.719  10.951
34739W        W98496  14.175  10.740  12.546
34740W        W98497  31.997  19.677  11.588
34741W        W98498  11.862  18.661  13.424
34742W        W98499   5.213   7.180   2.361
34743W        W98500  21.067  14.103  14.513
34744W        W98501  24.973  27.121  14.765
34745W        W98502   4.748  43.291   3.197
34746W        W98503  27.622  25.710  14.964
34747W        W98504   7.785  37.532   1.383
34748W        W98505   9.767  42.984  12.091
34749W        W98506  43.009  19.643   0.336
34750W        W98507  24.713  32.989   3.294
34751W        W98508  29.532  19.267   2.377
34752W        W98509  30.581  21.718  12.514
34753W        W98510   1.437   9.202   2.861
34754W        W98511  30.041  31.026  13.483
34755W        W98512  23.706  37.535   1.747
34756W        W98513  16.145  22.511   4.712
34757W        W98514  25.524   1.471  11.919
34758W        W98515  23.688  17.253  10.904
34759W        W98516  39.815  22.213   1.710
34760W        W98517  30.478  14.775  13.438
34761W        W98518  19.066  29.094  11.866
34762W        W98519  16.306   7.266   4.155
34763W        W98520  10.348  16.176   3.314
34764W        W98521  31.472  40.309   1.713
34765W        W98522  21.652  27.036  12.065
34766W        W98523   7.859  12.225   4.279
34767W        W98524  39.991  14.221  13.522
34768W        W98525   8.868  25.578  11.383
34769W        W98526  42.874   2.807  14.347
34770W        W98527  22.595  10.269   3.204
34771W        W98528  19.756  12.119   0.388
34772W        W98529  26.129  22.669  13.473
34773W        W98530   2.412  34.931   1.349
34774W        W98531  15.628  19.200   0.745
34775W        W98532  41.488  31.934   4.199
34776W        W98533  14.228   0.291   1.814
34777W        W98534  13.675  24.161   4.729
34778W        W98535  30.109  21.067   2.184
34779W        W98536  22.523  38.391   2.208
34780W        W98537  38.507  43.405   2.730
34781W        W98538  39.481  27.081   3.700
34782W        W98539   5.319  35.967   1.240
34783W        W98540  25.528   5.761  10.997
34784W        W98541   6.873   2.946  11.900
34785W        W98542   4.336  35.569   4.735
34786W        W98543  37.434  35.558   4.705
34787W        W98544   0.278  39.445   2.218
34788W        W98545  43.798  40.321   2.234
34789W        W98546  10.739  36.891  11.984
34790W        W98547  13.779  21.106  11.466
34791W        W98548  10.304   5.808   9.999
34792W        W98549  18.112  29.970  13.796
34793W        W98550  39.338   8.757   1.733
34794W        W98551  22.682  41.474   1.924
34795W        W98552  22.627  26.078   3.661
34796W        W98553  31.571  12.850   2.902
34797W        W98554  12.817  26.088  13.990
34798W        W98555  18.237   7.409  11.404
34799W        W98556   7.907  23.237   0.292
34800W        W98557  34.010  41.926  14.369
34801W        W98558  37.383  22.175   3.208
34802W        W98559  20.725  36.436  13.834
34803W        W98560  17.227  10.777   1.751
34804W        W98561  28.015   1.739  12.458
34805W        W98562   1.931  20.757  12.382
34806W        W98563  17.197  41.032  13.937
34807W        W98564   1.388  32.979   3.281
34808W        W98565   1.879   7.233   4.215
34809W        W98566  32.525  44.837  12.842
34810W        W98567   6.248  23.011  14.343
34811W        W98568  23.689   8.688   0.244
34812W        W98569  36.575  14.200  11.033
34813W        W98570  13.111  17.732   1.863
34814W        W98571   5.737  22.636   4.815
34815W        W98572  20.269   9.247  12.379
34816W        W98573  41.933  24.085  11.970
34817W        W98574   7.798  31.094  14.489
34818W        W98575  37.565  42.460  12.908
34819W        W98576  25.691  27.610   4.806
34820W        W98577   7.849  12.296   3.713
34821W        W98578  21.553  20.604   4.714
34822W        W98579  35.562  21.710  10.617
34823W        W98580  24.621  14.805   4.132
34824W        W98581  24.648  31.945   0.813
34825W        W98582  31.123  12.832   3.223
34826W        W98583  43.457  29.122   4.313
34827W        W98584  13.282   0.462  13.828
34828W        W98585  43.858  19.565  13.821
34829W        W98586  22.659   3.383   1.377
34830W        W98587  31.596  16.732  13.342
34831W        W98588  20.757   3.348   1.807
34832W        W98589   7.287   1.394   2.254
34833W        W98590  22.511  24.593  13.960
34834W        W98591   6.350  33.041  14.278
34835W        W98592  19.719   5.302  14.951
34836W        W98593  39.422  38.512  14.920
34837W        W98594  26.176  13.702   3.232
34838W        W98595   2.897   1.835   0.357
34839W        W98596   2.410  19.698   2.210
34840W        W98597   3.752  39.028  12.496
34841W        W98598   0.871   7.690   4.290
34842W        W98599  14.241  21.659  13.842
34843W        W98600   9.328  32.917   2.189
34844W        W98601  12.311  23.196   4.640
34845W        W98602   1.806   4.772  12.549
34846W        W98603  25.106  22.532  12.889
34847W        W98604   3.277  12.280   0.418
34848W        W98605  38.864  26.463   1.762
34849W        W98606  24.091  30.495  10.480
34850W        W98607  13.179  13.270   2.202
34851W        W98608   4.261   8.881  10.596
34852W        W98609  41.894  15.256   2.709
34853W        W98610  11.297   0.264   3.342
34854W        W98611  36.907  38.548   1.830
34855W        W98612  37.472  29.014  11.590
34856W        W98613  16.215  43.965  11.488
34857W        W98614  27.063  13.153   4.682
34858W        W98615  32.934  34.372  13.499
34859W        W98616  12.671  26.460   0.927
34860W        W98617  42.363   0.332   4.717
34861W        W98618   6.301  29.598  12.339
34862W        W98619   2.966  17.108  12.385
34863W        W98620  17.782  14.701  13.522
34864W        W98621  42.398  32.438  13.353
34865W        W98622   6.913  30.929   4.337
34866W        W98623  36.846   2.401  10.942
34867W        W98624  29.633  43.006  12.831
34868W        W98625  41.793   0.898  14.984
34869W        W98626  18.222  34.971   3.784
34870W        W98627  41.293  25.191   0.248
34871W        W98628  26.469  36.384  14.861
34872W        W98629   1.834  32.589  12.902
34873W        W98630   6.315  15.654  12.946
34874W        W98631  27.588  20.693   2.385
34875W        W98632  10.312   3.313  14.313
34876W        W98633   3.368   0.413  11.985
34877W        W98634  28.105  13.337  12.500
34878W        W98635  32.469  16.178  11.121
34879W        W98636  15.108   5.416  10.524
34880W        W98637  12.620  30.048   4.835
34881W        W98638  22.095  26.630   3.322
34882W        W98639  13.216  15.776  14.513
34883W        W98640  38.392  26.509  11.063
34884W        W98641  16.204  32.122   0.402
34885W        W98642  33.121   1.759  12.359
34886W        W98643  18.255  39.530   2.323
34887W        W98644  32.111  41.315  13.823
34888W        W98645  28.929  36.369   4.660
34889W        W98646  43.852   3.812  14.826
34890W        W98647  16.787  20.207   2.715
34891W        W98648   5.361   7.281  12.047
34892W        W98649   2.807   2.321  14.326
34893W        W98650  24.058  24.510  10.984
34894W        W98651  39.906  35.434  10.611
34895W        W98652   3.386  10.646   4.646
34896W        W98653  34.097  35.965   1.325
34897W        W98654  32.968   4.915  10.644
34898W        W98655  26.007  13.768   0.909
34899W        W98656  25.168  36.091  13.475
34900W        W98657  34.411  37.987  11.571
34901W        W98658  44.933  13.831  12.449
34902W        W98659  12.258  19.174   0.338
34903W        W98660  43.925  41.913   1.705
34904W        W98661   0.819  21.102   2.746
34905W        W98662   3.333  19.082  10.507
34906W        W98663  32.409  27.631  14.999
34907W        W98664  14.735  32.914  13.020
34908W        W98665  23.734  32.417  14.967
34909W        W98666   9.887  30.932  10.482
34910W        W98667  37.440  14.246   0.837
34911W        W98668  18.739  24.549   4.616
34912W        W98669  38.921  22.163  14.439
34913W        W98670  19.586  26.575  13.440
34914W        W98671  12.795   9.769   0.338
34915W        W98672  40.869  24.075  12.948
34916W        W98673  37.919  27.092  13.919
34917W        W98674  12.758   6.743  10.996
34918W        W98675  36.528  40.979  14.983
34919W        W98676  16.568  34.110   2.409
34920W        W98677  35.858  29.025  12.948
34921W        W98678   1.950  25.640  10.629
34922W        W98679  11.696  35.557  10.460
34923W        W98680  37.423  20.213   1.748
34924W        W98681  34.971  33.050  12.545
34925W        W98682  29.977  29.529  14.446
34926W        W98683  36.463  25.095   0.333
34927W        W98684  39.426   9.885   3.315
34928W        W98685  14.298  41.796   4.716
34929W        W98686  30.915  29.434   3.275
34930W        W98687  26.193  37.893  11.905
34931W        W98688   5.331   3.366  14.280
34932W        W98689   8.378  17.653   0.764
34933W        W98690   6.907  42.470   2.900
34934W        W98691  41.303  12.319   1.297
34935W        W98692  23.181  16.204  14.967
34936W        W98693  32.957  40.861  14.822
34937W        W98694  33.008  21.713  11.475
34938W        W98695  40.953  42.377  11.871
34939W        W98696   4.876  31.104   1.910
34940W        W98697  22.025  23.684   1.719
34941W        W98698  37.531   6.217  13.509
34942W        W98699  10.762   7.678  11.490
34943W        W98700   8.207  15.309   5.320
34944W        W98701  34.089  16.256   1.699
34945W        W98702  33.617  24.533  13.962
34946W        W98703  18.641  36.954   2.255
34947W        W98704  19.099  35.998  12.377
34948W        W98705  12.796  28.936   0.902
34949W        W98706  30.636   0.976  13.541
34950W        W98707  13.124   3.289   3.743
34951W        W98708  43.854  44.372  14.847
34952W        W98709  35.014  19.133   1.699
34953W        W98710  22.703   6.377   1.882
34954W        W98711  44.871  17.640   3.380
34955W        W98712  25.036  42.438   1.224
34956W        W98713  19.157  11.714   0.253
34957W        W98714  37.549  15.279  13.461
34958W        W98715  23.554  43.904   3.224
34959W        W98716  35.866  42.801   2.235
34960W        W98717  23.012  20.580  11.022
34961W        W98718  38.949  15.101  11.480
34962W        W98719   5.392   4.701  14.978
34963W        W98720  43.405  24.559  13.001
34964W        W98721  34.110   0.409   3.691
34965W        W98722   9.189   4.700   4.247
34966W        W98723  11.836  12.233   3.813
34967W        W98724  15.231  42.380   3.324
34968W        W98725  23.723  41.520  13.037
34969W        W98726  20.549  26.072   3.653
34970W        W98727  39.955  20.644  11.502
34971W        W98728  39.504   1.277   2.777
34972W        W98729  14.642  39.940  10.521
34973W        W98730  35.868   8.321   4.209
34974W        W98731  29.979   3.906  14.936
34975W        W98732   1.448  10.269  12.034
34976W        W98733  23.999  29.055  14.016
34977W        W98734   7.402  44.421  13.059
34978W        W98735  26.963  21.647  14.444
34979W        W98736  21.113   0.481   3.713
34980W        W98737  26.176   3.261  11.414
34981W        W98738  20.074  30.098  14.344
34982W        W98739  32.618   1.265  14.902
34983W        W98740  27.511  26.970   4.124
34984W        W98741  37.835  34.992  12.518
34985W        W98742   5.869  17.273  11.406
34986W        W98743  21.746  24.033  14.884
34987W        W98744  21.627   9.375  13.883
34988W        W98745   9.188   0.467   0.425
34989W        W98746  26.955  12.306   0.765
34990W        W98747  41.431  30.513  10.507
34991W        W98748  12.145  13.121   2.198
34992W        W98749  28.537  27.023   3.642
34993W        W98750  29.567   4.360  13.846
34994W        W98751  29.626  33.496  13.881
34995W        W98752  12.709  43.824   3.180
34996W        W98753  43.371  36.407   2.861
34997W        W98754  10.810   8.854   1.884
34998W        W98755  34.889  39.844  10.960
34999W        W98756  25.976  42.389  14.472
35000W        W98757  34.485  44.868   1.800
35001W        W98758  32.449  40.841  14.927
35002W        W98759   0.828   3.443  13.406
35003W        W98760   4.446  36.883   3.349
35004W        W98761  37.527  21.694  14.492
35005W        W98762  43.467   4.419   1.305
35006W        W98763   0.442  21.720  10.492
35007W        W98764  27.555  34.920  13.357
35008W        W98765  21.711  41.537  12.470
35009W        W98766  25.148  32.015  12.515
35010W        W98767  38.516   9.689  12.869
35011W        W98768  32.447  42.303   3.684
35012W        W98769  29.017  24.013   0.946
35013W        W98770  43.449  39.316   2.411
35014W        W98771  23.034   7.365  12.481
35015W        W98772  15.175  13.707  10.446
35016W        W98773  32.398   4.818   1.284
35017W        W98774  21.140   0.480   2.718
35018W        W98775  30.562  37.375  13.425
35019W        W98776  44.419  27.565   0.374
35020W        W98777   0.780  23.605   2.889
35021W        W98778  15.308  20.660   0.422
35022W        W98779  15.615  30.907  12.903
35023W        W98780  26.015  44.358   2.803
35024W        W98781  23.987  42.945  14.990
35025W        W98782  25.644  41.820   1.769
35026W        W98783  21.077  34.897   4.275
35027W        W98784  43.338   4.383   2.836
35028W        W98785  18.579  18.259  11.989
35029W        W98786   7.741  18.545   2.264
35030W        W98787   6.798  16.640   2.208
35031W        W98788  35.946   8.306   0.377
35032W        W98789   7.208  20.191  12.876
35033W        W98790  23.094   5.346  12.392
35034W        W98791  19.184  30.434  12.972
35035W        W98792   7.826   4.710   2.677
35036W        W98793  41.955  16.289   3.780
35037W        W98794  37.022  27.061  11.090
35038W        W98795  16.301  32.493   0.351
35039W        W98796  40.325  35.024   4.250
35040W        W98797  28.621  40.039  13.546
35041W        W98798  40.977  25.501   0.321
35042W        W98799  11.780   9.299  13.401
35043W        W98800  10.797  19.685  10.950
35044W        W98801  29.603  16.636  11.110
35045W        W98802   3.331   7.783  10.895
35046W        W98803  34.604  34.371   4.235
35047W        W98804  15.109   4.711   1.893
35048W        W98805   6.719  23.498  10.631
35049W        W98806  20.172  37.849  11.611
35050W        W98807  21.187  17.701   0.880
35051W        W98808   1.352   0.356  10.981
35052W        W98809  30.002   7.687   2.844
35053W        W98810   8.735  33.579  12.474
35054W        W98811  24.602   4.754  14.874
35055W        W98812  26.141  19.632  10.892
35056W        W98813  28.056  39.904  10.451
35057W        W98814  11.281  22.682   2.232
35058W        W98815  21.671  34.555  11.888
35059W        W98816  28.671   5.399  14.830
35060W        W98817   6.816  37.513   0.824
35061W        W98818   5.886  26.508   1.900
35062W        W98819   9.842  13.663  12.560
35063W        W98820  44.861  18.243  14.854
35064W        W98821   4.890  26.702  14.430
35065W        W98822   5.926  39.484   5.168
35066W        W98823  39.834   5.412   3.648
35067W        W98824  44.762  42.465  11.870
35068W        W98825  32.430  34.926   1.906
35069W        W98826  36.386  35.858   1.749
35070W        W98827   7.382  26.998  12.026
35071W        W98828  36.529   4.388   2.398
35072W        W98829   9.827  36.554  13.440
35073W        W98830   4.702  16.196   3.198
35074W        W98831  31.900  18.573   3.368
35075W        W98832  10.178  44.424  14.856
35076W        W98833   2.819   2.285   4.624
35077W        W98834  34.607  30.152  14.761
35078W        W98835  41.006  38.829   3.857
35079W        W98836  21.684  23.657   0.471
35080W        W98837  39.035   5.239   5.248
35081W        W98838  29.117  18.142  14.785
35082W        W98839   8.765   9.754   0.903
35083W        W98840  18.254  43.846   4.821
35084W        W98841   8.395  28.053  14.922
35085W        W98842  10.832   2.407  13.815
35086W        W98843  33.531  25.709  10.613
35087W        W98844  40.309   5.400  14.474
35088W        W98845  30.945  41.918  14.839
35089W        W98846  10.371  37.916   4.772
35090W        W98847   7.295  34.044  11.383
35091W        W98848  18.171  41.308   1.305
35092W        W98849  35.916  39.021   2.765
35093W        W98850  41.306  44.266  11.451
35094W        W98851   7.680  35.397  14.819
35095W        W98852  28.985  43.454   0.884
35096W        W98853  36.505  30.519   5.082
35097W        W98854  40.999  36.092  11.928
35098W        W98855  10.757   9.888  14.891
35099W        W98856  36.038   0.777   4.630
35100W        W98857  13.315   9.663  14.981
35101W        W98858  16.721  44.311  10.945
35102W        W98859  27.140  24.159  12.408
35103W        W98860  15.639  31.896  13.534
35104W        W98861   6.216  10.782   1.902
35105W        W98862  32.441  28.650  11.432
35106W        W98863   0.805  18.599  12.966
35107W        W98864   9.666  29.133   3.364
35108W        W98865  34.034  37.078  12.439
35109W        W98866  34.923  37.403   0.809
35110W        W98867  31.114   1.430   5.268
35111W        W98868   4.887  16.153   3.767
35112W        W98869  38.911  10.335   0.833
35113W        W98870  40.311   4.405  13.017
35114W        W98871  30.068  23.046  12.065
35115W        W98872   0.298  10.304   0.850
35116W        W98873  37.414   3.765   4.771
35117W        W98874   2.283   2.233  11.992
35118W        W98875  30.614  40.437   4.339
35119W        W98876  40.397  36.448  11.421
35120W        W98877   5.876  27.647  13.488
35121W        W98878  24.000  38.989   1.794
35122W        W98879  27.147  24.482  14.901
35123W        W98880  17.258   3.254   3.158
35124W        W98881  19.276  15.631   2.337
35125W        W98882  23.159  36.004  12.400
35126W        W98883   3.864  18.195  14.803
35127W        W98884  11.363  13.807  11.077
35128W        W98885   3.390   1.287  11.564
35129W        W98886  23.642  42.959   2.859
35130W        W98887  15.771  12.730   4.271
35131W        W98888  19.643   8.267  12.524
35132W        W98889  43.289  13.777   0.748
35133W        W98890  32.080  34.974  14.468
35134W        W98891  23.174   8.885  11.010
35135W        W98892  34.509  38.349  10.415
35136W        W98893  28.462  34.917  14.994
35137W        W98894  15.614  20.615   1.372
35138W        W98895   2.448   3.811   4.328
35139W        W98896  26.574  40.861  13.057
35140W        W98897  19.198  15.201   1.921
35141W        W98898  28.151  40.931   0.890
35142W        W98899  32.011  13.189  13.461
35143W        W98900  35.536   0.823   4.761
35144W        W98901  18.630  21.025   2.395
35145W        W98902   6.878  37.551  13.351
35146W        W98903   8.769  27.106  11.970
35147W        W98904  14.320  24.523   4.262
35148W        W98905  25.172   6.799  13.984
35149W        W98906  15.242  36.040   0.424
35150W        W98907  16.765   7.234  12.975
35151W        W98908  17.771  37.471   0.249
35152W        W98909  41.513  31.046   1.338
35153W        W98910  38.839  10.189  14.447
35154W        W98911  10.178  27.567   1.248
35155W        W98912  18.701  34.068   9.941
35156W        W98913   1.424  24.712  10.476
35157W        W98914  41.412  39.048   1.356
35158W        W98915  31.506  26.062  13.925
35159W        W98916  15.815  31.438   3.284
35160W        W98917  10.845  42.360   2.331
35161W        W98918  25.170  44.439   1.211
35162W        W98919  40.808   4.205   0.398
35163W        W98920  27.623   1.784   0.728
35164W        W98921  38.026  33.081  13.371
35165W        W98922  20.699   9.757   2.273
35166W        W98923  11.218  31.438   2.200
35167W        W98924  41.882  26.522   1.332
35168W        W98925   9.874  15.708  13.472
35169W        W98926  12.661  12.234   4.301
35170W        W98927  38.008   6.209   0.865
35171W        W98928  43.293  14.829   2.816
35172W        W98929  43.434   5.692   4.253
35173W        W98930  27.943  23.176   3.794
35174W        W98931  18.612  29.085   0.395
35175W        W98932  26.060  36.440  10.470
35176W        W98933  24.207  17.725   2.342
35177W        W98934  34.998  31.494  11.453
35178W        W98935  29.555  29.033  13.036
35179W        W98936  32.043  28.616   0.730
35180W        W98937   7.382  25.094   4.339
35181W        W98938  37.352  16.721   2.731
35182W        W98939  18.209  38.518   1.330
35183W        W98940  20.171  31.055  14.012
35184W        W98941  24.706  29.078   3.187
35185W        W98942   9.352  21.114  11.440
35186W        W98943  14.615  17.200   4.690
35187W        W98944   3.379  42.474   0.342
35188W        W98945  42.979  32.418   2.178
35189W        W98946  44.992  37.956  14.429
35190W        W98947  29.455  26.515  10.919
35191W        W98948  41.462  35.917   1.229
35192W        W98949   8.234  12.313  11.569
35193W        W98950  42.489  17.569   1.236
35194W        W98951  16.214  37.453   4.274
35195W        W98952  30.129  23.675   1.424
35196W        W98953  23.011  40.926  13.860
35197W        W98954   3.825  41.809  11.889
35198W        W98955  22.048  33.874  12.856
35199W        W98956  19.634  33.495   2.891
35200W        W98957  12.207   0.934   5.115
35201W        W98958  17.284  36.446   0.280
35202W        W98959  30.592  25.983   4.738
35203W        W98960  22.010   6.343  12.857
35204W        W98961  43.781  17.276   4.196
35205W        W98962  19.571  25.524   2.667
35206W        W98963  24.080   9.349  11.114
35207W        W98964  16.807  20.038   1.796
35208W        W98965  37.456  12.786   2.332
35209W        W98966  32.973   4.919  13.386
35210W        W98967  19.553  14.107  14.822
35211W        W98968  21.669  30.579   0.336
35212W        W98969   5.240  40.532  12.545
35213W        W98970   1.844  21.674   2.358
35214W        W98971   5.930  21.658   0.847
35215W        W98972   9.767  10.735   1.853
35216W        W98973   3.433  28.488  14.992
35217W        W98974  44.447  41.531  12.023
35218W        W98975  40.400  26.031  12.845
35219W        W98976  24.041  41.316  12.389
35220W        W98977  20.723  17.169   2.185
35221W        W98978  18.137  31.092   4.320
35222W        W98979  11.715  26.542  13.347
35223W        W98980   8.181   9.843  13.811
35224W        W98981  40.378  23.042   3.205
35225W        W98982   5.436  41.487   1.237
35226W        W98983  10.326  41.999  14.357
35227W        W98984  16.605  28.029   2.300
35228W        W98985  10.782  29.499  12.563
35229W        W98986  36.974  18.747   4.229
35230W        W98987  19.639  28.543   4.336
35231W        W98988  10.185   1.342  14.327
35232W        W98989  11.769  12.197   3.367
35233W        W98990   9.382  31.111  10.555
35234W        W98991   2.850   2.889  12.980
35235W        W98992  21.664  39.027  12.852
35236W        W98993  44.465  43.440  14.815
35237W        W98994  14.257  40.892   2.357
35238W        W98995  23.990  22.060  14.499
35239W        W98996  32.128   2.920   1.723
35240W        W98997  18.747   7.181  14.366
35241W        W98998  37.061  16.131   3.736
35242W        W98999  29.549  25.000  14.770
35243W        W99000  32.600  33.901   4.296
35244W        W99001   1.246  22.620  14.463
35245W        W99002   0.847  30.442  14.390
35246W        W99003  12.324  41.864   2.714
35247W        W99004  12.311  18.656   0.830
35248W        W99005  33.572   0.871  13.471
35249W        W99006  33.131   4.259  13.347
35250W        W99007  42.994  29.589   5.124
35251W        W99008  26.955   5.904   1.924
35252W        W99009  23.568  27.544   2.671
35253W        W99010   5.762  21.093   4.714
35254W        W99011  20.553  32.961   4.639
35255W        W99012   7.303  44.975   0.451
35256W        W99013  36.020   5.700  10.631
35257W        W99014   8.349  23.613   2.768
35258W        W99015   6.856  28.546  13.974
35259W        W99016  30.080  31.593  10.537
35260W        W99017  11.149  23.681   2.242
35261W        W99018  30.605  27.169  10.907
35262W        W99019  20.688  23.697   2.890
35263W        W99020   7.241  42.354   1.745
35264W        W99021  10.329  28.951   0.911
35265W        W99022  25.018  29.084   2.229
35266W        W99023  36.018  41.416   3.300
35267W        W99024   7.294  42.959  12.091
35268W        W99025  44.415  30.065   1.806
35269W        W99026  12.276   0.957  13.537
35270W        W99027  10.841  40.405  13.494
35271W        W99028  22.189  44.959   1.726
35272W        W99029  41.533  21.539   2.666
35273W        W99030  25.077  12.204  13.840
35274W        W99031  23.993   1.755  13.869
35275W        W99032   8.848   7.259  13.061
35276W        W99033  25.492   1.260   0.341
35277W        W99034   3.434  30.019  10.925
35278W        W99035  35.868   3.919   1.368
35279W        W99036   6.710  42.495   0.894
35280W        W99037  35.493   2.815   3.273
35281W        W99038  20.188  19.220   1.758
35282W        W99039  35.935  44.460   1.351
35283W        W99040  44.930  44.358  12.926
35284W        W99041  44.810  18.266  14.425
35285W        W99042  11.649  25.024   2.179
35286W        W99043  36.849  26.986   4.818
35287W        W99044   2.950   8.236  13.835
35288W        W99045  39.476  42.878  13.057
35289W        W99046  37.080   8.860   3.283
35290W        W99047   8.237  11.370  10.575
35291W        W99048   5.766  40.029   9.482
35292W        W99049  39.545  24.674   2.229
35293W        W99050   4.215  32.454   1.734
35294W        W99051  41.978  20.725   1.280
35295W        W99052  24.985  36.588  14.992
35296W        W99053  33.072   1.869  12.893
35297W        W99054  34.479  43.771   1.415
35298W        W99055  44.848   8.237  13.809
35299W        W99056  28.182  31.618  10.484
35300W        W99057  25.639  12.760   4.817
35301W        W99058  39.450  35.074  12.356
35302W        W99059  36.389   8.870   2.861
35303W        W99060   9.247  35.927  11.031
35304W        W99061  12.649  33.000   4.126
35305W        W99062  43.466  12.215   3.247
35306W        W99063   1.403  15.212   2.829
35307W        W99064  44.817  41.950  11.893
35308W        W99065  14.709  13.802   3.792
35309W        W99066  14.815   2.822  11.504
35310W        W99067  19.181  38.541   2.267
35311W        W99068  32.012   7.406   1.296
35312W        W99069  43.923  38.996   2.894
35313W        W99070  13.124  12.841  10.460
35314W        W99071   1.376  33.423  12.891
35315W        W99072  14.141  40.396  13.518
35316W        W99073  30.505  22.064   0.909
35317W        W99074   9.843  11.763   0.945
35318W        W99075   3.791  39.873  10.468
35319W        W99076  21.188  37.391  12.569
35320W        W99077  41.995  25.612   4.801
35321W        W99078  29.166  31.959   3.840
35322W        W99079  27.547  24.672  12.482
35323W        W99080  32.532  16.751   0.835
35324W        W99081  11.162  31.984  14.880
35325W        W99082  17.141  40.835   2.219
35326W        W99083  22.237   0.831  13.974
35327W        W99084  16.628  27.583  13.038
35328W        W99085   4.859   5.274   2.190
35329W        W99086   3.327  42.814   4.660
35330W        W99087  42.942  37.532  10.437
35331W        W99088   6.885  17.750   5.127
35332W        W99089  11.348  14.267   0.738
35333W        W99090  32.461  35.936   4.260
35334W        W99091  24.602   6.707   0.473
35335W        W99092  41.992  22.098   1.254
35336W        W99093  43.826  22.241   4.819
35337W        W99094  38.052  28.983  13.958
35338W        W99095  33.586  24.993   3.195
35339W        W99096  24.187   1.870  12.430
35340W        W99097   8.864  11.698   5.145
35341W        W99098   7.393  36.417  12.365
35342W        W99099  26.020  37.385   4.820
35343W        W99100  40.490  28.450  14.338
35344W        W99101  28.104   3.268   2.768
35345W        W99102  18.130  27.658   3.837
35346W        W99103  38.470  30.555  11.042
35347W        W99104  23.568   4.351   2.412
35348W        W99105  24.010  18.784  12.992
35349W        W99106   9.250   8.314   0.344
35350W        W99107  27.530  29.474   2.356
35351W        W99108  36.381  23.062   4.831
35352W        W99109  18.272   0.897   0.927
35353W        W99110  41.498  37.441   3.848
35354W        W99111  37.405  42.810   2.742
35355W        W99112  14.749  25.480  10.431
35356W        W99113   9.866   8.887  11.946
35357W        W99114   6.842  33.547  12.875
35358W        W99115  24.541   9.392   4.620
35359W        W99116  29.095   2.797  12.968
35360W        W99117  20.571  30.131   1.824
35361W        W99118  19.162  35.987  11.093
35362W        W99119  32.047  27.049  13.856
35363W        W99120  12.745  35.941  12.361
35364W        W99121  43.291  23.727   0.750
35365W        W99122  13.205  32.060  14.764
35366W        W99123   1.482  25.579   3.845
35367W        W99124  12.845  33.968   2.337
35368W        W99125   8.192  36.889  10.457
35369W        W99126   9.743  14.135  10.416
35370W        W99127  30.456  37.882  10.470
35371W        W99128   6.343  13.816  10.919
35372W        W99129  34.596   1.464   4.325
35373W        W99130  38.823  31.026  12.456
35374W        W99131  11.183  19.135   1.409
35375W        W99132  20.657  35.948   5.803
35376W        W99133  22.553   2.428  10.912
35377W        W99134  30.997  42.883  11.378
35378W        W99135  36.392  35.085  14.411
35379W        W99136  37.555   9.268   4.186
35380W        W99137   2.469  41.318   1.259
35381W        W99138  20.113  42.466   3.816
35382W        W99139  37.059   2.422   2.211
35383W        W99140  18.093  31.987  10.912
35384W        W99141   3.800   1.326  12.926
35385W        W99142   2.407  11.626   0.922
35386W        W99143  44.000  20.141   2.238
35387W        W99144  29.117   0.258   0.741
35388W        W99145  39.418  40.338  14.780
35389W        W99146   8.363  39.045   4.190
35390W        W99147  32.484  33.087  11.042
35391W        W99148  23.234  35.036   2.715
35392W        W99149  32.586  26.471   4.662
35393W        W99150  30.558  30.480  13.999
35394W        W99151   7.347   2.468   4.800
35395W        W99152  43.336   3.874   1.269
35396W        W99153  27.952   6.802  10.941
35397W        W99154  19.064   5.299  13.427
35398W        W99155  33.490  11.271  11.515
35399W        W99156  32.064  16.697  10.944
35400W        W99157  31.544   5.328  14.917
35401W        W99158  23.097  16.074  13.477
35402W        W99159  36.446  28.975   3.692
35403W        W99160  33.537  25.621  11.095
35404W        W99161  14.277  44.820  12.030
35405W        W99162  25.652   3.429  10.570
35406W        W99163   2.269  13.622  14.804
35407W        W99164   3.417  20.051   3.376
35408W        W99165  21.169   1.312  11.578
35409W        W99166   0.309   8.215   2.258
35410W        W99167  22.712  37.467  11.992
35411W        W99168   2.748   8.246   2.802
35412W        W99169  15.755   8.799  13.948
35413W        W99170  18.547  22.558   1.828
35414W        W99171   2.743  33.558   2.298
35415W        W99172  18.131  38.939  14.875
35416W        W99173  42.398   0.310  10.997
35417W        W99174  17.619  36.438   1.408
35418W        W99175  27.625  36.031  11.866
35419W        W99176  28.961  27.984   1.776
35420W        W99177  17.273  32.061  10.574
35421W        W99178  12.240  23.521  12.376
35422W        W99179  38.826  31.125   2.337
35423W        W99180  38.970   9.327  13.318
35424W        W99181   5.715   9.296   2.413
35425W        W99182   5.361   4.366   4.780
35426W        W99183  44.401  14.095   2.721
35427W        W99184   4.415  34.964  10.564
35428W        W99185  35.457  20.681  12.951
35429W        W99186  16.630  33.038  14.967
35430W        W99187   4.243   3.412   2.373
35431W        W99188  30.048   7.843   3.780
35432W        W99189  34.372  22.503   1.695
35433W        W99190  27.481  35.414   1.248
35434W        W99191  32.027  35.966   0.903
35435W        W99192   9.824   4.404   1.228
35436W        W99193  33.531   8.839   3.765
35437W        W99194   8.689  15.779  14.336
35438W        W99195  27.598  16.750   0.781
35439W        W99196  33.386  44.773   2.809
35440W        W99197  31.494   9.796  11.922
35441W        W99198  44.303  40.441  11.454
35442W        W99199  12.162  16.125  11.034
35443W        W99200  37.977  38.008  12.492
35444W        W99201  24.680  27.007  12.566
35445W        W99202  30.425   3.746  11.488
35446W        W99203  35.571  41.503  14.812
35447W        W99204  21.632  31.010   1.289
35448W        W99205  24.679  20.137  12.905
35449W        W99206  39.372   4.709   5.300
35450W        W99207  25.089  13.782  11.505
35451W        W99208  41.926   9.375  14.316
35452W        W99209  16.665  44.401   2.670
35453W        W99210  19.552  32.037  14.456
35454W        W99211  34.903  41.336  10.518
35455W        W99212  27.192   4.403  14.364
35456W        W99213  42.916  39.433  14.939
35457W        W99214  17.688  12.336  14.783
35458W        W99215   4.303   9.258  12.093
35459W        W99216  39.462  23.649  11.008
35460W        W99217  24.142   7.375   2.296
35461W        W99218  40.315  14.756  14.773
35462W        W99219  32.607   9.292   2.901
35463W        W99220  12.658  17.087   4.790
35464W        W99221  32.400  23.664   3.731
35465W        W99222   3.388  13.131   0.938
35466W        W99223  24.502  10.197   3.845
35467W        W99224  37.372   4.708   3.327
35468W        W99225  16.785  10.355   1.885
35469W        W99226  32.481  40.460   3.168
35470W        W99227  16.733  19.069   3.672
35471W        W99228   2.772  33.614   4.175
35472W        W99229  21.675  27.528   0.450
35473W        W99230  33.056   4.783  10.900
35474W        W99231  26.206  13.124   4.195
35475W        W99232  14.142  20.133   4.839
35476W        W99233  24.508  33.529   3.818
35477W        W99234  15.282   3.247   2.895
35478W        W99235  14.684  29.171   2.902
35479W        W99236  17.601  22.215  10.419
35480W        W99237  20.594  42.989   0.459
35481W        W99238  26.034   8.234   2.306
35482W        W99239   2.304  25.167   3.294
35483W        W99240  43.830  13.221   1.255
35484W        W99241  21.605  10.241  11.983
35485W        W99242  42.495  13.651  14.460
35486W        W99243   9.326  12.184  12.960
35487W        W99244  36.416  21.033  14.817
35488W        W99245  16.745  29.631  12.521
35489W        W99246  10.740  17.701   5.584
35490W        W99247   4.403  10.143  14.499
35491W        W99248  15.787   7.324   2.294
35492W        W99249   0.980  43.304   4.684
35493W        W99250  32.965  19.592   1.694
35494W        W99251  37.842  34.001  11.610
35495W        W99252  44.938  35.075   2.342
35496W        W99253  15.204  29.099   0.250
35497W        W99254  10.274   9.783   0.291
35498W        W99255   1.928  44.847   2.349
35499W        W99256   0.844  12.739   0.863
35500W        W99257  20.112   4.757  11.896
35501W        W99258  17.698   1.405  11.496
35502W        W99259  22.651  18.205   3.167
35503W        W99260  37.542  22.154  12.923
35504W        W99261  42.377  25.043   0.774
35505W        W99262  15.786  38.885  11.864
35506W        W99263  35.908  22.244  12.996
35507W        W99264  20.097   5.427   0.270
35508W        W99265   1.794  36.890  11.946
35509W        W99266  23.625  30.596  12.422
35510W        W99267   6.893  16.217  10.611
35511W        W99268  23.984  40.356   9.950
35512W        W99269   1.377   5.906   0.780
35513W        W99270  25.536   3.376   4.294
35514W        W99271   4.744  31.533   3.644
35515W        W99272  38.835  22.654   2.804
35516W        W99273  23.734  12.761   4.709
35517W        W99274  29.563  44.299   2.852
35518W        W99275   3.786  23.669  12.077
35519W        W99276  16.312  39.019  14.403
35520W        W99277  19.727  14.826   0.816
35521W        W99278   2.904  22.236  12.950
35522W        W99279   8.793   9.834   2.721
35523W        W99280  32.034  33.126  13.438
35524W        W99281  42.928   5.274   1.224
35525W        W99282  30.556  32.622   1.784
35526W        W99283   9.811  26.012   0.747
35527W        W99284  24.180  39.354   2.707
35528W        W99285  14.266  30.956  13.796
35529W        W99286  25.012  40.496   4.152
35530W        W99287   7.848  33.530  10.414
35531W        W99288  21.521  35.034  14.425
35532W        W99289  21.205  10.775   4.158
35533W        W99290  39.437  43.001   3.711
35534W        W99291  37.581  29.947  11.505
35535W        W99292   5.814  32.029  13.797
35536W        W99293   9.654  11.762  13.906
35537W        W99294  23.622  40.518  13.875
35538W        W99295  40.012  24.612   3.351
35539W        W99296  18.117  32.026  12.090
35540W        W99297  21.194  31.475   1.298
35541W        W99298  12.177  16.804  13.903
35542W        W99299  24.130  26.673  13.461
35543W        W99300  34.466  43.941  11.875
35544W        W99301  38.905  30.549  14.355
35545W        W99302  28.978  38.334   4.735
35546W        W99303  12.610  10.153  10.600
35547W        W99304  20.653   2.232  14.333
35548W        W99305  13.635  40.837  13.401
35549W        W99306  40.360  39.028  14.820
35550W        W99307  15.594  31.048  11.020
35551W        W99308  36.947  19.099   3.307
35552W        W99309  27.683  33.054   1.243
35553W        W99310  20.092  41.528  11.075
35554W        W99311  37.520  42.435   1.740
35555W        W99312  14.715   3.337  11.383
35556W        W99313   5.436   7.879   2.747
35557W        W99314  20.198  21.059   4.711
35558W        W99315  24.148   0.893  11.864
35559W        W99316  43.340  29.068   1.216
35560W        W99317  39.317   6.348  11.566
35561W        W99318  11.245   3.839  14.360
35562W        W99319  37.425  44.420   4.836
35563W        W99320  28.648  44.828   2.700
35564W        W99321   6.739  41.892   1.724
35565W        W99322  10.306  42.967   2.305
35566W        W99323  29.982  38.833  12.341
35567W        W99324  27.523  44.933   2.281
35568W        W99325  39.471   5.416   5.215
35569W        W99326  29.113  41.316   0.294
35570W        W99327  10.192  26.099  13.944
35571W        W99328   1.298   1.822   2.357
35572W        W99329  18.677   3.947   3.202
35573W        W99330  32.543  19.644  10.581
35574W        W99331  14.622  34.556   0.270
35575W        W99332  27.047  38.962  10.496
35576W        W99333  38.892  44.323   0.448
35577W        W99334  30.129  33.480   1.369
35578W        W99335   0.403  31.417  10.935
35579W        W99336  37.087   0.392  14.849
35580W        W99337   2.227  22.728   1.801
35581W        W99338   0.839  28.995  11.466
35582W        W99339   4.702  36.545  11.076
35583W        W99340   3.916  32.079  12.883
35584W        W99341  33.963  14.172   5.251
35585W        W99342  10.149  34.944  13.044
35586W        W99343   8.854  43.491   1.401
35587W        W99344   0.928  14.633   3.768
35588W        W99345  31.124   6.301  14.957
35589W        W99346   8.677  13.319  11.550
35590W        W99347  19.177  30.467   3.289
35591W        W99348  17.633  21.615  11.936
35592W        W99349  18.223   5.727  13.410
35593W        W99350  26.591  31.576  14.966
35594W        W99351   7.714  35.895  13.442
35595W        W99352  37.479   8.737   0.263
35596W        W99353  32.142  28.565  13.959
35597W        W99354   4.891  37.558  11.427
35598W        W99355  14.145  30.580   0.251
35599W        W99356  18.171  36.960   0.477
35600W        W99357  22.043  41.867  12.092
35601W        W99358   1.457  35.981  10.962
35602W        W99359  35.372   4.336  11.412
35603W        W99360  13.251  26.015  14.510
35604W        W99361  11.745  18.076  13.038
35605W        W99362   4.248  17.791   3.258
35606W        W99363   9.802   9.186   0.467
35607W        W99364  31.537  32.024  11.533
35608W        W99365  20.100  14.678   3.700
35609W        W99366  12.704  10.815  14.950
35610W        W99367  32.610   5.844   1.450
35611W        W99368  18.737   3.372  11.863
35612W        W99369  37.971  23.028  13.430
35613W        W99370  22.094  26.598   2.759
35614W        W99371  18.213  21.201  14.838
35615W        W99372  28.469  15.099  14.357
35616W        W99373   6.684  23.005   3.680
35617W        W99374   5.409  19.080  11.892
35618W        W99375  10.365  36.913   5.255
35619W        W99376  13.829  23.217   4.166
35620W        W99377  35.024  41.509  10.917
35621W        W99378   9.874   6.226   1.719
35622W        W99379  27.468  41.297   2.768
35623W        W99380  23.220  19.080   2.275
35624W        W99381  20.594  21.614  12.546
35625W        W99382  36.488  28.082  13.414
35626W        W99383  12.359   2.908   1.290
35627W        W99384  15.743  23.136   0.398
35628W        W99385  36.868  34.087  10.416
35629W        W99386  22.724  32.616   2.324
35630W        W99387   9.809  44.849  14.288
35631W        W99388  15.768  30.950   0.877
35632W        W99389  39.515  28.075  10.997
35633W        W99390  35.923  41.430   2.272
35634W        W99391  38.011  36.374  12.084
35635W        W99392  42.504  33.893   0.863
35636W        W99393   3.278  21.181  11.576
35637W        W99394  11.354  16.635   0.925
35638W        W99395  32.479  20.061   0.445
35639W        W99396  35.514   4.714   3.758
35640W        W99397   0.960  22.075   4.215
35641W        W99398  21.074  33.380   1.233
35642W        W99399  14.282   9.376   3.241
35643W        W99400   4.416  13.769  14.771
35644W        W99401   0.790  29.477   0.403
35645W        W99402   3.374  16.725   3.300
35646W        W99403  24.493   8.752   2.185
35647W        W99404   6.276  18.194  12.990
35648W        W99405  26.204   2.325  13.432
35649W        W99406  15.817   4.775  11.916
35650W        W99407  33.398  32.092   2.854
35651W        W99408  19.185  32.009  11.958
35652W        W99409  23.031  29.572  12.504
35653W        W99410   0.301  31.560  14.307
35654W        W99411   5.900  28.009   3.352
35655W        W99412  21.212   4.745   1.763
35656W        W99413  13.112  35.858  14.332
35657W        W99414  22.063   1.391  14.794
35658W        W99415  25.158   8.861   0.426
35659W        W99416  27.180  41.012  13.423
35660W        W99417  17.148  11.696   1.254
35661W        W99418   4.738  26.103   4.654
35662W        W99419  31.066  25.148  14.317
35663W        W99420  31.103  27.094   1.821
35664W        W99421  26.074  11.130  12.832
35665W        W99422   3.861  20.724   3.814
35666W        W99423  19.690  28.057   3.190
35667W        W99424  37.410  39.370  14.345
35668W        W99425  24.705  13.350   4.744
35669W        W99426  26.460  12.657   1.868
35670W        W99427  37.877   2.233  12.371
35671W        W99428  39.018  33.579  10.505
35672W        W99429   5.279  15.127   0.949
35673W        W99430  20.537   1.934   3.353
35674W        W99431  13.274  10.745   1.697
35675W        W99432  42.822   8.175  12.563
35676W        W99433  29.996   2.285   1.343
35677W        W99434  31.035  23.084  14.015
35678W        W99435  37.065   4.770   4.242
35679W        W99436  35.877  33.124   4.751
35680W        W99437  14.105   1.464  12.353
35681W        W99438  18.544  41.496  12.030
35682W        W99439  13.673  34.012  10.606
35683W        W99440  35.480   7.361   0.789
35684W        W99441  19.635  24.598  12.958
35685W        W99442  26.023  22.009  14.815
35686W        W99443  30.132  23.206  12.395
35687W        W99444   7.889  32.054   3.368
35688W        W99445  36.877  35.881   0.426
35689W        W99446  41.318   9.171  11.018
35690W        W99447  35.536   4.314   0.333
35691W        W99448  29.146  30.011  12.049
35692W        W99449  29.157   6.338   4.308
35693W        W99450  21.068  32.430  13.517
35694W        W99451  30.024  34.987  13.795
35695W        W99452   6.835   7.414   1.696
35696W        W99453   7.389  42.846   4.310
35697W        W99454  37.953  43.832  11.103
35698W        W99455  34.028  17.700   2.371
35699W        W99456  42.808   4.392  14.847
35700W        W99457  19.756  11.762  14.434
35701W        W99458  40.816   1.772  10.069
35702W        W99459  25.597  10.832  12.428
35703W        W99460  33.512  42.422   4.345
35704W        W99461   4.407  22.645  12.408
35705W        W99462  39.323  12.712   4.154
35706W        W99463   3.736  14.187   3.369
35707W        W99464  35.034  27.027   1.927
35708W        W99465   6.785  31.630   1.313
35709W        W99466   9.321  42.467  13.380
35710W        W99467  27.660   6.200  10.896
35711W        W99468  22.594  32.517  12.507
35712W        W99469  18.188   0.836   4.620
35713W        W99470  25.468  30.131   1.781
35714W        W99471   0.771  16.113   1.343
35715W        W99472  25.045  36.375   4.670
35716W        W99473  39.813   3.234  12.395
35717W        W99474  33.525  30.574   5.087
35718W        W99475  38.939  25.189   1.847
35719W        W99476  44.479  29.140   4.683
35720W        W99477  10.367   3.228  12.574
35721W        W99478   2.772  38.410  10.593
35722W        W99479   6.409  13.197  14.882
35723W        W99480  37.427   3.849   2.304
35724W        W99481  33.460  38.501  14.948
35725W        W99482   3.857  23.220   2.346
35726W        W99483  22.111   9.188   3.652
35727W        W99484  38.371   9.317   0.409
35728W        W99485   2.438  36.462  12.906
35729W        W99486   6.799  22.524   4.637
35730W        W99487  16.748  24.561  12.427
35731W        W99488   6.778   5.776  12.555
35732W        W99489  24.623  16.287  12.525
35733W        W99490  12.266  32.142  13.344
35734W        W99491  26.498  17.674  13.534
35735W        W99492  21.647  20.124   2.844
35736W        W99493   3.715   3.751   1.766
35737W        W99494   5.286  42.823   2.766
35738W        W99495   2.366   9.355  12.549
35739W        W99496  43.791  38.823   1.845
35740W        W99497   3.394  27.456   4.144
35741W        W99498   6.427  37.008   2.370
35742W        W99499  38.328  16.579   1.891
35743W        W99500  32.031  39.398  14.007
35744W        W99501   5.275  43.969  14.436
35745W        W99502   1.923  15.248  13.820
35746W        W99503  33.978  10.366   4.787
35747W        W99504   1.357  42.787   3.330
35748W        W99505  36.955  13.786  13.010
35749W        W99506  13.778  14.106  13.018
35750W        W99507  12.758  29.944   1.394
35751W        W99508  25.152   0.320  13.990
35752W        W99509  27.495   4.700   1.807
35753W        W99510  40.965   3.439  10.626
35754W        W99511   3.381  27.071   3.170
35755W        W99512  41.796  34.108  10.916
35756W        W99513  40.320  42.499  13.481
35757W        W99514  19.195   1.941   0.811
35758W        W99515  25.468  14.651   4.246
35759W        W99516  37.900  37.052  13.942
35760W        W99517   2.848  12.707   0.407
35761W        W99518   8.729  26.561   1.725
35762W        W99519  14.100  16.810  10.412
35763W        W99520  28.491  20.648  12.053
35764W        W99521  22.664   7.843   3.764
35765W        W99522  31.605  38.571   2.682
35766W        W99523  21.018  39.841  10.008
35767W        W99524  40.965  23.610   4.278
35768W        W99525  36.033  16.802  10.485
35769W        W99526  38.409   0.773  14.760
35770W        W99527  18.680  37.029  11.968
35771W        W99528  22.051  29.428   0.781
35772W        W99529  41.520  25.100   2.878
35773W        W99530  41.414  26.480  14.495
35774W        W99531  36.888  10.776  14.436
35775W        W99532  40.490  29.486   4.218
35776W        W99533  30.540  22.127  13.375
35777W        W99534  44.999  21.066  14.496
35778W        W99535  15.823  11.665  11.008
35779W        W99536  30.490  15.670  14.477
35780W        W99537  15.663   0.869  14.829
35781W        W99538  36.920   0.750  14.944
35782W        W99539   0.264   9.656  13.949
35783W        W99540   9.289  10.865  14.463
35784W        W99541  44.464  17.295   3.183
35785W        W99542  17.293  43.959   0.269
35786W        W99543  31.949  13.283   4.332
35787W        W99544   5.430  20.687   4.299
35788W        W99545  32.127   6.246   5.312
35789W        W99546  30.060  25.086  12.846
35790W        W99547   7.304  42.030   4.232
35791W        W99548   8.263  42.382  10.077
35792W        W99549  35.412  25.056  13.338
35793W        W99550  32.927  32.084   3.842
35794W        W99551  25.008  42.333  13.989
35795W        W99552   2.863   1.276   2.776
35796W        W99553  26.124  37.869   1.887
35797W        W99554  24.155  13.660   4.114
35798W        W99555  13.798   7.894   2.859
35799W        W99556  17.753  15.766   3.643
35800W        W99557  32.914   0.873  11.547
35801W        W99558  22.055  26.622  13.504
35802W        W99559  33.406   1.862  12.564
35803W        W99560  16.755  32.945  10.571
35804W        W99561  38.379  16.736  13.425
35805W        W99562  11.718  16.714   1.724
35806W        W99563   3.951   3.713   3.158
35807W        W99564   5.834  16.648   1.420
35808W        W99565  13.630  29.962  14.494
35809W        W99566  38.906  19.116  14.008
35810W        W99567  25.078  27.962   4.151
35811W        W99568  29.166  44.843  11.958
35812W        W99569  19.663   6.800  11.011
35813W        W99570  10.360  31.103  11.094
35814W        W99571  10.250  11.272   3.745
35815W        W99572  43.004  22.672   1.285
35816W        W99573  14.321  26.067   1.293
35817W        W99574  16.288  38.506   0.772
35818W        W99575  26.135   7.325   4.282
35819W        W99576  39.489   0.476   3.837
35820W        W99577  17.570  16.572  12.436
35821W        W99578   7.231  29.537   3.869
35822W        W99579  20.201   7.353   2.693
35823W        W99580  14.152   7.409   3.673
35824W        W99581  10.868  18.722   0.275
35825W        W99582  41.815  40.978   2.682
35826W        W99583  27.130  36.913  12.472
35827W        W99584   1.482  41.459  14.881
35828W        W99585   6.809  44.370  11.068
35829W        W99586  21.233  30.081  11.863
35830W        W99587  16.221  16.104  14.500
35831W        W99588  41.905  18.617  12.917
35832W        W99589  16.201  40.432   1.394
35833W        W99590  19.234  21.757   4.178
35834W        W99591  34.030  29.631  12.054
35835W        W99592  37.843  26.512   0.737
35836W        W99593  20.611   4.866   3.214
35837W        W99594   7.347  39.331  11.540
35838W        W99595   3.713  41.298   3.275
35839W        W99596  14.707  13.302   4.671
35840W        W99597  19.189  30.586  13.952
35841W        W99598  34.050  29.577  12.857
35842W        W99599   4.361   5.237   2.262
35843W        W99600   8.366  34.388  12.358
35844W        W99601   3.433  15.577   4.770
35845W        W99602  36.479  34.907   3.745
35846W        W99603  10.864  21.086  11.898
35847W        W99604  32.938   1.351  10.596
35848W        W99605  34.949  41.859   2.753
35849W        W99606  10.381  29.994  14.347
35850W        W99607  13.286  39.365   3.378
35851W        W99608  15.290  40.325  13.032
35852W        W99609  20.757  17.077   2.776
35853W        W99610  16.665  25.679  11.058
35854W        W99611   0.898  31.087   1.826
35855W        W99612  36.554   8.761  10.011
35856W        W99613  16.593  16.611  12.913
35857W        W99614  35.912  11.727  13.965
35858W        W99615  33.393   0.889   3.805
35859W        W99616  32.414  37.937   1.265
35860W        W99617  22.126  39.557   3.256
35861W        W99618  37.859   3.935  14.853
35862W        W99619  31.909  21.625   3.298
35863W        W99620   5.246  12.644  14.956
35864W        W99621  29.145  20.642  14.985
35865W        W99622  40.413   8.276   4.655
35866W        W99623   9.313  21.048  13.436
35867W        W99624  44.389  44.354   0.391
35868W        W99625   7.231  29.038  14.432
35869W        W99626  13.785  22.249  12.974
35870W        W99627  18.747  34.469   4.839
35871W        W99628  40.499  25.623  12.888
35872W        W99629   9.648  30.928   3.329
35873W        W99630  25.110  41.789   1.742
35874W        W99631  17.580   4.799  10.456
35875W        W99632  16.292  16.256   0.828
35876W        W99633  18.176  18.227   1.828
35877W        W99634  38.351  39.478  11.906
35878W        W99635  24.657  16.122   0.835
35879W        W99636  14.821  23.157   1.778
35880W        W99637  15.089  36.568  14.414
35881W        W99638  17.669   2.456  13.460
35882W        W99639  42.499  31.929  13.989
35883W        W99640  40.362   1.441  11.396
35884W        W99641  27.150  42.959  14.443
35885W        W99642  13.756  30.085   4.699
35886W        W99643   7.911   6.786   2.193
35887W        W99644  12.331  38.026   4.625
35888W        W99645  39.330   6.865  12.369
35889W        W99646  19.173  13.251   2.826
35890W        W99647  36.460  11.249   3.870
35891W        W99648  40.417   5.688  10.515
35892W        W99649  26.098  43.403   2.829
35893W        W99650  11.263  14.789  11.095
35894W        W99651  32.921  25.598  14.337
35895W        W99652  15.144  31.419  12.024
35896W        W99653  16.604  25.967   4.793
35897W        W99654  10.314  23.189   4.609
35898W        W99655   0.414  35.022   1.385
35899W        W99656  33.093  17.066   3.237
35900W        W99657  20.687  10.716   4.838
35901W        W99658  39.356   5.727   0.277
35902W        W99659  26.515   7.834   1.390
35903W        W99660  36.966  44.498   0.452
35904W        W99661  21.089   2.724  14.491
35905W        W99662   7.736  28.498  10.520
35906W        W99663  24.648  24.978  14.009
35907W        W99664   5.795  24.048   0.351
35908W        W99665  37.529   0.790  14.835
35909W        W99666  41.328  16.123   4.787
35910W        W99667   7.302  33.511  12.840
35911W        W99668  22.189  31.529   3.812
35912W        W99669  24.183  18.165   1.809
35913W        W99670  39.882  32.115   1.331
35914W        W99671  38.386   7.341  14.974
35915W        W99672  38.954  31.409  12.989
35916W        W99673   8.876  11.754  13.546
35917W        W99674  16.206   7.788  10.478
35918W        W99675  14.663  38.042  10.915
35919W        W99676  12.251  10.760  10.439
35920W        W99677  40.036  12.147   4.221
35921W        W99678  25.049  31.111   2.852
35922W        W99679  32.525   7.286  14.503
35923W        W99680   4.272  12.760   4.316
35924W        W99681  13.190  15.260   1.230
35925W        W99682   5.355  31.997  10.623
35926W        W99683  13.206  10.233   3.290
35927W        W99684  33.550   1.962  13.966
35928W        W99685  12.621  39.047   1.320
35929W        W99686  26.605  30.438  12.365
35930W        W99687   4.259  40.413   5.296
35931W        W99688  14.599  20.569  14.497
35932W        W99689  15.104  30.554  12.940
35933W        W99690  14.751   1.459   0.731
35934W        W99691   1.784  24.631   0.419
35935W        W99692  21.635  21.228  14.011
35936W        W99693   1.761   0.455  13.803
35937W        W99694  22.177  42.397  14.474
35938W        W99695  39.406  37.384   4.737
35939W        W99696  34.989  22.038  11.018
35940W        W99697  44.963  35.083   4.667
35941W        W99698  27.975   9.243  11.972
35942W        W99699  33.001  28.567   2.326
35943W        W99700  43.778  35.924  10.888
35944W        W99701   5.296   1.790   2.875
35945W        W99702  19.742  37.542  11.587
35946W        W99703  11.371  35.545  13.533
35947W        W99704  29.518   5.290   1.364
35948W        W99705  25.211  13.652   4.160
35949W        W99706   8.794  12.818   1.216
35950W        W99707  22.155  34.474  11.435
35951W        W99708  11.348   8.893   0.382
35952W        W99709  23.639  12.646   2.233
35953W        W99710  10.847  31.611   4.224
35954W        W99711  26.500  29.127   3.281
35955W        W99712  36.874  37.364   0.352
35956W        W99713  13.705   1.792   4.253
35957W        W99714  40.421  27.053  13.040
35958W        W99715   4.843  27.164   4.660
35959W        W99716  21.047  11.732   2.334
35960W        W99717  34.871  40.438  12.574
35961W        W99718  27.084  25.990   1.826
35962W        W99719  20.115  31.898  14.282
35963W        W99720  11.685  11.636  11.966
35964W        W99721  29.154  20.134   2.901
35965W        W99722   0.418   4.357  13.516
35966W        W99723  26.591  10.147   4.774
35967W        W99724  39.398  19.696   4.660
35968W        W99725   0.849   8.727   9.922
35969W        W99726   7.783  26.008  13.911
35970W        W99727   7.798  20.597  10.602
35971W        W99728   0.764  43.461  14.396
35972W        W99729  27.504  17.673  14.369
35973W        W99730  17.627  10.843  12.515
35974W        W99731  44.895  27.617   0.867
35975W        W99732  34.464  20.212  14.020
35976W        W99733  42.378   6.236  11.962
35977W        W99734   1.968  33.899   0.423
35978W        W99735  12.231   1.904   4.775
35979W        W99736  17.103  27.529  14.965
35980W        W99737   9.180   4.748   2.887
35981W        W99738   8.666  37.919   0.381
35982W        W99739  18.203  19.163   0.246
35983W        W99740  33.993  38.983  14.368
35984W        W99741  37.900  44.911   4.708
35985W        W99742   3.265  15.714  14.781
35986W        W99743  12.693  28.986   1.851
35987W        W99744  37.023   8.852  13.997
35988W        W99745  44.501  24.700  11.874
35989W        W99746  10.332  14.822  12.867
35990W        W99747  31.056   2.451   9.579
35991W        W99748  17.608  27.035   2.881
35992W        W99749   7.793  30.122  11.989
35993W        W99750  30.029   5.799   4.729
35994W        W99751  35.472  13.196  11.058
35995W        W99752  43.305  37.858   0.802
35996W        W99753  32.942  26.027  10.083
35997W        W99754  30.603  30.532  12.830
35998W        W99755  23.228  31.081   2.693
35999W        W99756  28.008  37.969  12.041
36000W        W99757  20.109  19.689   1.730
36001W        W99758  40.959  33.897   1.907
36002W        W99759  12.711  28.486   3.704
36003W        W99760   6.688  20.582   4.245
36004W        W99761  38.358   0.765   3.693
36005W        W99762  11.333  40.313  11.387
36006W        W99763  10.816  17.127   4.681
36007W        W99764  43.900   4.812  11.583
36008W        W99765  16.644  26.545   3.289
36009W        W99766  14.727  36.532  14.285
36010W        W99767  26.052  24.152  12.470
36011W        W99768  14.822  29.471   0.782
36012W        W99769  38.984  32.466  14.338
36013W        W99770  22.241   5.873   1.378
36014W        W99771   5.401  26.503   2.369
36015W        W99772  16.798  43.849  10.412
36016W        W99773  32.070  42.003  14.309
36017W        W99774  28.145   6.336   5.246
36018W        W99775  38.937  40.894  11.540
36019W        W99776   3.743  28.572   0.808
36020W        W99777   2.812  17.727  10.510
36021W        W99778  17.802  32.420  14.821
36022W        W99779  15.198  41.957  14.385
36023W        W99780   2.785  40.897  12.476
36024W        W99781   0.915  12.296  11.948
36025W        W99782  28.614  29.603   2.867
36026W        W99783  41.465  20.220   0.767
36027W        W99784   5.317  32.528  11.372
36028W        W99785  12.135   7.269   1.448
36029W        W99786  21.744   3.295  14.817
36030W        W99787  15.685  11.780   5.230
36031W        W99788   3.420  38.503  14.762
36032W        W99789  31.931  12.679  10.054
36033W        W99790  30.468  42.316   0.817
36034W        W99791   2.876  12.192  13.437
36035W        W99792   7.341  38.997  14.359
36036W        W99793  21.522  30.124  13.994
36037W        W99794   0.317  11.230  11.424
36038W        W99795  37.482  41.374  10.465
36039W        W99796  44.966  28.476   4.664
36040W        W99797  22.607   0.794   4.757
36041W        W99798  26.636  39.452  14.503
36042W        W99799  14.103  22.543   0.827
36043W        W99800  31.982  29.461   2.355
36044W        W99801  39.852  25.704   0.433
36045W        W99802  42.405   3.292  14.883
36046W        W99803   9.845  13.635   3.222
36047W        W99804  43.433  23.081  14.804
36048W        W99805  39.332  11.173   2.357
36049W        W99806   9.663  37.344  11.559
36050W        W99807  13.749  43.355  10.078
36051W        W99808  39.912  41.409   0.385
36052W        W99809  38.932  40.503   2.396
36053W        W99810  30.548  33.104  13.501
36054W        W99811  16.567  13.281   2.762
36055W        W99812  17.257  17.635  13.854
36056W        W99813  14.109  12.713  10.088
36057W        W99814   1.311   5.362   2.333
36058W        W99815  32.604  21.594  13.965
36059W        W99816  22.068  28.465  12.935
36060W        W99817  39.497  11.137   2.872
36061W        W99818   8.364  15.168   2.213
36062W        W99819   2.380  11.674  12.055
36063W        W99820  26.643  25.697   0.325
36064W        W99821  24.691  15.107   1.910
36065W        W99822  27.975  32.517  12.944
36066W        W99823  25.580   7.417  13.062
36067W        W99824  29.151  23.692   0.796
36068W        W99825  34.036  23.191  11.946
36069W        W99826  23.593   4.301  10.508
36070W        W99827   8.297   3.337  11.876
36071W        W99828  44.289   5.431   4.141
36072W        W99829   7.383  24.117   0.967
36073W        W99830  42.523  32.072  14.445
36074W        W99831  29.437  23.115  10.039
36075W        W99832  32.035  26.977   4.225
36076W        W99833  36.939  11.278  13.872
36077W        W99834  26.967  27.509  13.944
36078W        W99835  17.699  33.109  12.504
36079W        W99836   1.940  41.346   2.824
36080W        W99837  28.542  43.912  12.045
36081W        W99838  24.154  11.697   4.348
36082W        W99839  22.537  27.145  14.509
36083W        W99840  39.931   5.803   4.132
36084W        W99841  14.266  25.602  12.342
36085W        W99842   2.863   4.277   1.913
36086W        W99843  10.710   8.239  13.367
36087W        W99844  44.914  19.256  14.280
36088W        W99845  18.702   0.981   3.238
36089W        W99846  34.030  31.538   4.123
36090W        W99847   9.220  10.195  11.862
36091W        W99848  43.943  38.346  13.963
36092W        W99849  36.979  33.492  13.473
36093W        W99850  18.711  43.326  12.029
36094W        W99851  32.133  11.742  11.560
36095W        W99852  11.162  33.405   4.189
36096W        W99853  17.725  38.874  11.012
36097W        W99854  42.965  43.428   3.763
36098W        W99855  35.543  31.123  11.595
36099W        W99856  17.652   1.839  12.474
36100W        W99857  39.979  31.575   4.784
36101W        W99858  43.921  12.776  13.349
36102W        W99859   8.720  42.020   3.165
36103W        W99860  12.818  38.486   1.864
36104W        W99861  43.502  19.220   3.299
36105W        W99862  36.923  42.513  10.512
36106W        W99863  40.542  44.420  13.521
36107W        W99864  35.563  32.006   1.820
36108W        W99865   5.222  19.203  13.529
36109W        W99866   1.462  25.134   0.839
36110W        W99867  38.951  38.021   1.877
36111W        W99868   4.724  33.044  13.333
36112W        W99869  40.303  29.073  12.034
36113W        W99870  39.816  10.803  11.886
36114W        W99871  16.790  32.634  11.425
36115W        W99872  42.482  24.541   3.821
36116W        W99873  44.892   9.193  10.547
36117W        W99874   5.696  41.852   0.304
36118W        W99875  37.992  23.571   1.789
36119W        W99876  12.751   4.864  13.400
36120W        W99877   9.224  20.128   1.231
36121W        W99878   3.851   6.386  13.857
36122W        W99879  39.538  18.739   0.463
36123W        W99880  42.795  44.322  13.036
36124W        W99881  33.899  30.460   0.963
36125W        W99882  37.955  35.008  13.504
36126W        W99883  40.864  18.119   1.300
36127W        W99884  31.100  40.333  11.433
36128W        W99885  27.569  11.226  12.892
36129W        W99886   2.918  21.731   4.752
36130W        W99887   6.820  38.480  12.375
36131W        W99888  10.794   9.278  12.073
36132W        W99889   0.271  40.908   2.851
36133W        W99890  21.628  37.004  14.887
36134W        W99891  19.644  10.700   4.674
36135W        W99892  37.915   9.780  14.961
36136W        W99893  31.967  43.350   0.933
36137W        W99894   4.726  40.437   1.803
36138W        W99895  16.087   3.438   2.347
36139W        W99896  20.185  39.471   3.699
36140W        W99897  10.841  42.953   3.249
36141W        W99898  37.459  43.816  12.933
36142W        W99899  41.989  26.090  14.306
36143W        W99900   4.208  16.726  13.426
36144W        W99901  41.811  14.140  14.777
36145W        W99902  21.029  38.503  12.048
36146W        W99903  35.090  10.296  14.886
36147W        W99904  20.726  14.259   4.717
36148W        W99905  32.017  19.208  10.462
36149W        W99906  28.081  17.780   3.185
36150W        W99907   4.287  17.685  11.012
36151W        W99908  31.511  43.280   1.852
36152W        W99909  21.133  20.118  12.477
36153W        W99910  11.703  44.370  14.299
36154W        W99911   7.705  33.921  13.479
36155W        W99912   8.316  22.235   1.312
36156W        W99913  13.841  16.717  12.556
36157W        W99914  20.591  21.517  14.506
36158W        W99915  22.655   6.189  11.446
36159W        W99916  39.480  25.030  11.927
36160W        W99917  17.610   7.871   2.395
36161W        W99918  31.912  35.540   1.760
36162W        W99919  12.747  36.849   1.709
36163W        W99920  28.041  17.668   4.239
36164W        W99921  34.927  12.738  14.451
36165W        W99922  36.421  21.202  12.419
36166W        W99923  31.975  10.250   0.467
36167W        W99924   4.417   1.341   4.215
36168W        W99925  20.179  19.134   3.635
36169W        W99926   3.761  15.587  14.323
36170W        W99927   8.701  26.498  12.505
36171W        W99928  27.556  10.668  11.536
36172W        W99929  12.361   5.229   0.246
36173W        W99930  23.166  44.362  10.420
36174W        W99931   7.373  43.407  12.032
36175W        W99932  20.675  34.382  12.528
36176W        W99933  28.157  13.105  14.974
36177W        W99934   2.790  20.272  12.900
36178W        W99935  18.618  29.096   4.610
36179W        W99936   6.782  19.197   1.440
36180W        W99937  28.665   7.735   3.778
36181W        W99938   3.461  38.451   2.808
36182W        W99939   2.339  35.884  14.470
36183W        W99940  18.715  39.908  10.604
36184W        W99941   8.374  38.395  14.871
36185W        W99942  25.612  33.111   1.357
36186W        W99943  34.019   6.874   1.317
36187W        W99944  29.590  20.218  14.012
36188W        W99945  14.150   3.758  10.456
36189W        W99946  38.881  37.477   1.421
36190W        W99947  15.809   6.393  10.545
36191W        W99948  42.412  16.095  14.368
36192W        W99949  28.518  12.835  13.515
36193W        W99950   7.323  32.409  12.352
36194W        W99951   9.200   4.409   0.750
36195W        W99952   9.711  39.027   3.639
36196W        W99953  25.546  28.646  10.643
36197W        W99954  31.085   8.184   4.791
36198W        W99955  44.470  11.207  12.387
36199W        W99956  38.503   1.852  14.327
36200W        W99957   7.839  40.368   3.665
36201W        W99958   1.908  39.551  13.322
36202W        W99959   1.361   0.823   3.234
36203W        W99960  30.981  43.807  12.570
36204W        W99961  18.112   7.309  14.895
36205W        W99962   5.864   8.773   3.267
36206W        W99963  29.977  29.525   3.232
36207W        W99964  35.033  30.994   4.636
36208W        W99965  36.964  14.215   2.347
36209W        W99966  17.220  33.017  12.352
36210W        W99967  43.019  14.690  14.335
36211W        W99968  32.946   3.236   1.211
36212W        W99969  32.468  10.316   1.242
36213W        W99970  32.119  39.983   0.757
36214W        W99971  14.615  20.557  12.575
36215W        W99972   3.873  12.739   0.284
36216W        W99973  30.459  16.290   4.784
36217W        W99974   2.797  11.309   4.660
36218W        W99975  30.605  33.435   5.141
36219W        W99976  33.486  42.420  10.040
36220W        W99977  43.980   9.363   0.820
36221W        W99978  11.218   7.889  10.920
36222W        W99979  37.454  27.187   2.367
36223W        W99980  19.671  36.403   4.271
36224W        W99981   9.191  19.777   4.634
36225W        W99982  23.630   9.183  12.867
36226W        W99983  43.403  34.560  11.126
36227W        W99984  15.719  36.842   2.265
36228W        W99985   9.290  20.605   2.233
36229W        W99986  24.502   0.356  14.998
36230W        W99987  18.655  29.983  13.511
36231W        W99988  16.160  30.544  13.530
36232W        W99989  36.497  24.094  10.630
36233W        W99990  20.686  26.529   4.293
36234W        W99991   1.775  19.757   3.384
36235W        W99992  20.622  11.365   1.372
36236W        W99993  32.928  31.006   3.317
36237W        W99994  19.735  23.594  14.955
36238W        W99995  24.000   3.337  10.613
36239W        W99996   3.236  19.040  13.848
36240W        W99997  18.156  29.601  10.566
36241W        W99998  41.488   9.333   2.712
36242W        W99999  12.354   0.435   4.769
36243W        W    0  32.122   1.816   4.682
36244W        W    1   5.748   5.845   4.272
36245W        W    2  19.556  32.584   4.348
36246W        W    3  32.491   3.940   3.652
36247W        W    4  20.038  22.093  12.849
36248W        W    5  15.221  44.443  14.801
36249W        W    6  26.038  39.979  10.447
36250W        W    7   8.380  40.995   9.934
36251W        W    8  29.967   6.389   1.918
36252W        W    9  26.613   1.296   3.713
36253W        W   10  43.917  30.082   1.398
36254W        W   11  39.820  28.967   2.231
36255W        W   12  23.633  38.942   0.409
36256W        W   13  26.520  36.044   1.750
36257W        W   14   0.293   5.897   1.713
36258W        W   15  12.747   2.289   2.878
36259W        W   16  26.963  14.768   0.448
36260W        W   17  30.120  18.600  12.344
36261W        W   18  23.010  43.827   1.428
36262W        W   19   0.875   2.831  10.643
36263W        W   20  41.464   5.762   4.275
36264W        W   21  33.399  24.111  10.941
36265W        W   22  12.242  13.190   1.909
36266W        W   23  20.160  44.889   4.697
36267W        W   24  35.578   5.200  14.283
36268W        W   25  29.962   2.964   3.819
36269W        W   26  30.531   6.840  12.829
36270W        W   27   6.920  21.689   1.850
36271W        W   28  27.946   2.280  14.374
36272W        W   29   8.332  10.677  14.802
36273W        W   30  32.592  41.000   0.811
36274W        W   31  28.155  33.422   0.896
36275W        W   32  36.362  41.527   4.269
36276W        W   33   5.203  15.271   0.381
36277W        W   34  26.183  28.465   1.867
36278W        W   35  15.134   8.704   3.194
36279W        W   36  28.436  30.028   1.720
36280W        W   37  43.407   6.207   4.351
36281W        W   38  32.530  37.071  12.355
36282W        W   39  37.503   7.196  11.584
36283W        W   40  19.180  14.228  14.782
36284W        W   41  36.471  26.543   4.174
36285W        W   42  30.972   5.915   3.696
36286W        W   43  34.385  31.522  14.945
36287W        W   44  16.292  41.470  11.120
36288W        W   45  25.075   8.699   3.347
36289W        W   46  39.928  15.806  11.097
36290W        W   47   2.412  41.985  11.053
36291W        W   48   3.420   6.852   2.680
36292W        W   49  17.106  32.132  12.382
36293W        W   50  37.507  39.933   2.288
36294W        W   51   3.877  40.982   4.219
36295W        W   52  21.682  10.160  13.483
36296W        W   53  33.045  34.074  14.364
36297W        W   54   1.934   5.244  14.767
36298W        W   55  17.125   9.274   3.266
36299W        W   56   9.828   8.754   5.211
36300W        W   57  36.414  22.649   0.846
36301W        W   58  27.065  34.548  13.060
36302W        W   59  31.118  13.646   4.163
36303W        W   60   7.348  33.018   2.770
36304W        W   61   8.852  23.544   3.866
36305W        W   62  20.163  35.880  12.361
36306W        W   63  42.441  33.887  11.029
36307W        W   64   9.352   4.705  14.026
36308W        W   65  35.955   6.278   4.122
36309W        W   66  11.746   2.913   4.665
36310W        W   67   3.387   6.777  13.414
36311W        W   68   4.926  27.652  13.030
36312W        W   69  36.061  43.494  10.619
36313W        W   70  41.428  18.122   1.816
36314W        W   71  14.763  44.757   4.231
36315W        W   72  16.178  10.751  14.292
36316W        W   73  29.928   3.237   2.212
36317W        W   74   1.830  26.614   2.756
36318W        W   75  10.697  43.877  11.505
36319W        W   76  41.918  32.430  11.538
36320W        W   77  19.067  41.295   2.313
36321W        W   78  25.142  28.493   0.906
36322W        W   79  41.962  44.500   1.307
36323W        W   80  19.775  15.177   1.811
36324W        W   81  24.644  10.665   0.301
36325W        W   82   3.248  20.722   2.833
36326W        W   83  36.432   7.900  13.383
36327W        W   84  21.755  10.804  10.888
36328W        W   85  19.778  32.550   0.318
36329W        W   86  17.101  13.792  12.386
36330W        W   87  40.902  37.485  11.862
36331W        W   88  29.425  30.495  13.378
36332W        W   89  24.707  43.862   2.305
36333W        W   90  38.908  31.104   1.394
36334W        W   91   1.786  15.307  12.563
36335W        W   92  26.497   0.444   4.212
36336W        W   93  38.488  34.437   3.813
36337W        W   94  10.723  24.503  11.405
36338W        W   95  44.921  31.435  13.357
36339W        W   96  23.220  10.346   4.153
36340W        W   97  18.595   6.830  13.858
36341W        W   98   0.432   6.333  11.505
36342W        W   99  35.067  18.210   2.704
36343W        W  100  17.092  37.864  11.957
36344W        W  101  15.696  15.221  12.417
36345W        W  102  27.566  15.297  12.386
36346W        W  103  32.133   9.883  14.292
36347W        W  104  28.615  41.444   3.205
36348W        W  105  11.756   6.901  11.462
36349W        W  106  30.572  33.600   4.324
36350W        W  107  37.472  19.043  11.465
36351W        W  108   6.412  33.010  14.946
36352W        W  109  44.926   6.894  14.469
36353W        W  110  11.328  10.171  14.339
36354W        W  111  31.456  41.864  11.447
36355W        W  112   1.828  22.046  12.911
36356W        W  113  39.390   6.353  13.498
36357W        W  114  34.906   1.789   0.408
36358W        W  115   7.217  21.646   4.685
36359W        W  116   4.713   6.695  11.067
36360W        W  117  27.450  29.942   2.853
36361W        W  118  22.627   2.235   4.791
36362W        W  119   2.729  12.829   4.120
36363W        W  120  23.104   9.325  12.371
36364W        W  121  37.835  18.721  12.836
36365W        W  122  30.136  39.546   1.274
36366W        W  123  22.576  27.079   2.387
36367W        W  124  35.073  25.212  12.087
36368W        W  125  35.536  10.161   9.932
36369W        W  126  20.205   4.741   1.769
36370W        W  127  18.655  40.913   0.416
36371W        W  128  41.520   8.723  11.066
36372W        W  129  22.717  38.832   1.856
36373W        W  130  15.242  18.233  10.971
36374W        W  131  13.266  38.017   4.665
36375W        W  132  32.507   4.745   3.815
36376W        W  133  36.961   9.375  12.994
36377W        W  134   7.417  16.080  14.893
36378W        W  135  16.785  11.130   0.320
36379W        W  136   6.237  14.802  10.436
36380W        W  137   1.312   6.902  11.376
36381W        W  138   2.892   6.416   1.769
36382W        W  139  20.150  35.368  11.005
36383W        W  140  39.396  17.237  13.813
36384W        W  141   9.648  20.653   2.709
36385W        W  142   3.760  41.436  10.417
36386W        W  143   6.772   4.733   3.151
36387W        W  144  41.358  39.442  11.024
36388W        W  145   7.249  33.964   4.214
36389W        W  146  10.651  21.081   2.832
36390W        W  147  24.702   2.795  10.528
36391W        W  148  22.629  16.601  14.337
36392W        W  149  26.098  33.919  10.935
36393W        W  150  38.932  36.526  14.486
36394W        W  151  17.782  44.409  10.469
36395W        W  152   1.807  38.526  11.076
36396W        W  153  15.174  15.813   0.933
36397W        W  154   1.943   9.204  13.429
36398W        W  155  38.488  25.193  13.848
36399W        W  156  38.358  20.268   1.905
36400W        W  157  34.392  34.407   4.606
36401W        W  158  12.288  14.181   1.839
36402W        W  159  36.850  40.944   1.768
36403W        W  160  29.957  11.334   0.411
36404W        W  161  35.980  15.150   4.264
36405W        W  162  29.451   7.305  10.632
36406W        W  163  12.743  41.300  12.564
36407W        W  164   6.784   1.808   3.202
36408W        W  165   5.799  11.800  14.808
36409W        W  166   7.678   4.911  10.928
36410W        W  167   7.808  34.119   4.787
36411W        W  168   9.184  41.499  14.390
36412W        W  169  25.493  24.991   3.255
36413W        W  170  20.717  16.317  14.340
36414W        W  171  27.056  23.064   3.683
36415W        W  172  37.361  41.349  12.918
36416W        W  173   0.369  15.154  12.495
36417W        W  174  33.100   5.722  14.840
36418W        W  175  24.641   3.250  12.383
36419W        W  176  26.171   0.747   2.345
36420W        W  177  10.861  20.119  12.904
36421W        W  178  17.160  35.960   3.197
36422W        W  179  21.527  14.112  11.107
36423W        W  180   8.821   2.933   4.165
36424W        W  181  41.002   2.247   9.653
36425W        W  182  29.115  23.011  12.464
36426W        W  183  41.499  40.434   3.680
36427W        W  184  28.132   0.486   4.202
36428W        W  185  15.092  43.829   1.917
36429W        W  186  42.962  10.805  14.483
36430W        W  187   1.754  35.599  11.969
36431W        W  188  32.444  37.579   0.734
36432W        W  189  40.406   8.355  12.934
36433W        W  190  25.121  10.200   4.736
36434W        W  191  11.726  30.653   9.971
36435W        W  192  34.985  16.601   3.347
36436W        W  193  24.204  34.871   3.362
36437W        W  194  25.133  15.809   1.697
36438W        W  195  28.639   8.315  10.439
36439W        W  196  26.703  30.497   4.678
36440W        W  197  42.884  43.459  11.376
36441W        W  198  33.542   4.312   1.771
36442W        W  199  22.085  20.149   4.342
36443W        W  200  35.053  37.340   1.357
36444W        W  201  24.699  14.811   3.731
36445W        W  202   5.880  16.257  10.911
36446W        W  203  20.739  37.962   1.370
36447W        W  204  35.572  10.271   4.321
36448W        W  205  18.064  39.956  10.429
36449W        W  206  22.641   1.444  14.375
36450W        W  207  31.508  20.244  14.866
36451W        W  208   5.404  35.469  14.290
36452W        W  209   5.875  27.089   2.228
36453W        W  210   4.785  33.119   4.177
36454W        W  211  37.055  16.081   2.182
36455W        W  212  21.690   9.698  13.497
36456W        W  213  38.063   6.418   1.713
36457W        W  214  28.131  43.452  13.896
36458W        W  215   3.456  24.591   3.161
36459W        W  216  40.953  28.588  12.437
36460W        W  217  42.299  15.727  14.014
36461W        W  218   5.802  31.120  11.036
36462W        W  219  19.094  27.617  13.043
36463W        W  220   5.861   1.257   0.810
36464W        W  221  25.117  25.517   2.362
36465W        W  222  39.395  36.898  10.968
36466W        W  223  26.561  20.549  10.492
36467W        W  224  41.831  41.303   2.381
36468W        W  225  12.219  15.695  11.977
36469W        W  226  33.116  40.453   1.277
36470W        W  227  23.169  31.629  13.825
36471W        W  228  22.191  37.531   4.612
36472W        W  229  33.088   0.418   4.258
36473W        W  230  35.595  38.345  11.391
36474W        W  231  31.442  15.130  10.419
36475W        W  232   5.795   8.878   4.336
36476W        W  233  34.419   0.786   3.229
36477W        W  234  21.607  32.463  13.366
36478W        W  235  12.323  22.545  10.093
36479W        W  236  23.508  12.157   4.151
36480W        W  237   5.402   3.343   3.193
36481W        W  238  19.557  38.340  12.027
36482W        W  239   2.851  27.492   3.340
36483W        W  240  34.074  15.269   1.871
36484W        W  241  13.689  39.983  10.545
36485W        W  242  28.593  16.131   5.654
36486W        W  243  18.745  19.635   0.891
36487W        W  244  26.057  15.715   4.289
36488W        W  245  27.538  39.452  14.289
36489W        W  246   2.875  19.121   2.896
36490W        W  247   5.783  10.231  12.942
36491W        W  248  30.595  20.055  12.975
36492W        W  249  31.110  21.536  13.971
36493W        W  250   0.370  23.174   0.303
36494W        W  251  41.801  30.021   2.691
36495W        W  252  41.378  13.623  11.391
36496W        W  253  19.199  24.029  10.606
36497W        W  254   7.337  28.560  12.447
36498W        W  255  20.202  22.067  14.990
36499W        W  256  11.848  11.146   1.300
36500W        W  257  37.499  43.957  12.567
36501W        W  258  16.087  20.223   2.253
36502W        W  259  35.406  21.516  12.825
36503W        W  260  31.427   2.840  12.484
36504W        W  261  38.927  35.907  14.343
36505W        W  262  34.518   1.810   3.151
36506W        W  263  32.103   0.851   0.844
36507W        W  264  36.071  15.125   1.348
36508W        W  265   8.351  22.582   1.927
36509W        W  266  42.838  16.137  11.872
36510W        W  267   7.812  37.456   4.114
36511W        W  268  14.187  23.561  13.349
36512W        W  269  32.442  30.431   3.213
36513W        W  270  22.100  28.585   1.794
36514W        W  271  39.513  26.149  10.423
36515W        W  272  32.453   8.718   4.174
36516W        W  273  35.465  22.644  12.003
36517W        W  274  31.581  37.033  10.898
36518W        W  275  20.085  13.310  11.882
36519W        W  276  36.429  18.234   1.282
36520W        W  277  17.780  22.097  11.604
36521W        W  278  32.440  30.435   5.226
36522W        W  279  18.287  21.153  12.474
36523W        W  280   1.807  36.549  13.422
36524W        W  281   6.756  29.652  12.924
36525W        W  282  12.292  40.841  13.931
36526W        W  283  35.082   9.890  12.079
36527W        W  284  15.711  16.089  11.401
36528W        W  285  41.320  43.345  13.853
36529W        W  286  30.161   4.906   1.265
36530W        W  287  16.132   8.892  11.536
36531W        W  288  34.481  29.550  10.626
36532W        W  289  32.911  39.921   2.725
36533W        W  290  42.340  37.011   2.320
36534W        W  291  19.186  29.036   3.844
36535W        W  292  19.042   1.818   0.452
36536W        W  293   6.782   3.722   4.637
36537W        W  294   1.314  22.995   3.236
36538W        W  295  18.138  17.562  10.912
36539W        W  296  30.568   5.895  12.406
36540W        W  297  23.622   8.731   1.722
36541W        W  298  16.639   7.884   1.772
36542W        W  299  34.522  34.950   0.810
36543W        W  300  12.358  39.436  11.036
36544W        W  301   0.354  20.201  12.485
36545W        W  302  24.686   8.232  12.871
36546W        W  303  10.282   3.328  10.571
36547W        W  304   1.258  44.843  11.460
36548W        W  305   9.783  23.687   2.844
36549W        W  306  44.427  25.501   0.934
36550W        W  307  35.581  26.124  11.863
36551W        W  308  35.410  20.711  13.500
36552W        W  309  34.395  19.284   0.834
36553W        W  310  23.678   6.725  11.588
36554W        W  311  15.773  35.951  13.014
36555W        W  312   1.390   2.951  10.449
36556W        W  313   1.823  44.449  10.903
36557W        W  314  20.557  11.139   1.768
36558W        W  315  35.906  33.927  13.883
36559W        W  316   4.320  15.088   2.682
36560W        W  317   3.745  12.677  11.496
36561W        W  318  40.934  32.616   3.775
36562W        W  319  25.077  32.057  14.461
36563W        W  320  14.259   7.196  11.971
36564W        W  321  42.443  20.200   2.297
36565W        W  322  44.406  11.763  11.507
36566W        W  323  36.369   4.727  13.956
36567W        W  324  41.325   1.358   0.737
36568W        W  325  10.814  21.594  12.548
36569W        W  326  33.061  44.440  14.324
36570W        W  327  13.238  22.741   0.859
36571W        W  328  25.619  36.868   1.932
36572W        W  329   5.347  27.461  13.840
36573W        W  330  27.504  21.222  11.018
36574W        W  331  37.033  31.946   3.863
36575W        W  332  28.598  39.518   3.718
36576W        W  333  35.110  14.251  13.027
36577W        W  334   9.742  42.465  13.374
36578W        W  335  26.030  15.175  14.398
36579W        W  336   2.846   0.922   2.851
36580W        W  337  16.715  44.771   2.677
36581W        W  338  15.702  15.611  10.498
36582W        W  339  12.773  12.751   0.308
36583W        W  340  40.857  29.527  14.461
36584W        W  341  17.611  21.067   0.409
36585W        W  342  22.188  27.999  13.881
36586W        W  343   8.298  24.698   2.849
36587W        W  344   7.174  12.771   4.642
36588W        W  345  18.142  26.990  12.394
36589W        W  346  34.939  29.066   9.922
36590W        W  347  43.432   8.377   3.211
36591W        W  348  23.047  32.626   1.724
36592W        W  349   7.764  10.748  11.079
36593W        W  350  24.135  35.944   9.968
36594W        W  351  35.993   1.799   1.406
36595W        W  352   2.319  15.675   5.309
36596W        W  353  36.399  37.844  10.610
36597W        W  354   4.388  13.248  14.943
36598W        W  355  42.482  19.773  13.327
36599W        W  356  21.106   4.912  12.999
36600W        W  357   3.230  16.769   4.788
36601W        W  358  30.532  44.863   3.688
36602W        W  359  43.471  25.543   0.314
36603W        W  360  13.259  41.350  14.023
36604W        W  361   9.173  26.197  12.031
36605W        W  362  14.632   8.720  10.136
36606W        W  363  10.665  29.647   0.960
36607W        W  364  11.341  14.606   3.302
36608W        W  365   1.947  33.452   1.843
36609W        W  366  42.411  39.358   0.883
36610W        W  367  35.546  11.312  12.378
36611W        W  368  28.455  26.999  11.934
36612W        W  369   2.790  35.399   3.159
36613W        W  370  14.655  10.765  14.810
36614W        W  371  20.205  29.602  13.050
36615W        W  372  33.087  18.734   4.259
36616W        W  373  26.698  21.515   5.643
36617W        W  374  20.556  15.201   0.794
36618W        W  375  17.168  27.536  11.089
36619W        W  376  20.668   2.402  13.025
36620W        W  377   2.377  24.497   3.338
36621W        W  378  36.087  40.972   3.831
36622W        W  379  36.470   9.888  14.932
36623W        W  380  34.594  29.170   1.422
36624W        W  381  34.470  38.385  13.477
36625W        W  382  19.534  43.952  10.418
36626W        W  383  27.558  22.521   4.151
36627W        W  384  43.421  32.612   0.731
36628W        W  385   3.421   3.295  12.909
36629W        W  386  22.181  28.943  10.607
36630W        W  387   5.237   5.353   1.254
36631W        W  388  34.932  23.160  14.324
36632W        W  389  39.814  14.201  11.022
36633W        W  390   5.800  14.158  14.923
36634W        W  391  18.582  39.878   4.319
36635W        W  392   3.257  20.105   3.680
36636W        W  393  10.167  24.672  11.517
36637W        W  394  26.958   5.713  11.123
36638W        W  395  39.982  13.182   3.748
36639W        W  396  31.936  26.190   1.721
36640W        W  397  12.648  30.420  14.959
36641W        W  398  22.034   7.277  12.074
36642W        W  399  23.237   1.849  14.287
36643W        W  400  18.096   5.211   2.358
36644W        W  401  10.722  33.620   1.410
36645W        W  402  22.726  32.007   2.418
36646W        W  403  22.120  33.911   3.841
36647W        W  404   8.727  35.532  12.486
36648W        W  405  14.109  35.017  14.978
36649W        W  406  31.138  22.720   1.294
36650W        W  407  10.645  33.954   0.334
36651W        W  408  13.697  29.154  11.585
36652W        W  409   5.717  32.101  13.529
36653W        W  410  16.729  10.823  13.436
36654W        W  411  21.055  21.232   1.245
36655W        W  412  29.661  19.683   1.696
36656W        W  413  10.183  30.533   2.687
36657W        W  414  10.280  18.605   5.082
36658W        W  415  17.167   1.460   2.712
36659W        W  416  37.576  39.997  11.021
36660W        W  417  39.482   9.372  13.397
36661W        W  418  10.271   5.746   4.796
36662W        W  419   4.252   0.287   0.759
36663W        W  420   3.430  24.720  12.036
36664W        W  421  37.000  32.442  13.356
36665W        W  422  19.575  41.407   3.287
36666W        W  423  18.218  23.593  11.513
36667W        W  424  21.526  36.024   5.599
36668W        W  425  20.114  35.065  13.050
36669W        W  426  24.505  15.714  13.866
36670W        W  427  26.470  10.797  14.893
36671W        W  428  18.784   8.275  11.470
36672W        W  429  16.702  41.044   1.887
36673W        W  430  39.441  32.941   4.217
36674W        W  431  40.805   3.850   3.207
36675W        W  432  39.956  19.626   2.292
36676W        W  433  26.676  13.169   4.660
36677W        W  434  18.086  27.493  13.028
36678W        W  435  22.086  10.712   4.824
36679W        W  436  27.051  37.882  14.503
36680W        W  437  15.819  34.442  12.502
36681W        W  438  37.076  33.478   2.743
36682W        W  439  19.169  10.735   3.726
36683W        W  440  18.253   5.719   0.395
36684W        W  441   9.687   2.966   2.682
36685W        W  442  43.428  30.571   2.825
36686W        W  443  16.116  31.934   0.797
36687W        W  444  10.867  18.687   4.731
36688W        W  445   1.275   9.197   3.861
36689W        W  446  24.533  23.135   1.298
36690W        W  447  11.129  21.751   4.218
36691W        W  448  21.587  20.524  14.853
36692W        W  449  14.793  22.173   2.822
36693W        W  450   8.313  13.298   3.188
36694W        W  451  13.215  27.522  13.980
36695W        W  452   4.762   7.413   0.967
36696W        W  453   1.350   8.710   4.629
36697W        W  454  40.962   2.838   3.204
36698W        W  455  22.227  12.127  14.338
36699W        W  456  24.510  11.336  12.407
36700W        W  457  27.619  12.348  11.534
36701W        W  458  13.278  30.005   4.680
36702W        W  459  21.160   6.846   1.872
36703W        W  460  19.578   6.265   1.367
36704W        W  461  41.004  35.514   3.319
36705W        W  462  42.979  26.042  10.939
36706W        W  463  37.510  40.858   3.325
36707W        W  464   4.892  13.758   4.770
36708W        W  465  32.393  24.149  13.938
36709W        W  466  38.964   2.367   0.465
36710W        W  467   8.869  13.685   1.315
36711W        W  468  13.115  23.028   4.610
36712W        W  469  35.962  36.851   0.335
36713W        W  470  34.443  38.945   0.415
36714W        W  471  40.335  36.051   2.322
36715W        W  472  30.147   5.688   1.899
36716W        W  473  23.594  37.351   5.200
36717W        W  474  19.210   6.190  10.641
36718W        W  475  18.725  21.584   2.861
36719W        W  476  34.971  44.353   1.731
36720W        W  477   6.778  36.377   0.309
36721W        W  478  44.349   9.763  11.456
36722W        W  479   4.856  32.593   0.951
36723W        W  480   9.850  35.016  12.900
36724W        W  481   9.770  18.295  13.442
36725W        W  482  37.541   2.414  14.486
36726W        W  483  13.747  11.188   3.268
36727W        W  484  43.321   3.729  13.928
36728W        W  485  23.674  29.469   1.290
36729W        W  486   6.359  11.844   3.846
36730W        W  487  31.079  26.601  10.632
36731W        W  488  35.054  18.058  13.508
36732W        W  489  25.599  39.888   2.713
36733W        W  490   9.878  24.523   0.941
36734W        W  491  15.167   5.734   0.936
36735W        W  492  35.070  24.653   1.280
36736W        W  493  15.787  31.479   4.161
36737W        W  494  27.161   7.190  12.066
36738W        W  495  36.410  43.915   2.188
36739W        W  496  30.483   5.400  14.765
36740W        W  497   0.434  35.938   4.115
36741W        W  498  33.538  12.724  14.825
36742W        W  499  42.912  34.613  13.353
36743W        W  500   1.822  29.622   3.192
36744W        W  501   1.450  36.041  12.882
36745W        W  502   7.698  16.180  13.041
36746W        W  503  31.016   5.426   3.847
36747W        W  504  26.970  23.669   1.422
36748W        W  505  10.796  18.229   2.866
36749W        W  506   7.846  25.138   4.619
36750W        W  507   5.699  23.016  11.094
36751W        W  508  24.659  39.979  10.896
36752W        W  509   5.931  30.020   3.677
36753W        W  510  36.853  38.562   1.429
36754W        W  511  28.007  25.693   3.732
36755W        W  512   0.464  21.236  14.493
36756W        W  513   6.423  15.708   3.196
36757W        W  514  39.540  37.417   5.234
36758W        W  515  36.951  10.316   3.198
36759W        W  516  18.770  42.026   2.282
36760W        W  517  21.531   0.743  13.992
36761W        W  518  43.469  18.549  14.320
36762W        W  519  40.520  32.405  11.917
36763W        W  520   9.359  30.551   0.861
36764W        W  521   1.971   0.861  11.407
36765W        W  522  25.155  20.735  11.428
36766W        W  523  33.881  21.093  13.048
36767W        W  524  14.654  22.717  10.942
36768W        W  525  42.822   2.869  12.008
36769W        W  526  33.441  20.765  13.444
36770W        W  527  23.649   9.297   4.330
36771W        W  528  22.554  17.680  10.534
36772W        W  529  24.091  44.969   1.319
36773W        W  530  35.017  34.600   1.830
36774W        W  531  30.046  42.333   3.379
36775W        W  532  17.649  12.288   0.805
36776W        W  533  43.473  21.692  14.499
36777W        W  534  25.637   8.170   3.751
36778W        W  535   5.920  30.585  14.000
36779W        W  536  12.850  21.057   0.257
36780W        W  537  36.007  17.604  14.013
36781W        W  538   3.782  32.454  12.072
36782W        W  539  20.677   8.690  12.062
36783W        W  540  18.596  31.997  12.872
36784W        W  541  33.978   1.785  13.477
36785W        W  542  14.642  21.131   5.123
36786W        W  543  43.820  38.360  10.994
36787W        W  544  42.472  33.524   1.768
36788W        W  545  35.917   3.870  14.765
36789W        W  546  18.739   9.678  12.573
36790W        W  547   2.263  20.140   4.808
36791W        W  548  33.876  31.903  13.980
36792W        W  549  21.151  34.064  13.059
36793W        W  550   7.878  39.992   4.787
36794W        W  551  43.490  31.464   1.225
36795W        W  552  15.277  33.908   1.716
36796W        W  553  35.910  35.493  13.062
36797W        W  554  14.196  31.415  12.422
36798W        W  555  36.905   5.395  11.579
36799W        W  556  31.418  27.565  12.545
36800W        W  557   4.830  37.422  10.133
36801W        W  558  26.551  26.560  11.396
36802W        W  559  28.678   2.344   1.211
36803W        W  560   8.733   6.377  13.323
36804W        W  561  27.034  26.628  11.913
36805W        W  562  31.912   0.949  14.024
36806W        W  563   1.319  28.084  12.915
36807W        W  564  17.252  27.195   0.259
36808W        W  565   1.427  20.029   4.686
36809W        W  566  22.238  44.964   0.901
36810W        W  567  37.889   0.344   9.980
36811W        W  568  20.111  23.634  11.577
36812W        W  569   0.776   5.291   2.407
36813W        W  570  36.912   5.314   0.848
36814W        W  571  31.902  11.372  11.064
36815W        W  572  38.044  44.450  11.409
36816W        W  573   7.367  35.601  12.962
36817W        W  574   0.900  42.409   0.252
36818W        W  575  30.094  38.358  11.005
36819W        W  576   1.773  17.061  14.291
36820W        W  577  39.554  42.413   1.222
36821W        W  578   5.730  39.032  12.052
36822W        W  579  11.219  22.220   0.942
36823W        W  580  29.087  29.961  14.912
36824W        W  581  36.427  37.929   0.873
36825W        W  582  31.104  38.852  10.456
36826W        W  583   1.477  40.001   0.853
36827W        W  584  20.701  41.842  14.320
36828W        W  585  43.887  19.095  11.910
36829W        W  586  41.010   0.271   0.481
36830W        W  587  24.721   8.212   2.797
36831W        W  588  37.831  26.170  12.457
36832W        W  589  41.817  37.834  14.408
36833W        W  590   9.326  27.630  14.924
36834W        W  591  21.535  18.685   2.364
36835W        W  592  26.176  29.562  11.949
36836W        W  593  40.526  42.317   1.362
36837W        W  594  35.377   9.658  13.055
36838W        W  595  38.541  28.049  13.030
36839W        W  596  37.566   7.731   0.270
36840W        W  597  29.614  13.617   4.681
36841W        W  598   5.385  31.010   1.222
36842W        W  599  33.572  34.964  11.398
36843W        W  600  29.918  42.886  11.419
36844W        W  601  37.356  25.471  11.025
36845W        W  602  40.923  19.191   3.749
36846W        W  603  18.130  15.104   4.748
36847W        W  604  27.030   3.753   3.169
36848W        W  605  10.158   1.299  12.413
36849W        W  606   9.658   1.275  13.509
36850W        W  607  32.484  32.140  13.035
36851W        W  608  13.140  35.518  10.997
36852W        W  609  34.032  30.028  11.508
36853W        W  610  12.618   2.924  10.553
36854W        W  611  13.320  17.698  11.437
36855W        W  612  30.543  43.846   3.359
36856W        W  613  18.603  29.015   2.414
36857W        W  614  25.705   0.374  13.480
36858W        W  615  42.935  40.018   2.755
36859W        W  616   7.350  42.314   2.316
36860W        W  617  16.801  33.443   4.688
36861W        W  618  43.861  18.227  12.457
36862W        W  619   7.290  30.999  12.085
36863W        W  620  33.531   5.863   3.837
36864W        W  621   3.307  15.806  10.619
36865W        W  622   8.180  13.172  11.600
36866W        W  623   9.740  17.668   0.730
36867W        W  624  14.250   2.304   3.833
36868W        W  625  17.766   1.307   2.284
36869W        W  626  36.551   6.757   3.157
36870W        W  627  28.102   2.862   4.121
36871W        W  628   3.756  15.801   4.294
36872W        W  629  26.109   2.949   1.355
36873W        W  630  18.214  12.744  14.446
36874W        W  631  25.121  42.896  11.038
36875W        W  632  39.938  42.363  13.012
36876W        W  633   1.407  10.350  13.427
36877W        W  634  17.572   5.864   2.273
36878W        W  635  10.641  32.888  12.407
36879W        W  636  31.565  32.122  12.513
36880W        W  637  43.324  21.146  12.843
36881W        W  638   6.410  39.834  14.808
36882W        W  639   0.770   3.235   1.414
36883W        W  640  12.673  30.438  13.428
36884W        W  641  42.957  33.445   3.193
36885W        W  642  24.056  42.793   4.255
36886W        W  643  43.390  39.441  10.989
36887W        W  644  41.856   7.666  10.561
36888W        W  645  10.776  40.877  10.531
36889W        W  646  39.495  40.342  10.599
36890W        W  647  27.121  29.936   3.206
36891W        W  648  28.938  21.708  14.340
36892W        W  649  17.216  44.347   3.197
36893W        W  650  38.992  40.430  11.985
36894W        W  651  37.832  23.718   5.162
36895W        W  652  13.222  10.171   4.282
36896W        W  653  14.277  18.290  14.792
36897W        W  654  31.409  27.574   4.213
36898W        W  655  21.722  27.160   1.797
36899W        W  656  38.485  15.596  10.926
36900W        W  657  35.452   2.250  10.916
36901W        W  658  22.054  29.518  13.839
36902W        W  659  44.856  33.946   2.677
36903W        W  660  25.686  29.501   2.691
36904W        W  661   5.295  38.335   1.424
36905W        W  662  11.319  26.086  12.858
36906W        W  663   1.934   8.863  11.414
36907W        W  664  29.131  14.786  12.434
36908W        W  665  31.152   0.802   3.319
36909W        W  666  41.799  37.484   3.165
36910W        W  667  40.375  11.140   1.295
36911W        W  668  10.837  35.975  13.414
36912W        W  669  30.615  44.836   1.817
36913W        W  670  41.298   1.271   0.261
36914W        W  671  32.595  43.920   1.791
36915W        W  672  11.831  41.002  13.896
36916W        W  673  27.683   8.839   2.787
36917W        W  674  38.560   3.281  10.626
36918W        W  675  32.614  44.784   0.349
36919W        W  676   6.764  26.457  10.506
36920W        W  677  43.999  15.684  12.458
36921W        W  678  18.679   7.707  14.936
36922W        W  679  19.051  38.890   1.701
36923W        W  680  23.084  13.778  14.331
36924W        W  681  25.502  19.271  13.436
36925W        W  682   8.274  30.922  14.410
36926W        W  683  29.599  19.193  12.050
36927W        W  684  31.477  37.918   2.292
36928W        W  685  15.187  23.088  11.527
36929W        W  686  23.997  10.768   1.338
36930W        W  687  19.111   3.455   2.209
36931W        W  688  39.956   9.806   1.264
36932W        W  689  14.309  15.798   2.827
36933W        W  690  35.931  17.751   1.855
36934W        W  691  21.125  27.164   1.759
36935W        W  692  16.188  29.080   2.745
36936W        W  693   5.768  15.747  14.364
36937W        W  694  27.067  27.506  10.965
36938W        W  695  32.474  37.493   5.219
36939W        W  696   7.798  42.991  10.410
36940W        W  697  38.995  16.619   3.801
36941W        W  698   3.721   2.801  12.359
36942W        W  699  21.592  11.193   1.866
36943W        W  700  33.590   7.203  13.500
36944W        W  701  13.154  14.607  13.316
36945W        W  702  39.005   1.422  12.923
36946W        W  703   2.818  17.193   2.278
36947W        W  704  43.951  19.282   3.214
36948W        W  705  36.454   7.693  10.966
36949W        W  706  25.015  19.608  10.517
36950W        W  707  20.076   4.725  14.285
36951W        W  708   6.834  30.073  13.421
36952W        W  709  39.995  37.896   0.479
36953W        W  710  40.494   7.390  12.446
36954W        W  711  23.650  37.061  11.528
36955W        W  712  25.543  36.944   3.208
36956W        W  713  21.162  36.049   9.448
36957W        W  714  30.618  27.060   0.287
36958W        W  715  37.482  23.067   0.263
36959W        W  716  38.560  18.571  12.460
36960W        W  717  29.143   6.427   1.824
36961W        W  718  32.499   5.425   2.752
36962W        W  719  30.161  37.362  11.074
36963W        W  720   2.284  25.669  10.561
36964W        W  721  41.842   4.310  11.058
36965W        W  722  10.212  14.730  14.406
36966W        W  723   2.814  23.162   3.367
36967W        W  724  22.696  37.934  14.303
36968W        W  725  11.697   8.269  13.495
36969W        W  726  31.497  35.532  10.986
36970W        W  727  30.068  24.183  12.873
36971W        W  728   9.213  10.167  12.453
36972W        W  729   7.406   2.315   4.332
36973W        W  730  19.114  21.753  12.367
36974W        W  731   7.717  34.990  12.531
36975W        W  732   4.880  40.316   1.332
36976W        W  733  21.752  13.196   4.229
36977W        W  734  26.567   5.921   4.808
36978W        W  735  19.555  35.039  14.031
36979W        W  736  30.540   5.335   2.308
36980W        W  737  12.662  20.592  11.049
36981W        W  738  26.610  11.778  10.545
36982W        W  739  18.266  36.514   9.978
36983W        W  740  28.503   6.818  10.955
36984W        W  741   0.488  41.979  12.360
36985W        W  742  40.316  40.342   1.794
36986W        W  743  29.155  25.210  12.886
36987W        W  744  30.992  11.333  14.969
36988W        W  745  37.348  14.802  10.941
36989W        W  746  36.409  37.981  13.475
36990W        W  747  25.622   5.779   2.254
36991W        W  748  22.109   8.338  12.340
36992W        W  749   6.385  23.661   3.202
36993W        W  750  33.587  20.642   0.268
36994W        W  751  13.176   8.843   1.727
36995W        W  752  25.126  27.068   2.814
36996W        W  753  33.941   5.233   0.949
36997W        W  754  40.000  16.765   1.826
36998W        W  755  44.355  16.717   1.352
36999W        W  756  21.520  16.293  14.859
37000W        W  757  13.307  10.680  11.997
37001W        W  758  30.584   1.946   0.246
37002W        W  759  25.135  12.314  11.895
37003W        W  760  26.653  38.860   4.207
37004W        W  761   2.854  28.619  13.491
37005W        W  762   6.206  22.607  10.434
37006W        W  763   8.781  26.198   4.732
37007W        W  764  40.452  19.778  11.571
37008W        W  765  17.602  28.177  14.415
37009W        W  766  37.038  27.137  14.999
37010W        W  767   1.800  44.958  13.031
37011W        W  768  17.631   8.709  11.473
37012W        W  769  12.837  13.196  14.876
37013W        W  770  42.369  16.627  12.836
37014W        W  771  15.645  37.533  13.535
37015W        W  772  11.298  43.008  10.635
37016W        W  773  19.066  41.435  12.907
37017W        W  774  31.962  43.968  12.867
37018W        W  775  43.455  16.273  14.387
37019W        W  776   8.299  15.770   1.723
37020W        W  777  30.055  30.567   4.154
37021W        W  778   8.372  37.002   1.392
37022W        W  779  28.992  25.087   4.233
37023W        W  780  15.287  39.966   0.368
37024W        W  781  42.784  14.247  11.938
37025W        W  782  42.030  21.526  13.984
37026W        W  783  35.380  15.293  13.941
37027W        W  784  24.168  13.350  11.434
37028W        W  785  25.649  34.053  12.958
37029W        W  786  19.720  14.719   1.789
37030W        W  787  30.932  29.593   2.400
37031W        W  788  33.091  35.007   2.896
37032W        W  789   3.889  42.500  10.109
37033W        W  790  24.542  24.025  14.316
37034W        W  791  34.042  32.106   3.652
37035W        W  792  38.949  10.284  14.845
37036W        W  793  11.639  37.979   2.857
37037W        W  794   3.422  32.629  13.422
37038W        W  795  31.936  27.090  14.456
37039W        W  796   5.699  39.417   5.797
37040W        W  797  23.236  35.892  10.493
37041W        W  798  34.098  23.570   0.302
37042W        W  799   7.355   6.335  10.475
37043W        W  800  24.637  22.543  12.953
37044W        W  801  28.159  17.087   3.313
37045W        W  802  25.675  24.104   3.145
37046W        W  803  16.684  37.390  14.800
37047W        W  804  37.553  20.174  11.060
37048W        W  805  25.609  34.026  12.064
37049W        W  806  24.212   0.334   1.338
37050W        W  807   6.822  10.736  10.477
37051W        W  808  25.683  26.495   1.413
37052W        W  809  12.213  23.240   0.785
37053W        W  810   8.848  40.026  13.015
37054W        W  811   7.901  22.076  14.860
37055W        W  812  42.896  32.589  14.833
37056W        W  813  13.281  20.593  14.873
37057W        W  814  18.699  19.105   3.845
37058W        W  815  29.585   8.666  14.873
37059W        W  816  15.222  43.388  11.095
37060W        W  817  28.546  17.730  11.067
37061W        W  818  17.084  35.459  14.900
37062W        W  819   9.277  38.021  11.981
37063W        W  820   9.696  29.993   2.363
37064W        W  821  12.806  34.497  12.853
37065W        W  822  35.472  23.631  14.825
37066W        W  823  28.965  11.840   1.230
37067W        W  824  44.303  39.436   4.829
37068W        W  825  29.560   2.468   0.453
37069W        W  826  14.609  23.042   2.898
37070W        W  827  37.363  20.692   0.837
37071W        W  828  21.642   2.784   2.232
37072W        W  829  28.050  20.237   3.695
37073W        W  830  30.464  20.135  10.576
37074W        W  831  17.244  20.534   1.921
37075W        W  832  44.446  23.618  10.936
37076W        W  833  23.208  23.643  13.884
37077W        W  834   0.910  37.995  12.410
37078W        W  835  44.405   9.828  13.477
37079W        W  836  40.020  14.596   0.413
37080W        W  837   9.745  25.704   3.173
37081W        W  838  39.464  25.501  11.547
37082W        W  839  43.389  13.191   1.850
37083W        W  840  32.943  37.458   4.181
37084W        W  841  19.602  43.812   0.882
37085W        W  842  42.826   2.338   4.270
37086W        W  843  39.552  33.587  10.527
37087W        W  844  13.253  14.270   1.370
37088W        W  845  40.362  38.979   2.793
37089W        W  846  22.131  10.827  13.036
37090W        W  847  15.810  39.477   0.776
37091W        W  848   6.326  36.429   4.643
37092W        W  849  38.990  25.123  10.093
37093W        W  850   6.400  26.037   0.462
37094W        W  851   0.889  23.566  11.383
37095W        W  852  24.992  17.576   4.733
37096W        W  853  23.127  36.523   2.816
37097W        W  854  22.650   4.300   0.932
37098W        W  855  36.365  22.666  13.467
37099W        W  856  34.887  31.447  10.895
37100W        W  857   2.914  14.619   3.234
37101W        W  858  39.487  38.982   4.722
37102W        W  859  27.573  19.659  12.393
37103W        W  860  44.864  18.767  14.461
37104W        W  861  23.603  40.492  11.600
37105W        W  862  43.494   2.262   3.301
37106W        W  863  25.976  15.630   0.934
37107W        W  864  27.478  43.341  12.046
37108W        W  865  31.636   2.340   9.555
37109W        W  866  38.438  30.551   1.809
37110W        W  867  43.334  34.510   3.318
37111W        W  868   4.890   8.861   4.313
37112W        W  869  33.458   6.768  12.402
37113W        W  870  22.529  20.764   4.766
37114W        W  871  27.653   9.855   3.791
37115W        W  872  36.384  35.982   2.867
37116W        W  873  35.916  21.130  10.535
37117W        W  874   2.419   9.814   2.792
37118W        W  875  26.643  43.442  12.467
37119W        W  876  39.835   4.245  10.505
37120W        W  877  21.093  25.971   4.202
37121W        W  878  21.143  26.097   2.747
37122W        W  879  11.680  34.026  11.478
37123W        W  880  12.789  21.635   4.732
37124W        W  881  42.794   7.327   3.711
37125W        W  882  17.210   3.860   2.740
37126W        W  883  35.955  26.677  13.472
37127W        W  884  15.273  43.932  13.005
37128W        W  885   3.953   9.725  10.943
37129W        W  886  16.251  32.563   1.295
37130W        W  887  12.308  10.220  13.520
37131W        W  888  20.100  26.543  13.392
37132W        W  889   4.851  34.950   0.907
37133W        W  890  12.322   7.792   3.347
37134W        W  891   0.277  32.419   0.458
37135W        W  892  15.582  13.187  12.055
37136W        W  893   4.446  15.129  13.410
37137W        W  894   4.368  42.797  13.486
37138W        W  895  41.420  23.058   3.776
37139W        W  896  33.070  30.117  10.494
37140W        W  897  40.522  42.981   4.264
37141W        W  898  18.165  44.426  14.505
37142W        W  899  40.839  21.726   2.383
37143W        W  900   0.970  35.997  11.408
37144W        W  901  32.497  24.548   0.809
37145W        W  902  26.464  24.115   4.622
37146W        W  903  22.072  39.927   2.220
37147W        W  904  22.206  18.604  14.309
37148W        W  905  38.005  21.701   0.428
37149W        W  906  34.376   8.664  13.900
37150W        W  907  12.332  21.184   4.312
37151W        W  908  13.325  21.246  11.399
37152W        W  909  15.662   2.902   9.979
37153W        W  910  37.498  39.995   2.704
37154W        W  911  39.524  19.679  14.477
37155W        W  912  36.366  23.491   2.262
37156W        W  913  21.725  44.480  13.477
37157W        W  914   7.735   3.847   3.856
37158W        W  915  12.695  38.409  12.090
37159W        W  916  35.009  19.064  11.067
37160W        W  917  25.521  21.529   1.384
37161W        W  918   7.786  41.476   3.861
37162W        W  919  29.654  41.851  11.893
37163W        W  920  24.575  36.036   1.826
37164W        W  921  35.458  42.985   0.957
37165W        W  922  12.758  29.542   3.357
37166W        W  923   8.686   9.781   0.421
37167W        W  924  37.939  38.348  12.431
37168W        W  925  29.100  31.048  10.516
37169W        W  926  14.632  29.601  10.973
37170W        W  927  38.831  18.738  10.108
37171W        W  928  19.239  31.048  12.383
37172W        W  929  14.772  12.277   3.336
37173W        W  930  33.050  21.610   1.899
37174W        W  931  40.800  17.205   0.927
37175W        W  932  39.513  19.673  12.544
37176W        W  933   9.219  40.543   2.747
37177W        W  934  42.823  10.299  14.785
37178W        W  935  33.495  37.405   3.168
37179W        W  936  11.654  15.621  11.446
37180W        W  937  44.871  27.615  11.866
37181W        W  938   5.196  44.340  10.556
37182W        W  939   0.248  42.029  14.317
37183W        W  940  19.076  38.861  10.943
37184W        W  941  30.992  16.599  10.013
37185W        W  942  38.506  10.684   4.785
37186W        W  943  18.296  35.935  10.102
37187W        W  944  41.297  19.629  13.935
37188W        W  945  31.538  18.288   4.638
37189W        W  946  42.511  38.407  10.945
37190W        W  947  33.101  34.589  11.039
37191W        W  948  26.509  15.705   1.849
37192W        W  949  14.800   9.778   3.287
37193W        W  950  23.190  37.994  11.440
37194W        W  951  18.561   2.882  13.357
37195W        W  952  43.511  35.937  12.381
37196W        W  953  42.887  22.731   3.327
37197W        W  954  24.136  31.435   3.856
37198W        W  955  40.870   5.847   4.292
37199W        W  956  11.351   0.297  14.483
37200W        W  957  43.514   8.840   1.289
37201W        W  958  25.652  27.026   0.465
37202W        W  959  18.590   8.717   1.777
37203W        W  960   1.814  21.184  13.318
37204W        W  961  26.652   4.264  12.464
37205W        W  962   6.861  12.767  11.095
37206W        W  963  38.358   7.202  11.048
37207W        W  964  26.014  23.520  12.016
37208W        W  965  24.541  43.359  10.999
37209W        W  966  33.580  34.476   0.296
37210W        W  967  12.289  33.950  14.908
37211W        W  968   4.255  14.315   1.890
37212W        W  969  15.629  39.341  14.483
37213W        W  970  43.380   3.750  12.441
37214W        W  971  37.020  30.940   0.853
37215W        W  972   3.312  11.632   3.386
37216W        W  973  40.930  21.708  14.499
37217W        W  974  29.529  41.435   3.288
37218W        W  975  36.356  31.005   0.461
37219W        W  976  19.582  14.615   4.155
37220W        W  977  30.608  14.698   4.785
37221W        W  978  28.151  18.644  14.817
37222W        W  979  37.069  16.240   4.655
37223W        W  980  22.034  25.683  12.095
37224W        W  981  44.407   7.676   4.186
37225W        W  982  38.469   8.248   3.263
37226W        W  983   0.262  27.646  12.855
37227W        W  984  29.528  35.859   0.406
37228W        W  985  12.142  25.630  14.790
37229W        W  986   2.428  37.847   0.813
37230W        W  987  15.620  39.839   2.412
37231W        W  988  14.773  34.040  10.495
37232W        W  989  10.215  13.781   4.703
37233W        W  990  38.451   9.391   2.275
37234W        W  991  16.682  26.693   1.280
37235W        W  992   2.281  24.672  13.894
37236W        W  993   3.419  17.792   0.783
37237W        W  994  16.257  18.056  13.399
37238W        W  995  25.537  24.091  14.888
37239W        W  996  22.065   4.393   4.785
37240W        W  997  28.187  40.420  13.016
37241W        W  998  41.928  16.623  12.830
37242W        W  999  30.072  13.609  11.602
37243W        W 1000  18.553  41.983  14.964
37244W        W 1001  17.720  43.804   3.220
37245W        W 1002  41.314   8.833   0.903
37246W        W 1003  35.995  19.763   2.247
37247W        W 1004  16.719  30.458   1.306
37248W        W 1005  11.649  16.584   0.244
37249W        W 1006  34.094  25.040   1.761
37250W        W 1007   0.453  30.443  14.444
37251W        W 1008  36.404  36.396   4.202
37252W        W 1009  37.837  20.209   4.325
37253W        W 1010  20.692  28.562   1.867
37254W        W 1011  26.083   8.233   4.667
37255W        W 1012  44.440  44.805   3.808
37256W        W 1013   6.310  15.773  12.354
37257W        W 1014  14.277  37.886  11.029
37258W        W 1015   2.903  21.569  11.977
37259W        W 1016  36.857  24.572  11.564
37260W        W 1017  31.084  29.520  12.503
37261W        W 1018  32.073  36.024  13.875
37262W        W 1019  20.582  24.061   0.756
37263W        W 1020   9.861  17.133  14.858
37264W        W 1021  30.569  18.546   2.680
37265W        W 1022  31.092  29.549  10.933
37266W        W 1023  41.324  24.596   0.363
37267W        W 1024   5.224  24.182  11.451
37268W        W 1025  10.819  37.854  11.397
37269W        W 1026  32.927  18.191  11.418
37270W        W 1027  24.693   9.365  13.542
37271W        W 1028  18.739   0.472   0.414
37272W        W 1029  28.073  44.273   5.150
37273W        W 1030   8.173  28.000  13.335
37274W        W 1031  21.703  37.915  10.598
37275W        W 1032  26.500  42.433   3.789
37276W        W 1033  38.373  29.137  14.427
37277W        W 1034  34.417  11.353   1.857
37278W        W 1035   3.908   5.702  10.547
37279W        W 1036   2.437   3.442  10.981
37280W        W 1037  14.710  42.310   5.109
37281W        W 1038   5.797  23.636  13.896
37282W        W 1039  17.724  11.674   2.679
37283W        W 1040  22.027  13.674   3.690
37284W        W 1041  27.963  18.078   2.185
37285W        W 1042  14.648  33.119  14.421
37286W        W 1043  19.196  36.975  14.431
37287W        W 1044  24.479  17.120   2.718
37288W        W 1045  26.525  35.525  10.936
37289W        W 1046  27.686  23.171  14.300
37290W        W 1047  11.364  14.628   4.348
37291W        W 1048   7.728  22.647  13.518
37292W        W 1049  26.970  32.970  11.065
37293W        W 1050   6.821  16.125   3.777
37294W        W 1051   1.415  43.276  10.933
37295W        W 1052  31.968  40.866  13.391
37296W        W 1053  21.033  12.790  10.143
37297W        W 1054  22.719  44.856  12.976
37298W        W 1055  23.508  17.595  10.982
37299W        W 1056   7.847  25.978  11.534
37300W        W 1057  18.087  20.556  11.934
37301W        W 1058  20.087   0.755  10.991
37302W        W 1059   0.277   1.298  14.461
37303W        W 1060  18.142  26.967  11.470
37304W        W 1061  19.225  28.516   4.622
37305W        W 1062  22.150   6.237   1.220
37306W        W 1063  24.996   6.790   3.162
37307W        W 1064  32.631  26.205  12.410
37308W        W 1065  31.523  19.537  14.321
37309W        W 1066  13.836  42.447   2.687
37310W        W 1067  36.899  44.874   4.794
37311W        W 1068   0.813  41.872   2.399
37312W        W 1069  31.472  44.912   0.459
37313W        W 1070   1.464  35.002   1.760
37314W        W 1071  36.374  28.110  14.384
37315W        W 1072  32.108   1.940  10.152
37316W        W 1073   1.376   5.380  11.049
37317W        W 1074  31.479  23.529  10.589
37318W        W 1075  31.454  35.051   3.264
37319W        W 1076  29.140  42.981  12.028
37320W        W 1077  32.589  34.452   3.721
37321W        W 1078  42.431  35.920   2.809
37322W        W 1079  22.160  31.927  11.613
37323W        W 1080   9.838  10.725  13.813
37324W        W 1081  29.609  36.506   3.724
37325W        W 1082  28.474  26.109  14.886
37326W        W 1083  41.387   3.319   2.389
37327W        W 1084  38.964  20.652  11.531
37328W        W 1085   5.434  18.088  14.364
37329W        W 1086  34.058   0.745   4.242
37330W        W 1087  23.133  20.220  10.564
37331W        W 1088  22.577  37.451   3.723
37332W        W 1089   0.281  10.760  10.588
37333W        W 1090  35.897  32.077   1.876
37334W        W 1091  43.936  10.664  13.490
37335W        W 1092   1.408  29.168   3.357
37336W        W 1093   8.186  14.152  12.958
37337W        W 1094  34.950  21.176   4.227
37338W        W 1095   1.441  10.803  10.952
37339W        W 1096  41.499   3.747  11.092
37340W        W 1097   8.797   5.725   1.846
37341W        W 1098  40.835  33.930   0.415
37342W        W 1099   0.378  29.975   1.722
37343W        W 1100  42.911  10.765   3.630
37344W        W 1101   5.325   9.729  10.986
37345W        W 1102  31.634  18.709  14.869
37346W        W 1103  29.439   0.820   3.709
37347W        W 1104   0.298  33.554   3.788
37348W        W 1105   6.414  12.784   0.393
37349W        W 1106  40.436  26.971  11.375
37350W        W 1107  30.054  34.566   3.657
37351W        W 1108  27.671  41.498  12.572
37352W        W 1109  18.218  28.608   2.766
37353W        W 1110  34.912  36.058  13.003
37354W        W 1111  27.540  34.891  10.991
37355W        W 1112  30.058  40.021   1.365
37356W        W 1113  20.262  15.300  14.343
37357W        W 1114  39.858  32.495  12.016
37358W        W 1115  39.935   6.283  14.493
37359W        W 1116  32.967  35.043   0.408
37360W        W 1117  17.801   3.343  13.837
37361W        W 1118  36.506  20.246   1.401
37362W        W 1119  41.908  34.570   4.801
37363W        W 1120  11.724  32.886   2.664
37364W        W 1121  37.483   8.293  13.847
37365W        W 1122   9.350  22.535   4.815
37366W        W 1123  32.396  23.049   3.845
37367W        W 1124  32.911   5.873  12.419
37368W        W 1125  41.402  22.715  11.483
37369W        W 1126  36.901   2.350   0.269
37370W        W 1127  24.986  31.608  14.977
37371W        W 1128  13.791  20.628   0.411
37372W        W 1129  37.446  22.091  14.006
37373W        W 1130  41.835  15.231   1.748
37374W        W 1131  32.963  40.820  12.508
37375W        W 1132  23.210  15.702   3.673
37376W        W 1133  34.609   4.937  14.372
37377W        W 1134  40.521   1.751  12.477
37378W        W 1135  14.228  41.493   3.236
37379W        W 1136  33.549   5.813   3.333
37380W        W 1137   3.452  38.057  14.426
37381W        W 1138  15.759  17.276  13.481
37382W        W 1139  42.480  28.106   2.252
37383W        W 1140   8.751   8.373   3.640
37384W        W 1141  19.543  40.008   3.689
37385W        W 1142  43.824  33.566  14.961
37386W        W 1143  27.536  20.652   0.874
37387W        W 1144   4.255   5.399  12.449
37388W        W 1145  29.162  11.843  12.471
37389W        W 1146  26.516   5.320   3.863
37390W        W 1147  10.295  15.262   4.642
37391W        W 1148   1.772  32.010  14.491
37392W        W 1149  10.738  14.182   0.892
37393W        W 1150  21.084  25.155   1.261
37394W        W 1151   5.829  23.137   0.403
37395W        W 1152  17.699  38.941  10.492
37396W        W 1153  44.911  22.609  11.888
37397W        W 1154  15.234  15.152  14.965
37398W        W 1155  40.838   5.195  14.872
37399W        W 1156  40.378  19.092   3.655
37400W        W 1157   8.240  17.559  11.379
37401W        W 1158  37.862  15.675   2.858
37402W        W 1159   3.313  26.461   3.161
37403W        W 1160  23.716  23.123   2.353
37404W        W 1161   3.391  40.798  14.823
37405W        W 1162  18.595  35.968   2.849
37406W        W 1163   0.455  25.600   3.243
37407W        W 1164  15.283  39.995   3.177
37408W        W 1165  23.656  41.531  11.381
37409W        W 1166  35.896  44.359  11.058
37410W        W 1167  22.594  44.897  14.938
37411W        W 1168  32.493  13.791  14.883
37412W        W 1169  17.252  28.084   1.776
37413W        W 1170  16.575  37.571  10.549
37414W        W 1171  14.172  11.213   3.349
37415W        W 1172   0.319  34.426   3.170
37416W        W 1173  28.643  36.582   4.192
37417W        W 1174   4.412  21.227  11.382
37418W        W 1175  14.249  35.381   1.887
37419W        W 1176   9.294  42.331   3.378
37420W        W 1177  44.922  21.531  11.985
37421W        W 1178  41.394  17.099   2.259
37422W        W 1179  36.945  36.846  11.029
37423W        W 1180  22.068   0.489   0.858
37424W        W 1181  44.477  39.876   2.671
37425W        W 1182  43.366  37.552  13.317
37426W        W 1183  42.516  26.490   3.377
37427W        W 1184  43.775  18.242  14.414
37428W        W 1185  30.506  29.626  11.123
37429W        W 1186  20.208   6.194   0.447
37430W        W 1187  40.423  43.404   4.681
37431W        W 1188  25.663  11.237   1.260
37432W        W 1189  43.440  23.089   3.338
37433W        W 1190  23.523  35.481   1.810
37434W        W 1191  42.007  40.898   0.337
37435W        W 1192  16.771  23.094   3.780
37436W        W 1193  28.014  15.630   2.719
37437W        W 1194  42.380  14.680   1.817
37438W        W 1195  29.062  27.036   2.795
37439W        W 1196  13.247  22.715   2.677
37440W        W 1197   9.159  12.672   0.408
37441W        W 1198  38.391   4.941  14.343
37442W        W 1199  18.608   3.863   1.772
37443W        W 1200  24.159  13.121   3.364
37444W        W 1201  19.274  30.075  10.500
37445W        W 1202  38.436  34.467  13.991
37446W        W 1203  13.264   4.356  13.879
37447W        W 1204  25.188  33.915   1.364
37448W        W 1205  32.109   2.808  13.313
37449W        W 1206  20.123  15.328  10.042
37450W        W 1207  35.905  38.050   2.249
37451W        W 1208   4.927   1.746   2.769
37452W        W 1209  16.169  25.007  13.356
37453W        W 1210   4.318  37.500  13.308
37454W        W 1211  14.237   0.929   0.908
37455W        W 1212  27.981  20.273  14.301
37456W        W 1213   5.277  34.863   4.182
37457W        W 1214  19.668  32.038  12.015
37458W        W 1215  16.265   5.426   4.799
37459W        W 1216  19.247  14.664   0.852
37460W        W 1217  22.704  10.667  13.944
37461W        W 1218  24.515  28.033  13.912
37462W        W 1219   5.818  38.443  14.285
37463W        W 1220  39.015  30.584  10.988
37464W        W 1221  23.155  22.714   1.702
37465W        W 1222  33.595  34.073   3.251
37466W        W 1223  13.229  43.824  13.421
37467W        W 1224  36.917   1.305   4.640
37468W        W 1225  31.611  31.547  14.002
37469W        W 1226   0.761  31.580   0.296
37470W        W 1227  29.980   6.193  13.449
37471W        W 1228   8.229  29.618   2.217
37472W        W 1229  43.947  14.701  12.015
37473W        W 1230  12.134  18.756   1.709
37474W        W 1231  14.161  29.127   0.393
37475W        W 1232  31.460  10.654  12.526
37476W        W 1233  19.284  31.534  14.827
37477W        W 1234  29.013  31.496   4.699
37478W        W 1235   1.925  17.260   2.847
37479W        W 1236  25.146  33.404   2.223
37480W        W 1237  37.086  27.447   3.805
37481W        W 1238  38.547  16.690   4.136
37482W        W 1239  32.498   1.834   0.304
37483W        W 1240  11.798   4.727   3.809
37484W        W 1241   7.886  25.076   1.696
37485W        W 1242  18.753  18.268   1.347
37486W        W 1243  29.147   8.200   1.821
37487W        W 1244   9.222  44.771   3.231
37488W        W 1245  17.781  13.347   3.305
37489W        W 1246  20.173  12.236  12.914
37490W        W 1247   3.371   1.310  10.522
37491W        W 1248   7.199  20.612   4.732
37492W        W 1249  38.387  40.494  11.397
37493W        W 1250  11.287   5.719  12.533
37494W        W 1251   6.907  44.296   2.271
37495W        W 1252  10.334  42.824   1.362
37496W        W 1253  32.029  27.550   0.737
37497W        W 1254  20.203  13.174   2.340
37498W        W 1255  10.647  43.325  10.953
37499W        W 1256  24.191  23.988   4.131
37500W        W 1257  25.024  22.240  13.898
37501W        W 1258  11.800   7.188   2.335
37502W        W 1259   3.870  12.801  13.330
37503W        W 1260  25.963  28.649   3.807
37504W        W 1261  18.722   0.879   5.254
37505W        W 1262  33.565   6.216  12.344
37506W        W 1263  20.152  23.188  12.027
37507W        W 1264  41.307  37.545  11.433
37508W        W 1265  13.769   7.719   1.875
37509W        W 1266  28.571  44.408  10.922
37510W        W 1267   9.856  41.012  10.514
37511W        W 1268   0.881   3.754  13.914
37512W        W 1269  37.565  29.075   0.846
37513W        W 1270  34.513  33.041  12.040
37514W        W 1271  20.574  20.114  14.898
37515W        W 1272  26.130  31.486  13.919
37516W        W 1273  13.111  15.145   4.716
37517W        W 1274  10.655  27.677  13.464
37518W        W 1275  24.998  29.004  11.010
37519W        W 1276  12.657  29.668  11.063
37520W        W 1277  43.451  13.753   4.661
37521W        W 1278   8.358   7.332  10.476
37522W        W 1279  24.176  44.782   4.318
37523W        W 1280  22.028  25.064  10.503
37524W        W 1281  16.230  29.621   2.210
37525W        W 1282  41.904  18.731   2.703
37526W        W 1283  17.249  35.551   3.285
37527W        W 1284   0.959  31.542   4.634
37528W        W 1285  28.043   3.367  13.836
37529W        W 1286  12.616  38.070  12.446
37530W        W 1287  32.578  41.880  12.086
37531W        W 1288   6.704   4.444  14.831
37532W        W 1289  43.926  31.595  10.960
37533W        W 1290  18.215  26.032  14.401
37534W        W 1291   7.261   9.812  14.370
37535W        W 1292  41.349  30.998  11.026
37536W        W 1293  16.813  23.129  12.028
37537W        W 1294  29.426  29.072   0.938
37538W        W 1295  36.886  24.612  14.022
37539W        W 1296  16.307  27.512   0.754
37540W        W 1297  24.601   8.247   2.361
37541W        W 1298  20.612  11.671  14.923
37542W        W 1299   3.245  36.054   0.727
37543W        W 1300  27.447  44.359  14.922
37544W        W 1301  29.007  18.179  14.023
37545W        W 1302  16.305   9.718  14.480
37546W        W 1303  43.372   8.266   2.788
37547W        W 1304  16.610  38.366   0.478
37548W        W 1305  31.145  43.277   0.879
37549W        W 1306  25.679  19.101   4.305
37550W        W 1307  27.188  26.193   0.828
37551W        W 1308  14.275  19.670  12.949
37552W        W 1309  41.932  17.294  12.395
37553W        W 1310  25.069  32.465   4.304
37554W        W 1311  44.317  29.171  13.873
37555W        W 1312  40.530  18.648  14.797
37556W        W 1313  14.762  27.943   2.746
37557W        W 1314   8.846   4.733   2.389
37558W        W 1315  17.307  15.104   0.926
37559W        W 1316  33.947  13.203   2.298
37560W        W 1317  21.572  40.043  13.807
37561W        W 1318  34.474   7.754  10.567
37562W        W 1319  40.538  40.351  14.938
37563W        W 1320  16.078  27.615   1.875
37564W        W 1321  13.625  10.139   2.663
37565W        W 1322  40.986  44.881  11.942
37566W        W 1323  29.071  35.054  11.066
37567W        W 1324  28.977  16.164   2.359
37568W        W 1325  19.564  12.313   1.834
37569W        W 1326  31.922  27.455   1.221
37570W        W 1327  18.252  43.292   3.289
37571W        W 1328  41.013  25.999   1.909
37572W        W 1329   5.874  28.663   2.696
37573W        W 1330  15.271  38.465   3.742
37574W        W 1331  20.648  22.574   3.271
37575W        W 1332  33.042  31.933  12.851
37576W        W 1333  24.181  18.548   2.866
37577W        W 1334   8.178  37.484   3.646
37578W        W 1335   3.350  30.924  11.878
37579W        W 1336  25.561  38.029   2.399
37580W        W 1337  14.782  15.784  13.454
37581W        W 1338  29.992  26.520  13.502
37582W        W 1339  17.257  40.519   5.234
37583W        W 1340   2.302  12.301   1.371
37584W        W 1341   1.960  20.185  11.889
37585W        W 1342   0.349  36.900  14.811
37586W        W 1343  35.020  37.048  13.917
37587W        W 1344  33.465  16.604   3.309
37588W        W 1345  35.947  17.757  11.414
37589W        W 1346   7.874  23.130   4.206
37590W        W 1347  12.204  15.657   1.749
37591W        W 1348   6.788  21.727   2.875
37592W        W 1349  26.013  41.801  11.384
37593W        W 1350  39.556  25.064  10.984
37594W        W 1351  42.892  22.221  11.451
37595W        W 1352  23.612   4.787  10.618
37596W        W 1353  26.986   0.866  14.016
37597W        W 1354   4.874  15.093   0.435
37598W        W 1355  23.568  26.182  13.473
37599W        W 1356  36.473  35.966  13.975
37600W        W 1357  11.671   5.408  12.363
37601W        W 1358  27.983  41.787   2.713
37602W        W 1359  22.082  22.622  11.917
37603W        W 1360  35.935   5.309  11.931
37604W        W 1361   4.436  17.581  13.527
37605W        W 1362  41.029   9.248  11.859
37606W        W 1363  18.588   1.970  14.017
37607W        W 1364  42.437  18.577  14.490
37608W        W 1365  26.511   6.859  11.591
37609W        W 1366  29.561  44.763   2.188
37610W        W 1367  19.240  36.458  10.491
37611W        W 1368  12.615   6.228   4.281
37612W        W 1369   8.265  43.823   4.249
37613W        W 1370  10.799  33.447  14.338
37614W        W 1371  25.162  35.439   2.733
37615W        W 1372   5.717  13.159  11.038
37616W        W 1373  10.235   0.822   1.832
37617W        W 1374   3.237   8.325   3.282
37618W        W 1375  17.703  11.780  12.414
37619W        W 1376  12.168  11.783  13.995
37620W        W 1377  41.536  26.657  11.449
37621W        W 1378  44.951   8.323  12.938
37622W        W 1379   1.772  26.166   1.798
37623W        W 1380  44.343   7.904   2.748
37624W        W 1381   5.432   7.327  10.444
37625W        W 1382  35.399  37.856   1.809
37626W        W 1383  32.084  25.014  12.963
37627W        W 1384  18.053  10.336  10.630
37628W        W 1385   7.800  28.129   3.748
37629W        W 1386  44.350  20.666  10.645
37630W        W 1387  15.750  42.343   3.740
37631W        W 1388  30.612  24.542  13.537
37632W        W 1389   5.861  33.393   2.337
37633W        W 1390  11.357  10.276   1.273
37634W        W 1391   1.839  20.643  14.972
37635W        W 1392  10.140  38.974  13.468
37636W        W 1393  11.345  25.602   4.192
37637W        W 1394  19.534  33.974   3.383
37638W        W 1395   6.232  22.016  14.503
37639W        W 1396  35.465  33.508  10.536
37640W        W 1397   6.403  42.329   0.904
37641W        W 1398  30.132  26.979  10.550
37642W        W 1399  44.779  43.874   2.213
37643W        W 1400  10.179   7.187   1.759
37644W        W 1401  18.161  13.808  12.861
37645W        W 1402   0.845   3.454  12.576
37646W        W 1403  42.509  25.564   3.159
37647W        W 1404  43.324   0.815   2.321
37648W        W 1405  24.646  13.779   3.659
37649W        W 1406  19.565  30.982   4.787
37650W        W 1407   9.877  25.044  11.457
37651W        W 1408  35.457  32.060  12.895
37652W        W 1409  22.111  13.618   2.293
37653W        W 1410  34.002  37.466   1.431
37654W        W 1411  21.517  25.065   1.724
37655W        W 1412  26.546  32.520  12.961
37656W        W 1413  24.198  26.102   3.306
37657W        W 1414  14.120  13.184   3.157
37658W        W 1415   2.467  18.210   0.814
37659W        W 1416  10.188  22.142   0.354
37660W        W 1417  44.983  39.825   3.152
37661W        W 1418  41.940  20.261   1.929
37662W        W 1419   7.893  29.628   0.439
37663W        W 1420  12.351  18.549  13.516
37664W        W 1421  20.731  24.113  12.960
37665W        W 1422  23.172  34.056   4.218
37666W        W 1423  39.505  27.591  11.948
37667W        W 1424   9.153  34.943   1.831
37668W        W 1425  10.778  25.045  13.402
37669W        W 1426  11.650  24.139  10.120
37670W        W 1427   1.833  20.114   1.259
37671W        W 1428  39.964  16.810  10.508
37672W        W 1429  41.379  30.471   4.321
37673W        W 1430   6.394  33.401   4.294
37674W        W 1431  12.134  32.633  14.811
37675W        W 1432  44.307  41.912   3.817
37676W        W 1433  39.345   6.788   1.731
37677W        W 1434  34.410  12.270   3.731
37678W        W 1435   2.789   6.853  11.462
37679W        W 1436  12.309  34.080   0.730
37680W        W 1437  37.882   6.724   2.180
37681W        W 1438  27.097  34.583  12.009
37682W        W 1439  38.931   5.259  14.023
37683W        W 1440   1.836  20.114   5.168
37684W        W 1441  15.213  37.522  10.994
37685W        W 1442  26.104  40.371   1.438
37686W        W 1443  26.092  38.391   0.749
37687W        W 1444  12.784  13.111  13.514
37688W        W 1445  30.027  33.580   0.861
37689W        W 1446  27.131  40.051   4.194
37690W        W 1447  29.062  39.012  14.976
37691W        W 1448  35.043   6.869  12.946
37692W        W 1449  41.963  20.560  13.964
37693W        W 1450  18.075  38.896  12.518
37694W        W 1451  35.575  39.322   1.253
37695W        W 1452  24.703  39.537  13.506
37696W        W 1453  16.660  14.245   0.855
37697W        W 1454  28.540  14.634  11.375
37698W        W 1455   9.666  38.411  11.033
37699W        W 1456  36.588  15.684   4.222
37700W        W 1457  38.941  23.029   3.860
37701W        W 1458  31.123  36.877  12.876
37702W        W 1459   6.771  16.090   5.605
37703W        W 1460  19.263  20.233   4.157
37704W        W 1461  39.961  43.938  14.488
37705W        W 1462   0.472   6.845   3.816
37706W        W 1463  29.495  22.719   0.843
37707W        W 1464  42.326  19.071  13.797
37708W        W 1465  39.361  24.142  14.928
37709W        W 1466  14.732  44.969   2.854
37710W        W 1467   6.740  23.671  12.442
37711W        W 1468  29.922  23.728  13.421
37712W        W 1469  17.253  25.129  14.503
37713W        W 1470  22.552  35.990  13.547
37714W        W 1471   2.382  40.871  14.509
37715W        W 1472  42.308  31.402   4.739
37716W        W 1473  31.934  37.896  13.854
37717W        W 1474  41.474   0.419   1.389
37718W        W 1475  10.722   2.950  12.946
37719W        W 1476  15.703  43.456  13.904
37720W        W 1477  24.581  26.026  10.523
37721W        W 1478  36.377  27.991   1.799
37722W        W 1479   5.288   6.909  11.924
37723W        W 1480   0.290  17.725  14.807
37724W        W 1481  11.834   9.325  11.406
37725W        W 1482  18.050  20.121   4.137
37726W        W 1483  15.732  40.351   4.243
37727W        W 1484  33.885   7.684  12.427
37728W        W 1485   2.743   3.857  13.334
37729W        W 1486  25.163  41.436   4.780
37730W        W 1487  24.607  35.450   2.413
37731W        W 1488  15.293  31.447   2.250
37732W        W 1489  31.148  29.955   2.276
37733W        W 1490  30.149  15.275  13.855
37734W        W 1491  24.212   1.439  12.426
37735W        W 1492  24.595  39.538  14.286
37736W        W 1493  40.309  36.021  12.476
37737W        W 1494   4.388  18.195  12.453
37738W        W 1495  25.034   1.396  11.557
37739W        W 1496  19.243  27.138   2.821
37740W        W 1497  36.934  26.658   1.443
37741W        W 1498  22.146  24.194   0.416
37742W        W 1499   5.217   5.849  12.988
37743W        W 1500   1.851   3.334  12.558
37744W        W 1501   4.882  33.461   1.396
37745W        W 1502  31.953  14.204   0.835
37746W        W 1503  31.629  34.104   3.322
37747W        W 1504  25.622  22.613   4.265
37748W        W 1505  41.840   9.650  11.966
37749W        W 1506  43.772   0.988  14.963
37750W        W 1507  40.869   6.293   0.927
37751W        W 1508  41.481   2.952  10.582
37752W        W 1509  20.646   0.754  12.458
37753W        W 1510  36.402  24.978  13.429
37754W        W 1511  15.602  40.455   3.261
37755W        W 1512  16.200  19.674   2.195
37756W        W 1513  33.899  21.107   0.892
37757W        W 1514   4.206  10.667   1.723
37758W        W 1515  32.546  42.006  14.873
37759W        W 1516   7.404  39.059   4.339
37760W        W 1517  42.323   0.830   0.265
37761W        W 1518  30.659  23.191  12.452
37762W        W 1519   4.869  32.922   2.417
37763W        W 1520  15.744  36.499   1.295
37764W        W 1521  28.628  10.195  10.571
37765W        W 1522  39.873  13.736  11.923
37766W        W 1523  15.582  31.565  11.100
37767W        W 1524  14.296   5.746   3.212
37768W        W 1525  19.163   1.812  12.988
37769W        W 1526  38.991  26.143   0.276
37770W        W 1527  28.584  44.900  11.569
37771W        W 1528   2.772  16.145   1.383
37772W        W 1529  32.978  33.004   2.409
37773W        W 1530  28.063  35.972  12.857
37774W        W 1531  28.935  34.601   1.823
37775W        W 1532  43.019  38.019   0.842
37776W        W 1533  25.569  26.467   3.331
37777W        W 1534  44.312  33.960  10.570
37778W        W 1535  24.222  42.344  11.386
37779W        W 1536  37.381  10.214  13.013
37780W        W 1537  39.991  42.804   2.849
37781W        W 1538   4.248  29.036   3.854
37782W        W 1539   2.830  24.109  10.502
37783W        W 1540   3.844   8.255  14.428
37784W        W 1541  27.670  40.895  11.488
37785W        W 1542  30.554   3.412   3.666
37786W        W 1543  39.923  18.694   3.347
37787W        W 1544  28.559  20.141  13.841
37788W        W 1545   8.226  38.463   0.458
37789W        W 1546   8.732   1.924   3.377
37790W        W 1547  30.476  24.173   4.200
37791W        W 1548  28.979  15.589  11.462
37792W        W 1549  17.693   2.876   4.662
37793W        W 1550  15.136  30.081  12.876
37794W        W 1551  34.966   7.211  10.889
37795W        W 1552  28.123   9.878  12.887
37796W        W 1553  40.045  37.381   0.795
37797W        W 1554   6.793  36.441   0.893
37798W        W 1555  24.711  26.157   3.297
37799W        W 1556   5.429   1.841   4.142
37800W        W 1557  28.108  18.590   0.291
37801W        W 1558  38.380  19.097  13.529
37802W        W 1559  43.846   2.855   4.147
37803W        W 1560  14.120   2.283   0.925
37804W        W 1561  31.434  41.826   0.379
37805W        W 1562  41.464  36.039  14.475
37806W        W 1563  32.905  21.071  13.886
37807W        W 1564   1.867   6.759  13.891
37808W        W 1565   6.682   0.929  14.352
37809W        W 1566   3.316  14.805   2.738
37810W        W 1567  35.375   8.322   1.235
37811W        W 1568  40.955  14.726  10.545
37812W        W 1569   3.232  23.088  10.955
37813W        W 1570  13.707  43.975  12.377
37814W        W 1571  28.544  40.821  11.033
37815W        W 1572  28.130  27.977  11.537
37816W        W 1573  12.259   4.204   0.289
37817W        W 1574  43.425  27.181  10.895
37818W        W 1575  29.936  20.068  13.377
37819W        W 1576  29.093   3.800   5.644
37820W        W 1577   9.365  16.284  12.439
37821W        W 1578  17.102   9.809   2.690
37822W        W 1579  41.021  16.081  13.797
37823W        W 1580  10.306  18.181   1.378
37824W        W 1581  27.607  18.161  10.908
37825W        W 1582  38.954  22.023  12.870
37826W        W 1583  39.330  15.737   4.601
37827W        W 1584   4.744  21.714  10.946
37828W        W 1585  36.423  26.152   2.693
37829W        W 1586  21.236  18.265   2.395
37830W        W 1587  40.313  15.704   5.157
37831W        W 1588   1.457  31.086   2.233
37832W        W 1589  34.966   6.686  14.983
37833W        W 1590  40.525  43.792  11.000
37834W        W 1591  23.060  10.255  14.999
37835W        W 1592  27.022  28.626   4.663
37836W        W 1593  25.600   4.384   2.356
37837W        W 1594  17.069  13.797   1.892
37838W        W 1595   9.327  24.996  10.056
37839W        W 1596  35.987  20.540   1.304
37840W        W 1597   4.833  28.062  10.561
37841W        W 1598  19.770  44.466   0.821
37842W        W 1599  27.664   0.352   2.782
37843W        W 1600  10.207  18.086   0.414
37844W        W 1601  35.925  40.516  11.440
37845W        W 1602  30.657  13.303   2.844
37846W        W 1603  32.125  33.072   1.884
37847W        W 1604  38.384  31.432   4.321
37848W        W 1605  17.726  31.044   3.335
37849W        W 1606  20.537  11.749  14.301
37850W        W 1607   1.336  31.074  14.427
37851W        W 1608  31.426  39.853   0.430
37852W        W 1609  26.554  35.060  11.058
37853W        W 1610  33.445  27.672  12.422
37854W        W 1611  28.026   4.375   3.843
37855W        W 1612  15.308  30.070  14.811
37856W        W 1613  33.540   8.787   0.862
37857W        W 1614  35.511  13.125   4.353
37858W        W 1615  38.069  21.674  14.321
37859W        W 1616  44.880  11.368  12.838
37860W        W 1617  20.140  40.508  11.598
37861W        W 1618   4.339  20.222   0.852
37862W        W 1619  33.031   4.857  14.489
37863W        W 1620   6.887  27.057  13.504
37864W        W 1621  36.438  39.323   1.401
37865W        W 1622  10.794  37.372  11.383
37866W        W 1623  14.727  29.587   2.264
37867W        W 1624  18.623  25.496   1.736
37868W        W 1625  30.597  28.061  11.502
37869W        W 1626  35.962  33.091  11.000
37870W        W 1627   5.331  13.294   3.177
37871W        W 1628   0.248  11.760  12.093
37872W        W 1629  10.712  22.558   4.281
37873W        W 1630   2.328  34.442  14.890
37874W        W 1631  32.409  31.066   3.774
37875W        W 1632   9.699   1.797  13.794
37876W        W 1633  41.512  36.007  10.589
37877W        W 1634   0.397  36.078   3.853
37878W        W 1635  43.946  29.582  12.435
37879W        W 1636   0.286   6.826   1.292
37880W        W 1637   5.882   3.303   2.896
37881W        W 1638  39.988  40.359   2.199
37882W        W 1639  33.908  10.843   3.869
37883W        W 1640   9.285  34.960  11.482
37884W        W 1641  39.987  42.980  14.910
37885W        W 1642   6.922  43.505  14.350
37886W        W 1643  21.544  22.117  11.577
37887W        W 1644  42.441  41.346  11.561
37888W        W 1645  28.535  39.996  10.588
37889W        W 1646  41.307  38.029  11.591
37890W        W 1647  12.620   4.789  13.840
37891W        W 1648  34.560  29.949   4.662
37892W        W 1649   7.734  39.885  12.841
37893W        W 1650  18.133  22.551   1.411
37894W        W 1651  37.530  23.641  12.979
37895W        W 1652  19.659  31.142   1.222
37896W        W 1653  12.163  39.899  14.990
37897W        W 1654  35.498  24.081  14.479
37898W        W 1655   1.410   9.247  12.452
37899W        W 1656  35.477   4.363   2.368
37900W        W 1657  42.870  26.046  12.460
37901W        W 1658  32.571  11.231   0.332
37902W        W 1659  25.113  42.322   3.768
37903W        W 1660   8.762  41.029  11.936
37904W        W 1661  41.863  27.095  13.424
37905W        W 1662  27.031   6.883   1.815
37906W        W 1663  30.470  37.556  14.364
37907W        W 1664  27.055  38.860   4.615
37908W        W 1665  30.163  22.718   3.796
37909W        W 1666  37.349  30.642  10.078
37910W        W 1667   7.737   6.889  10.506
37911W        W 1668   3.376  22.105   2.885
37912W        W 1669  35.086  21.578  12.439
37913W        W 1670  43.452  19.274   2.874
37914W        W 1671  16.691  23.014   4.655
37915W        W 1672  34.368  31.938   3.736
37916W        W 1673  16.224   1.903  14.469
37917W        W 1674   3.428  22.056   4.649
37918W        W 1675  26.169   9.770  12.448
37919W        W 1676  40.429   9.756   0.483
37920W        W 1677   2.870  24.664   4.701
37921W        W 1678  13.339  10.749   4.282
37922W        W 1679  25.578  29.550   4.236
37923W        W 1680  24.528   6.314  11.000
37924W        W 1681   9.207   7.254  10.897
37925W        W 1682  38.331  17.135   1.872
37926W        W 1683  40.802  36.988   3.645
37927W        W 1684  38.837  18.143  12.930
37928W        W 1685  20.032  14.592  13.516
37929W        W 1686   9.318  37.066  13.313
37930W        W 1687  10.827  28.634  13.457
37931W        W 1688  42.345   5.812   4.694
37932W        W 1689  28.564  41.816   3.280
37933W        W 1690  15.778  39.430   3.706
37934W        W 1691   4.299  21.134   0.867
37935W        W 1692  16.287   8.284   0.312
37936W        W 1693  27.013  43.943   3.821
37937W        W 1694  15.319  19.220   3.186
37938W        W 1695  42.381   9.173  14.419
37939W        W 1696  26.182  20.248  14.286
37940W        W 1697   8.199   5.270   4.680
37941W        W 1698  42.930  18.678  14.012
37942W        W 1699  35.896  21.735  13.953
37943W        W 1700  37.566  13.773  14.315
37944W        W 1701  23.011  24.609   1.379
37945W        W 1702  34.505  40.862  13.907
37946W        W 1703   1.788  11.717  14.761
37947W        W 1704  10.191  16.626  11.947
37948W        W 1705  11.652  14.290  14.816
37949W        W 1706  15.792  33.117  10.432
37950W        W 1707  33.909  34.536  12.856
37951W        W 1708  13.162  31.427   4.638
37952W        W 1709  41.996   4.761  10.941
37953W        W 1710  42.013  16.738   1.808
37954W        W 1711  34.398   9.802  13.334
37955W        W 1712  21.199  12.738   2.722
37956W        W 1713  29.011  41.003  13.865
37957W        W 1714  19.589  15.687  14.022
37958W        W 1715  21.196  15.614   5.122
37959W        W 1716   4.437  17.283  11.560
37960W        W 1717  31.136  34.948  11.947
37961W        W 1718  34.879  29.928  12.882
37962W        W 1719  15.249  37.949   4.156
37963W        W 1720  35.020  44.833  12.863
37964W        W 1721  22.517  13.724  13.528
37965W        W 1722  12.738  33.006   3.698
37966W        W 1723  18.123  27.626  14.785
37967W        W 1724   7.670  33.597  14.344
37968W        W 1725  13.281  36.933   0.311
37969W        W 1726   3.440  38.958   1.874
37970W        W 1727  35.439  25.591   3.845
37971W        W 1728  44.332  30.990  12.867
37972W        W 1729   9.335  18.728   3.355
37973W        W 1730  10.197  12.309  14.806
37974W        W 1731  15.271  20.660   1.903
37975W        W 1732  27.945  37.422   2.397
37976W        W 1733   8.728  44.925   3.729
37977W        W 1734  18.179  40.011  11.455
37978W        W 1735   8.238  34.522   3.351
37979W        W 1736  24.647  20.708  14.331
37980W        W 1737  29.425  35.053   1.331
37981W        W 1738  26.154  43.865  14.420
37982W        W 1739   8.269  25.529   2.759
37983W        W 1740  41.851  15.284  12.546
37984W        W 1741  31.124  23.613   4.193
37985W        W 1742  14.655  31.487  12.081
37986W        W 1743   3.324  36.384   2.893
37987W        W 1744  21.600   8.670   2.266
37988W        W 1745  22.680  21.752  14.763
37989W        W 1746   6.362   5.212   3.195
37990W        W 1747  12.287   9.789   3.375
37991W        W 1748   4.303  38.834  11.480
37992W        W 1749   9.847  41.928   3.187
37993W        W 1750  44.484  25.657  13.368
37994W        W 1751  35.100  44.935  13.813
37995W        W 1752  31.466   9.821   2.275
37996W        W 1753  21.521  16.605  11.004
37997W        W 1754  37.050  16.570  10.898
37998W        W 1755   4.886   5.725   2.852
37999W        W 1756  21.101   4.802   2.261
38000W        W 1757  29.092  26.990   3.631
38001W        W 1758  40.934   8.172  11.901
38002W        W 1759  30.466  13.661  13.994
38003W        W 1760  26.092  21.540   9.484
38004W        W 1761  32.099   6.403   4.807
38005W        W 1762   4.393   3.897  12.900
38006W        W 1763  12.140  14.666  13.004
38007W        W 1764   7.666  25.664   2.321
38008W        W 1765  33.575   5.744   9.961
38009W        W 1766  12.792  36.000  10.911
38010W        W 1767  43.931  41.883   3.265
38011W        W 1768   5.819  36.041   1.793
38012W        W 1769  32.468  42.361   2.727
38013W        W 1770  34.588  18.176  14.298
38014W        W 1771  39.404  14.730  14.971
38015W        W 1772  26.099  27.549  11.127
38016W        W 1773   1.417  41.964   4.785
38017W        W 1774   3.956  36.086  12.415
38018W        W 1775  39.873  36.898   0.451
38019W        W 1776  43.399  13.324   0.761
38020W        W 1777   2.943  37.847  13.917
38021W        W 1778  40.511  10.807  13.448
38022W        W 1779   6.287  37.986  13.822
38023W        W 1780   1.443  37.400  14.899
38024W        W 1781  33.984  11.815   2.254
38025W        W 1782  35.096  24.194   5.172
38026W        W 1783   2.855  44.869   1.354
38027W        W 1784  31.633   3.339  12.924
38028W        W 1785   8.379  40.863  11.019
38029W        W 1786  17.755  14.801   1.318
38030W        W 1787   9.753  41.404   2.755
38031W        W 1788  38.981  43.279   0.375
38032W        W 1789  22.537  14.738  13.490
38033W        W 1790  10.355  16.223   4.819
38034W        W 1791  11.628   0.493   2.273
38035W        W 1792  33.100  33.562   4.193
38036W        W 1793  24.620  16.118  10.423
38037W        W 1794  13.310  22.198   2.272
38038W        W 1795   5.203  27.591  13.455
38039W        W 1796  42.493  13.756  12.945
38040W        W 1797  32.079  43.822  13.442
38041W        W 1798  15.802  11.864  14.320
38042W        W 1799   3.808  35.936  10.557
38043W        W 1800  26.018  33.485   0.333
38044W        W 1801  34.393  16.692  11.982
38045W        W 1802  40.980  10.147  13.400
38046W        W 1803  31.496  14.110  11.935
38047W        W 1804  27.647  31.953   4.769
38048W        W 1805  38.938  34.993  10.915
38049W        W 1806  29.597   6.785  13.057
38050W        W 1807  30.445  23.530   0.426
38051W        W 1808  35.425   0.764  11.968
38052W        W 1809   1.287  42.800  12.497
38053W        W 1810  25.608  44.838  10.407
38054W        W 1811  28.525  37.996   0.774
38055W        W 1812   4.329  36.013   1.252
38056W        W 1813  42.782  15.784   1.401
38057W        W 1814  32.131  20.767   4.709
38058W        W 1815   4.860  35.448  11.569
38059W        W 1816  13.140   9.804   1.341
38060W        W 1817  37.029  21.747   0.420
38061W        W 1818  32.501   1.841  11.102
38062W        W 1819   5.848  25.552   1.853
38063W        W 1820   9.302  21.700   2.679
38064W        W 1821  12.154  29.919   2.857
38065W        W 1822  11.298  20.084   2.882
38066W        W 1823  12.851   5.436  11.520
38067W        W 1824   2.957  31.923   2.724
38068W        W 1825   4.791  44.969   2.883
38069W        W 1826  18.275  17.744  13.543
38070W        W 1827  38.018  17.210   1.306
38071W        W 1828  16.714   5.785  11.992
38072W        W 1829   7.199  36.073  14.458
38073W        W 1830  42.460  22.501  12.890
38074W        W 1831   3.425  34.029   0.317
38075W        W 1832  36.850  25.194   4.294
38076W        W 1833  42.947  42.413  11.539
38077W        W 1834  21.575   9.659  14.406
38078W        W 1835  29.464  33.950   3.812
38079W        W 1836  40.535  34.468  14.457
38080W        W 1837  39.534  25.179   0.469
38081W        W 1838  23.984  39.532  12.569
38082W        W 1839  41.793  33.517  10.135
38083W        W 1840  34.533  44.261  11.994
38084W        W 1841  23.687  13.234  14.442
38085W        W 1842   8.378  41.496   0.373
38086W        W 1843   6.747  27.532  14.030
38087W        W 1844  36.549  38.427   1.280
38088W        W 1845  26.475   0.361   4.611
38089W        W 1846  22.036  17.098   4.719
38090W        W 1847   9.368  43.948   0.812
38091W        W 1848  44.879   7.179   1.823
38092W        W 1849   9.393  13.653  12.404
38093W        W 1850   3.713  36.916   1.906
38094W        W 1851  30.479  23.726  14.410
38095W        W 1852  17.078  24.165  14.498
38096W        W 1853  27.032  23.630  11.121
38097W        W 1854  25.079  22.741   5.805
38098W        W 1855   6.744  16.308   1.755
38099W        W 1856   5.788  29.093  14.975
38100W        W 1857  43.947  27.062  11.121
38101W        W 1858  25.611  44.781   1.233
38102W        W 1859   8.776   7.675  12.888
38103W        W 1860  17.576  16.156  10.100
38104W        W 1861  33.608   9.314  10.958
38105W        W 1862  42.974  41.530   4.665
38106W        W 1863  18.580   1.387  12.407
38107W        W 1864   8.742  15.146  12.536
38108W        W 1865  39.969  26.546   2.207
38109W        W 1866  19.694  36.981   1.299
38110W        W 1867  28.035   8.199  14.957
38111W        W 1868   7.839   9.174  10.424
38112W        W 1869  10.279  34.957  10.635
38113W        W 1870   8.809  42.382  10.936
38114W        W 1871  28.459  30.988  10.511
38115W        W 1872   6.392  25.149  10.125
38116W        W 1873   3.400  25.696  12.075
38117W        W 1874   1.943  17.788   3.299
38118W        W 1875  36.580  37.957   3.325
38119W        W 1876  11.261  33.024  13.380
38120W        W 1877  22.151  40.336   0.319
38121W        W 1878   8.753  23.236  13.952
38122W        W 1879   5.400  21.182  12.828
38123W        W 1880  36.867   0.453   2.331
38124W        W 1881  31.993   2.260  14.935
38125W        W 1882  35.929   1.387  11.874
38126W        W 1883  35.906  20.060  12.863
38127W        W 1884   1.795  37.399  14.872
38128W        W 1885  39.458  27.974  14.386
38129W        W 1886  29.097  34.519  11.055
38130W        W 1887  33.009  25.188   4.215
38131W        W 1888  21.231  13.774  14.831
38132W        W 1889  15.250  10.154   1.350
38133W        W 1890  44.815  13.305   2.882
38134W        W 1891   0.261   0.868  10.595
38135W        W 1892  32.123  27.017   0.338
38136W        W 1893  14.716  35.868  12.504
38137W        W 1894   0.368  29.584   1.451
38138W        W 1895   8.350   4.345  13.026
38139W        W 1896  23.216  13.673  12.861
38140W        W 1897  40.542   9.256  12.080
38141W        W 1898  16.757  32.456  10.477
38142W        W 1899  28.565  35.950  14.475
38143W        W 1900  21.118  24.225  13.797
38144W        W 1901  42.467   9.387   4.779
38145W        W 1902  32.540  29.659   2.739
38146W        W 1903  14.206  29.071  12.412
38147W        W 1904  10.815   7.302   2.310
38148W        W 1905  39.862  41.413   2.887
38149W        W 1906   3.802  40.342   2.190
38150W        W 1907  15.270  27.452   2.784
38151W        W 1908   6.400  41.417  14.876
38152W        W 1909  42.933   4.215  12.919
38153W        W 1910  32.470  19.193   4.762
38154W        W 1911  36.017  17.252  10.920
38155W        W 1912  36.940  29.045  14.388
38156W        W 1913  26.155  35.059  14.829
38157W        W 1914   5.343  15.145   2.386
38158W        W 1915   3.732  31.896  13.382
38159W        W 1916   9.673  13.661   3.655
38160W        W 1917  22.661  19.280   0.942
38161W        W 1918  14.245  26.483   0.443
38162W        W 1919  26.621  39.066   3.849
38163W        W 1920  21.553   9.273  14.874
38164W        W 1921  12.715  10.353  11.885
38165W        W 1922  12.303  33.550   4.732
38166W        W 1923  36.442  26.961  12.499
38167W        W 1924  37.022  38.371  12.971
38168W        W 1925   6.713   5.326   2.713
38169W        W 1926  16.299  25.048   1.276
38170W        W 1927  41.306   2.227  11.001
38171W        W 1928  42.871  36.889  12.468
38172W        W 1929  28.119  30.612  13.365
38173W        W 1930  17.265  28.613  12.922
38174W        W 1931  18.157  31.055  11.441
38175W        W 1932  38.969  19.122   4.643
38176W        W 1933   6.778   1.934  10.614
38177W        W 1934  25.081  43.475   3.708
38178W        W 1935  36.853  15.818   0.727
38179W        W 1936  32.091  14.607  10.946
38180W        W 1937   4.835  13.126  12.912
38181W        W 1938  41.365  13.769   3.675
38182W        W 1939  12.692  11.251  11.049
38183W        W 1940  34.504  21.083   3.241
38184W        W 1941  35.422  33.933  12.431
38185W        W 1942  12.641  25.494   0.830
38186W        W 1943  44.962  12.613   2.846
38187W        W 1944  27.010  14.250  12.477
38188W        W 1945  25.153  36.586   2.855
38189W        W 1946  33.983  39.810  13.794
38190W        W 1947  14.797  36.458   2.779
38191W        W 1948  25.591  16.807  12.455
38192W        W 1949  44.451  22.563  14.903
38193W        W 1950  29.148   3.397  11.549
38194W        W 1951   2.730   2.447   2.286
38195W        W 1952  36.888  34.963   3.198
38196W        W 1953  41.798  19.173   1.446
38197W        W 1954   4.751  27.174   2.800
38198W        W 1955  40.854   8.800   4.264
38199W        W 1956  33.552  16.192   0.322
38200W        W 1957  20.190   7.844  13.994
38201W        W 1958  23.177  12.250   0.272
38202W        W 1959  10.818   8.700   4.350
38203W        W 1960   9.873  39.345  13.825
38204W        W 1961  32.085   2.806   0.781
38205W        W 1962  18.229  21.160   2.806
38206W        W 1963  38.520   3.846   0.311
38207W        W 1964  39.330   5.898   2.757
38208W        W 1965  22.081  14.743   2.319
38209W        W 1966  10.244  21.520   1.360
38210W        W 1967  11.771  13.811  13.794
38211W        W 1968  31.974  13.305  11.542
38212W        W 1969  13.139   8.890  12.882
38213W        W 1970  42.521  14.315  13.506
38214W        W 1971  19.104  11.180  10.996
38215W        W 1972  19.071  29.036   1.366
38216W        W 1973  28.972  16.304   3.790
38217W        W 1974  39.945  32.631  10.591
38218W        W 1975  33.458   2.457   3.701
38219W        W 1976  38.969  41.819  14.818
38220W        W 1977  24.137   8.742  14.458
38221W        W 1978   1.465   3.722  13.466
38222W        W 1979  20.621  30.913   4.147
38223W        W 1980  22.020  40.870   4.114
38224W        W 1981  29.057   9.763   4.301
38225W        W 1982  31.574   1.787  12.562
38226W        W 1983   0.340  38.893  10.408
38227W        W 1984  24.124  10.811  10.471
38228W        W 1985   2.228  44.775  14.764
38229W        W 1986   8.397  21.091  12.569
38230W        W 1987   9.271  25.167  13.528
38231W        W 1988   8.395  18.765  10.049
38232W        W 1989  10.237  29.169   3.700
38233W        W 1990  10.183  25.524  14.500
38234W        W 1991  34.464   4.720  10.517
38235W        W 1992  20.552   2.416   2.294
38236W        W 1993  44.885  30.525  12.413
38237W        W 1994  14.695  19.741  12.958
38238W        W 1995  13.140   7.356   0.362
38239W        W 1996  15.281   7.757  11.954
38240W        W 1997  14.104  32.981  12.013
38241W        W 1998   7.908  18.703   0.880
38242W        W 1999  11.315  28.979  13.430
38243W        W 2000  37.897   7.370  14.992
38244W        W 2001  35.516  13.696   4.838
38245W        W 2002  18.736  17.789   4.231
38246W        W 2003  14.651  42.507  12.531
38247W        W 2004  44.765   1.240   2.374
38248W        W 2005  30.488  44.985  12.000
38249W        W 2006   0.339  26.566  13.009
38250W        W 2007   1.259  21.748   4.621
38251W        W 2008   3.773  33.490   1.769
38252W        W 2009  31.915   8.663   2.416
38253W        W 2010  26.677   1.746  14.031
38254W        W 2011  23.673   1.894  11.527
38255W        W 2012  35.968  27.544   2.749
38256W        W 2013   7.802  26.520   0.862
38257W        W 2014   9.783  23.159  10.445
38258W        W 2015  22.190   5.905  14.423
38259W        W 2016  11.863  41.024   2.765
38260W        W 2017  27.682  27.107  13.938
38261W        W 2018   0.443  13.254  11.556
38262W        W 2019   0.938  33.078   3.350
38263W        W 2020  21.138   7.264   9.987
38264W        W 2021  33.929  38.417  14.327
38265W        W 2022  29.102  39.356  13.959
38266W        W 2023  20.566   0.446  11.478
38267W        W 2024  27.492  21.584  11.109
38268W        W 2025  17.091  10.352   0.782
38269W        W 2026  16.607   3.320  14.005
38270W        W 2027  44.292  19.606  14.846
38271W        W 2028  16.256  41.941  11.973
38272W        W 2029  41.308  21.734  11.471
38273W        W 2030  26.513  42.986  13.863
38274W        W 2031   5.706   2.788  13.822
38275W        W 2032   6.347  43.810   2.261
38276W        W 2033   5.904  18.083   5.228
38277W        W 2034  18.730  14.283   0.843
38278W        W 2035  13.821  17.673   3.817
38279W        W 2036   6.271  43.460   9.510
38280W        W 2037   0.765  18.070  13.811
38281W        W 2038  33.537  13.283  12.941
38282W        W 2039  10.798  27.531   0.442
38283W        W 2040  34.466  21.181   1.896
38284W        W 2041  25.115   8.856  10.478
38285W        W 2042  14.766  14.340  14.965
38286W        W 2043   8.398  28.134  14.305
38287W        W 2044  27.037  34.530  14.359
38288W        W 2045  15.172  28.100  14.508
38289W        W 2046   7.708  42.782  13.014
38290W        W 2047  12.689  31.571   2.332
38291W        W 2048   8.209  36.464   3.738
38292W        W 2049  25.590  27.682   2.231
38293W        W 2050   3.761   4.347   1.736
38294W        W 2051  22.133  20.571  12.060
38295W        W 2052  11.174   5.909   3.319
38296W        W 2053  21.744  35.511  14.855
38297W        W 2054  24.600  16.581  11.013
38298W        W 2055  10.305  13.651   0.339
38299W        W 2056  25.173  27.501  14.782
38300W        W 2057  44.503   3.386   0.476
38301W        W 2058   7.212  35.075  14.775
38302W        W 2059  19.739  25.149  14.814
38303W        W 2060  11.775  12.712   4.317
38304W        W 2061  42.435  41.348   0.371
38305W        W 2062   1.969  40.414   3.658
38306W        W 2063  16.639  14.303   4.228
38307W        W 2064  26.112  14.158  11.012
38308W        W 2065  38.924  36.353  13.048
38309W        W 2066  10.316  37.483  10.605
38310W        W 2067  40.983  20.255  13.968
38311W        W 2068  34.506  12.797  13.493
38312W        W 2069  27.059   4.905   4.320
38313W        W 2070  12.126  10.384  10.991
38314W        W 2071  38.371  37.990  13.428
38315W        W 2072  14.634  39.841   3.855
38316W        W 2073  26.997  30.997  12.986
38317W        W 2074  16.289  31.021  14.845
38318W        W 2075  30.134   2.275  13.026
38319W        W 2076  20.674  28.625  10.615
38320W        W 2077  23.589  17.570  14.306
38321W        W 2078  23.552  10.260  13.502
38322W        W 2079   7.224  25.159  14.348
38323W        W 2080  26.661  26.135  13.845
38324W        W 2081   4.209  10.142  12.484
38325W        W 2082  44.834  13.773  11.475
38326W        W 2083  33.552  29.476   3.744
38327W        W 2084  21.590  38.467  11.959
38328W        W 2085  10.830  21.630  11.534
38329W        W 2086   6.851  44.494   2.667
38330W        W 2087  32.967  11.696   0.891
38331W        W 2088   7.882   1.866   5.163
38332W        W 2089  17.757  32.492   1.213
38333W        W 2090  39.052  40.839   0.939
38334W        W 2091  29.050   7.223   1.895
38335W        W 2092  41.376  10.261  13.866
38336W        W 2093   4.845   7.830   5.269
38337W        W 2094  40.012  22.217  10.978
38338W        W 2095  25.979  24.662   1.240
38339W        W 2096  12.284  17.757  12.081
38340W        W 2097   9.213  42.006   2.202
38341W        W 2098  25.962  24.722   3.734
38342W        W 2099  31.015   6.189  11.922
38343W        W 2100  16.254  24.133   0.842
38344W        W 2101  42.798  32.104  11.882
38345W        W 2102  27.155  13.185   0.357
38346W        W 2103   2.430  40.949  10.501
38347W        W 2104  15.741  10.647   1.320
38348W        W 2105  29.592   5.254   2.188
38349W        W 2106  16.744  23.618  12.893
38350W        W 2107  11.268  44.417   2.376
38351W        W 2108  28.066  24.153  10.068
38352W        W 2109   9.643  26.461   3.864
38353W        W 2110  19.189   1.358  14.810
38354W        W 2111  23.992   0.797   1.734
38355W        W 2112  27.111  21.721  12.435
38356W        W 2113   8.219  44.359   1.731
38357W        W 2114  22.605   2.469   1.754
38358W        W 2115  38.935   0.748   5.172
38359W        W 2116   1.906  39.862   3.847
38360W        W 2117  12.310   7.199  11.431
38361W        W 2118  23.990  36.519  13.320
38362W        W 2119  42.917  25.105  13.380
38363W        W 2120  13.679  13.705   1.737
38364W        W 2121   4.835  18.079   2.789
38365W        W 2122  30.972  10.208   2.250
38366W        W 2123  27.447  13.295   2.278
38367W        W 2124  24.586  10.762   1.412
38368W        W 2125  18.083  17.695   4.626
38369W        W 2126  35.504  15.739   0.383
38370W        W 2127  17.090  34.459   0.802
38371W        W 2128   4.415   0.248  13.819
38372W        W 2129  32.965  26.086  12.083
38373W        W 2130  39.892  29.081  14.992
38374W        W 2131  18.223  44.319  11.382
38375W        W 2132  31.644  28.461   2.748
38376W        W 2133  42.421  34.018   3.164
38377W        W 2134  42.441   0.376   0.361
38378W        W 2135   5.732  14.636  12.441
38379W        W 2136  20.050  37.974  12.836
38380W        W 2137  39.533  43.863  12.981
38381W        W 2138  13.675   0.883   0.366
38382W        W 2139   2.413   2.273  13.864
38383W        W 2140  12.321  12.723   3.698
38384W        W 2141  16.266  10.863   1.715
38385W        W 2142  23.512   3.269  10.152
38386W        W 2143  15.264  25.979   3.331
38387W        W 2144  19.107  19.163  14.910
38388W        W 2145  11.676  12.305  13.029
38389W        W 2146   8.797  20.569  12.482
38390W        W 2147  35.536  20.169   4.647
38391W        W 2148   8.363  14.711  12.883
38392W        W 2149  19.050  26.182  10.616
38393W        W 2150  29.108   1.816   3.707
38394W        W 2151  27.149  30.093  12.830
38395W        W 2152   8.730  34.526  11.126
38396W        W 2153  25.158  16.269  10.629
38397W        W 2154  16.794  15.757  11.899
38398W        W 2155   3.802  42.447  12.573
38399W        W 2156  32.524  17.670  11.000
38400W        W 2157  24.061  34.419  12.081
38401W        W 2158   8.822  15.643  10.606
38402W        W 2159  43.989  38.491  13.342
38403W        W 2160  38.840  16.151   2.847
38404W        W 2161  33.622  18.672   2.832
38405W        W 2162   1.922  24.136  10.611
38406W        W 2163   2.383  26.143   1.730
38407W        W 2164  40.347  17.266   1.365
38408W        W 2165   9.799   8.405  10.966
38409W        W 2166   4.356  36.898   2.224
38410W        W 2167  24.227  19.224  14.467
38411W        W 2168  43.409  12.190   1.397
38412W        W 2169  23.580  42.012  13.852
38413W        W 2170   0.854  41.457   4.730
38414W        W 2171  18.203  16.658   2.820
38415W        W 2172  25.677  13.778  14.483
38416W        W 2173  39.402  30.988   0.322
38417W        W 2174   6.743  37.554   1.416
38418W        W 2175  13.601   1.872   1.367
38419W        W 2176  11.840  13.654   0.934
38420W        W 2177  28.550   7.390  14.881
38421W        W 2178  37.454  18.232   2.689
38422W        W 2179   8.295   5.797   3.257
38423W        W 2180   2.761  13.803   3.796
38424W        W 2181  28.558  13.601   2.386
38425W        W 2182   6.409  28.174  13.979
38426W        W 2183  19.132  13.260  12.503
38427W        W 2184  41.377  21.182   0.859
38428W        W 2185  21.542  17.774  11.394
38429W        W 2186   3.837  19.557  14.479
38430W        W 2187  38.891  44.335   2.346
38431W        W 2188  16.804  37.499   4.345
38432W        W 2189  12.192  41.324   4.715
38433W        W 2190  17.227  14.714   0.263
38434W        W 2191  21.108  44.845   1.800
38435W        W 2192  11.250  24.061  13.470
38436W        W 2193  28.138  10.863   4.312
38437W        W 2194  14.651   6.869  14.289
38438W        W 2195  35.002  42.990  13.499
38439W        W 2196  27.689   4.338   1.422
38440W        W 2197   4.224  18.088  12.047
38441W        W 2198  37.578  38.861  14.410
38442W        W 2199  33.980  37.860   2.266
38443W        W 2200  28.610  32.918  11.929
38444W        W 2201   3.277   0.977   3.828
38445W        W 2202  18.149  33.989   4.199
38446W        W 2203  12.292   0.408   3.692
38447W        W 2204  36.939  34.522   1.696
38448W        W 2205  11.775  15.087   2.661
38449W        W 2206   7.354  22.622  14.283
38450W        W 2207   0.450  21.609   1.374
38451W        W 2208  27.624   2.843   4.221
38452W        W 2209  44.980  12.785  11.922
38453W        W 2210   8.849  20.045   3.777
38454W        W 2211   8.343  22.084  12.525
38455W        W 2212  17.270   6.862   2.310
38456W        W 2213   8.687   2.437  10.425
38457W        W 2214  12.791  39.914  13.820
38458W        W 2215  44.471   3.732   2.182
38459W        W 2216  44.313  29.107   1.763
38460W        W 2217  28.465  35.056  13.955
38461W        W 2218  16.790  17.245   2.667
38462W        W 2219  18.597   1.769  11.054
38463W        W 2220   6.211  36.079  10.116
38464W        W 2221  20.110   6.727   2.713
38465W        W 2222  24.669  39.901   4.655
38466W        W 2223  24.531  37.352  11.508
38467W        W 2224  34.885  31.966  13.982
38468W        W 2225   9.646   5.865   3.270
38469W        W 2226  27.969  43.272  11.444
38470W        W 2227  39.436  32.106  12.030
38471W        W 2228   5.306  31.480   1.439
38472W        W 2229  21.085  20.185   4.306
38473W        W 2230  24.581   2.370   1.773
38474W        W 2231  35.945  22.730  11.565
38475W        W 2232  19.534  41.031  14.941
38476W        W 2233  41.434  20.075   2.411
38477W        W 2234  13.810  37.930  10.625
38478W        W 2235  34.063  36.477   1.225
38479W        W 2236  24.567   7.784  14.455
38480W        W 2237   5.271   3.712   4.135
38481W        W 2238  36.074  20.255   1.912
38482W        W 2239  31.620   8.279   1.728
38483W        W 2240  10.868   9.313   4.838
38484W        W 2241  33.900  30.914   1.823
38485W        W 2242  26.475  11.837   2.774
38486W        W 2243  17.213  13.107  11.013
38487W        W 2244  29.092  42.377   1.360
38488W        W 2245  42.281  26.186   0.921
38489W        W 2246  21.567  36.537  13.818
38490W        W 2247  12.307  19.099  11.870
38491W        W 2248  27.083  43.778  14.326
38492W        W 2249  28.181  35.481  11.990
38493W        W 2250  14.664  35.905  11.999
38494W        W 2251  35.078  17.635  14.303
38495W        W 2252   6.848   9.342   0.319
38496W        W 2253   4.394  19.204   1.338
38497W        W 2254  22.203  10.856   3.714
38498W        W 2255   2.399  35.405  12.094
38499W        W 2256  15.586   7.757  11.882
38500W        W 2257  23.238  24.581   3.320
38501W        W 2258  28.069  30.471   4.733
38502W        W 2259  11.342  27.965   4.802
38503W        W 2260  11.709  39.356  13.413
38504W        W 2261  31.439  13.158  13.428
38505W        W 2262  36.424  30.460   9.927
38506W        W 2263  42.910   9.226  12.410
38507W        W 2264  32.406   1.753   9.927
38508W        W 2265   9.811  32.623   0.841
38509W        W 2266  13.832  35.414  11.075
38510W        W 2267  36.386  34.038   0.876
38511W        W 2268   1.776  28.545   3.778
38512W        W 2269   8.264  15.718   0.432
38513W        W 2270  34.554  10.299   3.350
38514W        W 2271  36.438  18.589   1.278
38515W        W 2272  33.102  43.962  11.920
38516W        W 2273  35.978  27.533  12.981
38517W        W 2274  23.641  32.624  12.343
38518W        W 2275   4.312  20.751   3.658
38519W        W 2276   1.863  27.004   3.157
38520W        W 2277  24.133  30.026  13.412
38521W        W 2278  18.080  31.114  10.573
38522W        W 2279  30.607  42.012   4.732
38523W        W 2280  16.684  40.461  11.525
38524W        W 2281  39.029  22.031   1.396
38525W        W 2282  21.189  29.529  14.853
38526W        W 2283  21.042   7.768   4.171
38527W        W 2284  10.787   5.407  12.066
38528W        W 2285  32.130  39.881  11.572
38529W        W 2286  12.156  13.208  14.881
38530W        W 2287  37.475  27.949  12.921
38531W        W 2288  42.383  35.967  13.818
38532W        W 2289  44.797  27.091  10.925
38533W        W 2290  30.997   6.307   0.904
38534W        W 2291   7.907  44.272   0.865
38535W        W 2292  10.824   6.849  10.981
38536W        W 2293  31.639  39.052  10.455
38537W        W 2294  36.520   1.832   4.599
38538W        W 2295   5.773  36.472  13.364
38539W        W 2296  31.634  44.936  10.956
38540W        W 2297  21.161  26.548  14.889
38541W        W 2298   5.361  10.647   3.713
38542W        W 2299  24.154  39.375   4.177
38543W        W 2300  21.620   7.351  14.403
38544W        W 2301  29.027   5.288   5.146
38545W        W 2302  20.577  35.095  11.984
38546W        W 2303  44.409  14.284   1.414
38547W        W 2304  42.994   6.725  11.855
38548W        W 2305  12.696  23.140   4.315
38549W        W 2306   9.291   6.287  11.553
38550W        W 2307  44.936  15.115  11.915
38551W        W 2308  10.823  35.055   4.709
38552W        W 2309  44.275  31.489   2.374
38553W        W 2310  42.476  14.688   0.853
38554W        W 2311  18.183   3.440  13.448
38555W        W 2312  44.006  16.679   0.255
38556W        W 2313  13.822  37.356  12.371
38557W        W 2314  10.798   7.202  14.912
38558W        W 2315  26.606  20.720  13.811
38559W        W 2316  34.402  18.206   2.404
38560W        W 2317  43.325  37.397  12.953
38561W        W 2318  16.611  24.226  13.425
38562W        W 2319  42.883  27.038   0.882
38563W        W 2320  30.055   3.235   3.239
38564W        W 2321  43.013  14.277   1.418
38565W        W 2322  36.000   9.174  14.011
38566W        W 2323  22.622  16.751  10.156
38567W        W 2324  14.230  12.664   0.302
38568W        W 2325  29.499  16.215  13.406
38569W        W 2326  27.121   6.183  13.416
38570W        W 2327  17.200   8.781   2.669
38571W        W 2328  31.429  11.317  13.011
38572W        W 2329  22.692  34.931  14.426
38573W        W 2330  41.032  14.334   3.257
38574W        W 2331  43.487   3.784  11.608
38575W        W 2332  40.963  26.054  13.860
38576W        W 2333  21.688   3.395  13.475
38577W        W 2334   4.314  39.941   3.725
38578W        W 2335  33.502  30.155   3.273
38579W        W 2336  17.679  24.650   4.824
38580W        W 2337  38.015  32.087  14.780
38581W        W 2338   8.662  11.344   3.293
38582W        W 2339   8.675  17.279   3.706
38583W        W 2340  39.520   4.781   1.330
38584W        W 2341  21.207  25.181  14.866
38585W        W 2342  22.238  15.226   3.769
38586W        W 2343   5.360  20.032  10.490
38587W        W 2344  23.210  39.324  13.511
38588W        W 2345  10.287   1.810  14.445
38589W        W 2346  12.331  33.056   1.251
38590W        W 2347   1.832  21.085   5.273
38591W        W 2348  10.264   7.260  12.003
38592W        W 2349  43.296  39.516  11.455
38593W        W 2350  35.540  33.406  12.867
38594W        W 2351  17.128   0.476   1.697
38595W        W 2352   9.659  18.769  14.902
38596W        W 2353  22.111   3.460  12.902
38597W        W 2354  39.381  26.052  13.944
38598W        W 2355  16.233  18.695   0.243
38599W        W 2356  27.188  29.936  10.547
38600W        W 2357  15.323  42.805  14.867
38601W        W 2358  19.215  22.178   4.338
38602W        W 2359  22.527  12.142   4.795
38603W        W 2360  41.465  40.806   0.348
38604W        W 2361   8.271  36.003   2.351
38605W        W 2362  30.417  40.331  10.963
38606W        W 2363  21.078   6.258   3.156
38607W        W 2364   3.381  40.371   2.722
38608W        W 2365  35.950  20.695   4.298
38609W        W 2366  19.275   7.354   4.608
38610W        W 2367  10.232   3.775  13.896
38611W        W 2368   7.300   9.719  14.920
38612W        W 2369   4.851  17.095   3.231
38613W        W 2370  25.200  40.347  14.857
38614W        W 2371  30.513   3.856   3.386
38615W        W 2372  41.375  43.010   3.825
38616W        W 2373   4.358  37.076  11.459
38617W        W 2374  15.144  34.595  12.895
38618W        W 2375   1.959  16.605   2.282
38619W        W 2376  39.919  32.630   0.399
38620W        W 2377  25.582  31.909   1.214
38621W        W 2378  22.077  24.024  13.482
38622W        W 2379  19.542  33.528  11.100
38623W        W 2380  23.519  17.116   0.469
38624W        W 2381  20.190  41.363   2.267
38625W        W 2382  23.491  40.361  11.041
38626W        W 2383  35.909  42.018  13.309
38627W        W 2384  37.050   5.360  11.869
38628W        W 2385  21.112   2.844   0.272
38629W        W 2386   4.909  18.703   3.366
38630W        W 2387  33.408  33.482  13.953
38631W        W 2388  22.026   9.678   0.359
38632W        W 2389  34.615   6.702   3.306
38633W        W 2390  27.946  36.459   4.601
38634W        W 2391  37.484   1.379   3.766
38635W        W 2392  22.632  20.748  14.504
38636W        W 2393  34.556  43.467  13.490
38637W        W 2394  12.728  29.641  10.530
38638W        W 2395  29.068   6.331  13.003
38639W        W 2396  16.142  43.849   4.797
38640W        W 2397  27.033   5.385  10.475
38641W        W 2398   0.474  10.691  13.950
38642W        W 2399  28.107  22.508   0.810
38643W        W 2400  31.602   5.248   0.858
38644W        W 2401  36.872  20.760  12.510
38645W        W 2402  32.597  37.524  14.809
38646W        W 2403  37.008  17.289   1.336
38647W        W 2404  39.907  15.189  13.327
38648W        W 2405  40.364   3.757   4.169
38649W        W 2406  29.481  22.130  10.594
38650W        W 2407  10.294  36.847   3.335
38651W        W 2408  30.499  34.999   4.608
38652W        W 2409  26.103  41.956  10.928
38653W        W 2410  10.158  27.124  10.959
38654W        W 2411  15.710  35.489  11.409
38655W        W 2412  19.229   7.413  11.583
38656W        W 2413   3.778  25.116   5.227
38657W        W 2414   2.952  22.075  12.523
38658W        W 2415  16.812  35.425   2.380
38659W        W 2416  12.708  42.854   2.412
38660W        W 2417  11.179  33.072  11.451
38661W        W 2418  16.154  37.391  11.563
38662W        W 2419  28.546   0.493   0.438
38663W        W 2420  10.268  42.000   2.243
38664W        W 2421   5.729  16.274  13.396
38665W        W 2422  27.096  34.929   4.146
38666W        W 2423  11.318   3.855   3.704
38667W        W 2424   3.270   1.772   0.942
38668W        W 2425   7.319  44.356   0.255
38669W        W 2426  40.938  43.002   4.777
38670W        W 2427   8.840  26.687   4.115
38671W        W 2428  36.996  32.612  11.873
38672W        W 2429  22.194  28.550  12.489
38673W        W 2430  36.025  37.035   2.309
38674W        W 2431  13.336  34.563   2.667
38675W        W 2432  13.320  28.003   0.295
38676W        W 2433  17.633   8.676  10.540
38677W        W 2434   4.298  40.822   1.788
38678W        W 2435  24.638   9.811  13.835
38679W        W 2436   7.864  24.525   0.952
38680W        W 2437  18.197  13.116   1.805
38681W        W 2438  13.738   3.956  10.412
38682W        W 2439   7.855   4.448   4.214
38683W        W 2440  22.025   8.197  10.954
38684W        W 2441  21.087  19.729   0.916
38685W        W 2442  25.161  36.072  13.814
38686W        W 2443   5.235  16.233  11.022
38687W        W 2444  27.487   8.277   0.389
38688W        W 2445   1.330  22.034  11.104
38689W        W 2446  37.077  24.115  12.068
38690W        W 2447  24.224  10.224  11.081
38691W        W 2448  25.498  31.517   1.863
38692W        W 2449  21.079  19.225  10.406
38693W        W 2450  30.153  13.703  11.993
38694W        W 2451  23.529  30.913  14.348
38695W        W 2452  39.043  28.664   0.956
38696W        W 2453  30.070  13.733  12.426
38697W        W 2454  15.691  18.297   3.836
38698W        W 2455   8.810  40.459   0.360
38699W        W 2456  23.732   2.902  12.372
38700W        W 2457  24.576  36.516  11.948
38701W        W 2458   0.765   7.189   0.828
38702W        W 2459  44.884  13.339  10.466
38703W        W 2460  28.486  14.340   2.856
38704W        W 2461  20.093   5.822  11.129
38705W        W 2462  37.983  33.091  14.424
38706W        W 2463  33.531  36.507  12.973
38707W        W 2464  33.125  34.866   3.870
38708W        W 2465   9.816  19.053   1.273
38709W        W 2466  20.681  40.343  10.965
38710W        W 2467  18.609  16.090  13.486
38711W        W 2468  39.466  33.537   2.413
38712W        W 2469  21.655  34.388   3.781
38713W        W 2470  44.452  26.134  13.919
38714W        W 2471  33.471  38.358   3.383
38715W        W 2472  34.112  32.417   4.694
38716W        W 2473   3.820  12.669   3.161
38717W        W 2474  38.892   4.813   4.222
38718W        W 2475  11.709  37.426  12.480
38719W        W 2476  10.753  32.901  11.593
38720W        W 2477  23.097  31.960  10.419
38721W        W 2478   2.907  30.140  10.549
38722W        W 2479   4.702  36.574   3.306
38723W        W 2480  27.112  17.686  10.913
38724W        W 2481  37.994  11.634   3.692
38725W        W 2482  19.760  14.223   0.437
38726W        W 2483  13.719  43.429  12.864
38727W        W 2484   7.291  44.287   1.777
38728W        W 2485  31.635   3.256  10.549
38729W        W 2486  16.626  18.258   1.433
38730W        W 2487  41.974  31.963  12.517
38731W        W 2488   0.891   9.349  10.550
38732W        W 2489  23.206  20.177   1.855
38733W        W 2490  19.550   6.307   4.275
38734W        W 2491  31.032   1.414  12.980
38735W        W 2492  29.622   8.787  13.437
38736W        W 2493  44.418  32.400   0.391
38737W        W 2494  26.146  44.827   1.733
38738W        W 2495  41.474  38.848   2.233
38739W        W 2496  34.400   5.913  13.874
38740W        W 2497  42.324  32.610   1.284
38741W        W 2498   0.482  44.925  11.900
38742W        W 2499   0.388  43.890   1.334
38743W        W 2500  20.101  19.581  14.782
38744W        W 2501  24.052  19.055   0.875
38745W        W 2502  25.155  19.279   1.280
38746W        W 2503  28.978   4.275   1.757
38747W        W 2504  29.455  10.153  10.990
38748W        W 2505  38.896  35.552  10.022
38749W        W 2506  34.585  34.591   0.776
38750W        W 2507  39.957  29.921   2.362
38751W        W 2508   4.867  30.644  14.403
38752W        W 2509  29.430  17.629   0.733
38753W        W 2510  37.495  28.627  12.939
38754W        W 2511  22.072   9.852  10.640
38755W        W 2512  17.292  32.604   1.437
38756W        W 2513  29.660  44.788  14.849
38757W        W 2514  31.540  14.165   4.787
38758W        W 2515  38.328  22.153   1.406
38759W        W 2516   3.826   1.279  12.056
38760W        W 2517  12.656  14.252   1.899
38761W        W 2518  31.531  11.644  11.932
38762W        W 2519  44.338  43.275   3.283
38763W        W 2520  42.944  21.728  12.514
38764W        W 2521  31.956  44.262   5.269
38765W        W 2522   2.759  32.979  12.000
38766W        W 2523  31.043  16.083   4.258
38767W        W 2524  33.094  43.279  11.517
38768W        W 2525  16.735  44.900  14.998
38769W        W 2526  44.984  33.064  14.445
38770W        W 2527  16.303  36.468  13.927
38771W        W 2528  26.667  15.648  12.394
38772W        W 2529  30.956  13.306  10.536
38773W        W 2530  13.222  12.766   4.608
38774W        W 2531  32.624  41.468   3.293
38775W        W 2532  11.353  16.199   1.853
38776W        W 2533  19.733   8.789   1.278
38777W        W 2534   9.837  29.466   3.819
38778W        W 2535  33.511  30.526  13.382
38779W        W 2536  11.677  17.559   2.757
38780W        W 2537   8.866  20.749  12.020
38781W        W 2538  28.079  16.702   3.224
38782W        W 2539   9.304  22.630   1.360
38783W        W 2540  20.055  40.904  13.538
38784W        W 2541   2.259  30.575   4.833
38785W        W 2542  40.534   4.279   1.923
38786W        W 2543  11.796  13.171  11.994
38787W        W 2544   5.932   6.251  11.373
38788W        W 2545   0.269  14.243   5.274
38789W        W 2546  40.519  26.058  14.475
38790W        W 2547  21.183  23.993   3.377
38791W        W 2548  36.996  38.925  14.495
38792W        W 2549   6.251  40.892   2.250
38793W        W 2550   7.807  36.447  14.326
38794W        W 2551  10.283  41.478   4.121
38795W        W 2552  24.577   1.286  14.368
38796W        W 2553  20.269  10.374  14.905
38797W        W 2554  22.641  15.617   5.311
38798W        W 2555   0.893   6.213   3.770
38799W        W 2556   7.878  40.835   4.820
38800W        W 2557  39.818  11.141  13.852
38801W        W 2558  30.035   2.823   1.257
38802W        W 2559  34.010   9.744  12.417
38803W        W 2560  37.997  13.142   1.899
38804W        W 2561  29.663  40.340  11.534
38805W        W 2562  13.662  31.999   0.901
38806W        W 2563  14.596   4.878   3.187
38807W        W 2564  16.608   0.749   1.778
38808W        W 2565  24.995  11.685   1.903
38809W        W 2566  20.665  22.694   1.412
38810W        W 2567   8.799  11.329   2.357
38811W        W 2568  43.351   8.170   1.303
38812W        W 2569   5.409  29.159  11.015
38813W        W 2570  24.626  28.593   3.198
38814W        W 2571  17.073   2.929   0.875
38815W        W 2572   6.189  35.565  11.509
38816W        W 2573  21.604  24.546  14.765
38817W        W 2574  35.551  20.632   3.236
38818W        W 2575  16.147   8.857   3.801
38819W        W 2576  10.305  10.188  12.455
38820W        W 2577  24.081  18.597   1.373
38821W        W 2578  23.165  18.594   0.921
38822W        W 2579   7.708  26.208  13.536
38823W        W 2580  44.959  41.956   0.926
38824W        W 2581  23.617  24.074   1.363
38825W        W 2582  27.174   8.765   2.690
38826W        W 2583   9.822  41.907   0.782
38827W        W 2584   1.793  42.485  11.927
38828W        W 2585  29.458   3.350  14.405
38829W        W 2586  43.453  10.168   4.629
38830W        W 2587   4.886  22.111   2.258
38831W        W 2588  32.434  11.134  12.009
38832W        W 2589  43.448  23.171  11.095
38833W        W 2590  11.335   2.383  13.022
38834W        W 2591  35.977   8.397  12.420
38835W        W 2592  42.442  41.000  14.821
38836W        W 2593   4.903  11.697   1.932
38837W        W 2594  21.197  29.994   4.741
38838W        W 2595  25.149   7.390   4.778
38839W        W 2596  17.295  36.069  10.614
38840W        W 2597  22.216  26.158   0.473
38841W        W 2598  19.615  33.496  11.560
38842W        W 2599  25.534   0.980  10.439
38843W        W 2600  14.713   4.313  14.764
38844W        W 2601   5.725  15.202   2.816
38845W        W 2602  14.593  32.607   0.271
38846W        W 2603  12.219  20.636  13.819
38847W        W 2604  18.637  12.148   0.816
38848W        W 2605  17.181  28.581   4.270
38849W        W 2606  22.575  20.612   0.953
38850W        W 2607  37.473  40.987   1.766
38851W        W 2608  43.831  23.167   3.755
38852W        W 2609  20.227  16.593  12.043
38853W        W 2610  17.251  41.370  12.832
38854W        W 2611   8.177  38.358   3.663
38855W        W 2612  39.496  15.166  14.426
38856W        W 2613   5.739  28.592   4.236
38857W        W 2614   0.863   8.175   3.828
38858W        W 2615  43.465  22.251  13.974
38859W        W 2616  14.791  30.154   1.906
38860W        W 2617  18.678   4.335   1.313
38861W        W 2618  33.918   4.837  14.399
38862W        W 2619  22.527  31.017  11.420
38863W        W 2620  35.988  12.177   4.786
38864W        W 2621   8.199   7.710   2.347
38865W        W 2622  44.343  35.973  14.440
38866W        W 2623  38.979   5.816   3.680
38867W        W 2624   6.331   9.889   2.689
38868W        W 2625  18.097  21.057   2.413
38869W        W 2626  34.614  31.936  14.282
38870W        W 2627  38.362  25.573   0.909
38871W        W 2628   3.781   0.759  12.483
38872W        W 2629   6.350  42.299   3.367
38873W        W 2630  26.979  22.189   1.916
38874W        W 2631  42.973  40.045   3.345
38875W        W 2632  39.401  31.491  13.436
38876W        W 2633   0.403  39.919  11.877
38877W        W 2634   3.276   5.853  10.067
38878W        W 2635  36.485   6.751   3.821
38879W        W 2636  10.365   6.920   1.351
38880W        W 2637   1.890  43.977   4.693
38881W        W 2638  39.838  26.688  11.538
38882W        W 2639  25.653  12.668  11.087
38883W        W 2640  22.677  34.576   1.922
38884W        W 2641   5.222  36.495   3.655
38885W        W 2642  28.541  16.176   1.381
38886W        W 2643   9.178  18.691  13.794
38887W        W 2644   9.847  20.566  10.980
38888W        W 2645   8.300  32.936   3.371
38889W        W 2646  14.267  34.942   1.855
38890W        W 2647  17.691  43.514  14.407
38891W        W 2648   3.259  32.505   0.335
38892W        W 2649   8.719   3.248   4.751
38893W        W 2650  38.417  26.003  13.975
38894W        W 2651  15.746  43.895  12.568
38895W        W 2652  19.746  35.550   2.280
38896W        W 2653  18.735  32.533   0.345
38897W        W 2654   6.829  10.160   2.396
38898W        W 2655  11.263  32.415   4.256
38899W        W 2656  37.494  27.065   2.709
38900W        W 2657  22.579  40.422  13.863
38901W        W 2658  33.472  28.180  14.469
38902W        W 2659  37.970  14.830  10.436
38903W        W 2660  17.067  14.276   1.242
38904W        W 2661  42.511  33.888   2.763
38905W        W 2662   5.398  34.416   1.872
38906W        W 2663  37.426  37.919  12.980
38907W        W 2664  44.353  10.717   1.794
38908W        W 2665   6.209  19.141  12.563
38909W        W 2666  26.569   4.937   3.364
38910W        W 2667  25.158  29.043  12.468
38911W        W 2668  19.226   2.256   0.773
38912W        W 2669  43.766   4.766  13.546
38913W        W 2670  13.783  24.047   2.743
38914W        W 2671   5.388  10.876  13.436
38915W        W 2672  28.078  24.663   0.893
38916W        W 2673  28.098  20.626   4.687
38917W        W 2674  11.805  42.792   0.408
38918W        W 2675  22.615  37.356  12.906
38919W        W 2676  32.550  11.249  10.603
38920W        W 2677  39.945  35.977  11.106
38921W        W 2678  22.707  32.633  14.886
38922W        W 2679  18.685  28.632  11.453
38923W        W 2680  34.987  39.822   2.257
38924W        W 2681  28.592  21.670   1.302
38925W        W 2682  16.086  28.527   1.785
38926W        W 2683   2.418  19.183  11.989
38927W        W 2684   3.377  18.717  14.386
38928W        W 2685  40.031   9.793   1.885
38929W        W 2686  42.431  20.158   4.779
38930W        W 2687  16.316  13.191  11.446
38931W        W 2688  18.098  32.595  12.481
38932W        W 2689   8.712  38.830  14.032
38933W        W 2690   3.444  14.676  14.784
38934W        W 2691  39.965  12.737   2.182
38935W        W 2692   8.400  43.945  13.891
38936W        W 2693  12.665   8.818   2.701
38937W        W 2694  22.173  16.593  14.845
38938W        W 2695  40.007  16.598   4.730
38939W        W 2696  15.713  34.551  14.013
38940W        W 2697  39.815   2.344   3.714
38941W        W 2698  23.027  12.304   2.250
38942W        W 2699  34.033   8.819  13.855
38943W        W 2700  28.555  41.031  10.594
38944W        W 2701  14.315   2.733  12.571
38945W        W 2702  40.352  36.392   0.362
38946W        W 2703  17.093  31.948   0.943
38947W        W 2704  39.968  35.457  12.884
38948W        W 2705  16.689  18.688   4.684
38949W        W 2706  19.148   2.416  12.580
38950W        W 2707   6.319   7.331  14.422
38951W        W 2708  40.353   3.806   2.246
38952W        W 2709  26.474  41.964  13.524
38953W        W 2710  18.725  29.428  11.556
38954W        W 2711  40.928  25.674  14.953
38955W        W 2712  32.544  23.544   3.272
38956W        W 2713  12.663  13.736   1.437
38957W        W 2714  30.458  17.784  14.983
38958W        W 2715   2.868  17.648  14.358
38959W        W 2716   4.874  16.314  10.984
38960W        W 2717  18.169   8.764   4.631
38961W        W 2718  39.469  43.490   1.887
38962W        W 2719   2.360  39.551   2.837
38963W        W 2720  32.415  20.675   3.155
38964W        W 2721  22.635  26.066   2.895
38965W        W 2722  21.591  26.536  11.611
38966W        W 2723  41.331  15.283  13.870
38967W        W 2724  25.183  28.029  13.021
38968W        W 2725  18.164  35.441  12.061
38969W        W 2726  41.014  40.979   0.752
38970W        W 2727  30.624  28.555   3.246
38971W        W 2728  32.512  10.801  10.479
38972W        W 2729  36.539  31.548   1.251
38973W        W 2730  25.546   4.310   4.254
38974W        W 2731  10.209  31.933   1.446
38975W        W 2732  30.948  32.626   4.785
38976W        W 2733  10.823   2.260   3.266
38977W        W 2734  38.973  24.165  14.956
38978W        W 2735  30.011  22.060   1.807
38979W        W 2736  16.636  42.519   3.699
38980W        W 2737  24.045  31.642   0.825
38981W        W 2738  24.500  31.617  12.422
38982W        W 2739  30.559  23.505  11.440
38983W        W 2740   0.265   6.743  13.060
38984W        W 2741  33.033  13.141  13.064
38985W        W 2742  43.909  13.259  13.819
38986W        W 2743  34.443  25.146  12.929
38987W        W 2744  12.363  40.311   3.308
38988W        W 2745  35.983  11.625  14.922
38989W        W 2746   3.375   2.387  13.950
38990W        W 2747  38.062  15.089   0.807
38991W        W 2748  39.032  17.305   2.770
38992W        W 2749  36.430  39.475  13.798
38993W        W 2750  37.381  18.727   1.392
38994W        W 2751  42.926   1.375  12.949
38995W        W 2752  39.971  25.579   0.910
38996W        W 2753   5.246  41.858  13.349
38997W        W 2754  44.467  38.995   0.466
38998W        W 2755  34.373  15.636  12.895
38999W        W 2756  21.634  25.511   0.727
39000W        W 2757  19.122  12.791   0.394
39001W        W 2758  28.095  38.425   2.416
39002W        W 2759   6.791  38.444   1.910
39003W        W 2760   1.267   3.805   0.433
39004W        W 2761  28.950  22.187  10.064
39005W        W 2762  29.064  43.377  10.515
39006W        W 2763  15.322  12.303  14.428
39007W        W 2764  13.212   8.836  11.941
39008W        W 2765  29.531  31.932   4.692
39009W        W 2766  12.663  39.470  12.863
39010W        W 2767  43.930  39.324   3.798
39011W        W 2768  29.571  17.299  10.487
39012W        W 2769  31.548   6.362   0.286
39013W        W 2770   6.310  39.382  13.422
39014W        W 2771  29.112  10.177   4.216
39015W        W 2772  21.172  13.761   1.848
39016W        W 2773  12.831  29.994   2.775
39017W        W 2774   6.794  37.019   2.335
39018W        W 2775  28.980  12.334   2.203
39019W        W 2776   7.298  14.673  13.505
39020W        W 2777   3.371  33.032  10.564
39021W        W 2778  40.459   6.753   3.651
39022W        W 2779  44.390  24.078   0.422
39023W        W 2780  28.095  17.632  14.815
39024W        W 2781  21.646   5.300   3.246
39025W        W 2782   9.883  34.492  14.329
39026W        W 2783  34.081  16.578  12.053
39027W        W 2784  39.488  41.366   0.911
39028W        W 2785  30.066   5.770  11.594
39029W        W 2786  26.124  14.686  12.463
39030W        W 2787  13.251   6.210  10.619
39031W        W 2788  11.359  22.161  11.922
39032W        W 2789  10.848  19.090  14.993
39033W        W 2790  42.782  25.192   0.424
39034W        W 2791  15.616  15.672  11.114
39035W        W 2792   0.346  31.598   4.223
39036W        W 2793  18.285  13.241  12.512
39037W        W 2794  22.687  37.560  13.430
39038W        W 2795   7.394  42.417  12.424
39039W        W 2796  32.521  23.712   4.114
39040W        W 2797  21.512  38.523   2.890
39041W        W 2798  18.752  20.742  12.856
39042W        W 2799  43.946  40.405   1.288
39043W        W 2800  14.627  44.945   1.736
39044W        W 2801   2.328  34.959  10.477
39045W        W 2802   4.850   7.745  12.035
39046W        W 2803   3.344   9.688   1.320
39047W        W 2804  14.305  28.608  13.384
39048W        W 2805  27.148  30.415  11.435
39049W        W 2806  43.983  11.721   2.220
39050W        W 2807  38.849  30.619   0.352
39051W        W 2808  22.090  28.575   4.626
39052W        W 2809  18.086  30.480   0.822
39053W        W 2810   8.194  26.958  13.817
39054W        W 2811  30.050  29.546  12.961
39055W        W 2812  38.495  21.729  14.495
39056W        W 2813  43.507  19.686  11.057
39057W        W 2814  12.318   2.764  12.408
39058W        W 2815  18.091  25.007  14.967
39059W        W 2816  25.069  40.469  11.866
39060W        W 2817  19.056  40.478  11.580
39061W        W 2818   7.827  24.181   2.343
39062W        W 2819  27.949  43.980   3.202
39063W        W 2820  39.052  11.292  14.428
39064W        W 2821  32.099   0.894   2.378
39065W        W 2822  30.925  14.626   1.433
39066W        W 2823  42.032  18.272  11.064
39067W        W 2824   6.187  40.886   1.836
39068W        W 2825  19.268  24.484   2.897
39069W        W 2826   5.886  31.018  12.574
39070W        W 2827  39.351   5.336   9.632
39071W        W 2828  11.634  20.560  11.607
39072W        W 2829  32.017   7.860   4.607
39073W        W 2830  27.461  18.092   1.755
39074W        W 2831  39.517  13.301  14.464
39075W        W 2832  17.145   6.337  12.462
39076W        W 2833  34.028  12.797   0.273
39077W        W 2834  27.448  27.146   3.249
39078W        W 2835   1.353   6.288   3.660
39079W        W 2836  24.097  24.536   4.196
39080W        W 2837  38.970  41.799   2.328
39081W        W 2838  30.482  12.656   3.801
39082W        W 2839   2.346  26.686  13.957
39083W        W 2840  20.266  32.540   4.784
39084W        W 2841  33.994  44.882   0.798
39085W        W 2842  18.111  36.431  12.411
39086W        W 2843  40.884   2.370   2.739
39087W        W 2844  40.474   4.436   2.722
39088W        W 2845   7.716   0.409   0.318
39089W        W 2846  28.538   6.715  13.919
39090W        W 2847  38.548  10.854  14.859
39091W        W 2848  11.221  31.048   2.714
39092W        W 2849  30.053  32.008   1.716
39093W        W 2850   3.739   7.185   3.170
39094W        W 2851   0.473  16.264  14.765
39095W        W 2852  31.063  16.094  11.057
39096W        W 2853  22.729  19.651   0.243
39097W        W 2854  19.234  24.013   4.615
39098W        W 2855  42.401  38.341  14.841
39099W        W 2856  20.265  19.746  13.829
39100W        W 2857  41.475  36.855  11.015
39101W        W 2858  19.661  23.714  12.968
39102W        W 2859   8.267  36.851   3.649
39103W        W 2860  19.618  26.552   0.826
39104W        W 2861  12.156  10.794  11.878
39105W        W 2862   6.849  13.163   0.298
39106W        W 2863  32.036  10.227   2.252
39107W        W 2864  38.383  14.680   0.398
39108W        W 2865  17.115   1.936   1.260
39109W        W 2866  27.684  18.280  10.596
39110W        W 2867  39.947   3.246  12.081
39111W        W 2868  19.592  17.306   4.181
39112W        W 2869  26.013  26.649   3.265
39113W        W 2870  18.246  39.841  12.550
39114W        W 2871   1.332  23.236  14.353
39115W        W 2872  27.553  44.308  13.024
39116W        W 2873  23.677  38.450   4.625
39117W        W 2874  27.461  36.403   2.290
39118W        W 2875  30.946  21.153  13.866
39119W        W 2876  36.537  13.672  11.894
39120W        W 2877   1.784  35.088  12.484
39121W        W 2878  18.635  19.213  10.639
39122W        W 2879  10.817  32.086   3.318
39123W        W 2880   6.791   5.799   4.131
39124W        W 2881   7.795  42.922  13.880
39125W        W 2882  41.344  16.236   4.175
39126W        W 2883  18.269   1.788   0.830
39127W        W 2884  26.603  24.140   1.443
39128W        W 2885  38.557   2.821  13.830
39129W        W 2886  12.674   1.317   2.220
39130W        W 2887  39.891  20.065   3.220
39131W        W 2888  21.183  13.117   4.134
39132W        W 2889  28.460   1.889  12.869
39133W        W 2890   7.376  13.610  10.993
39134W        W 2891  12.626  16.160  12.882
39135W        W 2892   4.444  43.815  12.001
39136W        W 2893  23.238  19.728  12.450
39137W        W 2894   2.779  32.104  14.003
39138W        W 2895  40.404  31.577  13.926
39139W        W 2896  19.138  37.036   5.674
39140W        W 2897  10.307  17.708  12.505
39141W        W 2898  24.975   1.790  11.924
39142W        W 2899  11.366  10.379  10.519
39143W        W 2900  40.918   0.761   2.244
39144W        W 2901   8.693  42.974  11.862
39145W        W 2902  38.044  23.718  12.894
39146W        W 2903   2.455  41.467  11.396
39147W        W 2904  33.904   5.886   9.597
39148W        W 2905  25.016   2.357  12.486
39149W        W 2906   4.699  44.904  14.899
39150W        W 2907  19.592   2.738   1.770
39151W        W 2908  41.847   2.383   3.173
39152W        W 2909   8.187  29.620   1.299
39153W        W 2910  27.000   3.290   4.673
39154W        W 2911  24.125  29.575  14.407
39155W        W 2912  19.101  28.453  13.338
39156W        W 2913   0.390   7.856   0.926
39157W        W 2914  36.925  37.404   3.751
39158W        W 2915  42.408  20.213  10.990
39159W        W 2916  18.198   4.918   1.359
39160W        W 2917  43.509  32.470  12.038
39161W        W 2918  36.363  23.005   0.419
39162W        W 2919  19.068  19.735   1.900
39163W        W 2920  27.564   4.277   3.337
39164W        W 2921   5.423  20.682   3.281
39165W        W 2922  17.611  25.625   0.475
39166W        W 2923  36.938   5.778  11.421
39167W        W 2924   0.946  37.043   4.603
39168W        W 2925  10.723  37.375   3.248
39169W        W 2926  39.871  23.735   4.603
39170W        W 2927  32.496   4.240  14.285
39171W        W 2928  39.332  29.649  10.976
39172W        W 2929   8.711  15.203  11.967
39173W        W 2930  40.454  17.303  12.477
39174W        W 2931  10.664   4.708  14.296
39175W        W 2932  35.868  18.291  12.824
39176W        W 2933   9.243  22.545   4.149
39177W        W 2934  26.620  32.535   4.160
39178W        W 2935  13.204  38.864   2.880
39179W        W 2936  16.616   9.320  11.951
39180W        W 2937  33.429  20.234   2.750
39181W        W 2938  14.337  39.022   0.795
39182W        W 2939  21.023   4.920   4.803
39183W        W 2940  22.129  40.478  10.504
39184W        W 2941   7.800  19.208   1.927
39185W        W 2942  17.216  17.621   2.262
39186W        W 2943  36.062  18.549   0.835
39187W        W 2944   8.664  36.501  14.998
39188W        W 2945  29.616  21.644   3.172
39189W        W 2946  12.709  30.592  14.277
39190W        W 2947  33.558  43.461   3.761
39191W        W 2948  16.206   2.839  13.807
39192W        W 2949   0.972  30.449   4.275
39193W        W 2950  17.652  38.972  12.547
39194W        W 2951   5.280  40.386   2.279
39195W        W 2952  35.364  39.472   0.884
39196W        W 2953  16.753  27.169  12.370
39197W        W 2954  44.834  23.586   3.206
39198W        W 2955  17.278  20.757  11.470
39199W        W 2956   7.777  42.788   4.129
39200W        W 2957   7.686  32.010   4.324
39201W        W 2958  32.595   2.436   4.628
39202W        W 2959  23.234  25.067   2.281
39203W        W 2960  13.245  33.085   1.351
39204W        W 2961  21.026  32.108   3.316
39205W        W 2962  14.733  14.664  13.875
39206W        W 2963  18.711  23.666   9.994
39207W        W 2964  42.850  35.916  14.010
39208W        W 2965  44.985   7.783  13.479
39209W        W 2966  12.681  36.529  11.952
39210W        W 2967   8.721  17.746  13.907
39211W        W 2968  36.902   8.863  14.339
39212W        W 2969   0.935  12.820  11.110
39213W        W 2970   7.390  14.662  12.880
39214W        W 2971   0.404  10.714  14.409
39215W        W 2972   1.870   7.695   1.713
39216W        W 2973  24.149  17.642  13.972
39217W        W 2974  15.122   7.825   0.265
39218W        W 2975  16.081   4.940  12.945
39219W        W 2976   9.860   5.773  11.579
39220W        W 2977  34.482  19.708  10.423
39221W        W 2978  35.601   1.876  11.053
39222W        W 2979  21.548   2.421  12.013
39223W        W 2980  44.925   1.968  13.054
39224W        W 2981   8.190   9.247   0.260
39225W        W 2982  41.376  32.397  13.953
39226W        W 2983   8.172   8.720   3.236
39227W        W 2984   1.403  19.761   4.164
39228W        W 2985  32.000  34.994   4.204
39229W        W 2986   5.421  41.863   0.788
39230W        W 2987  21.689  37.003   2.220
39231W        W 2988  40.450  43.997   3.347
39232W        W 2989   3.847  22.686   0.898
39233W        W 2990  37.957  10.262   3.633
39234W        W 2991   5.874  30.594   2.685
39235W        W 2992  19.278  42.324  14.461
39236W        W 2993  30.163  25.214   1.817
39237W        W 2994  17.747  38.870   4.674
39238W        W 2995  16.156  27.021  12.021
39239W        W 2996  31.599  27.008  10.924
39240W        W 2997  43.402   2.311  14.807
39241W        W 2998  34.431  30.032  12.870
39242W        W 2999  13.159  28.517  13.325
39243W        W 3000  33.482  18.253   0.864
39244W        W 3001  38.367  33.073   2.681
39245W        W 3002  18.603   1.305   2.306
39246W        W 3003   8.347  18.716   0.473
39247W        W 3004  16.770  11.821   1.291
39248W        W 3005   6.354  13.714   3.308
39249W        W 3006  24.130   2.340  12.013
39250W        W 3007   5.293   9.883   3.842
39251W        W 3008  25.159  17.256  12.031
39252W        W 3009  23.650  43.988  12.017
39253W        W 3010  21.644   1.791  11.062
39254W        W 3011  43.389  14.150  12.509
39255W        W 3012  30.451   9.675  13.343
39256W        W 3013  12.642   3.417   0.961
39257W        W 3014  26.549  37.533  11.932
39258W        W 3015  40.849  18.122  11.097
39259W        W 3016  19.061  39.538   2.726
39260W        W 3017  27.604  30.624  13.377
39261W        W 3018   8.717  16.574   3.691
39262W        W 3019  35.546  43.472   0.398
39263W        W 3020  20.686  18.632  12.463
39264W        W 3021   8.315  37.500   4.831
39265W        W 3022  14.259  30.511  13.405
39266W        W 3023  35.856  25.077  10.547
39267W        W 3024  40.968   3.823  14.940
39268W        W 3025  40.451  41.858  13.448
39269W        W 3026   8.676  33.386  12.020
39270W        W 3027  21.247  29.562  11.380
39271W        W 3028  16.615   5.888   2.739
39272W        W 3029  17.792  40.813   0.848
39273W        W 3030  35.004  27.166  11.066
39274W        W 3031  18.677  37.390  14.021
39275W        W 3032  30.008  37.495  12.359
39276W        W 3033  26.491  10.819  13.993
39277W        W 3034  20.196  14.285   4.742
39278W        W 3035  23.138  37.405  14.343
39279W        W 3036  21.195  10.367   9.998
39280W        W 3037  22.644  22.651   1.292
39281W        W 3038  39.499  35.594  13.809
39282W        W 3039   9.672   1.361  14.941
39283W        W 3040   7.174  38.443  14.879
39284W        W 3041  43.840  37.485   2.232
39285W        W 3042   8.285  26.553   1.388
39286W        W 3043   4.722  26.169   1.805
39287W        W 3044  26.069  15.603  14.017
39288W        W 3045  17.763  17.143   3.325
39289W        W 3046  32.965  30.945   0.864
39290W        W 3047   8.754  31.533   1.776
39291W        W 3048  36.531   0.745   1.728
39292W        W 3049  42.964  18.766   0.479
39293W        W 3050  29.572  42.406  12.545
39294W        W 3051  24.707  36.498  14.429
39295W        W 3052  28.606  27.647   1.803
39296W        W 3053  23.095  19.274   3.350
39297W        W 3054   5.693  33.064  13.004
39298W        W 3055   6.184  24.032  11.001
39299W        W 3056  35.033  40.015   0.747
39300W        W 3057  18.240   7.904   0.365
39301W        W 3058  41.866  41.037   4.266
39302W        W 3059  36.922  37.895   0.841
39303W        W 3060  34.011  35.076  13.318
39304W        W 3061  19.589  40.924   1.740
39305W        W 3062  20.670  30.152  12.937
39306W        W 3063  30.115  20.064  11.110
39307W        W 3064  43.508  16.145  14.000
39308W        W 3065   1.244  18.683   1.776
39309W        W 3066  38.515   4.419  13.402
39310W        W 3067  30.008  32.921   2.292
39311W        W 3068  22.713  43.493   4.768
39312W        W 3069  12.160  12.839   1.790
39313W        W 3070  27.088  19.054   3.364
39314W        W 3071  15.778  12.334  14.426
39315W        W 3072  41.971  13.281   0.825
39316W        W 3073  31.551  26.460  13.523
39317W        W 3074   7.889   0.854  12.070
39318W        W 3075  26.068  43.486  14.358
39319W        W 3076  20.204   8.231   2.882
39320W        W 3077  20.609  14.601  13.882
39321W        W 3078  19.765  30.958  10.977
39322W        W 3079  15.778  10.222   1.879
39323W        W 3080  16.807  39.829  11.560
39324W        W 3081  32.905  33.484   0.271
39325W        W 3082  28.171  14.137   3.216
39326W        W 3083  17.671  40.435   3.254
39327W        W 3084  31.632  31.437   2.346
39328W        W 3085  23.990  26.203  14.396
39329W        W 3086  18.101   6.227  12.369
39330W        W 3087  19.568  13.267  13.501
39331W        W 3088  33.530  14.794   3.190
39332W        W 3089  27.049  14.134   4.718
39333W        W 3090  14.681  13.185   0.319
39334W        W 3091   5.907  18.632  13.327
39335W        W 3092  13.166  27.049  14.306
39336W        W 3093  13.631   9.658   0.842
39337W        W 3094  30.460  38.340   0.786
39338W        W 3095   8.671  38.906  10.591
39339W        W 3096   7.381   0.280   2.256
39340W        W 3097  30.950  35.473  14.825
39341W        W 3098   5.796  36.437  12.469
39342W        W 3099   9.352  32.955   0.463
39343W        W 3100  43.947   9.221  13.039
39344W        W 3101  23.178  28.110  12.077
39345W        W 3102  13.278  25.001  14.309
39346W        W 3103   5.393  26.669  13.003
39347W        W 3104   7.307  33.609  10.576
39348W        W 3105  43.786  13.228   4.213
39349W        W 3106   9.745  11.782   3.743
39350W        W 3107  42.842   5.405   2.824
39351W        W 3108  39.414  22.182  10.984
39352W        W 3109  44.485  29.427   2.205
39353W        W 3110  29.989  31.093  13.992
39354W        W 3111  13.224  12.646   1.216
39355W        W 3112  11.203  33.896   1.827
39356W        W 3113   1.754   4.382   0.826
39357W        W 3114  28.485  23.495   0.954
39358W        W 3115  29.505  32.069   2.251
39359W        W 3116   8.349  25.595   0.801
39360W        W 3117  33.476  15.754   0.417
39361W        W 3118  33.455  32.980  13.008
39362W        W 3119  32.491  21.653   4.645
39363W        W 3120  25.502  41.335  10.912
39364W        W 3121  15.766  39.428  13.946
39365W        W 3122   8.719  44.802   1.220
39366W        W 3123  21.576  23.989   3.752
39367W        W 3124  18.072  38.826   2.389
39368W        W 3125   0.814  22.612   3.336
39369W        W 3126   7.737  37.341  11.423
39370W        W 3127  10.341  35.929   3.300
39371W        W 3128  13.186  24.659  14.031
39372W        W 3129  31.413  14.267  14.421
39373W        W 3130   8.282  10.152  11.861
39374W        W 3131  17.642  23.498  12.468
39375W        W 3132  31.963  16.218  11.603
39376W        W 3133  35.920  30.455  11.610
39377W        W 3134  44.828   9.188  13.864
39378W        W 3135   3.291  16.089  13.008
39379W        W 3136  16.757  42.965   1.358
39380W        W 3137  32.527   3.415  14.947
39381W        W 3138  23.056   2.228  13.962
39382W        W 3139  33.384  22.120   0.345
39383W        W 3140   5.343   1.461  14.287
39384W        W 3141   4.725  31.960  11.461
39385W        W 3142  34.071  29.987   5.288
39386W        W 3143  32.975  32.571  11.902
39387W        W 3144  19.264   6.860   2.731
39388W        W 3145   3.729  39.555   4.807
39389W        W 3146  40.852  27.098  12.078
39390W        W 3147   0.874  18.087  13.340
39391W        W 3148  16.751   7.326   3.347
39392W        W 3149   2.291  43.478   3.830
39393W        W 3150  13.611  27.070  14.774
39394W        W 3151  34.873  34.083   3.234
39395W        W 3152   4.804  31.516   2.187
39396W        W 3153   4.866  10.707   0.817
39397W        W 3154  32.080   1.451  12.912
39398W        W 3155  27.160   3.300   2.735
39399W        W 3156   3.890  13.816  10.629
39400W        W 3157  25.492  34.561  13.012
39401W        W 3158  13.782  38.347   0.482
39402W        W 3159   1.341  16.211  12.358
39403W        W 3160  29.149  26.112   3.750
39404W        W 3161  38.988  21.187  13.962
39405W        W 3162  43.768   3.263   0.388
39406W        W 3163  34.414  17.087  10.917
39407W        W 3164  14.103  38.500   1.790
39408W        W 3165  18.791   7.910   4.815
39409W        W 3166  36.376  11.269   0.318
39410W        W 3167   0.759  40.318  13.050
39411W        W 3168  24.574  18.112   4.281
39412W        W 3169  23.212  38.953   2.766
39413W        W 3170   4.811  27.532   3.694
39414W        W 3171   0.294  32.065  11.466
39415W        W 3172   1.367   7.229  12.899
39416W        W 3173  34.538  19.268   4.242
39417W        W 3174  22.111   6.724   2.709
39418W        W 3175  18.066  36.443   3.707
39419W        W 3176  33.983  41.443  13.845
39420W        W 3177  22.114   9.336   3.191
39421W        W 3178   5.742  34.580   2.191
39422W        W 3179   4.812  24.008  13.458
39423W        W 3180   3.789   9.181  10.414
39424W        W 3181  30.007   7.241   2.859
39425W        W 3182  25.073  34.494   3.254
39426W        W 3183  43.287  40.344   1.915
39427W        W 3184  21.613  27.652  11.541
39428W        W 3185   8.722   6.385  12.466
39429W        W 3186  38.529   3.254   5.277
39430W        W 3187  20.038  27.189   2.746
39431W        W 3188  26.551  24.206  12.913
39432W        W 3189  14.774  21.640   4.823
39433W        W 3190  30.930   2.287  14.988
39434W        W 3191  12.347  27.669   1.340
39435W        W 3192   3.801  44.870   2.794
39436W        W 3193  18.196  20.544   4.272
39437W        W 3194  18.105  30.658   1.864
39438W        W 3195  25.149  30.011   3.357
39439W        W 3196  32.610   3.791   2.900
39440W        W 3197   5.291   0.960   2.894
39441W        W 3198  22.252  36.580  13.985
39442W        W 3199   7.375  38.066  13.545
39443W        W 3200  44.869  29.586   1.789
39444W        W 3201  34.584  34.030  11.598
39445W        W 3202  30.944  23.611  14.908
39446W        W 3203   1.841   0.372  12.867
39447W        W 3204  41.967  38.924   3.285
39448W        W 3205  37.360  26.498  10.037
39449W        W 3206  35.464  26.155  12.955
39450W        W 3207  13.263  27.097   3.684
39451W        W 3208  39.984  25.636  11.951
39452W        W 3209  24.975  43.296  13.823
39453W        W 3210   7.826  39.424   4.283
39454W        W 3211   4.933   2.471  13.432
39455W        W 3212  20.720   5.420  11.394
39456W        W 3213  13.345  13.713  11.913
39457W        W 3214   0.891  29.131  13.525
39458W        W 3215  22.513  19.545  13.928
39459W        W 3216   7.903  16.569  14.468
39460W        W 3217  44.959  23.592  10.998
39461W        W 3218  38.480  31.960  11.433
39462W        W 3219   8.753  19.759   2.335
39463W        W 3220   9.243  30.120  13.033
39464W        W 3221  40.434  29.635   2.414
39465W        W 3222  20.143   0.343   1.911
39466W        W 3223  11.790  36.424   1.738
39467W        W 3224   6.719  26.457  13.539
39468W        W 3225   2.276  43.780  11.080
39469W        W 3226  31.104  19.641  12.532
39470W        W 3227  26.510  19.189  11.471
39471W        W 3228  14.600  25.214  11.882
39472W        W 3229  16.199  20.612  10.553
39473W        W 3230   4.774  17.192   4.307
39474W        W 3231  21.111  30.604   5.134
39475W        W 3232   7.699  14.253   0.753
39476W        W 3233  31.947   3.922  11.475
39477W        W 3234  32.424   2.776  10.591
39478W        W 3235  26.507  43.953   3.810
39479W        W 3236  37.409   3.709   1.362
39480W        W 3237  29.132   7.703   2.313
39481W        W 3238   2.847  25.042   2.263
39482W        W 3239  35.403  39.009  13.995
39483W        W 3240   6.774  39.940   4.291
39484W        W 3241   1.423  24.076  14.762
39485W        W 3242   7.266  14.801  14.894
39486W        W 3243  38.821  28.142  13.033
39487W        W 3244  26.658  43.406   0.909
39488W        W 3245  28.122  24.499   5.092
39489W        W 3246  13.718  26.051  13.320
39490W        W 3247   0.427   8.319   4.199
39491W        W 3248  30.034  13.800   0.413
39492W        W 3249  12.218   2.238  14.885
39493W        W 3250  38.532   4.699   0.882
39494W        W 3251  37.995  28.149  10.506
39495W        W 3252  12.708  39.995   4.710
39496W        W 3253  14.803  28.107   1.280
39497W        W 3254  30.499  40.454  14.304
39498W        W 3255  20.585  15.327   3.360
39499W        W 3256  29.493  28.957  13.420
39500W        W 3257  20.562  43.976  12.972
39501W        W 3258   3.892  31.099   3.651
39502W        W 3259   1.853   0.326   1.249
39503W        W 3260  20.185  12.711   4.206
39504W        W 3261  18.100  35.580  12.570
39505W        W 3262  11.317  11.802  14.810
39506W        W 3263  19.561  15.128   2.704
39507W        W 3264   3.422  24.144  14.851
39508W        W 3265  38.016  21.031   0.313
39509W        W 3266  16.242   2.801  12.984
39510W        W 3267   7.870   4.750  12.993
39511W        W 3268  40.841  28.493   4.685
39512W        W 3269  23.984  28.940   3.676
39513W        W 3270  14.770  34.982  13.435
39514W        W 3271  37.946  25.492   2.762
39515W        W 3272  10.250   9.179   3.683
39516W        W 3273  43.834  32.442  10.476
39517W        W 3274   0.838  10.373   4.677
39518W        W 3275  24.060  32.572   2.777
39519W        W 3276  11.195  40.028  12.389
39520W        W 3277  38.833  34.505  11.055
39521W        W 3278   9.364  26.596   3.167
39522W        W 3279  21.115   5.895   3.256
39523W        W 3280   1.330  22.634  11.022
39524W        W 3281   3.789  18.581  12.082
39525W        W 3282  27.983  26.586  14.510
39526W        W 3283   4.278  27.478   0.363
39527W        W 3284  36.899   1.963   2.247
39528W        W 3285   6.421  12.127  13.379
39529W        W 3286  38.015   3.879   3.845
39530W        W 3287  28.565  23.088  10.027
39531W        W 3288  28.066  39.380   5.217
39532W        W 3289  35.591  21.161  11.998
39533W        W 3290  10.755   5.273   2.675
39534W        W 3291   2.357  39.046  12.998
39535W        W 3292  16.606  24.042  10.922
39536W        W 3293  25.167  28.674   3.297
39537W        W 3294  22.106  43.846   3.340
39538W        W 3295   1.288  38.524   4.772
39539W        W 3296  37.559  38.014   0.254
39540W        W 3297  12.144  44.976   1.721
39541W        W 3298  18.236  32.575  13.992
39542W        W 3299   0.881   6.239   3.271
39543W        W 3300   9.387  13.220   4.270
39544W        W 3301  34.400   6.374  12.454
39545W        W 3302  13.732  20.183  10.597
39546W        W 3303   7.724  12.357  14.370
39547W        W 3304  30.423  41.514   2.860
39548W        W 3305  23.220  22.009   3.188
39549W        W 3306   0.818  39.521   4.342
39550W        W 3307   2.246   2.807   1.409
39551W        W 3308  27.162  39.989   2.182
39552W        W 3309  14.709  14.676   3.296
39553W        W 3310   2.804  28.107   0.807
39554W        W 3311   9.705  19.619   0.932
39555W        W 3312  14.230  43.886   4.291
39556W        W 3313  41.317   1.477   4.218
39557W        W 3314  41.991  16.572   0.741
39558W        W 3315  23.237  20.666  14.349
39559W        W 3316  10.788   1.295  13.024
39560W        W 3317  29.567  33.919   4.704
39561W        W 3318  35.510   7.822   1.289
39562W        W 3319  25.168  31.047   2.316
39563W        W 3320  26.630  15.693   0.462
39564W        W 3321  25.205  43.814  12.375
39565W        W 3322  12.667  35.019  11.547
39566W        W 3323  32.007  41.309   2.352
39567W        W 3324  32.110  31.627   3.842
39568W        W 3325  13.620  31.005   1.929
39569W        W 3326  12.691   2.925  14.475
39570W        W 3327  10.257  36.008   2.846
39571W        W 3328   6.907   6.352  12.894
39572W        W 3329  35.964  20.124  11.061
39573W        W 3330  36.577  24.642   0.270
39574W        W 3331   4.777  37.944   3.764
39575W        W 3332   4.721  12.662   1.738
39576W        W 3333  30.023  28.521   4.814
39577W        W 3334  38.423  23.680  12.092
39578W        W 3335  12.633  23.001   1.211
39579W        W 3336  35.045   8.229   1.352
39580W        W 3337  22.648  14.202   1.357
39581W        W 3338   4.317   3.896   0.866
39582W        W 3339  24.644   5.429  13.800
39583W        W 3340  40.810  44.788   4.163
39584W        W 3341   6.823  26.618   3.189
39585W        W 3342  16.193  35.480  10.587
39586W        W 3343  32.081  12.269  11.065
39587W        W 3344   2.928   4.385  11.950
39588W        W 3345  42.402   2.271  10.971
39589W        W 3346  30.420  42.320   1.247
39590W        W 3347  42.804  14.329   3.147
39591W        W 3348  35.890  42.981   3.630
39592W        W 3349  14.831  37.559   4.607
39593W        W 3350   7.311  36.388  15.000
39594W        W 3351  41.960  19.680  13.514
39595W        W 3352  12.760  35.079   2.315
39596W        W 3353  38.969   6.218  13.873
39597W        W 3354  36.388   5.282   3.158
39598W        W 3355  22.233  40.434   2.333
39599W        W 3356  28.165  14.282  13.989
39600W        W 3357  12.832  21.531  11.006
39601W        W 3358  13.186  25.528  14.276
39602W        W 3359  26.171  20.129   2.895
39603W        W 3360  12.684  26.058   2.236
39604W        W 3361  26.658  18.633   5.162
39605W        W 3362  29.088  11.743  14.788
39606W        W 3363  10.701  35.978  12.518
39607W        W 3364  22.574  28.561   2.766
39608W        W 3365   9.275  30.995  11.876
39609W        W 3366  11.205  43.943  12.401
39610W        W 3367  42.935  10.186   3.269
39611W        W 3368  37.047  22.086   3.775
39612W        W 3369   0.948  14.794  10.600
39613W        W 3370  11.362  34.506  13.888
39614W        W 3371  16.166  26.204   1.353
39615W        W 3372   2.297  42.782  13.965
39616W        W 3373   0.295  38.855   3.797
39617W        W 3374  10.685  32.606  14.951
39618W        W 3375  44.878   8.180  12.567
39619W        W 3376  11.159  19.667  11.910
39620W        W 3377  25.672   4.907   3.287
39621W        W 3378  26.161  32.987   0.354
39622W        W 3379  19.715   6.318  11.047
39623W        W 3380  22.708  26.653  10.073
39624W        W 3381  29.445   9.648  13.490
39625W        W 3382  10.237  22.136   3.330
39626W        W 3383   2.761  17.736   1.891
39627W        W 3384  38.065  11.678   3.227
39628W        W 3385  35.523  23.523   1.286
39629W        W 3386  35.515  18.161  12.401
39630W        W 3387  31.599  42.505  12.968
39631W        W 3388  36.534  32.531  11.385
39632W        W 3389  15.616   1.853   3.269
39633W        W 3390  14.763   5.393   2.723
39634W        W 3391  20.257  35.421   3.746
39635W        W 3392  29.925  20.062  14.458
39636W        W 3393  31.544  19.540  10.621
39637W        W 3394  23.620  26.956   1.901
39638W        W 3395  22.069  17.281   3.737
39639W        W 3396  26.000   0.363   3.680
39640W        W 3397  28.533  13.206   3.783
39641W        W 3398  25.213  42.524  14.441
39642W        W 3399   0.859   5.766  12.560
39643W        W 3400  44.828  17.720   3.665
39644W        W 3401  15.203  19.593  12.415
39645W        W 3402  33.611  18.683  11.929
39646W        W 3403   8.684  25.024   2.860
39647W        W 3404   6.346  42.435   1.442
39648W        W 3405   4.855   7.406   5.133
39649W        W 3406   0.487  31.084   4.750
39650W        W 3407  41.375  33.961  13.816
39651W        W 3408  30.611   3.292   1.377
39652W        W 3409  34.914  43.771  11.474
39653W        W 3410  25.530  38.341   0.937
39654W        W 3411   4.798   9.227  14.854
39655W        W 3412  43.450  44.378   1.338
39656W        W 3413  31.052   9.251   0.870
39657W        W 3414  19.675  13.646  13.843
39658W        W 3415   9.353  31.009   0.393
39659W        W 3416  29.036  39.854   3.318
39660W        W 3417  41.396   6.264  12.066
39661W        W 3418   2.429  15.199   0.369
39662W        W 3419  37.530  41.961  12.826
39663W        W 3420  36.895  39.555  10.528
39664W        W 3421   3.870  38.931  13.536
39665W        W 3422  10.209  10.240  14.988
39666W        W 3423   6.314  11.206   1.274
39667W        W 3424  21.211  16.685  12.886
39668W        W 3425  37.951   0.485  14.303
39669W        W 3426  14.227  35.579  14.988
39670W        W 3427   9.695   8.211   0.923
39671W        W 3428  12.304  12.645  12.085
39672W        W 3429  36.389  42.910  10.016
39673W        W 3430  25.505  15.127   0.857
39674W        W 3431  29.543  23.619  14.292
39675W        W 3432  31.118  27.676   2.219
39676W        W 3433  11.717  42.324   3.373
39677W        W 3434   3.769  24.526   4.190
39678W        W 3435  26.096   2.881   2.812
39679W        W 3436   9.777  18.693  12.000
39680W        W 3437  16.297  11.298  12.068
39681W        W 3438   2.248  28.446   2.273
39682W        W 3439   6.303  31.121   1.718
39683W        W 3440   3.838   2.277  13.966
39684W        W 3441  17.711  29.461   1.926
39685W        W 3442  11.328  36.075  12.415
39686W        W 3443  21.525  16.728  12.846
39687W        W 3444  10.870  33.029   0.750
39688W        W 3445  31.932   0.480   4.664
39689W        W 3446  26.595  34.913   3.734
39690W        W 3447  17.720  42.420   1.698
39691W        W 3448  24.558  42.924   2.285
39692W        W 3449  10.773   4.864   2.203
39693W        W 3450  33.509  28.167  11.072
39694W        W 3451  38.016  26.477  12.407
39695W        W 3452   2.941  42.909  14.290
39696W        W 3453  10.342  38.878  12.837
39697W        W 3454  13.777  12.127  11.603
39698W        W 3455  38.346  19.689   4.163
39699W        W 3456  38.346  18.103   4.339
39700W        W 3457  20.257  15.727  10.133
39701W        W 3458  38.540  15.269   0.456
39702W        W 3459  37.033  31.080  12.412
39703W        W 3460  23.191   2.407   0.964
39704W        W 3461   4.304  44.883  14.480
39705W        W 3462   7.331  17.195  11.929
39706W        W 3463  25.070  36.002   0.826
39707W        W 3464   3.721  14.759  13.481
39708W        W 3465  13.803   0.792  14.935
39709W        W 3466  43.822  18.733  11.099
39710W        W 3467  33.096  19.280   1.367
39711W        W 3468   4.742  35.998   0.435
39712W        W 3469  41.538  40.469   0.783
39713W        W 3470  17.717  27.025   3.746
39714W        W 3471   7.836  36.862   4.151
39715W        W 3472  30.551   8.834   4.787
39716W        W 3473  32.136  37.405  12.017
39717W        W 3474  38.359   7.805  11.435
39718W        W 3475  15.724   5.795   0.916
39719W        W 3476  40.400  44.291  10.420
39720W        W 3477   2.761  19.587  11.570
39721W        W 3478   7.291   4.803  14.783
39722W        W 3479   3.386  21.221  11.928
39723W        W 3480  12.261  23.619  14.380
39724W        W 3481  36.887  35.409   3.864
39725W        W 3482  16.639   8.823  11.499
39726W        W 3483  40.799  44.412   3.720
39727W        W 3484   4.212  36.421   2.360
39728W        W 3485  43.989  22.634  14.808
39729W        W 3486  22.093  20.578  12.361
39730W        W 3487   5.357  26.472  11.945
39731W        W 3488  16.120  19.681   3.182
39732W        W 3489  41.905  11.759   3.860
39733W        W 3490   2.336  28.594  11.522
39734W        W 3491  32.016  36.429   2.202
39735W        W 3492  33.442  22.169   2.188
39736W        W 3493   2.245  38.053  12.843
39737W        W 3494   8.284  10.676   4.830
39738W        W 3495   6.704   1.759   1.367
39739W        W 3496  37.440  13.769   2.328
39740W        W 3497  10.792  11.164  11.414
39741W        W 3498  27.166  42.807   4.283
39742W        W 3499  10.777  32.102  11.426
39743W        W 3500  33.970  24.645   4.328
39744W        W 3501   3.370  21.717   0.315
39745W        W 3502  33.392  37.003  12.992
39746W        W 3503  20.637  40.384   2.852
39747W        W 3504  38.057  15.787   3.737
39748W        W 3505  31.025   9.342   4.732
39749W        W 3506  30.607  33.559  14.869
39750W        W 3507   8.205  23.037  10.983
39751W        W 3508  25.672  30.438   1.427
39752W        W 3509  43.823  37.019  14.381
39753W        W 3510  35.094  25.659  13.355
39754W        W 3511   7.895   5.329   4.244
39755W        W 3512  26.555  26.582   0.851
39756W        W 3513  29.172  26.082  11.031
39757W        W 3514  27.486  36.590  10.516
39758W        W 3515  25.993  29.614   2.237
39759W        W 3516  23.145  31.546  10.560
39760W        W 3517  16.678   8.193  10.973
39761W        W 3518  32.007  24.606  11.420
39762W        W 3519  16.170  41.852  14.847
39763W        W 3520  39.433  39.445  13.373
39764W        W 3521  18.156  42.432  14.784
39765W        W 3522  15.279  11.738  11.392
39766W        W 3523  25.161  40.474  12.438
39767W        W 3524   4.439  39.961   1.249
39768W        W 3525  35.508  22.742  11.589
39769W        W 3526  13.299  40.018   3.789
39770W        W 3527  16.663   9.844  13.794
39771W        W 3528  34.879   9.697   2.333
39772W        W 3529  15.699  42.007   2.227
39773W        W 3530  27.520  28.649  13.863
39774W        W 3531  12.741  39.876   1.217
39775W        W 3532  17.717  27.654  10.570
39776W        W 3533   4.216  13.808  11.558
39777W        W 3534  27.112  12.334  14.293
39778W        W 3535  24.008   3.798  11.887
39779W        W 3536  19.185  37.571   3.333
39780W        W 3537  10.184  19.044  13.953
39781W        W 3538  21.161   6.228  10.897
39782W        W 3539   2.799  22.236   3.812
39783W        W 3540   0.254  27.495   4.794
39784W        W 3541  16.569  13.735  14.021
39785W        W 3542  28.107  10.671   3.319
39786W        W 3543  25.668  25.517  14.980
39787W        W 3544  28.966   3.283  12.091
39788W        W 3545  36.001   1.365   2.734
39789W        W 3546  15.690  17.709   4.136
39790W        W 3547  38.479  43.287  14.407
39791W        W 3548   1.270  37.458  12.361
39792W        W 3549   7.185  35.028   0.295
39793W        W 3550  32.414  37.346  14.515
39794W        W 3551  14.761   9.858  12.024
39795W        W 3552   1.385  26.066  11.091
39796W        W 3553  19.634  21.570  12.346
39797W        W 3554  16.293   4.801   3.765
39798W        W 3555  41.995  42.877  12.961
39799W        W 3556  35.016  13.801   4.287
39800W        W 3557  33.617  29.518  11.972
39801W        W 3558  33.558  42.526  12.573
39802W        W 3559  44.889  37.022  10.977
39803W        W 3560  24.229  12.633   5.140
39804W        W 3561  14.774  34.897  11.972
39805W        W 3562  14.820  28.083   4.808
39806W        W 3563  12.171  29.115   3.842
39807W        W 3564  32.550  34.983   2.765
39808W        W 3565   1.838   1.447  12.059
39809W        W 3566  28.509   7.223   3.870
39810W        W 3567  40.800  35.467  11.870
39811W        W 3568  22.512  28.080   1.342
39812W        W 3569   2.886  20.560   2.768
39813W        W 3570  10.758  44.439  11.373
39814W        W 3571  34.928  42.877  14.322
39815W        W 3572  38.513  25.144   4.321
39816W        W 3573   6.712   4.219  12.993
39817W        W 3574   6.349  13.258   3.158
39818W        W 3575  29.147  28.680  12.866
39819W        W 3576   7.888  40.910  12.083
39820W        W 3577  13.818  14.749   2.263
39821W        W 3578  34.094   6.233   4.648
39822W        W 3579   0.769  20.033  12.509
39823W        W 3580  37.401   1.817  13.038
39824W        W 3581  16.225  43.381  14.277
39825W        W 3582  21.519   9.208   2.321
39826W        W 3583  16.235  16.170   5.682
39827W        W 3584  44.859   8.174   2.192
39828W        W 3585  42.342   2.847  14.786
39829W        W 3586  24.712  34.872   1.933
39830W        W 3587   1.879  26.078  12.358
39831W        W 3588  23.074  12.781  14.336
39832W        W 3589  32.900  20.168   4.181
39833W        W 3590  36.007  36.966  12.855
39834W        W 3591  24.085   9.705   4.704
39835W        W 3592  32.637   2.939   3.807
39836W        W 3593  29.038  27.145  11.415
39837W        W 3594  42.306  22.080   3.258
39838W        W 3595  39.326  27.531   2.789
39839W        W 3596  23.563   1.266  13.452
39840W        W 3597  28.636  42.360  10.593
39841W        W 3598  36.086  43.494  14.508
39842W        W 3599  38.917  26.965  11.528
39843W        W 3600  42.959  38.491   1.710
39844W        W 3601  26.505  39.528   0.321
39845W        W 3602  20.134  36.885   0.343
39846W        W 3603  27.619  13.236   0.287
39847W        W 3604  32.430  34.519  12.504
39848W        W 3605  29.595   0.909   0.745
39849W        W 3606  29.920  33.595  10.569
39850W        W 3607   7.690  16.574  14.900
39851W        W 3608  25.040  37.422   3.204
39852W        W 3609  28.048  17.199  14.822
39853W        W 3610  42.465  42.829   5.086
39854W        W 3611  30.513  37.358  14.857
39855W        W 3612  12.282  10.370  14.977
39856W        W 3613  34.577   3.366  14.947
39857W        W 3614  22.021  24.604   2.740
39858W        W 3615  15.240  37.874  14.990
39859W        W 3616  36.396  11.670   3.343
39860W        W 3617   4.943  38.989   5.232
39861W        W 3618  31.544  38.841  11.424
39862W        W 3619  26.556  22.012  13.544
39863W        W 3620  11.185  33.128   0.731
39864W        W 3621  14.166  35.893  11.388
39865W        W 3622  29.526   7.666   2.412
39866W        W 3623   8.822  19.740  12.899
39867W        W 3624  11.676  42.315   1.840
39868W        W 3625  25.096  35.563   0.380
39869W        W 3626   0.897   6.366  13.433
39870W        W 3627  23.555  23.515  13.919
39871W        W 3628  16.278  29.070  12.887
39872W        W 3629  40.477  32.568  11.489
39873W        W 3630  30.622  13.173   1.287
39874W        W 3631  44.410  20.187   3.373
39875W        W 3632   9.224   5.327  14.287
39876W        W 3633  30.426  44.955  14.959
39877W        W 3634   8.200  23.690  12.020
39878W        W 3635  15.738  38.958   0.453
39879W        W 3636  11.247   8.352  14.481
39880W        W 3637  12.299  30.603  12.466
39881W        W 3638  19.736  13.746  11.869
39882W        W 3639   2.769  40.030  13.858
39883W        W 3640   3.951  44.843  14.918
39884W        W 3641   8.690  23.194  14.888
39885W        W 3642  23.677  25.480   1.299
39886W        W 3643  41.337  34.604   3.724
39887W        W 3644  34.917   8.693  12.369
39888W        W 3645  17.083  44.418   1.378
39889W        W 3646  14.137   6.857   4.691
39890W        W 3647  36.098  30.648  14.492
39891W        W 3648  40.805   4.281  12.986
39892W        W 3649  20.539  29.098  12.990
39893W        W 3650  36.508  31.035   2.749
39894W        W 3651  25.711  27.648  14.799
39895W        W 3652  25.654   7.240  11.106
39896W        W 3653  23.007  38.474   1.228
39897W        W 3654  33.131  39.352  14.455
39898W        W 3655   1.478  27.456  11.600
39899W        W 3656  21.619  12.125   0.379
39900W        W 3657  12.218   9.191   2.221
39901W        W 3658  44.868  21.029  13.530
39902W        W 3659  13.782  36.441  13.323
39903W        W 3660  16.665   1.333  11.874
39904W        W 3661  17.647  43.347  12.483
39905W        W 3662   2.863  40.432  14.900
39906W        W 3663  15.649   1.313  11.582
39907W        W 3664  20.626   7.227   2.208
39908W        W 3665   2.889  21.545   3.236
39909W        W 3666  36.484   3.436   5.322
39910W        W 3667  11.358  25.101   3.654
39911W        W 3668  29.947  40.325  11.932
39912W        W 3669  15.712  32.060   4.190
39913W        W 3670  35.955  36.024   0.834
39914W        W 3671  28.066  39.997   4.762
39915W        W 3672   3.923   3.217   3.327
39916W        W 3673   1.976  44.361  14.322
39917W        W 3674   2.354   2.405   3.842
39918W        W 3675   6.408  23.018  13.850
39919W        W 3676  22.739  16.094  11.388
39920W        W 3677  21.049  22.022  12.830
39921W        W 3678  32.953  17.755   0.937
39922W        W 3679  25.598  26.538  13.974
39923W        W 3680  12.353   4.877  14.292
39924W        W 3681  14.296  21.728   1.840
39925W        W 3682  40.468  21.638   3.783
39926W        W 3683  32.486  10.367  14.897
39927W        W 3684   6.890   2.465  10.562
39928W        W 3685  37.546  19.635   3.375
39929W        W 3686  30.605  41.978   3.302
39930W        W 3687  43.815  41.525  11.431
39931W        W 3688  16.667  42.795   4.789
39932W        W 3689  14.253  41.355  14.018
39933W        W 3690  18.618  29.546   1.886
39934W        W 3691  28.936   6.423  11.516
39935W        W 3692  13.286  15.107  11.388
39936W        W 3693   1.480  30.008   3.856
39937W        W 3694  24.610  12.705   4.679
39938W        W 3695  28.119  25.975  14.955
39939W        W 3696  43.948  42.347  11.982
39940W        W 3697   1.395  26.064   1.725
39941W        W 3698  17.094  25.042   0.897
39942W        W 3699  31.108  15.626   0.967
39943W        W 3700   8.323  34.531   4.181
39944W        W 3701  25.082   0.946   4.643
39945W        W 3702   5.305  32.038   1.422
39946W        W 3703  15.753  22.606   3.710
39947W        W 3704  43.882   4.279   4.732
39948W        W 3705  38.997  21.580   3.297
39949W        W 3706  16.177  29.934  12.066
39950W        W 3707  19.208  28.155  12.420
39951W        W 3708  19.762  11.285   1.903
39952W        W 3709  22.046  34.497   0.309
39953W        W 3710   9.652  20.182  14.886
39954W        W 3711  31.103  13.109  14.489
39955W        W 3712  15.612   9.835   4.264
39956W        W 3713  12.329  27.565   4.281
39957W        W 3714  30.657   0.800  10.618
39958W        W 3715  14.340  31.030   1.255
39959W        W 3716  27.957   1.409   3.815
39960W        W 3717  27.477  34.468  14.430
39961W        W 3718  33.522   2.864   5.123
39962W        W 3719  26.080   0.409   3.287
39963W        W 3720   2.768  40.025  12.855
39964W        W 3721  17.198  21.038   0.770
39965W        W 3722  39.485   5.422  10.566
39966W        W 3723  25.684   6.884  10.572
39967W        W 3724  15.734  13.624   2.238
39968W        W 3725  28.066  21.079  13.370
39969W        W 3726  39.853  27.471  12.089
39970W        W 3727  17.110   9.173  12.389
39971W        W 3728  39.808  39.320   4.233
39972W        W 3729   4.302  28.933   3.303
39973W        W 3730  19.760   0.816  10.984
39974W        W 3731  29.660  35.912   4.621
39975W        W 3732  23.102  40.325   4.801
39976W        W 3733  27.962  15.768  14.903
39977W        W 3734  28.564  35.946   0.946
39978W        W 3735   7.710  17.235  11.566
39979W        W 3736   8.733  15.610   2.718
39980W        W 3737  19.776  42.985   2.705
39981W        W 3738  15.809  21.143   3.146
39982W        W 3739  27.558  31.993  10.031
39983W        W 3740  19.266  10.263  12.853
39984W        W 3741  17.261  40.464  10.947
39985W        W 3742  11.130  13.599   2.754
39986W        W 3743  14.810  30.032  12.977
39987W        W 3744  14.265  25.568  10.519
39988W        W 3745  42.794  29.019  12.368
39989W        W 3746  43.972  15.692  13.520
39990W        W 3747   0.317   3.367   0.344
39991W        W 3748  10.782  11.223  12.359
39992W        W 3749  25.677  43.419   3.786
39993W        W 3750  30.121  42.461   2.884
39994W        W 3751  17.785  37.364   1.234
39995W        W 3752  25.503  23.576   4.311
39996W        W 3753  24.055  37.369   5.303
39997W        W 3754   0.254  13.655   1.754
39998W        W 3755   2.421  20.271   3.272
39999W        W 3756   5.740  29.623   3.183
40000W        W 3757  31.059  44.474  11.474
40001W        W 3758   7.791  31.511   0.961
40002W        W 3759  11.749  33.957  13.835
40003W        W 3760  28.518   7.899  11.417
40004W        W 3761   2.226  22.167   4.645
40005W        W 3762  44.262  14.164   3.703
40006W        W 3763  30.442  37.084  12.357
40007W        W 3764  23.502  12.195   1.360
40008W        W 3765  17.183   7.298   4.213
40009W        W 3766  20.541  44.377   4.294
40010W        W 3767  10.195  19.693   0.335
40011W        W 3768  31.458  26.197   5.799
40012W        W 3769  14.721  11.632  13.453
40013W        W 3770  13.312  40.020  14.914
40014W        W 3771  39.491  43.882   2.232
40015W        W 3772  19.545   9.319  12.025
40016W        W 3773  11.303  17.234   4.685
40017W        W 3774  43.498  10.674   0.270
40018W        W 3775  42.789  22.740  11.058
40019W        W 3776  39.353  38.032  14.005
40020W        W 3777   5.229  19.105   4.820
40021W        W 3778  37.369  37.855  14.907
40022W        W 3779  38.537  32.090  12.379
40023W        W 3780  24.710  24.600  13.350
40024W        W 3781  11.261  18.760   3.768
40025W        W 3782   8.794  44.790  10.497
40026W        W 3783  26.995   2.388  13.979
40027W        W 3784  29.438  27.646   0.836
40028W        W 3785  32.940  26.602   3.299
40029W        W 3786  41.349  31.427  14.509
40030W        W 3787  12.767  19.761   0.307
40031W        W 3788  18.726  18.629   3.848
40032W        W 3789  33.403  27.009   4.748
40033W        W 3790  35.003  17.265   2.181
40034W        W 3791  21.702  44.971  10.493
40035W        W 3792  39.340  39.858   4.659
40036W        W 3793  26.546   1.847   1.779
40037W        W 3794  11.153  25.124   3.243
40038W        W 3795   2.367  13.137   1.719
40039W        W 3796  26.527  22.223   5.640
40040W        W 3797  33.976   4.724  13.876
40041W        W 3798  11.655   7.880   3.710
40042W        W 3799  26.140  24.708  12.977
40043W        W 3800   8.797   8.814  13.422
40044W        W 3801  21.622  44.357  11.488
40045W        W 3802  20.227  12.809  13.424
40046W        W 3803   6.902  21.748  14.900
40047W        W 3804   1.323  12.712   4.132
40048W        W 3805  21.694  15.142   0.859
40049W        W 3806  34.488  12.261   0.242
40050W        W 3807   2.924  21.693   2.703
40051W        W 3808  28.640  19.592   3.643
40052W        W 3809  36.438  20.087   0.950
40053W        W 3810   4.925  15.732  10.638
40054W        W 3811  27.518  16.313  11.562
40055W        W 3812  38.921  38.981   2.220
40056W        W 3813  32.488  12.716  10.466
40057W        W 3814  36.981  38.951   2.310
40058W        W 3815  38.325  38.834  11.946
40059W        W 3816  13.796  12.721  12.580
40060W        W 3817   7.746  30.148   1.408
40061W        W 3818   7.701   9.201  11.444
40062W        W 3819   8.260  42.904   3.194
40063W        W 3820  32.632  41.326   0.729
40064W        W 3821  12.307  23.066  14.870
40065W        W 3822  23.102   5.268   1.702
40066W        W 3823  10.682  27.476  11.543
40067W        W 3824  14.311   8.317   1.729
40068W        W 3825  29.557   1.775  12.854
40069W        W 3826   8.344   5.755  10.549
40070W        W 3827   2.948  37.842   2.285
40071W        W 3828   9.260  42.296  14.287
40072W        W 3829  17.746  18.068  12.531
40073W        W 3830  26.952  31.032  12.091
40074W        W 3831  24.086  42.958   2.347
40075W        W 3832   3.814  43.391   1.364
40076W        W 3833  18.175   0.902  13.059
40077W        W 3834  34.389  34.033   1.710
40078W        W 3835  42.001  13.141   4.629
40079W        W 3836  20.028  11.664  13.354
40080W        W 3837  15.154  22.110   1.315
40081W        W 3838  11.344  12.707   4.334
40082W        W 3839  24.511  30.513  13.443
40083W        W 3840  36.929  25.171  10.482
40084W        W 3841   0.755   8.794  14.485
40085W        W 3842  18.741  39.388   3.650
40086W        W 3843   7.371  38.984  12.513
40087W        W 3844  44.280  18.791   1.416
40088W        W 3845  15.795  20.197   0.856
40089W        W 3846  19.125  25.534  13.523
40090W        W 3847  40.962  43.948   4.220
40091W        W 3848  29.011  18.725  12.346
40092W        W 3849  21.685  44.935  12.561
40093W        W 3850  43.464  37.359   1.405
40094W        W 3851   6.863   8.305  13.546
40095W        W 3852  25.010  32.081   0.453
40096W        W 3853  26.085  30.417   4.709
40097W        W 3854  20.217  19.579   0.463
40098W        W 3855   9.180  35.575   3.175
40099W        W 3856   2.314  17.563   1.284
40100W        W 3857  31.920  17.561  12.536
40101W        W 3858  30.120  34.414  10.435
40102W        W 3859  33.418   5.784  11.591
40103W        W 3860  30.425  39.435  10.575
40104W        W 3861  40.532  25.113   5.097
40105W        W 3862  14.252  19.636   0.786
40106W        W 3863   8.390  30.131   0.912
40107W        W 3864  38.512   1.764  10.411
40108W        W 3865  10.793  26.568  13.893
40109W        W 3866  11.343  16.602  11.119
40110W        W 3867  43.391  36.487   3.643
40111W        W 3868  16.308  33.379  11.878
40112W        W 3869  37.005   8.245  13.362
40113W        W 3870  13.638   8.789  13.433
40114W        W 3871  37.084  29.579   1.862
40115W        W 3872  19.088  32.983   1.422
40116W        W 3873  38.406  39.408  12.531
40117W        W 3874  11.231  11.718  14.356
40118W        W 3875  20.678  17.178  11.959
40119W        W 3876  30.015  25.708  14.299
40120W        W 3877   2.806  12.297  12.568
40121W        W 3878   1.889   2.251  12.408
40122W        W 3879  28.169  31.541  11.937
40123W        W 3880  44.961  17.116   2.696
40124W        W 3881  10.212   1.388   3.842
40125W        W 3882  23.090   8.248  10.935
40126W        W 3883  28.074  40.001   2.282
40127W        W 3884   6.760  18.144   5.195
40128W        W 3885   4.305  25.994  14.003
40129W        W 3886  13.688  24.672  11.956
40130W        W 3887   6.913  19.094   0.244
40131W        W 3888  18.658  37.422   3.750
40132W        W 3889  41.934  27.099   1.451
40133W        W 3890   0.280  14.818  12.447
40134W        W 3891  20.041  25.035  11.955
40135W        W 3892  14.798  38.072   1.306
40136W        W 3893  26.591  20.042   0.787
40137W        W 3894   8.251  42.470  10.965
40138W        W 3895  26.560   9.662   0.954
40139W        W 3896  39.379  10.162   1.338
40140W        W 3897  38.954  31.978  13.511
40141W        W 3898  43.850   2.947  14.958
40142W        W 3899  11.777  19.665  14.846
40143W        W 3900  43.863  32.039  10.972
40144W        W 3901  14.119   8.899  14.864
40145W        W 3902  18.282  10.149  12.428
40146W        W 3903  18.547  40.949   0.740
40147W        W 3904   2.960  19.082   1.228
40148W        W 3905  40.807  27.151   4.248
40149W        W 3906  29.574  23.041  12.873
40150W        W 3907  16.189  43.773   9.451
40151W        W 3908  25.964   4.237  13.459
40152W        W 3909   3.435  29.580   0.731
40153W        W 3910  25.481   4.398  12.533
40154W        W 3911  41.361  33.584   2.790
40155W        W 3912   9.745  43.348  14.868
40156W        W 3913   3.388  40.951   5.156
40157W        W 3914  36.078  12.263   2.308
40158W        W 3915  36.562  25.144   1.263
40159W        W 3916  15.118   5.258  12.519
40160W        W 3917  12.298  43.292  13.904
40161W        W 3918  33.393   9.280   3.315
40162W        W 3919  35.468  43.453   3.278
40163W        W 3920  43.324   5.835   2.182
40164W        W 3921  16.714   5.293   4.721
40165W        W 3922  26.174  22.650  12.412
40166W        W 3923  14.648  16.714  13.801
40167W        W 3924  26.012  31.150  10.991
40168W        W 3925  41.899  25.112  14.305
40169W        W 3926   8.837  28.012   1.226
40170W        W 3927  16.190  20.598   2.787
40171W        W 3928  26.472  38.032   4.696
40172W        W 3929   5.371  12.617  11.076
40173W        W 3930  22.079  37.996   2.806
40174W        W 3931   6.853  22.684   1.758
40175W        W 3932  26.567  14.265   0.959
40176W        W 3933  37.909  21.102  12.038
40177W        W 3934  39.960  36.947  12.035
40178W        W 3935  11.178  20.663   1.814
40179W        W 3936  39.443  43.377  11.555
40180W        W 3937   2.879  29.507  14.389
40181W        W 3938   3.266  12.163  12.463
40182W        W 3939  23.170  26.138  11.104
40183W        W 3940  36.089   0.347  11.066
40184W        W 3941  11.767  15.728  11.122
40185W        W 3942  31.979  27.645  14.788
40186W        W 3943  33.994  24.571   4.722
40187W        W 3944  18.143  28.498   4.194
40188W        W 3945  16.114  29.642   4.620
40189W        W 3946  36.956  23.200   0.937
40190W        W 3947   0.858   0.795  14.413
40191W        W 3948   1.368   9.371  12.990
40192W        W 3949  35.461  22.606   3.253
40193W        W 3950  41.526  29.057   4.326
40194W        W 3951  27.083   5.690  14.468
40195W        W 3952  13.724  17.216  13.911
40196W        W 3953  23.113  12.844  13.890
40197W        W 3954  25.489  11.784   1.342
40198W        W 3955   5.224  18.225   2.183
40199W        W 3956  28.145  27.106   0.377
40200W        W 3957   4.933  21.756  14.482
40201W        W 3958  30.992  34.424   2.237
40202W        W 3959  22.043  10.161   0.401
40203W        W 3960  10.147  36.477  13.403
40204W        W 3961  10.694  23.132  13.404
40205W        W 3962  14.328  11.143  14.311
40206W        W 3963   1.921  34.476  14.489
40207W        W 3964  28.057  40.934  12.413
40208W        W 3965   8.713  15.723  13.012
40209W        W 3966  18.770  17.112   1.807
40210W        W 3967  39.320  25.153   2.821
40211W        W 3968  33.390  41.949   1.732
40212W        W 3969   3.759  38.531  13.462
40213W        W 3970   1.279  22.123   2.365
40214W        W 3971  41.810  24.066  10.488
40215W        W 3972  42.792  38.819  14.372
40216W        W 3973  26.026  37.560  14.031
40217W        W 3974  10.272   5.742   2.778
40218W        W 3975  18.150  26.078   4.198
40219W        W 3976  26.516  39.476  11.923
40220W        W 3977  31.084  37.942  14.330
40221W        W 3978   2.957  16.666  11.496
40222W        W 3979  10.366  39.385  10.570
40223W        W 3980  27.186  12.643   2.901
40224W        W 3981  41.336  28.023   3.330
40225W        W 3982  34.912  28.981  11.955
40226W        W 3983  12.650  26.694   5.180
40227W        W 3984  35.386  19.128  14.944
40228W        W 3985  16.745  17.231  13.954
40229W        W 3986  20.118  13.726   0.837
40230W        W 3987  31.109  31.933   4.749
40231W        W 3988  14.835  20.608   1.428
40232W        W 3989  37.475   8.278   2.373
40233W        W 3990  35.466  26.154   5.246
40234W        W 3991   8.713   3.436  11.375
40235W        W 3992   1.851  39.410   3.835
40236W        W 3993  10.285  40.938  11.511
40237W        W 3994  35.959  42.389  14.009
40238W        W 3995  21.650  36.565   0.857
40239W        W 3996  10.331   2.780  10.637
40240W        W 3997  12.701  14.323  11.564
40241W        W 3998  30.988  43.772   0.737
40242W        W 3999  36.472   0.802   1.254
40243W        W 4000  26.488  11.799  10.945
40244W        W 4001  36.067  43.450  12.000
40245W        W 4002  13.253  21.573   3.345
40246W        W 4003  16.238   5.915  13.975
40247W        W 4004  25.522  41.958  11.914
40248W        W 4005   6.382  24.527  12.454
40249W        W 4006  34.026  37.507  11.036
40250W        W 4007  27.126  25.964  12.579
40251W        W 4008  35.416   2.929   2.753
40252W        W 4009  26.487  35.084  10.446
40253W        W 4010  23.565   4.370  11.115
40254W        W 4011  26.131  18.685   0.866
40255W        W 4012  23.715   7.781  11.070
40256W        W 4013  10.176  12.662   3.841
40257W        W 4014  22.571  35.365   3.792
40258W        W 4015   9.884  17.662   4.792
40259W        W 4016  21.633  44.337   1.279
40260W        W 4017  40.379  17.133  12.041
40261W        W 4018  31.521  29.496  14.355
40262W        W 4019  24.612  33.625  13.421
40263W        W 4020   1.273   2.462  11.466
40264W        W 4021   1.956  39.013  13.845
40265W        W 4022  13.138   7.325  11.991
40266W        W 4023  25.538  34.507   0.956
40267W        W 4024   4.216  24.174   0.929
40268W        W 4025   0.440  38.910  13.357
40269W        W 4026  28.092  24.568  10.910
40270W        W 4027  43.449  43.457   1.446
40271W        W 4028  36.497   9.255  14.855
40272W        W 4029   0.365  36.991   1.353
40273W        W 4030  20.096  17.265   2.235
40274W        W 4031  27.155  32.999   0.340
40275W        W 4032   1.416   2.435   4.723
40276W        W 4033  37.876   6.346  14.393
40277W        W 4034   0.428  26.537   3.632
40278W        W 4035   6.294  37.482  11.393
40279W        W 4036  35.902  14.137  11.025
40280W        W 4037  14.669  12.779  12.579
40281W        W 4038   2.464  17.073  13.428
40282W        W 4039  29.553  39.833   4.198
40283W        W 4040  16.213  23.033  10.952
40284W        W 4041  32.489  29.069  14.782
40285W        W 4042  22.747  13.743  11.011
40286W        W 4043  40.507  41.917   5.287
40287W        W 4044  13.700  29.569   3.775
40288W        W 4045  44.404  20.630  13.460
40289W        W 4046  38.494  24.514  12.024
40290W        W 4047  31.403  27.041   5.229
40291W        W 4048   7.726   7.413  14.031
40292W        W 4049  27.677   4.211  10.415
40293W        W 4050  15.620  32.420  11.405
40294W        W 4051  12.153   4.758   4.159
40295W        W 4052  40.837  36.895   4.810
40296W        W 4053  20.690  39.376   0.898
40297W        W 4054  15.169  10.733  12.093
40298W        W 4055   0.409   6.277   4.202
40299W        W 4056  37.496  36.536  10.429
40300W        W 4057   7.357   2.788  12.358
40301W        W 4058   5.340  21.159  14.948
40302W        W 4059  43.856  39.555   4.802
40303W        W 4060  11.622  19.113  10.483
40304W        W 4061  12.750  32.969   3.336
40305W        W 4062  13.665  22.572  13.465
40306W        W 4063  21.721   7.816  13.353
40307W        W 4064  31.493  12.124   1.346
40308W        W 4065  22.089  35.042   2.884
40309W        W 4066  30.075  28.491   2.340
40310W        W 4067   9.230  16.238  14.004
40311W        W 4068   0.488  15.741  14.437
40312W        W 4069   3.772  36.396  14.349
40313W        W 4070  38.436  22.604  14.789
40314W        W 4071  40.043   5.745   1.355
40315W        W 4072  33.522  42.875  13.384
40316W        W 4073  40.308   3.894  14.023
40317W        W 4074  42.911  23.215  11.446
40318W        W 4075  10.264  11.645   2.706
40319W        W 4076  18.227  29.467   1.375
40320W        W 4077  12.689  24.480   3.235
40321W        W 4078   4.871  41.292  14.789
40322W        W 4079  37.012  26.991  12.910
40323W        W 4080  42.298  25.642   4.633
40324W        W 4081  31.512   7.847  14.392
40325W        W 4082  34.932   1.757   1.765
40326W        W 4083   4.434  25.081   4.198
40327W        W 4084   9.883  33.099  13.827
40328W        W 4085   7.270   9.766   0.803
40329W        W 4086   5.324  33.438   2.669
40330W        W 4087  34.475  35.576  13.814
40331W        W 4088   0.759  32.484  10.514
40332W        W 4089  24.055  24.059  12.346
40333W        W 4090  37.004  26.572  13.919
40334W        W 4091  37.537  31.598  10.643
40335W        W 4092  25.611  25.115   0.758
40336W        W 4093  14.160  36.420  12.866
40337W        W 4094  10.838  19.098  12.969
40338W        W 4095  25.062  11.842   4.247
40339W        W 4096  27.992  44.347   3.178
40340W        W 4097  39.548  18.209  14.425
40341W        W 4098   0.918   9.191   0.740
40342W        W 4099  28.997  43.891  11.560
40343W        W 4100  34.932  38.933   0.387
40344W        W 4101  17.753  43.837   5.250
40345W        W 4102   1.831  37.047  12.413
40346W        W 4103  43.839   1.336  13.391
40347W        W 4104  29.136  24.193  10.974
40348W        W 4105  10.717  23.583   3.285
40349W        W 4106  32.967  10.148   0.297
40350W        W 4107  43.894  43.997   1.867
40351W        W 4108  42.469  30.148   4.724
40352W        W 4109  17.555  15.203   0.391
40353W        W 4110  21.065  18.745   3.668
40354W        W 4111  19.669  37.856   3.863
40355W        W 4112  34.514  28.154   3.321
40356W        W 4113  21.530  15.592   4.771
40357W        W 4114  17.158  31.620  13.535
40358W        W 4115  20.146  18.630  13.490
40359W        W 4116  29.666  22.087  11.468
40360W        W 4117  13.113  44.852  13.046
40361W        W 4118   4.401  17.732  11.429
40362W        W 4119   6.378  23.008  13.030
40363W        W 4120  37.087  28.956  11.994
40364W        W 4121   8.359  29.124   1.281
40365W        W 4122  22.088  26.467   1.280
40366W        W 4123  16.628  35.018  10.403
40367W        W 4124  22.225  10.797  14.301
40368W        W 4125  20.218  39.522  11.378
40369W        W 4126  20.609  15.158  10.638
40370W        W 4127  42.850  41.520   3.751
40371W        W 4128   5.815  43.389   1.219
40372W        W 4129  37.033  37.456  11.859
40373W        W 4130  31.127  32.433   3.148
40374W        W 4131   9.722  22.689  13.818
40375W        W 4132   2.228  40.491  11.908
40376W        W 4133  28.579  19.242   2.181
40377W        W 4134  32.046   8.796  13.849
40378W        W 4135  38.007  38.571  13.361
40379W        W 4136  38.985  38.382  14.454
40380W        W 4137  21.530  14.251  10.406
40381W        W 4138  27.071  39.012  13.932
40382W        W 4139   7.224  43.504   1.352
40383W        W 4140  39.965  40.904   2.413
40384W        W 4141  35.894   8.871  11.476
40385W        W 4142  25.524  41.930  10.510
40386W        W 4143  31.523  25.641  14.889
40387W        W 4144   2.422  23.498  10.414
40388W        W 4145   0.268  41.395  14.356
40389W        W 4146  13.828  43.442   2.305
40390W        W 4147   1.966   9.346  14.893
40391W        W 4148  16.622  21.077   3.732
40392W        W 4149  16.255  13.828  13.490
40393W        W 4150  43.912  44.844   1.367
40394W        W 4151  35.872  18.104   4.344
40395W        W 4152  22.564  34.943  12.555
40396W        W 4153  16.779  32.021  13.405
40397W        W 4154  16.117  14.814   2.806
40398W        W 4155  23.546  30.652  11.876
40399W        W 4156  41.429  12.630  10.626
40400W        W 4157  44.347  20.145   3.663
40401W        W 4158  21.568  41.017   1.898
40402W        W 4159  15.134  11.143   1.362
40403W        W 4160  20.264  17.694   2.282
40404W        W 4161   9.682  36.529   1.409
40405W        W 4162  33.588  20.725   2.205
40406W        W 4163  18.149  10.270   4.789
40407W        W 4164  23.513  14.328   1.220
40408W        W 4165   6.428  37.955   1.813
40409W        W 4166  27.003  14.635  10.985
40410W        W 4167   5.261  23.166  13.529
40411W        W 4168  43.912   3.395  14.903
40412W        W 4169  32.917   3.800   2.341
40413W        W 4170   1.977  21.676   3.641
40414W        W 4171  40.983  30.994   2.699
40415W        W 4172  21.550  40.986   2.731
40416W        W 4173  31.415  44.779  12.872
40417W        W 4174  35.060  41.380  13.949
40418W        W 4175  43.453  23.214  10.424
40419W        W 4176   2.241  32.904  14.021
40420W        W 4177  32.396  21.560  12.866
40421W        W 4178  17.193  24.538   4.240
40422W        W 4179  40.851  19.105  13.374
40423W        W 4180   4.378  26.194   4.290
40424W        W 4181  41.992  27.526  14.402
40425W        W 4182  26.951   2.909  13.483
40426W        W 4183  30.505  13.247   0.463
40427W        W 4184  37.559  34.929   3.375
40428W        W 4185  41.851  21.628   4.737
40429W        W 4186  38.019  25.524   1.451
40430W        W 4187  18.215  42.447   2.735
40431W        W 4188  30.494  22.712  11.091
40432W        W 4189   1.923  19.249  11.069
40433W        W 4190  16.088   6.337   3.764
40434W        W 4191  26.078  23.220  11.939
40435W        W 4192  14.285   2.272   1.703
40436W        W 4193   5.355  26.655  14.939
40437W        W 4194   1.419  42.005   0.379
40438W        W 4195  31.443   1.359   0.353
40439W        W 4196  11.272  15.147   4.142
40440W        W 4197  40.473  10.796   4.669
40441W        W 4198  38.358  30.966   3.247
40442W        W 4199  16.727  34.602   0.415
40443W        W 4200  22.067  11.633   3.664
40444W        W 4201  38.427  42.966  12.403
40445W        W 4202  41.352  32.045   0.401
40446W        W 4203  35.363  20.704   3.642
40447W        W 4204  38.845  42.473  13.960
40448W        W 4205  28.081  29.109  12.553
40449W        W 4206  13.217  33.592   4.215
40450W        W 4207  31.979  17.098  14.516
40451W        W 4208  20.210  29.646   0.915
40452W        W 4209  35.372  12.615   1.718
40453W        W 4210  33.062   4.705  12.094
40454W        W 4211  36.978   5.869  13.821
40455W        W 4212  21.129   1.803  14.769
40456W        W 4213  19.645  37.563   0.776
40457W        W 4214  14.254   4.806  11.509
40458W        W 4215  35.408   7.236  12.570
40459W        W 4216   2.320  41.299   5.289
40460W        W 4217   2.420  17.640   3.205
40461W        W 4218  18.686  43.386   3.770
40462W        W 4219   0.287  40.511  13.057
40463W        W 4220  24.584  35.529  12.457
40464W        W 4221  33.085  12.819  12.880
40465W        W 4222  40.304   2.872  12.414
40466W        W 4223  17.255  11.722   3.264
40467W        W 4224  30.135  13.323  14.389
40468W        W 4225   5.832  33.891  10.612
40469W        W 4226  41.432  38.409   1.446
40470W        W 4227  14.711  18.106  13.809
40471W        W 4228  12.347  42.503  12.874
40472W        W 4229  14.170   0.326   5.622
40473W        W 4230  13.776  13.838   4.740
40474W        W 4231   4.797  17.204  11.077
40475W        W 4232  23.124  29.600   4.281
40476W        W 4233  16.687  42.010  10.584
40477W        W 4234  25.035  40.383  13.525
40478W        W 4235  30.919  38.825  12.065
40479W        W 4236   9.690  26.506   0.788
40480W        W 4237  34.399  31.079  12.357
40481W        W 4238   8.235   0.757   2.744
40482W        W 4239  40.314  41.448  14.307
40483W        W 4240  40.444  25.655  10.642
40484W        W 4241   6.392   8.331   3.830
40485W        W 4242   2.246  29.493   2.388
40486W        W 4243  42.025  27.093  14.885
40487W        W 4244  12.811  40.046  13.343
40488W        W 4245   8.181  42.893   5.289
40489W        W 4246   7.687  43.905  13.959
40490W        W 4247   4.370  38.507   0.407
40491W        W 4248  23.205  36.938   0.943
40492W        W 4249  33.945   4.860   2.685
40493W        W 4250  18.253   6.256  11.991
40494W        W 4251  25.023  37.022  11.956
40495W        W 4252   6.677  41.490   2.803
40496W        W 4253  36.571  12.215  10.541
40497W        W 4254  37.374  21.019  13.859
40498W        W 4255  11.792  29.493  10.100
40499W        W 4256  36.565  44.350  11.398
40500W        W 4257  23.128  20.039   0.415
40501W        W 4258  28.165  43.311   0.253
40502W        W 4259  39.424  40.484   3.366
40503W        W 4260  14.809  20.110  13.410
40504W        W 4261  34.030  27.073  11.080
40505W        W 4262   1.268  29.973   0.321
40506W        W 4263  25.655  32.568  11.455
40507W        W 4264   4.770   5.876  14.774
40508W        W 4265   7.254  39.864   1.211
40509W        W 4266  13.627  31.411   1.283
40510W        W 4267  22.092   3.739   3.187
40511W        W 4268  27.591  44.768   3.753
40512W        W 4269   5.823  36.413  12.974
40513W        W 4270  20.720  37.380   4.174
40514W        W 4271  37.038  16.255  10.994
40515W        W 4272  38.875  34.993  11.473
40516W        W 4273  22.714  25.161  12.016
40517W        W 4274   6.783  33.921  12.415
40518W        W 4275   0.948  12.289   3.828
40519W        W 4276  41.457  39.371  13.879
40520W        W 4277   1.755  19.555  12.906
40521W        W 4278  17.116   5.933   3.748
40522W        W 4279  19.537  37.916   4.801
40523W        W 4280  28.978  38.336  11.506
40524W        W 4281  44.390  39.822   0.319
40525W        W 4282  13.171  31.412  10.970
40526W        W 4283  42.364  17.580   2.838
40527W        W 4284  31.901   6.738  11.109
40528W        W 4285  32.633  16.277  11.559
40529W        W 4286   5.929  21.758   3.279
40530W        W 4287  15.298  41.427  11.475
40531W        W 4288   5.197   2.728   0.841
40532W        W 4289  44.377  35.090   3.792
40533W        W 4290  37.875   9.717   1.221
40534W        W 4291  27.034   2.740  14.332
40535W        W 4292   1.375  31.528   2.703
40536W        W 4293  41.496  31.404  14.995
40537W        W 4294  20.175  20.171  13.518
40538W        W 4295  15.124   6.192   0.323
40539W        W 4296   3.830   7.383  13.488
40540W        W 4297  14.113  27.006  13.801
40541W        W 4298  26.064  39.464  13.005
40542W        W 4299  15.192  11.192   2.757
40543W        W 4300  23.015  17.181   3.847
40544W        W 4301  10.225  31.937   0.282
40545W        W 4302  14.829  42.948   4.744
40546W        W 4303  24.487  12.810  12.565
40547W        W 4304  22.576  28.632   0.372
40548W        W 4305   2.945  16.718   1.444
40549W        W 4306  34.938  28.592  11.575
40550W        W 4307  37.838   9.354  11.889
40551W        W 4308  41.317  29.085   4.685
40552W        W 4309  31.011  36.902   2.811
40553W        W 4310   7.859   1.898   4.151
40554W        W 4311  37.531  33.894   3.190
40555W        W 4312   7.792  15.170  10.128
40556W        W 4313  38.468  11.646   3.165
40557W        W 4314  32.104  43.838  11.566
40558W        W 4315   6.409   2.419  12.028
40559W        W 4316  18.152  28.123   4.294
40560W        W 4317  18.108  13.248  12.881
40561W        W 4318  34.519   6.274   1.290
40562W        W 4319  11.775  31.598  10.527
40563W        W 4320  35.366   0.764   3.722
40564W        W 4321   9.379   5.273  12.994
40565W        W 4322  33.024  12.223   0.745
40566W        W 4323  15.181   5.298  13.500
40567W        W 4324  15.148  39.920  11.036
40568W        W 4325  23.163  35.562  10.067
40569W        W 4326  17.249  18.671  13.939
40570W        W 4327  29.153  35.513  10.462
40571W        W 4328  40.932  18.056  14.902
40572W        W 4329   7.363   6.397  10.976
40573W        W 4330  39.479  12.619   2.856
40574W        W 4331   4.885  27.166   3.788
40575W        W 4332   3.426  22.058  12.957
40576W        W 4333  33.929  40.924   0.909
40577W        W 4334  36.085  23.180   4.701
40578W        W 4335  33.927   0.781   1.405
40579W        W 4336  24.125  29.979  11.476
40580W        W 4337  25.683  26.158   3.693
40581W        W 4338  25.085  27.626   0.842
40582W        W 4339  10.278  24.169   3.691
40583W        W 4340  28.973  14.763   1.702
40584W        W 4341  20.582  38.899   0.382
40585W        W 4342  21.251  25.206  10.613
40586W        W 4343  34.071  44.832  12.029
40587W        W 4344  31.897  10.816   3.832
40588W        W 4345   7.190  16.092  13.446
40589W        W 4346   6.369   4.883  10.031
40590W        W 4347  36.894   1.949  13.396
40591W        W 4348  23.082  17.687   2.259
40592W        W 4349  33.621  13.242   4.129
40593W        W 4350  38.545  25.209  12.895
40594W        W 4351   2.939   6.846  13.439
40595W        W 4352  11.294  40.429   1.347
40596W        W 4353   4.863   2.881  10.554
40597W        W 4354  15.152  22.117   0.846
40598W        W 4355  34.384  40.926   0.425
40599W        W 4356  10.736  15.635  14.988
40600W        W 4357  40.976  31.459   3.655
40601W        W 4358  41.921   5.291   3.853
40602W        W 4359  28.534  10.647   1.809
40603W        W 4360   0.252  18.786  12.078
40604W        W 4361  44.338  42.495   3.298
40605W        W 4362  33.454   0.344   2.687
40606W        W 4363   3.783   5.749  13.467
40607W        W 4364  32.571   1.831   3.260
40608W        W 4365   8.719  13.273  14.972
40609W        W 4366   5.232  44.320  11.121
40610W        W 4367  41.836  10.794   3.831
40611W        W 4368  13.633  39.417  14.479
40612W        W 4369  25.684  19.057  14.938
40613W        W 4370  40.480  13.789   3.341
40614W        W 4371  43.958   1.837  11.425
40615W        W 4372   9.776   9.334   3.658
40616W        W 4373  25.592  44.916  11.094
40617W        W 4374  40.044  10.254  12.880
40618W        W 4375   1.461  34.871   3.383
40619W        W 4376  34.575  24.631   1.222
40620W        W 4377  21.726  41.373  11.491
40621W        W 4378   1.341  39.998  11.574
40622W        W 4379  29.023  25.677   3.697
40623W        W 4380   1.780  11.787   3.361
40624W        W 4381  20.617   8.237  11.580
40625W        W 4382  40.424  24.543   3.385
40626W        W 4383  34.513   4.820  12.041
40627W        W 4384   8.854  34.942   4.711
40628W        W 4385  32.127   8.666   1.441
40629W        W 4386   8.218  39.367   4.210
40630W        W 4387  11.231   3.862  11.554
40631W        W 4388  33.113  32.047  13.946
40632W        W 4389  25.552  25.508   0.783
40633W        W 4390  15.121   3.738   1.285
40634W        W 4391   7.669  42.369   1.311
40635W        W 4392   3.325   1.899  12.579
40636W        W 4393  11.668   8.682  13.462
40637W        W 4394  35.381  20.079  13.798
40638W        W 4395  10.311  13.638   2.750
40639W        W 4396   6.311   4.794  13.992
40640W        W 4397  10.247   6.379   4.777
40641W        W 4398   0.979  32.021   0.798
40642W        W 4399  35.513  12.304  11.879
40643W        W 4400  23.649  33.408  13.038
40644W        W 4401  39.400  13.704  11.002
40645W        W 4402  15.095  27.980   1.813
40646W        W 4403  26.666   6.253   0.916
40647W        W 4404   9.382  15.218  12.460
40648W        W 4405  22.110  22.006   0.883
40649W        W 4406  24.525   3.954  11.121
40650W        W 4407   3.385  23.064   1.762
40651W        W 4408  12.265  27.008   2.369
40652W        W 4409  26.542  13.121  11.930
40653W        W 4410   3.821  42.959  12.425
40654W        W 4411  13.638  32.466   2.378
40655W        W 4412  30.626  24.131  11.476
40656W        W 4413  33.395   4.918  13.796
40657W        W 4414   2.802  20.694   0.768
40658W        W 4415  37.382  35.969   2.682
40659W        W 4416  34.441  16.145  11.957
40660W        W 4417  12.834  24.037   2.869
40661W        W 4418  20.148   5.751  11.425
40662W        W 4419  16.154  39.503  11.991
40663W        W 4420  29.936   9.697  11.535
40664W        W 4421  20.180   8.794  12.385
40665W        W 4422  12.840  34.882  10.926
40666W        W 4423  36.392  16.651   3.797
40667W        W 4424  10.349  37.979  14.305
40668W        W 4425  11.724  15.258   0.336
40669W        W 4426  10.825  44.390   3.824
40670W        W 4427  32.571   8.308   4.326
40671W        W 4428  41.398  35.581  12.472
40672W        W 4429   3.817   6.698  12.539
40673W        W 4430  37.908  33.117   3.855
40674W        W 4431   0.435  30.534   0.341
40675W        W 4432  10.745   5.787  10.627
40676W        W 4433  30.459   5.894  12.095
40677W        W 4434  13.602   8.169   3.372
40678W        W 4435  25.531  20.241   2.245
40679W        W 4436  40.045   8.374  12.509
40680W        W 4437  22.070   2.870  14.779
40681W        W 4438  43.476   0.829   4.215
40682W        W 4439  37.895   0.374   3.861
40683W        W 4440  41.973  34.917  10.894
40684W        W 4441   4.844  43.782  11.570
40685W        W 4442  44.408  21.655   5.272
40686W        W 4443  34.878  30.500   0.426
40687W        W 4444  24.497  33.878   2.835
40688W        W 4445   1.788  17.770  12.415
40689W        W 4446  26.967  19.102   0.381
40690W        W 4447  32.893  12.625   2.211
40691W        W 4448  31.041   5.859  11.407
40692W        W 4449  14.206  23.207   4.748
40693W        W 4450  42.431  44.291  11.997
40694W        W 4451  27.530  40.981   0.281
40695W        W 4452  26.544  12.305  13.966
40696W        W 4453   9.304  28.063   3.385
40697W        W 4454   6.239  33.425  10.552
40698W        W 4455   7.198  43.990  13.871
40699W        W 4456   8.878  44.360   4.349
40700W        W 4457   5.209  15.633  11.907
40701W        W 4458   4.933  20.736  12.566
40702W        W 4459  22.690   4.820  12.064
40703W        W 4460  34.001  23.544  14.440
40704W        W 4461  40.035  17.117   0.849
40705W        W 4462  22.169  13.138   3.646
40706W        W 4463  12.614  27.974   1.839
40707W        W 4464  25.110  39.358  14.409
40708W        W 4465  39.895  12.624   1.250
40709W        W 4466  20.153  28.640  13.039
40710W        W 4467  34.094  27.052  13.856
40711W        W 4468  44.945  38.563  11.980
40712W        W 4469   9.194  17.696  14.965
40713W        W 4470  17.697  35.603   0.836
40714W        W 4471   8.330  44.798   0.845
40715W        W 4472   3.276  23.016  12.447
40716W        W 4473  15.228  27.091   0.749
40717W        W 4474   1.859  36.386  10.567
40718W        W 4475   0.452  12.645   1.862
40719W        W 4476  41.352   1.757  14.411
40720W        W 4477  14.229  17.207  12.537
40721W        W 4478  25.537  33.606   2.216
40722W        W 4479  41.874   8.686  11.457
40723W        W 4480  13.236  21.527   0.948
40724W        W 4481  43.997  30.643  14.861
40725W        W 4482  24.613  17.107  13.809
40726W        W 4483  16.574  12.201   0.727
40727W        W 4484   1.238  33.598   3.301
40728W        W 4485  17.559  24.599  12.435
40729W        W 4486  27.576  26.464  10.098
40730W        W 4487  15.614  38.350   4.722
40731W        W 4488  17.678  32.079   1.446
40732W        W 4489  18.760   7.175   0.829
40733W        W 4490  39.378  11.643   4.737
40734W        W 4491  39.535  20.649   1.810
40735W        W 4492  23.545  16.154   4.188
40736W        W 4493  13.599  18.233  13.028
40737W        W 4494   0.413  29.105  12.470
40738W        W 4495  21.214  30.578   0.314
40739W        W 4496  26.589  30.510   4.280
40740W        W 4497  15.221  32.895   4.122
40741W        W 4498  37.412   3.390  11.412
40742W        W 4499  13.694  26.618   3.365
40743W        W 4500  17.103  21.050  13.877
40744W        W 4501  15.769   8.825  12.551
40745W        W 4502  17.639  19.763   0.781
40746W        W 4503  19.127  22.675  14.315
40747W        W 4504  32.537  39.376  10.901
40748W        W 4505  11.169  24.701  12.919
40749W        W 4506  18.252   1.458  11.430
40750W        W 4507  27.538  39.433  13.507
40751W        W 4508  43.369  22.576   1.864
40752W        W 4509  21.747  30.970  14.968
40753W        W 4510  26.998  13.317   2.776
40754W        W 4511  12.675   4.356  12.445
40755W        W 4512   8.253  43.989  11.581
40756W        W 4513  38.507  27.051   3.211
40757W        W 4514   6.726  20.631   0.357
40758W        W 4515  15.250  11.797   3.212
40759W        W 4516  13.774   2.311   4.159
40760W        W 4517  14.815   5.302   0.422
40761W        W 4518  26.464  36.915  13.893
40762W        W 4519  24.995  35.877   4.140
40763W        W 4520  37.008   1.814  12.061
40764W        W 4521   6.831  19.105  11.587
40765W        W 4522  10.697   1.437  12.076
40766W        W 4523  24.536  31.514  14.461
40767W        W 4524  41.852  25.146   4.186
40768W        W 4525   2.844  18.057   1.341
40769W        W 4526  37.876  36.571  11.453
40770W        W 4527  17.129  44.359  10.449
40771W        W 4528   0.438  40.856  11.887
40772W        W 4529  43.851  17.229  14.015
40773W        W 4530  18.295  19.601  12.410
40774W        W 4531  16.154  43.416  14.784
40775W        W 4532  39.521  21.750  11.032
40776W        W 4533  26.667   7.683  12.511
40777W        W 4534  26.573   7.803  14.374
40778W        W 4535  29.587  24.018   2.298
40779W        W 4536  26.481  13.156   1.211
40780W        W 4537  24.108  18.223   3.204
40781W        W 4538  41.344  33.014   1.773
40782W        W 4539  16.203  36.565   2.341
40783W        W 4540  34.956   2.258   0.293
40784W        W 4541  13.213   6.922   3.647
40785W        W 4542  28.031  23.221   1.745
40786W        W 4543  16.305  19.174  11.475
40787W        W 4544   9.151  37.522  14.301
40788W        W 4545  17.739   4.317   2.720
40789W        W 4546  40.404  44.415   2.246
40790W        W 4547  19.680  36.515  10.640
40791W        W 4548  33.044  26.116  12.555
40792W        W 4549  30.451   3.805   1.735
40793W        W 4550  30.504   8.660   3.162
40794W        W 4551  37.371   4.380  10.949
40795W        W 4552  26.606  32.918  13.369
40796W        W 4553  14.765  27.583   3.752
40797W        W 4554  12.673  22.138  10.522
40798W        W 4555   6.418  13.179   4.203
40799W        W 4556  38.460  31.438   3.728
40800W        W 4557  13.689  16.651  10.446
40801W        W 4558  31.412  42.467   0.399
40802W        W 4559  23.686  32.993   4.116
40803W        W 4560  19.040  44.442   4.121
40804W        W 4561  37.986   2.753  11.936
40805W        W 4562  19.039  43.516  11.402
40806W        W 4563  39.349  18.745   0.841
40807W        W 4564   6.749  11.714   0.911
40808W        W 4565  20.234  14.263  14.355
40809W        W 4566  11.811   5.771  13.893
40810W        W 4567  33.572  24.055   4.795
40811W        W 4568   5.206   8.260   4.190
40812W        W 4569   0.938  30.090  11.597
40813W        W 4570  28.997  17.797   2.793
40814W        W 4571   7.912  22.558   2.327
40815W        W 4572  32.578  24.047  12.405
40816W        W 4573  40.851   7.820  12.823
40817W        W 4574   4.710  35.993   2.333
40818W        W 4575  33.117  13.322   0.331
40819W        W 4576  38.458  42.775  14.463
40820W        W 4577  15.201   2.324   3.724
40821W        W 4578  35.073   8.293   4.814
40822W        W 4579  32.945  11.301  13.322
40823W        W 4580  25.616   9.774  10.462
40824W        W 4581  10.354  18.064   4.775
40825W        W 4582  24.225  34.075  11.918
40826W        W 4583   0.888  38.472   3.780
40827W        W 4584  29.121   7.336   3.357
40828W        W 4585  26.191  36.930   1.240
40829W        W 4586  42.333   0.929  11.007
40830W        W 4587   8.770  18.683   2.779
40831W        W 4588   5.849   5.872  10.610
40832W        W 4589   5.878  11.360   2.375
40833W        W 4590   0.858  43.473   3.698
40834W        W 4591  25.629  39.987   3.641
40835W        W 4592  31.415   1.960  11.870
40836W        W 4593  10.648  38.494  14.966
40837W        W 4594  42.524  27.975  14.305
40838W        W 4595  29.972  44.866  10.974
40839W        W 4596  12.733  24.010   1.286
40840W        W 4597   8.199  35.362   0.476
40841W        W 4598  23.112  31.076   3.282
40842W        W 4599  23.515   9.860   0.249
40843W        W 4600   0.361  41.879   0.361
40844W        W 4601   6.375  21.159   1.281
40845W        W 4602  13.126  37.515   0.425
40846W        W 4603  13.726  29.006  12.087
40847W        W 4604   4.378  22.547  10.928
40848W        W 4605  34.954   6.718  11.875
40849W        W 4606   6.916  27.531  12.548
40850W        W 4607  31.972   3.269   1.753
40851W        W 4608  12.795  24.044  10.975
40852W        W 4609  22.176  13.831   0.453
40853W        W 4610  16.721  36.918  14.007
40854W        W 4611  17.272  22.075   1.757
40855W        W 4612  42.305  37.958  11.410
40856W        W 4613  17.567  24.567   3.815
40857W        W 4614  25.089  14.125   5.223
40858W        W 4615   4.836  23.086  12.062
40859W        W 4616  41.914  42.459   4.199
40860W        W 4617  36.408  27.195  14.305
40861W        W 4618  32.925  36.034   4.185
40862W        W 4619  38.850  29.109  12.048
40863W        W 4620  15.714  31.527  13.917
40864W        W 4621  21.742  37.958  12.534
40865W        W 4622  18.761   4.379   3.687
40866W        W 4623  26.973   2.818   3.170
40867W        W 4624  31.083  11.711   4.726
40868W        W 4625  26.483  23.191   2.712
40869W        W 4626  18.237  39.331   3.364
40870W        W 4627  15.636  17.232   3.831
40871W        W 4628  17.141  15.105  12.969
40872W        W 4629  22.071  18.608   4.291
40873W        W 4630   0.754  43.500  13.396
40874W        W 4631  15.753  40.855  13.451
40875W        W 4632  39.420  22.244   3.314
40876W        W 4633  27.148   6.324   2.414
40877W        W 4634   7.212  15.731   0.309
40878W        W 4635  39.351  44.777   3.233
40879W        W 4636  15.637  40.974  11.031
40880W        W 4637  29.462   7.272   4.349
40881W        W 4638  22.036  25.537  12.524
40882W        W 4639  44.832   4.814  14.460
40883W        W 4640  10.238   7.237   3.196
40884W        W 4641  25.565  36.030  11.016
40885W        W 4642  39.428  10.167  13.369
40886W        W 4643  11.325  44.885   1.409
40887W        W 4644   6.857  18.747  11.037
40888W        W 4645   7.774  36.412  12.418
40889W        W 4646  10.287  11.175  12.449
40890W        W 4647  30.967   0.372  14.987
40891W        W 4648  33.091  18.706  13.388
40892W        W 4649  35.932  28.490  14.894
40893W        W 4650  41.825  36.490  13.399
40894W        W 4651  37.516  18.108   3.201
40895W        W 4652   9.350  20.536  10.468
40896W        W 4653  16.097  19.244   0.920
40897W        W 4654  15.290  41.524   4.676
40898W        W 4655   8.387  23.598  14.490
40899W        W 4656   1.424   8.899   4.284
40900W        W 4657  39.947  12.643  11.875
40901W        W 4658  29.567  30.040   2.410
40902W        W 4659  24.699  15.811   3.189
40903W        W 4660  24.662  14.713   2.799
40904W        W 4661  20.696   9.335   3.708
40905W        W 4662  22.156  40.882  12.943
40906W        W 4663  14.227  23.586  10.456
40907W        W 4664  38.515  32.454   3.378
40908W        W 4665  16.672   1.258   4.838
40909W        W 4666   6.361  35.941   5.086
40910W        W 4667  21.240  44.842  12.459
40911W        W 4668  24.709  22.565   9.960
40912W        W 4669  30.950  42.831   4.288
40913W        W 4670  27.492   4.445  13.351
40914W        W 4671  36.936   4.284   0.911
40915W        W 4672  19.661   2.824  14.902
40916W        W 4673  10.231  25.643   3.194
40917W        W 4674  42.961  32.593   1.377
40918W        W 4675  13.290  15.208  11.008
40919W        W 4676   8.392  28.663   3.773
40920W        W 4677  15.738   0.460  11.462
40921W        W 4678   5.226  31.947  12.488
40922W        W 4679  41.993  18.765  10.453
40923W        W 4680  36.508  11.655  14.291
40924W        W 4681  38.920  43.957   3.674
40925W        W 4682  13.310   5.733  13.436
40926W        W 4683  26.484  34.033   0.401
40927W        W 4684   8.281  27.607  11.609
40928W        W 4685  15.115  28.455   3.676
40929W        W 4686  18.668   2.723   4.722
40930W        W 4687  33.403  41.415  14.006
40931W        W 4688  13.234  22.632   3.745
40932W        W 4689   0.832  20.730   2.841
40933W        W 4690  26.660  32.958  13.026
40934W        W 4691  29.491  15.611   2.683
40935W        W 4692   9.268   7.334  12.932
40936W        W 4693  17.673  12.248  13.521
40937W        W 4694  29.471  35.403   3.165
40938W        W 4695  28.529  28.150   1.876
40939W        W 4696  40.406  44.374  11.404
40940W        W 4697   7.269   0.892  13.997
40941W        W 4698  43.768  29.611   1.783
40942W        W 4699  44.363  39.414  14.300
40943W        W 4700  24.114  14.653   1.210
40944W        W 4701   4.700  15.636  11.001
40945W        W 4702  22.689   8.689  13.453
40946W        W 4703  27.628  25.573   1.269
40947W        W 4704  40.987  15.749   4.170
40948W        W 4705  43.792  24.479   0.347
40949W        W 4706  38.449   5.820   3.864
40950W        W 4707  21.600  39.870  14.905
40951W        W 4708  32.939  30.648   2.317
40952W        W 4709   8.192  24.007   3.383
40953W        W 4710  15.687  13.753  10.048
40954W        W 4711  13.284  10.833   1.369
40955W        W 4712  20.174  26.571  10.077
40956W        W 4713   4.798  13.714   4.320
40957W        W 4714  44.796  25.101  11.403
40958W        W 4715   4.424   6.899   2.856
40959W        W 4716  23.499  44.342   3.147
40960W        W 4717  15.736   9.813   0.329
40961W        W 4718  13.169   0.273  11.959
40962W        W 4719   1.880  17.280   4.145
40963W        W 4720  33.443  29.967  11.520
40964W        W 4721  21.758  21.045   2.275
40965W        W 4722  27.157  15.819  13.903
40966W        W 4723  24.184  37.577  14.840
40967W        W 4724  41.838   3.383  14.942
40968W        W 4725  27.968  26.170  12.002
40969W        W 4726  40.984  36.888  14.498
40970W        W 4727  32.913  34.451   2.228
40971W        W 4728  21.070  37.007  13.969
40972W        W 4729   2.324   1.893   1.752
40973W        W 4730  28.131  26.517  11.091
40974W        W 4731  26.497  31.098  12.502
40975W        W 4732  20.662   9.691   4.739
40976W        W 4733  40.365  24.723   2.206
40977W        W 4734  17.613  11.278   9.534
40978W        W 4735  44.879  41.039  13.848
40979W        W 4736  13.629  43.498  10.592
40980W        W 4737  16.745  37.419  12.554
40981W        W 4738  41.938  23.563   3.821
40982W        W 4739   8.730  16.796   1.288
40983W        W 4740  43.017  41.011   0.333
40984W        W 4741   2.749   0.929  10.892
40985W        W 4742  18.635  12.822   2.821
40986W        W 4743  20.094  24.492  12.465
40987W        W 4744  10.820  21.062   0.863
40988W        W 4745  11.370  43.014   0.252
40989W        W 4746  43.320  32.429  11.503
40990W        W 4747  37.399  34.930  14.779
40991W        W 4748  24.584  16.699  13.039
40992W        W 4749  41.919  38.886   4.738
40993W        W 4750   7.885   0.777  10.920
40994W        W 4751   3.798  23.083  13.343
40995W        W 4752  16.191  38.827   3.679
40996W        W 4753  32.434  11.164   2.728
40997W        W 4754  41.318   6.328  14.975
40998W        W 4755  10.672  16.144   5.702
40999W        W 4756  13.771  32.938  13.399
41000W        W 4757  13.163  37.897   3.234
41001W        W 4758   7.275  18.742   4.192
41002W        W 4759   7.879  33.600   3.319
41003W        W 4760   0.900   0.443  12.040
41004W        W 4761  44.436  33.453   3.219
41005W        W 4762  24.188  43.285  14.394
41006W        W 4763  14.673   3.237   5.249
41007W        W 4764   2.462  21.628   4.714
41008W        W 4765  27.011  29.003  11.948
41009W        W 4766  11.770   9.837   3.792
41010W        W 4767  31.643  19.181   4.616
41011W        W 4768  28.459  27.148   0.863
41012W        W 4769   3.291  12.719  10.024
41013W        W 4770  41.483  26.653   2.278
41014W        W 4771  12.623  35.477   4.709
41015W        W 4772  25.085  35.593   3.781
41016W        W 4773  38.329  28.489  12.375
41017W        W 4774  16.102  22.695   3.203
41018W        W 4775   5.891   7.173   4.602
41019W        W 4776  44.283  29.135  12.515
41020W        W 4777  25.108  21.512   1.934
41021W        W 4778  35.875  14.805   4.320
41022W        W 4779  23.600  31.461   0.894
41023W        W 4780  30.004  27.183  14.345
41024W        W 4781   8.696   1.822   4.772
41025W        W 4782   1.397  28.110  12.086
41026W        W 4783  33.467   5.266  11.438
41027W        W 4784  39.062   8.273   4.653
41028W        W 4785  27.982  29.490  12.060
41029W        W 4786   2.291  39.972   0.811
41030W        W 4787  34.972   2.724   2.889
41031W        W 4788   9.774  17.555  13.864
41032W        W 4789  12.820  38.023  12.058
41033W        W 4790  28.035  13.742   4.222
41034W        W 4791  18.052  41.459   3.725
41035W        W 4792  13.110  14.697   3.728
41036W        W 4793   1.750  34.391  12.417
41037W        W 4794  15.683  41.953  12.574
41038W        W 4795  41.428  38.051   0.862
41039W        W 4796  23.574  29.435   3.371
41040W        W 4797  10.181  43.430   9.976
41041W        W 4798  26.024  14.814  10.527
41042W        W 4799   2.236  25.489  12.430
41043W        W 4800  37.559   0.869   2.871
41044W        W 4801  23.222  33.125   3.849
41045W        W 4802  27.185  16.646  14.011
41046W        W 4803  44.850  25.591  14.368
41047W        W 4804  11.713  33.010   3.767
41048W        W 4805  13.671  14.772   1.696
41049W        W 4806  10.836  16.247  14.502
41050W        W 4807   2.751  13.315  13.514
41051W        W 4808  19.118  13.116  13.024
41052W        W 4809  33.899  43.381   0.469
41053W        W 4810  41.841   3.361  12.457
41054W        W 4811  15.269  10.278  14.432
41055W        W 4812  27.115  43.788  10.583
41056W        W 4813  31.600  40.872   1.326
41057W        W 4814   3.921  19.743   1.224
41058W        W 4815   2.922  23.054  14.508
41059W        W 4816   6.248   3.868   0.862
41060W        W 4817  10.839  36.399   0.809
41061W        W 4818  19.655   1.370   3.648
41062W        W 4819  38.482   2.841  12.925
41063W        W 4820   9.780  11.249  14.275
41064W        W 4821  21.199  17.589  11.422
41065W        W 4822   1.283  41.963  14.932
41066W        W 4823  21.208  15.610   0.858
41067W        W 4824  42.896  11.623  13.803
41068W        W 4825  14.634   8.162   0.794
41069W        W 4826  16.104   7.267   2.695
41070W        W 4827   5.792   2.360   0.822
41071W        W 4828  32.067  23.049  11.048
41072W        W 4829  19.775   7.371   3.847
41073W        W 4830   5.333  44.463  12.543
41074W        W 4831  23.208   8.872  14.490
41075W        W 4832   7.795  31.009  11.569
41076W        W 4833  10.277   6.236  13.992
41077W        W 4834  30.909  12.835   0.758
41078W        W 4835  35.036  16.271  12.832
41079W        W 4836  42.422  19.653   3.864
41080W        W 4837  37.508  27.181   3.762
41081W        W 4838   2.887  23.187   1.773
41082W        W 4839   1.967  29.063   1.405
41083W        W 4840  19.545  24.131   3.738
41084W        W 4841  30.004  40.844  12.490
41085W        W 4842  35.417   8.782  13.341
41086W        W 4843  29.549   0.430   1.841
41087W        W 4844  35.867  31.992  10.954
41088W        W 4845  22.718  41.890   0.416
41089W        W 4846  28.536   4.844   4.636
41090W        W 4847  31.412   0.956  13.910
41091W        W 4848   5.931  16.803   2.353
41092W        W 4849   7.739  15.220   4.347
41093W        W 4850  13.781  41.903   5.115
41094W        W 4851  27.475  29.095   4.669
41095W        W 4852  35.928  12.647   1.894
41096W        W 4853   3.325   2.431   4.116
41097W        W 4854  12.818  20.691   3.706
41098W        W 4855  27.563  43.965  12.557
41099W        W 4856   7.870  18.555  14.319
41100W        W 4857  22.201  23.240   4.227
41101W        W 4858  23.173  30.579  12.926
41102W        W 4859  24.708  21.120  14.808
41103W        W 4860  20.042  27.587  14.834
41104W        W 4861  24.043  37.027  12.401
41105W        W 4862   7.196  16.255   0.400
41106W        W 4863  28.499  37.833  12.991
41107W        W 4864  44.386   0.920   5.300
41108W        W 4865  40.906   4.900   0.915
41109W        W 4866  23.166  23.614  12.988
41110W        W 4867  18.207  22.553   3.237
41111W        W 4868  32.107  39.332  11.115
41112W        W 4869  42.390  21.529  14.362
41113W        W 4870  40.347  38.353  13.014
41114W        W 4871  17.113  25.703  11.558
41115W        W 4872  41.812  11.658  12.949
41116W        W 4873  32.529   2.790   4.221
41117W        W 4874   3.860  26.193   3.279
41118W        W 4875  22.036  39.892   4.708
41119W        W 4876  13.262  36.008   0.440
41120W        W 4877   7.898  43.885  14.302
41121W        W 4878  42.837  20.608  14.378
41122W        W 4879  25.712  35.420  14.946
41123W        W 4880  34.912  37.478  13.843
41124W        W 4881  38.859  14.649  10.576
41125W        W 4882  37.576  34.030   4.144
41126W        W 4883  28.092  12.203  10.534
41127W        W 4884  41.980  20.054  11.018
41128W        W 4885   2.366  11.701  12.568
41129W        W 4886  12.262  21.679   3.794
41130W        W 4887   3.906  23.989   4.209
41131W        W 4888  13.708   5.353  13.050
41132W        W 4889  40.914  22.078  12.368
41133W        W 4890  43.781  26.130   4.295
41134W        W 4891   9.698   0.891  11.921
41135W        W 4892  36.017  11.326  11.081
41136W        W 4893  11.289  22.135   4.227
41137W        W 4894  30.102  33.115  12.029
41138W        W 4895  25.586  44.465  10.908
41139W        W 4896  25.528  16.190   0.759
41140W        W 4897   7.284  23.566   2.261
41141W        W 4898  37.373  30.566   4.126
41142W        W 4899  18.265  41.014  11.514
41143W        W 4900  14.590  19.168   0.478
41144W        W 4901  34.508  35.103  12.435
41145W        W 4902  39.469  26.181   4.719
41146W        W 4903  25.050  27.514   4.626
41147W        W 4904  38.895  13.643  14.866
41148W        W 4905  37.507  31.938   2.773
41149W        W 4906  20.028  21.526   2.666
41150W        W 4907   7.682  22.633   5.235
41151W        W 4908  16.694  31.631   1.313
41152W        W 4909  15.823  13.681   5.630
41153W        W 4910  13.351  34.873  13.515
41154W        W 4911  44.475   9.679   2.228
41155W        W 4912  14.739  16.786  10.890
41156W        W 4913  25.134  35.376  10.570
41157W        W 4914  17.063  32.959   1.804
41158W        W 4915  41.997   2.752  14.972
41159W        W 4916   1.419  12.260  12.905
41160W        W 4917  31.106   6.239   9.963
41161W        W 4918  36.583  30.643  13.331
41162W        W 4919  36.856   4.943   2.691
41163W        W 4920   1.965   5.783   1.750
41164W        W 4921  34.370  34.976  13.434
41165W        W 4922   3.809   9.164   2.267
41166W        W 4923  17.278  11.797  12.844
41167W        W 4924  26.959  14.128   0.935
41168W        W 4925  19.716   9.384   2.226
41169W        W 4926  18.730  11.292  12.906
41170W        W 4927  12.274  34.388  10.475
41171W        W 4928  41.336   6.716  11.456
41172W        W 4929  33.604  38.542   4.121
41173W        W 4930  12.760   6.358   2.893
41174W        W 4931  17.195  37.039   3.272
41175W        W 4932   7.713  38.956   3.277
41176W        W 4933  21.635  23.528   4.170
41177W        W 4934  36.578  33.024   2.204
41178W        W 4935  40.957  19.053   1.802
41179W        W 4936  40.910  28.006  13.960
41180W        W 4937   8.210  32.446  12.868
41181W        W 4938  12.835  39.346  14.404
41182W        W 4939   4.881  18.281   0.380
41183W        W 4940   2.441  30.482  11.473
41184W        W 4941  42.354  12.682  11.856
41185W        W 4942  27.947   2.382  11.945
41186W        W 4943   9.708  12.725  14.984
41187W        W 4944  24.513  35.952   2.343
41188W        W 4945  19.569  43.328  11.473
41189W        W 4946   1.381  25.601   0.417
41190W        W 4947  37.000  13.184  10.535
41191W        W 4948  20.714  44.852  11.606
41192W        W 4949  36.936  28.603   1.408
41193W        W 4950  41.297   1.939  12.469
41194W        W 4951  28.125  44.806  13.849
41195W        W 4952  18.070  25.558  13.993
41196W        W 4953  34.516  32.594   2.404
41197W        W 4954  42.885  42.783   3.310
41198W        W 4955  15.757   3.307  13.496
41199W        W 4956  38.416  23.027   4.808
41200W        W 4957  33.095  28.589  13.029
41201W        W 4958  10.298  13.330   3.675
41202W        W 4959  30.508  31.064  11.412
41203W        W 4960  10.745  15.765   2.223
41204W        W 4961  23.176  24.186  12.955
41205W        W 4962  41.798   8.366   1.784
41206W        W 4963  10.354  17.266  14.491
41207W        W 4964   0.781   2.857   0.456
41208W        W 4965  43.857  20.637  12.960
41209W        W 4966  38.518  44.841  14.425
41210W        W 4967  34.063  40.054   4.611
41211W        W 4968  22.049   3.783  13.335
41212W        W 4969   8.679  29.445  13.514
41213W        W 4970  32.122   9.884  11.119
41214W        W 4971  31.962  32.459  12.503
41215W        W 4972  13.180  33.514  10.955
41216W        W 4973   9.341   4.427  14.012
41217W        W 4974  18.281   8.852   5.295
41218W        W 4975   3.822  38.903  13.886
41219W        W 4976  31.607  21.129   0.836
41220W        W 4977  11.340   1.413   4.773
41221W        W 4978  26.570  32.575   1.764
41222W        W 4979   0.319   3.723  12.575
41223W        W 4980  14.149  10.706   2.353
41224W        W 4981  36.032   1.748   0.924
41225W        W 4982   1.805   7.318  11.868
41226W        W 4983   1.308  38.050   3.706
41227W        W 4984   6.871   0.893   4.618
41228W        W 4985  22.168  19.711   0.251
41229W        W 4986  10.761   6.763   2.294
41230W        W 4987  41.931  23.034  12.015
41231W        W 4988   7.388  40.356  13.311
41232W        W 4989  38.388  44.503   2.853
41233W        W 4990   7.181  42.523  13.465
41234W        W 4991  32.097  21.717  10.916
41235W        W 4992  20.739  37.082  10.645
41236W        W 4993  41.339  39.436  12.931
41237W        W 4994   5.898  32.890   3.642
41238W        W 4995  17.275   3.304   2.397
41239W        W 4996  37.072   1.795  11.088
41240W        W 4997  17.115  14.120   2.704
41241W        W 4998   5.382  15.088   4.176
41242W        W 4999  17.601  22.200   4.729
41243W        W 5000  29.950  27.556  12.420
41244W        W 5001  30.131  34.594  13.805
41245W        W 5002  17.785  37.893   1.903
41246W        W 5003  27.588  21.121   4.134
41247W        W 5004  12.283  19.585  10.419
41248W        W 5005  20.162  41.997   4.271
41249W        W 5006  40.304   7.304  12.052
41250W        W 5007  35.954  18.745  12.867
41251W        W 5008  37.985  11.258  12.437
41252W        W 5009  34.079  12.205  11.011
41253W        W 5010   3.230  36.936   4.775
41254W        W 5011  14.662   3.243  13.443
41255W        W 5012  12.308  13.788   0.805
41256W        W 5013  36.867  15.709   2.815
41257W        W 5014  44.380   2.393  12.861
41258W        W 5015  16.291   4.919  12.354
41259W        W 5016  20.745  16.689  11.590
41260W        W 5017  24.654  21.156   4.227
41261W        W 5018  28.936  30.452  12.494
41262W        W 5019  40.871  35.587   2.193
41263W        W 5020  16.580  43.017   2.265
41264W        W 5021  15.786  17.241  14.417
41265W        W 5022  12.324  26.560   3.804
41266W        W 5023  34.448   3.709   1.237
41267W        W 5024  30.620  44.298  12.511
41268W        W 5025   6.319   5.239  12.412
41269W        W 5026  17.264   7.897   3.326
41270W        W 5027   1.407   0.837   4.801
41271W        W 5028  42.379  32.021  11.905
41272W        W 5029  42.900   7.738  13.513
41273W        W 5030  39.401  21.517   1.770
41274W        W 5031  13.663  28.573  12.828
41275W        W 5032  43.398   1.914   5.264
41276W        W 5033  20.118  42.808  12.057
41277W        W 5034  12.166  36.870  12.076
41278W        W 5035  21.068  42.401   3.260
41279W        W 5036  39.017  29.924   2.796
41280W        W 5037  25.563  32.929  10.436
41281W        W 5038  21.602  29.037   4.334
41282W        W 5039  22.595   6.749  14.974
41283W        W 5040   6.227  38.979   2.839
41284W        W 5041  17.595  11.319   1.793
41285W        W 5042  42.985  34.869  12.950
41286W        W 5043  25.084  40.887   0.369
41287W        W 5044  43.848  39.992  10.462
41288W        W 5045  19.688  15.311   5.320
41289W        W 5046  29.484  20.270   2.207
41290W        W 5047  42.400  22.148   2.887
41291W        W 5048   0.494  34.605  12.502
41292W        W 5049  10.298  34.007   3.793
41293W        W 5050  22.172  32.423   3.158
41294W        W 5051  39.034  24.682   0.786
41295W        W 5052  31.950  18.628  12.896
41296W        W 5053   8.297  27.088  14.406
41297W        W 5054  22.635  28.597  12.496
41298W        W 5055  21.254  31.076   1.330
41299W        W 5056  15.623  28.169   2.785
41300W        W 5057  12.762  32.536   1.418
41301W        W 5058  22.534  37.560   9.928
41302W        W 5059  20.663   0.877   4.251
41303W        W 5060  32.033  11.837   1.333
41304W        W 5061  18.184  34.545   1.347
41305W        W 5062   3.948  42.862  14.401
41306W        W 5063  43.493  38.067   0.468
41307W        W 5064   5.428  34.037  10.952
41308W        W 5065  16.780  38.957  15.000
41309W        W 5066  31.908   7.349   2.692
41310W        W 5067  27.529   6.336   3.254
41311W        W 5068  10.842   5.877  13.463
41312W        W 5069  39.935   7.318  14.458
41313W        W 5070  35.370  10.877  10.407
41314W        W 5071  24.103  17.673   0.931
41315W        W 5072  15.718   8.708   0.280
41316W        W 5073  35.444  38.064  14.506
41317W        W 5074  29.587  42.390   3.223
41318W        W 5075  41.500  37.055  11.475
41319W        W 5076   9.762  39.419   2.749
41320W        W 5077  25.553  21.559   1.854
41321W        W 5078  20.755  35.553   0.856
41322W        W 5079  36.417  30.160   4.716
41323W        W 5080  12.149  41.534  14.442
41324W        W 5081  32.582  26.612   4.247
41325W        W 5082  40.388  38.460  12.379
41326W        W 5083  31.920  44.987  10.599
41327W        W 5084   6.250  44.791  13.876
41328W        W 5085  21.682   2.282   0.768
41329W        W 5086  27.942  42.876   2.317
41330W        W 5087  12.274  40.313   4.179
41331W        W 5088  17.294  43.768   3.230
41332W        W 5089  34.408  25.467   2.855
41333W        W 5090  10.374  18.752   0.391
41334W        W 5091   9.767  43.322   2.901
41335W        W 5092   1.256  16.625   3.304
41336W        W 5093  15.156  12.173   1.717
41337W        W 5094  36.525  42.830   4.305
41338W        W 5095  27.030   7.415  13.315
41339W        W 5096  16.290  19.555   0.771
41340W        W 5097  41.438   6.894   1.246
41341W        W 5098   1.762  22.109   1.421
41342W        W 5099  12.686   6.323   1.265
41343W        W 5100  14.793  28.021  13.990
41344W        W 5101  29.110  20.658  10.897
41345W        W 5102   6.242   9.218   4.250
41346W        W 5103  15.094  21.045  14.303
41347W        W 5104  16.168  21.095   1.344
41348W        W 5105   6.392  31.926  11.550
41349W        W 5106  26.670  27.553  13.871
41350W        W 5107  26.487  27.039  10.482
41351W        W 5108  37.000  34.553   4.789
41352W        W 5109  11.818  33.896  14.359
41353W        W 5110  19.184  19.719  14.991
41354W        W 5111  10.840  21.067  14.385
41355W        W 5112  22.208   0.757   2.185
41356W        W 5113  16.639  36.955   4.303
41357W        W 5114  28.026   9.818  11.536
41358W        W 5115  42.475  20.059   2.825
41359W        W 5116  23.218  26.002  11.958
41360W        W 5117  12.700   3.229   1.811
41361W        W 5118  36.451  38.446   3.784
41362W        W 5119  38.377  43.850   2.853
41363W        W 5120   5.436  11.127  11.511
41364W        W 5121  13.729   5.768   4.634
41365W        W 5122  39.434  27.487   0.961
41366W        W 5123  28.591  14.265   5.782
41367W        W 5124  34.098  14.754  13.799
41368W        W 5125  31.502  12.243   1.849
41369W        W 5126  34.488   3.894  11.989
41370W        W 5127  27.551   3.220   2.263
41371W        W 5128   4.289   4.736  10.644
41372W        W 5129  38.957  39.477  13.342
41373W        W 5130  27.593  22.570   1.706
41374W        W 5131  33.992  22.674  10.437
41375W        W 5132  43.951  31.074   3.848
41376W        W 5133  32.520  35.069   4.300
41377W        W 5134  38.536  14.247   2.672
41378W        W 5135  35.030   4.353  13.411
41379W        W 5136   9.369   8.872   4.809
41380W        W 5137  37.059  25.965  10.933
41381W        W 5138   8.249   0.377   1.863
41382W        W 5139  23.993  37.989   1.299
41383W        W 5140   2.457  26.518  12.360
41384W        W 5141  24.677  10.744   0.803
41385W        W 5142  25.118   2.900   4.130
41386W        W 5143  32.078  27.006   0.909
41387W        W 5144  38.462  36.870   0.379
41388W        W 5145  12.679  33.894  10.546
41389W        W 5146  37.398  11.678  14.315
41390W        W 5147  31.487  28.545   1.268
41391W        W 5148  11.672  36.477  10.485
41392W        W 5149   6.765  40.422   0.896
41393W        W 5150  34.068  33.045   2.777
41394W        W 5151  32.432  21.217  14.460
41395W        W 5152   3.927  23.577   3.300
41396W        W 5153  11.743   4.826  14.028
41397W        W 5154   7.766  21.609  12.958
41398W        W 5155  19.718  12.672  14.368
41399W        W 5156  36.379  41.937   3.785
41400W        W 5157  30.509   2.447   2.298
41401W        W 5158  31.433   2.389  14.326
41402W        W 5159  18.086  23.066   1.365
41403W        W 5160  29.468  39.372   1.928
41404W        W 5161  27.049  20.624  14.019
41405W        W 5162  28.498  44.958  12.357
41406W        W 5163   1.764  29.495  12.545
41407W        W 5164  22.204  17.197   0.892
41408W        W 5165   4.878  36.041  12.828
41409W        W 5166  14.106  40.904   0.821
41410W        W 5167  29.454  16.212   3.186
41411W        W 5168   0.337   1.306   3.235
41412W        W 5169  43.952  40.487  11.930
41413W        W 5170  31.089  36.441  14.476
41414W        W 5171  27.585  13.134   4.716
41415W        W 5172  38.032  36.922   0.731
41416W        W 5173  41.525  37.503   4.128
41417W        W 5174  39.352  11.752   0.418
41418W        W 5175  33.883   3.857  14.826
41419W        W 5176  16.250   3.748   0.276
41420W        W 5177  21.108   6.791  10.910
41421W        W 5178  20.711  20.549  14.375
41422W        W 5179  33.608   1.415   2.320
41423W        W 5180  19.186   5.869  13.867
41424W        W 5181  38.463   3.932   1.698
41425W        W 5182  12.687  28.571  12.835
41426W        W 5183   0.832   0.869   3.707
41427W        W 5184  11.150  28.522   4.608
41428W        W 5185   2.918  39.001  13.057
41429W        W 5186  10.364  44.353   1.252
41430W        W 5187  16.742  15.814  14.868
41431W        W 5188   5.350  29.659   3.831
41432W        W 5189  22.621   6.418  14.788
41433W        W 5190  21.640  20.546  12.396
41434W        W 5191  26.020   6.697   2.816
41435W        W 5192   0.272  34.467  11.583
41436W        W 5193  24.046   4.783   5.241
41437W        W 5194  38.999   5.871  14.426
41438W        W 5195  34.886  20.629   1.795
41439W        W 5196  39.519  20.237  13.806
41440W        W 5197  15.752  22.166   2.808
41441W        W 5198  42.815  14.679   2.856
41442W        W 5199  29.001  15.323   3.740
41443W        W 5200   2.306  24.113   2.760
41444W        W 5201  11.808  23.578  12.869
41445W        W 5202  11.828   5.931   3.264
41446W        W 5203  35.546  11.130   4.725
41447W        W 5204  17.573  22.690  11.890
41448W        W 5205  40.307  19.735   0.449
41449W        W 5206  16.274  29.068   2.289
41450W        W 5207   4.370  18.107   1.353
41451W        W 5208  33.440  41.963  12.067
41452W        W 5209  37.883   2.963   3.213
41453W        W 5210  35.881   7.706   4.835
41454W        W 5211  42.472   9.817   1.429
41455W        W 5212  28.566   2.899  12.928
41456W        W 5213  44.997  36.497  13.397
41457W        W 5214  21.131   6.703   0.861
41458W        W 5215  20.115  42.481   0.313
41459W        W 5216  24.512  42.465   3.260
41460W        W 5217   1.455  20.142   0.933
41461W        W 5218  30.163  19.581  13.497
41462W        W 5219  33.102   8.789  12.095
41463W        W 5220   7.358  25.066  10.589
41464W        W 5221  44.442  24.552  13.512
41465W        W 5222   2.363  17.595  11.558
41466W        W 5223  30.461  24.152  13.483
41467W        W 5224  43.481  15.148   3.336
41468W        W 5225  20.671  35.101   1.880
41469W        W 5226  42.380  28.065   2.877
41470W        W 5227   3.259   4.393  11.048
41471W        W 5228  35.432  15.616   2.688
41472W        W 5229   6.677  36.078  10.983
41473W        W 5230   7.239  22.511   2.675
41474W        W 5231   7.835  17.188   2.243
41475W        W 5232  27.677   2.370   2.353
41476W        W 5233  24.080  25.595  12.473
41477W        W 5234  35.075  18.105   3.200
41478W        W 5235  20.267  31.406  13.348
41479W        W 5236  32.473  10.279   3.362
41480W        W 5237  15.167  37.038   3.325
41481W        W 5238  23.052  32.584  14.834
41482W        W 5239  11.703   3.861   4.249
41483W        W 5240  17.105  39.322   2.385
41484W        W 5241   4.901  31.481   4.149
41485W        W 5242   7.797   9.382   3.345
41486W        W 5243   0.451  38.533  10.587
41487W        W 5244  29.045  38.013  11.611
41488W        W 5245  40.915  23.644  12.046
41489W        W 5246   8.706  43.345   2.718
41490W        W 5247  40.974  10.788   0.727
41491W        W 5248  30.425  39.852   3.720
41492W        W 5249   5.703   9.732  13.857
41493W        W 5250  39.351  30.146  10.968
41494W        W 5251  29.550  11.335  10.418
41495W        W 5252  38.459  41.309  14.374
41496W        W 5253  44.463  28.041   2.701
41497W        W 5254   3.840  44.968  10.466
41498W        W 5255   1.438  23.689   1.418
41499W        W 5256  10.138   4.810  14.906
41500W        W 5257  38.883   5.312   1.225
41501W        W 5258  24.198  21.221  14.806
41502W        W 5259   0.829  23.607   1.216
41503W        W 5260  35.904  24.720  12.930
41504W        W 5261   9.358  38.876   2.860
41505W        W 5262  27.171  27.498  11.537
41506W        W 5263   9.242   7.215   1.805
41507W        W 5264  30.966  23.140   1.864
41508W        W 5265  37.917  39.980  14.811
41509W        W 5266   9.227  23.992   2.663
41510W        W 5267   6.920  20.653  11.973
41511W        W 5268  26.572  33.937  13.493
41512W        W 5269  20.707  26.953  12.866
41513W        W 5270   4.859   5.403  11.589
41514W        W 5271  18.067  30.587  14.968
41515W        W 5272   6.217  38.906  11.540
41516W        W 5273  34.583  35.510   2.884
41517W        W 5274   3.290  20.129   2.796
41518W        W 5275  25.169  13.726  10.560
41519W        W 5276  14.636  12.663  12.019
41520W        W 5277  24.980  26.509   3.376
41521W        W 5278  40.393  26.513   2.742
41522W        W 5279  42.918  13.212   4.638
41523W        W 5280  30.942   7.891   1.803
41524W        W 5281  22.204  23.718   3.196
41525W        W 5282  22.736  11.366   4.323
41526W        W 5283  25.713   9.855  13.801
41527W        W 5284  34.906  26.205  13.423
41528W        W 5285   5.222  16.177   4.175
41529W        W 5286  34.405  12.712  14.912
41530W        W 5287  31.096  35.895   5.142
41531W        W 5288  41.299  23.640   1.241
41532W        W 5289  10.750  10.736   0.749
41533W        W 5290   2.811  25.660  11.039
41534W        W 5291  35.878  32.916   3.797
41535W        W 5292  25.065  44.412  12.367
41536W        W 5293  29.473  20.653  11.073
41537W        W 5294   6.788  39.822   5.799
41538W        W 5295  11.155  22.649   4.753
41539W        W 5296  41.992  30.975  14.828
41540W        W 5297   7.783  34.537   1.720
41541W        W 5298  28.639  38.505   3.279
41542W        W 5299  27.649   4.851  11.969
41543W        W 5300  10.234  19.545   2.279
41544W        W 5301  43.495   0.378   4.302
41545W        W 5302  15.322  25.059   4.614
41546W        W 5303  44.884  10.292   3.167
41547W        W 5304  20.107  14.621  10.102
41548W        W 5305  30.477  22.738   4.139
41549W        W 5306   5.934  18.674   4.220
41550W        W 5307  41.306  13.200  10.587
41551W        W 5308  13.726  10.859  11.492
41552W        W 5309   3.769  38.895   2.391
41553W        W 5310  42.799  16.597   0.781
41554W        W 5311  15.787  34.478   2.814
41555W        W 5312  28.617  19.182  10.546
41556W        W 5313  36.906  25.176   2.669
41557W        W 5314  15.145  38.343   1.289
41558W        W 5315  28.164  42.449  14.942
41559W        W 5316  32.947  28.016   2.410
41560W        W 5317  43.896  17.109   2.671
41561W        W 5318  28.549   6.393   3.235
41562W        W 5319  10.784  44.988   2.373
41563W        W 5320  15.703  23.050  12.564
41564W        W 5321  18.586  30.914  13.018
41565W        W 5322  35.528  17.716  14.302
41566W        W 5323  31.531  22.193  12.856
41567W        W 5324  24.051  25.126   1.846
41568W        W 5325  22.614  16.684  13.459
41569W        W 5326   9.244   7.308  10.015
41570W        W 5327   5.217   8.331  12.869
41571W        W 5328  30.069  31.532  11.031
41572W        W 5329   3.842  34.402   0.373
41573W        W 5330  13.338  16.609  14.946
41574W        W 5331  16.660  24.516  12.073
41575W        W 5332  42.031  44.979  14.418
41576W        W 5333  38.458  14.691  11.561
41577W        W 5334   7.410  22.061  11.391
41578W        W 5335  39.327  25.678  14.393
41579W        W 5336   4.346  21.257   1.339
41580W        W 5337  16.223  24.598  14.815
41581W        W 5338   9.284  16.257   4.204
41582W        W 5339  22.569  23.025   0.483
41583W        W 5340  35.924  27.993  13.494
41584W        W 5341  13.745  34.515   1.397
41585W        W 5342  44.901  17.756  11.885
41586W        W 5343  30.465  44.331  13.428
41587W        W 5344  28.501  31.921   1.415
41588W        W 5345  23.520  12.171  12.546
41589W        W 5346  30.078  10.372  10.419
41590W        W 5347  30.002  27.963  11.914
41591W        W 5348  40.904  22.623   0.745
41592W        W 5349  31.067  26.046  12.470
41593W        W 5350  36.475  12.282  14.835
41594W        W 5351   4.262  14.695  10.953
41595W        W 5352  36.037   2.364   1.695
41596W        W 5353   7.697  36.847   3.711
41597W        W 5354   3.828   1.971  12.883
41598W        W 5355  42.456  14.682   4.641
41599W        W 5356  27.030  38.533   4.267
41600W        W 5357  19.228   7.337  12.873
41601W        W 5358  35.575  21.168  12.551
41602W        W 5359  15.582  23.044  13.391
41603W        W 5360  34.905  11.215   3.371
41604W        W 5361   4.709  28.569   4.678
41605W        W 5362   9.789  13.324  10.630
41606W        W 5363  26.599  32.603   3.308
41607W        W 5364  14.218  34.047  13.365
41608W        W 5365  16.590   6.231   4.152
41609W        W 5366  17.231   4.888   9.968
41610W        W 5367  31.141  29.088  14.418
41611W        W 5368  33.444  33.568   0.949
41612W        W 5369  29.505  22.639   3.678
41613W        W 5370   2.459  44.962   2.326
41614W        W 5371  17.627  29.656  11.928
41615W        W 5372   1.733  12.642   1.781
41616W        W 5373   2.433  41.292  12.477
41617W        W 5374  26.623  18.142   2.257
41618W        W 5375  42.803  44.283   5.290
41619W        W 5376  12.337  13.653   3.224
41620W        W 5377  20.207   7.374   3.849
41621W        W 5378   1.952  43.480   2.892
41622W        W 5379  24.676  43.404  12.823
41623W        W 5380  15.203  39.358  11.868
41624W        W 5381  16.100  22.638   4.269
41625W        W 5382  42.004  33.986  12.959
41626W        W 5383  41.013   7.876   0.258
41627W        W 5384  19.198  29.520  13.321
41628W        W 5385  32.134  27.186   3.197
41629W        W 5386  20.661  24.678  12.041
41630W        W 5387   0.475  32.426   1.716
41631W        W 5388  29.103  27.033   3.339
41632W        W 5389   8.397   2.957  11.090
41633W        W 5390  12.345  42.934   0.797
41634W        W 5391  42.953   7.192   4.209
41635W        W 5392   8.764   4.902   1.821
41636W        W 5393  24.523  19.276   3.761
41637W        W 5394  17.731  14.149   0.756
41638W        W 5395  44.867  44.418  12.057
41639W        W 5396  22.112  10.246  13.384
41640W        W 5397  27.053  27.072  14.833
41641W        W 5398  12.288  16.773   2.886
41642W        W 5399   7.285  23.198  13.474
41643W        W 5400  13.733  25.533  13.376
41644W        W 5401  23.183   3.796   3.721
41645W        W 5402  10.359   5.785  11.893
41646W        W 5403  27.581   2.333   0.298
41647W        W 5404  11.329  43.784  10.433
41648W        W 5405  36.891  33.406  13.935
41649W        W 5406  10.196   5.848  14.761
41650W        W 5407  37.569  36.854  11.964
41651W        W 5408  25.713  14.318   2.398
41652W        W 5409  14.693  15.248   2.312
41653W        W 5410  19.251   0.948   0.371
41654W        W 5411  22.251   2.401  10.982
41655W        W 5412   4.821  10.149  13.897
41656W        W 5413   1.280  25.686   2.797
41657W        W 5414   6.847  17.126  14.864
41658W        W 5415  10.718  18.253  10.461
41659W        W 5416  14.219  41.829   3.190
41660W        W 5417  14.652  21.649   2.328
41661W        W 5418   9.644   0.430   1.925
41662W        W 5419   5.435  37.375  13.819
41663W        W 5420  22.095  38.964   4.352
41664W        W 5421  41.328   0.432  13.906
41665W        W 5422  41.517   5.277  12.497
41666W        W 5423  19.053   8.821  11.003
41667W        W 5424  11.720  19.192  13.050
41668W        W 5425   5.433  44.004   4.806
41669W        W 5426  29.980  16.588  14.973
41670W        W 5427  14.605  18.087  13.518
41671W        W 5428   4.750  41.011  10.587
41672W        W 5429   5.916  37.958  13.838
41673W        W 5430  35.579  30.435  14.885
41674W        W 5431  31.097  33.551  14.842
41675W        W 5432  41.465  14.150   2.369
41676W        W 5433   6.687   7.824  11.062
41677W        W 5434  27.119  40.051   3.856
41678W        W 5435  10.658  19.735   4.157
41679W        W 5436  34.058  28.978   1.723
41680W        W 5437   4.920  31.630  14.308
41681W        W 5438  17.256  17.648   0.849
41682W        W 5439  12.723  15.097  11.592
41683W        W 5440   4.365  33.105   0.268
41684W        W 5441  41.864  25.186   1.244
41685W        W 5442  20.253  32.540  13.890
41686W        W 5443  27.624  38.413   0.416
41687W        W 5444  17.270  43.427  11.419
41688W        W 5445  40.475  17.118   4.310
41689W        W 5446  37.401   2.808  11.896
41690W        W 5447  31.977   0.974  14.288
41691W        W 5448  37.941  22.038  10.475
41692W        W 5449  28.525  27.007  11.013
41693W        W 5450   4.885  41.506   1.912
41694W        W 5451  30.562  28.614   9.924
41695W        W 5452  28.122  18.764  14.309
41696W        W 5453  37.932  24.115  13.043
41697W        W 5454  29.628  40.964  10.572
41698W        W 5455  44.794   4.897   2.732
41699W        W 5456  27.647  13.222   9.671
41700W        W 5457  44.274  29.966   0.313
41701W        W 5458  29.075  24.174  14.405
41702W        W 5459   3.274  16.572  13.375
41703W        W 5460  29.068  16.665   2.771
41704W        W 5461  42.908  27.598   4.834
41705W        W 5462   7.831   0.387  14.979
41706W        W 5463  16.157  13.716  14.514
41707W        W 5464  21.092  20.193  10.584
41708W        W 5465  21.203   2.404  13.461
41709W        W 5466   8.243  17.283  13.839
41710W        W 5467  35.411   3.306  11.386
41711W        W 5468  19.542  26.610  12.944
41712W        W 5469  13.177   5.365  13.333
41713W        W 5470  18.231   6.749  12.064
41714W        W 5471  10.345  39.413  12.410
41715W        W 5472  17.673  12.728  11.085
41716W        W 5473  33.058   9.645  12.554
41717W        W 5474  31.968  18.060  13.548
41718W        W 5475  27.644  12.721  11.931
41719W        W 5476  13.140  14.259  11.869
41720W        W 5477   3.840   3.404   1.344
41721W        W 5478  25.054  18.669  11.389
41722W        W 5479   9.151  34.430   0.937
41723W        W 5480   6.869  19.084  10.894
41724W        W 5481   7.267  12.760  10.984
41725W        W 5482  11.334   6.777   2.822
41726W        W 5483  41.989  13.743  13.857
41727W        W 5484   2.254  21.056  10.621
41728W        W 5485  42.883  22.194  12.553
41729W        W 5486   7.345  26.547  11.047
41730W        W 5487  24.041  18.273   1.446
41731W        W 5488  35.460  26.060  13.357
41732W        W 5489  24.628   1.381   4.722
41733W        W 5490   4.432   2.773  11.608
41734W        W 5491  23.690  16.168   3.632
41735W        W 5492  18.714   5.379   4.669
41736W        W 5493  35.383  31.906  13.379
41737W        W 5494  31.576  18.631   3.817
41738W        W 5495  43.765   1.910   3.315
41739W        W 5496  23.621   2.461  10.422
41740W        W 5497  26.036  32.021   1.827
41741W        W 5498  26.695   8.351  14.895
41742W        W 5499   1.760  18.629   4.293
41743W        W 5500  26.026  16.802   4.689
41744W        W 5501   5.238   8.207  10.414
41745W        W 5502  31.960  28.094  12.092
41746W        W 5503  39.522  31.916  10.584
41747W        W 5504  32.525   7.221   3.185
41748W        W 5505  35.505  38.048  12.485
41749W        W 5506  29.964  21.562  14.291
41750W        W 5507  38.336   0.379   5.184
41751W        W 5508  24.700  27.089   2.828
41752W        W 5509  35.946  20.524   0.293
41753W        W 5510  43.889  23.511  10.438
41754W        W 5511  39.966   0.365   0.866
41755W        W 5512  17.799  42.977  14.344
41756W        W 5513   2.350  10.294   3.311
41757W        W 5514  38.358  17.139   1.284
41758W        W 5515  31.418  21.719   4.327
41759W        W 5516  12.217  40.906  11.598
41760W        W 5517   6.423  10.809  14.022
41761W        W 5518  38.928  38.434  10.890
41762W        W 5519  13.105  22.136  14.343
41763W        W 5520   6.858  39.540   0.922
41764W        W 5521  27.470  18.192   4.150
41765W        W 5522  17.590   0.820  14.843
41766W        W 5523   0.796  30.617   0.869
41767W        W 5524  14.214   1.478   4.683
41768W        W 5525  42.012  30.449   0.388
41769W        W 5526  31.545  21.721  12.926
41770W        W 5527  18.180  14.689   4.761
41771W        W 5528  24.004   0.947   0.825
41772W        W 5529  35.517  32.016  14.350
41773W        W 5530  11.679  30.531  10.440
41774W        W 5531   5.313  29.159   2.406
41775W        W 5532   8.402  44.311  10.118
41776W        W 5533  24.221  29.100  13.364
41777W        W 5534  37.402  43.392  13.335
41778W        W 5535  29.468   0.367  14.763
41779W        W 5536  39.929  35.491  12.049
41780W        W 5537   6.231  27.185  11.938
41781W        W 5538  43.886   9.862   4.205
41782W        W 5539  11.656  22.055   2.755
41783W        W 5540  15.219  40.411  11.575
41784W        W 5541  27.485  38.547  12.988
41785W        W 5542   9.266   4.742   4.804
41786W        W 5543  13.653   8.790  14.322
41787W        W 5544   3.879  29.940  13.473
41788W        W 5545  18.182  16.781   3.203
41789W        W 5546   5.436  39.473  11.886
41790W        W 5547  34.892  44.306  12.410
41791W        W 5548  33.605  35.015  11.004
41792W        W 5549  11.627  35.417  14.299
41793W        W 5550  20.042  39.452   3.199
41794W        W 5551  11.793  17.155   2.195
41795W        W 5552  27.642   2.915   4.744
41796W        W 5553   2.344  25.482   4.656
41797W        W 5554  25.646   0.927   4.325
41798W        W 5555  42.479  15.119   0.446
41799W        W 5556  43.351  16.750   2.741
41800W        W 5557  17.622  41.816  14.400
41801W        W 5558  24.054  37.933   3.868
41802W        W 5559  26.017  36.577  14.939
41803W        W 5560  35.961  18.692   3.744
41804W        W 5561  16.761   7.898   3.799
41805W        W 5562  22.141  25.038   4.262
41806W        W 5563  24.023  19.130  13.909
41807W        W 5564  19.606  22.058   3.311
41808W        W 5565  31.482   9.679  13.530
41809W        W 5566  44.392   6.867   3.865
41810W        W 5567   0.430  44.355   2.674
41811W        W 5568  19.096   0.850   2.735
41812W        W 5569   6.269  39.054  11.882
41813W        W 5570  42.499  41.374   3.717
41814W        W 5571  18.242   7.198   0.749
41815W        W 5572  26.624  25.103   2.665
41816W        W 5573  42.819   3.326   3.866
41817W        W 5574  33.928  30.932   2.746
41818W        W 5575   7.232   4.351  13.808
41819W        W 5576  16.264   9.781   3.210
41820W        W 5577  24.636  21.230  13.465
41821W        W 5578  20.715  36.942   1.819
41822W        W 5579  39.510  29.627   1.759
41823W        W 5580  32.570  19.085  14.762
41824W        W 5581  14.718  31.967   4.264
41825W        W 5582  20.744  13.727   0.773
41826W        W 5583   9.671   1.776   0.796
41827W        W 5584  44.897  27.186  14.849
41828W        W 5585  19.260  17.192   3.733
41829W        W 5586  25.133  35.364  13.818
41830W        W 5587  28.656  22.123  10.503
41831W        W 5588  37.077   7.223  14.000
41832W        W 5589  20.579   8.346   3.170
41833W        W 5590  19.762  28.096  13.421
41834W        W 5591  23.076  33.606  14.800
41835W        W 5592  21.177  31.631   4.662
41836W        W 5593   0.755  28.606  11.902
41837W        W 5594   4.897  18.224  13.416
41838W        W 5595  10.654  12.713  13.062
41839W        W 5596   8.404   6.358  14.890
41840W        W 5597  13.663  18.058   3.839
41841W        W 5598  24.490  31.555   4.608
41842W        W 5599  36.967  12.198   0.840
41843W        W 5600  43.775   2.236   3.197
41844W        W 5601  29.122  25.549   1.278
41845W        W 5602  27.142  38.361  13.429
41846W        W 5603   1.819  30.072  11.517
41847W        W 5604  23.115  35.514  11.520
41848W        W 5605  41.394  23.226   0.762
41849W        W 5606  44.813  41.385  10.469
41850W        W 5607  38.427  18.734   0.359
41851W        W 5608  21.711   0.951   4.292
41852W        W 5609  25.111  38.923  13.534
41853W        W 5610  24.573   1.242   1.818
41854W        W 5611  31.089  37.955   3.692
41855W        W 5612   7.186  28.481   3.269
41856W        W 5613  34.073   9.832   1.212
41857W        W 5614  18.120  25.613   3.214
41858W        W 5615   3.437  27.643   0.347
41859W        W 5616   2.883  33.001  10.992
41860W        W 5617   3.442  39.962  12.416
41861W        W 5618  21.523  23.597   3.678
41862W        W 5619  16.187  35.095  11.492
41863W        W 5620  15.179  36.030   1.832
41864W        W 5621  33.025  16.646  12.867
41865W        W 5622  20.190  13.803   4.279
41866W        W 5623  33.428  21.229   2.347
41867W        W 5624  38.553   9.356  11.927
41868W        W 5625   8.705   7.367  11.040
41869W        W 5626  29.510   6.239  10.983
41870W        W 5627  13.655  12.690   2.791
41871W        W 5628  10.755  29.559   1.753
41872W        W 5629  27.053  44.952   3.148
41873W        W 5630  23.179  28.981  14.834
41874W        W 5631   9.281  25.185   3.172
41875W        W 5632  34.460  18.058   2.687
41876W        W 5633   2.471   0.348   4.191
41877W        W 5634  25.612   9.206  13.051
41878W        W 5635  41.844  14.604   1.711
41879W        W 5636  43.437  17.288   1.895
41880W        W 5637  31.043  33.080  10.637
41881W        W 5638  20.527  38.956   1.400
41882W        W 5639  16.737   2.343  10.014
41883W        W 5640  12.788   2.345  11.470
41884W        W 5641  24.014  41.462   3.800
41885W        W 5642  43.906   2.729   1.785
41886W        W 5643  31.436  20.030   3.249
41887W        W 5644  11.358  21.086   0.821
41888W        W 5645  39.998  18.790   4.153
41889W        W 5646  10.185  19.193  13.329
41890W        W 5647  41.292  33.880   2.674
41891W        W 5648  37.417   4.311  13.035
41892W        W 5649  31.010  12.328  10.477
41893W        W 5650  32.967  35.897   3.670
41894W        W 5651  44.317  29.166  14.292
41895W        W 5652   0.819  28.626   0.349
41896W        W 5653   1.363  13.772  12.057
41897W        W 5654   4.874  16.148  12.571
41898W        W 5655  23.534  18.124  14.969
41899W        W 5656  24.550  14.611  10.444
41900W        W 5657  25.592  25.673   0.438
41901W        W 5658   9.360  22.628   0.838
41902W        W 5659  10.685  31.539  13.442
41903W        W 5660  20.551  23.491  12.561
41904W        W 5661  25.123  43.795   0.308
41905W        W 5662  26.985  31.489   1.347
41906W        W 5663  12.343  38.959  12.861
41907W        W 5664  32.457  31.604  13.018
41908W        W 5665  42.805  28.501  12.532
41909W        W 5666  27.667  10.302  14.947
41910W        W 5667  26.504  44.291   2.372
41911W        W 5668  37.457   4.359  10.590
41912W        W 5669  39.322  26.186   2.185
41913W        W 5670  29.425  35.993  11.415
41914W        W 5671  35.021  41.859   0.440
41915W        W 5672  14.147   1.828  11.028
41916W        W 5673  19.076   6.686   1.838
41917W        W 5674  17.773  30.046  13.354
41918W        W 5675  31.467   9.161   3.665
41919W        W 5676  24.535   5.894   0.855
41920W        W 5677  13.843  27.465  13.958
41921W        W 5678  18.559  42.831   2.195
41922W        W 5679  11.634  10.841  12.067
41923W        W 5680  32.891  26.159   4.725
41924W        W 5681  16.703  30.452  14.502
41925W        W 5682  38.454  23.193  14.276
41926W        W 5683  12.331  30.161  13.316
41927W        W 5684  26.694   0.337   0.836
41928W        W 5685  44.823  35.524  12.351
41929W        W 5686  29.934   6.292   1.283
41930W        W 5687   8.762  20.223   2.336
41931W        W 5688  12.634  12.624  12.461
41932W        W 5689  35.601  42.952   1.843
41933W        W 5690  40.014   0.346   9.966
41934W        W 5691  34.607  18.284  13.833
41935W        W 5692  41.955  34.466   3.741
41936W        W 5693   5.229  36.496  12.987
41937W        W 5694  22.134  16.079   2.785
41938W        W 5695  43.495  21.083  14.940
41939W        W 5696  22.070  11.293  12.961
41940W        W 5697  44.372  10.835  14.435
41941W        W 5698   9.168  15.795   0.260
41942W        W 5699  44.760  41.883   3.356
41943W        W 5700   6.848  40.946  11.884
41944W        W 5701   8.286  15.806  13.464
41945W        W 5702  14.137  16.265   4.337
41946W        W 5703  29.972  42.452   3.673
41947W        W 5704  33.882  19.154  11.538
41948W        W 5705   9.231  12.179   0.303
41949W        W 5706  38.063   4.272  11.061
41950W        W 5707   6.221   7.867  10.640
41951W        W 5708  24.671  33.081  13.489
41952W        W 5709  43.847  31.457  10.639
41953W        W 5710  21.257   7.368  11.000
41954W        W 5711  29.462   8.195  11.006
41955W        W 5712  30.079  32.508  12.505
41956W        W 5713  41.820  37.379  13.374
41957W        W 5714  36.570  13.761  12.565
41958W        W 5715  28.040  35.919   3.719
41959W        W 5716  18.120  34.934  14.335
41960W        W 5717  11.304  11.246   0.329
41961W        W 5718  10.349  38.824   1.794
41962W        W 5719  38.922  43.904  10.926
41963W        W 5720   1.258   5.889  13.331
41964W        W 5721  30.599  21.029   5.134
41965W        W 5722   7.855  43.928   2.674
41966W        W 5723  27.118  27.161   3.672
41967W        W 5724  23.072   5.254   2.311
41968W        W 5725  39.386  23.690   2.676
41969W        W 5726  41.379   2.255   2.875
41970W        W 5727  44.262  41.912   1.825
41971W        W 5728  27.084   0.293   1.901
41972W        W 5729  36.964  36.864  14.932
41973W        W 5730   6.793  35.861  14.350
41974W        W 5731   1.973  39.865  14.308
41975W        W 5732   2.444   8.695  12.868
41976W        W 5733  27.053  20.189   4.809
41977W        W 5734   8.393  30.111   1.405
41978W        W 5735  17.217  28.121  14.003
41979W        W 5736  12.834  17.175  11.963
41980W        W 5737   3.264  40.325   2.269
41981W        W 5738   0.248  23.501   2.855
41982W        W 5739  26.959  27.520  14.910
41983W        W 5740   4.711  34.545  11.116
41984W        W 5741  28.441   0.320  14.767
41985W        W 5742  32.913  16.755  13.995
41986W        W 5743  14.198   6.283   1.826
41987W        W 5744  24.203  37.974   3.276
41988W        W 5745  21.169  19.165  11.888
41989W        W 5746  30.160  14.647  14.461
41990W        W 5747  27.026  13.698  10.555
41991W        W 5748  40.940   1.863   3.222
41992W        W 5749  21.562  23.530  11.945
41993W        W 5750  29.457   0.259   3.209
41994W        W 5751  11.227  22.034  11.003
41995W        W 5752  15.578  33.603   5.150
41996W        W 5753  22.166  28.144   4.137
41997W        W 5754  30.592   9.845   2.232
41998W        W 5755  18.217  10.145  14.842
41999W        W 5756  25.116  36.492   3.288
42000W        W 5757   2.409   7.268   5.278
42001W        W 5758  33.956  39.922   1.865
42002W        W 5759  30.130   9.855  14.905
42003W        W 5760   8.378  43.414  14.809
42004W        W 5761  20.528  40.495  11.484
42005W        W 5762  45.000  36.885   0.798
42006W        W 5763  36.078  34.597   4.288
42007W        W 5764   7.752   3.852   4.609
42008W        W 5765  35.866   0.433   3.185
42009W        W 5766  32.962  10.759  14.426
42010W        W 5767  14.308  42.842  11.856
42011W        W 5768  15.637  41.026  13.932
42012W        W 5769  22.672  37.354   1.850
42013W        W 5770  20.585   7.196   1.864
42014W        W 5771  12.767  10.203   1.256
42015W        W 5772  44.834  40.038   0.963
42016W        W 5773  12.755  17.661   0.788
42017W        W 5774   7.784   5.913   4.153
42018W        W 5775  18.587  22.214  12.436
42019W        W 5776  23.575  18.064   0.784
42020W        W 5777   0.332   1.385   1.302
42021W        W 5778   0.456  36.570  13.036
42022W        W 5779  39.861  15.207   2.876
42023W        W 5780  26.701  24.975   3.702
42024W        W 5781  44.375  44.001  14.431
42025W        W 5782  29.028   2.472  11.432
42026W        W 5783  35.989  43.828  12.020
42027W        W 5784  36.453  34.458   3.307
42028W        W 5785  42.302  18.697  10.520
42029W        W 5786  32.634  26.656  12.915
42030W        W 5787   0.924  30.575  13.001
42031W        W 5788   3.237  10.834  12.372
42032W        W 5789  42.497  43.429  14.905
42033W        W 5790  41.395   4.387  12.417
42034W        W 5791  15.728  25.196   0.943
42035W        W 5792  22.141  38.968   4.832
42036W        W 5793  15.643  16.136   4.307
42037W        W 5794   7.678  24.071  14.373
42038W        W 5795  22.514  25.151   2.700
42039W        W 5796   7.794  29.990   0.293
42040W        W 5797  14.684   1.244   9.451
42041W        W 5798  17.116  16.681  11.456
42042W        W 5799  17.625   0.455  11.022
42043W        W 5800  31.401   7.678   4.190
42044W        W 5801  20.548   3.811  14.489
42045W        W 5802  34.017   8.792   4.774
42046W        W 5803   8.818  24.118   4.644
42047W        W 5804  43.422  16.300   3.282
42048W        W 5805  43.013   6.749   0.385
42049W        W 5806  13.189  14.784   3.333
42050W        W 5807  12.330  36.560   4.317
42051W        W 5808  12.198  43.826   3.267
42052W        W 5809   8.746  39.834   9.583
42053W        W 5810  25.686  17.759  13.410
42054W        W 5811  24.191  36.554  11.376
42055W        W 5812  32.101  28.963  10.031
42056W        W 5813  37.534  34.918  13.996
42057W        W 5814  26.615   5.311  11.056
42058W        W 5815  13.732  29.056   0.861
42059W        W 5816   6.403  37.877  14.358
42060W        W 5817   4.443  32.990  11.530
42061W        W 5818  16.199  39.392   2.719
42062W        W 5819  39.488  36.969  14.287
42063W        W 5820  16.795  40.473  12.545
42064W        W 5821  16.622  10.249   0.416
42065W        W 5822  22.146   5.688  14.883
42066W        W 5823  40.385  25.968  13.350
42067W        W 5824  13.156  28.014   4.603
42068W        W 5825  18.705  38.006  13.871
42069W        W 5826   1.390   3.919  12.932
42070W        W 5827  41.874  32.072  14.029
42071W        W 5828  29.499  40.012   0.789
42072W        W 5829  32.900   0.290  10.443
42073W        W 5830  12.207  22.573   0.964
42074W        W 5831  34.099  30.561  10.643
42075W        W 5832   7.244  29.518   5.152
42076W        W 5833  39.872   1.771  11.424
42077W        W 5834  44.984  18.239   1.267
42078W        W 5835  15.736   4.368   1.300
42079W        W 5836   6.828  34.098   2.864
42080W        W 5837   5.339  20.752   1.212
42081W        W 5838  31.551  24.523   0.931
42082W        W 5839  11.289  32.525   2.318
42083W        W 5840  31.503  12.162  13.975
42084W        W 5841  25.682  42.873   0.385
42085W        W 5842  33.994  31.126   5.249
42086W        W 5843  30.489   8.322  14.439
42087W        W 5844  15.208   2.836  14.793
42088W        W 5845   6.320  16.272  14.993
42089W        W 5846  30.162  12.711  14.790
42090W        W 5847  41.335  25.002  10.911
42091W        W 5848   1.335  39.858   2.801
42092W        W 5849  43.005  26.108  12.076
42093W        W 5850  36.395   0.969   2.846
42094W        W 5851  12.190  16.764   1.283
42095W        W 5852  32.445  16.240  13.931
42096W        W 5853  42.421  14.766   4.259
42097W        W 5854  32.571  24.060   0.380
42098W        W 5855   1.765   3.443   4.241
42099W        W 5856  17.697   0.965  11.414
42100W        W 5857  16.804  31.932   1.930
42101W        W 5858  36.355  10.781   0.741
42102W        W 5859  43.441   8.257  12.391
42103W        W 5860  23.117  18.612   4.127
42104W        W 5861  20.765  39.828   0.897
42105W        W 5862  22.079   7.258   1.800
42106W        W 5863   2.234   6.859   1.821
42107W        W 5864  13.266  12.757  11.089
42108W        W 5865   2.735  34.459  13.509
42109W        W 5866  11.367  22.658   3.851
42110W        W 5867  35.039   7.192  10.023
42111W        W 5868  12.220  42.876   4.136
42112W        W 5869   8.891  44.866  11.400
42113W        W 5870   6.224   8.330  14.811
42114W        W 5871   3.306  31.000   1.751
42115W        W 5872  40.338  31.404  10.943
42116W        W 5873  17.761   5.256  11.079
42117W        W 5874  14.197  41.442   1.381
42118W        W 5875  42.802  13.623  14.790
42119W        W 5876  40.382  12.343   3.670
42120W        W 5877  31.024  22.705   0.735
42121W        W 5878  16.229   9.838  11.413
42122W        W 5879  39.047   0.968  10.504
42123W        W 5880  36.593  41.891  13.962
42124W        W 5881  11.302  10.686   4.187
42125W        W 5882  27.613  18.615   4.760
42126W        W 5883  20.124  17.686   2.730
42127W        W 5884  18.249   9.705   0.942
42128W        W 5885  31.423  11.365  10.932
42129W        W 5886   7.898  32.432  11.563
42130W        W 5887  27.082  12.652  12.835
42131W        W 5888   2.275  27.969  10.053
42132W        W 5889  20.577  41.800  13.493
42133W        W 5890  18.553  44.948  14.463
42134W        W 5891   0.286   9.858  11.963
42135W        W 5892   7.343  10.758  11.441
42136W        W 5893  18.112  23.572   0.243
42137W        W 5894  24.978  10.770   2.760
42138W        W 5895  42.524  11.731  13.370
42139W        W 5896  13.131  31.516   0.417
42140W        W 5897  32.946  16.566  10.630
42141W        W 5898  37.021  14.312   4.176
42142W        W 5899  38.495  42.292  10.571
42143W        W 5900  33.878  39.049   1.296
42144W        W 5901  44.497   8.741  14.462
42145W        W 5902   4.218  23.602  13.428
42146W        W 5903  21.073  38.009  12.473
42147W        W 5904   4.412  36.532   0.312
42148W        W 5905   6.364   2.939  11.090
42149W        W 5906  17.709  10.170  10.530
42150W        W 5907  36.071  12.266   4.306
42151W        W 5908   1.322  38.070  14.026
42152W        W 5909   8.850  18.093  11.109
42153W        W 5910  25.131  17.106  11.536
42154W        W 5911  15.750  15.789  10.119
42155W        W 5912  38.536  17.575   0.794
42156W        W 5913  17.753  23.690  10.989
42157W        W 5914  16.760   5.731  12.870
42158W        W 5915  27.970  38.922   4.196
42159W        W 5916   2.385  34.888  11.084
42160W        W 5917  30.492  44.795   4.231
42161W        W 5918  39.330  37.869  10.545
42162W        W 5919  27.112   8.680  12.943
42163W        W 5920  37.925  13.845  13.043
42164W        W 5921  25.008   9.189   4.280
42165W        W 5922  42.808  18.275   2.783
42166W        W 5923  16.569  44.901   3.702
42167W        W 5924  26.161  43.938  14.990
42168W        W 5925  13.273   6.795   4.601
42169W        W 5926  29.003  21.594   4.243
42170W        W 5927  26.166  34.586   2.241
42171W        W 5928  33.942  24.048  13.355
42172W        W 5929  44.821  12.362  12.488
42173W        W 5930   1.862  11.186   0.325
42174W        W 5931  33.567  37.434  14.917
42175W        W 5932  40.436  28.953  10.534
42176W        W 5933   1.733  17.220  14.914
42177W        W 5934  20.170   5.792  10.424
42178W        W 5935  33.400  10.654  11.008
42179W        W 5936  32.539   5.865   0.750
42180W        W 5937  37.992  29.638  14.437
42181W        W 5938   8.371  10.208  10.953
42182W        W 5939   6.749  11.795   4.255
42183W        W 5940  28.511  12.228   2.189
42184W        W 5941  14.183   5.201  14.284
42185W        W 5942   1.892   9.863  13.837
42186W        W 5943  29.459   2.394   2.811
42187W        W 5944   1.420  22.100   1.856
42188W        W 5945  40.005  16.096   3.322
42189W        W 5946  33.558  21.148  14.853
42190W        W 5947  20.722  10.162  12.362
42191W        W 5948  13.138  41.385   2.691
42192W        W 5949   8.287  31.069  12.553
42193W        W 5950  41.972  32.028   5.206
42194W        W 5951  42.394  34.926   1.296
42195W        W 5952  39.902  44.945   1.720
42196W        W 5953  33.593  37.472  11.016
42197W        W 5954  39.839  28.658  13.812
42198W        W 5955   9.843  17.099  11.553
42199W        W 5956  40.985  14.203  13.411
42200W        W 5957  34.380  41.809   3.730
42201W        W 5958  19.573  41.905  11.542
42202W        W 5959   5.348  34.431  13.433
42203W        W 5960  30.093   8.286  13.060
42204W        W 5961  38.929  11.249   4.661
42205W        W 5962  37.077  29.063   0.297
42206W        W 5963  34.900  18.247   3.761
42207W        W 5964  12.653   3.848  12.362
42208W        W 5965   3.365  26.135  13.393
42209W        W 5966  16.612  25.160  12.490
42210W        W 5967  30.645  12.770   2.847
42211W        W 5968   4.263  15.625  14.339
42212W        W 5969  43.277   8.733   3.751
42213W        W 5970   5.770  39.990  14.860
42214W        W 5971  42.848  12.850   0.370
42215W        W 5972  14.247   9.862   4.288
42216W        W 5973   4.207  43.795  11.086
42217W        W 5974  35.541  10.250  13.025
42218W        W 5975   5.800   4.399  12.838
42219W        W 5976  37.435  41.431   3.232
42220W        W 5977   7.783  23.725   1.436
42221W        W 5978   8.285   7.219  14.286
42222W        W 5979   0.934  35.544   0.394
42223W        W 5980  37.462  19.549  13.429
42224W        W 5981  12.320  20.727   2.369
42225W        W 5982  31.567  44.461   3.693
42226W        W 5983  32.025  10.837  12.067
42227W        W 5984   0.427  35.586  14.027
42228W        W 5985  25.496  14.129  10.129
42229W        W 5986  12.804  41.376   2.213
42230W        W 5987  21.561  43.427  14.947
42231W        W 5988  23.110  10.160   2.343
42232W        W 5989  35.423   4.233   3.178
42233W        W 5990  14.314   7.408  14.018
42234W        W 5991  11.791  32.890  10.993
42235W        W 5992  15.672  36.460   3.370
42236W        W 5993   5.212  11.680   1.244
42237W        W 5994  26.592  19.092   4.310
42238W        W 5995  37.496  23.203  14.804
42239W        W 5996  13.760  24.566   1.222
42240W        W 5997   4.397  39.440   4.641
42241W        W 5998   9.695   1.286   4.187
42242W        W 5999  34.458   0.970   1.286
42243W        W 6000  18.124  17.685  14.793
42244W        W 6001   4.374   0.316   0.324
42245W        W 6002  26.660  29.969  12.917
42246W        W 6003   5.856   2.850   2.287
42247W        W 6004  35.410  42.815  13.939
42248W        W 6005  29.005   7.810   2.890
42249W        W 6006  29.113   8.779   4.194
42250W        W 6007   4.435  21.718  13.833
42251W        W 6008  37.374   9.367  13.493
42252W        W 6009  11.701  18.705   3.347
42253W        W 6010   1.313  22.116   3.644
42254W        W 6011  27.614  36.925   0.400
42255W        W 6012   9.395   7.905  12.996
42256W        W 6013  10.331  14.643  11.897
42257W        W 6014   0.486  28.176   2.213
42258W        W 6015  41.933   8.774  13.866
42259W        W 6016  28.109  40.316   1.854
42260W        W 6017  27.145  13.197   3.223
42261W        W 6018  21.166  25.013  13.806
42262W        W 6019   0.408  18.776   1.838
42263W        W 6020  22.522  32.405   0.390
42264W        W 6021  24.191  10.798   0.934
42265W        W 6022  22.526  26.981   3.637
42266W        W 6023  32.904  39.556  13.501
42267W        W 6024  37.556  13.838  11.394
42268W        W 6025  38.991  24.176   1.787
42269W        W 6026   7.764  31.145  11.950
42270W        W 6027  17.181  41.367  12.379
42271W        W 6028   0.908  44.476   4.176
42272W        W 6029  10.246  43.981   2.760
42273W        W 6030  26.485  18.200  11.034
42274W        W 6031  42.496  11.862  10.476
42275W        W 6032  25.579   9.199   4.342
42276W        W 6033  38.483  23.587   1.795
42277W        W 6034  11.746  26.056  13.840
42278W        W 6035  10.347  11.758   4.710
42279W        W 6036   8.362  26.178  13.838
42280W        W 6037   6.347  25.097  10.996
42281W        W 6038  11.286   2.933   3.636
42282W        W 6039   1.908  38.025   4.626
42283W        W 6040  30.630  16.309  10.500
42284W        W 6041  33.519  35.405  10.107
42285W        W 6042  16.781  13.120  13.413
42286W        W 6043  11.853  35.469   2.712
42287W        W 6044  42.453  39.896   0.941
42288W        W 6045  37.024  10.161   1.364
42289W        W 6046  32.432  35.558  13.369
42290W        W 6047  40.484  31.068  14.806
42291W        W 6048   5.759  31.615  13.392
42292W        W 6049  32.521  21.666   1.297
42293W        W 6050   4.848  11.853  12.949
42294W        W 6051  32.908  12.286  11.561
42295W        W 6052  35.579   0.836  14.979
42296W        W 6053  29.661   8.383   1.733
42297W        W 6054  36.052  26.556   4.622
42298W        W 6055  12.701   1.328   9.991
42299W        W 6056   6.222  44.006   0.728
42300W        W 6057  30.093  39.868  14.028
42301W        W 6058  21.745   0.892  12.950
42302W        W 6059  10.205  22.563  14.499
42303W        W 6060  36.053  22.581  10.904
42304W        W 6061  15.112  19.056  11.947
42305W        W 6062  14.306  24.561  12.085
42306W        W 6063  14.630   7.257  10.916
42307W        W 6064  39.922   4.280  14.292
42308W        W 6065  25.163  40.964   3.367
42309W        W 6066   5.794  20.656   3.327
42310W        W 6067  17.561  35.025  11.060
42311W        W 6068  21.064  29.528  13.862
42312W        W 6069  18.180  35.388   4.606
42313W        W 6070   4.865  40.890  12.861
42314W        W 6071  25.503  29.561   1.270
42315W        W 6072   0.921  25.005   5.183
42316W        W 6073  24.174  28.093   3.666
42317W        W 6074   0.966  28.539   1.215
42318W        W 6075  21.599  32.517  10.554
42319W        W 6076  36.583  25.521  10.926
42320W        W 6077  39.845  42.859   1.346
42321W        W 6078  23.984  32.910   2.258
42322W        W 6079  30.587  18.634   4.829
42323W        W 6080  32.028  20.608   1.357
42324W        W 6081  18.650  19.282   3.188
42325W        W 6082  22.017  11.694   4.289
42326W        W 6083  15.812  12.270   3.808
42327W        W 6084  37.880  13.749  13.984
42328W        W 6085   8.814  13.800  14.495
42329W        W 6086  44.277  13.219  12.890
42330W        W 6087  28.032  18.634  11.926
42331W        W 6088  12.854  41.533   3.239
42332W        W 6089  24.515  27.538   1.831
42333W        W 6090  31.600  14.276   2.379
42334W        W 6091  28.935  27.475  13.455
42335W        W 6092  10.713  32.053   0.882
42336W        W 6093  29.030  29.550   1.934
42337W        W 6094  44.371  40.521   0.416
42338W        W 6095  15.143  23.110  13.992
42339W        W 6096   0.927  24.104  12.548
42340W        W 6097  10.196  29.014  13.533
42341W        W 6098  27.155  23.098  14.884
42342W        W 6099  33.403   3.738   3.760
42343W        W 6100  38.042  44.274   2.251
42344W        W 6101   4.914  37.891  12.048
42345W        W 6102   9.313   4.816   3.386
42346W        W 6103  17.791  44.465  13.006
42347W        W 6104  28.441  44.350   3.717
42348W        W 6105  44.976  34.382  14.023
42349W        W 6106  28.457  38.545   2.368
42350W        W 6107  36.571  34.557   2.755
42351W        W 6108  29.666  15.170  12.858
42352W        W 6109  12.217  17.691  13.401
42353W        W 6110   3.439  25.988  11.105
42354W        W 6111  36.382  30.981  12.394
42355W        W 6112  27.619  33.567   4.639
42356W        W 6113  13.716   9.275   2.401
42357W        W 6114  44.842  13.809   2.798
42358W        W 6115  43.433  39.026  11.494
42359W        W 6116  40.543  21.068  11.892
42360W        W 6117  14.153   9.276   4.119
42361W        W 6118  32.007   6.408   9.605
42362W        W 6119  20.046  44.951  13.795
42363W        W 6120   4.429  34.415   3.205
42364W        W 6121   9.855  18.052  13.918
42365W        W 6122  17.078  17.722  12.921
42366W        W 6123  42.505  27.120   1.304
42367W        W 6124  24.115  21.198   4.275
42368W        W 6125  30.066   9.665   1.276
42369W        W 6126  35.866  24.536   2.200
42370W        W 6127   0.866  21.216   5.282
42371W        W 6128  39.507  23.606  13.815
42372W        W 6129  28.080  27.954  11.908
42373W        W 6130  10.878  32.961   4.201
42374W        W 6131  23.711   4.436   0.250
42375W        W 6132  10.819  21.046  13.796
42376W        W 6133  15.169   1.294  12.918
42377W        W 6134  19.091  14.657  11.505
42378W        W 6135  12.177  12.678  11.536
42379W        W 6136  26.055  38.348   4.255
42380W        W 6137  11.743  44.305   0.274
42381W        W 6138  35.407  19.121   4.832
42382W        W 6139   5.923  29.173   3.179
42383W        W 6140   2.891   5.293   1.694
42384W        W 6141  40.343  37.841  10.622
42385W        W 6142   4.739  18.245  12.518
42386W        W 6143  28.091  20.113   1.227
42387W        W 6144  43.789  25.570   2.707
42388W        W 6145  44.445  43.822  11.923
42389W        W 6146   6.820   9.881  13.960
42390W        W 6147  11.777  43.018  10.024
42391W        W 6148  14.147  23.120   2.319
42392W        W 6149   3.778  26.631  13.866
42393W        W 6150  31.583  43.792   1.819
42394W        W 6151  28.458  25.653   3.702
42395W        W 6152   5.200  37.924  14.424
42396W        W 6153  19.210  15.101  13.474
42397W        W 6154  10.240   7.888   2.775
42398W        W 6155  25.509  30.914  13.532
42399W        W 6156   4.705   0.792   2.208
42400W        W 6157   8.366  27.080   1.336
42401W        W 6158  23.558  28.442   3.316
42402W        W 6159   5.720  20.144   1.896
42403W        W 6160   6.903   4.922  13.505
42404W        W 6161  25.020  26.509   0.870
42405W        W 6162  36.003   4.888   0.338
42406W        W 6163  22.511  22.627   2.415
42407W        W 6164  23.227  34.514   3.640
42408W        W 6165  28.091   5.324   0.428
42409W        W 6166  12.151  42.796  13.982
42410W        W 6167  21.544  10.762   1.846
42411W        W 6168  28.094  41.470  11.432
42412W        W 6169  19.592  18.280   4.201
42413W        W 6170  20.636  37.950  12.490
42414W        W 6171  27.193   8.169   2.325
42415W        W 6172  18.719  20.239   0.397
42416W        W 6173  19.625  33.970  14.330
42417W        W 6174   7.353  20.050   0.350
42418W        W 6175   8.725  39.913   3.351
42419W        W 6176  15.725   1.878  11.059
42420W        W 6177  31.955  43.340  10.973
42421W        W 6178  22.595  38.929  14.936
42422W        W 6179  44.328  23.022  11.948
42423W        W 6180  34.390  16.296   4.229
42424W        W 6181  22.509  21.121   0.482
42425W        W 6182  44.293   2.403   1.838
42426W        W 6183  28.508  19.724  11.612
42427W        W 6184  28.446  21.727  10.095
42428W        W 6185  35.039  13.672  11.467
42429W        W 6186   3.925  32.602  12.869
42430W        W 6187  36.871  10.652  13.425
42431W        W 6188  33.049  27.617   3.801
42432W        W 6189  42.839   4.357   3.820
42433W        W 6190  34.104  26.629  14.421
42434W        W 6191  26.683  18.597  12.547
42435W        W 6192   9.811   7.220  10.426
42436W        W 6193  19.552  28.552   1.787
42437W        W 6194  32.127  36.070  14.315
42438W        W 6195  21.575   7.325   0.317
42439W        W 6196  14.216  13.274  11.864
42440W        W 6197  18.580  35.051   3.709
42441W        W 6198  20.137  14.152  10.478
42442W        W 6199  16.302  30.008   1.837
42443W        W 6200  22.135   1.797  12.341
42444W        W 6201  30.094  43.820  12.435
42445W        W 6202  37.384  32.975   4.693
42446W        W 6203  37.881   4.261   1.352
42447W        W 6204  25.510  38.389  11.572
42448W        W 6205  27.623  42.380  12.831
42449W        W 6206   2.742  23.530  13.519
42450W        W 6207  19.609  23.025   3.810
42451W        W 6208  20.619  22.707   2.903
42452W        W 6209  18.713  18.580  12.091
42453W        W 6210  36.438  23.169   3.748
42454W        W 6211  12.828  14.310  14.028
42455W        W 6212  28.089  24.088   0.850
42456W        W 6213  44.867  22.125   4.807
42457W        W 6214  32.991  10.766   4.812
42458W        W 6215   9.278  24.491   2.795
42459W        W 6216   3.274  29.555   2.268
42460W        W 6217  23.532  12.854   1.791
42461W        W 6218  37.955   7.722   0.808
42462W        W 6219  15.706  22.017  10.144
42463W        W 6220  27.967   7.353  13.464
42464W        W 6221  35.542  29.969  12.083
42465W        W 6222  34.972  26.996   9.651
42466W        W 6223   1.926  36.522   3.221
42467W        W 6224  23.998  23.105  11.107
42468W        W 6225  36.540  16.265   4.286
42469W        W 6226   8.841  41.898   1.777
42470W        W 6227  14.684   9.320  11.376
42471W        W 6228  23.570  22.183  13.386
42472W        W 6229   1.320  19.068   0.878
42473W        W 6230  34.470  37.861  13.809
42474W        W 6231  19.109  23.549  11.421
42475W        W 6232  10.820  26.007   4.813
42476W        W 6233  39.929  37.360   0.303
42477W        W 6234  10.823  31.057  11.945
42478W        W 6235  27.036  39.436   2.733
42479W        W 6236  19.133  32.915  12.512
42480W        W 6237  33.887  33.919   4.761
42481W        W 6238   2.857   3.742   0.922
42482W        W 6239   3.755  20.583   4.655
42483W        W 6240  35.452  17.271   3.749
42484W        W 6241  37.949  36.500   4.332
42485W        W 6242  17.577  14.661   2.743
42486W        W 6243   1.809   8.367   1.725
42487W        W 6244   0.750  21.642  10.974
42488W        W 6245  30.657  38.018   2.249
42489W        W 6246  13.716  12.810  11.430
42490W        W 6247  17.790   0.278  13.932
42491W        W 6248  20.760  32.561  11.564
42492W        W 6249   3.311  32.428  10.963
42493W        W 6250  14.181  39.395   0.843
42494W        W 6251  10.665  19.277   1.797
42495W        W 6252  15.094  22.536  12.092
42496W        W 6253  25.590  36.477   3.231
42497W        W 6254  27.681   9.813   2.753
42498W        W 6255  28.950  32.501   3.655
42499W        W 6256  29.044  33.544   0.480
42500W        W 6257  35.509   1.973  12.430
42501W        W 6258   8.696  25.035  11.892
42502W        W 6259  23.662  35.887   3.637
42503W        W 6260   6.195  23.523  10.498
42504W        W 6261  26.043  16.285  10.507
42505W        W 6262  11.808   6.283   2.313
42506W        W 6263  12.816  10.804  11.075
42507W        W 6264  27.098   8.769  14.475
42508W        W 6265  25.208   4.264  10.600
42509W        W 6266   7.883   5.323   4.796
42510W        W 6267  22.592   7.764   1.292
42511W        W 6268   1.406  20.594  13.546
42512W        W 6269  10.680  29.645  13.831
42513W        W 6270   2.811  12.697   3.751
42514W        W 6271   9.375  43.793  12.001
42515W        W 6272  42.898  24.687   1.226
42516W        W 6273  15.119   7.215  11.120
42517W        W 6274  33.940   3.759   4.609
42518W        W 6275  23.113   9.229   4.660
42519W        W 6276  10.695  34.444   4.214
42520W        W 6277  15.167  30.097   3.185
42521W        W 6278  41.501  40.328  13.842
42522W        W 6279  18.060  11.829   5.271
42523W        W 6280  34.473  32.610   1.348
42524W        W 6281  44.292  37.917   4.628
42525W        W 6282  12.362  18.239   1.752
42526W        W 6283   4.752   4.756  13.442
42527W        W 6284  43.377  36.575  13.028
42528W        W 6285  37.966  12.723   4.120
42529W        W 6286  36.094   0.806   5.101
42530W        W 6287  18.274   5.823  14.288
42531W        W 6288  43.904  22.115   2.707
42532W        W 6289  33.418  33.565   0.296
42533W        W 6290  41.909  38.889   2.342
42534W        W 6291  11.752  15.620  10.149
42535W        W 6292  29.016  41.840   2.211
42536W        W 6293   1.352   3.951   3.821
42537W        W 6294  12.641  37.047  13.819
42538W        W 6295   6.399   2.815   1.738
42539W        W 6296   2.757   5.306   4.237
42540W        W 6297  14.218  37.555  13.510
42541W        W 6298  28.058  13.844  10.536
42542W        W 6299  21.192  27.962  14.951
42543W        W 6300  24.073  40.459   4.146
42544W        W 6301  44.980  28.602  14.504
42545W        W 6302  35.974  32.436  14.508
42546W        W 6303   8.856  32.949   1.246
42547W        W 6304  26.163  21.603   2.812
42548W        W 6305  30.084  43.824   2.733
42549W        W 6306   2.787  41.455   2.323
42550W        W 6307  36.989  19.638   1.868
42551W        W 6308   3.834  18.763  10.905
42552W        W 6309   8.791  39.962   2.816
42553W        W 6310  38.363   2.729  10.903
42554W        W 6311   4.308  44.966   4.175
42555W        W 6312  26.128  22.062  11.856
42556W        W 6313  21.736  27.542  13.873
42557W        W 6314  35.876  20.145   3.221
42558W        W 6315   9.353   4.708  14.312
42559W        W 6316  21.593   2.919   4.616
42560W        W 6317  44.270  36.506   1.749
42561W        W 6318  27.967  38.018  10.911
42562W        W 6319   4.845  25.540   4.727
42563W        W 6320  17.064  16.199  12.914
42564W        W 6321  41.532  19.251   2.419
42565W        W 6322  37.872  39.555  12.091
42566W        W 6323  37.404  44.831   1.813
42567W        W 6324  16.127  24.973   1.841
42568W        W 6325  11.220  34.406   4.601
42569W        W 6326  32.395  18.674  12.937
42570W        W 6327   3.842  16.168   0.476
42571W        W 6328   1.356  18.113  13.056
42572W        W 6329  19.073  10.374  10.459
42573W        W 6330  40.433  11.240   3.822
42574W        W 6331  11.683  38.393   4.276
42575W        W 6332  17.222  22.127   2.334
42576W        W 6333   8.703  37.837   2.900
42577W        W 6334  35.365   2.453   3.647
42578W        W 6335  38.906   8.187  14.334
42579W        W 6336  20.125  41.851   0.371
42580W        W 6337  26.702   0.863  13.407
42581W        W 6338  16.584   0.434  10.416
42582W        W 6339  30.920  28.662  13.463
42583W        W 6340  36.369  11.283   1.787
42584W        W 6341  14.102  39.054   1.350
42585W        W 6342  38.450  28.681   2.831
42586W        W 6343  18.739  44.268   3.687
42587W        W 6344  26.588   3.845  11.027
42588W        W 6345   3.885   1.739  14.478
42589W        W 6346  36.508  43.370  13.419
42590W        W 6347  14.785  41.852  11.035
42591W        W 6348   7.394  38.461   0.912
42592W        W 6349  13.310   0.473   0.476
42593W        W 6350  27.681   6.862   4.116
42594W        W 6351  10.175  41.520  11.988
42595W        W 6352  22.017   5.692   0.922
42596W        W 6353  28.126  18.146   1.286
42597W        W 6354  44.361  40.470  11.879
42598W        W 6355  38.843  12.830   3.755
42599W        W 6356  38.504   6.865  12.401
42600W        W 6357  35.983   8.372  13.531
42601W        W 6358  13.180  24.583  13.492
42602W        W 6359  25.108  18.716  12.377
42603W        W 6360  34.386  34.076   0.921
42604W        W 6361   2.817  25.655  11.993
42605W        W 6362  39.045  27.033   9.986
42606W        W 6363   6.321  31.468  12.472
42607W        W 6364  10.161  44.755  12.542
42608W        W 6365  43.988  25.032   3.386
42609W        W 6366  44.480  43.412   4.228
42610W        W 6367  26.076  24.016  13.359
42611W        W 6368  39.040   8.305  11.931
42612W        W 6369  16.772   0.336  11.015
42613W        W 6370  29.493  35.056   3.215
42614W        W 6371  26.172  35.411  14.477
42615W        W 6372  33.121  13.665  12.348
42616W        W 6373  39.940   7.856   2.715
42617W        W 6374  41.987  13.192   3.828
42618W        W 6375  32.926  12.640   4.728
42619W        W 6376   6.718   3.887   0.939
42620W        W 6377  37.926  34.031   4.705
42621W        W 6378  19.105  39.862  13.794
42622W        W 6379  43.480  27.029   0.476
42623W        W 6380  29.455  19.210   2.742
42624W        W 6381   5.791  30.910   3.649
42625W        W 6382   1.902  14.290   0.325
42626W        W 6383  19.535  11.335  13.989
42627W        W 6384   6.864  37.521   4.817
42628W        W 6385  36.858  12.649   3.663
42629W        W 6386  30.027  40.545   3.733
42630W        W 6387  14.740  11.807   4.670
42631W        W 6388  15.785  31.587   1.301
42632W        W 6389  13.655  29.171  14.318
42633W        W 6390  20.162   0.260   4.748
42634W        W 6391  25.671  36.589   3.641
42635W        W 6392  16.708  24.222   4.634
42636W        W 6393  44.774   7.298   0.823
42637W        W 6394  38.546  13.745   0.428
42638W        W 6395   7.671  37.849  14.367
42639W        W 6396  17.249  26.571   0.317
42640W        W 6397  12.285  36.577   3.833
42641W        W 6398   7.891  41.313   0.788
42642W        W 6399   3.817  32.600  10.613
42643W        W 6400  39.440  16.598  14.352
42644W        W 6401  29.933   9.189   3.802
42645W        W 6402  13.828  15.577  13.505
42646W        W 6403  30.635  35.935   0.367
42647W        W 6404  30.475  13.198  11.426
42648W        W 6405  19.075   5.853   2.749
42649W        W 6406  11.298   6.323   0.890
42650W        W 6407  13.714  19.739   1.432
42651W        W 6408  13.329  28.471   3.222
42652W        W 6409  19.585   0.324  13.023
42653W        W 6410  12.639  27.196  13.900
42654W        W 6411  31.528   4.450   2.746
42655W        W 6412   2.905  16.088   2.270
42656W        W 6413  40.372  14.774   2.763
42657W        W 6414  26.196  22.607  14.836
42658W        W 6415  35.371  39.960  12.085
42659W        W 6416  22.742  10.832  13.351
42660W        W 6417  34.923  28.665   2.874
42661W        W 6418  44.303  11.371  14.913
42662W        W 6419   8.335  42.023  14.927
42663W        W 6420  33.125   2.766   3.295
42664W        W 6421   5.285  15.824  13.011
42665W        W 6422  42.857  16.727  10.471
42666W        W 6423  10.147  10.355  14.496
42667W        W 6424   3.418   3.910  11.506
42668W        W 6425  19.730  11.240   3.351
42669W        W 6426   1.796  24.528   1.845
42670W        W 6427  33.388  20.768   0.956
42671W        W 6428  36.917   2.322  12.543
42672W        W 6429   0.948  27.018  11.429
42673W        W 6430  40.485  14.792   0.309
42674W        W 6431  28.440  25.170   4.805
42675W        W 6432  39.884  34.962   0.836
42676W        W 6433   3.712   3.801  13.351
42677W        W 6434  41.466  37.883  13.963
42678W        W 6435  21.627  41.422  14.416
42679W        W 6436   6.184  35.468   0.767
42680W        W 6437  32.016  30.635  13.481
42681W        W 6438  17.620  10.142  13.390
42682W        W 6439   3.864   4.353   1.217
42683W        W 6440  16.297   9.743  13.372
42684W        W 6441   5.762  38.380  13.978
42685W        W 6442  15.319   6.397   1.778
42686W        W 6443  41.030   1.474  10.550
42687W        W 6444   4.748  36.917  10.558
42688W        W 6445  38.543  21.185   1.808
42689W        W 6446  33.022  30.413  11.519
42690W        W 6447  18.063   7.711   3.670
42691W        W 6448  36.347  11.684  11.997
42692W        W 6449   1.771  17.235  14.002
42693W        W 6450  11.371  20.677  14.340
42694W        W 6451  13.309   0.814  13.896
42695W        W 6452  21.235   7.833   3.817
42696W        W 6453  20.747  18.224   4.723
42697W        W 6454  32.017  35.509  10.556
42698W        W 6455  19.258  35.970   4.230
42699W        W 6456  25.017  43.283  12.536
42700W        W 6457   2.270  17.741  14.307
42701W        W 6458  43.460  19.537   2.207
42702W        W 6459   7.252  10.179   4.780
42703W        W 6460   2.414  39.487   4.653
42704W        W 6461  32.606   1.940  13.056
42705W        W 6462   5.825   6.813  11.450
42706W        W 6463  20.117  20.545   1.907
42707W        W 6464   5.781  44.859  14.967
42708W        W 6465  33.608   9.307   3.738
42709W        W 6466  35.436  23.227  10.594
42710W        W 6467   0.370   2.404   0.819
42711W        W 6468  22.165  27.973  13.051
42712W        W 6469   1.791  14.188  14.342
42713W        W 6470  12.712   8.773  13.818
42714W        W 6471  13.136  28.129   1.295
42715W        W 6472   7.208   6.763  11.036
42716W        W 6473  43.297  32.950   0.398
42717W        W 6474  14.181  19.116   0.383
42718W        W 6475   6.201   9.359  11.109
42719W        W 6476   1.971   9.337   3.151
42720W        W 6477   9.692   9.848  11.878
42721W        W 6478  15.265   9.267   0.358
42722W        W 6479  21.717  40.523  14.792
42723W        W 6480  10.297  43.806  13.881
42724W        W 6481  10.643  27.061   4.699
42725W        W 6482  38.993  16.739   1.905
42726W        W 6483  35.399  23.148   4.174
42727W        W 6484  39.501  20.143  13.314
42728W        W 6485  38.504   0.457  10.466
42729W        W 6486  36.028  19.545   3.149
42730W        W 6487  27.558  13.793   1.399
42731W        W 6488  30.150  29.540  13.399
42732W        W 6489   1.817  10.645   1.886
42733W        W 6490  40.386  11.628  12.042
42734W        W 6491  30.542   9.829   4.619
42735W        W 6492   4.793  30.014  11.968
42736W        W 6493  23.599  10.158  12.893
42737W        W 6494  32.481  35.589  11.419
42738W        W 6495  40.002  36.480   0.258
42739W        W 6496   2.775  31.595   0.469
42740W        W 6497   5.763  34.994   1.231
42741W        W 6498   5.312   7.217  14.451
42742W        W 6499  43.292   8.219  10.908
42743W        W 6500  20.099  34.480  13.975
42744W        W 6501  22.740   6.763   4.737
42745W        W 6502  13.307  30.491  11.916
42746W        W 6503  11.752  21.048   1.821
42747W        W 6504  32.889  42.846  10.971
42748W        W 6505  28.448  20.141  10.604
42749W        W 6506  22.172  21.696  14.992
42750W        W 6507  27.187  43.990   1.227
42751W        W 6508  42.862   3.255  11.523
42752W        W 6509  23.613   0.830   1.733
42753W        W 6510  44.495  19.741  13.405
42754W        W 6511  12.233  19.043  10.464
42755W        W 6512  37.035  12.759  12.955
42756W        W 6513  14.720   1.424   0.366
42757W        W 6514  39.342  27.162   0.307
42758W        W 6515  30.630  38.970   3.194
42759W        W 6516  19.764  44.903   2.855
42760W        W 6517  42.390  27.569  11.032
42761W        W 6518   3.342  19.765   0.821
42762W        W 6519  43.859  24.625  13.542
42763W        W 6520  36.918  28.075  12.501
42764W        W 6521  32.910  18.783  14.277
42765W        W 6522  24.633  16.801   2.242
42766W        W 6523  25.487  35.366  10.902
42767W        W 6524  13.299  34.598  11.105
42768W        W 6525  14.257  14.117   4.717
42769W        W 6526  16.176  21.259   2.192
42770W        W 6527  25.153  27.466   2.812
42771W        W 6528  10.859  29.597   1.350
42772W        W 6529  21.183  37.865   2.371
42773W        W 6530  19.660   4.765  12.835
42774W        W 6531  11.625   3.920  10.930
42775W        W 6532  23.186  25.561   3.147
42776W        W 6533  34.519   4.912  12.489
42777W        W 6534  42.480  24.129   1.393
42778W        W 6535  41.828  42.964  10.582
42779W        W 6536   6.247  20.664   1.854
42780W        W 6537  33.909   0.806  14.936
42781W        W 6538   6.844  19.747   0.356
42782W        W 6539  22.251  34.055  11.388
42783W        W 6540  27.671  39.043   4.247
42784W        W 6541  38.835  39.852   0.815
42785W        W 6542  29.605  33.456   0.260
42786W        W 6543  27.005   5.730  11.499
42787W        W 6544   5.357  41.918   3.291
42788W        W 6545  40.305  17.556   0.734
42789W        W 6546  26.083  16.184  11.605
42790W        W 6547  32.482  24.546   4.756
42791W        W 6548  14.331  11.731   4.152
42792W        W 6549   6.800  28.575   2.215
42793W        W 6550  32.032  16.123  12.358
42794W        W 6551  42.916  40.022  13.954
42795W        W 6552  20.695  14.124   4.306
42796W        W 6553  37.481  32.406  14.856
42797W        W 6554  17.749  27.454  11.008
42798W        W 6555  26.598  38.910   0.471
42799W        W 6556  13.818  33.458   2.796
42800W        W 6557  42.809  22.204   2.315
42801W        W 6558   3.736  36.909   2.284
42802W        W 6559  34.114  41.815   2.707
42803W        W 6560  13.734   4.786  14.841
42804W        W 6561   0.304  29.603   0.814
42805W        W 6562  10.296  20.212   4.336
42806W        W 6563  26.557   7.724   4.300
42807W        W 6564  32.100  21.098   2.365
42808W        W 6565   7.240  44.455  13.998
42809W        W 6566  44.806  26.691   2.390
42810W        W 6567   9.752   5.349  10.584
42811W        W 6568  40.323  38.440  14.789
42812W        W 6569  44.323  42.417  11.029
42813W        W 6570  22.596  15.203  14.396
42814W        W 6571  34.065  23.090   3.289
42815W        W 6572  24.511  31.043   3.749
42816W        W 6573  11.800  31.524  11.381
42817W        W 6574  37.387  37.418   0.791
42818W        W 6575   7.836   8.385  12.029
42819W        W 6576   7.302  26.097   1.445
42820W        W 6577  19.585  36.985  13.009
42821W        W 6578  22.622  22.724   4.636
42822W        W 6579  29.444  29.618   4.632
42823W        W 6580   5.278  33.545   0.772
42824W        W 6581  35.923  25.505   3.666
42825W        W 6582  28.521  18.647   2.671
42826W        W 6583  33.043   1.375   1.715
42827W        W 6584  13.714  28.455  12.522
42828W        W 6585  32.071  33.457  12.390
42829W        W 6586  12.690   3.775  11.940
42830W        W 6587   4.234  30.913  14.350
42831W        W 6588  11.686  31.502   0.468
42832W        W 6589  43.501  31.493   0.370
42833W        W 6590  10.841   1.764   0.782
42834W        W 6591  34.400  11.275   1.283
42835W        W 6592  10.298  36.473  10.629
42836W        W 6593  10.323  15.665  13.413
42837W        W 6594  31.072   9.713  10.621
42838W        W 6595   8.217  30.024  10.976
42839W        W 6596  40.481  11.139  11.541
42840W        W 6597  32.890  36.394   4.758
42841W        W 6598  40.002  43.826   3.820
42842W        W 6599   9.249  33.475  14.937
42843W        W 6600   9.304   8.685   2.199
42844W        W 6601  41.793  42.952  10.138
42845W        W 6602  29.050   6.394  14.297
42846W        W 6603  44.967  21.068   0.441
42847W        W 6604  12.192  38.010  10.978
42848W        W 6605  15.818  21.662  14.966
42849W        W 6606  17.261  18.733  13.362
42850W        W 6607  17.279  27.446  11.894
42851W        W 6608   2.770  16.647  14.382
42852W        W 6609  23.988   1.254  10.641
42853W        W 6610   5.745   4.726   2.748
42854W        W 6611  14.230   2.935   2.210
42855W        W 6612   6.250  32.405  11.939
42856W        W 6613  16.299  34.597   3.304
42857W        W 6614  42.931  39.334   1.912
42858W        W 6615  15.619  16.703   9.992
42859W        W 6616  41.372  35.479   1.783
42860W        W 6617  14.772   2.228  14.981
42861W        W 6618  32.396  11.342   2.303
42862W        W 6619  29.067  40.415   1.809
42863W        W 6620  23.548  21.654  13.879
42864W        W 6621  36.427  40.861   1.358
42865W        W 6622  43.280  21.607   4.226
42866W        W 6623  44.971  29.956  12.490
42867W        W 6624   7.191  12.846  11.926
42868W        W 6625   2.766  12.702  12.416
42869W        W 6626   2.963  10.811  14.019
42870W        W 6627  11.291  25.048   4.173
42871W        W 6628  12.857  28.504   2.867
42872W        W 6629  11.694  41.816  11.555
42873W        W 6630  31.569  29.039  11.935
42874W        W 6631  37.345  33.612  14.515
42875W        W 6632  11.155  19.745  11.505
42876W        W 6633  14.324  17.748   2.417
42877W        W 6634  26.580   4.766  14.817
42878W        W 6635  34.417  24.055   4.171
42879W        W 6636  38.877  23.573   4.345
42880W        W 6637   0.871  42.984  14.502
42881W        W 6638  26.189   6.333  14.317
42882W        W 6639  15.246  40.435  14.906
42883W        W 6640  21.692  11.246   2.301
42884W        W 6641  44.494  23.550   1.846
42885W        W 6642  20.039  22.139   0.277
42886W        W 6643  16.681  30.460   4.803
42887W        W 6644  30.012  14.231   5.223
42888W        W 6645  24.012   8.705   2.223
42889W        W 6646  15.160  20.109  12.939
42890W        W 6647  30.552  33.410  10.427
42891W        W 6648  25.697  38.853  10.078
42892W        W 6649   7.317  29.492  11.416
42893W        W 6650  42.930  26.545  12.952
42894W        W 6651  43.980  34.887   2.252
42895W        W 6652  37.543  12.753  12.832
42896W        W 6653  20.127  25.050   5.135
42897W        W 6654  24.643   7.873   3.820
42898W        W 6655  38.069  10.281  11.444
42899W        W 6656  40.499  29.604  13.477
42900W        W 6657  29.083  35.532   2.354
42901W        W 6658   2.849   3.245   1.871
42902W        W 6659  43.445   5.371   1.447
42903W        W 6660   5.899  27.458  13.949
42904W        W 6661  35.367  24.694  12.405
42905W        W 6662  24.509  18.106  12.029
42906W        W 6663   3.225  43.972   0.907
42907W        W 6664  30.448  28.473   1.935
42908W        W 6665  14.770  17.276  12.457
42909W        W 6666  32.937  37.844  10.889
42910W        W 6667  14.272  12.646  12.976
42911W        W 6668  23.135  24.074  11.500
42912W        W 6669  19.721  28.616   1.431
42913W        W 6670  26.957   5.294   0.376
42914W        W 6671  33.578  39.966  12.527
42915W        W 6672  14.615  20.043  11.471
42916W        W 6673  39.346  42.838  10.509
42917W        W 6674  25.591  19.743   5.282
42918W        W 6675  18.224   8.342   3.808
42919W        W 6676   8.227  22.668  12.554
42920W        W 6677  28.652  44.438   3.324
42921W        W 6678   6.373   4.798   1.875
42922W        W 6679   5.852  25.136  12.514
42923W        W 6680  21.055  40.940   0.470
42924W        W 6681  29.052  28.937  13.861
42925W        W 6682  24.218  14.334  14.866
42926W        W 6683  16.730   3.753   1.362
42927W        W 6684  27.601  41.878  14.873
42928W        W 6685  14.796  33.453   1.218
42929W        W 6686  38.508  23.217  10.461
42930W        W 6687  12.620  28.444   4.763
42931W        W 6688  26.505  33.984  14.454
42932W        W 6689   7.817  40.043  13.510
42933W        W 6690  33.529  20.580   1.420
42934W        W 6691  38.465   0.324  10.040
42935W        W 6692   3.862  26.662   2.246
42936W        W 6693  14.239   0.767  11.994
42937W        W 6694  28.613  36.849   1.220
42938W        W 6695   6.187  10.275  13.354
42939W        W 6696  41.517   3.319   3.255
42940W        W 6697  12.636   9.705  10.611
42941W        W 6698  18.289   0.801  12.014
42942W        W 6699  13.777  16.121   2.355
42943W        W 6700  37.366   0.279  14.852
42944W        W 6701  44.400  31.917  14.476
42945W        W 6702  40.901   0.403   0.755
42946W        W 6703  17.568   7.733   3.814
42947W        W 6704   6.207   2.725  12.371
42948W        W 6705  28.143  24.197   0.319
42949W        W 6706  17.615  16.106   0.399
42950W        W 6707  38.017  13.266   1.434
42951W        W 6708   2.319  10.742  12.934
42952W        W 6709  41.794  21.532   1.723
42953W        W 6710  15.641  35.521   2.179
42954W        W 6711  34.392  36.022   3.726
42955W        W 6712  30.590  40.865  14.438
42956W        W 6713  34.977  23.026  10.889
42957W        W 6714  36.984  31.972  14.763
42958W        W 6715  14.245  15.615   2.299
42959W        W 6716  39.402  30.995  10.534
42960W        W 6717  38.005  32.486  12.832
42961W        W 6718  29.644  23.694   4.703
42962W        W 6719  20.198  30.491  11.420
42963W        W 6720   9.655  10.853   4.789
42964W        W 6721  35.011  42.968   5.300
42965W        W 6722  26.058  21.057  12.395
42966W        W 6723  23.142  31.621  11.038
42967W        W 6724  34.054  18.787   3.687
42968W        W 6725   5.347   8.866   4.601
42969W        W 6726  43.972   4.270  12.398
42970W        W 6727  20.709  17.665   2.371
42971W        W 6728  33.021  37.483   1.826
42972W        W 6729  34.980  40.879   3.714
42973W        W 6730  38.056  30.127   2.813
42974W        W 6731  37.491  28.176  13.974
42975W        W 6732  13.604  38.958   4.647
42976W        W 6733  19.279   8.703  14.972
42977W        W 6734  33.025  35.084   2.407
42978W        W 6735  35.101  39.893   3.192
42979W        W 6736  19.593  18.664   3.812
42980W        W 6737  29.044   3.889  12.919
42981W        W 6738  44.798  40.539  11.121
42982W        W 6739  10.231  39.063  11.019
42983W        W 6740  44.911  25.615  13.487
42984W        W 6741   4.930  11.192  12.359
42985W        W 6742   0.440  33.405   0.937
42986W        W 6743   3.269  14.305   3.825
42987W        W 6744  22.633  37.891  12.823
42988W        W 6745  42.834  33.563  11.035
42989W        W 6746  10.791  18.240  12.850
42990W        W 6747  41.984   3.798  14.990
42991W        W 6748   1.350  30.083   1.344
42992W        W 6749  21.194  44.312  11.977
42993W        W 6750  14.677  12.300   2.781
42994W        W 6751  11.344   1.300  14.461
42995W        W 6752  14.278   5.406  13.831
42996W        W 6753  35.993  33.017  11.521
42997W        W 6754  20.733  42.948   4.824
42998W        W 6755   9.203   7.327  11.403
42999W        W 6756  29.548   8.325   0.754
43000W        W 6757  28.591   8.373  11.500
43001W        W 6758   8.390  16.190  12.090
43002W        W 6759   2.273  26.972   4.763
43003W        W 6760  17.562  10.664   4.299
43004W        W 6761  27.483  18.672   2.224
43005W        W 6762  15.805  25.099  14.473
43006W        W 6763  44.791  27.002  10.633
43007W        W 6764  30.607   1.284   4.625
43008W        W 6765  15.762  30.134   3.354
43009W        W 6766  12.651  14.690  10.542
43010W        W 6767  29.492  33.563  12.557
43011W        W 6768  37.441  10.847  11.942
43012W        W 6769  44.967  32.481  12.085
43013W        W 6770  39.875  42.469   1.725
43014W        W 6771  31.539  22.516   3.243
43015W        W 6772  30.563   0.336   4.747
43016W        W 6773  17.273  39.810  13.889
43017W        W 6774  42.902  31.937  12.523
43018W        W 6775  43.946   9.217   1.813
43019W        W 6776  44.370  22.997   3.645
43020W        W 6777  36.534   4.933  10.492
43021W        W 6778  29.482  25.140  12.922
43022W        W 6779  42.915   8.226   1.896
43023W        W 6780  37.947  18.071   1.747
43024W        W 6781   6.883  36.063  13.361
43025W        W 6782  37.432  11.332  10.636
43026W        W 6783  42.466  28.172   1.927
43027W        W 6784  23.033  39.486  14.974
43028W        W 6785   7.377   8.836  11.529
43029W        W 6786   1.328  24.566  11.508
43030W        W 6787  10.295  29.545  14.970
43031W        W 6788   6.912  39.533   3.868
43032W        W 6789  35.006  10.803  12.937
43033W        W 6790  30.945   5.418  11.509
43034W        W 6791   3.955  27.026   1.352
43035W        W 6792   4.910   7.218  12.066
43036W        W 6793  28.947  44.359  12.964
43037W        W 6794  29.519  31.515   3.641
43038W        W 6795  12.818  11.666  14.401
43039W        W 6796  37.034  12.753   3.196
43040W        W 6797  35.541  24.641   1.358
43041W        W 6798  25.180   3.405  11.998
43042W        W 6799  34.559  26.546  10.903
43043W        W 6800  34.922  19.059  13.055
43044W        W 6801   2.919  14.639  13.504
43045W        W 6802  14.791  41.518   5.165
43046W        W 6803   5.417   8.364  11.042
43047W        W 6804  13.181  27.186  11.464
43048W        W 6805  28.595  15.321  13.027
43049W        W 6806  44.872  10.754   3.685
43050W        W 6807  33.523  30.504  11.955
43051W        W 6808  41.910   7.409   4.140
43052W        W 6809  12.297  32.106   2.893
43053W        W 6810  17.143  17.163  12.430
43054W        W 6811  31.916  37.529  12.983
43055W        W 6812  34.040   7.303   0.758
43056W        W 6813  38.020  38.416   2.203
43057W        W 6814  39.384  36.915   0.397
43058W        W 6815  17.589  31.490  11.091
43059W        W 6816  27.172   9.784   4.627
43060W        W 6817   8.743  32.959  12.826
43061W        W 6818   9.269   2.324  13.443
43062W        W 6819  34.556  32.117  14.759
43063W        W 6820  14.668   2.360  12.471
43064W        W 6821   6.707  18.277   1.327
43065W        W 6822  36.384  34.911   0.461
43066W        W 6823  27.097  39.413  13.417
43067W        W 6824  27.974  15.278  14.420
43068W        W 6825  19.085  14.122   2.263
43069W        W 6826   0.870  33.521  10.912
43070W        W 6827   3.847  44.393  12.415
43071W        W 6828  27.644  43.993   2.673
43072W        W 6829   1.944  13.181  12.480
43073W        W 6830  11.722   7.874  14.774
43074W        W 6831  40.347  40.039   2.275
43075W        W 6832  39.318  25.165  13.427
43076W        W 6833  15.272   9.711  12.458
43077W        W 6834   4.837  29.591  11.504
43078W        W 6835   7.192  14.301  12.094
43079W        W 6836  28.552  38.415  10.645
43080W        W 6837  31.095  20.038   4.781
43081W        W 6838  16.121  36.016  12.488
43082W        W 6839  27.461  13.792  10.623
43083W        W 6840   5.934  17.190   3.671
43084W        W 6841   0.449  21.189  11.395
43085W        W 6842  39.367   7.705  12.374
43086W        W 6843   8.285  16.608   3.709
43087W        W 6844  10.310  34.053  11.455
43088W        W 6845  42.469  29.924  13.404
43089W        W 6846   3.359  32.104   3.773
43090W        W 6847   4.931  25.490   3.691
43091W        W 6848  11.719  36.375  12.498
43092W        W 6849  31.926  22.533   3.780
43093W        W 6850  38.974  13.246  12.860
43094W        W 6851  41.407  20.174   2.814
43095W        W 6852  43.947  38.519  12.831
43096W        W 6853  14.628  29.613   1.758
43097W        W 6854  34.569  42.026   1.924
43098W        W 6855  22.191  21.186   2.387
43099W        W 6856  34.497  23.117   3.671
43100W        W 6857  29.652  14.245   0.447
43101W        W 6858  17.706   6.730  11.073
43102W        W 6859   9.378  23.616  12.385
43103W        W 6860   8.662  38.051   3.240
43104W        W 6861  42.792   7.390   3.311
43105W        W 6862  31.618  35.403   2.875
43106W        W 6863  10.369   7.220   0.369
43107W        W 6864   9.252  39.502   2.755
43108W        W 6865   3.343   0.455   2.314
43109W        W 6866  29.117  29.028  13.062
43110W        W 6867   0.479  11.653   1.443
43111W        W 6868  30.627  17.748   3.371
43112W        W 6869  36.511  15.809  13.947
43113W        W 6870  42.865  11.833   4.641
43114W        W 6871  17.786  15.723  14.291
43115W        W 6872  37.455  37.909   2.194
43116W        W 6873  37.909  15.264  14.940
43117W        W 6874  35.928   6.803  13.355
43118W        W 6875  24.008   8.259  12.510
43119W        W 6876   6.250   5.885  10.992
43120W        W 6877   8.169  11.848  10.586
43121W        W 6878  16.220  41.468   5.089
43122W        W 6879  24.000  28.093  14.861
43123W        W 6880  44.487  34.584  10.603
43124W        W 6881  26.523  17.689   5.280
43125W        W 6882  44.974  42.395   3.715
43126W        W 6883  29.033   7.274  13.494
43127W        W 6884  20.647  40.822  14.760
43128W        W 6885  21.229  25.062  11.572
43129W        W 6886  28.064  36.012   4.270
43130W        W 6887  36.091  28.930   4.756
43131W        W 6888  40.542   3.339  13.346
43132W        W 6889  32.473  37.355  13.327
43133W        W 6890  32.948  39.358   2.801
43134W        W 6891   8.344  27.620   3.356
43135W        W 6892  39.831  33.887  12.965
43136W        W 6893  23.557  31.936   0.349
43137W        W 6894  40.389  10.860   1.860
43138W        W 6895  37.425  40.379   0.309
43139W        W 6896   2.934  31.098  13.380
43140W        W 6897   5.907   1.862  12.349
43141W        W 6898  42.347  23.038   4.767
43142W        W 6899   5.805  29.508  12.523
43143W        W 6900  18.090  36.027   3.200
43144W        W 6901  18.230   2.810  13.465
43145W        W 6902  21.020   8.209  10.909
43146W        W 6903  43.943  12.679  10.476
43147W        W 6904  22.067   3.450   1.890
43148W        W 6905   7.819  42.940   3.374
43149W        W 6906  15.601  15.179   2.373
43150W        W 6907  31.502  41.999   2.221
43151W        W 6908  43.431   5.392  14.940
43152W        W 6909  13.217   5.253   2.872
43153W        W 6910  28.936  43.930  13.545
43154W        W 6911  13.605  41.966  14.866
43155W        W 6912  24.584  34.058  11.535
43156W        W 6913  28.086  36.503   2.858
43157W        W 6914  23.699  10.845  12.894
43158W        W 6915   1.867   6.730  12.971
43159W        W 6916  22.576   1.292  13.862
43160W        W 6917  33.052  13.284  13.422
43161W        W 6918   7.283  21.707   3.251
43162W        W 6919  18.625  11.165   0.446
43163W        W 6920  19.665   1.470   0.797
43164W        W 6921  32.590   8.779   3.250
43165W        W 6922  21.588   6.300   4.692
43166W        W 6923  28.942  35.893   0.773
43167W        W 6924  22.124  14.340   2.895
43168W        W 6925   7.912  35.869   2.774
43169W        W 6926   9.354  19.071  13.052
43170W        W 6927   1.316  42.780  14.505
43171W        W 6928  26.021  26.081   3.858
43172W        W 6929  25.610  25.136   2.839
43173W        W 6930  10.301  42.967  13.811
43174W        W 6931  31.512  24.194   3.653
43175W        W 6932   1.475  34.003   4.329
43176W        W 6933  14.660  39.482   1.859
43177W        W 6934  12.677  41.810   1.915
43178W        W 6935  43.859  42.291   2.879
43179W        W 6936  36.012  23.018   1.436
43180W        W 6937  20.164  36.462   4.719
43181W        W 6938  40.319  42.930   1.264
43182W        W 6939   6.350  29.587   2.230
43183W        W 6940   7.206  14.191  10.912
43184W        W 6941  36.443  31.027  12.034
43185W        W 6942   7.298  41.443  12.345
43186W        W 6943  40.414  11.349   4.725
43187W        W 6944  20.586  41.312   3.661
43188W        W 6945  25.167  37.956   3.823
43189W        W 6946  42.458   6.188   4.626
43190W        W 6947   7.713  11.802  14.770
43191W        W 6948   4.733  23.524  10.922
43192W        W 6949  35.523  43.430   1.923
43193W        W 6950  30.534  20.100   1.796
43194W        W 6951  21.232  34.109   3.179
43195W        W 6952   6.833  30.913   0.753
43196W        W 6953  42.992   5.866  12.905
43197W        W 6954  36.984  17.787   0.915
43198W        W 6955  17.089  35.453   1.330
43199W        W 6956  11.662  38.391  11.565
43200W        W 6957  43.442  28.492  10.614
43201W        W 6958  11.289  29.133  14.796
43202W        W 6959  41.498   2.886  13.370
43203W        W 6960  33.403   6.221   2.892
43204W        W 6961  39.936   4.226   1.896
43205W        W 6962  39.478  20.194   1.882
43206W        W 6963  35.938  17.221   1.912
43207W        W 6964  12.173  34.485   1.846
43208W        W 6965  11.663  24.491  11.028
43209W        W 6966   2.796  32.069  13.011
43210W        W 6967  18.644  10.180   5.100
43211W        W 6968  36.854  35.975  14.504
43212W        W 6969  12.207  37.025   3.162
43213W        W 6970  25.539  14.805  14.960
43214W        W 6971  12.223  29.100  10.469
43215W        W 6972  24.479  37.504  10.888
43216W        W 6973  36.538  12.190   1.291
43217W        W 6974  33.077  25.153  12.862
43218W        W 6975  30.050  12.771  11.406
43219W        W 6976  34.884  16.102  12.543
43220W        W 6977  12.831  14.686   1.814
43221W        W 6978  13.814  41.967   2.687
43222W        W 6979  21.608   3.414  12.358
43223W        W 6980  43.326  17.167  14.804
43224W        W 6981   1.475  38.842   3.226
43225W        W 6982  37.372  37.834  12.361
43226W        W 6983  19.546  29.117   1.782
43227W        W 6984  24.007  27.950  10.003
43228W        W 6985  10.215   6.839  12.457
43229W        W 6986  37.831  20.621   0.879
43230W        W 6987   2.726   8.353  10.964
43231W        W 6988  38.529  41.838  14.435
43232W        W 6989  26.654  24.573   0.471
43233W        W 6990  26.086  11.225   3.833
43234W        W 6991  14.819  31.907  11.122
43235W        W 6992  26.170   5.308  11.602
43236W        W 6993  15.232  13.283  10.081
43237W        W 6994  28.680  33.504  12.951
43238W        W 6995  43.286  32.068   4.238
43239W        W 6996  26.468   2.767  10.928
43240W        W 6997  18.600   9.669   2.228
43241W        W 6998  17.768  32.024  12.346
43242W        W 6999  11.700  21.529   0.277
43243W        W 7000  15.163  37.043   4.717
43244W        W 7001  39.524  24.569  14.778
43245W        W 7002  36.426  31.577  10.524
43246W        W 7003  37.547  43.853  11.521
43247W        W 7004  29.652  40.961  12.575
43248W        W 7005  11.314  23.228   3.256
43249W        W 7006  35.444  37.996  13.317
43250W        W 7007   8.353  39.940   5.216
43251W        W 7008  43.798   0.264   3.684
43252W        W 7009  43.941  14.215   3.182
43253W        W 7010  31.489   3.822  13.826
43254W        W 7011  44.949  18.104   0.302
43255W        W 7012  16.712  32.975  12.932
43256W        W 7013  30.966  18.575  13.023
43257W        W 7014  25.480  32.498   2.413
43258W        W 7015  30.478   1.866   5.661
43259W        W 7016  10.780  22.643   0.353
43260W        W 7017  32.934  43.957   2.696
43261W        W 7018   8.398  16.808   4.139
43262W        W 7019  11.208  38.362  13.837
43263W        W 7020   4.801  17.560   1.834
43264W        W 7021   6.235  11.263   2.243
43265W        W 7022  36.867  24.027   1.264
43266W        W 7023  39.320  32.954  11.879
43267W        W 7024  33.622  11.815  12.990
43268W        W 7025  22.691  13.234  13.867
43269W        W 7026  22.182  22.685  12.873
43270W        W 7027  16.811  21.032  12.409
43271W        W 7028  38.891  39.470   0.941
43272W        W 7029  37.870   0.938  13.821
43273W        W 7030   3.865  16.100   2.312
43274W        W 7031  11.312  42.856   1.306
43275W        W 7032  44.471  37.542   4.638
43276W        W 7033  36.877  30.506   3.641
43277W        W 7034   2.890  28.448   0.931
43278W        W 7035  17.618   0.771  11.952
43279W        W 7036  39.977  22.127  12.499
43280W        W 7037  18.642  28.497   2.759
43281W        W 7038   8.281   3.730  12.831
43282W        W 7039  24.070   2.805   2.259
43283W        W 7040  19.654  41.472   0.405
43284W        W 7041  24.658  26.126  14.823
43285W        W 7042  28.604  16.679   0.440
43286W        W 7043  19.236  42.342  14.924
43287W        W 7044  15.306  24.647  10.631
43288W        W 7045  17.161  32.890   0.855
43289W        W 7046  36.982  14.819   2.384
43290W        W 7047  31.418  25.197   2.835
43291W        W 7048  20.706  33.979  11.455
43292W        W 7049  17.703  27.599  14.418
43293W        W 7050  27.176  29.959   4.231
43294W        W 7051  23.208  40.814  10.594
43295W        W 7052  22.501  32.515  13.799
43296W        W 7053  13.342   0.776  10.584
43297W        W 7054  39.999  23.702  13.534
43298W        W 7055  12.622  24.506  13.329
43299W        W 7056  35.468  32.928   2.790
43300W        W 7057  16.695   0.262  13.009
43301W        W 7058   7.319  30.939  13.361
43302W        W 7059  29.536  27.661  11.066
43303W        W 7060  15.668  12.235   4.308
43304W        W 7061  36.533  38.932  11.856
43305W        W 7062   0.824  34.070  14.439
43306W        W 7063  36.506  44.913   2.771
43307W        W 7064   4.815  41.943   2.234
43308W        W 7065  36.387   4.916  13.453
43309W        W 7066  25.103  19.763   2.662
43310W        W 7067  22.584  37.400   4.351
43311W        W 7068  35.021  41.496  13.037
43312W        W 7069  10.769   4.244   4.222
43313W        W 7070  16.750  16.629   2.792
43314W        W 7071  12.781  26.195  13.507
43315W        W 7072  38.470   5.837  12.515
43316W        W 7073  37.027  29.103   4.818
43317W        W 7074   6.788   2.720  14.364
43318W        W 7075  30.516   1.759   4.130
43319W        W 7076  18.773  32.477   4.168
43320W        W 7077  26.477  24.669   4.308
43321W        W 7078  29.171  29.555  12.495
43322W        W 7079  38.922  36.502  13.350
43323W        W 7080  36.940  37.581  13.844
43324W        W 7081  33.901  37.415  14.345
43325W        W 7082   7.742  11.190  12.874
43326W        W 7083  30.512  27.483   1.329
43327W        W 7084  26.040  19.536  10.418
43328W        W 7085  38.501  35.884   1.441
43329W        W 7086  25.150  42.354   2.250
43330W        W 7087  40.497  34.528   3.352
43331W        W 7088  36.932  12.751  13.402
43332W        W 7089  12.629  21.576  11.450
43333W        W 7090  16.637  25.699  14.772
43334W        W 7091  21.239   8.187  12.517
43335W        W 7092  35.876  27.197   4.652
43336W        W 7093   9.284   1.941   2.235
43337W        W 7094  31.502   1.452   5.256
43338W        W 7095  28.662   7.288   4.695
43339W        W 7096   1.361   4.734  13.884
43340W        W 7097   0.894  29.986  11.925
43341W        W 7098   8.349  14.267  14.970
43342W        W 7099  22.686  37.446  10.608
43343W        W 7100  32.085  26.474   4.599
43344W        W 7101  34.425   0.809  11.407
43345W        W 7102  22.102  35.424  13.847
43346W        W 7103  20.064  44.000  11.503
43347W        W 7104   5.321  42.369   2.300
43348W        W 7105  42.010  35.926   1.727
43349W        W 7106  43.835  28.041   0.402
43350W        W 7107  39.371  41.888  12.890
43351W        W 7108  34.107  26.642  13.985
43352W        W 7109  26.999  41.975   2.392
43353W        W 7110   1.345   3.443   3.323
43354W        W 7111  28.554   4.207   0.442
43355W        W 7112  41.929  30.653  11.538
43356W        W 7113  24.075  36.575  14.490
43357W        W 7114   5.421  29.919  12.514
43358W        W 7115  35.027   8.371  11.105
43359W        W 7116  14.170  26.647   4.163
43360W        W 7117  42.020   5.804   3.843
43361W        W 7118  16.603   4.835  12.403
43362W        W 7119  22.646  41.876   1.238
43363W        W 7120   9.163  15.265   2.901
43364W        W 7121   2.945  33.074  12.868
43365W        W 7122  10.860   2.245   0.247
43366W        W 7123  39.880  16.168   0.787
43367W        W 7124   5.725  21.701  14.950
43368W        W 7125  11.342  10.199  13.814
43369W        W 7126  32.475  19.164  12.412
43370W        W 7127   1.839   9.341  10.427
43371W        W 7128   0.345  24.703  14.906
43372W        W 7129   1.916  43.494   4.276
43373W        W 7130   2.226  12.743  14.927
43374W        W 7131  16.661  30.076  13.970
43375W        W 7132  43.416   9.776   4.693
43376W        W 7133  34.108   2.759  14.380
43377W        W 7134   5.720  10.845  12.078
43378W        W 7135  22.675   4.794   4.808
43379W        W 7136   5.924   3.262  10.468
43380W        W 7137   3.894  30.625   1.444
43381W        W 7138  25.498  44.259   2.735
43382W        W 7139  36.571  39.403  14.473
43383W        W 7140  35.486  19.630  10.424
43384W        W 7141  34.432  17.708  13.027
43385W        W 7142  42.929   4.381   1.440
43386W        W 7143  38.982  37.892   3.358
43387W        W 7144  22.035  27.021   1.422
43388W        W 7145  19.046  27.587  14.766
43389W        W 7146  18.223  40.814  12.344
43390W        W 7147  21.659  39.514  11.118
43391W        W 7148  10.191  22.052  10.500
43392W        W 7149  38.531   1.356   5.584
43393W        W 7150   1.409   4.312  13.851
43394W        W 7151  19.175  18.585  14.411
43395W        W 7152  39.003  43.977   3.172
43396W        W 7153  21.095  43.895   1.859
43397W        W 7154   4.898  11.252   2.868
43398W        W 7155  31.029  13.768   3.761
43399W        W 7156  32.398  19.573  13.975
43400W        W 7157  44.411  20.089  12.493
43401W        W 7158  13.814  41.408  11.861
43402W        W 7159  11.279  17.288  13.931
43403W        W 7160  17.769  27.595  13.471
43404W        W 7161   0.836  44.841   1.879
43405W        W 7162  44.927  34.374  11.868
43406W        W 7163  35.538  37.504  14.967
43407W        W 7164  24.506   2.461  11.595
43408W        W 7165  19.177  36.857   5.310
43409W        W 7166  37.054   3.918   5.229
43410W        W 7167  43.865   9.889  13.910
43411W        W 7168  39.881  30.953   1.391
43412W        W 7169  17.686   7.259  13.324
43413W        W 7170  41.940   5.913   4.213
43414W        W 7171  43.970  15.280   2.392
43415W        W 7172  12.345  23.663  14.924
43416W        W 7173  34.504   9.347   2.900
43417W        W 7174  20.183  44.437   3.712
43418W        W 7175  42.499  29.509   4.730
43419W        W 7176  24.231  22.997   0.460
43420W        W 7177  31.437  15.673   0.733
43421W        W 7178   7.802   3.402  12.068
43422W        W 7179  35.362  19.706  12.549
43423W        W 7180   5.371  13.345  10.520
43424W        W 7181  39.890  27.165   3.281
43425W        W 7182  40.407  17.643  14.319
43426W        W 7183  34.117  20.113  12.389
43427W        W 7184  20.123   0.825   0.310
43428W        W 7185   7.371  34.477  12.556
43429W        W 7186  43.344   0.808   3.273
43430W        W 7187  30.944  23.525   1.816
43431W        W 7188  33.399  32.121   1.836
43432W        W 7189  42.786  40.450  13.533
43433W        W 7190  32.139  19.241  12.490
43434W        W 7191   6.754  17.273  12.538
43435W        W 7192  31.962  41.972  12.910
43436W        W 7193  10.154  10.844  12.438
43437W        W 7194  12.677  42.012  14.421
43438W        W 7195  20.215   8.782  11.471
43439W        W 7196  23.587  29.956   3.289
43440W        W 7197  39.832  38.377   1.790
43441W        W 7198   6.422  16.076   0.943
43442W        W 7199  10.655   0.893  14.434
43443W        W 7200  26.555  10.772  13.456
43444W        W 7201   3.823  20.607  11.056
43445W        W 7202  33.962  17.299   3.321
43446W        W 7203   9.664   7.705   0.939
43447W        W 7204  18.244  35.561   3.807
43448W        W 7205  44.874  30.046   4.776
43449W        W 7206  27.166  31.006  10.930
43450W        W 7207  10.160   2.952  11.981
43451W        W 7208  28.510  44.868  11.884
43452W        W 7209  24.665  15.096   3.180
43453W        W 7210   9.329  10.255   1.444
43454W        W 7211  24.002   9.744  11.979
43455W        W 7212   1.443  14.792   0.293
43456W        W 7213  10.674  39.894   1.782
43457W        W 7214  14.169  40.500   3.290
43458W        W 7215  26.965  14.779  13.472
43459W        W 7216  39.497  28.638   2.244
43460W        W 7217   4.852  29.152  10.596
43461W        W 7218  22.708  32.581  11.420
43462W        W 7219  15.213  33.989  14.387
43463W        W 7220  31.992  15.276   2.292
43464W        W 7221  38.822   9.301   1.210
43465W        W 7222  41.455   5.400   3.329
43466W        W 7223   4.759  17.656   4.649
43467W        W 7224   7.794  38.381  12.982
43468W        W 7225  24.708  21.099   0.855
43469W        W 7226  40.805  16.274   3.321
43470W        W 7227  12.318  40.925  10.526
43471W        W 7228  44.503  19.637  12.997
43472W        W 7229   2.783  38.493  12.826
43473W        W 7230   4.357   8.682  14.934
43474W        W 7231  43.362  28.014  14.794
43475W        W 7232  35.564  18.212  14.301
43476W        W 7233  42.846  29.958  12.340
43477W        W 7234   9.811  40.350   1.427
43478W        W 7235  17.267   6.740  14.014
43479W        W 7236   3.902  24.064   4.806
43480W        W 7237  28.085  44.989   2.300
43481W        W 7238   5.398  32.914  10.477
43482W        W 7239  30.009  20.648  11.896
43483W        W 7240  19.598  26.498  12.541
43484W        W 7241  32.100   4.323   2.674
43485W        W 7242  18.071  26.685  13.370
43486W        W 7243  28.503   8.378  12.056
43487W        W 7244  27.974  14.721   4.229
43488W        W 7245  22.624   5.243  14.302
43489W        W 7246   7.185  19.147  14.290
43490W        W 7247  27.015  11.142  12.526
43491W        W 7248  33.091  26.527   3.722
43492W        W 7249   2.785   5.431  12.086
43493W        W 7250  33.115  25.214  11.882
43494W        W 7251  30.504  25.691   1.377
43495W        W 7252  11.352  12.126  10.949
43496W        W 7253  41.324  21.525   1.236
43497W        W 7254  27.983  38.548   0.327
43498W        W 7255   6.916   9.335  14.298
43499W        W 7256   0.472  11.757  14.861
43500W        W 7257   7.406  22.160   2.217
43501W        W 7258  23.072  32.614   5.620
43502W        W 7259  14.722   8.310  10.942
43503W        W 7260  35.023  21.577  13.356
43504W        W 7261   3.914  11.158   4.814
43505W        W 7262  29.923  36.389   4.139
43506W        W 7263  28.665  44.334  13.849
43507W        W 7264  16.304   5.746   1.735
43508W        W 7265  10.780  43.303  14.343
43509W        W 7266  10.190  33.415  14.433
43510W        W 7267  43.436  22.150   0.285
43511W        W 7268  39.841  28.501   1.699
43512W        W 7269  30.149  29.040  11.559
43513W        W 7270  20.233  28.989  12.938
43514W        W 7271  23.217  19.093   2.691
43515W        W 7272   7.413  39.512  12.361
43516W        W 7273  15.232  20.160   0.452
43517W        W 7274   1.375  41.315  10.606
43518W        W 7275   7.407  36.944  11.573
43519W        W 7276  10.640  21.111   4.136
43520W        W 7277  16.243   3.888   2.193
43521W        W 7278   1.760  26.088  14.462
43522W        W 7279  13.263  25.598  11.574
43523W        W 7280  35.410   7.265  11.562
43524W        W 7281   3.263   4.791   5.293
43525W        W 7282  24.676  27.942   0.480
43526W        W 7283   5.297   4.703   1.695
43527W        W 7284   5.720  10.837  10.889
43528W        W 7285  40.417  39.015  13.018
43529W        W 7286  24.595  42.307  14.881
43530W        W 7287  26.055  17.795  11.901
43531W        W 7288  21.568  28.527   2.686
43532W        W 7289  35.854  21.072   1.294
43533W        W 7290  23.605   2.370   1.820
43534W        W 7291   7.392  33.959  12.361
43535W        W 7292  42.368  23.502   2.200
43536W        W 7293  17.604  29.089   0.891
43537W        W 7294  28.113   3.772  10.492
43538W        W 7295  40.532  43.299   0.758
43539W        W 7296  14.267   8.862   1.224
43540W        W 7297  21.026  38.369  12.429
43541W        W 7298  29.541  26.467  14.030
43542W        W 7299   4.938   8.885   1.694
43543W        W 7300  40.328  11.802   4.830
43544W        W 7301  23.630   9.748  12.825
43545W        W 7302  18.277  44.961  13.803
43546W        W 7303  24.188  11.278  14.766
43547W        W 7304   3.750  31.002  12.882
43548W        W 7305  18.744  28.542  12.056
43549W        W 7306  23.523   3.744   0.849
43550W        W 7307   6.362  43.478  12.363
43551W        W 7308  26.544  25.561   3.304
43552W        W 7309  43.325  19.777   1.317
43553W        W 7310  19.241  42.513  13.385
43554W        W 7311   2.456  44.763   0.881
43555W        W 7312  10.283  38.953   1.307
43556W        W 7313  23.616   7.343  13.500
43557W        W 7314  14.207  40.363  10.502
43558W        W 7315  10.176  29.038   4.340
43559W        W 7316  43.797  14.204  14.965
43560W        W 7317  39.450  41.945   4.726
43561W        W 7318  42.332  23.649   0.789
43562W        W 7319  33.932   9.383   2.737
43563W        W 7320  29.074   6.183   2.378
43564W        W 7321  25.157  33.110   4.166
43565W        W 7322  19.696  43.999  12.473
43566W        W 7323  25.992   3.941   3.732
43567W        W 7324  19.059  42.465   2.406
43568W        W 7325   6.861  18.140  10.958
43569W        W 7326  21.194  27.498   2.395
43570W        W 7327  27.103  44.288   2.738
43571W        W 7328  41.503   1.791   4.256
43572W        W 7329  28.634   1.804   4.209
43573W        W 7330  20.121   2.778   3.223
43574W        W 7331   3.956  23.705  10.511
43575W        W 7332   7.698  27.998  13.353
43576W        W 7333  21.564  20.182   4.735
43577W        W 7334   0.271  27.963   1.886
43578W        W 7335   2.341  13.727   2.819
43579W        W 7336  22.224  15.138   1.324
43580W        W 7337  32.473  25.666   3.288
43581W        W 7338  22.237   3.458  14.472
43582W        W 7339   5.931  38.007  12.034
43583W        W 7340  14.687  29.497  12.031
43584W        W 7341  12.640  37.081  10.579
43585W        W 7342  21.180  10.358   4.775
43586W        W 7343  28.569  25.711  10.008
43587W        W 7344  37.351  13.257   2.890
43588W        W 7345  42.901  13.769   1.831
43589W        W 7346  20.175  34.440  12.562
43590W        W 7347  36.868  14.142  12.950
43591W        W 7348  14.142  23.198   1.722
43592W        W 7349  29.108  32.057  14.002
43593W        W 7350  26.575  36.895   1.789
43594W        W 7351   9.249  18.257  14.407
43595W        W 7352  32.901  20.557  12.533
43596W        W 7353  31.613  29.974  11.083
43597W        W 7354   9.196  22.044  14.841
43598W        W 7355   4.933  27.502  11.920
43599W        W 7356  13.139  18.585  14.511
43600W        W 7357   5.296  37.555   1.842
43601W        W 7358  20.585  31.421   5.145
43602W        W 7359  15.311  36.035   2.256
43603W        W 7360  36.579  13.646  14.942
43604W        W 7361  34.594  22.094  13.438
43605W        W 7362   6.885  12.329  12.828
43606W        W 7363  16.662   1.780   1.896
43607W        W 7364  36.071  28.437   0.452
43608W        W 7365  15.637  38.470   1.782
43609W        W 7366  26.553  24.671   1.907
43610W        W 7367  16.267  43.861  14.768
43611W        W 7368   5.204   4.336   3.655
43612W        W 7369  14.296  26.020   4.175
43613W        W 7370  38.937  29.035   1.773
43614W        W 7371  34.968  22.657   1.427
43615W        W 7372  32.461  43.788  12.368
43616W        W 7373  11.739  29.151  12.905
43617W        W 7374  32.035  30.549  11.457
43618W        W 7375  30.549   6.356  13.354
43619W        W 7376  26.178  22.101  11.439
43620W        W 7377   5.302  26.105   1.750
43621W        W 7378  44.442   0.321   1.933
43622W        W 7379  31.491  32.892   0.267
43623W        W 7380  33.384   7.800   0.441
43624W        W 7381  24.545  28.027   3.227
43625W        W 7382   5.424  12.855   0.764
43626W        W 7383  13.828  18.273   2.337
43627W        W 7384  17.666  20.727   2.895
43628W        W 7385  37.061  36.524  14.881
43629W        W 7386  10.231  13.683   2.301
43630W        W 7387   9.191  31.644  12.559
43631W        W 7388   9.313   3.901   3.771
43632W        W 7389  17.250  30.052  11.104
43633W        W 7390  15.615   6.315   3.703
43634W        W 7391   4.775  30.961  10.466
43635W        W 7392  25.533  30.457   5.199
43636W        W 7393  31.619  26.130   2.719
43637W        W 7394  17.617  33.944  12.449
43638W        W 7395  26.470  21.182   0.283
43639W        W 7396  22.540  23.152  13.431
43640W        W 7397  21.630  24.011  11.478
43641W        W 7398  17.181  25.127   5.115
43642W        W 7399   4.749  29.068   2.671
43643W        W 7400  11.342  24.028   4.732
43644W        W 7401  25.176  27.955   0.785
43645W        W 7402  43.993  27.449   3.821
43646W        W 7403  43.015   9.845   1.872
43647W        W 7404   7.820  18.196  10.918
43648W        W 7405  39.056   5.245   2.186
43649W        W 7406  38.423  18.113  11.042
43650W        W 7407  32.051   8.773  10.488
43651W        W 7408  16.224  16.148  12.947
43652W        W 7409   1.262  27.488   3.186
43653W        W 7410  24.606  29.645   1.449
43654W        W 7411  23.690  38.387  12.024
43655W        W 7412  25.084  18.658  13.962
43656W        W 7413  38.350  32.126   2.319
43657W        W 7414  30.617  38.410  14.313
43658W        W 7415  16.793   1.856   1.325
43659W        W 7416  11.266   2.362   3.342
43660W        W 7417  31.086   0.766   4.734
43661W        W 7418   3.287  12.792   3.846
43662W        W 7419  19.610  38.061   1.378
43663W        W 7420  29.641  15.775   1.779
43664W        W 7421  42.304  34.423   1.843
43665W        W 7422  13.267  37.359   3.245
43666W        W 7423  13.662  32.122  10.579
43667W        W 7424  20.038  14.616   0.340
43668W        W 7425  39.399  11.759  10.985
43669W        W 7426   2.751  37.384  10.001
43670W        W 7427  30.475   8.400  12.866
43671W        W 7428  41.848  19.701  12.458
43672W        W 7429   6.814  38.447  13.322
43673W        W 7430   3.381  18.641   3.709
43674W        W 7431  13.261   2.435   3.659
43675W        W 7432  17.170   6.810   4.709
43676W        W 7433  11.283  15.165   1.440
43677W        W 7434  38.048  10.321   4.771
43678W        W 7435   6.289  35.028   3.774
43679W        W 7436  21.752  36.023   2.674
43680W        W 7437  30.018  37.559  13.011
43681W        W 7438  31.120  43.300   3.232
43682W        W 7439  42.503  21.100   3.761
43683W        W 7440  11.665   3.281   3.357
43684W        W 7441  43.931   6.800   1.924
43685W        W 7442  41.444   2.927   0.728
43686W        W 7443  12.701  39.040  11.415
43687W        W 7444   2.357  28.158  10.509
43688W        W 7445   5.730   2.925   1.355
43689W        W 7446  11.240   3.734   0.769
43690W        W 7447  31.962  17.700   0.761
43691W        W 7448  40.884   2.382  13.912
43692W        W 7449  14.287  14.804   3.195
43693W        W 7450  26.167   0.468  10.515
43694W        W 7451  32.011  34.476   3.705
43695W        W 7452  26.149   0.493  12.960
43696W        W 7453  20.107   1.477  14.788
43697W        W 7454  36.082  24.091  14.314
43698W        W 7455   2.269  13.705  13.949
43699W        W 7456  26.090  11.235  12.015
43700W        W 7457   3.445  40.387  13.496
43701W        W 7458  20.243  23.088   2.371
43702W        W 7459  23.677  22.125   4.220
43703W        W 7460  31.904  34.105  12.985
43704W        W 7461  27.083  25.070   2.691
43705W        W 7462  35.580  26.520   1.699
43706W        W 7463  24.197  25.030   4.642
43707W        W 7464  41.043  21.210   4.600
43708W        W 7465  36.502  11.852  12.504
43709W        W 7466   1.814  37.551   0.954
43710W        W 7467  22.241  39.513  14.398
43711W        W 7468   4.352  20.180   1.707
43712W        W 7469  43.782  36.443  12.424
43713W        W 7470   6.197   3.869   2.350
43714W        W 7471  26.598   9.831  14.933
43715W        W 7472  14.182  31.034   3.309
43716W        W 7473  23.071  37.076   4.273
43717W        W 7474  30.554  23.497   2.305
43718W        W 7475  18.119  11.650   1.739
43719W        W 7476  43.008  17.253  13.460
43720W        W 7477  34.947  39.041  10.072
43721W        W 7478  17.561   8.770  13.505
43722W        W 7479  22.648  15.665  11.118
43723W        W 7480   6.281  38.538   2.783
43724W        W 7481   3.317  21.196   1.750
43725W        W 7482  40.401  19.274  10.530
43726W        W 7483  20.187  25.122   0.745
43727W        W 7484  40.542  16.306   1.722
43728W        W 7485  31.123  18.269   4.301
43729W        W 7486  29.450  21.246   2.390
43730W        W 7487   3.378  44.974   4.200
43731W        W 7488  23.137   2.835   4.225
43732W        W 7489  39.990  16.573  10.944
43733W        W 7490  13.843   4.226   0.409
43734W        W 7491   8.247  38.005   4.247
43735W        W 7492   7.894  42.457  11.053
43736W        W 7493  22.683   3.927  11.577
43737W        W 7494  41.363  23.169   4.202
43738W        W 7495   5.369  36.071  13.314
43739W        W 7496  37.421   7.898   2.809
43740W        W 7497   2.406  31.596  12.508
43741W        W 7498  24.723  41.297  11.871
43742W        W 7499  19.095  36.555  10.091
43743W        W 7500  28.967  37.853  11.976
43744W        W 7501  36.581   2.424   1.335
43745W        W 7502   9.743  27.132   2.752
43746W        W 7503  42.496  39.954  11.549
43747W        W 7504  22.655  44.917  14.430
43748W        W 7505  41.842   8.691   3.180
43749W        W 7506   5.313  32.476   1.863
43750W        W 7507  26.567  23.672   4.627
43751W        W 7508  21.210  33.521   3.709
43752W        W 7509  40.834  34.418   2.680
43753W        W 7510  33.047  43.768  12.954
43754W        W 7511  39.827  43.385  10.888
43755W        W 7512   7.740  38.942   0.324
43756W        W 7513  21.257  19.635   4.601
43757W        W 7514  12.263  29.577   3.638
43758W        W 7515  18.245  31.141   0.838
43759W        W 7516  12.287  39.832   0.446
43760W        W 7517   9.882  12.716  10.570
43761W        W 7518  34.414  21.519  10.965
43762W        W 7519   8.342  21.573  10.482
43763W        W 7520  33.958  22.099   3.298
43764W        W 7521  28.553   3.955  14.478
43765W        W 7522   9.321  25.490   0.818
43766W        W 7523  10.776  30.564   4.177
43767W        W 7524  11.815   5.218   3.836
43768W        W 7525  12.176   9.288  11.104
43769W        W 7526  39.401  33.484   3.266
43770W        W 7527  31.016  35.910  10.093
43771W        W 7528  12.766   9.682   2.353
43772W        W 7529  41.899  30.928   1.854
43773W        W 7530   5.746  19.063  11.967
43774W        W 7531   8.861  29.646   2.899
43775W        W 7532  44.909  23.225  14.414
43776W        W 7533  27.454   6.721   2.415
43777W        W 7534  18.223  37.392  12.000
43778W        W 7535  44.459  16.647  12.434
43779W        W 7536  26.475  27.100   1.928
43780W        W 7537   3.243   9.648  13.845
43781W        W 7538  16.776  43.342   1.917
43782W        W 7539  17.755  16.234  10.468
43783W        W 7540  14.588   1.850  13.050
43784W        W 7541  24.691   6.810   4.352
43785W        W 7542  35.882  30.457   0.348
43786W        W 7543  41.521  16.246  14.897
43787W        W 7544  21.207  12.658   4.244
43788W        W 7545  43.787   9.656   1.905
43789W        W 7546   7.905  11.211   2.261
43790W        W 7547   2.393  38.054  10.461
43791W        W 7548  12.853  20.650  10.455
43792W        W 7549   9.739  21.592   0.304
43793W        W 7550  25.633   8.268   1.325
43794W        W 7551   4.911  35.450   0.871
43795W        W 7552  25.019  27.127  12.403
43796W        W 7553  35.953   9.298  12.571
43797W        W 7554  15.695  42.907  10.552
43798W        W 7555  16.082  35.992   4.738
43799W        W 7556  37.550  44.346   0.247
43800W        W 7557  20.165   7.703   4.755
43801W        W 7558  19.045   4.782  12.839
43802W        W 7559  27.667   7.237  13.330
43803W        W 7560  38.505  34.526   4.168
43804W        W 7561   6.236  40.000  13.540
43805W        W 7562  36.078  16.670  13.522
43806W        W 7563  28.067   5.695   2.373
43807W        W 7564  13.659   7.200   2.305
43808W        W 7565  14.590  38.991   4.238
43809W        W 7566  44.494  22.182   3.757
43810W        W 7567  35.545   9.338   3.777
43811W        W 7568  41.979   9.364   4.706
43812W        W 7569  11.722  38.976   1.398
43813W        W 7570  24.999  39.377  11.493
43814W        W 7571  27.953  13.620   0.448
43815W        W 7572   3.868  14.627  14.359
43816W        W 7573   0.397  16.185  13.049
43817W        W 7574  22.228  41.494   2.388
43818W        W 7575  31.036  14.742   2.228
43819W        W 7576  12.648  18.267   3.679
43820W        W 7577  43.821  39.065   0.945
43821W        W 7578  22.045  17.627  14.789
43822W        W 7579  14.646  20.186  13.921
43823W        W 7580   6.740   1.769  12.890
43824W        W 7581  30.962  32.531  14.502
43825W        W 7582  18.069  10.244   1.431
43826W        W 7583  31.610  15.797  13.900
43827W        W 7584   3.838   7.670  14.880
43828W        W 7585  13.350  43.967   2.196
43829W        W 7586   6.223  40.346   9.442
43830W        W 7587  10.309  35.088   4.717
43831W        W 7588  35.005  41.384   4.731
43832W        W 7589  37.915  14.786  11.539
43833W        W 7590  40.305   0.427   3.823
43834W        W 7591   3.298  33.092  13.858
43835W        W 7592   1.371  41.833  11.476
43836W        W 7593  25.190  26.164   3.230
43837W        W 7594  12.192  20.274   3.737
43838W        W 7595  13.194  30.075  11.482
43839W        W 7596   2.934  21.127  13.036
43840W        W 7597  29.603  10.192   3.243
43841W        W 7598  23.108   7.361  11.393
43842W        W 7599  35.433  44.373  11.999
43843W        W 7600  44.010  44.488  11.981
43844W        W 7601  14.231  26.483  11.023
43845W        W 7602  15.816  17.238   0.252
43846W        W 7603  40.858  42.840   3.773
43847W        W 7604  21.063   8.742   0.797
43848W        W 7605  32.925  44.786  11.064
43849W        W 7606  28.082   0.354  13.370
43850W        W 7607  36.446  44.790  10.539
43851W        W 7608  43.987   8.321   2.743
43852W        W 7609  27.997  11.676   3.209
43853W        W 7610  36.973  18.582   1.321
43854W        W 7611   2.293  31.547  13.346
43855W        W 7612  17.231  16.616  14.767
43856W        W 7613   6.396  43.450   1.342
43857W        W 7614  10.700  14.150  11.483
43858W        W 7615  31.970  44.438  13.977
43859W        W 7616  38.463  18.075  12.420
43860W        W 7617  43.971   6.835   4.626
43861W        W 7618   4.748   5.789  13.427
43862W        W 7619   8.822  25.020   0.411
43863W        W 7620  15.219  16.181  10.993
43864W        W 7621  16.152  44.477   3.647
43865W        W 7622  26.035   7.196  11.917
43866W        W 7623  32.095  22.190   4.798
43867W        W 7624  42.008  42.982   2.875
43868W        W 7625  30.057  30.131  11.378
43869W        W 7626  34.541  36.384  10.405
43870W        W 7627  13.325   5.737  12.509
43871W        W 7628  31.644  14.788  13.311
43872W        W 7629   5.254  17.595   3.717
43873W        W 7630   7.675  25.695   4.617
43874W        W 7631   4.888  40.425  10.475
43875W        W 7632  25.623  15.588   3.761
43876W        W 7633  34.063   4.702  14.922
43877W        W 7634  42.997  11.160   3.813
43878W        W 7635  36.505   3.250  13.988
43879W        W 7636  15.141  28.597  11.415
43880W        W 7637  39.445  32.955  14.941
43881W        W 7638  17.184  41.816   3.803
43882W        W 7639  19.658  44.286  12.448
43883W        W 7640  22.600  30.988  14.404
43884W        W 7641  22.591  41.486   4.773
43885W        W 7642  37.405  30.627   2.225
43886W        W 7643  25.156  11.737   1.390
43887W        W 7644  41.861  35.498   0.913
43888W        W 7645   1.800  38.037   1.395
43889W        W 7646   4.940   1.827   0.314
43890W        W 7647  39.501  35.882   4.323
43891W        W 7648  34.084  16.131  11.096
43892W        W 7649  18.751  25.565  11.012
43893W        W 7650  34.521  19.100  14.360
43894W        W 7651   9.332  28.570   0.303
43895W        W 7652  30.089  24.104  11.106
43896W        W 7653  17.176  23.220  10.071
43897W        W 7654  17.170  14.191  14.772
43898W        W 7655  34.891  20.701   3.860
43899W        W 7656   2.759   3.425   4.228
43900W        W 7657   8.788  37.073  12.019
43901W        W 7658  33.980   2.305  11.872
43902W        W 7659  24.008  32.452   1.712
43903W        W 7660  41.011  36.420   3.795
43904W        W 7661  11.851  40.344   2.767
43905W        W 7662  40.009  30.093   0.795
43906W        W 7663  11.139  40.386   0.277
43907W        W 7664  32.920  39.055  14.407
43908W        W 7665  19.269   5.828   4.631
43909W        W 7666  24.059  37.923  13.962
43910W        W 7667  31.411  23.647   3.203
43911W        W 7668  12.277  20.050   4.619
43912W        W 7669  13.220   3.407  14.844
43913W        W 7670  19.763  33.421  10.615
43914W        W 7671  38.821  43.371   2.885
43915W        W 7672  43.888  17.253   3.164
43916W        W 7673   1.800  27.637  11.450
43917W        W 7674  27.004  16.178   1.211
43918W        W 7675  30.474   1.735  11.567
43919W        W 7676  25.647  38.035   0.760
43920W        W 7677  10.669   1.454  13.393
43921W        W 7678   5.735   8.862  13.542
43922W        W 7679  20.113  23.024   4.651
43923W        W 7680  39.512   6.257   2.785
43924W        W 7681  30.587   2.819   3.868
43925W        W 7682   3.726  34.375  13.441
43926W        W 7683  15.109  30.449  13.456
43927W        W 7684  35.888  29.945   4.791
43928W        W 7685  19.110  33.902   2.381
43929W        W 7686  20.037  38.567   2.235
43930W        W 7687  34.870  29.455  13.802
43931W        W 7688  43.354  39.061   0.444
43932W        W 7689  23.137  42.486   1.226
43933W        W 7690  22.086  24.069   2.314
43934W        W 7691  10.678  13.743  13.403
43935W        W 7692  36.089  42.306   2.345
43936W        W 7693  28.163  21.574  11.077
43937W        W 7694  13.290  21.237  13.818
43938W        W 7695   0.953  41.485   5.215
43939W        W 7696   8.782  10.686   0.269
43940W        W 7697  21.189  28.140  13.884
43941W        W 7698  11.827  22.208   3.674
43942W        W 7699  22.623  20.208   0.865
43943W        W 7700  38.374   7.303   1.411
43944W        W 7701  43.929  44.840   2.810
43945W        W 7702  34.478  11.324   4.133
43946W        W 7703   0.388  23.208   3.363
43947W        W 7704  19.259  25.525  12.856
43948W        W 7705  17.133  15.689   2.863
43949W        W 7706  12.780  21.105  13.977
43950W        W 7707   2.446  31.059   0.470
43951W        W 7708  18.177   4.245   4.754
43952W        W 7709   6.424  36.494   3.819
43953W        W 7710  15.615  32.440   3.772
43954W        W 7711  42.775   4.910  13.480
43955W        W 7712  21.155  13.633   4.163
43956W        W 7713  42.301  17.275   2.823
43957W        W 7714   9.800  14.308  13.473
43958W        W 7715   7.849  21.730   4.303
43959W        W 7716  17.565   4.204   1.722
43960W        W 7717  44.265  39.928  10.043
43961W        W 7718   1.247   1.975   0.309
43962W        W 7719  12.823   1.292  11.517
43963W        W 7720   0.762  41.959   3.340
43964W        W 7721   3.808  10.852  11.534
43965W        W 7722   3.953  17.733   3.198
43966W        W 7723  31.950  10.736   2.695
43967W        W 7724   5.879  32.079   4.240
43968W        W 7725  44.969  42.031  11.477
43969W        W 7726  31.636   9.347   2.798
43970W        W 7727  11.854  15.698   3.367
43971W        W 7728  41.470  32.922   0.891
43972W        W 7729   1.364  24.511   4.336
43973W        W 7730  39.345  41.939  11.476
43974W        W 7731  22.702   8.760   1.751
43975W        W 7732  24.548  24.508  12.506
43976W        W 7733  28.680  29.426  11.608
43977W        W 7734  21.044  37.380  11.873
43978W        W 7735  39.346  31.981   2.386
43979W        W 7736  23.662  17.632   4.707
43980W        W 7737  15.710  40.388   2.818
43981W        W 7738  19.166  41.538   4.669
43982W        W 7739  24.593  10.222   0.766
43983W        W 7740  26.037  30.604  14.314
43984W        W 7741  19.102  18.671  11.376
43985W        W 7742  31.139  27.621   9.579
43986W        W 7743  25.068  23.151   3.282
43987W        W 7744  24.559   8.832  13.502
43988W        W 7745  13.711   9.789  11.599
43989W        W 7746   6.271   4.256   4.161
43990W        W 7747   1.775   4.847   2.368
43991W        W 7748  23.112  18.686  14.800
43992W        W 7749  25.700  35.472  13.061
43993W        W 7750   9.794   0.466  10.979
43994W        W 7751   0.976   4.733   0.871
43995W        W 7752  22.668   1.422   1.756
43996W        W 7753   8.671  19.700  11.017
43997W        W 7754  12.362  13.743  10.588
43998W        W 7755  40.456  23.217   2.378
43999W        W 7756  14.738   2.379   1.417
44000W        W 7757  39.330   3.786  11.423
44001W        W 7758   2.385  24.516   2.715
44002W        W 7759  12.225  43.782  13.817
44003W        W 7760  20.048  14.716  13.982
44004W        W 7761  19.119  44.789   0.347
44005W        W 7762  12.267  41.370  12.960
44006W        W 7763   7.263  12.206  13.818
44007W        W 7764   6.892  12.243   3.357
44008W        W 7765   5.338   2.472  13.506
44009W        W 7766  22.656  43.968   4.295
44010W        W 7767  13.707  20.721   0.811
44011W        W 7768   8.814  15.233  10.587
44012W        W 7769  20.171  39.452  13.384
44013W        W 7770  34.963  18.234  11.061
44014W        W 7771  44.923  25.707   0.381
44015W        W 7772  34.045   5.787  13.979
44016W        W 7773  36.060  41.816  13.921
44017W        W 7774  41.965  28.487   4.830
44018W        W 7775  38.433  22.205   3.813
44019W        W 7776   4.907  26.498   2.838
44020W        W 7777  40.524  13.769  13.982
44021W        W 7778  39.357  21.647   3.668
44022W        W 7779   6.737   6.888   2.270
44023W        W 7780  32.589  21.727  10.953
44024W        W 7781  17.709  44.897  11.497
44025W        W 7782   5.261   4.318   2.750
44026W        W 7783  21.130  39.890   2.701
44027W        W 7784  11.130  37.917  12.579
44028W        W 7785  18.064  12.750  11.405
44029W        W 7786  12.799  26.635   3.156
44030W        W 7787  26.600  25.529   9.999
44031W        W 7788  18.248  31.588  13.966
44032W        W 7789  22.671   6.867   0.802
44033W        W 7790   7.816  40.990   5.757
44034W        W 7791  11.198   9.849  14.803
44035W        W 7792   9.384  34.082  10.939
44036W        W 7793  19.761  25.989  11.555
44037W        W 7794  40.860  44.482  10.467
44038W        W 7795  23.198  22.214  12.825
44039W        W 7796  23.195  12.641  10.607
44040W        W 7797  15.136   8.199   2.321
44041W        W 7798  23.655  30.613   2.222
44042W        W 7799  14.744  34.896   1.435
44043W        W 7800  25.097  16.236   0.275
44044W        W 7801   2.375  11.366   0.751
44045W        W 7802   2.434  12.754   9.996
44046W        W 7803  32.479  17.747   2.288
44047W        W 7804  20.679  37.912   1.817
44048W        W 7805  20.271  16.591  12.403
44049W        W 7806  24.139  40.009   4.158
44050W        W 7807  16.229  16.813  11.919
44051W        W 7808  13.154  32.470   4.732
44052W        W 7809   1.938  44.269   4.218
44053W        W 7810   3.885  43.852  13.502
44054W        W 7811   7.797  35.066  14.824
44055W        W 7812   5.326  41.844   1.876
44056W        W 7813  17.746  12.679   9.606
44057W        W 7814  35.603  21.641  11.924
44058W        W 7815  19.258   5.403  14.471
44059W        W 7816   3.443  18.718   1.223
44060W        W 7817   5.808   7.171  14.514
44061W        W 7818  23.114   7.853  14.355
44062W        W 7819  25.019  44.964   1.707
44063W        W 7820  29.667  30.649   4.821
44064W        W 7821  28.485  41.369   0.461
44065W        W 7822  39.944   2.414   3.321
44066W        W 7823  37.982  34.595   2.681
44067W        W 7824  21.541  33.130  10.035
44068W        W 7825  30.449   6.364  11.895
44069W        W 7826  26.624  14.590   9.995
44070W        W 7827  26.637  21.037   4.685
44071W        W 7828  23.574  40.999  11.500
44072W        W 7829   2.956  43.310   4.701
44073W        W 7830  17.150   0.483   9.675
44074W        W 7831  22.685  21.698  12.417
44075W        W 7832   0.271   0.776   0.365
44076W        W 7833  26.982  15.774   3.180
44077W        W 7834  15.651  28.465  12.068
44078W        W 7835   3.711  15.104   4.690
44079W        W 7836  43.815   8.214   1.402
44080W        W 7837   6.235  22.997   2.225
44081W        W 7838  17.746  13.254   9.974
44082W        W 7839  34.054   1.346   4.161
44083W        W 7840  42.824  41.808   4.809
44084W        W 7841  22.557  35.484  10.136
44085W        W 7842  29.489  17.186   2.771
44086W        W 7843  11.750  11.854   4.310
44087W        W 7844  11.629  13.176  10.425
44088W        W 7845  19.779  22.174  14.794
44089W        W 7846  17.703   6.727  11.425
44090W        W 7847   4.403  20.145  14.282
44091W        W 7848  24.075   2.766  14.932
44092W        W 7849   6.375  31.514   4.663
44093W        W 7850  25.540  25.060  13.487
44094W        W 7851  36.536   5.259  11.541
44095W        W 7852  21.110  26.079   2.385
44096W        W 7853  21.117  36.960  14.398
44097W        W 7854  24.538  43.994  14.295
44098W        W 7855  30.147  25.131  14.905
44099W        W 7856  40.391  18.653   4.165
44100W        W 7857  24.175  43.911  13.048
44101W        W 7858   1.806  38.525  12.398
44102W        W 7859   4.269  23.993  12.997
44103W        W 7860  33.970   2.737   1.714
44104W        W 7861  16.567  37.922   2.806
44105W        W 7862  27.998  18.612   3.324
44106W        W 7863  11.782   0.310   0.258
44107W        W 7864  12.134  39.051   1.450
44108W        W 7865  32.413  10.332  11.072
44109W        W 7866  43.851  11.627   3.692
44110W        W 7867  26.113   0.794  12.905
44111W        W 7868  34.112  13.622   1.442
44112W        W 7869  22.025   6.738   4.254
44113W        W 7870   3.835  38.005  11.014
44114W        W 7871  43.993  42.455   1.364
44115W        W 7872  34.484  10.182   0.429
44116W        W 7873  21.180  38.904   0.933
44117W        W 7874  44.912  25.134   1.850
44118W        W 7875  31.126  12.851  11.992
44119W        W 7876  17.638   7.220  14.914
44120W        W 7877  21.122  35.582   3.164
44121W        W 7878   3.851  29.592   4.728
44122W        W 7879  28.554   9.814   4.333
44123W        W 7880  18.717  43.929   3.724
44124W        W 7881  42.936  32.129   4.195
44125W        W 7882  42.777  10.362   1.872
44126W        W 7883   8.796   2.345   3.316
44127W        W 7884  18.633  13.140   1.893
44128W        W 7885  44.391  12.333   4.765
44129W        W 7886  22.034  26.111   0.896
44130W        W 7887  44.288  36.855   3.387
44131W        W 7888   8.206   6.428  14.507
44132W        W 7889  14.670  16.181   3.309
44133W        W 7890  18.694  28.640   4.721
44134W        W 7891  13.293   8.897   4.722
44135W        W 7892  12.329  37.073   4.301
44136W        W 7893  24.224  18.555   5.233
44137W        W 7894  41.336  41.014  14.278
44138W        W 7895  14.791  16.311  10.515
44139W        W 7896  43.371  14.115  10.508
44140W        W 7897  28.483  22.108   4.810
44141W        W 7898  12.806  42.851   4.194
44142W        W 7899  34.611  23.148  14.976
44143W        W 7900  36.551  10.633  13.314
44144W        W 7901  25.048  25.006   3.790
44145W        W 7902   9.849  15.731   2.756
44146W        W 7903  39.847  40.318  14.809
44147W        W 7904  30.982   0.305  13.390
44148W        W 7905   6.875   4.232   3.744
44149W        W 7906  40.029  31.560  13.059
44150W        W 7907  37.021  39.015  13.882
44151W        W 7908  42.322  13.350  11.106
44152W        W 7909  21.540  34.087  12.945
44153W        W 7910  36.393   2.436  10.960
44154W        W 7911  41.970  24.025  13.951
44155W        W 7912  27.153  36.459   0.875
44156W        W 7913   2.839  15.593   3.654
44157W        W 7914  40.446  13.756   0.309
44158W        W 7915  42.020  39.498   3.354
44159W        W 7916   3.881  44.380  10.518
44160W        W 7917   4.775  41.439  11.548
44161W        W 7918  27.581  13.790  12.361
44162W        W 7919  35.948  40.841  10.902
44163W        W 7920  23.550  26.201   1.749
44164W        W 7921   8.678  26.069   1.837
44165W        W 7922  22.202   3.418   4.621
44166W        W 7923  26.580  16.294   1.438
44167W        W 7924  26.486  39.403   4.206
44168W        W 7925   4.301  29.077  10.582
44169W        W 7926  14.228  27.948   4.119
44170W        W 7927  14.629  43.903  14.897
44171W        W 7928  23.045   4.338  13.833
44172W        W 7929   4.323  27.085  13.384
44173W        W 7930   1.941   4.275  11.954
44174W        W 7931  42.382  14.320  13.878
44175W        W 7932   1.346  42.964   4.715
44176W        W 7933  27.146  15.666  13.546
44177W        W 7934  37.354  28.680  12.008
44178W        W 7935  43.346  10.804  14.411
44179W        W 7936  13.606   7.212   4.133
44180W        W 7937   5.336  37.415   4.772
44181W        W 7938  24.013  22.094   2.760
44182W        W 7939  12.169  32.601  10.504
44183W        W 7940  41.897  41.536   1.277
44184W        W 7941  15.782  35.864   3.743
44185W        W 7942  31.411  36.378  11.886
44186W        W 7943  14.773   1.463  12.559
44187W        W 7944  22.625  24.494  11.504
44188W        W 7945   9.314  11.854   3.710
44189W        W 7946  30.072  17.603   3.190
44190W        W 7947  20.726  11.278   4.145
44191W        W 7948  24.073  10.681  13.454
44192W        W 7949  18.113  23.144   1.762
44193W        W 7950  15.121   2.375   5.157
44194W        W 7951   7.225  14.744  13.895
44195W        W 7952  30.030  27.992  14.505
44196W        W 7953  17.626  35.472  11.991
44197W        W 7954  23.594  41.858  10.446
44198W        W 7955  12.695  43.315   2.801
44199W        W 7956  15.307   7.831   4.224
44200W        W 7957  31.095  32.006   2.685
44201W        W 7958   5.361  21.234   9.968
44202W        W 7959  36.561   1.908   0.435
44203W        W 7960  21.598  25.502   0.482
44204W        W 7961  38.911  27.050  12.090
44205W        W 7962  34.471  20.163  12.472
44206W        W 7963  20.052   9.235  11.470
44207W        W 7964  27.541  30.048   0.270
44208W        W 7965   3.414   9.360   0.793
44209W        W 7966  13.729  34.423   0.889
44210W        W 7967  40.822  27.075  11.508
44211W        W 7968  18.075  28.116  12.055
44212W        W 7969  22.683  11.334  12.372
44213W        W 7970  35.952  33.124   0.474
44214W        W 7971  44.500  32.001   3.716
44215W        W 7972   3.840  39.430  14.876
44216W        W 7973  24.998  18.234  14.327
44217W        W 7974  30.526  13.226  12.415
44218W        W 7975  17.734  24.598   4.142
44219W        W 7976  21.733  10.212   3.267
44220W        W 7977  33.914  43.920   4.143
44221W        W 7978  24.503   2.260  10.462
44222W        W 7979   3.840  39.436  13.028
44223W        W 7980  40.312  18.077   1.413
44224W        W 7981  19.717  34.972   4.302
44225W        W 7982   2.957   8.792   0.765
44226W        W 7983  39.997  13.199  14.337
44227W        W 7984  18.629  17.274   2.294
44228W        W 7985   0.406   1.466  13.318
44229W        W 7986  26.074  13.335   0.897
44230W        W 7987   7.176   1.871   1.913
44231W        W 7988  40.309  33.614  12.829
44232W        W 7989  15.300  40.445   3.219
44233W        W 7990  42.015  24.180  14.994
44234W        W 7991  12.278   6.277  13.860
44235W        W 7992  36.956   8.867   0.899
44236W        W 7993  14.250   3.218   0.343
44237W        W 7994  35.070  17.787   0.875
44238W        W 7995  10.282  44.434  12.973
44239W        W 7996  38.983  38.547  12.528
44240W        W 7997  29.669   2.379  11.536
44241W        W 7998  37.412  32.506  12.515
44242W        W 7999   4.231  22.179  10.930
44243W        W 8000  40.523  18.568  10.938
44244W        W 8001   2.447  22.226   2.280
44245W        W 8002  19.682  30.050  11.559
44246W        W 8003  34.492  31.439  11.003
44247W        W 8004  33.886  44.372  11.069
44248W        W 8005  23.199   6.242  13.329
44249W        W 8006  19.236  11.798   4.721
44250W        W 8007  10.799   6.721  13.820
44251W        W 8008  36.493  19.571   5.286
44252W        W 8009  22.040  38.983  12.558
44253W        W 8010  31.904   2.734  12.072
44254W        W 8011  19.591  39.856  11.524
44255W        W 8012  25.202  21.517   0.307
44256W        W 8013  42.439  10.144  10.497
44257W        W 8014  34.398  19.176  11.934
44258W        W 8015  16.132  42.900   0.890
44259W        W 8016  17.564  12.228  10.609
44260W        W 8017  29.997  27.166  12.833
44261W        W 8018  27.972  40.389  10.122
44262W        W 8019  42.835   7.866   0.835
44263W        W 8020  13.203   6.770   1.854
44264W        W 8021   3.764  27.635  14.487
44265W        W 8022  39.039  41.506  11.554
44266W        W 8023  37.496  15.739   4.303
44267W        W 8024  19.544  22.103   4.742
44268W        W 8025  29.152  11.340  13.821
44269W        W 8026  44.960  32.068   2.339
44270W        W 8027  29.966  10.291   1.863
44271W        W 8028  15.113  20.157  13.484
44272W        W 8029  29.166  10.671   1.370
44273W        W 8030  39.464  19.277  10.476
44274W        W 8031  38.002  40.431   3.815
44275W        W 8032  11.625  22.693   2.863
44276W        W 8033   5.267  25.070  13.528
44277W        W 8034  28.145  31.026  13.451
44278W        W 8035  44.380  24.143   0.936
44279W        W 8036  19.619  25.650   0.840
44280W        W 8037  44.277  28.147  11.050
44281W        W 8038  15.217  19.740   3.242
44282W        W 8039  22.547  34.102   0.404
44283W        W 8040  16.600  35.485   4.207
44284W        W 8041  25.711  20.216   0.727
44285W        W 8042   6.809  40.325   2.671
44286W        W 8043  33.557  29.536   2.700
44287W        W 8044  31.945  13.299  12.531
44288W        W 8045  17.194   9.800   0.818
44289W        W 8046  22.007  36.991  11.087
44290W        W 8047  29.989  25.538  13.354
44291W        W 8048  44.002   3.865  14.436
44292W        W 8049  15.601  12.214  14.991
44293W        W 8050  34.552  36.356   4.797
44294W        W 8051   6.748  32.960  14.442
44295W        W 8052  18.782  10.786  10.568
44296W        W 8053  20.536  22.134  13.952
44297W        W 8054  42.865  11.174   1.756
44298W        W 8055  17.281  30.554   4.749
44299W        W 8056  28.999  33.525   3.283
44300W        W 8057  15.671  41.797  14.942
44301W        W 8058  30.462  28.575  10.473
44302W        W 8059  13.335  39.389  13.027
44303W        W 8060  41.430   1.832   1.725
44304W        W 8061   7.336  17.127   2.285
44305W        W 8062  34.996  20.766  12.864
44306W        W 8063  41.325  43.908  12.457
44307W        W 8064  14.300  23.217  14.410
44308W        W 8065  23.688  18.789  12.899
44309W        W 8066  36.916  27.982   4.160
44310W        W 8067  32.115  30.945   5.240
44311W        W 8068  41.939  14.688   4.615
44312W        W 8069  27.478   2.723  10.467
44313W        W 8070  37.563   1.925  11.471
44314W        W 8071   2.942  10.783  13.340
44315W        W 8072   0.986  31.647   1.310
44316W        W 8073   3.403   0.954  14.924
44317W        W 8074  42.914   9.152  10.939
44318W        W 8075  28.053  28.133  11.118
44319W        W 8076  41.862  39.832   4.259
44320W        W 8077   3.358  33.074   0.783
44321W        W 8078  27.994  15.099  12.955
44322W        W 8079  22.653  22.517  11.977
44323W        W 8080  34.029  11.340  12.444
44324W        W 8081   0.301  17.776   0.963
44325W        W 8082  32.459  18.208   0.332
44326W        W 8083  14.234  31.606  11.543
44327W        W 8084  41.353  15.599   4.130
44328W        W 8085  34.561  17.599  10.890
44329W        W 8086   1.306  41.432   0.385
44330W        W 8087  31.975  41.449  12.989
44331W        W 8088  12.145  39.816  12.344
44332W        W 8089  27.007  10.715   2.861
44333W        W 8090  29.137  20.179   1.881
44334W        W 8091  38.074  37.508   4.346
44335W        W 8092  33.088  33.405  13.852
44336W        W 8093  26.653  41.390   3.716
44337W        W 8094  13.732  22.127   4.327
44338W        W 8095  43.313  42.846  14.395
44339W        W 8096  23.639  26.536  12.423
44340W        W 8097  24.097  41.963  14.374
44341W        W 8098  15.795  38.833   4.689
44342W        W 8099  41.512   4.857   2.843
44343W        W 8100  14.121  30.058   1.838
44344W        W 8101  33.969   8.749   0.817
44345W        W 8102   1.400   6.359   3.235
44346W        W 8103  33.468  41.299  13.429
44347W        W 8104  40.915  36.553  13.518
44348W        W 8105  20.031  37.452   3.379
44349W        W 8106  16.282  30.460   4.666
44350W        W 8107  34.594  40.457   2.681
44351W        W 8108  11.189  28.498  14.400
44352W        W 8109  34.526  39.836  14.952
44353W        W 8110  14.654   8.689  11.500
44354W        W 8111  10.244  10.729  14.020
44355W        W 8112  33.618  27.082   0.951
44356W        W 8113   3.781  11.779   1.327
44357W        W 8114   6.328  43.993   3.345
44358W        W 8115  33.073  24.482   0.318
44359W        W 8116   9.364  12.323  12.470
44360W        W 8117   5.367   3.888  14.838
44361W        W 8118  35.514  38.571   1.925
44362W        W 8119  12.233   8.781  14.021
44363W        W 8120  23.158  37.501  10.468
44364W        W 8121  19.144  42.331  14.017
44365W        W 8122  31.526  39.376  12.578
44366W        W 8123  15.188  43.993  13.952
44367W        W 8124  21.690  44.853  12.936
44368W        W 8125  40.327   8.738  12.418
44369W        W 8126  23.613  16.694   0.480
44370W        W 8127  20.677   1.894   2.301
44371W        W 8128  11.646   8.783   5.110
44372W        W 8129   8.694  35.983  10.450
44373W        W 8130  27.181  16.616  13.361
44374W        W 8131   9.196  19.231   0.457
44375W        W 8132  10.237   3.233   2.355
44376W        W 8133  12.665  22.706  14.294
44377W        W 8134  10.781   1.410   3.821
44378W        W 8135  41.804  41.991   3.634
44379W        W 8136   9.270   9.843   0.254
44380W        W 8137  32.015  18.553   5.276
44381W        W 8138   5.722  25.547   2.888
44382W        W 8139  14.679  11.265  12.092
44383W        W 8140  30.657   5.435   1.704
44384W        W 8141  39.837  15.717  14.827
44385W        W 8142  24.579  12.132  11.405
44386W        W 8143   7.178  34.527   3.686
44387W        W 8144  26.615   6.723   4.728
44388W        W 8145  30.911  25.018   3.834
44389W        W 8146  37.045   5.202   9.504
44390W        W 8147   1.386  20.725   2.708
44391W        W 8148  20.575   3.879   3.339
44392W        W 8149  19.726  14.657  12.425
44393W        W 8150  20.723  37.412   2.230
44394W        W 8151  17.797   3.844   0.775
44395W        W 8152  20.162  40.974   2.235
44396W        W 8153   1.457   3.255  11.985
44397W        W 8154  22.150   4.350   1.782
44398W        W 8155  21.226  42.868  13.310
44399W        W 8156  15.137  16.675   2.770
44400W        W 8157  21.557  14.732  12.046
44401W        W 8158   7.737   7.277   0.432
44402W        W 8159   3.819  16.150   3.734
44403W        W 8160  15.603  19.283   1.877
44404W        W 8161  22.586  40.319   2.736
44405W        W 8162  40.934   2.934  10.568
44406W        W 8163  38.357  37.027  10.945
44407W        W 8164  29.977  36.370   2.399
44408W        W 8165  13.685  24.553   0.340
44409W        W 8166  16.073  30.020  14.326
44410W        W 8167  31.611   6.198   4.329
44411W        W 8168   9.839  28.641  13.539
44412W        W 8169  39.991  39.892  14.488
44413W        W 8170  35.988  14.245  11.515
44414W        W 8171  17.263   0.807   0.834
44415W        W 8172  14.284  16.201   3.841
44416W        W 8173  21.024   2.822  12.395
44417W        W 8174   9.169  11.163   0.343
44418W        W 8175  15.153  33.050  11.396
44419W        W 8176  20.143  26.067  10.891
44420W        W 8177  12.328   3.372   2.770
44421W        W 8178  37.066  21.606   2.390
44422W        W 8179  12.342  39.559   2.777
44423W        W 8180   8.192  12.708   3.180
44424W        W 8181  40.003  31.052   1.802
44425W        W 8182  43.411  35.583   0.284
44426W        W 8183  12.207  22.564  13.915
44427W        W 8184  34.491  31.988  10.419
44428W        W 8185  20.050   5.328  13.880
44429W        W 8186  33.601  39.384  12.077
44430W        W 8187  13.658  18.114  11.936
44431W        W 8188  36.383  17.719   0.468
44432W        W 8189  16.151  24.675   4.642
44433W        W 8190  28.033   2.298  11.049
44434W        W 8191  24.578   9.169  14.476
44435W        W 8192  35.937  28.122   5.299
44436W        W 8193  34.027  40.006  11.594
44437W        W 8194  28.184  28.136   5.110
44438W        W 8195   6.767  32.540  14.411
44439W        W 8196  14.819  39.347   0.244
44440W        W 8197  36.962  36.864   3.277
44441W        W 8198  12.208  30.121   0.361
44442W        W 8199  39.891  33.054  11.860
44443W        W 8200  14.309   2.269   5.096
44444W        W 8201  10.756  17.800  13.522
44445W        W 8202  41.371  43.862   4.599
44446W        W 8203  31.116  41.922   4.211
44447W        W 8204  44.268   8.320   1.809
44448W        W 8205  21.022  26.522  10.890
44449W        W 8206  10.264  38.466  12.523
44450W        W 8207  16.084  21.617  13.486
44451W        W 8208  36.484  20.578   3.204
44452W        W 8209  15.280  31.429  13.411
44453W        W 8210  40.798  41.994  12.360
44454W        W 8211   5.221  19.212   2.191
44455W        W 8212   1.419  16.111  12.019
44456W        W 8213   4.417  21.052  12.854
44457W        W 8214  40.978  17.210   1.910
44458W        W 8215  35.868  28.984  10.950
44459W        W 8216   4.321   0.984   2.683
44460W        W 8217  19.238  27.668   2.318
44461W        W 8218  15.783  20.670   2.314
44462W        W 8219   1.867  33.931  10.922
44463W        W 8220  16.615  15.586   1.695
44464W        W 8221  33.989   5.709  14.493
44465W        W 8222  23.150  35.597  13.939
44466W        W 8223   9.861  22.690  13.381
44467W        W 8224  32.082  11.761  11.866
44468W        W 8225  17.087  26.470   3.694
44469W        W 8226  38.943   1.897  13.865
44470W        W 8227  42.360  17.694   3.643
44471W        W 8228  29.447   5.900   1.238
44472W        W 8229  39.879  17.800  11.536
44473W        W 8230  42.012  28.090   2.902
44474W        W 8231  17.062  23.590   0.863
44475W        W 8232  22.632  35.947   3.838
44476W        W 8233  38.570  11.355  13.522
44477W        W 8234  31.576   4.235   3.313
44478W        W 8235  35.054  43.269   1.703
44479W        W 8236  23.649  15.267  14.029
44480W        W 8237  40.962  37.369  10.583
44481W        W 8238   2.292  17.617   2.186
44482W        W 8239  21.529  22.514   0.387
44483W        W 8240  30.629  15.578   4.156
44484W        W 8241  19.100  38.518  11.932
44485W        W 8242   8.212   4.354  14.878
44486W        W 8243  17.069  40.866  12.972
44487W        W 8244  21.041  16.179  12.875
44488W        W 8245   4.941   4.845  11.417
44489W        W 8246  43.766  26.495  14.465
44490W        W 8247  28.104  20.168   0.910
44491W        W 8248  20.631  16.209  11.865
44492W        W 8249  16.708  39.985   1.273
44493W        W 8250  19.183  15.727  14.512
44494W        W 8251   9.158  39.539   0.920
44495W        W 8252  44.368  30.996  10.601
44496W        W 8253  18.568   8.755  11.396
44497W        W 8254   2.381  19.272   0.294
44498W        W 8255  28.007  21.203   3.367
44499W        W 8256  18.093  29.164  12.025
44500W        W 8257  31.536  41.358   3.759
44501W        W 8258  37.340   8.857  11.024
44502W        W 8259  13.825  19.241  14.799
44503W        W 8260  21.078  43.490   0.955
44504W        W 8261  11.287   8.834   1.450
44505W        W 8262  42.374  22.649  13.498
44506W        W 8263  41.915  19.217  12.374
44507W        W 8264  43.782   6.296   0.463
44508W        W 8265  21.097  27.610  10.160
44509W        W 8266  41.525  13.327  13.339
44510W        W 8267  29.666  38.336  13.467
44511W        W 8268  31.605  26.545   2.706
44512W        W 8269   3.909  38.869   3.167
44513W        W 8270  27.040   8.657  14.032
44514W        W 8271  12.850  32.508   2.188
44515W        W 8272   2.277  37.490   2.787
44516W        W 8273  20.552  31.954  11.104
44517W        W 8274  25.562   1.817  11.610
44518W        W 8275  18.181   2.437  14.895
44519W        W 8276  24.655  37.879  11.558
44520W        W 8277  12.266   1.298  10.001
44521W        W 8278  26.520  12.683   4.270
44522W        W 8279  22.032   4.325   0.774
44523W        W 8280   1.828  30.940  12.095
44524W        W 8281  31.603  24.151   3.206
44525W        W 8282   1.288  38.855   4.724
44526W        W 8283   3.909  23.068  11.043
44527W        W 8284   7.749  11.843   3.163
44528W        W 8285  37.360  41.872  11.515
44529W        W 8286  41.825  11.372   2.382
44530W        W 8287   1.934  25.018   2.765
44531W        W 8288  30.543  18.559   0.321
44532W        W 8289  12.204  26.626  12.939
44533W        W 8290   2.393   4.308  11.953
44534W        W 8291  44.770  25.671   3.687
44535W        W 8292   1.384  14.590  10.490
44536W        W 8293  44.327  32.957   4.814
44537W        W 8294  44.851  27.098   4.695
44538W        W 8295   9.801  11.323   0.905
44539W        W 8296   6.842  23.222   0.259
44540W        W 8297  43.355  38.837   3.855
44541W        W 8298  20.560  15.184   5.319
44542W        W 8299   6.269  12.848  10.144
44543W        W 8300  24.634  41.814  11.954
44544W        W 8301  20.714  39.512   3.654
44545W        W 8302  21.698  23.005  13.803
44546W        W 8303   9.696   7.785   3.815
44547W        W 8304  43.853  19.266   1.876
44548W        W 8305  41.934   2.416   0.759
44549W        W 8306  22.504  37.006  10.641
44550W        W 8307  39.533  24.574  12.404
44551W        W 8308  42.786  28.613   0.436
44552W        W 8309   8.323   2.958   3.284
44553W        W 8310  42.422  36.439  10.454
44554W        W 8311  43.499   3.923   2.391
44555W        W 8312  34.492  31.025  14.423
44556W        W 8313  40.983  17.153  12.421
44557W        W 8314  22.545  27.497  14.381
44558W        W 8315  36.923   8.254   4.711
44559W        W 8316  21.205  23.583  13.957
44560W        W 8317   8.723  10.708  12.386
44561W        W 8318  29.527  12.611   3.703
44562W        W 8319   5.336  13.659  11.431
44563W        W 8320  26.472   4.893  12.903
44564W        W 8321  37.038  36.069  11.541
44565W        W 8322  16.797  16.100  14.838
44566W        W 8323  42.327  21.199  14.021
44567W        W 8324  13.645  30.111  11.607
44568W        W 8325  29.977   1.857  10.905
44569W        W 8326  28.590   9.343  10.960
44570W        W 8327  19.196  35.004   1.848
44571W        W 8328  27.104   7.746   1.437
44572W        W 8329  26.194  15.612  13.504
44573W        W 8330   0.455  30.514  13.393
44574W        W 8331  37.850   3.718   4.258
44575W        W 8332  22.661  24.071   5.282
44576W        W 8333  40.370   4.370   4.656
44577W        W 8334  34.504  41.501   0.298
44578W        W 8335  14.618  39.954  11.981
44579W        W 8336  17.683  26.106   2.816
44580W        W 8337  10.721  29.433  11.917
44581W        W 8338   2.256  42.776   3.813
44582W        W 8339   6.249  27.071   1.412
44583W        W 8340  33.108   4.329   3.235
44584W        W 8341  25.188  13.660  14.332
44585W        W 8342  23.213  42.314   2.825
44586W        W 8343   5.909  39.890  13.868
44587W        W 8344  32.926  14.769  12.927
44588W        W 8345  17.089  40.986  11.915
44589W        W 8346   6.916  22.119   4.210
44590W        W 8347  23.003  42.308  12.930
44591W        W 8348  29.054  37.865  13.968
44592W        W 8349  35.500  22.110  13.521
44593W        W 8350   5.434  20.117  12.027
44594W        W 8351  29.167  12.349  14.855
44595W        W 8352  36.427   1.826   4.287
44596W        W 8353   0.345   7.909   4.832
44597W        W 8354  32.607  14.590   1.796
44598W        W 8355  16.805  38.541   1.904
44599W        W 8356  42.010  22.088  11.995
44600W        W 8357  40.345   8.753  13.917
44601W        W 8358  19.534  16.640   4.249
44602W        W 8359  36.997  25.197   0.358
44603W        W 8360  20.610   9.215   3.151
44604W        W 8361  42.378  43.878  13.821
44605W        W 8362  35.035  23.536  11.933
44606W        W 8363  16.130  12.664   1.695
44607W        W 8364   9.326  42.399   5.654
44608W        W 8365  10.272  16.673   1.919
44609W        W 8366  15.613  37.448  12.341
44610W        W 8367  15.695  36.439  14.955
44611W        W 8368  17.122   4.261  14.010
44612W        W 8369  38.938  21.150  14.295
44613W        W 8370   8.370  27.523   4.665
44614W        W 8371  39.425  32.484  10.457
44615W        W 8372  15.146  22.070   3.679
44616W        W 8373  22.007  38.835   3.839
44617W        W 8374  38.840   0.767   0.920
44618W        W 8375  27.987  43.962  10.548
44619W        W 8376  25.078  19.746  14.864
44620W        W 8377  17.639  26.963   0.826
44621W        W 8378  26.194  24.673  13.477
44622W        W 8379  31.062   1.333  14.299
44623W        W 8380  21.032  13.842   3.678
44624W        W 8381  17.642  32.546  11.541
44625W        W 8382  24.571  17.755   2.760
44626W        W 8383  24.042  19.673  13.998
44627W        W 8384  20.267  33.447  12.575
44628W        W 8385  38.495  34.594   4.736
44629W        W 8386  30.963  17.701  10.484
44630W        W 8387  28.510   1.776  10.416
44631W        W 8388  26.153  36.083   0.450
44632W        W 8389   1.462  41.937   2.864
44633W        W 8390  25.643  14.338   1.213
44634W        W 8391  26.621  42.327  11.022
44635W        W 8392  39.555  37.512   9.993
44636W        W 8393   5.198  37.522  14.797
44637W        W 8394  20.691  44.865  11.954
44638W        W 8395  24.543  25.000  13.506
44639W        W 8396   9.314   2.390  13.905
44640W        W 8397  25.990  23.698   1.240
44641W        W 8398   3.279  37.965   2.698
44642W        W 8399  44.960  24.104   2.782
44643W        W 8400  28.570  24.144   2.325
44644W        W 8401  12.334  40.978   0.880
44645W        W 8402   2.386  29.589  12.054
44646W        W 8403  13.182  23.020   4.230
44647W        W 8404  10.284   0.455  12.872
44648W        W 8405  21.225  41.034   1.749
44649W        W 8406  10.702  34.115  13.802
44650W        W 8407   1.363  35.556   1.443
44651W        W 8408  42.460  21.190  13.534
44652W        W 8409  36.938  21.221  10.961
44653W        W 8410  10.660  30.485  12.390
44654W        W 8411   2.754   4.930   1.336
44655W        W 8412  22.696  17.156   3.786
44656W        W 8413  43.394  13.118  14.284
44657W        W 8414   7.671  23.083   1.767
44658W        W 8415  22.576   1.835  12.435
44659W        W 8416  20.687  43.018  11.475
44660W        W 8417  40.520  40.002   0.809
44661W        W 8418   7.881  34.921  11.871
44662W        W 8419  31.523  31.094   3.373
44663W        W 8420  38.916  26.501   5.159
44664W        W 8421  23.601  38.877  10.969
44665W        W 8422  26.072  12.626  13.429
44666W        W 8423   1.941  27.468  14.949
44667W        W 8424  16.078  13.213   2.702
44668W        W 8425  17.621  31.418  14.361
44669W        W 8426   4.857   2.821   3.700
44670W        W 8427  22.156  13.313  13.967
44671W        W 8428   1.405  37.399  13.829
44672W        W 8429   6.840   0.918   3.228
44673W        W 8430  16.662  16.298  12.955
44674W        W 8431  43.277  35.971  10.928
44675W        W 8432  34.093  18.277   0.452
44676W        W 8433   7.269  28.932  13.997
44677W        W 8434   3.937  18.149   0.449
44678W        W 8435  23.518  37.001   1.822
44679W        W 8436  28.989  32.121  14.856
44680W        W 8437  16.111  25.111   2.736
44681W        W 8438  24.568  35.900   2.722
44682W        W 8439  17.228  13.692   2.331
44683W        W 8440  37.887  24.024   3.753
44684W        W 8441  39.986  18.697  14.330
44685W        W 8442   1.415  26.572  14.347
44686W        W 8443  34.399  36.441  12.893
44687W        W 8444  41.460  14.615   3.383
44688W        W 8445  35.465  34.406   0.930
44689W        W 8446   6.233  16.092  10.447
44690W        W 8447  31.539  39.911   0.898
44691W        W 8448  39.007   2.376   2.679
44692W        W 8449  25.673  23.490  11.963
44693W        W 8450   3.266  35.542   0.386
44694W        W 8451  39.868   1.364   4.137
44695W        W 8452  12.315  12.131   2.750
44696W        W 8453  33.576  19.774   0.311
44697W        W 8454  13.842  18.614  12.434
44698W        W 8455  39.888  15.088   0.304
44699W        W 8456  41.858  11.169  12.966
44700W        W 8457  15.761  43.999   3.159
44701W        W 8458   6.802   7.686   2.690
44702W        W 8459   6.697  32.936  13.907
44703W        W 8460  44.297  17.186  13.875
44704W        W 8461  28.641  27.984  10.427
44705W        W 8462  43.975  23.646   2.419
44706W        W 8463  43.807  36.424   1.398
44707W        W 8464  38.449  21.686  12.922
44708W        W 8465  13.665  39.913  14.951
44709W        W 8466  11.794   7.316   4.616
44710W        W 8467  11.746  10.748  11.532
44711W        W 8468  42.370   9.234  13.894
44712W        W 8469  13.699  28.078   2.696
44713W        W 8470  14.107  28.489   4.253
44714W        W 8471  30.961  21.658  14.472
44715W        W 8472  24.698  13.245   3.753
44716W        W 8473  37.043  10.730   2.861
44717W        W 8474  22.742   8.335   0.427
44718W        W 8475  23.094  29.101   4.279
44719W        W 8476  14.109  38.897  10.428
44720W        W 8477  36.534   3.878  12.015
44721W        W 8478  35.536  28.540  12.085
44722W        W 8479  20.659   5.931  12.468
44723W        W 8480   6.908  19.230  14.760
44724W        W 8481  37.849  33.552  13.009
44725W        W 8482   0.768  39.022   0.347
44726W        W 8483  30.461   5.269  10.499
44727W        W 8484  32.071  43.862   2.379
44728W        W 8485  16.140  13.602  12.879
44729W        W 8486  36.367  19.593  13.425
44730W        W 8487  14.795  34.012   1.899
44731W        W 8488  28.580  12.815   3.233
44732W        W 8489  28.571  16.776  11.537
44733W        W 8490  21.717  30.950   4.124
44734W        W 8491  18.594  19.534   4.599
44735W        W 8492  40.833  26.205  11.861
44736W        W 8493   4.388  40.959   2.852
44737W        W 8494  31.487  26.007  10.534
44738W        W 8495   3.830  38.954   4.648
44739W        W 8496  23.637  22.589  13.918
44740W        W 8497  30.100  17.559   3.705
44741W        W 8498  23.125  33.544   2.902
44742W        W 8499  28.662  25.564  13.907
44743W        W 8500   6.816  29.540   1.852
44744W        W 8501  36.447  12.149   3.163
44745W        W 8502   4.219   4.888  14.279
44746W        W 8503  20.058  38.373   1.290
44747W        W 8504  11.146  33.011   1.247
44748W        W 8505  27.061   0.250  12.348
44749W        W 8506  36.429  28.618   9.942
44750W        W 8507   2.254  13.332  12.922
44751W        W 8508  33.572  38.377  10.619
44752W        W 8509  24.081  38.023  12.852
44753W        W 8510  32.028  35.860  11.449
44754W        W 8511  18.145  15.089  13.989
44755W        W 8512  23.727  39.319   1.719
44756W        W 8513  24.487  24.157   3.337
44757W        W 8514  43.498  44.837   4.785
44758W        W 8515  44.855   5.707   4.313
44759W        W 8516  36.463  16.194  14.491
44760W        W 8517  30.467  28.674  13.995
44761W        W 8518  33.979  37.045   2.902
44762W        W 8519   7.745  36.070  12.889
44763W        W 8520  37.937  15.102  13.859
44764W        W 8521  23.110  40.503   0.912
44765W        W 8522  18.195   1.258   0.336
44766W        W 8523  31.982  36.033  12.860
44767W        W 8524   5.762  41.980   4.304
44768W        W 8525  34.062  24.526   3.675
44769W        W 8526  37.369  17.150  13.507
44770W        W 8527  33.886  10.229   2.303
44771W        W 8528   9.797  40.801   1.280
44772W        W 8529  34.103  38.057   4.151
44773W        W 8530   7.734  44.263   4.264
44774W        W 8531  28.642  40.544  10.925
44775W        W 8532  25.047  39.443  10.610
44776W        W 8533  39.922  42.490   4.795
44777W        W 8534   6.676  40.311   1.395
44778W        W 8535  24.100   1.757   2.303
44779W        W 8536   6.398  39.466   2.684
44780W        W 8537  17.290  44.416  14.989
44781W        W 8538   5.793  18.290  14.495
44782W        W 8539   8.711  15.266   2.818
44783W        W 8540   4.811   3.875   3.226
44784W        W 8541  40.315  20.556  14.398
44785W        W 8542   0.422   6.678  10.955
44786W        W 8543  39.877  27.668  13.955
44787W        W 8544   1.332  18.091   1.771
44788W        W 8545  34.978  28.482  12.555
44789W        W 8546  14.103  36.437   3.740
44790W        W 8547  37.382  39.556  12.540
44791W        W 8548  12.646   8.406   2.317
44792W        W 8549  39.980  43.286  14.769
44793W        W 8550  13.143  40.405   4.136
44794W        W 8551  28.112   1.473   1.331
44795W        W 8552  40.829  10.686  14.516
44796W        W 8553  30.975  33.970   2.251
44797W        W 8554   7.286   6.393  13.381
44798W        W 8555  24.171  32.092   3.863
44799W        W 8556  10.770  41.894   2.233
44800W        W 8557   9.740  17.733   0.407
44801W        W 8558   4.334  19.226   1.746
44802W        W 8559  33.927  31.640  12.563
44803W        W 8560  31.123  19.611   1.312
44804W        W 8561   5.802  43.442   4.818
44805W        W 8562  10.169  37.385  10.908
44806W        W 8563  21.568  15.166   4.765
44807W        W 8564  24.545  15.249  12.966
44808W        W 8565  28.572  19.236   4.663
44809W        W 8566   7.785  24.487   4.190
44810W        W 8567  40.994   0.901   1.924
44811W        W 8568  33.935   2.752  12.455
44812W        W 8569  38.453  43.862  12.939
44813W        W 8570   5.825  14.734   2.740
44814W        W 8571  21.591  39.491   4.765
44815W        W 8572  44.915  25.714  11.920
44816W        W 8573  40.318  13.801  14.310
44817W        W 8574  43.835  24.669   2.732
44818W        W 8575   3.437  42.020  13.532
44819W        W 8576   7.354   1.886   2.275
44820W        W 8577  43.841   2.469   1.749
44821W        W 8578  30.423  41.989   1.746
44822W        W 8579  21.638  16.807  12.042
44823W        W 8580  24.604  41.850  10.424
44824W        W 8581  16.611  37.476   4.810
44825W        W 8582   8.174  20.249   3.761
44826W        W 8583  11.827  30.126  14.850
44827W        W 8584   0.287  28.003   3.179
44828W        W 8585  35.547  34.571   0.347
44829W        W 8586  42.911  31.424   3.828
44830W        W 8587   5.410   1.268   1.376
44831W        W 8588   8.392   4.765  11.954
44832W        W 8589   4.890   7.697   4.733
44833W        W 8590  31.578  25.975  14.326
44834W        W 8591  19.653  26.690   3.161
44835W        W 8592   1.400  29.631  11.446
44836W        W 8593  30.609   0.837  12.538
44837W        W 8594  33.619  15.313  11.397
44838W        W 8595  27.977  10.807   1.360
44839W        W 8596  12.693  40.393  12.386
44840W        W 8597  15.252  41.312  13.055
44841W        W 8598  30.128  20.134  14.949
44842W        W 8599  10.690  37.018   4.679
44843W        W 8600  39.320  23.125  13.334
44844W        W 8601  33.543  21.688   3.350
44845W        W 8602  24.569  21.665  13.937
44846W        W 8603  21.716  38.937   2.376
44847W        W 8604   3.837  26.527   0.739
44848W        W 8605  12.124  38.454   1.366
44849W        W 8606  14.285  39.958  12.560
44850W        W 8607  30.105   5.890  11.060
44851W        W 8608   2.909  37.460  10.511
44852W        W 8609  12.190  21.155  14.022
44853W        W 8610  28.144  24.169   2.320
44854W        W 8611  37.917  37.955  13.498
44855W        W 8612  33.599  11.843   3.385
44856W        W 8613  19.163   2.357  13.317
44857W        W 8614  32.429  24.218   4.115
44858W        W 8615  34.990   4.760  12.573
44859W        W 8616   3.443  10.876  13.964
44860W        W 8617  22.607  17.199  12.922
44861W        W 8618  38.332  44.444  10.643
44862W        W 8619  27.103   9.327   4.627
44863W        W 8620  30.431  39.024   0.263
44864W        W 8621  17.625  28.187  12.444
44865W        W 8622   1.758   0.426   2.798
44866W        W 8623   0.286  38.386  14.316
44867W        W 8624  15.732   8.787   2.334
44868W        W 8625  41.971  19.749   0.411
44869W        W 8626  39.395  34.035  12.837
44870W        W 8627  34.868   3.268   1.702
44871W        W 8628  37.041  40.875  11.576
44872W        W 8629  25.150  29.141   2.844
44873W        W 8630  42.389   7.805   4.702
44874W        W 8631  31.612  30.950   4.647
44875W        W 8632  34.087  12.200  14.329
44876W        W 8633  44.394  38.833  13.347
44877W        W 8634  44.417  11.621   5.267
44878W        W 8635   2.938  23.621   1.359
44879W        W 8636   3.336  37.447  13.406
44880W        W 8637   9.373  13.255   2.184
44881W        W 8638   9.356  30.452  11.869
44882W        W 8639  36.098  29.967  11.003
44883W        W 8640  38.422   6.741   0.913
44884W        W 8641   2.899  27.507   1.221
44885W        W 8642  22.027  29.122   3.847
44886W        W 8643  22.191  24.686  14.765
44887W        W 8644   4.921  19.272   0.775
44888W        W 8645  28.049  22.515  10.941
44889W        W 8646  30.593  33.423   0.856
44890W        W 8647  36.572  22.028   3.349
44891W        W 8648  24.178  19.078   3.155
44892W        W 8649  14.263  30.589   2.275
44893W        W 8650  35.891   6.259   0.390
44894W        W 8651   6.272  26.056  14.901
44895W        W 8652   8.784  15.800   1.354
44896W        W 8653  32.062   1.374  14.424
44897W        W 8654  18.234  15.148   1.708
44898W        W 8655   3.949  30.612   0.283
44899W        W 8656  28.940  26.002   4.138
44900W        W 8657  41.498  44.347  12.571
44901W        W 8658  25.141  29.075  14.457
44902W        W 8659  15.597  16.800   0.381
44903W        W 8660  23.655   1.952   0.462
44904W        W 8661  33.042  15.656   4.132
44905W        W 8662  28.579  28.602   1.788
44906W        W 8663   7.673  13.610  14.278
44907W        W 8664  42.826   4.882  10.607
44908W        W 8665   8.238   1.347  12.896
44909W        W 8666   8.764  43.784   2.819
44910W        W 8667  16.180  40.799  11.079
44911W        W 8668  26.118  40.336   3.147
44912W        W 8669  17.562  42.022   3.284
44913W        W 8670   7.847  21.257  12.060
44914W        W 8671  36.551  43.418   1.847
44915W        W 8672   6.884   0.472  14.882
44916W        W 8673   2.829  44.418  12.971
44917W        W 8674  23.142  37.918  11.028
44918W        W 8675  39.533   5.734   3.790
44919W        W 8676  35.463  40.906  14.483
44920W        W 8677  34.386   2.384   0.476
44921W        W 8678  29.148  11.724   0.873
44922W        W 8679  33.473  42.403  14.478
44923W        W 8680  28.605  18.708   0.737
44924W        W 8681  24.583  17.070   3.764
44925W        W 8682  26.033  12.772  12.340
44926W        W 8683  42.294   3.375  12.962
44927W        W 8684  31.447   8.736  14.317
44928W        W 8685  41.904  15.263   2.206
44929W        W 8686  11.745  19.614   2.410
44930W        W 8687  42.964  24.195   1.860
44931W        W 8688  13.295  34.479  11.440
44932W        W 8689  39.491  37.367   1.443
44933W        W 8690   9.736  40.526  14.761
44934W        W 8691  37.550  33.903   0.359
44935W        W 8692  30.472  21.164  14.437
44936W        W 8693   3.721  40.498  11.376
44937W        W 8694   9.836   2.789   4.182
44938W        W 8695  16.151  43.816   3.815
44939W        W 8696  30.928  30.453   0.927
44940W        W 8697  25.031  20.561   3.702
44941W        W 8698  10.176  43.353   4.246
44942W        W 8699  40.362  40.904  12.564
44943W        W 8700  13.844  20.708  11.908
44944W        W 8701   1.445  23.491  12.374
44945W        W 8702  20.567   8.381   2.399
44946W        W 8703  43.344  33.911  10.985
44947W        W 8704   3.855   3.936  11.400
44948W        W 8705  18.617   0.767   0.790
44949W        W 8706  25.053  34.072   2.740
44950W        W 8707  32.927  29.025  11.890
44951W        W 8708   3.864  33.093   4.690
44952W        W 8709  18.687  22.653  13.467
44953W        W 8710  31.464  36.549  10.511
44954W        W 8711  32.472  16.093   0.800
44955W        W 8712  28.546  39.004  11.897
44956W        W 8713  39.411  22.631  12.825
44957W        W 8714  23.690  21.050   2.325
44958W        W 8715  27.094  30.623  14.347
44959W        W 8716  39.053  22.043  13.391
44960W        W 8717   2.890  44.987   2.883
44961W        W 8718  15.212  31.953   3.229
44962W        W 8719   8.753  19.745  13.547
44963W        W 8720  43.791  10.328   3.768
44964W        W 8721   4.850  39.986  11.906
44965W        W 8722  18.723  24.976  14.934
44966W        W 8723  37.358  41.927   1.720
44967W        W 8724  41.524  15.713  13.482
44968W        W 8725   0.867   1.404  14.937
44969W        W 8726  35.439  12.328  12.390
44970W        W 8727  32.017  32.009   0.278
44971W        W 8728  37.989  42.948   4.724
44972W        W 8729  39.495   1.430   0.451
44973W        W 8730  41.421   7.202  11.906
44974W        W 8731   7.313  13.655  10.542
44975W        W 8732  12.291  35.507   4.319
44976W        W 8733  27.568   8.677  11.117
44977W        W 8734  34.410  39.376   4.787
44978W        W 8735  17.239  31.479   3.364
44979W        W 8736  33.501   7.902   3.263
44980W        W 8737  15.205   3.849   3.364
44981W        W 8738  31.152  13.228   1.906
44982W        W 8739  22.239  36.092   0.373
44983W        W 8740  26.599   9.845   2.831
44984W        W 8741   0.770  37.340   4.669
44985W        W 8742  13.237  27.452   2.748
44986W        W 8743  10.834  27.548  10.588
44987W        W 8744   7.214  19.096   4.785
44988W        W 8745  38.000  38.005   4.698
44989W        W 8746  35.071  29.552  12.947
44990W        W 8747  33.880  24.121  11.403
44991W        W 8748  28.544  19.648   2.279
44992W        W 8749   2.429  23.236   4.170
44993W        W 8750   9.863  44.472   1.231
44994W        W 8751  22.229   5.907   0.369
44995W        W 8752  29.501  33.885  14.793
44996W        W 8753  10.368  11.774  14.975
44997W        W 8754   2.391  22.230   1.861
44998W        W 8755  13.670  41.442  11.476
44999W        W 8756  15.605  23.201  11.995
45000W        W 8757  31.010  34.496   2.843
45001W        W 8758  40.807  24.068  12.348
45002W        W 8759   6.800  19.690   3.203
45003W        W 8760  16.297  34.902   3.725
45004W        W 8761  12.360  40.916   2.331
45005W        W 8762  36.849  33.499   0.846
45006W        W 8763  44.452  16.238   4.158
45007W        W 8764  25.470  22.581   2.237
45008W        W 8765  43.509   5.785   0.359
45009W        W 8766  42.985  22.146   0.876
45010W        W 8767  15.618  33.989  13.837
45011W        W 8768  18.602  10.308   0.301
45012W        W 8769  38.819  16.312   3.193
45013W        W 8770  42.502  35.038  10.429
45014W        W 8771  20.532  33.488   9.970
45015W        W 8772  20.125  18.770  11.968
45016W        W 8773  14.095  35.514  12.943
45017W        W 8774  43.279  13.111  11.602
45018W        W 8775  36.071   2.281   4.718
45019W        W 8776  15.635  27.578   2.699
45020W        W 8777  39.488  15.700   4.189
45021W        W 8778  27.638  29.513  12.989
45022W        W 8779  11.856  44.429   2.788
45023W        W 8780  26.160  21.662  13.367
45024W        W 8781   5.766   9.692  12.079
45025W        W 8782  28.681  14.820   3.316
45026W        W 8783  23.064  24.639  10.437
45027W        W 8784  14.097  19.611   0.433
45028W        W 8785  32.067   4.768   2.867
45029W        W 8786  24.141  16.130  13.814
45030W        W 8787  19.251  32.595   1.790
45031W        W 8788  37.053  36.509   2.178
45032W        W 8789  12.809   3.318   2.784
45033W        W 8790  12.758  40.404  14.773
45034W        W 8791  31.116  25.181   2.404
45035W        W 8792  41.412  40.532   3.343
45036W        W 8793  18.218  20.077   2.257
45037W        W 8794   2.321  14.144  12.379
45038W        W 8795  16.149  12.816  14.805
45039W        W 8796  33.388  11.826  14.939
45040W        W 8797  25.533  12.117   0.353
45041W        W 8798  15.677  44.010   2.410
45042W        W 8799  41.015  28.149   3.681
45043W        W 8800  30.054  37.568  10.159
45044W        W 8801  24.113   0.333  10.622
45045W        W 8802  37.011   2.430  14.359
45046W        W 8803  43.903   0.900  14.351
45047W        W 8804   6.759  21.599   2.344
45048W        W 8805  17.215   3.350  13.792
45049W        W 8806  24.690  10.343  12.863
45050W        W 8807  32.913  26.988   0.761
45051W        W 8808   8.286   4.446   1.878
45052W        W 8809  25.121  42.918   1.753
45053W        W 8810  26.114  31.426  11.472
45054W        W 8811   9.265  18.087   0.777
45055W        W 8812   1.784  19.713   0.403
45056W        W 8813  39.916  41.995   3.233
45057W        W 8814  41.850  26.626  10.577
45058W        W 8815  41.333  33.578  14.024
45059W        W 8816   0.845  32.419  11.518
45060W        W 8817  42.800  23.726   4.299
45061W        W 8818   8.851  38.475  11.599
45062W        W 8819  29.458  26.990  13.957
45063W        W 8820  23.004  19.602   4.349
45064W        W 8821  33.879  20.695  13.423
45065W        W 8822  21.746   8.283   0.929
45066W        W 8823  24.228  42.005  13.502
45067W        W 8824  14.759  42.930  13.445
45068W        W 8825  22.016   8.884  14.432
45069W        W 8826  37.351  10.148  12.360
45070W        W 8827  21.155  39.423   1.427
45071W        W 8828  36.560   4.273   0.735
45072W        W 8829  38.545   1.754  13.017
45073W        W 8830  24.581  24.038   2.284
45074W        W 8831  28.573  40.374   1.428
45075W        W 8832   8.318  29.932  14.314
45076W        W 8833   0.342  37.926   4.153
45077W        W 8834  41.523  15.642  13.882
45078W        W 8835  25.077   1.452   0.420
45079W        W 8836  13.297  11.226  13.348
45080W        W 8837   2.368  17.772   4.621
45081W        W 8838  42.364   0.413   1.236
45082W        W 8839  18.114  24.230   0.881
45083W        W 8840  44.788   5.350  11.414
45084W        W 8841   0.461  42.489  12.994
45085W        W 8842  26.472  22.638  13.545
45086W        W 8843  31.016  12.343   1.796
45087W        W 8844   7.738  43.471  12.075
45088W        W 8845  43.468   7.365   4.266
45089W        W 8846   4.383  28.478   4.189
45090W        W 8847  27.072  35.896   4.681
45091W        W 8848  12.184  19.193   1.380
45092W        W 8849   8.849   9.272   1.348
45093W        W 8850   7.702  41.018  14.894
45094W        W 8851  36.529  19.135  11.429
45095W        W 8852  13.776  23.225   2.266
45096W        W 8853  38.045   6.335  11.923
45097W        W 8854  35.501  42.408  10.950
45098W        W 8855  28.675   9.272   1.893
45099W        W 8856   7.902  26.086  10.629
45100W        W 8857  20.582  17.626  12.342
45101W        W 8858  17.181  27.565  13.825
45102W        W 8859  13.268  15.616  11.050
45103W        W 8860   9.839  31.542   2.288
45104W        W 8861  41.032  43.391   4.629
45105W        W 8862  23.688  27.177  13.864
45106W        W 8863  32.607  43.869  11.983
45107W        W 8864  34.918  37.017   1.425
45108W        W 8865  20.172  32.614   2.253
45109W        W 8866   0.447  30.997  12.506
45110W        W 8867   7.330  27.636   4.661
45111W        W 8868  33.007  13.337  11.968
45112W        W 8869   1.263  10.150   2.800
45113W        W 8870  42.946  38.860   0.355
45114W        W 8871  11.315  23.222   3.808
45115W        W 8872  41.021  30.003   4.785
45116W        W 8873   1.807  44.888  13.973
45117W        W 8874   8.160   7.766  12.551
45118W        W 8875  36.362  44.456   2.389
45119W        W 8876  43.493   2.861   2.306
45120W        W 8877  18.085  44.952  12.881
45121W        W 8878  10.147  15.770   1.364
45122W        W 8879  37.982  22.075  13.866
45123W        W 8880  25.133  14.166   3.176
45124W        W 8881  26.198  14.119   2.260
45125W        W 8882  24.570  27.098   0.297
45126W        W 8883  36.062  11.316   2.775
45127W        W 8884  10.360   6.712  11.996
45128W        W 8885  31.492   2.432   0.425
45129W        W 8886  12.294  44.394  14.938
45130W        W 8887  30.431  30.575  12.000
45131W        W 8888   8.248  28.664   3.333
45132W        W 8889  41.963  31.579   3.364
45133W        W 8890  37.525  25.967   1.224
45134W        W 8891  28.085  15.681  13.963
45135W        W 8892  26.541   2.438  12.468
45136W        W 8893  30.912  16.115   1.926
45137W        W 8894   8.739  21.558   1.292
45138W        W 8895  32.608  14.647  10.442
45139W        W 8896  14.270  19.228  10.924
45140W        W 8897   1.415   9.188   1.809
45141W        W 8898  23.097  18.776   3.761
45142W        W 8899  42.933  10.294   4.129
45143W        W 8900   2.373  42.440   0.957
45144W        W 8901  40.524   1.482  14.375
45145W        W 8902  34.983   2.829   1.249
45146W        W 8903   3.337   6.298  14.988
45147W        W 8904  11.129  16.149   0.897
45148W        W 8905   1.265  29.141  10.474
45149W        W 8906   3.921  33.608   0.888
45150W        W 8907  36.983  27.103   0.268
45151W        W 8908  22.605  29.550  11.483
45152W        W 8909  42.491  26.978  13.900
45153W        W 8910  19.535   9.713   4.141
45154W        W 8911  38.508  24.146  13.410
45155W        W 8912  29.983  44.942   3.379
45156W        W 8913   6.265  21.150   4.719
45157W        W 8914  29.133   3.299  10.039
45158W        W 8915   2.879  28.167  13.341
45159W        W 8916  39.369  18.181  14.023
45160W        W 8917  22.152  39.975  11.104
45161W        W 8918   1.875  44.452  11.527
45162W        W 8919  10.296  40.924   3.168
45163W        W 8920  20.750  27.122   0.409
45164W        W 8921  13.611   4.422  11.497
45165W        W 8922  25.171  34.452   4.341
45166W        W 8923  11.676   3.382  12.565
45167W        W 8924  36.044  15.147  13.820
45168W        W 8925  35.536  22.654   3.741
45169W        W 8926  24.635  27.514   3.265
45170W        W 8927  32.041   7.301   2.221
45171W        W 8928  27.121  34.471  10.618
45172W        W 8929  27.562  43.483  10.504
45173W        W 8930  18.206  42.873  13.946
45174W        W 8931  10.219  32.426  13.871
45175W        W 8932  27.489  15.263   0.406
45176W        W 8933   7.911  24.656  10.621
45177W        W 8934  20.746   0.315  11.049
45178W        W 8935   8.267  43.826   2.809
45179W        W 8936  17.675  40.412   2.188
45180W        W 8937  29.578   5.895  13.375
45181W        W 8938  41.912  42.933  14.764
45182W        W 8939  24.998   3.772   1.283
45183W        W 8940  23.523  32.912   3.249
45184W        W 8941  26.534  18.123   2.708
45185W        W 8942  43.293  41.494  12.411
45186W        W 8943   0.885  13.723   1.450
45187W        W 8944  15.612  22.702   4.120
45188W        W 8945  30.115  44.269   4.328
45189W        W 8946  40.031  36.486   3.179
45190W        W 8947  21.070  34.107  11.492
45191W        W 8948  30.158   8.402   4.122
45192W        W 8949  39.552  16.671  13.799
45193W        W 8950  33.105  13.658  14.903
45194W        W 8951  28.107  30.046  12.866
45195W        W 8952  26.015  35.542   3.741
45196W        W 8953   9.675  40.959   4.151
45197W        W 8954   6.381  10.261  14.927
45198W        W 8955  13.286   8.698  13.388
45199W        W 8956  40.427  32.096  12.448
45200W        W 8957  42.315  15.628   1.694
45201W        W 8958   2.409  19.730  14.990
45202W        W 8959  15.317  35.483   4.787
45203W        W 8960   3.750  21.228   0.452
45204W        W 8961  22.151  17.240  14.300
45205W        W 8962  26.089  10.772  13.837
45206W        W 8963   4.278  35.969   4.208
45207W        W 8964  32.930  13.712   1.266
45208W        W 8965   0.792   9.646  12.349
45209W        W 8966  41.954  34.550   1.426
45210W        W 8967   4.774   9.234   1.355
45211W        W 8968   9.865  24.646  11.113
45212W        W 8969  10.773  22.636  11.508
45213W        W 8970  30.050  10.342   1.387
45214W        W 8971  15.806  44.943  12.067
45215W        W 8972  32.898   5.784  14.355
45216W        W 8973  34.541   6.866  10.612
45217W        W 8974  10.638   0.426  10.599
45218W        W 8975   3.862  23.171   4.275
45219W        W 8976  14.772  20.237  12.581
45220W        W 8977   6.227   8.672  11.388
45221W        W 8978   3.711   1.929   1.751
45222W        W 8979  26.492  42.326   4.722
45223W        W 8980  25.201   3.844  14.501
45224W        W 8981  40.527  14.616  12.894
45225W        W 8982  39.022  35.077   4.243
45226W        W 8983  12.619   5.813   0.759
45227W        W 8984   3.329  10.235  10.986
45228W        W 8985  37.918   9.719   2.701
45229W        W 8986  31.606  31.609  14.795
45230W        W 8987  22.518   4.423  14.479
45231W        W 8988  16.668  33.471  11.976
45232W        W 8989   7.228  21.063   4.704
45233W        W 8990  32.531   6.915   4.650
45234W        W 8991  32.101  40.871  12.906
45235W        W 8992  10.272  21.193   0.734
45236W        W 8993   6.312  16.614   4.219
45237W        W 8994  26.631   3.263   3.149
45238W        W 8995  43.976  19.642   2.364
45239W        W 8996   0.490  39.337   0.923
45240W        W 8997   3.346  38.873   1.267
45241W        W 8998  15.285  34.021   4.683
45242W        W 8999   7.342  37.563  13.040
45243W        W 9000  15.692  35.596   0.325
45244W        W 9001  19.137  41.820   2.786
45245W        W 9002  16.647   9.330   3.197
45246W        W 9003  42.906  10.701   4.704
45247W        W 9004  12.188  15.646  12.860
45248W        W 9005  32.053  17.682  12.861
45249W        W 9006  27.535  34.924  12.920
45250W        W 9007   5.693   1.970   0.470
45251W        W 9008   9.673  24.097   1.352
45252W        W 9009  17.638  39.837   1.721
45253W        W 9010   0.490  44.494  14.001
45254W        W 9011   9.156  27.504   1.309
45255W        W 9012   9.273  39.877  13.382
45256W        W 9013  43.436   3.407   5.184
45257W        W 9014   4.410  16.751   2.275
45258W        W 9015  25.025  39.451   3.763
45259W        W 9016   4.901   8.267   4.214
45260W        W 9017  31.016  30.600   3.714
45261W        W 9018  44.799  38.852   0.478
45262W        W 9019   9.200  15.275  11.111
45263W        W 9020  44.990  13.776  10.550
45264W        W 9021  18.642  32.562  14.887
45265W        W 9022  44.983  43.484   3.696
45266W        W 9023  28.092  44.972  11.494
45267W        W 9024  14.638  26.641   0.753
45268W        W 9025   5.725   2.913   4.154
45269W        W 9026  23.708  37.524   4.792
45270W        W 9027  37.494  44.497  10.640
45271W        W 9028  37.866  39.343   4.811
45272W        W 9029  36.458  17.112  12.035
45273W        W 9030  37.020  27.484  13.529
45274W        W 9031  41.427  22.063   1.214
45275W        W 9032   4.829  20.724   3.239
45276W        W 9033   6.778  31.625  10.925
45277W        W 9034  14.095   0.899  14.012
45278W        W 9035  39.915  31.120   3.293
45279W        W 9036  14.666  38.549  10.944
45280W        W 9037  38.990  10.252  11.532
45281W        W 9038  17.069  38.948   2.318
45282W        W 9039  26.517  29.438   2.348
45283W        W 9040  33.926  27.164   3.668
45284W        W 9041  29.137  42.837   3.786
45285W        W 9042  13.714  34.933   3.792
45286W        W 9043  43.950  43.366   4.735
45287W        W 9044  26.193   1.869  12.402
45288W        W 9045  37.019   2.320  13.321
45289W        W 9046  23.011  32.968  12.933
45290W        W 9047  29.137  23.600   1.403
45291W        W 9048  20.768   2.359  13.792
45292W        W 9049  29.477  24.597  13.427
45293W        W 9050  38.057  38.928  12.356
45294W        W 9051  18.147  44.842  10.540
45295W        W 9052  27.475  27.649   4.724
45296W        W 9053   5.347  41.496  14.466
45297W        W 9054  28.554   3.859  14.894
45298W        W 9055   2.932  33.455   3.274
45299W        W 9056  20.060  40.012  13.487
45300W        W 9057  16.615   9.195   2.222
45301W        W 9058   9.314  16.223   2.757
45302W        W 9059  31.071  37.556   2.292
45303W        W 9060  19.238  27.083  14.002
45304W        W 9061  33.474   2.454   1.401
45305W        W 9062  17.209   6.250   5.103
45306W        W 9063  38.075  13.329  13.802
45307W        W 9064  32.899   2.284   4.776
45308W        W 9065   6.224   5.420  11.495
45309W        W 9066  24.189  39.015  14.375
45310W        W 9067   1.294  28.969   4.816
45311W        W 9068  13.235   6.816   0.410
45312W        W 9069  28.438  31.113   1.258
45313W        W 9070  31.004   9.664  13.460
45314W        W 9071  24.219   1.338   0.856
45315W        W 9072  17.259   7.295   2.873
45316W        W 9073  30.128  40.923  14.887
45317W        W 9074  40.479   4.706   5.250
45318W        W 9075   4.207  36.575   4.152
45319W        W 9076   1.396   2.923  11.914
45320W        W 9077   7.777  28.116   3.274
45321W        W 9078  33.607  31.579   3.149
45322W        W 9079  17.120   8.810   4.271
45323W        W 9080   8.666  42.002   0.948
45324W        W 9081  27.633  30.421   2.888
45325W        W 9082  35.080  31.970   2.789
45326W        W 9083   7.251  33.621   2.226
45327W        W 9084   3.867  29.938   4.186
45328W        W 9085  37.038  36.086   4.829
45329W        W 9086   4.217  10.665   3.382
45330W        W 9087  26.005  42.501   0.878
45331W        W 9088  15.716   8.702  11.082
45332W        W 9089  17.747  44.462   5.315
45333W        W 9090  17.213   3.244  11.948
45334W        W 9091  33.431  10.790   0.404
45335W        W 9092   9.202  29.109   3.842
45336W        W 9093   4.239   2.904   4.189
45337W        W 9094  44.318   8.243   3.223
45338W        W 9095   0.757  43.295  12.875
45339W        W 9096  28.050   2.950  11.413
45340W        W 9097   0.266  10.146   4.322
45341W        W 9098  14.339  44.462   0.874
45342W        W 9099   8.863  20.627   0.465
45343W        W 9100  18.744  38.475  10.488
45344W        W 9101  25.982  21.064   5.105
45345W        W 9102  29.501  21.658  10.998
45346W        W 9103  11.216  13.299   2.413
45347W        W 9104  41.985  35.477   2.314
45348W        W 9105  39.951   1.734   0.738
45349W        W 9106  23.566  25.579  12.863
45350W        W 9107   1.479  34.521  13.479
45351W        W 9108   0.473   8.674   4.815
45352W        W 9109   3.758  29.436  12.422
45353W        W 9110  18.610  30.158   1.892
45354W        W 9111   6.426  11.660  11.916
45355W        W 9112  36.980  14.095  10.908
45356W        W 9113  19.572   9.740   2.775
45357W        W 9114   3.753  20.098  12.365
45358W        W 9115   8.342   1.361   0.370
45359W        W 9116  24.541   1.746   2.828
45360W        W 9117   5.320  21.571   2.772
45361W        W 9118  41.409   5.193  13.434
45362W        W 9119  16.672   2.460   3.217
45363W        W 9120   8.222  32.019  12.070
45364W        W 9121  19.677   7.299  12.398
45365W        W 9122  27.048  42.912  12.847
45366W        W 9123  33.412  26.603  11.080
45367W        W 9124  22.562  10.271   2.836
45368W        W 9125   8.699  44.880   1.777
45369W        W 9126  30.946  12.320  14.345
45370W        W 9127  20.534  26.568   4.686
45371W        W 9128  35.411  20.039   2.315
45372W        W 9129  24.167  10.783   4.635
45373W        W 9130  40.952  16.263  12.365
45374W        W 9131  36.422  10.184   0.265
45375W        W 9132   5.809  19.772  14.864
45376W        W 9133  23.998   3.366  14.887
45377W        W 9134  21.039  12.301   4.767
45378W        W 9135  30.138  13.195   0.780
45379W        W 9136  44.001   8.771   3.823
45380W        W 9137  25.142  25.532  10.923
45381W        W 9138  16.712  36.011   4.306
45382W        W 9139  20.674  12.265  11.856
45383W        W 9140  34.385  42.349   3.221
45384W        W 9141  14.682  17.173  11.904
45385W        W 9142  40.420  10.229  10.478
45386W        W 9143  14.128   0.292  12.412
45387W        W 9144  30.607  19.175  13.416
45388W        W 9145   1.395  21.041   2.703
45389W        W 9146  14.298  22.109   0.405
45390W        W 9147  22.208  16.595  12.889
45391W        W 9148  40.048  43.285   2.311
45392W        W 9149  22.601   7.874  14.388
45393W        W 9150  17.732  37.838   4.613
45394W        W 9151  38.509   3.244   1.897
45395W        W 9152   9.227  10.727   2.688
45396W        W 9153   6.384  10.172  10.944
45397W        W 9154   9.748  12.243   3.842
45398W        W 9155   2.261  42.959   3.180
45399W        W 9156  39.493  40.333   1.930
45400W        W 9157  35.371  18.206   4.752
45401W        W 9158  13.155  18.108   3.345
45402W        W 9159  30.080  43.351  14.922
45403W        W 9160  32.935   7.362   3.294
45404W        W 9161  33.575   6.238  12.871
45405W        W 9162  28.110  13.784   9.456
45406W        W 9163   5.294  30.066  14.420
45407W        W 9164  12.830  17.641   3.359
45408W        W 9165   6.427  29.666  13.924
45409W        W 9166  41.520  26.097   1.802
45410W        W 9167  22.098  10.152  12.022
45411W        W 9168  13.212  42.837  10.921
45412W        W 9169  11.272  44.279  14.294
45413W        W 9170   6.261   0.817  10.547
45414W        W 9171  36.897   5.765   2.667
45415W        W 9172   1.938  27.159  11.586
45416W        W 9173  42.885  17.195  11.382
45417W        W 9174   6.719  22.599   2.795
45418W        W 9175   1.434  34.119   1.812
45419W        W 9176  33.386  15.654  10.645
45420W        W 9177   2.891  12.736   2.755
45421W        W 9178  23.692  42.339  14.901
45422W        W 9179  26.509  14.812  11.375
45423W        W 9180  36.043  23.530  11.913
45424W        W 9181  26.582  34.590   0.271
45425W        W 9182  40.437  30.074   1.704
45426W        W 9183  22.677   1.876   1.354
45427W        W 9184   9.356  26.989   2.219
45428W        W 9185  41.410   4.286   0.793
45429W        W 9186  24.174  35.094  13.831
45430W        W 9187  16.310   9.274  13.994
45431W        W 9188   7.907  25.987  11.072
45432W        W 9189  12.202  18.223   0.462
45433W        W 9190  17.274  24.586  12.861
45434W        W 9191  20.652  40.025   3.249
45435W        W 9192  29.506  38.564  12.356
45436W        W 9193   7.842  16.297   3.838
45437W        W 9194  40.977  10.304  14.024
45438W        W 9195  24.631  41.499  10.546
45439W        W 9196  17.797  20.672   0.354
45440W        W 9197  31.414   5.289   1.338
45441W        W 9198  22.732  12.743  13.386
45442W        W 9199  24.696  35.934   0.954
45443W        W 9200  31.106  26.064   4.161
45444W        W 9201  36.896  23.702  14.392
45445W        W 9202  23.549  41.999   3.633
45446W        W 9203  15.162  16.163   1.259
45447W        W 9204  15.649   4.879  12.844
45448W        W 9205  17.265  32.006  14.353
45449W        W 9206  14.173  31.931  11.110
45450W        W 9207  24.518  18.140  12.516
45451W        W 9208  15.635  22.533   0.960
45452W        W 9209  25.521  18.182  12.077
45453W        W 9210  24.509  37.910   0.384
45454W        W 9211  14.290   5.206   0.907
45455W        W 9212  26.960  38.861  12.966
45456W        W 9213  32.477   5.206  11.004
45457W        W 9214   6.389  21.534  11.512
45458W        W 9215  14.164  32.477  14.917
45459W        W 9216   4.717  12.244   4.121
45460W        W 9217  42.336   8.382  14.850
45461W        W 9218  24.086   6.270   1.400
45462W        W 9219  27.074   2.451   4.612
45463W        W 9220  16.138  10.280  10.978
45464W        W 9221  40.805   3.223  11.054
45465W        W 9222  18.262  24.486  12.862
45466W        W 9223  27.054  29.121   4.675
45467W        W 9224  13.733  20.166  10.896
45468W        W 9225  25.503  40.884  11.998
45469W        W 9226  37.476  16.664   0.443
45470W        W 9227  28.143  42.843  11.018
45471W        W 9228   3.369   0.834   5.179
45472W        W 9229  25.188  42.376   0.949
45473W        W 9230  22.070  21.048   1.716
45474W        W 9231  37.032  38.503  11.525
45475W        W 9232  26.636  12.351   1.323
45476W        W 9233  41.826  19.616   5.250
45477W        W 9234  17.688   0.795   0.756
45478W        W 9235  33.037  22.026  12.575
45479W        W 9236   0.850   1.471   0.262
45480W        W 9237  28.175  43.287  12.075
45481W        W 9238   4.438  32.014   3.385
45482W        W 9239   5.336  38.955  10.915
45483W        W 9240   0.793  23.229   0.376
45484W        W 9241   8.320  27.000   0.327
45485W        W 9242  44.428  25.157  14.945
45486W        W 9243   8.867  10.272  12.393
45487W        W 9244  42.839  22.649  13.890
45488W        W 9245   7.849   7.864  14.881
45489W        W 9246  34.885  31.502   4.242
45490W        W 9247  17.758  28.007  11.403
45491W        W 9248   0.782  15.134   2.192
45492W        W 9249  22.610  39.995   0.783
45493W        W 9250  23.687  29.944  12.987
45494W        W 9251   5.758  16.265   5.708
45495W        W 9252   1.939   8.212  11.892
45496W        W 9253  33.983  38.547  13.040
45497W        W 9254  19.221  36.916   1.437
45498W        W 9255  18.136  12.662  13.814
45499W        W 9256  41.531   1.417  11.556
45500W        W 9257  23.084   6.421  12.873
45501W        W 9258  20.532   1.934  14.341
45502W        W 9259  35.084  22.506  13.448
45503W        W 9260  27.448  23.715   3.751
45504W        W 9261  24.023  41.374  12.095
45505W        W 9262  32.023  35.907  14.921
45506W        W 9263  10.709  15.668   0.828
45507W        W 9264  41.446  23.226   1.338
45508W        W 9265  28.458   8.163   2.307
45509W        W 9266  40.861  37.455   2.269
45510W        W 9267   7.396   3.382  14.373
45511W        W 9268   5.758  44.311   4.645
45512W        W 9269  42.839   9.269   4.204
45513W        W 9270  24.199  41.014  13.318
45514W        W 9271  15.806  36.471   0.967
45515W        W 9272  27.176  14.638   2.692
45516W        W 9273  17.305  37.402   4.637
45517W        W 9274  40.352  10.732  12.578
45518W        W 9275  31.555  14.233   0.369
45519W        W 9276  31.563  43.930  11.395
45520W        W 9277  25.179  40.933   1.866
45521W        W 9278  27.019  29.083  14.319
45522W        W 9279  18.096   9.213  14.289
45523W        W 9280  25.539   3.407  13.807
45524W        W 9281  23.580   0.285  10.467
45525W        W 9282   2.960  27.488   4.257
45526W        W 9283  33.987  34.535  11.000
45527W        W 9284  43.890  17.612  11.469
45528W        W 9285   5.391  26.574  11.397
45529W        W 9286   9.789  36.497  13.049
45530W        W 9287  13.722  39.955   1.346
45531W        W 9288   9.292  35.491  13.984
45532W        W 9289   2.375   5.904  14.471
45533W        W 9290   5.828   5.203   4.758
45534W        W 9291  19.177  22.583  12.549
45535W        W 9292  36.056  32.597  13.937
45536W        W 9293   7.210  44.787  11.584
45537W        W 9294  36.075  12.218   3.265
45538W        W 9295   6.182  27.640  13.831
45539W        W 9296   9.645  40.810  13.847
45540W        W 9297   9.320   8.671  13.492
45541W        W 9298   3.282   9.738  11.013
45542W        W 9299   1.794   5.752  11.529
45543W        W 9300  31.427  10.827  13.519
45544W        W 9301  21.145   2.804  13.993
45545W        W 9302  26.694   7.315   2.690
45546W        W 9303  24.065   0.907   3.789
45547W        W 9304  21.575  15.794  11.878
45548W        W 9305  30.588   2.257  12.537
45549W        W 9306  35.055   9.843   4.729
45550W        W 9307  34.993  19.655   3.187
45551W        W 9308  43.318  10.164  12.541
45552W        W 9309   3.770  44.339   4.618
45553W        W 9310  44.426  30.658   1.295
45554W        W 9311  37.845  15.708   1.817
45555W        W 9312  24.662  35.494  13.521
45556W        W 9313  40.015  43.488   4.142
45557W        W 9314  30.616  34.895  12.511
45558W        W 9315  28.680  16.701   5.756
45559W        W 9316  27.520  44.918   1.761
45560W        W 9317  22.048  13.139   2.834
45561W        W 9318  44.921  44.965   0.281
45562W        W 9319  38.349  27.195  14.885
45563W        W 9320   0.292  16.768   4.652
45564W        W 9321   6.778  14.242   0.896
45565W        W 9322  37.075  24.179  10.408
45566W        W 9323  17.142  40.337   4.619
45567W        W 9324  19.042  27.119   0.316
45568W        W 9325   2.868  38.935  14.405
45569W        W 9326  17.088  41.300  14.896
45570W        W 9327  24.083  22.576  10.496
45571W        W 9328   1.283  40.949  13.497
45572W        W 9329  16.183   4.759  13.400
45573W        W 9330   4.940   5.266  14.833
45574W        W 9331  17.210  38.353   1.873
45575W        W 9332  36.570  24.975  11.438
45576W        W 9333  32.057  19.213  11.540
45577W        W 9334   4.719  19.761  11.462
45578W        W 9335  38.488  32.480   2.771
45579W        W 9336  37.941   6.729   4.159
45580W        W 9337  24.564   7.214  11.431
45581W        W 9338   4.743  39.027  12.025
45582W        W 9339  32.950  37.579   1.446
45583W        W 9340  38.919   3.246  11.469
45584W        W 9341  25.083  44.401  13.051
45585W        W 9342   1.327   6.914   3.323
45586W        W 9343  27.017  22.067  12.920
45587W        W 9344  40.798  36.049  10.976
45588W        W 9345  17.125  16.258   2.358
45589W        W 9346  30.650   5.799   3.690
45590W        W 9347  28.612  12.167  13.325
45591W        W 9348  24.645  40.971   1.705
45592W        W 9349   3.758  20.693  10.494
45593W        W 9350  35.107   4.324  10.508
45594W        W 9351  12.698   6.254   1.815
45595W        W 9352  17.108  34.455   2.861
45596W        W 9353  30.622   9.684   3.745
45597W        W 9354  24.126  13.802   3.697
45598W        W 9355   8.692  18.137  13.514
45599W        W 9356   2.380  17.644  11.080
45600W        W 9357  36.392  30.956  10.603
45601W        W 9358   9.692  36.424  12.048
45602W        W 9359   4.215   7.852  11.536
45603W        W 9360  19.573  31.541  14.283
45604W        W 9361  44.463  29.587  14.459
45605W        W 9362   6.898  14.745  13.384
45606W        W 9363  24.622  17.724   1.804
45607W        W 9364  25.676   2.376  10.991
45608W        W 9365  27.477  34.119  11.518
45609W        W 9366  32.108  15.593   5.207
45610W        W 9367   6.852  33.131   4.275
45611W        W 9368  12.680  38.431   4.347
45612W        W 9369   9.757  29.118  12.466
45613W        W 9370  43.858  14.220   2.314
45614W        W 9371  14.267  27.013   1.854
45615W        W 9372   0.247  40.535  11.910
45616W        W 9373  42.993   2.424  14.498
45617W        W 9374   6.391  42.898  12.560
45618W        W 9375  41.826   5.378   0.853
45619W        W 9376  32.402  39.044  11.066
45620W        W 9377  33.887  29.930  10.969
45621W        W 9378  18.722  39.017   0.450
45622W        W 9379  42.509   7.883  11.017
45623W        W 9380  29.484   1.247  11.521
45624W        W 9381  11.308   7.188   0.911
45625W        W 9382   4.864  31.050  14.991
45626W        W 9383  11.684  13.601   2.190
45627W        W 9384  21.517  36.058  12.991
45628W        W 9385  29.627  23.516  11.533
45629W        W 9386  18.677  30.472  10.573
45630W        W 9387  21.049  25.478   5.222
45631W        W 9388  10.230  36.047   1.808
45632W        W 9389  40.315  31.055   0.767
45633W        W 9390  25.512  13.615  10.054
45634W        W 9391   3.861  18.130   2.342
45635W        W 9392  10.208   6.182   1.799
45636W        W 9393   7.212   6.708   0.292
45637W        W 9394  23.226  31.556   3.375
45638W        W 9395  37.954  44.473   4.160
45639W        W 9396   1.384  19.216   4.204
45640W        W 9397  11.341  13.703   1.807
45641W        W 9398  32.942  17.069   2.774
45642W        W 9399  30.969   6.893  11.463
45643W        W 9400  16.599  41.469   2.276
45644W        W 9401  39.472  43.396  12.543
45645W        W 9402  28.117  14.143  12.068
45646W        W 9403  16.204   1.733  11.437
45647W        W 9404  11.712  39.522  12.406
45648W        W 9405   8.296  34.913   2.259
45649W        W 9406  10.851   0.982  11.919
45650W        W 9407  21.024   7.357  10.483
45651W        W 9408  25.024  42.353   3.350
45652W        W 9409  30.637  24.559   1.284
45653W        W 9410  32.049  31.599   4.717
45654W        W 9411   6.239  15.704   4.650
45655W        W 9412  26.583  27.190  11.376
45656W        W 9413   0.377  13.676   2.726
45657W        W 9414  19.154  18.127   4.281
45658W        W 9415  13.228   5.824   3.687
45659W        W 9416  28.612   9.873   3.211
45660W        W 9417  42.924  37.885   4.258
45661W        W 9418  37.917  17.592   0.284
45662W        W 9419   9.284  43.823  14.476
45663W        W 9420  11.665  43.011   1.231
45664W        W 9421  25.082  16.649   0.356
45665W        W 9422  35.465  39.810   2.335
45666W        W 9423  17.280  35.867   0.428
45667W        W 9424  15.645  30.583  12.406
45668W        W 9425  29.630   1.798   1.443
45669W        W 9426  35.090  35.036   5.103
45670W        W 9427   5.291  22.129  13.862
45671W        W 9428  36.873  41.914   1.314
45672W        W 9429   4.937  27.967   4.782
45673W        W 9430  10.712  14.728  14.306
45674W        W 9431   2.797  21.249   2.270
45675W        W 9432   3.721   2.897  13.432
45676W        W 9433  31.937   3.377   0.825
45677W        W 9434  22.730  18.095   4.746
45678W        W 9435  38.917  41.427   1.836
45679W        W 9436  20.709  27.635   4.171
45680W        W 9437  19.712  29.451   4.814
45681W        W 9438  18.556  44.830   1.874
45682W        W 9439  39.833   7.906  13.792
45683W        W 9440  34.036  24.634  10.410
45684W        W 9441  43.886  14.695   1.756
45685W        W 9442  43.008  23.138   4.746
45686W        W 9443   5.772  16.716   9.552
45687W        W 9444   1.243   7.178   0.831
45688W        W 9445  12.711  33.579  10.459
45689W        W 9446  44.362  39.325  11.889
45690W        W 9447  12.823  10.371   3.146
45691W        W 9448  19.633  20.725   2.365
45692W        W 9449  25.151   1.751  13.874
45693W        W 9450  24.050  21.096  10.981
45694W        W 9451  32.447  11.315   1.329
45695W        W 9452  26.131  42.471   0.402
45696W        W 9453  42.795   3.919   2.183
45697W        W 9454   4.753  43.983   1.762
45698W        W 9455  20.613  41.979  12.854
45699W        W 9456   9.751  18.081  10.967
45700W        W 9457  41.017  31.552   2.344
45701W        W 9458  12.668   0.297   0.859
45702W        W 9459   8.793   6.414   0.407
45703W        W 9460   5.371   2.840   2.295
45704W        W 9461  33.016  35.367   3.748
45705W        W 9462  40.319  44.426  11.081
45706W        W 9463  40.929  42.285   4.231
45707W        W 9464  29.076   1.945   0.938
45708W        W 9465  15.110  15.610  12.063
45709W        W 9466  44.767  12.764  11.513
45710W        W 9467  15.754  16.164  11.010
45711W        W 9468  35.906   9.646   4.182
45712W        W 9469  41.800  10.198  14.805
45713W        W 9470   0.832   0.830  10.640
45714W        W 9471  12.790  34.454   2.877
45715W        W 9472  39.009  19.779  14.350
45716W        W 9473  30.098  44.456  11.469
45717W        W 9474  29.503  24.195  12.015
45718W        W 9475  38.017   2.850   2.275
45719W        W 9476   3.860  26.965  12.024
45720W        W 9477  12.302   0.415   1.932
45721W        W 9478  44.414  26.575  13.373
45722W        W 9479   4.751  36.421  12.047
45723W        W 9480   3.409  38.522  12.843
45724W        W 9481  40.976   0.362   3.862
45725W        W 9482  41.526  43.997  11.974
45726W        W 9483  16.309  38.388   1.238
45727W        W 9484  33.617  14.312   0.472
45728W        W 9485  21.671  34.097   2.791
45729W        W 9486  30.656  12.169  13.849
45730W        W 9487  19.641   1.339  11.089
45731W        W 9488  32.430  12.271  13.509
45732W        W 9489  11.637  23.572  14.296
45733W        W 9490  17.126  26.552  13.548
45734W        W 9491  41.910   7.832  12.501
45735W        W 9492   0.819   6.798  13.486
45736W        W 9493  28.970  16.745   1.796
45737W        W 9494   4.708  39.898   4.680
45738W        W 9495   9.836  15.194  10.970
45739W        W 9496  35.860   1.905  10.634
45740W        W 9497  41.014   7.397   4.732
45741W        W 9498   6.835  26.174   1.744
45742W        W 9499  18.749  44.384   5.121
45743W        W 9500  27.047  28.656   0.320
45744W        W 9501  18.086   7.280   3.789
45745W        W 9502  21.583  40.954  13.347
45746W        W 9503  39.039  38.994  11.391
45747W        W 9504  22.198   2.432  13.873
45748W        W 9505  16.590  25.065   0.855
45749W        W 9506  17.608  26.462   4.177
45750W        W 9507   7.363  31.508   1.776
45751W        W 9508  25.664  29.473   3.696
45752W        W 9509  27.633  38.541  11.110
45753W        W 9510  10.218   6.395   4.310
45754W        W 9511  13.178  26.494  12.908
45755W        W 9512  14.736  37.487  13.466
45756W        W 9513  36.436  21.587  13.971
45757W        W 9514  36.881  34.109  14.775
45758W        W 9515   6.888  37.013  10.626
45759W        W 9516  31.099  28.500  14.799
45760W        W 9517  42.469  29.524  11.054
45761W        W 9518  16.078  13.683  11.058
45762W        W 9519  41.375  36.496   2.314
45763W        W 9520  13.821   6.792   2.789
45764W        W 9521  14.790  26.176  10.963
45765W        W 9522  36.092  26.664   0.966
45766W        W 9523  31.001  32.483  12.027
45767W        W 9524  29.579  27.014  10.427
45768W        W 9525  20.647   8.654  14.792
45769W        W 9526  41.395  26.022   1.250
45770W        W 9527  32.127   0.966   3.381
45771W        W 9528  21.164  31.993  12.076
45772W        W 9529  10.287  33.077  12.560
45773W        W 9530  12.231  20.248   4.188
45774W        W 9531  28.114  25.034  10.481
45775W        W 9532  19.077  25.113  13.857
45776W        W 9533  22.080  33.911   1.333
45777W        W 9534  43.892   8.874   3.367
45778W        W 9535  16.212  15.317   3.806
45779W        W 9536   9.334   3.416   2.325
45780W        W 9537  35.369  41.451  10.415
45781W        W 9538   2.921  31.553   4.731
45782W        W 9539  12.233   0.792  12.550
45783W        W 9540  19.191   7.754   4.250
45784W        W 9541  12.848  22.511   3.251
45785W        W 9542  32.435   9.183   3.709
45786W        W 9543  24.084  35.477  13.951
45787W        W 9544  35.859  13.177   4.130
45788W        W 9545  24.725  42.343  11.394
45789W        W 9546   2.252  25.683   3.640
45790W        W 9547  27.521   8.261   3.313
45791W        W 9548   8.250  17.647  14.314
45792W        W 9549   2.384  32.886   1.398
45793W        W 9550  27.452   3.905  11.972
45794W        W 9551  31.940  15.312   0.903
45795W        W 9552  29.621  42.983   2.861
45796W        W 9553  38.047  19.618   1.331
45797W        W 9554  10.233  42.845  13.033
45798W        W 9555   6.908  15.309   4.153
45799W        W 9556  25.132   5.317   0.953
45800W        W 9557  24.206   0.851   3.181
45801W        W 9558   1.860  41.391  11.016
45802W        W 9559  18.234  31.644  13.487
45803W        W 9560  33.567   0.377  12.872
45804W        W 9561   9.743  10.720  13.425
45805W        W 9562  25.487  33.618   3.721
45806W        W 9563  19.220  23.995  11.059
45807W        W 9564  36.998  36.587   3.351
45808W        W 9565  20.530  40.468   3.708
45809W        W 9566  19.120  41.506  12.068
45810W        W 9567   9.850  14.154  13.807
45811W        W 9568  42.806  36.371  11.963
45812W        W 9569  32.970  35.451   3.342
45813W        W 9570  37.889  18.201  10.634
45814W        W 9571  28.142   5.873   2.688
45815W        W 9572   4.397  13.177  13.326
45816W        W 9573   8.817  31.424  10.931
45817W        W 9574  28.638  41.987   3.640
45818W        W 9575  27.575  26.602   0.795
45819W        W 9576  41.953  37.341   4.130
45820W        W 9577  28.003  35.575  14.791
45821W        W 9578  38.355   9.863   0.963
45822W        W 9579   6.883  18.162   2.677
45823W        W 9580  14.815   7.684  14.806
45824W        W 9581  40.536  27.610  14.970
45825W        W 9582   4.882  42.986   4.775
45826W        W 9583   4.876  39.848   2.864
45827W        W 9584   8.773  15.233   4.255
45828W        W 9585   6.310  34.601   2.717
45829W        W 9586  32.928  32.034   0.443
45830W        W 9587  21.700  15.665  10.157
45831W        W 9588  21.706  38.935   4.690
45832W        W 9589   1.382  13.767   3.677
45833W        W 9590  16.224  12.734   3.322
45834W        W 9591   6.285  18.216  12.349
45835W        W 9592   2.838  12.717  13.505
45836W        W 9593   9.168   3.926  10.617
45837W        W 9594  34.591  25.498   0.908
45838W        W 9595  19.243  41.974  14.029
45839W        W 9596  40.480  16.091  13.900
45840W        W 9597   3.860  23.655   4.681
45841W        W 9598  39.961   6.901  14.439
45842W        W 9599  29.524  18.129  11.517
45843W        W 9600  18.088   1.362  11.909
45844W        W 9601  35.024   8.737  13.342
45845W        W 9602  33.954  37.498  13.793
45846W        W 9603  30.135  38.986  11.480
45847W        W 9604   2.747  42.791   2.299
45848W        W 9605  27.533   3.226  13.908
45849W        W 9606  23.215  41.011   4.212
45850W        W 9607   1.407  11.833   0.846
45851W        W 9608  26.586  29.131  13.894
45852W        W 9609   0.780  25.603  11.013
45853W        W 9610  13.336  12.338   0.374
45854W        W 9611  27.089  14.636   1.810
45855W        W 9612  31.027   9.174  10.909
45856W        W 9613   6.352   5.419   3.716
45857W        W 9614  29.537  27.625   2.773
45858W        W 9615  41.031  15.611   1.287
45859W        W 9616  32.476  36.031   2.731
45860W        W 9617  28.996   2.875   2.861
45861W        W 9618  29.508  10.788   4.700
45862W        W 9619  34.967  23.141  12.970
45863W        W 9620  37.406  33.538  13.332
45864W        W 9621  14.700  42.336  14.316
45865W        W 9622  18.680  22.508   3.815
45866W        W 9623  40.922   9.858  11.924
45867W        W 9624   3.916   7.327   2.326
45868W        W 9625  43.765  32.961  13.795
45869W        W 9626  36.462  14.805  14.397
45870W        W 9627  28.111  26.569   1.887
45871W        W 9628  38.567   1.324  10.639
45872W        W 9629   3.827   2.247  12.867
45873W        W 9630  14.730  35.968  10.002
45874W        W 9631  18.633  16.639   0.273
45875W        W 9632  26.646  39.923   1.781
45876W        W 9633  28.173  41.479  12.060
45877W        W 9634  31.908  41.318  11.976
45878W        W 9635  22.077  12.361   4.706
45879W        W 9636  16.091  22.566  13.493
45880W        W 9637  41.927  20.124  14.490
45881W        W 9638   1.457  36.878  13.388
45882W        W 9639  21.707  24.010  13.360
45883W        W 9640   0.361  38.901  12.991
45884W        W 9641   7.217  41.299  12.956
45885W        W 9642  13.169  38.409  13.531
45886W        W 9643  21.167  26.030   0.778
45887W        W 9644  21.747  12.670   1.373
45888W        W 9645  40.471  11.218   1.732
45889W        W 9646   5.907  26.053  10.594
45890W        W 9647   7.300  24.601   1.332
45891W        W 9648   7.829  26.468   3.701
45892W        W 9649  22.239  32.461  12.508
45893W        W 9650  38.403   0.278  13.463
45894W        W 9651  44.303  43.405  13.335
45895W        W 9652  19.097   8.201  14.360
45896W        W 9653  38.546  31.624  11.936
45897W        W 9654   7.869  11.129   2.755
45898W        W 9655   5.688   8.828   2.768
45899W        W 9656   4.743   2.748   0.856
45900W        W 9657  35.988  44.964  14.881
45901W        W 9658  42.351   4.209  11.029
45902W        W 9659  18.088  33.116  13.386
45903W        W 9660   9.727  14.227  12.866
45904W        W 9661  28.661  44.293   2.715
45905W        W 9662  38.338  15.790   0.818
45906W        W 9663  35.026   5.798  11.533
45907W        W 9664  23.192  12.748   1.788
45908W        W 9665   9.684  44.819  10.585
45909W        W 9666  29.637  36.906  14.489
45910W        W 9667  29.610   8.677   0.344
45911W        W 9668  26.151  36.474   4.147
45912W        W 9669  39.842   0.296  13.523
45913W        W 9670  17.603  33.094   2.358
45914W        W 9671   6.871  28.645  11.964
45915W        W 9672  42.794  23.185  11.936
45916W        W 9673  27.992  27.465  12.421
45917W        W 9674  21.578  20.759  11.429
45918W        W 9675  32.558  37.979   4.289
45919W        W 9676  22.171  18.190  11.548
45920W        W 9677  20.647  36.999   4.189
45921W        W 9678  33.393  24.580  12.525
45922W        W 9679  37.464  44.897   2.721
45923W        W 9680   7.808  14.787   4.332
45924W        W 9681  22.523  19.077   1.716
45925W        W 9682  28.088  34.947   0.895
45926W        W 9683  27.664   7.797  12.395
45927W        W 9684  38.884   0.274   3.823
45928W        W 9685  18.105   2.453  11.948
45929W        W 9686  34.880  29.581   1.855
45930W        W 9687  40.042  15.231  11.418
45931W        W 9688  44.780   9.822  13.851
45932W        W 9689  27.660  15.637   1.381
45933W        W 9690  22.118  12.201   0.246
45934W        W 9691  28.961  43.960  10.901
45935W        W 9692  44.416  10.203  12.922
45936W        W 9693  20.755  13.632   4.726
45937W        W 9694  37.495  34.591   4.160
45938W        W 9695  18.633   6.214   1.701
45939W        W 9696  33.091   8.877   4.749
45940W        W 9697   9.740  40.026   2.393
45941W        W 9698  43.882  28.631   1.215
45942W        W 9699  31.413  39.538  12.868
45943W        W 9700  17.757  34.575   1.805
45944W        W 9701  16.104  26.006   2.241
45945W        W 9702  17.713  19.054   2.307
45946W        W 9703  41.383  31.999   3.334
45947W        W 9704   8.822  30.123  10.533
45948W        W 9705  14.099  29.426   0.931
45949W        W 9706   7.679   7.220  10.911
45950W        W 9707  17.218  33.381  13.371
45951W        W 9708  38.908  26.065   3.660
45952W        W 9709  44.781  40.889   4.616
45953W        W 9710   7.774   5.715  13.422
45954W        W 9711   8.697  40.996  13.478
45955W        W 9712  15.194   2.867   3.742
45956W        W 9713  13.775  32.412  10.639
45957W        W 9714   1.762  36.943   2.685
45958W        W 9715  39.540  10.258  11.596
45959W        W 9716  28.007   1.801  13.426
45960W        W 9717   4.261   6.859   0.324
45961W        W 9718  12.319  29.613   2.689
45962W        W 9719  37.881  16.125   4.192
45963W        W 9720  38.352  11.280  14.391
45964W        W 9721  16.111  21.233  13.903
45965W        W 9722  30.944  17.213  10.539
45966W        W 9723   5.405   0.265  10.447
45967W        W 9724  34.033  10.168  13.462
45968W        W 9725  44.864   1.909  12.090
45969W        W 9726   9.234   2.425  12.026
45970W        W 9727  43.395  28.497   2.223
45971W        W 9728  18.694  30.053   1.257
45972W        W 9729   6.252   3.283   2.389
45973W        W 9730  20.228  38.505   3.807
45974W        W 9731  30.917  13.601  14.412
45975W        W 9732   4.881  14.805   2.753
45976W        W 9733  26.075  13.803  11.942
45977W        W 9734  44.756   4.346   2.832
45978W        W 9735  15.264  13.694  11.589
45979W        W 9736  41.342  35.074  10.540
45980W        W 9737   2.799  25.628  14.405
45981W        W 9738  36.485  35.917  10.630
45982W        W 9739   8.232  39.838   1.755
45983W        W 9740  36.523  19.561   4.293
45984W        W 9741   8.675  22.184  10.540
45985W        W 9742   4.432   1.365   2.295
45986W        W 9743  27.583  13.712  14.960
45987W        W 9744   0.474  20.675  12.563
45988W        W 9745  26.160  41.983  14.383
45989W        W 9746  37.893  16.573   4.774
45990W        W 9747   9.695  35.073  11.952
45991W        W 9748   6.771  37.989   2.185
45992W        W 9749  23.025   4.272  12.519
45993W        W 9750  24.198   2.255  12.558
45994W        W 9751   3.730   9.260  13.901
45995W        W 9752   0.804  19.236   1.273
45996W        W 9753  34.372  24.537   4.642
45997W        W 9754  39.855  28.130  12.393
45998W        W 9755  36.472  28.556   2.760
45999W        W 9756  27.570  28.064   2.207
46000W        W 9757  13.810  37.905   3.822
46001W        W 9758   7.738  15.258  10.619
46002W        W 9759  33.532  12.700   5.265
46003W        W 9760   9.793  34.102  14.857
46004W        W 9761  38.001  28.132  12.418
46005W        W 9762  11.827   1.843  10.613
46006W        W 9763  44.452   8.331  13.816
46007W        W 9764  23.721  17.781  13.516
46008W        W 9765  35.881  41.945  12.385
46009W        W 9766  20.065  33.910   3.690
46010W        W 9767  11.345   0.912   2.273
46011W        W 9768  39.047  44.819  12.459
46012W        W 9769   6.362  36.483  14.989
46013W        W 9770  29.629  31.961  14.842
46014W        W 9771  25.025   8.715   2.192
46015W        W 9772   3.792  21.552   0.766
46016W        W 9773   3.791   3.316   2.249
46017W        W 9774  30.445  38.465  10.636
46018W        W 9775  35.596  28.995  14.381
46019W        W 9776  33.611  14.700  10.551
46020W        W 9777  16.166  21.108  14.948
46021W        W 9778  16.139  18.711   3.715
46022W        W 9779  35.486  18.713  11.921
46023W        W 9780  42.980  27.540   2.294
46024W        W 9781  41.421  36.900  12.970
46025W        W 9782  44.867  15.810   1.779
46026W        W 9783  26.098  27.993   0.394
46027W        W 9784  32.433   6.206  14.940
46028W        W 9785  33.031  29.614   0.340
46029W        W 9786  43.317   3.245   3.800
46030W        W 9787  33.993  23.081   2.704
46031W        W 9788  26.679  22.009   3.235
46032W        W 9789  27.958  18.239  12.424
46033W        W 9790  27.083  12.289  11.054
46034W        W 9791  44.924  23.224  12.830
46035W        W 9792  44.761  41.307   3.154
46036W        W 9793   4.882  38.057   3.261
46037W        W 9794   2.338  14.607  13.530
46038W        W 9795  14.800   5.231   2.180
46039W        W 9796  10.156  33.554  12.886
46040W        W 9797  29.493   1.339   0.865
46041W        W 9798  21.544  22.028   3.826
46042W        W 9799  41.847  16.295   4.690
46043W        W 9800  29.059  22.139  13.047
46044W        W 9801   8.897   9.678   2.269
46045W        W 9802  15.717  14.715  11.075
46046W        W 9803  21.136  32.135   3.707
46047W        W 9804  28.454  18.224   5.239
46048W        W 9805  28.005  13.228   2.311
46049W        W 9806  32.971  31.412   3.265
46050W        W 9807   9.304  37.933  10.570
46051W        W 9808  12.177   1.437  13.975
46052W        W 9809  18.151  14.651  12.340
46053W        W 9810  16.704  26.574  12.893
46054W        W 9811  35.962  10.151  14.980
46055W        W 9812  40.312  37.546  12.423
46056W        W 9813  41.879  10.670  13.987
46057W        W 9814  21.038  15.712  11.114
46058W        W 9815   3.740  14.150   0.319
46059W        W 9816  12.302   6.302  14.808
46060W        W 9817   0.791  37.527   0.334
46061W        W 9818  25.561  11.265   3.338
46062W        W 9819  35.473   1.441   1.357
46063W        W 9820  25.039  19.201   3.845
46064W        W 9821   3.244  29.498  14.980
46065W        W 9822  28.631  14.188   4.683
46066W        W 9823  42.304   9.301   4.344
46067W        W 9824   6.253  31.930  10.130
46068W        W 9825  36.090  11.657   0.944
46069W        W 9826  37.012  28.589   2.372
46070W        W 9827   8.789  16.258   2.318
46071W        W 9828  19.056  26.994  10.972
46072W        W 9829   2.765  11.329   1.825
46073W        W 9830  16.185   8.738  14.417
46074W        W 9831  21.693  43.333  13.348
46075W        W 9832   5.713  28.044   2.800
46076W        W 9833  34.912  13.219  12.339
46077W        W 9834  14.745  26.551   5.194
46078W        W 9835  24.092  10.635   3.826
46079W        W 9836  40.392  39.349   2.723
46080W        W 9837  20.686  24.683   2.785
46081W        W 9838  40.495  22.125  14.012
46082W        W 9839  39.045  20.702   3.780
46083W        W 9840  20.548  14.605   4.725
46084W        W 9841  41.340  36.581   3.703
46085W        W 9842  39.529  29.956   1.401
46086W        W 9843  21.227  29.919   0.408
46087W        W 9844  11.658   5.696  11.097
46088W        W 9845   0.894  19.638   3.676
46089W        W 9846   0.914   8.397  13.501
46090W        W 9847  31.151   7.691  13.398
46091W        W 9848  25.615  12.174  13.325
46092W        W 9849  10.143  28.019   1.238
46093W        W 9850  12.624  12.218  11.081
46094W        W 9851  24.574  38.338  13.052
46095W        W 9852  24.158  14.644   0.256
46096W        W 9853  18.565  28.185  14.840
46097W        W 9854  22.146  41.375   0.353
46098W        W 9855  30.930  32.136  10.108
46099W        W 9856  43.865   2.814   0.887
46100W        W 9857  15.729  30.993   1.423
46101W        W 9858  19.568  30.128   4.286
46102W        W 9859   9.747   0.750  13.983
46103W        W 9860  37.419  38.356   1.798
46104W        W 9861  15.637   1.329  12.487
46105W        W 9862  38.896  36.514  11.006
46106W        W 9863  21.141  23.241   2.405
46107W        W 9864  19.062  28.533   0.271
46108W        W 9865  13.648  20.225  13.944
46109W        W 9866  26.149  11.860   0.867
46110W        W 9867  29.051   1.281  10.424
46111W        W 9868   1.456  32.985   4.714
46112W        W 9869  23.125  17.167  14.353
46113W        W 9870  22.150   4.413  14.900
46114W        W 9871  39.024   3.459   0.871
46115W        W 9872  19.112  21.669  14.844
46116W        W 9873   4.314  16.119  10.548
46117W        W 9874  11.234  36.927  13.815
46118W        W 9875   5.263  20.731  14.000
46119W        W 9876  18.171   6.904   2.179
46120W        W 9877  14.805  25.059  13.005
46121W        W 9878  17.772  14.245   0.463
46122W        W 9879  17.791   9.276  14.301
46123W        W 9880  29.039   0.440  11.522
46124W        W 9881  17.568  37.434  13.445
46125W        W 9882  41.408   9.216   3.258
46126W        W 9883  31.021  19.080   3.247
46127W        W 9884   1.820  32.612  10.520
46128W        W 9885  42.918  40.322  13.884
46129W        W 9886   0.385  24.654   1.353
46130W        W 9887  28.983  11.294   2.337
46131W        W 9888  36.977   6.716  11.412
46132W        W 9889  32.038   3.338   2.181
46133W        W 9890  30.520  18.111  12.509
46134W        W 9891  18.558  38.940   3.301
46135W        W 9892  29.118  30.553   2.269
46136W        W 9893  20.217  25.143  10.630
46137W        W 9894  13.690  20.258  14.827
46138W        W 9895  13.255  12.310  14.878
46139W        W 9896  27.187   3.859  13.801
46140W        W 9897  44.284  14.270  14.938
46141W        W 9898  13.139   0.279   4.717
46142W        W 9899  37.347  15.586  13.511
46143W        W 9900   7.385  18.651  12.547
46144W        W 9901  27.023  39.867   1.303
46145W        W 9902  13.682  29.653   2.307
46146W        W 9903  39.394   2.805   1.914
46147W        W 9904  18.682  23.513  14.333
46148W        W 9905  23.645  23.160   1.387
46149W        W 9906  13.300  31.979   3.690
46150W        W 9907  21.748   0.946   1.312
46151W        W 9908  34.505  19.550   2.693
46152W        W 9909  27.158  31.506  13.868
46153W        W 9910  21.692  16.777  12.548
46154W        W 9911  17.714  13.733   0.466
46155W        W 9912  36.040  36.083   1.330
46156W        W 9913   2.269  13.627   1.438
46157W        W 9914  38.857   5.291  12.386
46158W        W 9915  34.493  22.128   1.755
46159W        W 9916   2.966  30.416  13.915
46160W        W 9917  23.101  41.852   2.222
46161W        W 9918  13.636  22.624  12.850
46162W        W 9919  40.505   7.329  10.065
46163W        W 9920  38.851  21.017  12.838
46164W        W 9921  36.511  14.615   0.825
46165W        W 9922  26.034  25.516  13.924
46166W        W 9923  14.108  22.720  13.992
46167W        W 9924   4.942  24.665  10.632
46168W        W 9925  15.793  22.141  12.842
46169W        W 9926  11.796  37.534   0.923
46170W        W 9927  30.655   0.442  11.514
46171W        W 9928  30.651  39.874  13.529
46172W        W 9929  11.758  14.711   2.811
46173W        W 9930  11.661  36.000  12.497
46174W        W 9931  23.220  31.538  13.520
46175W        W 9932  43.444  41.915  13.405
46176W        W 9933   6.715   0.331   1.924
46177W        W 9934   3.352  15.623  14.461
46178W        W 9935  17.079  34.460  10.963
46179W        W 9936  16.083  22.127  10.617
46180W        W 9937  41.981   0.831   3.776
46181W        W 9938  34.435   1.805   4.685
46182W        W 9939  13.715   7.296   2.778
46183W        W 9940  13.134  28.535   1.827
46184W        W 9941   3.305   2.928  14.468
46185W        W 9942  10.658  25.556  13.056
46186W        W 9943  44.995  28.593  13.403
46187W        W 9944  22.073  26.679  11.474
46188W        W 9945   8.859  16.173   4.214
46189W        W 9946  29.984  18.768  11.574
46190W        W 9947   4.412  11.342  10.997
46191W        W 9948  29.637  23.523  13.991
46192W        W 9949  17.228   2.248  10.149
46193W        W 9950  27.547  35.001   2.402
46194W        W 9951  44.405   4.345   1.391
46195W        W 9952  23.136  36.473  13.454
46196W        W 9953  11.129  12.178   3.275
46197W        W 9954   1.236  30.004  11.046
46198W        W 9955  34.999  16.646  10.930
46199W        W 9956   3.440  36.575  12.373
46200W        W 9957  29.961  12.356  13.870
46201W        W 9958   2.934  41.373   4.145
46202W        W 9959  41.864   4.216   3.810
46203W        W 9960  24.518  26.117   3.644
46204W        W 9961  16.699  41.908   0.949
46205W        W 9962  44.380   8.340   0.456
46206W        W 9963  43.440   4.870   0.925
46207W        W 9964  18.156  20.053  14.899
46208W        W 9965  25.023   2.842  13.309
46209W        W 9966  10.787  11.775  13.056
46210W        W 9967  41.370  18.756  11.930
46211W        W 9968  25.103  24.696   4.261
46212W        W 9969  38.022  24.083  10.559
46213W        W 9970  27.197  34.609   3.360
46214W        W 9971  15.188   8.172   1.233
46215W        W 9972  10.767  40.340   2.800
46216W        W 9973  38.914  10.759  13.047
46217W        W 9974  22.195  20.605   2.361
46218W        W 9975  30.447   7.775   4.607
46219W        W 9976  28.115   7.224  10.451
46220W        W 9977  12.703  10.692   1.299
46221W        W 9978  42.856  27.543  10.455
46222W        W 9979  10.321   3.866   4.125
46223W        W 9980  16.127  11.621  10.541
46224W        W 9981  30.979  27.658  11.968
46225W        W 9982  30.951  22.103  10.541
46226W        W 9983  36.843  29.962  10.615
46227W        W 9984  27.590  36.580  14.833
46228W        W 9985   2.274  26.588   2.771
46229W        W 9986  13.346  38.340  14.515
46230W        W 9987  24.147  17.744  12.949
46231W        W 9988  36.044  25.694   4.747
46232W        W 9989  22.606  15.111  11.914
46233W        W 9990  39.023  13.771   0.753
46234W        W 9991   5.290  16.293   0.387
46235W        W 9992  28.457   9.869   1.279
46236W        W 9993  44.269   4.800  14.487
46237W        W 9994  44.305  39.882   1.262
46238W        W 9995  25.995  31.518   1.233
46239W        W 9996  44.771   5.305   4.212
46240W        W 9997  31.634  41.423   4.832
46241W        W 9998  39.947  10.701  10.991
46242W        W 9999  23.587  36.553   0.857
46243W        W10000  37.849  33.506  11.010
46244W        W10001  41.000  14.145   1.241
46245W        W10002  40.467  24.149  14.401
46246W        W10003  19.048  16.678  11.027
46247W        W10004  35.059  28.038  13.041
46248W        W10005  12.653  10.169   1.839
46249W        W10006   7.229   0.442   4.201
46250W        W10007  42.017  17.117  13.465
46251W        W10008   2.940  34.913   0.278
46252W        W10009  34.603  30.140   2.355
46253W        W10010  10.302  14.716  10.055
46254W        W10011  16.143  19.107   4.128
46255W        W10012  14.299  16.807   2.313
46256W        W10013  13.337  32.887  14.764
46257W        W10014  24.075  20.253  14.876
46258W        W10015  41.440  38.338  14.442
46259W        W10016  25.010  29.648  12.359
46260W        W10017  37.514  35.972   1.406
46261W        W10018  34.881  23.508   4.648
46262W        W10019  35.583  39.915   4.154
46263W        W10020   5.227  38.945  14.919
46264W        W10021  11.144  43.453  11.122
46265W        W10022   0.268  16.073  11.911
46266W        W10023  33.532   0.980   5.197
46267W        W10024  19.642  41.426  11.548
46268W        W10025   2.963  43.773  11.905
46269W        W10026  41.396  11.800   0.921
46270W        W10027  18.247  31.609  12.090
46271W        W10028   4.235   5.690   4.773
46272W        W10029  31.088   6.310  11.044
46273W        W10030  23.125  36.371   4.819
46274W        W10031  30.071  12.217  10.624
46275W        W10032  41.478  42.967  10.550
46276W        W10033  19.716  44.307   2.349
46277W        W10034   6.748  16.284  14.432
46278W        W10035  30.907  26.553   3.855
46279W        W10036  21.019  31.950   4.282
46280W        W10037  14.790  17.603   3.150
46281W        W10038  18.124  26.050   0.385
46282W        W10039  16.307  36.004   0.480
46283W        W10040  15.267  15.580   9.586
46284W        W10041   3.886  27.196   0.929
46285W        W10042  12.121   1.766  12.528
46286W        W10043   2.798   8.868  11.986
46287W        W10044   3.845  44.398   2.761
46288W        W10045  31.511  24.114   2.875
46289W        W10046  42.497  34.506   4.198
46290W        W10047  16.236  38.875   3.370
46291W        W10048  30.586  42.943   2.385
46292W        W10049  36.592  20.135  10.512
46293W        W10050  42.360  29.436  14.001
46294W        W10051  20.648  10.873   0.243
46295W        W10052  24.000   3.324  11.471
46296W        W10053  23.160   3.740  12.538
46297W        W10054  28.562  12.148   3.666
46298W        W10055   0.903  28.025  10.556
46299W        W10056   2.439  44.457  11.521
46300W        W10057  30.530  25.189  12.089
46301W        W10058  19.679   3.312   2.274
46302W        W10059  36.017  15.223   4.690
46303W        W10060   3.751  19.159   2.373
46304W        W10061  24.149  17.585   4.639
46305W        W10062  37.053   8.705  11.604
46306W        W10063   4.910  12.643   2.245
46307W        W10064   5.427  38.362  12.841
46308W        W10065  28.955  40.913   0.379
46309W        W10066  30.117  10.641   1.411
46310W        W10067  41.825  28.556   1.819
46311W        W10068  35.005  29.661  11.104
46312W        W10069   4.913   1.897  13.366
46313W        W10070  23.145  42.786   3.214
46314W        W10071  28.122  29.663  10.428
46315W        W10072  14.743  30.534  12.068
46316W        W10073  32.966  23.060  10.949
46317W        W10074  26.677  16.170  13.870
46318W        W10075   3.382  20.716   3.267
46319W        W10076  26.465  11.708  12.843
46320W        W10077  13.261  31.459  13.523
46321W        W10078  14.618  40.321   2.293
46322W        W10079   7.238  44.792   0.927
46323W        W10080  33.898  19.152   3.741
46324W        W10081  39.327   9.154  14.885
46325W        W10082  20.153  32.115  11.610
46326W        W10083  10.316  22.185   1.909
46327W        W10084  36.853   8.678   3.828
46328W        W10085  43.443   7.862   3.820
46329W        W10086  24.708  16.261   4.832
46330W        W10087  17.137  14.296  12.081
46331W        W10088  20.641  24.496  11.057
46332W        W10089  13.115  32.591  10.926
46333W        W10090  18.580  24.003  13.825
46334W        W10091  25.674  40.950  14.994
46335W        W10092   2.340  22.106   3.804
46336W        W10093   0.853   5.805  11.113
46337W        W10094  13.124  40.399   2.811
46338W        W10095  44.000   4.279   1.717
46339W        W10096  44.868  28.151   2.662
46340W        W10097   7.855  14.718  11.894
46341W        W10098  10.827   7.677   1.236
46342W        W10099   9.306  40.497  13.838
46343W        W10100  39.429  12.680  13.505
46344W        W10101  14.692   0.799  13.006
46345W        W10102   0.432  31.641  14.828
46346W        W10103   0.345  16.080  14.385
46347W        W10104   3.830  41.450  12.085
46348W        W10105  22.599  11.724  14.497
46349W        W10106  32.117  35.389   3.811
46350W        W10107  34.044  36.574  13.798
46351W        W10108  25.566  12.174  12.905
46352W        W10109  22.604  31.471  12.341
46353W        W10110  40.873  32.967   1.387
46354W        W10111   0.897  39.435   1.308
46355W        W10112  34.445  24.586   4.191
46356W        W10113  14.794   6.871   3.365
46357W        W10114  31.904  13.255  12.862
46358W        W10115  16.636  43.328   2.242
46359W        W10116  26.679  31.048  14.302
46360W        W10117  23.215   0.765   2.267
46361W        W10118  40.902   4.933  12.420
46362W        W10119   0.786  16.570   4.835
46363W        W10120   6.275  25.122   4.717
46364W        W10121  17.169  22.557  13.948
46365W        W10122   8.278  42.867   2.678
46366W        W10123  13.220   1.954   4.602
46367W        W10124  24.716  18.059   1.265
46368W        W10125   2.726   9.751  13.998
46369W        W10126  29.441   6.261   3.681
46370W        W10127  40.526  38.571   4.794
46371W        W10128   8.254  26.011  14.347
46372W        W10129  35.507  40.949  14.815
46373W        W10130  20.617  32.894   9.966
46374W        W10131  30.601  24.521   4.132
46375W        W10132  44.003   7.370   1.353
46376W        W10133  27.609   8.770  14.398
46377W        W10134  24.602   9.830  10.530
46378W        W10135  43.817  19.631  14.477
46379W        W10136  23.076  43.907   0.957
46380W        W10137   6.838   5.295  12.835
46381W        W10138   4.780  23.585   0.916
46382W        W10139  35.547   8.805   4.645
46383W        W10140  35.881  40.513   1.287
46384W        W10141   1.394  30.102  12.576
46385W        W10142  31.520   5.337   4.289
46386W        W10143  18.662  17.737  10.569
46387W        W10144  10.672  13.348  11.937
46388W        W10145  32.441   7.669   4.770
46389W        W10146   4.770  16.602  12.462
46390W        W10147  43.839  33.106   0.751
46391W        W10148   6.210  33.604  11.857
46392W        W10149   0.260   4.742   2.220
46393W        W10150   7.854  32.907  14.433
46394W        W10151  30.974  30.646   4.614
46395W        W10152  16.072  30.157   0.951
46396W        W10153  16.715  36.847  13.058
46397W        W10154  20.605  43.326  14.360
46398W        W10155   2.407  15.621   2.819
46399W        W10156  16.667  29.094   3.384
46400W        W10157  40.490   8.858   3.857
46401W        W10158   8.900  23.548  13.867
46402W        W10159  11.140  28.520   1.872
46403W        W10160  25.505  16.811   4.137
46404W        W10161   2.397  12.818   1.791
46405W        W10162   1.263  36.442   1.874
46406W        W10163   9.821   0.379   4.812
46407W        W10164  33.483  41.415   1.849
46408W        W10165  15.125  25.001   0.729
46409W        W10166  26.206   1.481  11.383
46410W        W10167  24.108  21.248   2.292
46411W        W10168   4.449  10.161  14.938
46412W        W10169  24.721  19.183  10.887
46413W        W10170   3.385  37.521   5.171
46414W        W10171  37.015  19.065  12.568
46415W        W10172  36.448   5.797   2.237
46416W        W10173   2.926  39.413   2.179
46417W        W10174  23.011  44.944   3.370
46418W        W10175  13.208  31.610  12.964
46419W        W10176  24.098  39.371   3.730
46420W        W10177  17.748  13.232   1.267
46421W        W10178  37.882  17.174   2.343
46422W        W10179   6.852  37.425  11.103
46423W        W10180  16.270   0.908   3.740
46424W        W10181  38.866  22.671   5.205
46425W        W10182  21.111  27.678   2.715
46426W        W10183  25.105  11.265  10.537
46427W        W10184  12.149   7.872  12.535
46428W        W10185  34.560  18.688  12.557
46429W        W10186  30.636  18.145   2.824
46430W        W10187  17.781   4.281   4.675
46431W        W10188  17.677   4.793  13.998
46432W        W10189  36.392  40.378  10.160
46433W        W10190  39.869  23.534   3.695
46434W        W10191   4.333  27.562   4.122
46435W        W10192  18.109  41.457  14.925
46436W        W10193   1.268  22.019   0.883
46437W        W10194  24.223  12.801   0.417
46438W        W10195  25.970  11.159   4.758
46439W        W10196   3.227  33.891  13.848
46440W        W10197  27.602  24.175  12.575
46441W        W10198   2.966  18.098   3.328
46442W        W10199   2.781  32.051   0.439
46443W        W10200  37.006  41.973  10.641
46444W        W10201  22.253  22.155   3.668
46445W        W10202  34.980  28.497  10.638
46446W        W10203  29.565   0.835  12.957
46447W        W10204   7.823  27.506   3.312
46448W        W10205  30.119  23.221   1.859
46449W        W10206   4.371  16.570   1.323
46450W        W10207  16.214   8.367   1.755
46451W        W10208  43.982  26.079  11.460
46452W        W10209  19.087  20.105  14.937
46453W        W10210  26.625  38.563   4.743
46454W        W10211  35.518  24.071  11.593
46455W        W10212  23.217   5.420  13.815
46456W        W10213  30.069  44.834   0.771
46457W        W10214  41.310  20.730   3.652
46458W        W10215  43.474  43.797   3.733
46459W        W10216   7.798  34.044   0.757
46460W        W10217  43.270  22.131   3.244
46461W        W10218  30.989  36.886  14.291
46462W        W10219   6.197   5.198  14.922
46463W        W10220  25.216  27.645  13.423
46464W        W10221  30.549   4.743  14.346
46465W        W10222  16.189  42.455  11.391
46466W        W10223  31.424   2.826   2.369
46467W        W10224  42.961  26.962  12.563
46468W        W10225  10.753  37.556   1.855
46469W        W10226  35.917  37.526  13.902
46470W        W10227  34.012   2.870  10.458
46471W        W10228  29.156  39.315  12.478
46472W        W10229  19.115  44.491  14.409
46473W        W10230  12.207  14.243  14.296
46474W        W10231  25.168  17.727   3.754
46475W        W10232  38.472  40.988   0.410
46476W        W10233  22.572  11.663   2.218
46477W        W10234  14.764  22.153  11.466
46478W        W10235  13.309  19.770  13.472
46479W        W10236  27.160  24.505   4.174
46480W        W10237  44.957   9.743   4.648
46481W        W10238  26.551  27.000   2.826
46482W        W10239   7.837   9.697   0.325
46483W        W10240  34.977  35.478   2.691
46484W        W10241   5.727  40.491   1.904
46485W        W10242  17.610  34.582  12.039
46486W        W10243  29.630  32.992   1.223
46487W        W10244   5.241  31.536   1.806
46488W        W10245  23.997  41.007   0.416
46489W        W10246  36.516  10.770   3.670
46490W        W10247   2.834   0.315  12.879
46491W        W10248  26.959  35.013   0.742
46492W        W10249  26.167   7.220  11.518
46493W        W10250  44.320  42.808  12.460
46494W        W10251   5.423  12.621   0.426
46495W        W10252  36.978  14.197   0.304
46496W        W10253  41.453  14.139  11.408
46497W        W10254  24.581  17.189   0.439
46498W        W10255  43.971  10.750   1.263
46499W        W10256   7.675  44.353  14.803
46500W        W10257  29.115  34.567   3.162
46501W        W10258  40.992  44.412   0.269
46502W        W10259  26.644   5.208  10.597
46503W        W10260   6.390  39.501   1.245
46504W        W10261   5.219  42.446  12.874
46505W        W10262   9.369  42.342  12.841
46506W        W10263   4.800  38.515   4.270
46507W        W10264   7.673  22.038   2.199
46508W        W10265  36.959  42.955   0.880
46509W        W10266  38.533  39.985  13.405
46510W        W10267  18.582  40.009  11.400
46511W        W10268  17.156  26.522   1.429
46512W        W10269  42.864  26.506  12.483
46513W        W10270  35.428  43.391   3.805
46514W        W10271  19.760  23.574   2.203
46515W        W10272  43.483   5.203   1.733
46516W        W10273   2.293  23.671  12.961
46517W        W10274  14.734   2.367  13.361
46518W        W10275  40.832  29.562   2.753
46519W        W10276  38.041  38.435   3.217
46520W        W10277  23.730  27.989   4.336
46521W        W10278  14.711  31.069  11.572
46522W        W10279  17.626   2.399  11.503
46523W        W10280  20.690   3.274   0.962
46524W        W10281  20.632   5.753  13.458
46525W        W10282  27.488  20.691  12.876
46526W        W10283  38.403  24.578  10.546
46527W        W10284  19.672  19.610  11.550
46528W        W10285  27.998  31.621   2.724
46529W        W10286  28.471   0.287   0.918
46530W        W10287  41.020   8.870  10.573
46531W        W10288  30.949  11.785  13.027
46532W        W10289   3.841   7.375   3.715
46533W        W10290  28.629   1.905  12.064
46534W        W10291  30.601  33.058  10.962
46535W        W10292  20.544  31.050  12.931
46536W        W10293  26.617  23.633  13.399
46537W        W10294  19.211  36.893   2.880
46538W        W10295   1.349  31.533   4.805
46539W        W10296  19.570  18.760  11.406
46540W        W10297  35.103  42.452   1.212
46541W        W10298  32.115   3.715   2.329
46542W        W10299  27.032  20.273  13.437
46543W        W10300   1.276  43.802  11.591
46544W        W10301  15.133  38.402  11.416
46545W        W10302   7.261  22.128   3.170
46546W        W10303   6.425  26.558  14.852
46547W        W10304  11.751  31.440   3.375
46548W        W10305  18.577  38.848   5.126
46549W        W10306  44.882   9.889  11.901
46550W        W10307  39.365   4.413  13.512
46551W        W10308  15.212  24.082  10.539
46552W        W10309   0.921  21.535   2.737
46553W        W10310  41.799  19.693   2.667
46554W        W10311  22.124  36.560  14.476
46555W        W10312  15.266  42.453   2.890
46556W        W10313  26.547   3.297  13.797
46557W        W10314  44.868   8.392  10.517
46558W        W10315  21.709  29.920   1.329
46559W        W10316  43.890  14.180   1.307
46560W        W10317   1.754  31.938   2.348
46561W        W10318   2.824  35.110   3.369
46562W        W10319  29.634  24.486   1.279
46563W        W10320  18.206  31.003  13.950
46564W        W10321  10.825  44.784   0.825
46565W        W10322   3.840   1.896  10.445
46566W        W10323  32.892  16.229   1.877
46567W        W10324  41.501   7.351  11.127
46568W        W10325  22.523   6.306   3.202
46569W        W10326   4.265  43.490  14.308
46570W        W10327  31.488  27.601  11.872
46571W        W10328   5.440  27.129   0.833
46572W        W10329  31.046  28.633   4.265
46573W        W10330  38.867  12.276   1.837
46574W        W10331  29.959  40.384  11.524
46575W        W10332  36.904   4.251   4.253
46576W        W10333  34.915  19.611  11.589
46577W        W10334  22.658  11.240  13.879
46578W        W10335  37.083  22.019   3.287
46579W        W10336  21.630  16.223   1.227
46580W        W10337  38.326  22.603  13.454
46581W        W10338  25.545   1.432  14.513
46582W        W10339  40.959  40.424   3.774
46583W        W10340  28.063   6.284  10.499
46584W        W10341   2.390  32.076   4.261
46585W        W10342  31.939  40.316   3.211
46586W        W10343   1.959  24.545  14.351
46587W        W10344  16.595   6.387   1.346
46588W        W10345  24.015  27.562  11.013
46589W        W10346  38.397  36.568  12.992
46590W        W10347  34.433  31.457  10.499
46591W        W10348  40.816  23.621   3.188
46592W        W10349  28.024  34.421   0.262
46593W        W10350  30.047  25.154  10.578
46594W        W10351  26.965  19.616   1.875
46595W        W10352   3.361  21.220   4.620
46596W        W10353  21.684  18.262  12.908
46597W        W10354   1.293  27.582  14.784
46598W        W10355   1.915  14.164  12.881
46599W        W10356  44.801  24.557  13.939
46600W        W10357  26.657  39.331   3.234
46601W        W10358  13.139   2.457   3.232
46602W        W10359  16.629  43.834  10.039
46603W        W10360   3.825  40.425   3.638
46604W        W10361  41.788  38.378  11.576
46605W        W10362  40.027   0.931   3.652
46606W        W10363  22.131  41.016  11.996
46607W        W10364  12.165   5.912  14.447
46608W        W10365  30.465   8.379   4.352
46609W        W10366  38.961  19.555  13.832
46610W        W10367  29.442  41.975   2.896
46611W        W10368  44.776   3.444   1.884
46612W        W10369   4.707   2.803   2.344
46613W        W10370  26.993  38.480  14.017
46614W        W10371  26.012  28.946   4.774
46615W        W10372  39.921  41.374   4.315
46616W        W10373  29.144  26.955  13.386
46617W        W10374  36.962  12.824   1.826
46618W        W10375  33.535   8.331  12.545
46619W        W10376  42.790   3.934  10.532
46620W        W10377  23.621  22.603  12.457
46621W        W10378  39.872  37.364   4.777
46622W        W10379  36.930  32.923   3.697
46623W        W10380  12.205  21.251  14.886
46624W        W10381  39.531  20.030  14.280
46625W        W10382  32.009  17.713  12.003
46626W        W10383  15.715  33.914   4.163
46627W        W10384  23.144  10.155   1.239
46628W        W10385  44.453   3.440  11.940
46629W        W10386  25.662  32.611  13.529
46630W        W10387  23.700  41.368  14.422
46631W        W10388  22.613  27.570   4.144
46632W        W10389  22.052  43.808   0.344
46633W        W10390  23.125  10.877  13.827
46634W        W10391  13.119   5.364  12.395
46635W        W10392  31.538   6.736  10.103
46636W        W10393  16.102  11.274  11.557
46637W        W10394   3.447  26.092   0.932
46638W        W10395  32.124  26.086   0.779
46639W        W10396  26.671   6.378   1.921
46640W        W10397   2.439  35.920  10.569
46641W        W10398  43.457   9.751  10.978
46642W        W10399   9.366  44.753  10.582
46643W        W10400  35.086  10.269  10.564
46644W        W10401  24.073  38.010  14.818
46645W        W10402  15.790  18.748  10.421
46646W        W10403  23.719   2.772  13.984
46647W        W10404  29.425  37.448   2.199
46648W        W10405  36.845  22.109  11.919
46649W        W10406   1.248  13.178   3.699
46650W        W10407  14.644  36.067   4.749
46651W        W10408  28.574  34.064  12.465
46652W        W10409  11.216  42.032   4.250
46653W        W10410   0.343   4.281   3.252
46654W        W10411   0.261   3.891   3.252
46655W        W10412   1.868  44.338   3.651
46656W        W10413  40.429  11.776  13.864
46657W        W10414   3.853  28.943   0.763
46658W        W10415  11.307  40.441  14.486
46659W        W10416  29.572  17.636   1.895
46660W        W10417  12.735  42.439   1.880
46661W        W10418  17.203  12.785  11.521
46662W        W10419   8.398  10.145  12.849
46663W        W10420  35.923   3.236   5.127
46664W        W10421  23.527  33.401   2.776
46665W        W10422  30.979  10.757   1.918
46666W        W10423   8.188  12.153   1.843
46667W        W10424  10.307  39.914  12.839
46668W        W10425  25.205  23.221  13.486
46669W        W10426  18.779   3.433   0.787
46670W        W10427  29.133  16.751  10.889
46671W        W10428   3.856   0.773  14.761
46672W        W10429  20.170  25.622  11.402
46673W        W10430  28.507  36.351   2.343
46674W        W10431  37.338  24.611   0.409
46675W        W10432  20.584  44.306  13.483
46676W        W10433  17.612  10.319   1.756
46677W        W10434  12.668  32.011  12.972
46678W        W10435  43.422  39.329   3.674
46679W        W10436  30.943  31.426   1.846
46680W        W10437  23.558  14.718  13.920
46681W        W10438  40.492  44.958   0.351
46682W        W10439   5.290  20.629   2.298
46683W        W10440  27.654  41.891   3.670
46684W        W10441  28.574   7.344  11.518
46685W        W10442  19.041  18.263  13.929
46686W        W10443   7.333   1.974   2.681
46687W        W10444  14.653   9.787  12.344
46688W        W10445  43.920  34.441  11.905
46689W        W10446  38.027  11.667  12.580
46690W        W10447  39.479  13.230  14.004
46691W        W10448   2.851  28.598   1.906
46692W        W10449   3.783   2.412   2.679
46693W        W10450  35.593  24.497  13.347
46694W        W10451   3.297  39.006  13.845
46695W        W10452  21.033   7.373   4.162
46696W        W10453  36.512   1.311   1.399
46697W        W10454  19.061  24.047   1.438
46698W        W10455  36.484  35.886  11.503
46699W        W10456  36.918  20.713  14.314
46700W        W10457  10.839  23.079  14.789
46701W        W10458   7.717  24.191   1.266
46702W        W10459   4.208  39.385   4.340
46703W        W10460  31.471  26.588  12.914
46704W        W10461  17.209  30.088  12.941
46705W        W10462  40.884  13.208   0.919
46706W        W10463  22.044  39.329  10.476
46707W        W10464   6.202  38.331   4.620
46708W        W10465  40.830   0.293   3.184
46709W        W10466  37.055  21.627   4.266
46710W        W10467  28.177   6.270   0.331
46711W        W10468   5.767  20.548   0.376
46712W        W10469  24.119   8.870   2.678
46713W        W10470  32.116  17.128  12.832
46714W        W10471  22.735  44.501   4.834
46715W        W10472  11.661  21.220  11.097
46716W        W10473  36.589  19.663  14.389
46717W        W10474   2.405  18.733  11.912
46718W        W10475   5.852  18.163   4.149
46719W        W10476  14.228  35.922   3.693
46720W        W10477  25.646   9.806  14.919
46721W        W10478  33.470  39.917   4.349
46722W        W10479  19.044  37.859  12.036
46723W        W10480  24.039  27.663   3.172
46724W        W10481  39.042  16.739   9.963
46725W        W10482  15.738  14.205   0.776
46726W        W10483  41.912  11.326  10.057
46727W        W10484   6.902   4.216  12.403
46728W        W10485  22.062  18.697   1.762
46729W        W10486  10.268   9.272   2.765
46730W        W10487  23.212  31.466   0.806
46731W        W10488  11.681  41.924  13.510
46732W        W10489   5.864  41.830  14.394
46733W        W10490   2.277  35.069   3.766
46734W        W10491  39.345  31.128  13.390
46735W        W10492  40.422  22.698  10.591
46736W        W10493   1.379  10.709   3.826
46737W        W10494  28.972  36.395   3.377
46738W        W10495  14.239  37.420   5.241
46739W        W10496  17.260  44.314   9.926
46740W        W10497  41.029  22.529  11.488
46741W        W10498   3.765  38.342   2.713
46742W        W10499  18.551  29.459  12.356
46743W        W10500  11.326  19.237  12.828
46744W        W10501  27.546   2.267  13.004
46745W        W10502  15.661   7.764  13.452
46746W        W10503  13.816  25.090   2.897
46747W        W10504  18.218  34.464  13.455
46748W        W10505  44.500  38.347   1.365
46749W        W10506  21.242  24.185  11.398
46750W        W10507  41.871   4.837   2.348
46751W        W10508   1.929  28.500  10.498
46752W        W10509   4.841   0.470   4.126
46753W        W10510  34.994  30.119   0.268
46754W        W10511  16.099  26.686   5.302
46755W        W10512  20.266  12.812   4.791
46756W        W10513  44.370  23.106   4.221
46757W        W10514   2.735  38.537  11.526
46758W        W10515  33.571  36.457  11.486
46759W        W10516  38.558  12.748  12.824
46760W        W10517  30.575  14.099   4.702
46761W        W10518  19.722  17.800   4.696
46762W        W10519  29.662  38.498   2.225
46763W        W10520  32.574   5.244  10.560
46764W        W10521  30.044  43.333   1.769
46765W        W10522  29.963  30.097  12.567
46766W        W10523   3.407  17.061   1.770
46767W        W10524   2.960   7.894   0.315
46768W        W10525  19.602  40.526  12.363
46769W        W10526  23.560  15.121   3.856
46770W        W10527  28.929  40.500  13.485
46771W        W10528   4.362   0.348   4.767
46772W        W10529   1.464  28.462   4.713
46773W        W10530   3.231  23.155   2.898
46774W        W10531   8.836  31.501   1.222
46775W        W10532   7.858   0.399  10.965
46776W        W10533  24.563  36.959   3.661
46777W        W10534  21.658  23.545  11.128
46778W        W10535   5.864  31.548  14.795
46779W        W10536   2.823  34.031   1.300
46780W        W10537  39.851  26.628   3.795
46781W        W10538  10.307  11.776   2.219
46782W        W10539  30.492  19.149   2.262
46783W        W10540  27.540  34.596   2.347
46784W        W10541  42.328  10.733  14.019
46785W        W10542  22.021  29.932   2.219
46786W        W10543  41.405  43.439   4.704
46787W        W10544   5.921   3.784   0.331
46788W        W10545  35.853  21.154   3.649
46789W        W10546  21.095  27.128  13.836
46790W        W10547   9.296  39.462  11.054
46791W        W10548  21.539  35.368   3.221
46792W        W10549  18.645  15.630  14.344
46793W        W10550  35.900  22.110  12.476
46794W        W10551  44.493   9.203   2.782
46795W        W10552   6.284  23.573  11.874
46796W        W10553  29.168  43.368  13.414
46797W        W10554   6.729   9.277   3.371
46798W        W10555  20.695  32.542   5.600
46799W        W10556  10.302  39.953  11.896
46800W        W10557  42.287  36.523  12.340
46801W        W10558  39.346  28.116   3.693
46802W        W10559  23.146  23.676   0.866
46803W        W10560  19.170  17.637   2.234
46804W        W10561  21.092  18.645  13.952
46805W        W10562   5.836  10.725   1.317
46806W        W10563  17.793  14.299  12.555
46807W        W10564  38.336  19.569   3.689
46808W        W10565  36.896  33.128  11.509
46809W        W10566  41.968  35.555  12.557
46810W        W10567  33.049  26.554   1.739
46811W        W10568  16.753  39.430   3.793
46812W        W10569  14.137  39.385  12.037
46813W        W10570  26.640  18.221   0.350
46814W        W10571  11.209  18.624   4.312
46815W        W10572  40.495   5.320   3.754
46816W        W10573  43.019  24.524   4.218
46817W        W10574  15.592   3.797   1.247
46818W        W10575  15.174  39.826  10.488
46819W        W10576  43.507  40.373   3.148
46820W        W10577  20.585  27.622  12.874
46821W        W10578  42.902   4.830   1.739
46822W        W10579  34.495  26.471   2.352
46823W        W10580  27.015  25.710   1.253
46824W        W10581  35.872  24.102  10.917
46825W        W10582  25.658  39.971   0.440
46826W        W10583   1.813   4.264   1.404
46827W        W10584  21.179   3.851   3.251
46828W        W10585  15.224   0.360  14.473
46829W        W10586   8.663  43.385   2.212
46830W        W10587   9.328  31.597   2.821
46831W        W10588  40.947   7.268   2.379
46832W        W10589  25.149  10.731   2.316
46833W        W10590  42.470  12.688   2.766
46834W        W10591   1.405  37.010   3.843
46835W        W10592  21.738  27.116   4.597
46836W        W10593   4.766   8.844  13.445
46837W        W10594   6.291  10.686   0.383
46838W        W10595  30.919   8.700  11.861
46839W        W10596  10.291  21.691  11.393
46840W        W10597  29.579  33.969  10.964
46841W        W10598  41.994  26.151  11.554
46842W        W10599  43.021  43.419   0.941
46843W        W10600  24.579  22.222  13.522
46844W        W10601  35.363  34.873   0.965
46845W        W10602  32.083  12.841  10.540
46846W        W10603  33.941   9.787   3.679
46847W        W10604  15.735  44.456  11.397
46848W        W10605  10.644  22.589  10.929
46849W        W10606   5.724  34.382   4.655
46850W        W10607  26.951  28.655   2.302
46851W        W10608  28.934  33.061   0.874
46852W        W10609  37.944  16.653  10.461
46853W        W10610  26.581  12.148  12.990
46854W        W10611   9.299  27.071   3.719
46855W        W10612  22.063  36.394  14.830
46856W        W10613  24.606  32.035   0.348
46857W        W10614  23.201  42.525   3.652
46858W        W10615  32.443  13.184   2.329
46859W        W10616  32.507  37.393  13.957
46860W        W10617  23.049  14.675   1.912
46861W        W10618  30.628  43.933  11.101
46862W        W10619  26.010  37.908  14.378
46863W        W10620  18.618  19.566   1.891
46864W        W10621  44.380  22.620  13.538
46865W        W10622  44.388  25.605  13.969
46866W        W10623  35.932  12.825   1.394
46867W        W10624  36.461  39.971  14.482
46868W        W10625  12.140  33.535   4.335
46869W        W10626  33.381   4.390  14.926
46870W        W10627  25.586  43.018   2.196
46871W        W10628  19.612  20.575  11.420
46872W        W10629  16.202   4.211   4.609
46873W        W10630  30.432  27.646   0.333
46874W        W10631  33.423   0.388   1.830
46875W        W10632  21.542   2.235  12.879
46876W        W10633  41.789  29.010  13.993
46877W        W10634  30.591  38.403  14.962
46878W        W10635  12.341   6.261   4.731
46879W        W10636  38.985  40.965  13.462
46880W        W10637  34.894  29.499   0.794
46881W        W10638   0.357   2.253  13.388
46882W        W10639  34.998  41.506  14.930
46883W        W10640   5.756  38.474  11.128
46884W        W10641  36.098  35.916  12.450
46885W        W10642   3.242  29.050  11.052
46886W        W10643  33.913  36.545  14.836
46887W        W10644   5.767  38.406   0.848
46888W        W10645  32.605  15.778   3.345
46889W        W10646  32.024  39.936  11.058
46890W        W10647  11.794  29.625   4.208
46891W        W10648   4.318  41.412  14.828
46892W        W10649  35.474  13.147  13.832
46893W        W10650  29.083  18.213   9.973
46894W        W10651  12.856  38.384   0.874
46895W        W10652  44.846  11.812  13.312
46896W        W10653   0.256  28.024  14.794
46897W        W10654   7.390  44.889   1.765
46898W        W10655   8.376  17.730  12.871
46899W        W10656  26.576  40.449  13.328
46900W        W10657  24.146  17.152   4.182
46901W        W10658  14.658  20.156   2.750
46902W        W10659  12.741   1.929  13.408
46903W        W10660   9.174  37.928  11.511
46904W        W10661  11.370  20.274   3.275
46905W        W10662   8.278   7.394   1.823
46906W        W10663  26.675  35.372   2.206
46907W        W10664  36.855   6.806  12.852
46908W        W10665  21.211  22.014  11.419
46909W        W10666   5.364  20.253   0.857
46910W        W10667  10.139  37.917   1.432
46911W        W10668  21.023  34.404   4.166
46912W        W10669  30.488  18.705   1.251
46913W        W10670  36.549   9.363   4.347
46914W        W10671  23.716  35.861   0.923
46915W        W10672  44.381  44.927   2.191
46916W        W10673   6.848   2.759   1.443
46917W        W10674   3.889  26.005  11.096
46918W        W10675  14.137  17.088  13.376
46919W        W10676  31.916  13.795  11.937
46920W        W10677  13.277   3.245  13.389
46921W        W10678  14.683  26.988  13.908
46922W        W10679  10.842  42.356   3.276
46923W        W10680  22.104  31.451  13.052
46924W        W10681  27.573  22.707   2.764
46925W        W10682  43.898  36.879   1.250
46926W        W10683  28.000  37.453  13.884
46927W        W10684  40.806  32.078  14.888
46928W        W10685  31.059  43.381  14.513
46929W        W10686   6.261  33.473  14.786
46930W        W10687  23.735  39.924   1.396
46931W        W10688  23.697  43.446  11.427
46932W        W10689   4.339  27.495   3.214
46933W        W10690   9.165  38.540   4.162
46934W        W10691  39.346  28.049  12.489
46935W        W10692  14.250   9.833  10.580
46936W        W10693   9.316  43.458  14.323
46937W        W10694   3.356  43.802   3.833
46938W        W10695  23.499  39.468   1.230
46939W        W10696  26.516  44.472  10.954
46940W        W10697  37.475  37.340   0.350
46941W        W10698  38.056  26.063  14.828
46942W        W10699  27.946   7.403   1.282
46943W        W10700  33.109  23.718   0.376
46944W        W10701  41.008  38.407   0.843
46945W        W10702   3.712  24.165  11.030
46946W        W10703  13.622  13.142  11.410
46947W        W10704  33.617  27.622  11.595
46948W        W10705   5.207   9.671  11.516
46949W        W10706   7.911  29.022   4.837
46950W        W10707   2.941   9.168   4.299
46951W        W10708  17.214  34.567   3.720
46952W        W10709  40.538  39.511   0.915
46953W        W10710  24.995  14.204  13.938
46954W        W10711  37.565  29.555   2.293
46955W        W10712  24.186  10.221   1.402
46956W        W10713  43.501   0.433  10.547
46957W        W10714  19.247  20.597   4.827
46958W        W10715  28.550  40.904   1.384
46959W        W10716  44.974  30.140  13.867
46960W        W10717  32.467  18.620  12.019
46961W        W10718  42.782  36.421   5.195
46962W        W10719  19.159  41.383   3.717
46963W        W10720  44.778  33.952  12.936
46964W        W10721  30.563  14.692   1.278
46965W        W10722  24.017   4.717  14.874
46966W        W10723  15.304   4.296  12.580
46967W        W10724  23.035  25.517  12.384
46968W        W10725   5.758  40.501  10.107
46969W        W10726   9.833  13.178   0.468
46970W        W10727  17.563  42.884  12.551
46971W        W10728   4.253  37.912  13.915
46972W        W10729  34.996  35.547   4.216
46973W        W10730  32.121  26.014  12.091
46974W        W10731  35.542  44.804   4.208
46975W        W10732  40.994  44.953  14.770
46976W        W10733  25.525  19.615  12.947
46977W        W10734  34.414  42.283  13.315
46978W        W10735  28.437  17.256   2.716
46979W        W10736  36.996   9.808   3.631
46980W        W10737  38.954  20.572   1.382
46981W        W10738  20.580  35.552  11.022
46982W        W10739  10.328  33.947  12.508
46983W        W10740  27.944  29.151   0.368
46984W        W10741   5.419  13.610  12.003
46985W        W10742  23.548  33.056  10.921
46986W        W10743   0.825  20.716  12.971
46987W        W10744  36.365   4.390   1.295
46988W        W10745  33.942  41.297   3.634
46989W        W10746  23.083   2.876  12.450
46990W        W10747   7.877   1.270   2.393
46991W        W10748  34.478  42.348   1.336
46992W        W10749  22.544  26.649   3.698
46993W        W10750  25.994  15.584  10.087
46994W        W10751  18.610  20.758  10.941
46995W        W10752   0.972  42.941   2.832
46996W        W10753  18.636  28.056   3.813
46997W        W10754  11.817   2.313  11.396
46998W        W10755  41.405  11.651  12.453
46999W        W10756  20.140  33.525   2.350
47000W        W10757   4.213  26.153   1.424
47001W        W10758   0.970  13.809   0.437
47002W        W10759  19.228  32.496   0.437
47003W        W10760  41.444   1.357  12.409
47004W        W10761  32.489   7.277   0.927
47005W        W10762   0.283  42.374   4.263
47006W        W10763  27.663   3.256  10.593
47007W        W10764  29.096  43.342  13.856
47008W        W10765  37.576   0.267  11.504
47009W        W10766  24.158  43.809  11.455
47010W        W10767   0.333  32.999  13.008
47011W        W10768  39.466  19.266  12.476
47012W        W10769   6.771  16.099  13.842
47013W        W10770  38.538  35.961  12.546
47014W        W10771  23.080  30.542   0.896
47015W        W10772  28.443  25.171   3.835
47016W        W10773  13.175  35.565  12.460
47017W        W10774  25.516  34.054   3.162
47018W        W10775  11.866  15.298  14.429
47019W        W10776   5.701  43.001   2.727
47020W        W10777  31.970  13.333   2.688
47021W        W10778  26.470  18.662  12.031
47022W        W10779  14.694   9.197   0.949
47023W        W10780  18.673   9.225  10.958
47024W        W10781  24.212  13.715   0.945
47025W        W10782  10.352   2.352   5.178
47026W        W10783  32.113  29.997  14.456
47027W        W10784  20.652  17.069   4.637
47028W        W10785  20.600  32.035  11.552
47029W        W10786   4.300  39.815   9.673
47030W        W10787   8.225  29.004  10.580
47031W        W10788  41.922  34.869   1.752
47032W        W10789  23.508   1.400   4.644
47033W        W10790  22.639  20.240  11.555
47034W        W10791   1.781  28.066   2.329
47035W        W10792  27.588   7.672   2.860
47036W        W10793  29.575   5.751   2.677
47037W        W10794  34.895  34.909   1.446
47038W        W10795  12.146  20.621   2.772
47039W        W10796  35.385  19.778   4.705
47040W        W10797  27.953  31.935  13.339
47041W        W10798  43.909   7.681  12.987
47042W        W10799   6.416  20.531   3.273
47043W        W10800  13.767   4.846  14.343
47044W        W10801   8.676   2.444  14.864
47045W        W10802   3.269   3.933  13.818
47046W        W10803  28.513  27.656  13.032
47047W        W10804  11.825  29.072  12.054
47048W        W10805  44.987  42.799  13.874
47049W        W10806  18.624  19.631  13.331
47050W        W10807  23.029  12.164   2.780
47051W        W10808  17.282  15.291  12.071
47052W        W10809   0.987  22.537  14.402
47053W        W10810  14.205  27.464  11.880
47054W        W10811  39.911  17.094  12.032
47055W        W10812  42.335   1.817  14.848
47056W        W10813   0.952  39.334  10.547
47057W        W10814  24.080  30.106  12.473
47058W        W10815  15.142  23.528   1.334
47059W        W10816  14.701   8.884   0.956
47060W        W10817   5.312  18.265   3.153
47061W        W10818  12.131  29.526   4.726
47062W        W10819  10.714  29.539   4.647
47063W        W10820  20.055  27.613   1.298
47064W        W10821  21.150  17.273   5.218
47065W        W10822  20.691  34.401  11.998
47066W        W10823  37.462  29.075   3.194
47067W        W10824  26.163  20.145  12.955
47068W        W10825  44.973  26.204   1.735
47069W        W10826  12.684  40.440  10.963
47070W        W10827  21.155  42.802  12.038
47071W        W10828   1.385  29.133  12.842
47072W        W10829  31.614  32.444  14.961
47073W        W10830  39.542  21.141   2.838
47074W        W10831  41.865  16.703  12.064
47075W        W10832  12.277   7.394   3.780
47076W        W10833   3.376  12.203   1.933
47077W        W10834  17.291  29.654   4.641
47078W        W10835  42.847  14.828   0.865
47079W        W10836  41.293  28.499   4.749
47080W        W10837  22.995  16.653  14.831
47081W        W10838  40.422   8.869   2.334
47082W        W10839  17.589  32.941   2.871
47083W        W10840   7.225  39.909  14.874
47084W        W10841  33.098   0.989  14.029
47085W        W10842  28.935  28.483  13.384
47086W        W10843  38.052   5.230   3.775
47087W        W10844  38.487   1.748   2.310
47088W        W10845   2.375  39.377   4.235
47089W        W10846  26.134   7.815  13.528
47090W        W10847  30.029  36.923   1.859
47091W        W10848  25.129   7.269   3.352
47092W        W10849   8.720  36.590  12.975
47093W        W10850  25.131  18.108   0.416
47094W        W10851  11.644  34.037  13.371
47095W        W10852  22.035  19.605   3.343
47096W        W10853   1.776  21.604  13.948
47097W        W10854  25.985  35.363  12.084
47098W        W10855  24.720  23.124  11.008
47099W        W10856  13.180  32.085   2.724
47100W        W10857  12.194  15.290   0.425
47101W        W10858  38.367  41.397   2.846
47102W        W10859  21.238  14.744  12.962
47103W        W10860  10.330  27.954  12.008
47104W        W10861   3.728   9.726   0.894
47105W        W10862  17.268  16.609   2.397
47106W        W10863  42.882  13.313  14.332
47107W        W10864  19.764   9.755  13.526
47108W        W10865  12.622  23.667  11.380
47109W        W10866  22.533  27.140   3.381
47110W        W10867  29.499  26.632   1.253
47111W        W10868  31.465   9.153   0.848
47112W        W10869  20.165  31.989  14.968
47113W        W10870  10.782  42.895  12.409
47114W        W10871  23.106  18.736  12.500
47115W        W10872  42.967  43.358  12.444
47116W        W10873  33.941  11.859  14.433
47117W        W10874   3.710  20.217   2.731
47118W        W10875   5.734  34.098   4.280
47119W        W10876  37.956  23.156  10.995
47120W        W10877   7.264   2.227   0.846
47121W        W10878  11.187   9.815  11.535
47122W        W10879   4.386  25.133  11.520
47123W        W10880  36.007  29.521  11.973
47124W        W10881  11.306  27.609  11.570
47125W        W10882  13.172  12.685  14.807
47126W        W10883  26.152  30.134  13.360
47127W        W10884  32.469  20.213   0.963
47128W        W10885  38.500  34.081  13.539
47129W        W10886  28.657  33.914  13.474
47130W        W10887  41.034  12.741   2.364
47131W        W10888  32.430   8.329   1.722
47132W        W10889  39.536  42.396  14.891
47133W        W10890  24.198  20.766   1.772
47134W        W10891   4.356  30.037  11.473
47135W        W10892  31.055   9.303   3.833
47136W        W10893  22.061  15.232  11.521
47137W        W10894   3.841  31.090  14.451
47138W        W10895  20.766  34.426   3.808
47139W        W10896  10.331  35.940   0.430
47140W        W10897  33.568  22.584   4.715
47141W        W10898   8.388  32.423  12.443
47142W        W10899  30.112   7.781   0.957
47143W        W10900  21.550  10.191   4.721
47144W        W10901  31.038   8.362   0.358
47145W        W10902  27.104  37.940   1.289
47146W        W10903  12.818   7.223   3.341
47147W        W10904   2.310  13.671   2.298
47148W        W10905  21.169  10.770  12.507
47149W        W10906  37.931  22.703  11.388
47150W        W10907  29.644  23.644  11.924
47151W        W10908  41.486  30.021   3.271
47152W        W10909  11.295  33.083   1.810
47153W        W10910  30.644  40.952   3.298
47154W        W10911   2.458  32.477   4.729
47155W        W10912  22.719  32.623  13.476
47156W        W10913  25.078  43.484  13.368
47157W        W10914  36.876  37.838  14.492
47158W        W10915   1.427   5.286  13.911
47159W        W10916  32.599  38.449   4.167
47160W        W10917  28.444  20.176   0.365
47161W        W10918  16.598  18.595   1.909
47162W        W10919  18.170  15.255   3.309
47163W        W10920  44.777  39.042  13.846
47164W        W10921   0.849  19.649  12.888
47165W        W10922  42.486  38.915  10.409
47166W        W10923  26.498  12.837   2.214
47167W        W10924  32.495  16.728   2.279
47168W        W10925   3.383  38.500  13.393
47169W        W10926  30.545  10.227   1.273
47170W        W10927   4.335  14.644   3.689
47171W        W10928  26.125  14.741  10.156
47172W        W10929  41.804  31.146  12.472
47173W        W10930  19.195  23.602   1.906
47174W        W10931  36.445  10.355   0.878
47175W        W10932  38.005  34.092   4.242
47176W        W10933  15.305   8.162  13.529
47177W        W10934   6.372  35.889   4.792
47178W        W10935  11.265  30.566   4.832
47179W        W10936  35.925   5.324  14.801
47180W        W10937  33.562  37.460  10.587
47181W        W10938   0.861  24.705  11.373
47182W        W10939  39.977  44.327  11.427
47183W        W10940  36.979  23.551  14.898
47184W        W10941  29.499  16.729   0.732
47185W        W10942  12.289  27.685  11.377
47186W        W10943  13.124  17.773  12.058
47187W        W10944  27.635  27.995  14.445
47188W        W10945  18.712  39.338  11.866
47189W        W10946  11.795  43.466  14.484
47190W        W10947   2.408  18.066   1.817
47191W        W10948  35.398  42.941   0.279
47192W        W10949  14.102  17.581   1.836
47193W        W10950  13.718  25.147  12.419
47194W        W10951   6.903   8.362  13.806
47195W        W10952  21.142  36.975   4.260
47196W        W10953  24.017  40.466  10.619
47197W        W10954  13.247  36.029   3.689
47198W        W10955  27.629  32.395   4.319
47199W        W10956  10.659   3.757  12.486
47200W        W10957  23.175  22.727   3.693
47201W        W10958  18.175  14.177   9.656
47202W        W10959  21.138   2.757   3.375
47203W        W10960  16.177   0.766  10.511
47204W        W10961  19.751   4.417   3.212
47205W        W10962  15.748  26.534   2.852
47206W        W10963  37.537  17.232  13.983
47207W        W10964  38.522  23.012  12.489
47208W        W10965  20.700  16.653   2.807
47209W        W10966  27.619  19.625   0.818
47210W        W10967  40.874  42.791  10.041
47211W        W10968  27.125  38.872  12.497
47212W        W10969  33.616  36.922   3.725
47213W        W10970   1.977  40.395   1.719
47214W        W10971   7.896   9.210   4.606
47215W        W10972   3.236  16.317  12.567
47216W        W10973  38.520   2.875  10.148
47217W        W10974  10.805  41.883   4.618
47218W        W10975  21.025   8.225  12.921
47219W        W10976  30.928  16.574   0.949
47220W        W10977   6.240  18.648   2.251
47221W        W10978  14.131  17.737  14.296
47222W        W10979   8.670   1.292  14.318
47223W        W10980   0.470   4.929  14.341
47224W        W10981  16.239  42.870   0.479
47225W        W10982   3.444  12.332  10.992
47226W        W10983  31.906   8.870   2.743
47227W        W10984  33.977  40.479  11.381
47228W        W10985  26.955   5.813  14.883
47229W        W10986  36.362  10.867  13.880
47230W        W10987  44.897  14.711  11.523
47231W        W10988  16.225  28.971   1.926
47232W        W10989  17.585  13.284  14.963
47233W        W10990  37.449  17.289   3.385
47234W        W10991  37.414   0.793   4.746
47235W        W10992  23.589  43.807   2.290
47236W        W10993  26.613  26.988  14.331
47237W        W10994  25.046  24.974   0.828
47238W        W10995  44.010  40.428   0.960
47239W        W10996  23.663  26.527   4.341
47240W        W10997  32.015  40.871   0.964
47241W        W10998  20.140  13.842  10.633
47242W        W10999  26.973  23.201  13.512
47243W        W11000   4.929  36.383   0.766
47244W        W11001   2.433  32.587  13.475
47245W        W11002  16.729  28.588   1.274
47246W        W11003   8.364   1.273  10.635
47247W        W11004   8.808  17.075   1.869
47248W        W11005  18.095  22.082  13.935
47249W        W11006   5.856  35.912   2.893
47250W        W11007  44.758   7.716  10.960
47251W        W11008  14.134  17.717  12.579
47252W        W11009  31.122  28.167   9.474
47253W        W11010  23.641  19.581   2.415
47254W        W11011  29.115  41.837   2.873
47255W        W11012  24.559   6.205   3.173
47256W        W11013  37.086  23.117   3.733
47257W        W11014   5.328  13.143  13.019
47258W        W11015   6.249  13.319  11.039
47259W        W11016  37.949  29.467  10.483
47260W        W11017   6.381  10.265  14.402
47261W        W11018  16.297   5.761   4.253
47262W        W11019  19.660  44.841   1.379
47263W        W11020  13.808   6.403  12.411
47264W        W11021  44.305  34.942   1.391
47265W        W11022  41.498  14.236   2.817
47266W        W11023   4.783   0.764   3.660
47267W        W11024  30.610  13.633   0.313
47268W        W11025  41.422  25.475   3.748
47269W        W11026  25.166  11.677   2.695
47270W        W11027  39.865   6.406   2.333
47271W        W11028  39.445   3.302   1.894
47272W        W11029  41.475  18.698  12.840
47273W        W11030  35.462  24.651  13.981
47274W        W11031  17.770  33.901   0.356
47275W        W11032   7.706  43.885  13.523
47276W        W11033  21.575  27.633  11.908
47277W        W11034   8.343  38.025  13.827
47278W        W11035  10.139  28.462   4.694
47279W        W11036  17.768   0.318   5.197
47280W        W11037  39.979  15.811  13.829
47281W        W11038  24.224   2.920  10.966
47282W        W11039  44.397  38.994   3.865
47283W        W11040  11.721  39.002  10.156
47284W        W11041  18.257  18.066   4.676
47285W        W11042   1.295   1.469   0.775
47286W        W11043  33.089   4.810   9.961
47287W        W11044  16.201  13.737  14.970
47288W        W11045   3.945   8.834   0.386
47289W        W11046  36.573   3.315  12.389
47290W        W11047  16.199  34.443   4.752
47291W        W11048  11.297  21.568  10.442
47292W        W11049   3.726   9.157  12.826
47293W        W11050  28.593  34.465  12.563
47294W        W11051  34.591  42.916  11.959
47295W        W11052   6.833  19.269   2.757
47296W        W11053  15.749  30.593  10.036
47297W        W11054  18.610  28.519  10.440
47298W        W11055  24.025  40.363  13.979
47299W        W11056  42.032  41.311  11.592
47300W        W11057   0.951   0.963  14.881
47301W        W11058  15.153  12.324  11.008
47302W        W11059  11.783  13.729   1.426
47303W        W11060   8.345  32.947   4.620
47304W        W11061  40.042  22.518  14.004
47305W        W11062  38.064  19.214  11.572
47306W        W11063   6.700   9.767   1.394
47307W        W11064  13.320   9.708  13.896
47308W        W11065  15.585  26.466  14.892
47309W        W11066  27.617  17.297  10.986
47310W        W11067  35.001  33.492  14.507
47311W        W11068   3.450  43.776   1.303
47312W        W11069  24.709  27.976   2.314
47313W        W11070  14.113  18.581   4.266
47314W        W11071  19.257  16.208   3.312
47315W        W11072   4.866   9.753  12.505
47316W        W11073  30.539  44.485   2.796
47317W        W11074  21.121  40.899  11.423
47318W        W11075  21.724  20.767   4.256
47319W        W11076  24.606   4.248  12.570
47320W        W11077  43.960  41.885   3.661
47321W        W11078  28.128   1.260  11.999
47322W        W11079  12.217  43.367  11.386
47323W        W11080  25.066  33.445  14.886
47324W        W11081   0.851  13.173   2.704
47325W        W11082   5.216  27.574  13.008
47326W        W11083  37.529  18.137   2.335
47327W        W11084   2.824  24.176  12.929
47328W        W11085  36.377   1.951  10.505
47329W        W11086   2.234  11.701  14.496
47330W        W11087  17.671   4.744  11.103
47331W        W11088  18.281  29.021  12.435
47332W        W11089  23.555  12.197   1.811
47333W        W11090  33.452  20.208  12.533
47334W        W11091  13.280  14.104   2.781
47335W        W11092  22.548  25.153  11.495
47336W        W11093  30.464  21.169   1.330
47337W        W11094  24.060  12.276  13.801
47338W        W11095  25.194  32.032   3.754
47339W        W11096  15.115   8.806  13.013
47340W        W11097  23.614  25.136  12.848
47341W        W11098   4.780  27.658   1.402
47342W        W11099   4.718  21.681   0.761
47343W        W11100  43.922  27.999   2.721
47344W        W11101  12.714  33.025   1.701
47345W        W11102   3.365  15.098  13.543
47346W        W11103  38.360   6.294   4.329
47347W        W11104   1.913  14.745  14.880
47348W        W11105  30.560  23.722  13.922
47349W        W11106  31.429  33.397  10.955
47350W        W11107  11.331   6.384  14.921
47351W        W11108  23.661   1.349  13.956
47352W        W11109  41.468  11.283  12.514
47353W        W11110  29.581  18.694   0.414
47354W        W11111  21.172  30.532  13.340
47355W        W11112  11.657  42.526   0.281
47356W        W11113  18.742   5.930   0.742
47357W        W11114  32.559  15.807  10.461
47358W        W11115  36.888  13.671  12.370
47359W        W11116  43.297   6.224   2.249
47360W        W11117  26.554  21.225   5.281
47361W        W11118  11.696  35.520  13.342
47362W        W11119  32.962  24.598  12.438
47363W        W11120  31.570  37.461   0.835
47364W        W11121  39.029  32.595   0.359
47365W        W11122  32.570  19.198  10.566
47366W        W11123   0.336   9.734   1.813
47367W        W11124  18.259  27.554  11.866
47368W        W11125   6.259  14.328   4.672
47369W        W11126   5.710  12.173  10.916
47370W        W11127  10.765   6.376  10.562
47371W        W11128  37.074  21.584  12.870
47372W        W11129  17.634  28.170  13.320
47373W        W11130  22.623  31.438   4.709
47374W        W11131  31.440  10.820   4.181
47375W        W11132  44.273   2.734   1.288
47376W        W11133  19.568  37.052   4.351
47377W        W11134  14.646  17.627   4.809
47378W        W11135   3.331   1.914  13.400
47379W        W11136  15.103  37.359   0.257
47380W        W11137  26.605  12.798   4.763
47381W        W11138  41.878  16.292  13.505
47382W        W11139  24.634   8.706  12.857
47383W        W11140   5.216  10.169  14.387
47384W        W11141  29.579   5.845  14.292
47385W        W11142  19.659  32.091  12.455
47386W        W11143  10.149  29.002   2.792
47387W        W11144  10.696  10.143   2.858
47388W        W11145  41.518  21.244  11.856
47389W        W11146  12.741  15.769   1.377
47390W        W11147  18.106   2.769   3.863
47391W        W11148  14.131   1.402  13.941
47392W        W11149  16.275  23.524  12.495
47393W        W11150  40.449  40.824  12.025
47394W        W11151  15.579   0.942  13.971
47395W        W11152  21.251   2.767  10.921
47396W        W11153  12.118  21.088  12.055
47397W        W11154  22.562  28.569   4.249
47398W        W11155  36.894   7.851  12.992
47399W        W11156  27.568   7.859   0.418
47400W        W11157  32.068  40.044  14.335
47401W        W11158  19.749  29.571  13.883
47402W        W11159   3.244  35.497   2.892
47403W        W11160   8.680  35.075   1.909
47404W        W11161  41.902  25.147  10.094
47405W        W11162  31.938   9.665  13.357
47406W        W11163  19.709  14.658   0.324
47407W        W11164  27.961  40.935   2.875
47408W        W11165  40.432   1.922   2.831
47409W        W11166   6.210   7.760   0.825
47410W        W11167  21.555  15.718  14.954
47411W        W11168  38.920   5.758   1.763
47412W        W11169  18.550  25.086  12.495
47413W        W11170  32.481   1.853  14.853
47414W        W11171   6.863   8.760  12.521
47415W        W11172   0.961  29.553   1.242
47416W        W11173   9.845   9.854   1.704
47417W        W11174   3.259  37.346  10.021
47418W        W11175  24.028   1.831   3.680
47419W        W11176  38.044  38.486  10.482
47420W        W11177   0.355   8.402  14.917
47421W        W11178  44.427   4.373   2.206
47422W        W11179  15.789  14.740  13.409
47423W        W11180  16.736  38.341  14.018
47424W        W11181  23.559  31.044   3.850
47425W        W11182  26.075   5.310   2.315
47426W        W11183  34.062  36.484   4.130
47427W        W11184  13.252   4.707   1.923
47428W        W11185  32.620  25.590  13.404
47429W        W11186  14.182   2.432   1.257
47430W        W11187  40.492  36.494   1.853
47431W        W11188  15.168   0.905   2.234
47432W        W11189  38.335  29.923   4.342
47433W        W11190   0.332  18.078   0.941
47434W        W11191  40.548   1.387  13.993
47435W        W11192  33.582  40.396   5.319
47436W        W11193  26.686   5.721  14.975
47437W        W11194  21.190  20.039   1.264
47438W        W11195  43.495  23.491  13.529
47439W        W11196  12.780  28.140  12.033
47440W        W11197  24.616  39.996  11.529
47441W        W11198  21.080  15.231   0.958
47442W        W11199  14.194  35.519  11.892
47443W        W11200   0.382  27.480  11.943
47444W        W11201   9.867  11.688  11.061
47445W        W11202  34.057  30.526   4.761
47446W        W11203  14.749  36.090  10.469
47447W        W11204  15.820   0.317  14.503
47448W        W11205  24.047   2.823  13.544
47449W        W11206  42.884  10.867   1.227
47450W        W11207  20.697  37.559   3.158
47451W        W11208  32.573  30.506  10.475
47452W        W11209  34.085   4.358  10.970
47453W        W11210   3.311  31.541  11.428
47454W        W11211  22.713   0.316   4.741
47455W        W11212  26.182  40.811   2.199
47456W        W11213  25.040  39.470   1.353
47457W        W11214  38.036  21.081  14.977
47458W        W11215  20.678  32.508   9.440
47459W        W11216  22.014  17.215   1.701
47460W        W11217  17.183  29.498   1.245
47461W        W11218  31.634   9.281  12.842
47462W        W11219  37.484  10.826   1.824
47463W        W11220  37.374  15.146  13.811
47464W        W11221   5.340  11.289   0.309
47465W        W11222  12.689  42.442   4.155
47466W        W11223  13.111  29.493   3.749
47467W        W11224  18.762  16.651  14.404
47468W        W11225  29.068  19.284  13.530
47469W        W11226  32.894   5.773   2.331
47470W        W11227  11.365   6.265  13.512
47471W        W11228   0.809   8.314   4.607
47472W        W11229  40.410  25.686  14.329
47473W        W11230  31.059  27.073   9.970
47474W        W11231  43.490  25.607   0.840
47475W        W11232  25.621   3.228  11.057
47476W        W11233  17.801   9.355  14.899
47477W        W11234  30.908  27.593  10.084
47478W        W11235  34.062  39.557   4.250
47479W        W11236  40.021  41.838   1.389
47480W        W11237  34.973   0.826  12.431
47481W        W11238   4.251  22.076   3.384
47482W        W11239  10.360   8.862   2.816
47483W        W11240  43.021  22.722   4.336
47484W        W11241   9.190  13.739  14.760
47485W        W11242  15.587  25.573   2.790
47486W        W11243   2.392  15.684   0.298
47487W        W11244  29.152  12.697   1.901
47488W        W11245  40.000  29.009  13.438
47489W        W11246  38.007  34.482   4.670
47490W        W11247  14.144  37.023  12.911
47491W        W11248  10.302  21.582  11.071
47492W        W11249  23.180  26.168   4.832
47493W        W11250  23.576  15.123  11.097
47494W        W11251  38.514  43.481  11.002
47495W        W11252  33.610  36.849  11.025
47496W        W11253  25.471  26.091  10.429
47497W        W11254  12.140   5.818  11.873
47498W        W11255  31.950   7.416  11.460
47499W        W11256  36.005  18.715   3.291
47500W        W11257  32.545  30.569   0.778
47501W        W11258   0.780  27.178  11.889
47502W        W11259  27.571   0.942   1.295
47503W        W11260   9.750  10.865  14.375
47504W        W11261  21.102  44.983  11.058
47505W        W11262  32.543  42.285  14.774
47506W        W11263  15.118  20.164   4.616
47507W        W11264   0.331  33.963   2.734
47508W        W11265  21.698  39.484  14.401
47509W        W11266  16.768  13.323   9.643
47510W        W11267  17.698  24.012  10.459
47511W        W11268  39.505  35.563   2.182
47512W        W11269  18.051  14.632   4.337
47513W        W11270  10.806  19.261   0.268
47514W        W11271  22.179  13.756  14.825
47515W        W11272  27.192   9.242  11.874
47516W        W11273  39.922  40.441   0.333
47517W        W11274  33.034  30.646  13.903
47518W        W11275  35.567  17.695   0.344
47519W        W11276   1.922  17.147  11.548
47520W        W11277   9.245   5.394   2.773
47521W        W11278  21.599  34.972   2.199
47522W        W11279   2.825  36.891   4.234
47523W        W11280   5.856  27.469  12.997
47524W        W11281  37.082  32.478  10.540
47525W        W11282   9.229  29.458   3.829
47526W        W11283  32.548  38.343   0.967
47527W        W11284   3.268  27.038   0.936
47528W        W11285  32.492  29.667  10.914
47529W        W11286  43.515  42.901   2.755
47530W        W11287   9.325  33.416   0.446
47531W        W11288  33.452   2.891  12.849
47532W        W11289   4.906   2.942   4.334
47533W        W11290  14.603  42.438   2.312
47534W        W11291  10.261  29.959   2.838
47535W        W11292  18.078   1.806   3.179
47536W        W11293  29.149  13.622  10.496
47537W        W11294  24.023  39.352   3.287
47538W        W11295  22.090   2.901   2.398
47539W        W11296  35.360  20.150   0.781
47540W        W11297  33.109  23.667  11.875
47541W        W11298  35.109  21.100   0.405
47542W        W11299  31.414  32.080   3.191
47543W        W11300  24.200   0.918   4.152
47544W        W11301  24.184  11.191   2.884
47545W        W11302   5.197   5.838   4.120
47546W        W11303  38.331   8.182  11.511
47547W        W11304  23.215  11.217   3.210
47548W        W11305   5.809  12.732   3.867
47549W        W11306  31.561  16.140   0.847
47550W        W11307  36.860  30.592  13.931
47551W        W11308  35.878  29.488  10.073
47552W        W11309  23.658  19.229   2.664
47553W        W11310   9.153  23.223   4.807
47554W        W11311  24.602  40.329   1.359
47555W        W11312   9.261   1.901  12.914
47556W        W11313   2.309  34.541  10.529
47557W        W11314  42.789  25.554   0.820
47558W        W11315  43.363  30.059  12.932
47559W        W11316  38.499   2.235  13.403
47560W        W11317  19.177  32.555  11.592
47561W        W11318   8.741  44.967  11.076
47562W        W11319  28.435  32.994  13.938
47563W        W11320  16.221  28.563   3.175
47564W        W11321  42.897  23.110   4.143
47565W        W11322  23.053  30.145   3.383
47566W        W11323  13.326   4.889   0.741
47567W        W11324  13.637  10.708   4.120
47568W        W11325  29.603  28.505  10.615
47569W        W11326  15.291   9.868  13.448
47570W        W11327  32.938  40.308  14.429
47571W        W11328  39.469  28.992   4.814
47572W        W11329   8.215  44.881   4.315
47573W        W11330   2.864   1.480  14.898
47574W        W11331  33.074   0.393  13.834
47575W        W11332  15.696  43.332  10.126
47576W        W11333  26.964   9.723  14.344
47577W        W11334   0.953  43.000  10.050
47578W        W11335  33.399  44.397  11.959
47579W        W11336  43.514  32.011  12.086
47580W        W11337  23.711  40.942  12.437
47581W        W11338  13.253  22.133   0.442
47582W        W11339  41.501  31.102   3.795
47583W        W11340  24.582  20.629   1.403
47584W        W11341  41.914  40.883  14.393
47585W        W11342   4.297   8.876   1.291
47586W        W11343  34.581   5.695   3.217
47587W        W11344  17.172   8.191  13.820
47588W        W11345  21.656  34.879  14.850
47589W        W11346  35.412  20.716   4.659
47590W        W11347  16.618  12.614  13.508
47591W        W11348   3.740  13.720   3.300
47592W        W11349   9.324  40.496   2.203
47593W        W11350  37.908  43.477   3.271
47594W        W11351   5.306  21.238   2.700
47595W        W11352  14.822  31.132  14.362
47596W        W11353  35.017  25.204  13.417
47597W        W11354  44.900  21.534  14.436
47598W        W11355  20.231  15.666   4.335
47599W        W11356  10.175   2.433   2.272
47600W        W11357  32.510  30.028   2.353
47601W        W11358  28.533  26.190   3.869
47602W        W11359  20.651  44.949  13.503
47603W        W11360   8.252   1.362   2.889
47604W        W11361  16.296  16.699   3.275
47605W        W11362  21.109   3.710   1.923
47606W        W11363   4.402  21.260  13.360
47607W        W11364   6.327  30.998   3.307
47608W        W11365  18.076  33.070  12.864
47609W        W11366  20.222  21.689   3.722
47610W        W11367   2.896   0.822  13.010
47611W        W11368  15.647  40.541  13.331
47612W        W11369  18.232  34.067   2.308
47613W        W11370  40.437   2.376  12.441
47614W        W11371   5.382  15.158  12.892
47615W        W11372  19.244  39.549  14.888
47616W        W11373  22.617  20.205   4.285
47617W        W11374  38.029   2.937  13.908
47618W        W11375  39.890  38.537   3.722
47619W        W11376  30.584   8.666   0.361
47620W        W11377  19.671  17.238   1.812
47621W        W11378   5.817  27.014   3.315
47622W        W11379  14.246  21.186   2.180
47623W        W11380  13.763   2.466   0.247
47624W        W11381  15.669   3.735   2.281
47625W        W11382  22.029   0.490   2.789
47626W        W11383  10.808  25.546  12.409
47627W        W11384   5.905  22.231  13.484
47628W        W11385  35.361  17.211  11.484
47629W        W11386  29.559  40.477   2.772
47630W        W11387  11.844  37.999   2.280
47631W        W11388  31.599  40.993  13.514
47632W        W11389  22.251  35.053   3.223
47633W        W11390  15.612  35.907   1.888
47634W        W11391  28.665  29.987  11.502
47635W        W11392   8.300  39.025  12.946
47636W        W11393   5.904   6.735  13.842
47637W        W11394  17.189  19.283  11.926
47638W        W11395   3.297  20.752   4.648
47639W        W11396  25.635  15.684  10.033
47640W        W11397   9.694   4.407  11.546
47641W        W11398  38.510  13.270  14.815
47642W        W11399  29.942  20.199   0.873
47643W        W11400   1.757  24.578  10.548
47644W        W11401  22.157   5.302  10.956
47645W        W11402  20.162  44.951   3.633
47646W        W11403  23.058  11.247  10.897
47647W        W11404  44.445  17.294   4.293
47648W        W11405   0.980  15.272  11.512
47649W        W11406  11.158  29.606   4.132
47650W        W11407   7.732   6.406   4.209
47651W        W11408  24.623  18.136  12.940
47652W        W11409  34.056  20.567  14.956
47653W        W11410  33.392  36.558  14.423
47654W        W11411   5.881  41.499  14.031
47655W        W11412  12.771  34.428   3.285
47656W        W11413   7.220  25.573   2.682
47657W        W11414  31.902  23.149  10.449
47658W        W11415  34.511  41.411  14.971
47659W        W11416  44.387  39.520   3.376
47660W        W11417  30.017   7.274   4.601
47661W        W11418  41.860   3.233   4.784
47662W        W11419   7.879  16.285  10.962
47663W        W11420  30.456   9.725   0.468
47664W        W11421   5.306  32.469   2.772
47665W        W11422  18.226   1.400  12.529
47666W        W11423   5.199  15.697  13.370
47667W        W11424  18.225  19.269   1.811
47668W        W11425  31.144  17.296  14.489
47669W        W11426   9.254  22.691  13.798
47670W        W11427  32.462  31.640  11.384
47671W        W11428  44.925   8.275   3.864
47672W        W11429   0.857  35.579  14.891
47673W        W11430  10.289  37.453   0.830
47674W        W11431  44.322   9.714  10.436
47675W        W11432   6.390  12.125  12.433
47676W        W11433  30.157   1.461  14.404
47677W        W11434  39.475   5.755   1.783
47678W        W11435  32.562  19.583   0.737
47679W        W11436  19.144  27.676  10.637
47680W        W11437  24.195   2.351   3.217
47681W        W11438   2.291  11.803  13.482
47682W        W11439  42.849  17.285  12.964
47683W        W11440  33.407  42.858   9.955
47684W        W11441   2.430   9.386   2.338
47685W        W11442  25.534  16.648  12.916
47686W        W11443  38.965  29.613  12.050
47687W        W11444  26.965   0.848   3.632
47688W        W11445  43.973  27.094   3.169
47689W        W11446  27.636  22.084   1.318
47690W        W11447  40.974  23.989   2.255
47691W        W11448  31.585  13.617   2.816
47692W        W11449   5.238   5.807   1.404
47693W        W11450  29.000  38.070   4.198
47694W        W11451   4.851   9.678   2.710
47695W        W11452  17.703  12.184  12.347
47696W        W11453  37.407  24.217   0.355
47697W        W11454  21.516  31.581   5.260
47698W        W11455   2.954   2.773  10.624
47699W        W11456  41.798  24.109  14.459
47700W        W11457  16.304  32.604  11.917
47701W        W11458  42.996  44.822   1.743
47702W        W11459   8.223  14.825  10.026
47703W        W11460  43.884  33.541   3.862
47704W        W11461  13.245   3.817  14.508
47705W        W11462  17.131  23.076  10.611
47706W        W11463  29.140   2.852  11.103
47707W        W11464   9.169  13.729  12.071
47708W        W11465  23.544  10.644  14.972
47709W        W11466  28.137  39.943   1.810
47710W        W11467  32.402  44.814  13.506
47711W        W11468  16.127   3.884  14.442
47712W        W11469  22.590  40.367  10.623
47713W        W11470   6.810  29.008  14.952
47714W        W11471  20.586  33.563   0.898
47715W        W11472  36.579  15.249   3.646
47716W        W11473  16.624  32.434   3.739
47717W        W11474  30.585  39.488   0.316
47718W        W11475  29.479  20.622  10.624
47719W        W11476  24.187  28.656   0.843
47720W        W11477  42.815   9.787  12.077
47721W        W11478  14.818   9.796  13.802
47722W        W11479  23.673  26.117   0.828
47723W        W11480  16.599  42.498   2.846
47724W        W11481  38.883  28.999  14.422
47725W        W11482  21.608   7.681   3.329
47726W        W11483   4.847   5.718  10.063
47727W        W11484   5.372  30.563  14.777
47728W        W11485  38.518  33.423  11.907
47729W        W11486  34.605  40.043  12.543
47730W        W11487  30.569   5.250  11.863
47731W        W11488  15.603   5.226  13.380
47732W        W11489  42.428  28.930   3.702
47733W        W11490  23.195  11.218  13.326
47734W        W11491  11.804  41.442  10.523
47735W        W11492  21.625  18.190   3.762
47736W        W11493  34.914  40.387  12.989
47737W        W11494  22.716  24.989   3.838
47738W        W11495   0.747  25.607   4.727
47739W        W11496   6.847   0.257   0.337
47740W        W11497  42.787  25.179  10.979
47741W        W11498  42.403  38.457   4.135
47742W        W11499   5.799  25.619  11.020
47743W        W11500  37.916   0.946  13.334
47744W        W11501  15.730   6.692   3.643
47745W        W11502  31.600  39.012  12.841
47746W        W11503  39.526  34.569  13.497
47747W        W11504   6.773   6.726  11.931
47748W        W11505   0.898  40.465  14.889
47749W        W11506  36.932   6.812  14.796
47750W        W11507   0.748  29.659  11.123
47751W        W11508  18.263  24.581   3.174
47752W        W11509  37.559  12.362  13.034
47753W        W11510  14.321  17.114   3.637
47754W        W11511  20.104  22.606   2.308
47755W        W11512  22.566  42.480  12.553
47756W        W11513  37.532  19.284  14.883
47757W        W11514  17.265  31.514  10.458
47758W        W11515   3.877  24.667  13.956
47759W        W11516  18.637  18.192  11.109
47760W        W11517  25.490  32.472  12.839
47761W        W11518  12.125  29.599   1.716
47762W        W11519  38.431  10.779  12.978
47763W        W11520  25.060  16.767  14.398
47764W        W11521  16.202  25.990  10.565
47765W        W11522  38.866  28.144   1.434
47766W        W11523  15.799  24.506   0.928
47767W        W11524   8.830  36.356   2.761
47768W        W11525  10.294  24.542  11.982
47769W        W11526  42.002  36.023   2.706
47770W        W11527  39.946  43.824  13.802
47771W        W11528  24.978  44.910   2.319
47772W        W11529  31.415   5.856  12.953
47773W        W11530  33.052  20.182   4.812
47774W        W11531  27.160  42.384   4.168
47775W        W11532   2.965  13.293   1.903
47776W        W11533   8.726  12.775   3.273
47777W        W11534  38.526  37.936   0.364
47778W        W11535  22.229  37.830   0.409
47779W        W11536   2.730  33.570  10.605
47780W        W11537  35.920  32.121   4.725
47781W        W11538  36.941   4.830  11.393
47782W        W11539  30.446  37.409   2.239
47783W        W11540  40.962  41.846  14.323
47784W        W11541  20.198  11.238   2.687
47785W        W11542  24.641  35.360   0.861
47786W        W11543  22.115  44.938  14.328
47787W        W11544  34.575  37.401  14.388
47788W        W11545  24.075   4.334  14.410
47789W        W11546  27.021  11.263  11.563
47790W        W11547  43.015  12.153  10.473
47791W        W11548  26.034   4.426   2.231
47792W        W11549  43.374  42.012  14.777
47793W        W11550  21.227  37.063   2.186
47794W        W11551  41.957  41.979  14.482
47795W        W11552   5.722  21.573   2.384
47796W        W11553  21.163  40.427  10.553
47797W        W11554  31.623   0.410   4.656
47798W        W11555  43.879  41.462  11.032
47799W        W11556  18.615  11.273  12.061
47800W        W11557  20.688   3.352   3.663
47801W        W11558  39.899  17.209   0.453
47802W        W11559  13.163  36.541   1.440
47803W        W11560  35.534  35.946   2.874
47804W        W11561  31.006   2.823  11.911
47805W        W11562  25.551  34.083   1.887
47806W        W11563  17.069  39.327  11.496
47807W        W11564  19.251  21.090  13.989
47808W        W11565   3.380   8.242  14.803
47809W        W11566  12.183  39.005   2.198
47810W        W11567  17.681  38.415   2.706
47811W        W11568  23.715  18.093   1.345
47812W        W11569   1.366  14.791  11.048
47813W        W11570  16.284   3.332   1.930
47814W        W11571  39.363  21.558  13.825
47815W        W11572  30.516  28.975   0.436
47816W        W11573  19.741  16.219   0.424
47817W        W11574  44.478  16.593   3.740
47818W        W11575  40.941  10.370   0.425
47819W        W11576   5.843  34.517  12.894
47820W        W11577  24.009  22.132   3.325
47821W        W11578  23.213  13.179   1.697
47822W        W11579  22.054   6.345   2.279
47823W        W11580  37.441   1.969  14.799
47824W        W11581  21.156   7.249  12.396
47825W        W11582  44.470  35.942  11.572
47826W        W11583  23.121  21.757   4.131
47827W        W11584  40.504  16.787   3.848
47828W        W11585  24.633  38.853   1.357
47829W        W11586  32.984  41.494  12.351
47830W        W11587  44.925   1.867  12.474
47831W        W11588  13.271   0.766   1.248
47832W        W11589  40.956  36.449   4.607
47833W        W11590  26.953  35.100   4.679
47834W        W11591  15.731  43.444   3.756
47835W        W11592  34.957   0.896  11.999
47836W        W11593  44.403  16.206   4.719
47837W        W11594   7.241  30.138   2.249
47838W        W11595  17.622  34.940  13.907
47839W        W11596  10.378  38.556   3.726
47840W        W11597  41.342  43.888  10.632
47841W        W11598  13.170  33.993   3.171
47842W        W11599   6.347   8.792  12.829
47843W        W11600  28.455  41.972   1.319
47844W        W11601  16.741   4.343  11.500
47845W        W11602   3.227   9.187  11.064
47846W        W11603  30.644   7.370  11.001
47847W        W11604  22.560   5.362  11.494
47848W        W11605   1.959  37.526  14.414
47849W        W11606  17.143  42.865  11.508
47850W        W11607  28.606  30.534  13.370
47851W        W11608   4.729  40.527   3.801
47852W        W11609  42.472   8.670  13.013
47853W        W11610  17.604  22.053  12.354
47854W        W11611  43.993  22.606  13.307
47855W        W11612   0.350   0.404   4.294
47856W        W11613  33.384  16.153  12.381
47857W        W11614  38.920   6.322   3.331
47858W        W11615  31.523  28.669   3.846
47859W        W11616  35.455  13.630  10.899
47860W        W11617  19.670  10.357   1.917
47861W        W11618   2.419  19.733  13.361
47862W        W11619   4.726   3.829   2.754
47863W        W11620  12.820  28.948  13.499
47864W        W11621  22.062  35.103  14.790
47865W        W11622  12.663  27.064   4.646
47866W        W11623  10.860  35.571  11.440
47867W        W11624  40.521  23.568  12.001
47868W        W11625  23.984  16.228  11.465
47869W        W11626   5.866  26.041  11.401
47870W        W11627  15.278  19.199  13.542
47871W        W11628  21.167  33.074  11.505
47872W        W11629   6.680  44.963  10.989
47873W        W11630  32.538  21.075  13.891
47874W        W11631  30.079  38.341  12.041
47875W        W11632  26.122  44.389   4.220
47876W        W11633  13.301  18.686  10.092
47877W        W11634   7.378  29.538   1.911
47878W        W11635  17.084  10.778   3.695
47879W        W11636   8.394   3.343  10.600
47880W        W11637  27.449  23.051  13.882
47881W        W11638  33.509   9.353   1.292
47882W        W11639  42.939   4.849  11.868
47883W        W11640  37.838  37.473  14.833
47884W        W11641  18.209  18.588   2.383
47885W        W11642   8.780   0.832  13.034
47886W        W11643  33.435  24.973   1.404
47887W        W11644  30.590   6.719  10.947
47888W        W11645  17.673  35.371  10.570
47889W        W11646   2.920  32.609  11.604
47890W        W11647  39.983  28.103  14.472
47891W        W11648  39.465   4.791   4.309
47892W        W11649  17.789  25.069  13.907
47893W        W11650  17.266  26.675  11.475
47894W        W11651   5.318   1.394   4.208
47895W        W11652  21.606  15.142  11.977
47896W        W11653  34.988  13.347   3.840
47897W        W11654  22.006  41.476  14.420
47898W        W11655  28.168   8.399   0.399
47899W        W11656  23.097  35.921   3.254
47900W        W11657  14.302   6.762   1.337
47901W        W11658  18.749  27.135  14.408
47902W        W11659   0.769  27.686   0.478
47903W        W11660  17.727  11.696   1.759
47904W        W11661  13.748  20.184  12.427
47905W        W11662  20.753  43.298   1.724
47906W        W11663   1.976   0.817  13.447
47907W        W11664  14.602  21.060   0.461
47908W        W11665  35.445  37.498   4.781
47909W        W11666  33.880  35.439  14.356
47910W        W11667   5.407  44.396   3.305
47911W        W11668  42.408  27.530  11.394
47912W        W11669  24.115  28.458  11.513
47913W        W11670  25.593  31.615  12.961
47914W        W11671  18.099  37.436  10.145
47915W        W11672  30.939  11.746   3.783
47916W        W11673  25.633  39.357  11.872
47917W        W11674   9.376  28.952  10.564
47918W        W11675  10.857  27.987  13.840
47919W        W11676  29.124  20.550  10.605
47920W        W11677  28.954  32.393  13.897
47921W        W11678  15.700   6.301  12.972
47922W        W11679  29.139   7.666  13.464
47923W        W11680  32.462  18.250  14.866
47924W        W11681  43.404  44.850   1.909
47925W        W11682  26.980  42.945  11.960
47926W        W11683  23.074  41.291   4.694
47927W        W11684  12.780   9.859  11.481
47928W        W11685  22.597  27.467  10.432
47929W        W11686   2.367  22.540   1.316
47930W        W11687  34.944  27.126  12.988
47931W        W11688   7.674  35.976   4.299
47932W        W11689  18.682  33.578  10.030
47933W        W11690  10.369   5.745   0.790
47934W        W11691  41.007  29.636   3.245
47935W        W11692  35.431  43.900   3.245
47936W        W11693  13.726   0.963   2.198
47937W        W11694  13.128  29.626  14.906
47938W        W11695   4.401  27.461  14.319
47939W        W11696  34.601  24.170   0.275
47940W        W11697  42.977  22.200   3.296
47941W        W11698   9.276  18.662   0.477
47942W        W11699  31.980   6.215  11.052
47943W        W11700  22.183   0.824  12.499
47944W        W11701  21.209  29.018   4.726
47945W        W11702  43.939  42.470   0.386
47946W        W11703  43.448  31.014  14.963
47947W        W11704  28.608  26.617  11.437
47948W        W11705   4.836  23.654  13.425
47949W        W11706  28.948  39.356  14.380
47950W        W11707  43.986  41.503   0.858
47951W        W11708  39.845   3.364   0.301
47952W        W11709  43.844  35.094  12.048
47953W        W11710  36.584  30.498   0.773
47954W        W11711  37.470  28.048  12.023
47955W        W11712   6.796  43.914  12.923
47956W        W11713  28.063  38.332  10.550
47957W        W11714  31.067  36.921   3.796
47958W        W11715   1.770  24.658  12.898
47959W        W11716  33.889  26.684   4.332
47960W        W11717  23.709  12.792   1.316
47961W        W11718  25.569   7.738  14.446
47962W        W11719   0.836   5.725  12.827
47963W        W11720  18.777  38.917  13.528
47964W        W11721   3.952  19.271  10.986
47965W        W11722  20.213  10.370   2.243
47966W        W11723   7.220  34.597  12.987
47967W        W11724  40.365   4.380  14.284
47968W        W11725   5.420  14.752  13.385
47969W        W11726  40.411   7.190  12.837
47970W        W11727  44.966  44.295  13.499
47971W        W11728  43.788  34.009  13.432
47972W        W11729   4.917  23.649   4.759
47973W        W11730  24.602  36.480   0.405
47974W        W11731   3.765  40.545   3.285
47975W        W11732  41.943   0.940   0.433
47976W        W11733   4.317  24.724  14.452
47977W        W11734  35.373  29.932   9.501
47978W        W11735   2.314  44.787  11.396
47979W        W11736  39.039   9.880   2.369
47980W        W11737  31.982  29.461   4.698
47981W        W11738  41.445   8.209  11.081
47982W        W11739  15.120  13.810   3.387
47983W        W11740  14.324  33.533  11.427
47984W        W11741  26.099  28.974   2.876
47985W        W11742  30.962  30.132   0.329
47986W        W11743  25.589  37.345  12.880
47987W        W11744  33.094   5.251   4.602
47988W        W11745  40.824  25.184  10.412
47989W        W11746  10.159  39.952   5.288
47990W        W11747  26.660   1.863   2.281
47991W        W11748  25.187  16.085   2.781
47992W        W11749  39.837   7.896   4.287
47993W        W11750  39.947   0.950   2.738
47994W        W11751  20.250  27.621  14.310
47995W        W11752  30.994  27.023  11.072
47996W        W11753  14.794  16.206  14.000
47997W        W11754   7.850  23.101  13.821
47998W        W11755   4.916   6.330  11.983
47999W        W11756  15.708  10.275  13.997
48000W        W11757  40.497  10.236  11.575
48001W        W11758  27.147  44.799   1.392
48002W        W11759  23.070  11.848  13.060
48003W        W11760  29.085   0.964  12.508
48004W        W11761  36.848  40.841  12.929
48005W        W11762   1.363   3.928  10.476
48006W        W11763   1.827  35.068  11.912
48007W        W11764  16.775  32.944  11.523
48008W        W11765   4.398   0.461   1.845
48009W        W11766   0.488  35.880  14.003
48010W        W11767   1.242   8.737   2.312
48011W        W11768  34.478  17.666  11.869
48012W        W11769  25.622  17.228   3.274
48013W        W11770  39.000  33.916  13.850
48014W        W11771  38.564  32.483  10.593
48015W        W11772  44.372  32.085  12.907
48016W        W11773  43.839  43.441   2.323
48017W        W11774  19.137  35.597   2.329
48018W        W11775  32.004   0.809   5.084
48019W        W11776  17.211  16.711   0.456
48020W        W11777   5.303  38.891   1.281
48021W        W11778   6.323   0.399   3.725
48022W        W11779   1.957  41.513  11.865
48023W        W11780  18.733  30.043  14.775
48024W        W11781  18.186  19.585  12.094
48025W        W11782  12.301  32.982   4.122
48026W        W11783   7.334  22.179   0.776
48027W        W11784  31.427  15.146  14.351
48028W        W11785  42.954   6.268  11.113
48029W        W11786  42.486  34.427  10.974
48030W        W11787  41.478  39.848   1.868
48031W        W11788  27.031  37.900   3.189
48032W        W11789  34.948  22.180   1.270
48033W        W11790  22.160  12.249  12.922
48034W        W11791  42.793  40.307   2.775
48035W        W11792  25.149  38.448   1.715
48036W        W11793  27.996  11.266   3.200
48037W        W11794  38.404  38.493  12.909
48038W        W11795  19.046  13.222  11.491
48039W        W11796  40.987   7.359   2.874
48040W        W11797   5.243   0.275  14.437
48041W        W11798  44.444  42.906   1.406
48042W        W11799  21.529  38.426   0.408
48043W        W11800   6.187  20.186   1.386
48044W        W11801  26.680   9.328   3.351
48045W        W11802  24.044  19.139  12.990
48046W        W11803   2.328  41.453  13.407
48047W        W11804  28.089  24.564  14.367
48048W        W11805  24.704   3.437   3.324
48049W        W11806   4.795   6.394  11.010
48050W        W11807  20.246  15.654  14.926
48051W        W11808  21.630   6.802  11.446
48052W        W11809  19.242  43.880  13.519
48053W        W11810   9.189   6.744  12.910
48054W        W11811  27.190  17.207   2.203
48055W        W11812  40.847  26.528  12.096
48056W        W11813  36.478   5.238  10.464
48057W        W11814  33.099  25.606   0.422
48058W        W11815   5.811  31.034  13.340
48059W        W11816   1.248  23.198   2.233
48060W        W11817  13.632  23.029  11.964
48061W        W11818  41.903  43.851   4.271
48062W        W11819  18.545  31.954   4.121
48063W        W11820   9.866  32.923  11.884
48064W        W11821   0.828  44.349   4.603
48065W        W11822  22.747  32.637   2.738
48066W        W11823   9.864  31.642  13.942
48067W        W11824  41.808   6.420   3.302
48068W        W11825  32.978  19.097   3.283
48069W        W11826  30.110   1.952  11.393
48070W        W11827  30.648   1.294  13.342
48071W        W11828  21.717  10.839   2.886
48072W        W11829   4.290  17.126  11.965
48073W        W11830  36.416  43.454   2.275
48074W        W11831  16.307   7.267   3.383
48075W        W11832  22.537   9.303  13.477
48076W        W11833  30.445   0.264  12.419
48077W        W11834  14.657  12.815   2.339
48078W        W11835  34.986  36.422  11.054
48079W        W11836  12.643  26.067  14.955
48080W        W11837  31.145  11.796  13.974
48081W        W11838  43.972   0.411   1.313
48082W        W11839  38.043  27.630   0.382
48083W        W11840  21.150  18.577  11.093
48084W        W11841  15.257  13.137  14.495
48085W        W11842  24.219  26.700   4.782
48086W        W11843  42.395  26.184  13.038
48087W        W11844  20.611  33.488   1.770
48088W        W11845  35.465  40.302   0.865
48089W        W11846   2.926  28.503  14.983
48090W        W11847  24.495  39.411   0.927
48091W        W11848   0.884  42.832  13.994
48092W        W11849  24.218  24.151   0.344
48093W        W11850  32.089  14.218   2.258
48094W        W11851  30.476   0.743   1.783
48095W        W11852  28.667  30.097   3.720
48096W        W11853  34.396  10.714  10.550
48097W        W11854  27.140   3.417  13.423
48098W        W11855  14.178  12.839   4.755
48099W        W11856  33.498   7.873   3.703
48100W        W11857  41.914   0.843   3.305
48101W        W11858  24.596  27.483   4.705
48102W        W11859  10.223   6.297  13.048
48103W        W11860  20.167   0.247   3.338
48104W        W11861   1.331  14.614  13.331
48105W        W11862  34.076   4.257  11.982
48106W        W11863  21.645  33.129  10.517
48107W        W11864  12.618  11.369   4.665
48108W        W11865  18.554  15.725   5.273
48109W        W11866   7.672  41.864   4.232
48110W        W11867  32.454   5.923   4.772
48111W        W11868  19.594   9.842  10.915
48112W        W11869  12.140  31.591   4.162
48113W        W11870   2.914  42.945  12.933
48114W        W11871  10.215  15.641   2.263
48115W        W11872  42.507  12.201  13.025
48116W        W11873  16.792   5.327   4.165
48117W        W11874  23.586  30.632  13.364
48118W        W11875   8.341  38.329   0.734
48119W        W11876  13.273  34.450   0.887
48120W        W11877  44.846  28.616   1.300
48121W        W11878  38.503  15.164   3.163
48122W        W11879  13.696  12.740  14.968
48123W        W11880  42.838  28.132  12.363
48124W        W11881  34.482   7.171   3.310
48125W        W11882   2.959  34.899   2.328
48126W        W11883  25.557  18.674   0.277
48127W        W11884  15.793  39.354   2.804
48128W        W11885  27.141  11.692  10.554
48129W        W11886   0.798  21.713  11.585
48130W        W11887  13.654  33.969  13.959
48131W        W11888  34.372  13.827  11.487
48132W        W11889  21.046  38.413   2.192
48133W        W11890  25.594   8.328  12.407
48134W        W11891  30.908  38.424   0.392
48135W        W11892  11.317  27.597   0.864
48136W        W11893   0.904  13.656   3.375
48137W        W11894   9.357  37.843   2.383
48138W        W11895  20.545  21.155  14.030
48139W        W11896  42.829  24.181   4.792
48140W        W11897  27.641  28.961   1.419
48141W        W11898  24.558  20.088  11.061
48142W        W11899  10.295  13.222  14.455
48143W        W11900   5.362  29.545   4.197
48144W        W11901  28.632  32.101  13.855
48145W        W11902  42.368  31.999   2.780
48146W        W11903  33.904  30.116   4.764
48147W        W11904  36.960  43.979   2.736
48148W        W11905  35.510  42.913  10.600
48149W        W11906  26.121  20.561  14.785
48150W        W11907  32.571  42.281  10.516
48151W        W11908  12.348  30.936  13.800
48152W        W11909  36.481  23.052  11.879
48153W        W11910  36.437  12.748  13.031
48154W        W11911  38.901  13.220   0.298
48155W        W11912  33.552   5.352   0.295
48156W        W11913  42.842  25.670   4.219
48157W        W11914  24.632  12.125  13.803
48158W        W11915  29.981  39.367   0.298
48159W        W11916  15.155  17.279  14.879
48160W        W11917   6.859  29.581   2.762
48161W        W11918  44.418  34.009  12.474
48162W        W11919   9.263  28.990  12.465
48163W        W11920  17.709  36.949   3.247
48164W        W11921  40.500  27.572  12.454
48165W        W11922  29.981   7.766  10.968
48166W        W11923   4.868  44.290  10.565
48167W        W11924  37.986  16.736  14.004
48168W        W11925  42.794  34.959  11.432
48169W        W11926   9.376  10.253   3.311
48170W        W11927   7.820  23.643  10.442
48171W        W11928  38.327   9.382   2.845
48172W        W11929  22.590  23.509  11.515
48173W        W11930   8.872  27.564  10.619
48174W        W11931  22.521  19.201  12.856
48175W        W11932  26.626  21.606   5.139
48176W        W11933  29.098  25.181   0.388
48177W        W11934  34.961  11.189   4.166
48178W        W11935   8.331   4.941   4.750
48179W        W11936  25.962   6.246  11.881
48180W        W11937   7.911  16.576  12.022
48181W        W11938  17.232  12.726  11.062
48182W        W11939  21.520  26.123   4.765
48183W        W11940  34.876  31.483   2.351
48184W        W11941  11.754  44.320   1.728
48185W        W11942  25.643  36.913  13.995
48186W        W11943  40.389   5.274  11.076
48187W        W11944   3.325   0.266   4.645
48188W        W11945   9.822  40.368  13.873
48189W        W11946  34.412  22.129  11.058
48190W        W11947   3.365  15.120  12.542
48191W        W11948  20.577  21.201  10.912
48192W        W11949  40.997  18.075   4.657
48193W        W11950  10.246   0.432  13.495
48194W        W11951  29.033  10.360  14.325
48195W        W11952  25.183  29.010  14.859
48196W        W11953  15.591  15.239  12.048
48197W        W11954  28.112   7.173  12.008
48198W        W11955  26.956  32.027   4.339
48199W        W11956  10.683  20.152   0.321
48200W        W11957  28.150   5.835   1.249
48201W        W11958  32.620   8.847   2.677
48202W        W11959  19.702  44.334   1.383
48203W        W11960  38.416  14.762   2.263
48204W        W11961  43.429  11.690  13.021
48205W        W11962  43.803  21.241   2.834
48206W        W11963  29.539   2.826  14.968
48207W        W11964  20.263  32.509   0.292
48208W        W11965  22.115  35.507   0.449
48209W        W11966   0.356   4.778   3.658
48210W        W11967  29.159  36.952   0.769
48211W        W11968  37.402  36.558   3.659
48212W        W11969  18.189  36.068   4.243
48213W        W11970  32.999   8.897  11.395
48214W        W11971  12.173  33.396   1.777
48215W        W11972  37.360  21.657   1.835
48216W        W11973  40.421  19.662   2.355
48217W        W11974  17.618  38.069   2.214
48218W        W11975  29.006  35.910  12.553
48219W        W11976  44.801   2.822  13.462
48220W        W11977   8.705  20.687  11.462
48221W        W11978  21.518  33.466   0.959
48222W        W11979   1.420  21.628   3.642
48223W        W11980  27.463  36.947  12.989
48224W        W11981   0.983  19.612   3.316
48225W        W11982   0.913  38.522  14.318
48226W        W11983  32.498  44.845  11.038
48227W        W11984  38.510   8.302   0.941
48228W        W11985  11.318  39.839   4.823
48229W        W11986  41.987  18.751  11.908
48230W        W11987  27.645   1.459  13.527
48231W        W11988  42.779   4.782  12.829
48232W        W11989  17.194  32.968  13.955
48233W        W11990  16.755  26.988  13.511
48234W        W11991  43.412  13.324   3.848
48235W        W11992  11.837  20.215   0.397
48236W        W11993  31.074  20.148  14.441
48237W        W11994  39.425  17.764   4.313
48238W        W11995  21.621  38.460   3.210
48239W        W11996  26.544  20.569   3.761
48240W        W11997  27.038  19.570  11.506
48241W        W11998  13.704  18.768   1.419
48242W        W11999  18.717   1.890   0.414
48243W        W12000  20.595   7.267  12.871
48244W        W12001   3.349   8.713  14.429
48245W        W12002  29.472  11.835  12.520
48246W        W12003  41.997   8.272  13.447
48247W        W12004  32.444  27.542  11.015
48248W        W12005  12.649  40.472  10.430
48249W        W12006  22.170  17.062  14.000
48250W        W12007  44.929  37.078   1.450
48251W        W12008  36.472  11.668   1.811
48252W        W12009  13.303  25.110   3.176
48253W        W12010   9.835   0.475   0.749
48254W        W12011  32.504  36.071  13.954
48255W        W12012  16.072  19.087   3.831
48256W        W12013  22.660   5.425  14.897
48257W        W12014  35.931  24.046   4.132
48258W        W12015  29.624  42.324  13.453
48259W        W12016  30.557  18.254   2.310
48260W        W12017  11.129   1.775  10.585
48261W        W12018  10.820   7.883  14.811
48262W        W12019  44.922  31.628   4.253
48263W        W12020  40.541  14.205  12.346
48264W        W12021  24.071  11.723  13.037
48265W        W12022  34.497  18.597  11.448
48266W        W12023  33.536  33.416  12.843
48267W        W12024  13.836  13.217  14.398
48268W        W12025  21.621  19.197   4.285
48269W        W12026   7.767  43.457  11.118
48270W        W12027  25.614  16.651  14.911
48271W        W12028  41.370  38.345   1.889
48272W        W12029  12.344   4.891  11.499
48273W        W12030  34.385  39.992   4.610
48274W        W12031  24.144  43.871  14.346
48275W        W12032  16.706  27.121  13.057
48276W        W12033  15.593  15.713   3.350
48277W        W12034   5.199  11.863  11.403
48278W        W12035  39.842   8.301   4.347
48279W        W12036  30.921  22.708  10.513
48280W        W12037   1.807  32.491  11.063
48281W        W12038  22.113  26.478  13.060
48282W        W12039  13.245  35.076   0.958
48283W        W12040  11.139  27.580  13.401
48284W        W12041  10.645  25.622  12.051
48285W        W12042   3.343  23.624  14.935
48286W        W12043  25.471  24.168  11.928
48287W        W12044  31.532  15.144   0.250
48288W        W12045  10.227  28.946   1.417
48289W        W12046   8.212   1.851   2.810
48290W        W12047  10.311  13.174   0.439
48291W        W12048   8.841   0.848   3.354
48292W        W12049  20.129   5.881   3.669
48293W        W12050  35.894   5.320   1.886
48294W        W12051  42.927  31.641  10.522
48295W        W12052  36.883   5.319  14.359
48296W        W12053  31.997  41.293  11.571
48297W        W12054  35.853  33.612   3.783
48298W        W12055  28.579  36.471  11.974
48299W        W12056  30.162   1.978  12.899
48300W        W12057   8.380  18.182  14.493
48301W        W12058  18.739  17.620   2.374
48302W        W12059  16.285  23.578  12.856
48303W        W12060  13.109  18.609  13.885
48304W        W12061   0.439  37.056   4.754
48305W        W12062   5.814  18.067   2.250
48306W        W12063   1.793  13.814   1.915
48307W        W12064  36.383   0.283  13.854
48308W        W12065  32.038  43.882   4.321
48309W        W12066  25.074  13.817  12.565
48310W        W12067  13.829  25.220   4.759
48311W        W12068  33.099   7.731  10.495
48312W        W12069   9.883  38.054  12.525
48313W        W12070  41.352  12.169   2.251
48314W        W12071  31.502  36.590  14.946
48315W        W12072  39.519  11.735   0.925
48316W        W12073  26.568  17.606  10.503
48317W        W12074  22.077  38.345  14.283
48318W        W12075  16.669  43.387  11.873
48319W        W12076   2.357  33.608  14.465
48320W        W12077  22.556  34.120   2.686
48321W        W12078  21.570  10.320  10.897
48322W        W12079   8.670  19.063   3.175
48323W        W12080   0.751  11.284   4.743
48324W        W12081  14.123  33.389   0.957
48325W        W12082  31.952  40.928   1.823
48326W        W12083   8.744  14.752   2.344
48327W        W12084   8.745  27.635  11.537
48328W        W12085  20.585  24.709   1.791
48329W        W12086   3.359  38.394   2.255
48330W        W12087  32.022  25.171   9.995
48331W        W12088  18.749  31.414   2.707
48332W        W12089  13.750   9.662   2.713
48333W        W12090  33.936   8.745  11.993
48334W        W12091   6.868  11.321  11.461
48335W        W12092   5.308  10.308  12.942
48336W        W12093  25.208  28.052   2.771
48337W        W12094  10.818   0.318   1.280
48338W        W12095   0.773  16.074  11.061
48339W        W12096  26.159  26.647  14.298
48340W        W12097  29.544  31.092  14.884
48341W        W12098  37.005  11.260   4.314
48342W        W12099  22.745  40.363  12.941
48343W        W12100  22.169  40.837  11.036
48344W        W12101  17.742   5.333  12.070
48345W        W12102  25.059   7.812  11.397
48346W        W12103  25.530  26.146  12.461
48347W        W12104  14.248  15.234   4.763
48348W        W12105   5.810  44.861   3.221
48349W        W12106  28.040  10.349   0.768
48350W        W12107  30.145  19.672  11.934
48351W        W12108  38.858  15.754   3.648
48352W        W12109  25.130   9.804  14.513
48353W        W12110  22.007  11.308  11.065
48354W        W12111  17.230  31.049   2.217
48355W        W12112  44.478  35.469  10.533
48356W        W12113   5.286   7.404   1.889
48357W        W12114   6.681  40.514  14.278
48358W        W12115  31.422  21.147   1.299
48359W        W12116  30.090  12.286  14.492
48360W        W12117  34.036  17.655  11.989
48361W        W12118  42.877  42.795   0.814
48362W        W12119   4.436   3.753   1.291
48363W        W12120  14.601   0.354  12.542
48364W        W12121  30.426  21.080   9.921
48365W        W12122  22.051  31.584   3.244
48366W        W12123  43.468  43.833  14.435
48367W        W12124  19.214   6.353  11.117
48368W        W12125   0.856  10.767  14.295
48369W        W12126   7.739  23.042   4.744
48370W        W12127  40.364   2.807  10.895
48371W        W12128  40.530   4.210   1.297
48372W        W12129  12.695   1.303  13.053
48373W        W12130   0.379  19.614   2.742
48374W        W12131   4.274  34.102  11.880
48375W        W12132  28.459  24.535  10.042
48376W        W12133  35.889  14.158  10.507
48377W        W12134  15.204  26.651   1.268
48378W        W12135  35.443   3.789  13.332
48379W        W12136  10.306  10.648   4.228
48380W        W12137   0.412  37.336   3.669
48381W        W12138  31.091   5.772  14.360
48382W        W12139  10.861  41.523  14.477
48383W        W12140  34.376   5.266  12.533
48384W        W12141  37.521  38.418   2.662
48385W        W12142  15.147  41.853   1.333
48386W        W12143   4.293  11.757   0.936
48387W        W12144  20.649   0.849  14.849
48388W        W12145  39.821  29.488   4.604
48389W        W12146  37.354   0.475   2.673
48390W        W12147  21.633   8.740   0.758
48391W        W12148  40.456  23.001   2.864
48392W        W12149  24.572  11.819   4.786
48393W        W12150  24.561  10.713  14.425
48394W        W12151  34.602  18.087  14.876
48395W        W12152  15.209   1.371   5.279
48396W        W12153  10.655  14.316  11.111
48397W        W12154   5.757  18.162   4.723
48398W        W12155   0.933  40.998  14.960
48399W        W12156  31.480  33.883  12.367
48400W        W12157  37.548  30.575  11.518
48401W        W12158  23.081  27.982  13.006
48402W        W12159   4.720  33.536   3.309
48403W        W12160  32.572   5.252   5.102
48404W        W12161  14.241  36.569   2.682
48405W        W12162  31.016  43.956  12.031
48406W        W12163  28.556  27.962   0.377
48407W        W12164  25.681  32.994  11.001
48408W        W12165  31.614  27.617  14.810
48409W        W12166  25.638  11.833   5.209
48410W        W12167  42.939  38.402   4.298
48411W        W12168  18.196  19.236  13.905
48412W        W12169  33.599  38.820  13.357
48413W        W12170   9.761  36.045  14.795
48414W        W12171  25.694  42.869  12.485
48415W        W12172  26.077  32.414  10.947
48416W        W12173  28.065  14.815  13.495
48417W        W12174   3.862  33.582  11.918
48418W        W12175  40.475   0.478   2.348
48419W        W12176  12.704  12.667  13.431
48420W        W12177  15.650  42.014   3.196
48421W        W12178  11.757  32.404  11.509
48422W        W12179  23.577   0.302   1.222
48423W        W12180  35.495   4.441  12.402
48424W        W12181   0.328   7.910   4.319
48425W        W12182  31.518  36.841   4.325
48426W        W12183  19.580  26.087   1.725
48427W        W12184  21.199  29.445  11.069
48428W        W12185  15.087  33.551   4.227
48429W        W12186  12.273  10.193   0.338
48430W        W12187  16.247   4.387   3.855
48431W        W12188  27.013  25.991  10.045
48432W        W12189   9.672  28.589   0.753
48433W        W12190  27.029  15.591  11.983
48434W        W12191   5.698   3.293  13.315
48435W        W12192  19.185   0.444  11.563
48436W        W12193  20.694  37.507   3.689
48437W        W12194  43.389  30.077   0.422
48438W        W12195  33.553   5.915   2.878
48439W        W12196  40.369  30.620  10.939
48440W        W12197  17.667  39.059  13.928
48441W        W12198  14.149  29.169  10.585
48442W        W12199  41.471   3.853  14.381
48443W        W12200  17.194  10.335  14.287
48444W        W12201   2.363   7.910  12.436
48445W        W12202  17.747  44.815   4.185
48446W        W12203  44.857   3.953   3.754
48447W        W12204  42.851   0.260  14.454
48448W        W12205  24.577  23.187   1.896
48449W        W12206  15.761  11.349   2.264
48450W        W12207  28.630  26.073  14.300
48451W        W12208   1.785  28.658  14.961
48452W        W12209   1.735   2.463   1.369
48453W        W12210  35.425   5.386   2.292
48454W        W12211  28.541  35.910   2.263
48455W        W12212  24.078   2.842   3.180
48456W        W12213   4.832  30.150   3.278
48457W        W12214   0.293   6.183   3.676
48458W        W12215  20.704  44.010   3.258
48459W        W12216  15.115  28.155  13.541
48460W        W12217   1.408   8.735  10.509
48461W        W12218  15.584  18.206   2.703
48462W        W12219  20.115  15.181   3.868
48463W        W12220  37.471  12.328   1.313
48464W        W12221  17.793   3.903   1.283
48465W        W12222  27.529  14.682   0.789
48466W        W12223  12.681   0.284  13.028
48467W        W12224   0.320  13.739   4.328
48468W        W12225   3.781   5.408   2.713
48469W        W12226  23.986   1.370  12.835
48470W        W12227  20.523  40.811  12.878
48471W        W12228  26.647  40.304  14.375
48472W        W12229  27.141  12.713  12.486
48473W        W12230   9.849  31.978   3.727
48474W        W12231   7.175  38.857   1.924
48475W        W12232   4.931  18.076   4.670
48476W        W12233   3.283   6.771   0.810
48477W        W12234  12.780  23.683  10.530
48478W        W12235  15.310   3.732  11.481
48479W        W12236  25.140  20.657   2.339
48480W        W12237   5.740  31.030   3.203
48481W        W12238  38.891  28.968   0.892
48482W        W12239  13.795  31.053   3.277
48483W        W12240  10.690   5.696   1.750
48484W        W12241  32.970  41.953  12.022
48485W        W12242  12.710  42.956   1.433
48486W        W12243  42.847  29.044   2.715
48487W        W12244  17.581  43.474   3.825
48488W        W12245  23.549  23.663  13.448
48489W        W12246  35.362   9.191  11.480
48490W        W12247  36.376   6.876   4.771
48491W        W12248  25.982  32.987   0.896
48492W        W12249  15.266  40.914  11.877
48493W        W12250  19.248  20.130   4.597
48494W        W12251  27.575  44.853   4.182
48495W        W12252   9.694   2.363   3.777
48496W        W12253  38.565  21.669  11.450
48497W        W12254  31.957   1.421  12.475
48498W        W12255   9.702  39.389  12.545
48499W        W12256  34.523  40.009   1.746
48500W        W12257  30.927   0.745   1.417
48501W        W12258  29.562  37.080  11.878
48502W        W12259  19.202  33.036   4.197
48503W        W12260  27.954   5.409   4.149
48504W        W12261  24.541   5.918  14.767
48505W        W12262  31.931  43.455   0.283
48506W        W12263   2.753   8.242  14.399
48507W        W12264  41.415   7.691   4.346
48508W        W12265  16.253   2.371   3.843
48509W        W12266  28.620   8.773   0.934
48510W        W12267   1.337  41.901  13.800
48511W        W12268  26.073  43.825  11.457
48512W        W12269  22.577  43.909  10.963
48513W        W12270  33.584  26.104  12.072
48514W        W12271  15.322   3.759  14.471
48515W        W12272  13.219  16.681   1.276
48516W        W12273   2.405  35.898   1.409
48517W        W12274  14.638   0.358   5.616
48518W        W12275   0.961  22.196   3.298
48519W        W12276  35.990  44.779  11.050
48520W        W12277  19.231   7.172  14.311
48521W        W12278  33.509  18.125  10.576
48522W        W12279   3.910  38.934   1.448
48523W        W12280  31.148  37.425   4.727
48524W        W12281  40.829   6.385  14.968
48525W        W12282  15.199   1.892  12.942
48526W        W12283  18.195  30.459  12.527
48527W        W12284  11.732  21.025   0.897
48528W        W12285  25.988   2.767  11.552
48529W        W12286  27.979   4.294   5.319
48530W        W12287  41.030  20.583  14.926
48531W        W12288  27.185   0.383   4.132
48532W        W12289  36.506   5.307   0.821
48533W        W12290   2.728  28.174   0.310
48534W        W12291  27.093  19.656  12.030
48535W        W12292  44.761   7.833   0.923
48536W        W12293   6.708  36.886  11.462
48537W        W12294  42.301  40.394   0.827
48538W        W12295  24.680  16.188   3.642
48539W        W12296  28.670  28.539   3.753
48540W        W12297  15.728  13.214  13.900
48541W        W12298  43.971  43.917  12.979
48542W        W12299  43.953  22.618   0.423
48543W        W12300  35.056  17.777   4.232
48544W        W12301  14.112  28.065  12.515
48545W        W12302   9.337  43.391  12.518
48546W        W12303   6.853  33.960  13.342
48547W        W12304  15.715   2.845   5.131
48548W        W12305  26.531   3.381  10.058
48549W        W12306  19.067  25.142  12.397
48550W        W12307   4.708  43.483  11.423
48551W        W12308  23.218   2.328  10.465
48552W        W12309   6.199   9.743   1.750
48553W        W12310  10.849  25.692  10.897
48554W        W12311  21.560  43.410   4.303
48555W        W12312  17.086  20.567   3.288
48556W        W12313  31.004   1.412  13.926
48557W        W12314  18.168   0.295  10.583
48558W        W12315  13.769  33.042  11.977
48559W        W12316   3.293  14.632   3.146
48560W        W12317  43.305  41.814  10.453
48561W        W12318  15.312  28.438  12.088
48562W        W12319  23.525  42.905   1.825
48563W        W12320  24.071   2.728  12.437
48564W        W12321  10.199   8.191   2.267
48565W        W12322   5.269  38.024  11.450
48566W        W12323  41.532  15.604   2.869
48567W        W12324   0.986  18.064   4.135
48568W        W12325  12.290  17.177   0.461
48569W        W12326   9.865  38.827  11.495
48570W        W12327  11.637   1.364   3.809
48571W        W12328  19.637  11.341  13.401
48572W        W12329  43.344  17.127   2.364
48573W        W12330  11.858  13.180  12.431
48574W        W12331  37.082   3.820   1.376
48575W        W12332  26.664  34.917   4.187
48576W        W12333  41.389   6.921   4.151
48577W        W12334  31.450   2.249  13.943
48578W        W12335  28.555  43.377   3.372
48579W        W12336  34.382   4.438  13.528
48580W        W12337  28.505  37.570   4.139
48581W        W12338  30.588   5.853  11.051
48582W        W12339  17.287  15.763  12.371
48583W        W12340  17.644   5.715   2.827
48584W        W12341  35.098  36.973  10.614
48585W        W12342  25.532   8.781  12.849
48586W        W12343  17.073   0.878   3.258
48587W        W12344   4.749  27.049  12.845
48588W        W12345  20.658  15.673   2.826
48589W        W12346  32.555  23.063   4.780
48590W        W12347  38.883  14.709  12.849
48591W        W12348  15.325  31.113   1.877
48592W        W12349  22.090  16.607  12.460
48593W        W12350  33.504  39.423  12.404
48594W        W12351  40.532   0.890  10.054
48595W        W12352  14.168  33.989   4.252
48596W        W12353  39.933   8.683   2.369
48597W        W12354   4.724  30.530  14.826
48598W        W12355   4.754  27.500   4.687
48599W        W12356  17.177  22.229  11.092
48600W        W12357  36.420   8.655  10.986
48601W        W12358  28.570  26.003   3.265
48602W        W12359  39.497  21.692  13.457
48603W        W12360  27.042   4.819   2.199
48604W        W12361   9.730   9.275   3.321
48605W        W12362  11.637  16.262   0.855
48606W        W12363  27.499  33.498   3.222
48607W        W12364  10.824  16.251   3.761
48608W        W12365   7.695  11.836   3.768
48609W        W12366  42.913  11.758   2.263
48610W        W12367  40.402  17.192  11.083
48611W        W12368  42.934   4.334  12.414
48612W        W12369   3.930  16.607  12.827
48613W        W12370   8.252  35.427   4.191
48614W        W12371   8.741   4.310  14.362
48615W        W12372  35.081  17.144   0.339
48616W        W12373  30.581  42.923  14.811
48617W        W12374  33.561  22.670   1.818
48618W        W12375  43.470  19.638   1.704
48619W        W12376  40.317  31.989  11.914
48620W        W12377  39.474   3.299   2.192
48621W        W12378  41.042  34.106  10.411
48622W        W12379  34.927   9.328   4.188
48623W        W12380  43.312  26.536   1.925
48624W        W12381  24.147  14.674   1.869
48625W        W12382   8.391  21.024  10.644
48626W        W12383  23.640   9.824   0.776
48627W        W12384  22.611  40.966  13.803
48628W        W12385  15.237  17.802  14.984
48629W        W12386   0.329   0.462  11.387
48630W        W12387  14.653  32.415   1.798
48631W        W12388  31.096  14.269   2.393
48632W        W12389  26.498  22.509  10.542
48633W        W12390  21.234  30.419   3.765
48634W        W12391  12.173  29.430  11.396
48635W        W12392   5.902   9.740  10.556
48636W        W12393  40.949  10.739   3.201
48637W        W12394  34.868  44.829   0.432
48638W        W12395  14.094  18.251   1.778
48639W        W12396   5.891  26.178  14.498
48640W        W12397  25.046  19.060  12.042
48641W        W12398  17.787   5.867  10.963
48642W        W12399  30.133  37.507   0.842
48643W        W12400  38.375  37.048   1.275
48644W        W12401   8.312   9.734  11.059
48645W        W12402  27.616  42.018  13.893
48646W        W12403   8.406  18.702  13.321
48647W        W12404  14.817   4.223  10.509
48648W        W12405   2.233  40.457   3.768
48649W        W12406  25.540  28.094  12.975
48650W        W12407  26.683  13.756  10.978
48651W        W12408  24.066  22.022  10.118
48652W        W12409  39.866  12.248  11.051
48653W        W12410  38.004  41.498  10.500
48654W        W12411  31.451  13.705  11.026
48655W        W12412  20.689  39.455  13.467
48656W        W12413  25.157  22.069   4.816
48657W        W12414  34.373   7.302  12.988
48658W        W12415  27.162  24.689  13.494
48659W        W12416  32.610  23.736  14.005
48660W        W12417   4.417  28.961  13.484
48661W        W12418  19.599  30.049   2.354
48662W        W12419  28.487   8.317  13.053
48663W        W12420  10.319  13.232  14.957
48664W        W12421  13.228  13.318  11.932
48665W        W12422   9.255  13.288   0.322
48666W        W12423  22.215  34.515   3.761
48667W        W12424  42.406  30.504   3.710
48668W        W12425   3.867  25.010  11.973
48669W        W12426  22.170   8.661   4.287
48670W        W12427  10.211   6.318  13.511
48671W        W12428   4.729  34.479  14.375
48672W        W12429  35.050  25.583   1.933
48673W        W12430  16.230  38.358  12.876
48674W        W12431  39.035   9.729   1.730
48675W        W12432  20.141  41.379   1.845
48676W        W12433  34.414  35.939   4.797
48677W        W12434  21.189   5.331   2.710
48678W        W12435   3.890   6.191   3.356
48679W        W12436   0.355   5.306  11.560
48680W        W12437  29.139  39.532   3.832
48681W        W12438  40.928  10.651   1.267
48682W        W12439  42.962  44.388   0.373
48683W        W12440  41.372  15.289   2.246
48684W        W12441  30.934  42.018   3.337
48685W        W12442  15.121   4.309  12.926
48686W        W12443  19.210   2.303  14.797
48687W        W12444   0.319   3.441   3.848
48688W        W12445  38.531  29.493   1.333
48689W        W12446  24.504   1.887  14.399
48690W        W12447  44.474   7.684   1.297
48691W        W12448   2.814  34.493   4.147
48692W        W12449  19.051  40.496   2.401
48693W        W12450  31.578  10.710   1.770
48694W        W12451  14.332  28.649   0.854
48695W        W12452  17.188  18.227  14.980
48696W        W12453  34.929   7.388   2.716
48697W        W12454  38.887   9.378   0.957
48698W        W12455  24.019  25.989   0.763
48699W        W12456  22.123  18.777  11.902
48700W        W12457  34.095  20.097  14.852
48701W        W12458  31.042  13.677   0.362
48702W        W12459   9.813  43.289  10.494
48703W        W12460   6.735  19.549   0.914
48704W        W12461   5.431  27.568   2.734
48705W        W12462  10.740   8.193   3.668
48706W        W12463  17.556   7.208   4.218
48707W        W12464  16.273  31.485   3.755
48708W        W12465  32.090   2.888   0.342
48709W        W12466   5.755  40.002   4.722
48710W        W12467   9.192  20.733   0.386
48711W        W12468  28.008  23.985  12.890
48712W        W12469  22.116   8.305   0.928
48713W        W12470  42.980  40.800   4.143
48714W        W12471   1.786   1.350   0.256
48715W        W12472  10.234  18.219  12.396
48716W        W12473  37.908   5.907  11.034
48717W        W12474   0.885  11.277  13.455
48718W        W12475  14.691  26.624   1.897
48719W        W12476  20.681  21.701  10.610
48720W        W12477  30.585  37.538  10.623
48721W        W12478  15.192  32.963  14.028
48722W        W12479  18.232  31.907   2.343
48723W        W12480   5.208  35.039   3.683
48724W        W12481  10.841  38.446  11.383
48725W        W12482  32.592  27.137   0.901
48726W        W12483  29.578  14.826  11.925
48727W        W12484  16.648   2.861   0.790
48728W        W12485  15.209   6.876  12.919
48729W        W12486  12.660  20.725   0.386
48730W        W12487  11.640  35.032   1.807
48731W        W12488  31.451  13.759  13.849
48732W        W12489   4.227  29.075  12.913
48733W        W12490  30.114  40.951   1.719
48734W        W12491   5.354  26.632   0.348
48735W        W12492  31.920  24.627  13.860
48736W        W12493   7.765  11.675   0.428
48737W        W12494  31.952  23.661   3.845
48738W        W12495  36.980   5.257  14.898
48739W        W12496  23.722  39.917  11.951
48740W        W12497   7.721  10.266   0.350
48741W        W12498  17.576  36.086   3.668
48742W        W12499  37.353  18.111  10.464
48743W        W12500  24.120   4.703  10.542
48744W        W12501   2.433  39.370  10.517
48745W        W12502  29.668  16.285  11.519
48746W        W12503  40.505  39.039   3.296
48747W        W12504  25.711   9.252  13.921
48748W        W12505  12.659  20.174   3.246
48749W        W12506  42.368  35.487  11.870
48750W        W12507  42.363  12.698   1.782
48751W        W12508  16.187  22.175  14.436
48752W        W12509   1.444  17.562  14.013
48753W        W12510  38.427  16.611  10.889
48754W        W12511  16.634  27.628  10.622
48755W        W12512   2.406  24.227  10.977
48756W        W12513   5.382  38.557   3.834
48757W        W12514  26.510  39.847  12.995
48758W        W12515  21.135  38.558   1.230
48759W        W12516  22.157   4.779   0.464
48760W        W12517  15.137  33.610   3.663
48761W        W12518  27.103  28.625   2.873
48762W        W12519  22.067   2.890   4.836
48763W        W12520   3.413  15.106   1.394
48764W        W12521  23.027   5.732  13.337
48765W        W12522  12.726   3.942  14.447
48766W        W12523  41.825   1.476   2.268
48767W        W12524  12.817  25.655  14.985
48768W        W12525   8.704   7.233   3.230
48769W        W12526   6.238  31.916  14.011
48770W        W12527   2.796  33.894   3.316
48771W        W12528  33.889  26.565  14.824
48772W        W12529  32.001  36.994  11.582
48773W        W12530  30.094  37.458  14.908
48774W        W12531  42.999  31.141   2.751
48775W        W12532  26.172   7.666   0.814
48776W        W12533   1.752   7.791  14.418
48777W        W12534  30.922   1.417   4.260
48778W        W12535   3.437  15.254  14.327
48779W        W12536  14.246  42.391  13.444
48780W        W12537  10.856  31.147   1.710
48781W        W12538  12.704  33.015   0.961
48782W        W12539   8.232  42.455   3.284
48783W        W12540  23.038  12.130  11.984
48784W        W12541  37.999   2.802   0.867
48785W        W12542  37.837  13.247   2.808
48786W        W12543  17.682  28.570   4.801
48787W        W12544  35.418  33.446  14.775
48788W        W12545  16.191  16.217   4.640
48789W        W12546  27.675  34.482   1.400
48790W        W12547   8.795  26.080  10.924
48791W        W12548  21.208   5.303   3.232
48792W        W12549  12.165  19.164  14.777
48793W        W12550  24.573  14.695  14.762
48794W        W12551   7.287  15.821  10.090
48795W        W12552  13.326  28.945   3.253
48796W        W12553  17.617  21.564   1.353
48797W        W12554  33.393  26.161  10.996
48798W        W12555  25.103  34.462  12.392
48799W        W12556  43.008  13.661  12.993
48800W        W12557   7.715  19.095  10.152
48801W        W12558  14.227  33.435  14.506
48802W        W12559  32.629   7.285   2.814
48803W        W12560   4.800   6.885  10.542
48804W        W12561  15.731   3.446  12.979
48805W        W12562  20.735  38.470   1.444
48806W        W12563  41.351  23.640   4.801
48807W        W12564   9.151  25.012  14.948
48808W        W12565  15.223  44.404  13.846
48809W        W12566  22.239  11.145   0.290
48810W        W12567   9.194   8.767  12.995
48811W        W12568  29.557   2.280  10.567
48812W        W12569  20.634   5.220  12.902
48813W        W12570  32.026   9.799  13.954
48814W        W12571  24.536  33.613   4.629
48815W        W12572   7.752  23.734   5.216
48816W        W12573  16.127  34.011  11.441
48817W        W12574  31.503  23.542   4.194
48818W        W12575  33.069  44.449   1.932
48819W        W12576  35.966  36.515  11.005
48820W        W12577  40.462   8.805   4.207
48821W        W12578  30.598   4.876   0.923
48822W        W12579  20.641  39.919  12.410
48823W        W12580  27.665  41.814   2.865
48824W        W12581  16.706   7.770   2.213
48825W        W12582  25.472  26.557  14.401
48826W        W12583  14.822   3.218   0.444
48827W        W12584  40.817  39.944  12.022
48828W        W12585  13.659  28.522   1.817
48829W        W12586  39.011  32.614   1.409
48830W        W12587  34.385  27.041  12.838
48831W        W12588  39.351  38.951  11.390
48832W        W12589  36.847   8.302   1.870
48833W        W12590  16.686  12.835  10.406
48834W        W12591  38.822   7.775  10.958
48835W        W12592  11.789  15.745  12.504
48836W        W12593  30.122  31.057   2.669
48837W        W12594   2.455  35.387  12.989
48838W        W12595   5.368  17.741  14.354
48839W        W12596  13.792  32.120  13.832
48840W        W12597  14.712  21.219  13.525
48841W        W12598  32.895  30.953  12.572
48842W        W12599  28.957  31.546  14.018
48843W        W12600  10.733  10.260  11.562
48844W        W12601  30.424  19.536   3.288
48845W        W12602  21.603  39.980   1.777
48846W        W12603   1.758  40.373   2.797
48847W        W12604  42.783  13.211   1.312
48848W        W12605   5.877  41.959   0.850
48849W        W12606  33.606  20.075   2.204
48850W        W12607  29.579  43.949  14.475
48851W        W12608  11.838  42.417  12.879
48852W        W12609  21.601  24.070   1.258
48853W        W12610  39.999   9.702  11.073
48854W        W12611  18.595  24.498   1.735
48855W        W12612  21.709   8.377   2.327
48856W        W12613  28.471  31.065   4.727
48857W        W12614  40.350  11.223   0.819
48858W        W12615  42.294  31.079   0.762
48859W        W12616  14.707  12.201   3.857
48860W        W12617  40.938   9.353   2.284
48861W        W12618   1.748  20.033   3.212
48862W        W12619  10.216   6.731  10.942
48863W        W12620  38.046  32.890  12.079
48864W        W12621   4.262   5.885   0.424
48865W        W12622  41.463   7.860  14.825
48866W        W12623   8.297  43.333   4.779
48867W        W12624  18.175  39.372  10.468
48868W        W12625  13.188  38.071   1.751
48869W        W12626  34.464   2.436  11.035
48870W        W12627  38.883  40.392   1.729
48871W        W12628  31.536  36.919   3.673
48872W        W12629   3.368  29.932  13.332
48873W        W12630  39.340  35.413  10.451
48874W        W12631   8.861  41.521   0.812
48875W        W12632  44.322  38.004   3.150
48876W        W12633  43.512   4.225  10.567
48877W        W12634   2.952  10.787   2.873
48878W        W12635   8.253  43.804  12.930
48879W        W12636  19.257  24.040   2.787
48880W        W12637  43.917  44.322  11.460
48881W        W12638  42.511  13.781  13.343
48882W        W12639  13.814  14.182  12.467
48883W        W12640  40.337   4.310  11.908
48884W        W12641  38.362  42.025   0.429
48885W        W12642   3.829  36.030   1.349
48886W        W12643  14.225   1.374   3.339
48887W        W12644  14.654  12.854   2.863
48888W        W12645   2.352   0.812   3.763
48889W        W12646  11.846  35.928   4.790
48890W        W12647  33.952  33.608  12.983
48891W        W12648  30.002   0.961  11.462
48892W        W12649  21.225  10.383   5.280
48893W        W12650  18.604  32.024  10.598
48894W        W12651   0.320  27.077   4.722
48895W        W12652  33.577  41.813  14.292
48896W        W12653   7.877  27.957  10.905
48897W        W12654  34.509  24.157   3.716
48898W        W12655  30.440  29.056   1.923
48899W        W12656   6.808  42.510   0.409
48900W        W12657  36.906   7.216  13.345
48901W        W12658  29.086  17.703  11.442
48902W        W12659   9.219  15.691   3.701
48903W        W12660   8.712  36.001  14.306
48904W        W12661  20.593  29.936  12.370
48905W        W12662  40.024  25.151  13.963
48906W        W12663  36.003   8.750   2.844
48907W        W12664  19.627  37.876  13.987
48908W        W12665  21.207  14.213   1.385
48909W        W12666  43.269   2.768  11.043
48910W        W12667  42.999  41.791  13.350
48911W        W12668  30.996  43.427  13.398
48912W        W12669  43.316  31.500   3.848
48913W        W12670   8.659  26.163   3.843
48914W        W12671   7.357   3.270  11.032
48915W        W12672   6.296  34.455  14.908
48916W        W12673  20.759  24.128   4.182
48917W        W12674  13.245  31.038   4.606
48918W        W12675  24.722  31.062   0.831
48919W        W12676  32.900  13.181  13.880
48920W        W12677  43.364  18.163  12.955
48921W        W12678   6.919  36.400  10.538
48922W        W12679  21.112  38.447   1.767
48923W        W12680  42.839  36.577   3.671
48924W        W12681  24.627  30.647   2.278
48925W        W12682  12.727  21.059   3.746
48926W        W12683  40.972   6.758  12.519
48927W        W12684  36.505  11.227  12.444
48928W        W12685  18.287  21.710   0.248
48929W        W12686   5.437  18.585  13.354
48930W        W12687  37.370  31.944  13.852
48931W        W12688  19.662  10.285  11.551
48932W        W12689  22.719  29.544   4.217
48933W        W12690  38.954  35.936   0.248
48934W        W12691   3.900  40.962  12.933
48935W        W12692   9.755  19.267  14.964
48936W        W12693  24.519  16.142  11.856
48937W        W12694  17.585  15.659  13.792
48938W        W12695   9.821  32.007  12.450
48939W        W12696  33.416   1.373  13.041
48940W        W12697  34.391  42.823  13.806
48941W        W12698  20.763   3.373  13.009
48942W        W12699   3.376  28.653   1.289
48943W        W12700  14.175  39.819   3.858
48944W        W12701  18.743  44.904   2.292
48945W        W12702  37.380  11.130   2.265
48946W        W12703   9.335  27.664   0.366
48947W        W12704  34.508   0.776  13.929
48948W        W12705  38.344  41.352   4.607
48949W        W12706  11.702  24.152  12.567
48950W        W12707  38.044   1.852  14.488
48951W        W12708  11.767  17.724  14.873
48952W        W12709  26.114  42.458   1.903
48953W        W12710  17.225   0.960   0.280
48954W        W12711  23.988  24.616  10.635
48955W        W12712  17.615   2.898   0.463
48956W        W12713  35.482  39.549  10.630
48957W        W12714  23.736  26.018  11.555
48958W        W12715  11.734  11.624   2.858
48959W        W12716  25.032  44.939   4.767
48960W        W12717  34.602  19.557   0.913
48961W        W12718  36.884  35.048  12.362
48962W        W12719   7.226   7.900   0.760
48963W        W12720  43.391  14.655   3.820
48964W        W12721  37.023  13.614  13.962
48965W        W12722  34.994   6.264  12.434
48966W        W12723   9.276  18.782  13.025
48967W        W12724  32.399  31.055   0.315
48968W        W12725  33.011  24.531   1.251
48969W        W12726   2.721  35.109  11.542
48970W        W12727  25.996  40.023   4.199
48971W        W12728   6.287  39.850   1.788
48972W        W12729  32.628  36.986  10.433
48973W        W12730  40.862   7.797   4.726
48974W        W12731  38.023  22.518   4.809
48975W        W12732   3.867  15.655  14.867
48976W        W12733  21.167  20.217  13.034
48977W        W12734  23.684  13.780   1.846
48978W        W12735  38.907  41.978  14.313
48979W        W12736  41.450  14.301  14.502
48980W        W12737   7.692  21.664  11.483
48981W        W12738   5.805  41.299   1.307
48982W        W12739  28.939  16.134  12.049
48983W        W12740  38.518   3.785   2.277
48984W        W12741  19.139  42.499  10.637
48985W        W12742  29.465   6.200  10.567
48986W        W12743  39.421  33.099   1.298
48987W        W12744   5.874   1.828   4.316
48988W        W12745  41.941  16.686  13.874
48989W        W12746  27.690  33.067  12.540
48990W        W12747  26.033  33.994  10.519
48991W        W12748  42.031   7.185  11.124
48992W        W12749  12.853   0.925  13.974
48993W        W12750  17.092  36.497   1.284
48994W        W12751  33.478  18.094   0.369
48995W        W12752  35.068  29.546  10.413
48996W        W12753   4.322  42.343   2.870
48997W        W12754  31.153  24.573  12.392
48998W        W12755   0.750  31.905   1.808
48999W        W12756   7.386  40.449   5.163
49000W        W12757  40.939  42.848   4.197
49001W        W12758  13.809  34.024   2.716
49002W        W12759  21.644  10.835   4.151
49003W        W12760  36.902  23.046  10.549
49004W        W12761   4.275  34.965   3.155
49005W        W12762  19.195   0.267   3.671
49006W        W12763   2.954  24.173  11.890
49007W        W12764  23.517  11.188   1.814
49008W        W12765  26.164  25.478  13.022
49009W        W12766  10.161  42.322  14.820
49010W        W12767  13.265   7.721   2.729
49011W        W12768  34.065   5.862   4.783
49012W        W12769  33.990  35.057  13.847
49013W        W12770  11.829  42.004   3.727
49014W        W12771  17.568   0.352   4.232
49015W        W12772  25.144  19.111  12.385
49016W        W12773   5.697   0.766  14.024
49017W        W12774  20.549   2.746  13.508
49018W        W12775  36.084   5.289  14.482
49019W        W12776  23.627  26.045   0.424
49020W        W12777   4.436   9.709   3.687
49021W        W12778  14.733  16.225   4.336
49022W        W12779  44.272  31.936  10.128
49023W        W12780  14.153  33.011   3.772
49024W        W12781  12.852  23.496   0.794
49025W        W12782  17.723  34.085   0.894
49026W        W12783  11.293  31.066  10.919
49027W        W12784  23.004  32.436   3.709
49028W        W12785  31.565  39.930  11.965
49029W        W12786  43.940  34.025   0.297
49030W        W12787  24.517  27.459   2.729
49031W        W12788  41.034  32.024   0.933
49032W        W12789  13.830  37.904  11.536
49033W        W12790  13.790  17.096  14.330
49034W        W12791  27.673  11.734  12.346
49035W        W12792   2.400  18.273  10.468
49036W        W12793  37.060  18.097   0.408
49037W        W12794  10.316  41.972   4.786
49038W        W12795   4.833   5.311  13.890
49039W        W12796   6.750  37.837   1.400
49040W        W12797  14.287  37.393  12.573
49041W        W12798   1.273   5.368   1.257
49042W        W12799  39.491  44.803  11.406
49043W        W12800   9.693  41.011   1.852
49044W        W12801  29.066   5.351  14.442
49045W        W12802  21.068  36.003   5.164
49046W        W12803  44.379  32.398   2.229
49047W        W12804  25.051  35.013   2.856
49048W        W12805  11.674  40.502  13.971
49049W        W12806  15.196  10.637  12.539
49050W        W12807   3.876  23.700   1.439
49051W        W12808  38.873  38.342   1.828
49052W        W12809  24.675  31.480  12.854
49053W        W12810  11.253  18.193  11.445
49054W        W12811  19.244  19.245  13.984
49055W        W12812  33.607   9.809  10.044
49056W        W12813  38.350  32.601   0.469
49057W        W12814  35.897  42.514   0.838
49058W        W12815   9.666  30.097  14.467
49059W        W12816  41.473  26.016   4.171
49060W        W12817  31.519  32.484  12.470
49061W        W12818   0.472  44.980   4.819
49062W        W12819  20.118   4.822   0.732
49063W        W12820   9.339  35.413   0.476
49064W        W12821  20.525  44.992  10.946
49065W        W12822   0.397  33.919  11.466
49066W        W12823  44.417  19.058   2.380
49067W        W12824  29.599  23.525  12.871
49068W        W12825  36.578   3.459  12.993
49069W        W12826  15.762  38.382  14.442
49070W        W12827  38.437  14.333   4.174
49071W        W12828  24.988  38.065  12.538
49072W        W12829  25.968   7.416   1.370
49073W        W12830  39.890   2.428   0.744
49074W        W12831  40.427  25.711   4.231
49075W        W12832  14.774  43.385   3.700
49076W        W12833  27.079  11.826   0.296
49077W        W12834  26.553  36.089  13.943
49078W        W12835  21.236  11.790   0.946
49079W        W12836  33.094  38.882  12.047
49080W        W12837  17.792   8.299   1.773
49081W        W12838  26.596   6.271  12.954
49082W        W12839  24.623   1.732   4.329
49083W        W12840   1.932  41.037   3.323
49084W        W12841  15.598  16.163   3.841
49085W        W12842  24.974  30.637   3.731
49086W        W12843  25.488  32.579   1.251
49087W        W12844   5.836  15.150  14.800
49088W        W12845  11.711  40.047  10.105
49089W        W12846   0.383   3.320   4.254
49090W        W12847  31.621  28.123   0.343
49091W        W12848  33.045   3.777   0.805
49092W        W12849   4.841  42.434   0.367
49093W        W12850  41.419   8.726   0.320
49094W        W12851  20.707  36.013   4.336
49095W        W12852  42.848  18.185  10.514
49096W        W12853  16.115  24.554  11.995
49097W        W12854  22.594   2.841   3.160
49098W        W12855  30.009  11.649  14.455
49099W        W12856   2.805  34.910  12.839
49100W        W12857  32.569  12.311  12.353
49101W        W12858  10.704  44.410  14.316
49102W        W12859  35.411  25.505   2.889
49103W        W12860  20.273  41.409   3.798
49104W        W12861  23.033  17.245  12.455
49105W        W12862   6.226  33.950  12.368
49106W        W12863  40.813  40.818  12.945
49107W        W12864   3.266  29.634  12.390
49108W        W12865  38.568  12.849   4.188
49109W        W12866  30.957   0.257   4.139
49110W        W12867  37.486   7.861   2.179
49111W        W12868  26.009  40.880  11.963
49112W        W12869  25.117  23.155   1.914
49113W        W12870   8.727  37.911  12.947
49114W        W12871  25.176   9.151   3.851
49115W        W12872  43.471  12.736   1.912
49116W        W12873  31.040  21.695   1.444
49117W        W12874  34.490  40.805   2.222
49118W        W12875  19.054   3.255  14.959
49119W        W12876  37.890  14.131   3.346
49120W        W12877  32.627  23.103  11.481
49121W        W12878   4.717  20.632   2.249
49122W        W12879  39.955  32.427   2.240
49123W        W12880  42.435   4.293   0.871
49124W        W12881  33.473  12.330   3.151
49125W        W12882  33.947  23.579  14.934
49126W        W12883  36.919  13.836   1.760
49127W        W12884   5.266  26.062   3.230
49128W        W12885  14.180  42.431   0.749
49129W        W12886   0.459  33.579  14.312
49130W        W12887  14.660  10.788  11.442
49131W        W12888  16.567  43.471   3.256
49132W        W12889  26.055   1.250  14.951
49133W        W12890  14.297  16.810  10.962
49134W        W12891  28.977  35.968   0.257
49135W        W12892  40.872  32.410   3.190
49136W        W12893  40.821  25.968  12.432
49137W        W12894  32.143  38.347   0.841
49138W        W12895  44.997   3.747  14.850
49139W        W12896  42.867  10.325   4.750
49140W        W12897  36.526  41.878  12.934
49141W        W12898  18.677  25.090  11.857
49142W        W12899  18.063  25.099   4.121
49143W        W12900   0.287  44.401   0.905
49144W        W12901  19.190   0.875   3.849
49145W        W12902  17.270  35.571   4.127
49146W        W12903   2.818  19.279   1.892
49147W        W12904   2.789   7.279  11.540
49148W        W12905  36.875  22.037   0.914
49149W        W12906  13.215   9.213   0.757
49150W        W12907   0.831  34.570  12.999
49151W        W12908  26.037  39.479  13.952
49152W        W12909  14.104   2.381  13.433
49153W        W12910  28.060  17.176   3.794
49154W        W12911  11.785  12.166  13.398
49155W        W12912   6.316  35.015   1.414
49156W        W12913  24.040  17.102   0.332
49157W        W12914  18.172  11.865  13.998
49158W        W12915  16.157  40.351  10.586
49159W        W12916  40.926  38.383  12.361
49160W        W12917  28.679  40.013   4.135
49161W        W12918  10.662  16.225  12.030
49162W        W12919   3.316   0.986  11.460
49163W        W12920   7.886   1.390  12.939
49164W        W12921  34.894   8.208  13.459
49165W        W12922   5.805  24.712   1.304
49166W        W12923  39.399  40.927   3.668
49167W        W12924  19.203  22.231   3.726
49168W        W12925   0.911  30.031   0.866
49169W        W12926  17.667  38.460  14.281
49170W        W12927  23.645  18.625  12.552
49171W        W12928   5.198  43.854   0.278
49172W        W12929  17.126  26.551   0.960
49173W        W12930  19.719  24.662  10.429
49174W        W12931  21.124   1.331  11.913
49175W        W12932   9.252   3.223   0.965
49176W        W12933   8.306   4.896   1.700
49177W        W12934   4.250   9.868  14.464
49178W        W12935  33.917  19.769   0.406
49179W        W12936  32.931  35.568   1.808
49180W        W12937  16.234  30.651   2.220
49181W        W12938  43.942  21.223  10.992
49182W        W12939   4.845  11.754   0.848
49183W        W12940   8.176  14.689  14.938
49184W        W12941   9.775  17.766  14.487
49185W        W12942  30.417  30.931  12.990
49186W        W12943  24.065  31.534   4.127
49187W        W12944  10.149  36.481   3.259
49188W        W12945  11.337  40.549  13.941
49189W        W12946  23.662   1.765   3.659
49190W        W12947  39.025  44.998   2.395
49191W        W12948  42.990  33.884  11.470
49192W        W12949  17.677  24.058   4.173
49193W        W12950  35.072   5.195   4.191
49194W        W12951  24.220  16.783  12.360
49195W        W12952   4.450  27.087  11.916
49196W        W12953   2.375   7.313   3.328
49197W        W12954   4.813   1.944   9.924
49198W        W12955   6.908  26.180   3.316
49199W        W12956  39.385  44.004  11.568
49200W        W12957  20.196  27.940   3.654
49201W        W12958  27.100  17.249   1.286
49202W        W12959  28.179  39.824  13.376
49203W        W12960  32.034  37.347  10.518
49204W        W12961  28.537   8.280   0.932
49205W        W12962  22.134  23.028   4.696
49206W        W12963   9.262  13.641  14.401
49207W        W12964  24.489   2.327   4.277
49208W        W12965  31.565  16.735   1.706
49209W        W12966   1.335   2.342  12.500
49210W        W12967  43.441   6.257   2.767
49211W        W12968  14.637  12.320  12.458
49212W        W12969  24.629  36.478   4.774
49213W        W12970  43.847  44.966   0.864
49214W        W12971  16.626  15.180   1.371
49215W        W12972  36.389  32.946   3.851
49216W        W12973  21.705  32.063  11.107
49217W        W12974   2.833  38.050   3.691
49218W        W12975   9.880  12.648   1.829
49219W        W12976  12.321   1.267   2.311
49220W        W12977  34.943  19.134  11.376
49221W        W12978  13.119  23.652   4.752
49222W        W12979   9.752   5.329  12.091
49223W        W12980  22.215  40.840  10.585
49224W        W12981   0.338  16.666  14.435
49225W        W12982  11.789  43.821  11.940
49226W        W12983  16.641  38.434  11.501
49227W        W12984  36.488   1.768  13.893
49228W        W12985  26.604  31.053   3.226
49229W        W12986  19.644   3.785  11.398
49230W        W12987  35.472  17.212  11.979
49231W        W12988  10.749   2.947   3.178
49232W        W12989  19.082  28.470  11.071
49233W        W12990   7.331  19.641  12.087
49234W        W12991  32.589  44.893   3.290
49235W        W12992  11.684  18.175   0.925
49236W        W12993  17.099  22.619  14.762
49237W        W12994  39.389  35.914  11.576
49238W        W12995   4.346  28.635   2.368
49239W        W12996   6.780  13.160   1.776
49240W        W12997  22.563   0.786  12.910
49241W        W12998   2.306  15.294  11.072
49242W        W12999   1.776   3.746  10.933
49243W        W13000   4.206  14.827  12.575
49244W        W13001  13.195   5.321  11.991
49245W        W13002  23.715  11.291  14.927
49246W        W13003  14.711  33.037   1.217
49247W        W13004  26.976  30.937   4.134
49248W        W13005  25.985  31.496   2.180
49249W        W13006  25.562   4.891   1.862
49250W        W13007  28.009  31.139   2.393
49251W        W13008   8.177   7.777  12.922
49252W        W13009  40.479  18.562   2.294
49253W        W13010   5.828  33.520   0.883
49254W        W13011   1.842   0.857  10.442
49255W        W13012  12.354   5.818  14.789
49256W        W13013   0.941  36.470   1.430
49257W        W13014   6.369   0.353   5.137
49258W        W13015  34.551  31.915  13.517
49259W        W13016   6.250   0.831   0.362
49260W        W13017   8.672  12.259   2.771
49261W        W13018  35.523   6.914   1.435
49262W        W13019   4.808  21.607  10.566
49263W        W13020  40.888  35.010   0.457
49264W        W13021  17.780   5.382  11.469
49265W        W13022  27.537  23.015   2.405
49266W        W13023   5.931  21.670  11.399
49267W        W13024  35.405  20.765   1.694
49268W        W13025  41.368  39.528   1.324
49269W        W13026   4.221  21.152  10.108
49270W        W13027   5.428   9.863   1.825
49271W        W13028  13.704  14.834   4.837
49272W        W13029  10.826  18.603  14.883
49273W        W13030  25.535  10.254  12.567
49274W        W13031  33.119  36.933   3.202
49275W        W13032  38.472   2.385   9.968
49276W        W13033   2.746  35.490  12.351
49277W        W13034  25.008  26.155   1.803
49278W        W13035  20.086   0.389   2.327
49279W        W13036  20.753  10.746  13.353
49280W        W13037  42.492  15.164   0.866
49281W        W13038  33.981  14.270  13.515
49282W        W13039   7.906  20.050   3.201
49283W        W13040  22.140  30.057  14.893
49284W        W13041  33.572   6.281   0.898
49285W        W13042   0.292  28.623  14.308
49286W        W13043  14.199  15.311   2.836
49287W        W13044  22.573  39.902  11.959
49288W        W13045  24.588  41.366   1.696
49289W        W13046  12.193  14.194  12.413
49290W        W13047  35.957   5.305  13.805
49291W        W13048  29.084  26.563   2.761
49292W        W13049  21.601  36.403   1.408
49293W        W13050   3.874   2.763  13.835
49294W        W13051  11.324  14.773  13.014
49295W        W13052  16.591   5.379  11.087
49296W        W13053  34.006  44.353   0.399
49297W        W13054   7.332  24.138  12.550
49298W        W13055  20.679  30.475  14.812
49299W        W13056  36.014  13.276  12.041
49300W        W13057  11.689  21.655  14.802
49301W        W13058  21.174   9.228  10.551
49302W        W13059  38.403  24.132   0.826
49303W        W13060   7.821  18.762  12.933
49304W        W13061  44.480  15.781   5.120
49305W        W13062  40.419  31.154   1.850
49306W        W13063  31.433  28.653   5.231
49307W        W13064  12.801   2.757   0.886
49308W        W13065   1.303  24.639   0.280
49309W        W13066  13.149  22.667  13.416
49310W        W13067  44.399  28.965  10.585
49311W        W13068  18.763  31.980   1.349
49312W        W13069  20.569   1.765   3.640
49313W        W13070  31.939  25.151   2.805
49314W        W13071  44.850  32.998  12.895
49315W        W13072  32.611   4.226  12.871
49316W        W13073  14.259  43.351  13.958
49317W        W13074  34.053  31.077   3.339
49318W        W13075  43.455   1.310  12.839
49319W        W13076   5.299  13.172   2.283
49320W        W13077  10.246  13.312  14.022
49321W        W13078  29.636  42.426  14.005
49322W        W13079  23.504   8.287   0.908
49323W        W13080  40.312  39.365  11.507
49324W        W13081  24.071  33.514   0.942
49325W        W13082  41.350  30.947  10.405
49326W        W13083  10.715  26.559  12.540
49327W        W13084  29.544  18.755  13.523
49328W        W13085   4.820  44.915  12.061
49329W        W13086  38.410  34.570  12.868
49330W        W13087  24.005  12.242   3.226
49331W        W13088  37.503  17.166   5.242
49332W        W13089  26.018  42.408   4.300
49333W        W13090  28.973  28.436  10.570
49334W        W13091  28.436   1.272  14.764
49335W        W13092   3.395  16.210  11.557
49336W        W13093   6.763  34.008   4.277
49337W        W13094  35.857  30.597  13.914
49338W        W13095  26.155  44.377   0.742
49339W        W13096  13.316  36.968   2.710
49340W        W13097  10.788  24.716  14.503
49341W        W13098  13.825  15.272  12.030
49342W        W13099  33.612   2.367  11.508
49343W        W13100  37.347  19.627  11.931
49344W        W13101  31.552  36.456  13.418
49345W        W13102  22.571  10.639  12.391
49346W        W13103  21.526   2.245  13.902
49347W        W13104  17.599  22.747  12.898
49348W        W13105  40.899  16.578   0.313
49349W        W13106  29.131   3.322  12.940
49350W        W13107  35.517  39.893   1.764
49351W        W13108  34.073  39.962   3.319
49352W        W13109  42.008   1.859   2.900
49353W        W13110  38.389  35.067   0.300
49354W        W13111  21.724  36.508  10.047
49355W        W13112  11.247  29.938   2.708
49356W        W13113   5.751  14.710  10.482
49357W        W13114  28.547   3.378   4.303
49358W        W13115  15.317   1.757   2.335
49359W        W13116  17.188  43.780  11.092
49360W        W13117  34.023  26.017  11.437
49361W        W13118  18.622  10.752   1.854
49362W        W13119  15.780  44.975  11.554
49363W        W13120  14.689  36.926  10.580
49364W        W13121  34.569  13.664  11.099
49365W        W13122  44.789  37.517  13.902
49366W        W13123  27.640  44.834  13.007
49367W        W13124  30.955  20.560   0.259
49368W        W13125  16.774  34.528  12.824
49369W        W13126  11.763  36.971  12.930
49370W        W13127  44.375   5.336  11.954
49371W        W13128  17.129  32.906   4.332
49372W        W13129  42.936  20.204   0.770
49373W        W13130  22.011  42.946   0.401
49374W        W13131  21.701  13.118  10.982
49375W        W13132  38.063  43.913   0.343
49376W        W13133  25.579  12.217  10.934
49377W        W13134  30.448   7.681  12.343
49378W        W13135  11.698  16.214   1.398
49379W        W13136  21.240  32.577   0.773
49380W        W13137   1.390  12.766   2.207
49381W        W13138  44.332  35.594   0.256
49382W        W13139  31.060   3.266  14.763
49383W        W13140  35.889  10.236  13.891
49384W        W13141  19.053  14.723   3.355
49385W        W13142  27.670  10.212   2.662
49386W        W13143  30.119  24.495  13.886
49387W        W13144  11.263   6.220   1.709
49388W        W13145  37.868   6.852   1.714
49389W        W13146  24.520  29.619  12.528
49390W        W13147  23.679  19.607  12.039
49391W        W13148   8.688  26.080  10.486
49392W        W13149  10.141  42.432  13.427
49393W        W13150  21.222  19.164   1.716
49394W        W13151  44.917   4.280   0.409
49395W        W13152  42.890  43.484   0.406
49396W        W13153  37.915   6.251   5.148
49397W        W13154  20.542   6.762   2.241
49398W        W13155  42.282  16.242   1.442
49399W        W13156  20.129  15.783  10.981
49400W        W13157   9.858  34.066  13.353
49401W        W13158  21.159   4.848   0.421
49402W        W13159  14.750  18.615  14.421
49403W        W13160  19.150  11.751  14.499
49404W        W13161  15.316  20.138  14.370
49405W        W13162  16.577  10.285  13.048
49406W        W13163  17.176  29.030   2.822
49407W        W13164  24.204  17.210  11.570
49408W        W13165  44.387  28.554  13.997
49409W        W13166  44.796  18.555   1.436
49410W        W13167   9.268  33.531  12.493
49411W        W13168   5.729  15.235   3.194
49412W        W13169  33.931  43.458   1.303
49413W        W13170   3.745  19.224   0.817
49414W        W13171  13.195  37.446  10.022
49415W        W13172  43.804  36.411  13.973
49416W        W13173  21.694  39.544   2.892
49417W        W13174  37.972  30.584   0.931
49418W        W13175   1.962  16.596   1.710
49419W        W13176  22.206   5.760  11.096
49420W        W13177  30.457  36.009   0.897
49421W        W13178  23.534   2.742   1.401
49422W        W13179  33.592  26.175   0.367
49423W        W13180   2.307  35.981  10.062
49424W        W13181  42.353   3.310  14.420
49425W        W13182  36.444  25.101   3.820
49426W        W13183   8.394   7.376  12.909
49427W        W13184  42.825  14.722   3.321
49428W        W13185  13.818  29.961  12.490
49429W        W13186  27.170   8.331  14.877
49430W        W13187   8.667   3.315   0.801
49431W        W13188  24.027  35.870   0.816
49432W        W13189  13.742  11.211  12.979
49433W        W13190  36.048  16.623   0.836
49434W        W13191  23.691  10.866   0.472
49435W        W13192  25.164  16.088  12.964
49436W        W13193  27.164  34.031   4.774
49437W        W13194  33.616   1.336   2.810
49438W        W13195  39.050  42.966  10.928
49439W        W13196  37.364  24.657   0.853
49440W        W13197  40.483  18.183   9.988
49441W        W13198   4.277  18.177   3.260
49442W        W13199  16.168  35.378  13.922
49443W        W13200   4.698   3.277  13.805
49444W        W13201   8.364   6.920   2.249
49445W        W13202  11.627  18.566  14.005
49446W        W13203  15.200  18.280   1.388
49447W        W13204  29.045  39.445   0.815
49448W        W13205  13.236  42.501   1.305
49449W        W13206  38.387  27.973  14.967
49450W        W13207  12.323  17.719  10.477
49451W        W13208  31.444   5.745  10.083
49452W        W13209  15.717  16.120  12.079
49453W        W13210  14.626  40.930   4.231
49454W        W13211  18.679   3.824   2.274
49455W        W13212  29.163  20.720   0.370
49456W        W13213  33.929   4.799   4.815
49457W        W13214  18.656   7.328  10.153
49458W        W13215   4.249  35.085   2.878
49459W        W13216  32.096  40.401   4.660
49460W        W13217  29.950   0.296   4.681
49461W        W13218  39.446  32.435   3.236
49462W        W13219  16.285  20.653   1.771
49463W        W13220  28.498  30.961  11.525
49464W        W13221  31.047  14.326   1.801
49465W        W13222  31.460  40.973  11.553
49466W        W13223   8.216  18.128  10.934
49467W        W13224  24.219  42.796   5.235
49468W        W13225   3.276  34.031   0.792
49469W        W13226  38.381  10.792   1.436
49470W        W13227  35.579   9.711   2.717
49471W        W13228  18.639   4.213  13.472
49472W        W13229  27.982  29.477  12.560
49473W        W13230  40.333  36.944  13.024
49474W        W13231  40.976   8.790   3.346
49475W        W13232  44.874   1.305   1.905
49476W        W13233  40.308  19.746  13.503
49477W        W13234  31.901  38.450   0.471
49478W        W13235   1.790  41.434   4.152
49479W        W13236  24.111   9.259  12.854
49480W        W13237   2.440   1.276  14.940
49481W        W13238  33.958  15.184   1.346
49482W        W13239  28.449  25.530   1.307
49483W        W13240  32.034  29.572  14.379
49484W        W13241  15.108  24.214   0.338
49485W        W13242   2.961  13.174   1.439
49486W        W13243  26.041  37.399   0.735
49487W        W13244   1.427   1.473   2.731
49488W        W13245  44.476  31.634  14.327
49489W        W13246  27.043  35.092   1.250
49490W        W13247  37.837  42.424   4.722
49491W        W13248   5.930  40.825   1.342
49492W        W13249  21.659  41.000   4.249
49493W        W13250  16.606  42.845  13.915
49494W        W13251  37.975  23.073  14.992
49495W        W13252  33.887  15.194  14.967
49496W        W13253   8.269  11.829  13.056
49497W        W13254   2.775  33.482   4.676
49498W        W13255   0.274   8.796  12.566
49499W        W13256  28.533  16.579   1.322
49500W        W13257  38.015  40.507   3.236
49501W        W13258  12.247  34.107   3.236
49502W        W13259  25.640  41.380  14.896
49503W        W13260  15.671  23.555   0.817
49504W        W13261  20.525  43.843  11.563
49505W        W13262  13.806  17.669  13.532
49506W        W13263  14.237  10.201  11.550
49507W        W13264  43.375   3.355   1.754
49508W        W13265  16.592   0.479   0.413
49509W        W13266   0.252  43.493   1.380
49510W        W13267  12.277   3.287   1.712
49511W        W13268  14.743  13.652   0.412
49512W        W13269  39.058   2.418   3.631
49513W        W13270   4.735  39.816   3.201
49514W        W13271  22.566  17.063  14.797
49515W        W13272  25.563   1.260  11.468
49516W        W13273  15.612  14.134   1.211
49517W        W13274  44.409  22.517  12.068
49518W        W13275  42.501   2.774   1.823
49519W        W13276  36.931  40.499  13.466
49520W        W13277  33.049  18.270  12.927
49521W        W13278   3.429  11.831   0.376
49522W        W13279  40.800  16.277   0.270
49523W        W13280  23.615  10.656   4.733
49524W        W13281  13.599  30.440   3.232
49525W        W13282   9.355  41.303  12.345
49526W        W13283  31.499   8.825   4.118
49527W        W13284  32.091  32.109  14.850
49528W        W13285   0.853   2.386   3.287
49529W        W13286  10.878  32.536  11.542
49530W        W13287  14.789  24.200  10.411
49531W        W13288  18.212   2.940   4.115
49532W        W13289   0.853   7.296   4.817
49533W        W13290  35.566  23.097  11.542
49534W        W13291  29.574  28.023  10.534
49535W        W13292  15.690   2.435  12.845
49536W        W13293  15.196  19.665   2.816
49537W        W13294  37.386  27.569  11.045
49538W        W13295   0.800  29.162   4.799
49539W        W13296  13.779  43.781   3.863
49540W        W13297  24.668  22.651   4.277
49541W        W13298  39.868   2.967  14.798
49542W        W13299  44.435  40.539   3.224
49543W        W13300  32.540  17.300   3.814
49544W        W13301  20.761  42.420  14.893
49545W        W13302  12.325  31.068   4.611
49546W        W13303   0.272  25.131  11.572
49547W        W13304   5.335  34.031   4.219
49548W        W13305  28.042  37.541   0.284
49549W        W13306  33.588  15.110   2.384
49550W        W13307  38.879  16.662   0.883
49551W        W13308  24.537  26.991  10.425
49552W        W13309  36.052  11.291   4.816
49553W        W13310  12.125  28.127  11.963
49554W        W13311  15.628   0.420   3.275
49555W        W13312  33.891   6.906   4.332
49556W        W13313  23.549  43.886  13.931
49557W        W13314  13.132  18.606  14.984
49558W        W13315   2.230  25.204   1.762
49559W        W13316  23.061  36.991  12.383
49560W        W13317  22.624  25.589   1.794
49561W        W13318   7.195  18.774   2.834
49562W        W13319   8.366  20.537   1.798
49563W        W13320  40.850  36.479  14.899
49564W        W13321  40.992  44.264  10.997
49565W        W13322   8.806  15.261   1.774
49566W        W13323   5.729   9.234   3.238
49567W        W13324  22.068  11.812  14.884
49568W        W13325  23.177  11.637   0.863
49569W        W13326   0.761  41.513  11.597
49570W        W13327  23.593  40.393   2.671
49571W        W13328  29.594   4.812  12.456
49572W        W13329   3.839  15.233  11.373
49573W        W13330  18.767  13.780  14.760
49574W        W13331  42.290  13.259  12.024
49575W        W13332  29.645   8.676   1.264
49576W        W13333  22.722  39.850   4.668
49577W        W13334  12.317  26.099   4.192
49578W        W13335  17.782  13.793  12.509
49579W        W13336   6.706   5.796   0.906
49580W        W13337  20.583  24.111  11.114
49581W        W13338  22.116  36.384  12.439
49582W        W13339  25.627  31.630   2.865
49583W        W13340  28.662  13.192   0.327
49584W        W13341  19.677  30.092  11.953
49585W        W13342  21.741  33.466  13.449
49586W        W13343  22.200  41.901  12.839
49587W        W13344  25.664  42.916  10.514
49588W        W13345   2.858   9.283   2.405
49589W        W13346  17.678   7.803   1.262
49590W        W13347   5.377  34.481  14.293
49591W        W13348   0.742  44.328  14.384
49592W        W13349  13.625  29.036  13.505
49593W        W13350  19.683   4.318   4.215
49594W        W13351  11.764  31.414  13.440
49595W        W13352  17.160   2.428  13.955
49596W        W13353   8.845  32.048  10.941
49597W        W13354  28.067  32.902   0.456
49598W        W13355  26.131  33.922   2.372
49599W        W13356  43.358  42.322   1.783
49600W        W13357  18.056  40.541   4.302
49601W        W13358  42.014   7.376  13.445
49602W        W13359  36.369  16.212  10.454
49603W        W13360  30.440   2.354   1.311
49604W        W13361   8.255  22.015  13.490
49605W        W13362   1.308  37.396   4.751
49606W        W13363  30.111  24.532  13.493
49607W        W13364   0.988   5.753  10.635
49608W        W13365  39.330  20.062   2.664
49609W        W13366  41.490  38.926  13.026
49610W        W13367  42.316  37.379   3.204
49611W        W13368  20.750   1.347  13.977
49612W        W13369   9.833  33.064  11.409
49613W        W13370  25.194   2.721  12.897
49614W        W13371  13.620   7.845   4.607
49615W        W13372  10.793  30.441   2.319
49616W        W13373  17.717  41.788  12.842
49617W        W13374  28.050  42.894  12.014
49618W        W13375  21.206  18.058  13.420
49619W        W13376  35.050  39.442  12.435
49620W        W13377   2.458  38.553   3.692
49621W        W13378  19.720  13.723   0.929
49622W        W13379  26.462  23.716   9.945
49623W        W13380  32.950   8.660  13.425
49624W        W13381  10.313  11.317   4.756
49625W        W13382  30.087   0.898  14.284
49626W        W13383  32.035  25.670   2.709
49627W        W13384  15.147  15.262   2.382
49628W        W13385  24.141  23.034  13.926
49629W        W13386  30.586  37.901   1.316
49630W        W13387  28.126  31.423  12.401
49631W        W13388  26.533   6.421   2.748
49632W        W13389  16.283   8.795   4.781
49633W        W13390  17.164  35.420  11.074
49634W        W13391  21.600  33.091   2.858
49635W        W13392  12.630  38.471   2.342
49636W        W13393  37.869  42.990   0.288
49637W        W13394  43.912  26.123  12.995
49638W        W13395  22.567  38.550  13.807
49639W        W13396  20.062  26.462   3.176
49640W        W13397  30.986  14.639   4.657
49641W        W13398  17.253   5.880  11.083
49642W        W13399  25.669  19.148   0.783
49643W        W13400  44.813   2.806   4.153
49644W        W13401  44.306  26.015   2.211
49645W        W13402  35.362  44.421   3.336
49646W        W13403   6.184   0.351   4.732
49647W        W13404  44.822   6.866  12.417
49648W        W13405   6.360  28.675  10.642
49649W        W13406  42.304  33.895   3.839
49650W        W13407  38.440  41.430  13.800
49651W        W13408  39.436  17.306   3.264
49652W        W13409  38.938  11.365   1.709
49653W        W13410  44.467  20.187   0.262
49654W        W13411  23.129   4.425  11.053
49655W        W13412  25.185  10.320   4.133
49656W        W13413  16.267   8.277   2.287
49657W        W13414   1.480  32.899  14.025
49658W        W13415  38.826  11.336   2.751
49659W        W13416  10.285  13.805  11.940
49660W        W13417  14.253  32.021   1.877
49661W        W13418  18.263  20.253   1.761
49662W        W13419  31.576   7.192  13.475
49663W        W13420  34.377  10.809   2.264
49664W        W13421  25.065  28.612  12.381
49665W        W13422  15.813  34.610   9.979
49666W        W13423  23.233  11.685   2.668
49667W        W13424  16.261   5.318  11.401
49668W        W13425  29.156  42.848  12.978
49669W        W13426  23.238  21.239  14.830
49670W        W13427  25.558  44.774  12.408
49671W        W13428   6.820  27.465   2.717
49672W        W13429   1.460  23.618   2.748
49673W        W13430   6.224  21.671  13.796
49674W        W13431  17.120  33.927  10.991
49675W        W13432  35.880  28.658   1.700
49676W        W13433  35.026  35.028  12.546
49677W        W13434  22.513  25.004   5.218
49678W        W13435   9.761   4.726  12.482
49679W        W13436  35.486  21.085  14.825
49680W        W13437   7.293  40.927   0.880
49681W        W13438  10.666  15.648  13.383
49682W        W13439   5.374  18.218  12.435
49683W        W13440   6.681  16.721   3.673
49684W        W13441  18.597  15.119   4.734
49685W        W13442   4.250  29.986   3.666
49686W        W13443  24.532  14.650   0.824
49687W        W13444  31.137   8.176   2.187
49688W        W13445  41.441   8.724   4.208
49689W        W13446  43.332  11.292   2.333
49690W        W13447  14.250  12.661   2.823
49691W        W13448  37.460  24.974   3.280
49692W        W13449  16.721  34.094  11.889
49693W        W13450  26.482  15.607  11.862
49694W        W13451  16.568   5.867  12.518
49695W        W13452  16.806  23.532  10.524
49696W        W13453  39.845  26.051  10.520
49697W        W13454  16.113  11.334  12.985
49698W        W13455  31.968  33.388  13.989
49699W        W13456  32.618  28.139   1.787
49700W        W13457  40.979  22.235   0.950
49701W        W13458  12.794  23.989  11.401
49702W        W13459  32.530   7.762   1.913
49703W        W13460  18.184  17.167   3.750
49704W        W13461  26.607  20.626  14.455
49705W        W13462   5.242   1.942  14.996
49706W        W13463  17.287   3.940  14.946
49707W        W13464  14.321  43.352   0.364
49708W        W13465  15.707  38.469   2.749
49709W        W13466  32.479  42.004   4.683
49710W        W13467  13.830  21.177  13.367
49711W        W13468   2.282  38.440  14.371
49712W        W13469   1.767   0.365   4.759
49713W        W13470  35.430  18.732   2.861
49714W        W13471  44.771   7.715   4.692
49715W        W13472   3.866  19.639   0.832
49716W        W13473  28.546  10.781  13.462
49717W        W13474  22.218  37.543   0.413
49718W        W13475  42.517   8.237   2.678
49719W        W13476   4.739  21.117  14.803
49720W        W13477  13.205  32.980   4.700
49721W        W13478  26.571  29.084  12.931
49722W        W13479   9.221  40.325   9.624
49723W        W13480  11.711   9.294   4.827
49724W        W13481  30.586  43.478  11.118
49725W        W13482  33.444  14.185   5.157
49726W        W13483  27.949  22.529   5.127
49727W        W13484  17.585  43.485   0.474
49728W        W13485  39.499  14.672  11.494
49729W        W13486   8.336   1.782  11.565
49730W        W13487   5.225  42.484   3.717
49731W        W13488  21.756  19.121  14.330
49732W        W13489   6.836  18.055   3.826
49733W        W13490  33.971  32.466  12.036
49734W        W13491  10.365  44.471   3.790
49735W        W13492  14.821  36.473   3.744
49736W        W13493  14.297  34.401  14.030
49737W        W13494  24.534  28.005  12.871
49738W        W13495   0.402  31.018  11.091
49739W        W13496  15.168  36.088   0.913
49740W        W13497  19.252  18.679   4.618
49741W        W13498  13.703  11.351   3.726
49742W        W13499  27.670   1.419  14.436
49743W        W13500   6.328  30.111   4.156
49744W        W13501  27.538  34.077   3.693
49745W        W13502   3.898  34.506   2.264
49746W        W13503  18.652   3.746   0.868
49747W        W13504  17.122   3.299  11.390
49748W        W13505   3.737  11.170   1.914
49749W        W13506  10.365   4.399   0.420
49750W        W13507  31.138  19.598   4.711
49751W        W13508   2.281  42.937   1.852
49752W        W13509  30.602  26.603  10.575
49753W        W13510  15.781  26.466   1.768
49754W        W13511  12.293  10.158  11.467
49755W        W13512  11.253  21.022   3.171
49756W        W13513  27.138   7.831  13.439
49757W        W13514  12.656  44.496   1.868
49758W        W13515  40.479  23.519  13.981
49759W        W13516  28.970  31.580  10.523
49760W        W13517  24.998   0.938   1.771
49761W        W13518  42.489  19.213  11.043
49762W        W13519   1.305   7.234  13.795
49763W        W13520   3.745  14.661  11.980
49764W        W13521  25.473  34.610   2.327
49765W        W13522  36.864  38.408  11.028
49766W        W13523  44.486   6.247  12.855
49767W        W13524  42.502  18.203  10.950
49768W        W13525  23.733  24.498  13.506
49769W        W13526  17.696  39.319   4.259
49770W        W13527  39.399  20.570  12.484
49771W        W13528   2.370  16.602   3.790
49772W        W13529  19.081  29.576  11.456
49773W        W13530  14.780   7.354   4.352
49774W        W13531  21.725  12.624   1.751
49775W        W13532  35.897   5.387   0.943
49776W        W13533  41.325  15.703   1.299
49777W        W13534   0.902  41.392   3.370
49778W        W13535   0.792  16.622   3.269
49779W        W13536   9.863  40.347   1.852
49780W        W13537  24.557  37.002   0.422
49781W        W13538   3.787  33.961  13.466
49782W        W13539  42.319  28.992  14.410
49783W        W13540  20.595  34.887  12.428
49784W        W13541  24.642  27.576   3.829
49785W        W13542  29.617  22.646  11.375
49786W        W13543  41.017  18.129   2.241
49787W        W13544   8.195  38.042  11.400
49788W        W13545  27.998  39.454   3.708
49789W        W13546  22.108   0.346  14.931
49790W        W13547   0.410  20.703   4.239
49791W        W13548   4.802   3.216  11.515
49792W        W13549  34.612  16.608  13.806
49793W        W13550  25.073  31.924  10.508
49794W        W13551  21.577  38.886  10.973
49795W        W13552  28.993  18.278  10.601
49796W        W13553  14.194  43.475   3.189
49797W        W13554   2.368  12.824  14.018
49798W        W13555  21.700  21.597   1.828
49799W        W13556  19.708   4.409  11.073
49800W        W13557  34.458  30.594  10.495
49801W        W13558  27.508  31.119   4.353
49802W        W13559   6.831  31.411  12.428
49803W        W13560  20.554  37.456   1.352
49804W        W13561  28.546  32.435   0.817
49805W        W13562  36.588  17.720  14.802
49806W        W13563  33.623  16.780   0.850
49807W        W13564  22.242   0.414  11.506
49808W        W13565   7.902  19.211   5.313
49809W        W13566  23.089   3.321   1.249
49810W        W13567   4.433  34.404  14.018
49811W        W13568   3.893  23.549   2.850
49812W        W13569  19.729  30.113  11.062
49813W        W13570  14.817  11.811  14.801
49814W        W13571  33.615  15.259   1.900
49815W        W13572  10.369  18.714   4.313
49816W        W13573  36.992   9.804  12.087
49817W        W13574  25.099   6.309  11.926
49818W        W13575  38.916  37.447  10.450
49819W        W13576  42.797  39.328  12.476
49820W        W13577   4.821  15.593   5.160
49821W        W13578   5.867  14.641  12.869
49822W        W13579  44.308  32.434  12.445
49823W        W13580  24.193  29.082   1.328
49824W        W13581  11.285  22.209  14.300
49825W        W13582  22.566  31.636   3.796
49826W        W13583  25.021  43.007  13.051
49827W        W13584   6.276  17.555   1.747
49828W        W13585   4.338  32.907   3.270
49829W        W13586  32.416  38.419  11.494
49830W        W13587  34.003  20.763   0.443
49831W        W13588   7.390   3.379  13.973
49832W        W13589  33.120  27.017  12.971
49833W        W13590  20.741  39.355  14.456
49834W        W13591  21.231  27.010  11.856
49835W        W13592  35.909   1.290  12.826
49836W        W13593  36.028  38.882  10.514
49837W        W13594  12.633  44.405  13.820
49838W        W13595  18.232  28.643   0.780
49839W        W13596  34.951  25.137   0.894
49840W        W13597  33.505  34.946   9.933
49841W        W13598  32.621  21.738  14.854
49842W        W13599   9.716  44.387   3.645
49843W        W13600  28.624   7.303   1.907
49844W        W13601   2.252  19.245  13.903
49845W        W13602  13.753  22.221  11.607
49846W        W13603  25.027  44.769  11.942
49847W        W13604   9.828  26.611  11.092
49848W        W13605  38.922  21.116   0.286
49849W        W13606  40.970  41.421   1.345
49850W        W13607  19.229   1.446   0.905
49851W        W13608  13.629  17.613  14.442
49852W        W13609  13.814  36.008  13.929
49853W        W13610   1.441  12.624  13.830
49854W        W13611  24.206   4.381   2.371
49855W        W13612  43.393  13.255  11.858
49856W        W13613  22.128  22.509   1.885
49857W        W13614  15.123  37.474   1.239
49858W        W13615   0.919  40.810  13.397
49859W        W13616  28.137  20.105   4.124
49860W        W13617  34.587  28.125  14.845
49861W        W13618  43.435  35.506  13.872
49862W        W13619  13.606  13.771  13.340
49863W        W13620  39.522  30.132   2.711
49864W        W13621  12.620  43.918   9.538
49865W        W13622  18.638  14.098  11.391
49866W        W13623  18.187  10.667  12.445
49867W        W13624   2.433  29.494  14.812
49868W        W13625  25.023  30.164  12.407
49869W        W13626  22.152   1.415   1.910
49870W        W13627  22.582   9.874  12.069
49871W        W13628  24.629  28.177  11.092
49872W        W13629  22.014  41.537   3.152
49873W        W13630   8.345   4.792   0.745
49874W        W13631  27.998  38.946  12.384
49875W        W13632  15.584  18.124  12.521
49876W        W13633  17.657  33.466   4.154
49877W        W13634  37.557   6.899   4.247
49878W        W13635  35.424  37.054  12.884
49879W        W13636  37.933  14.167  12.507
49880W        W13637  11.141   4.343  11.609
49881W        W13638  23.163  18.618  12.014
49882W        W13639  27.056  22.036   1.431
49883W        W13640  29.620   2.373  12.874
49884W        W13641   7.202  43.769   4.208
49885W        W13642  27.560  21.674   3.358
49886W        W13643  20.106  27.175   2.197
49887W        W13644  27.648  11.186   1.857
49888W        W13645  13.727  36.536  10.519
49889W        W13646  16.266  22.503  10.604
49890W        W13647  42.453  39.343  12.045
49891W        W13648  26.107   8.286  13.886
49892W        W13649  35.382  37.889  10.539
49893W        W13650  15.778  29.951  10.980
49894W        W13651  38.034  15.741  11.973
49895W        W13652  39.868   2.412  14.886
49896W        W13653  20.570  17.290  14.390
49897W        W13654  44.361  14.629  13.833
49898W        W13655  35.415  37.453   0.342
49899W        W13656  14.182  26.569  11.977
49900W        W13657   0.864  20.250  14.470
49901W        W13658  28.463  36.977   0.785
49902W        W13659  25.642  42.488  13.002
49903W        W13660  11.275  14.308   4.181
49904W        W13661  28.633  32.991  11.380
49905W        W13662  39.348  28.940  13.489
49906W        W13663  24.127  22.716  14.365
49907W        W13664  20.667  30.106   0.397
49908W        W13665  16.687  30.096  11.040
49909W        W13666  31.506   3.843   0.890
49910W        W13667  13.297  11.795  10.429
49911W        W13668   6.814   6.817   3.675
49912W        W13669   2.836  19.771  13.317
49913W        W13670   3.856  17.631   1.323
49914W        W13671  13.754  23.193   0.317
49915W        W13672  30.966  33.574  12.037
49916W        W13673   2.962  38.554   0.802
49917W        W13674  31.575  11.134   2.788
49918W        W13675  39.883  16.780   3.647
49919W        W13676  33.916  24.225   0.862
49920W        W13677  25.699  15.748   2.383
49921W        W13678   7.197  15.160  13.365
49922W        W13679  21.617   6.785  13.367
49923W        W13680  11.193   0.750  11.927
49924W        W13681  18.165   3.252   0.961
49925W        W13682  17.277   8.871  11.484
49926W        W13683   9.376  16.694   2.677
49927W        W13684  38.863   0.436   0.280
49928W        W13685  12.349  15.805  14.433
49929W        W13686  28.644  37.065  12.418
49930W        W13687   2.409   5.782  11.120
49931W        W13688   5.409  21.259   0.769
49932W        W13689  20.549  27.065  13.823
49933W        W13690  35.604  35.016  12.993
49934W        W13691  44.007  27.691  11.557
49935W        W13692  17.598   1.395   1.435
49936W        W13693   8.658  20.128   2.702
49937W        W13694  22.516  17.723  11.430
49938W        W13695  29.617  11.708   2.897
49939W        W13696  27.566  33.934  10.937
49940W        W13697  21.057  17.137   0.733
49941W        W13698   7.336  40.533  10.495
49942W        W13699  10.174   0.377   0.473
49943W        W13700  30.060  22.641  13.503
49944W        W13701  40.464   1.744  11.036
49945W        W13702  20.523  41.966   0.812
49946W        W13703   3.727   4.722  11.453
49947W        W13704  19.165  10.860   0.885
49948W        W13705  35.870  24.559  10.942
49949W        W13706   7.392  26.973   1.818
49950W        W13707  40.523  40.540   2.361
49951W        W13708  22.716  39.996   1.857
49952W        W13709  44.342  17.206   3.710
49953W        W13710  41.353  30.628  12.400
49954W        W13711  18.268  37.914  12.931
49955W        W13712  17.180  27.159   0.860
49956W        W13713   2.872   9.868  14.378
49957W        W13714  28.646  34.486   2.689
49958W        W13715   0.472  28.509  14.874
49959W        W13716  44.872  39.406  13.913
49960W        W13717  29.449   5.800   9.944
49961W        W13718   8.724  25.178   4.127
49962W        W13719  13.334  38.877  14.767
49963W        W13720  26.143  18.097   0.852
49964W        W13721  25.174   3.288  10.444
49965W        W13722  19.592  30.535   0.921
49966W        W13723  38.844   6.305  14.291
49967W        W13724  24.528   1.461  13.464
49968W        W13725  35.525  34.462  13.358
49969W        W13726  18.601  16.080  10.612
49970W        W13727  28.067   0.875   2.704
49971W        W13728  31.540  13.315   2.828
49972W        W13729   5.797  27.595  10.633
49973W        W13730  34.971  20.056   3.645
49974W        W13731  32.967   7.769   3.353
49975W        W13732  22.065  33.434   2.398
49976W        W13733  34.888  44.817  11.539
49977W        W13734  13.781  37.500   3.721
49978W        W13735  30.526  11.683  14.354
49979W        W13736   7.231   2.345   1.910
49980W        W13737   0.469  13.820   4.743
49981W        W13738   7.215  13.246  13.032
49982W        W13739  15.722   5.755  12.848
49983W        W13740  20.089   0.789   1.396
49984W        W13741  31.637   5.193   4.598
49985W        W13742  29.992  19.646   1.243
49986W        W13743  29.647  18.643   1.801
49987W        W13744   8.776  37.948   1.288
49988W        W13745   2.399   8.886  13.316
49989W        W13746  38.514   4.406   4.801
49990W        W13747  44.277  17.698   4.226
49991W        W13748   9.374  23.031  11.482
49992W        W13749  32.454  15.732  11.958
49993W        W13750  32.555  15.216   1.739
49994W        W13751  12.801  16.801   0.737
49995W        W13752   8.341  30.971  12.937
49996W        W13753   2.364  12.792  11.926
49997W        W13754  36.047  24.638   1.375
49998W        W13755   8.739  41.465   1.765
49999W        W13756   0.876   0.845   4.685
50000W        W13757  29.075  42.808   1.283
50001W        W13758  14.296  27.961   1.821
50002W        W13759  31.426  31.135   0.312
50003W        W13760  32.616  15.613   4.828
50004W        W13761  43.819   2.795   2.267
50005W        W13762  38.501   5.823   0.867
50006W        W13763  17.229  21.259   2.395
50007W        W13764  40.935  12.843  10.441
50008W        W13765  27.942  15.605   0.436
50009W        W13766  35.379   2.948   0.440
50010W        W13767  13.318  25.677  13.990
50011W        W13768  20.718  37.564  11.599
50012W        W13769  17.786  43.284  13.512
50013W        W13770  18.655  25.063   1.252
50014W        W13771  12.751  30.959  13.024
50015W        W13772  31.636   7.263   1.417
50016W        W13773  41.028  13.649   0.474
50017W        W13774  26.564  11.220  11.418
50018W        W13775   2.732   3.845   2.408
50019W        W13776  18.176  35.024  12.895
50020W        W13777  26.693  44.004  12.343
50021W        W13778  33.048  14.760   2.751
50022W        W13779  13.193  44.760   1.438
50023W        W13780   0.833  35.990  10.442
50024W        W13781  21.255  14.622   1.801
50025W        W13782  41.438   1.839  14.983
50026W        W13783  42.384   0.464   2.260
50027W        W13784  41.953  24.549   2.349
50028W        W13785  16.628  11.642   3.801
50029W        W13786  36.554  18.624  13.364
50030W        W13787  44.474  12.189  13.806
50031W        W13788  37.493   3.245  11.872
50032W        W13789  29.989   0.348  13.016
50033W        W13790   2.841  12.703  10.481
50034W        W13791  33.615  28.624   5.291
50035W        W13792  10.731  33.883  12.954
50036W        W13793  38.489  39.411  11.085
50037W        W13794   0.398  34.442   1.384
50038W        W13795   6.419  38.410  14.453
50039W        W13796   7.907   8.731  14.859
50040W        W13797  36.019  28.125  10.419
50041W        W13798  14.799  29.473  12.384
50042W        W13799   2.774  20.230   2.873
50043W        W13800  15.326  41.890   4.258
50044W        W13801   6.780  15.203  11.888
50045W        W13802  41.907   6.302  12.425
50046W        W13803  38.524  23.524   0.340
50047W        W13804   8.257   0.956   0.823
50048W        W13805  30.611  20.144  11.017
50049W        W13806  35.549  11.236   1.787
50050W        W13807  28.662  38.000   3.681
50051W        W13808   3.832   6.797   1.697
50052W        W13809  27.526  34.956  11.893
50053W        W13810   4.708  40.387  10.950
50054W        W13811   2.827  38.988  10.454
50055W        W13812  29.176  23.506  11.413
50056W        W13813   1.823  14.733  13.019
50057W        W13814  41.367  42.946  11.109
50058W        W13815  38.858   3.919   2.901
50059W        W13816  39.315  34.110  10.545
50060W        W13817  31.944  20.076   3.311
50061W        W13818   1.397  38.379  11.128
50062W        W13819  18.103   2.731   0.891
50063W        W13820  14.666  11.648  10.122
50064W        W13821  35.925  10.375   4.217
50065W        W13822  34.431  33.968  14.336
50066W        W13823  44.923  30.431   5.236
50067W        W13824  42.874  25.526   3.312
50068W        W13825  32.931   7.893   1.368
50069W        W13826  17.074  36.949  14.030
50070W        W13827   7.299  35.058   1.871
50071W        W13828  10.223  27.468  12.037
50072W        W13829   4.205   7.897   3.839
50073W        W13830   2.883  14.296  12.939
50074W        W13831   9.666  37.031  10.405
50075W        W13832  21.228  14.310  13.887
50076W        W13833   8.804  19.096   2.755
50077W        W13834  23.058   5.325  11.555
50078W        W13835  14.726  27.643   1.373
50079W        W13836  25.654  18.635   3.863
50080W        W13837  20.266   7.282  14.830
50081W        W13838  27.554   8.683   1.746
50082W        W13839   5.270  16.307  10.573
50083W        W13840   1.414  19.555   0.329
50084W        W13841  14.205  16.659   3.805
50085W        W13842  14.270   9.175  12.896
50086W        W13843   8.659  37.988  14.378
50087W        W13844  33.505  17.079  14.945
50088W        W13845   4.934  39.870   1.426
50089W        W13846  26.526  38.335  12.066
50090W        W13847  28.078  32.502  10.482
50091W        W13848  44.399  33.987  13.814
50092W        W13849  23.509  43.979   3.860
50093W        W13850  26.618  23.578   9.605
50094W        W13851  19.076  12.663  11.573
50095W        W13852   8.859  18.294   3.294
50096W        W13853  43.391  43.327  10.899
50097W        W13854  25.526  14.775  11.125
50098W        W13855  19.196  40.375   4.774
50099W        W13856  40.829   8.246   3.703
50100W        W13857  23.116   9.709  12.881
50101W        W13858  25.064   8.180  11.514
50102W        W13859  25.469  37.349  13.989
50103W        W13860  37.910  15.191  11.970
50104W        W13861  18.102  23.199  14.792
50105W        W13862  22.711  31.063   1.305
50106W        W13863  36.076  38.874  13.897
50107W        W13864  17.147  35.007   1.872
50108W        W13865  28.103  33.989   3.324
50109W        W13866  22.164   5.792   2.678
50110W        W13867  39.502  22.027  11.495
50111W        W13868  34.471  18.223   3.296
50112W        W13869  38.988  39.448   3.629
50113W        W13870  44.926  13.315  14.887
50114W        W13871  27.501   8.663   4.645
50115W        W13872  43.482  14.720   0.906
50116W        W13873   3.787  24.637  11.539
50117W        W13874   3.813  12.162  12.084
50118W        W13875   4.815  14.332  13.047
50119W        W13876  14.639  21.221  12.976
50120W        W13877  30.056  11.247  10.591
50121W        W13878  12.118  14.650   3.298
50122W        W13879  24.572   4.764  11.532
50123W        W13880  42.446  42.326   3.805
50124W        W13881  16.573   7.826  14.001
50125W        W13882   8.297  23.540   4.200
50126W        W13883  11.667  39.496  10.530
50127W        W13884  35.098  14.793   3.694
50128W        W13885  24.137  15.780  10.146
50129W        W13886  37.515  27.479   1.427
50130W        W13887  11.736   3.401   4.192
50131W        W13888   7.324  38.327  14.401
50132W        W13889  27.592  29.110   1.934
50133W        W13890  29.094  31.974   0.726
50134W        W13891   8.236  21.750   3.216
50135W        W13892  44.444  15.622   2.318
50136W        W13893  35.455  11.836   2.782
50137W        W13894  32.982  14.245   4.618
50138W        W13895  29.938  12.318   4.771
50139W        W13896  33.414  37.463   3.659
50140W        W13897  11.246   2.804  10.959
50141W        W13898  41.480  35.364   0.395
50142W        W13899  25.165  21.217   0.804
50143W        W13900  26.138  19.675   2.841
50144W        W13901  26.953   2.471  12.490
50145W        W13902  24.201  29.964   3.342
50146W        W13903   7.182  14.190   5.117
50147W        W13904  28.025  42.923   1.443
50148W        W13905  23.684  24.996   4.204
50149W        W13906  35.984  25.710  12.951
50150W        W13907  39.479  27.064   0.951
50151W        W13908  40.906  30.575   4.174
50152W        W13909  28.673   8.230   1.253
50153W        W13910  40.406   4.795   0.453
50154W        W13911  40.909  44.004  10.529
50155W        W13912  18.741   0.466   4.784
50156W        W13913   1.932  11.317   2.882
50157W        W13914  23.611  19.095   4.314
50158W        W13915  28.157  36.011   3.368
50159W        W13916  10.359  25.153  11.124
50160W        W13917  38.828  13.189  13.955
50161W        W13918  19.578  26.179   1.251
50162W        W13919   2.407  12.242  12.957
50163W        W13920   3.457  31.902  12.013
50164W        W13921  41.406  40.540   4.267
50165W        W13922   1.936  13.115   3.307
50166W        W13923  36.398  10.653   4.765
50167W        W13924  38.424   8.727   2.205
50168W        W13925  37.990  19.163   0.355
50169W        W13926   6.907  14.769   0.395
50170W        W13927   6.912  38.983   2.840
50171W        W13928  41.886  22.672  14.338
50172W        W13929  31.047   4.288  12.364
50173W        W13930   0.488  30.024  13.464
50174W        W13931  32.552  27.665  14.457
50175W        W13932  42.962   3.879  14.882
50176W        W13933  12.143  11.672  11.579
50177W        W13934   7.762  29.481   0.914
50178W        W13935  41.887  12.325  13.988
50179W        W13936  19.780  16.685  13.051
50180W        W13937  40.908  29.174  13.943
50181W        W13938  20.663  17.070  14.022
50182W        W13939  37.959  35.518  13.818
50183W        W13940  17.690  32.061   3.826
50184W        W13941  33.571  36.053  12.390
50185W        W13942  11.203   6.377  11.397
50186W        W13943  12.116   6.350   0.324
50187W        W13944  35.873  33.449   0.789
50188W        W13945  29.115  39.356   4.763
50189W        W13946   0.938  16.776  12.031
50190W        W13947  42.477  31.965   4.836
50191W        W13948   2.959  17.268   0.879
50192W        W13949  28.641   4.789  11.901
50193W        W13950  35.559  32.490   1.845
50194W        W13951  39.814  27.076  13.044
50195W        W13952  35.963   5.877   3.656
50196W        W13953  42.400   4.784  13.310
50197W        W13954   0.387  25.979   1.806
50198W        W13955  36.849  39.482   1.876
50199W        W13956  29.107  29.081  12.350
50200W        W13957  16.274  38.059   4.288
50201W        W13958  16.255  32.558  13.922
50202W        W13959   2.941  11.355   0.769
50203W        W13960  13.745  28.169   0.760
50204W        W13961  33.561  40.495   0.771
50205W        W13962  13.325  22.652  14.445
50206W        W13963  24.542  29.929   1.412
50207W        W13964  32.919  43.278  10.899
50208W        W13965  17.255  30.636   0.414
50209W        W13966  19.247  27.625   4.332
50210W        W13967  19.109  42.305  12.835
50211W        W13968  29.167   7.355  14.769
50212W        W13969  22.513   7.282  11.019
50213W        W13970  32.966   2.321  12.520
50214W        W13971  35.411  26.123  11.521
50215W        W13972  38.035   9.201  12.340
50216W        W13973  18.106  43.476   2.303
50217W        W13974  39.553  42.990  14.832
50218W        W13975  34.053  10.777   3.336
50219W        W13976  16.080  24.647   4.276
50220W        W13977   5.264  26.579   4.701
50221W        W13978  19.171  36.404  13.051
50222W        W13979   3.235  16.307   0.308
50223W        W13980  12.748  38.909  12.029
50224W        W13981  29.922   5.359  12.471
50225W        W13982  33.952  31.909  11.976
50226W        W13983   8.675  16.311  13.035
50227W        W13984  27.015  26.590  13.026
50228W        W13985   3.888  27.619   2.323
50229W        W13986  11.220  32.585  11.863
50230W        W13987   1.916  15.143   0.380
50231W        W13988  31.986   4.209  14.473
50232W        W13989   7.415  15.121   4.344
50233W        W13990   4.866   6.224  11.447
50234W        W13991  27.002  27.641   2.877
50235W        W13992  28.583  39.456   1.225
50236W        W13993  27.956  33.965  13.388
50237W        W13994  12.122  23.652   2.358
50238W        W13995  21.571  22.705   9.997
50239W        W13996   2.272  24.211  13.969
50240W        W13997  26.142  15.697   5.712
50241W        W13998  16.601  21.128   3.231
50242W        W13999  35.434   5.794  11.375
50243W        W14000  17.579  44.795   1.890
50244W        W14001  29.427  22.252   4.349
50245W        W14002   2.956  30.974   4.180
50246W        W14003  20.091  38.496  11.888
50247W        W14004  18.145  13.760  10.956
50248W        W14005  21.733  33.427   3.682
50249W        W14006   7.873  11.351  10.130
50250W        W14007   6.727   9.844   1.706
50251W        W14008  44.284   4.247  10.958
50252W        W14009  25.986  29.613  12.977
50253W        W14010  34.931  38.537  10.623
50254W        W14011  42.368  20.053   3.755
50255W        W14012  43.290  20.760   2.764
50256W        W14013  10.693  39.420  12.370
50257W        W14014  44.323  24.230   3.344
50258W        W14015  33.093  12.118   2.888
50259W        W14016  37.923  34.930   3.703
50260W        W14017  18.058  40.337   2.404
50261W        W14018   6.685  44.321  14.950
50262W        W14019  35.064  30.586   3.363
50263W        W14020  11.791  17.175   1.892
50264W        W14021  34.878  29.534   2.701
50265W        W14022  31.561   0.755   3.779
50266W        W14023  17.751   4.773   1.449
50267W        W14024  35.493  44.329  10.900
50268W        W14025  30.970  44.409  11.065
50269W        W14026  21.716  41.448   5.226
50270W        W14027  15.130  32.522  14.458
50271W        W14028   8.861  31.949   0.730
50272W        W14029  35.516  36.067  13.830
50273W        W14030  20.243  36.842  13.421
50274W        W14031  32.125  30.923   0.302
50275W        W14032   7.671  42.016  14.901
50276W        W14033  13.744  15.818   0.959
50277W        W14034  37.545  13.339   5.204
50278W        W14035   7.355   9.657  12.518
50279W        W14036   5.890  36.063   3.677
50280W        W14037  23.732  39.389   0.365
50281W        W14038  35.031  32.598  10.524
50282W        W14039  41.913  34.069   4.324
50283W        W14040  19.538  32.544  12.455
50284W        W14041  44.437  26.522  14.331
50285W        W14042  17.740  33.980  13.903
50286W        W14043  39.917   5.386  11.987
50287W        W14044  34.876  37.068  13.316
50288W        W14045   8.853  30.497   2.251
50289W        W14046  14.628  27.645  12.088
50290W        W14047  37.370  13.334   1.763
50291W        W14048  39.343  30.430  14.330
50292W        W14049  32.437  35.465   1.832
50293W        W14050  26.463  24.715  13.315
50294W        W14051   5.718  14.188  12.907
50295W        W14052  19.574  12.247   4.169
50296W        W14053  27.498  36.094   1.921
50297W        W14054  37.513   2.888   1.917
50298W        W14055   4.277  31.913  12.056
50299W        W14056  12.243  33.920   3.703
50300W        W14057  36.025  25.706  13.949
50301W        W14058   2.336  16.660   0.467
50302W        W14059  12.243   4.339  13.335
50303W        W14060  44.437  41.408   1.270
50304W        W14061  35.551   0.400   3.838
50305W        W14062   5.285  15.168  11.094
50306W        W14063  42.794  13.812  14.352
50307W        W14064  42.870  42.967  11.084
50308W        W14065  39.519  32.634  11.529
50309W        W14066   1.733  10.696   3.780
50310W        W14067  15.108  18.641  13.934
50311W        W14068   4.342  11.190   4.746
50312W        W14069  11.208  27.049  10.962
50313W        W14070   5.293   2.792   1.418
50314W        W14071   1.282  39.336   1.326
50315W        W14072  39.560   0.293  11.058
50316W        W14073  34.395  12.701   0.387
50317W        W14074  44.942  16.627  14.443
50318W        W14075  15.280  34.490  11.531
50319W        W14076  17.628  19.610   0.454
50320W        W14077  31.912  10.280   3.340
50321W        W14078   5.320  30.588   1.872
50322W        W14079  17.228  22.017  13.868
50323W        W14080  13.266  29.047   2.226
50324W        W14081   9.660  27.508   3.837
50325W        W14082  36.498  36.450  13.400
50326W        W14083  18.188  17.787  11.976
50327W        W14084  27.149   3.307   4.246
50328W        W14085  42.458  33.461   4.286
50329W        W14086  20.624  14.646   9.936
50330W        W14087  21.686  30.451  10.916
50331W        W14088  13.318  41.843  10.576
50332W        W14089   8.699   9.363  13.329
50333W        W14090   0.936  32.141  14.782
50334W        W14091  41.357  35.520  13.537
50335W        W14092  41.888   3.425   2.851
50336W        W14093  28.939  39.442   1.230
50337W        W14094  10.361  44.759   2.211
50338W        W14095  31.459  22.516   1.363
50339W        W14096  40.455  22.611  11.451
50340W        W14097  24.593  23.057  11.399
50341W        W14098  23.498  10.257   2.825
50342W        W14099   6.254  10.347  11.447
50343W        W14100  26.505  14.142   1.824
50344W        W14101  36.434  20.206   4.251
50345W        W14102  10.349  38.535   2.373
50346W        W14103  14.232  42.520   3.242
50347W        W14104  14.145  30.990  11.373
50348W        W14105   1.330  39.560   2.269
50349W        W14106  15.771   9.839   2.288
50350W        W14107  30.025  29.166   0.337
50351W        W14108   0.961  17.225   0.356
50352W        W14109  12.208  13.724   2.204
50353W        W14110   8.809  30.160  13.961
50354W        W14111  41.912   4.382   3.190
50355W        W14112  20.741  18.729  12.835
50356W        W14113  42.324  39.471  11.021
50357W        W14114  37.573  28.026  11.397
50358W        W14115  37.933  25.706  14.948
50359W        W14116  40.839  26.010   4.259
50360W        W14117  44.813  11.790   0.396
50361W        W14118  33.396  28.468  14.000
50362W        W14119  39.907   2.767  12.497
50363W        W14120   3.294  42.411  14.904
50364W        W14121  14.163  34.412  13.463
50365W        W14122  38.544   8.209   4.204
50366W        W14123  37.949  22.044   0.438
50367W        W14124  21.065  23.670   4.185
50368W        W14125  21.540   4.823  12.566
50369W        W14126  42.327  35.584   0.809
50370W        W14127  23.628   4.703  14.980
50371W        W14128  27.630  25.609   0.916
50372W        W14129   1.281  33.874   0.319
50373W        W14130  12.830  23.731   2.287
50374W        W14131  42.935  26.031   1.420
50375W        W14132  20.654  26.197   1.371
50376W        W14133  41.830  23.194   2.716
50377W        W14134  33.539  10.718  14.395
50378W        W14135  15.291   6.776  13.376
50379W        W14136  12.138  28.154   1.363
50380W        W14137   6.693  42.945   3.184
50381W        W14138  29.031  29.130   1.380
50382W        W14139  21.156  17.164   4.694
50383W        W14140  22.501  26.131  13.375
50384W        W14141   0.331   9.331  10.921
50385W        W14142  14.667  31.639  13.473
50386W        W14143  13.778  30.047   2.359
50387W        W14144  44.288  27.505  12.918
50388W        W14145  28.633  26.625  14.461
50389W        W14146  18.691   6.219  11.124
50390W        W14147  30.509  24.989  10.538
50391W        W14148  24.219  30.577  12.437
50392W        W14149  19.660   5.825  11.595
50393W        W14150   9.779  18.209  14.345
50394W        W14151  15.159  31.527  14.292
50395W        W14152  40.352  29.971   0.810
50396W        W14153  13.227  25.490   2.877
50397W        W14154   0.813  33.598  14.355
50398W        W14155  10.282  19.171   2.275
50399W        W14156   0.829  44.395  13.043
50400W        W14157  30.919  25.077   4.343
50401W        W14158  14.632   6.245   2.723
50402W        W14159  23.210  22.697   4.646
50403W        W14160   3.408  24.629   1.708
50404W        W14161  11.788  15.083   1.754
50405W        W14162  41.513   3.928  10.498
50406W        W14163  13.672   9.708   2.376
50407W        W14164   4.746   8.741   2.715
50408W        W14165   0.833  33.034   2.290
50409W        W14166  17.724  30.581  12.516
50410W        W14167  37.351  25.502   4.744
50411W        W14168  28.004  14.825  13.856
50412W        W14169   5.344  21.722   0.369
50413W        W14170   8.716   4.758  10.140
50414W        W14171  17.235   5.702   2.395
50415W        W14172  34.879  31.129   2.770
50416W        W14173  34.958  39.024   3.163
50417W        W14174  23.596  15.755  11.411
50418W        W14175   4.728  38.852   2.728
50419W        W14176  28.172  29.529  11.607
50420W        W14177  34.068  36.893   0.848
50421W        W14178  27.999  13.759   5.172
50422W        W14179  33.515  18.721  13.039
50423W        W14180  30.022   5.334   3.650
50424W        W14181  30.414  38.327   0.450
50425W        W14182  41.340  33.915  11.118
50426W        W14183  17.738  38.968   2.234
50427W        W14184  10.165  13.649  13.836
50428W        W14185  12.656   1.317  14.311
50429W        W14186  15.771  40.371  11.129
50430W        W14187  11.176  25.616   2.373
50431W        W14188   0.889  31.067   2.753
50432W        W14189  18.253  37.374  13.311
50433W        W14190  36.394  38.479  11.566
50434W        W14191   3.418   9.825  13.545
50435W        W14192  21.224   6.768  12.024
50436W        W14193   2.868  19.600  14.425
50437W        W14194  18.584  35.955  13.911
50438W        W14195  28.505  22.207  11.959
50439W        W14196  36.995  36.912   2.338
50440W        W14197  16.683   0.822   3.345
50441W        W14198   2.787  29.979  12.460
50442W        W14199  43.394  26.107   1.814
50443W        W14200  34.488  35.063  10.514
50444W        W14201  24.190   6.794  13.360
50445W        W14202  44.960  35.926   4.247
50446W        W14203  19.285   0.858  13.363
50447W        W14204  17.217  22.598   1.755
50448W        W14205   9.674  27.519  11.372
50449W        W14206  27.159  28.135   4.239
50450W        W14207   4.703  21.575   3.279
50451W        W14208  12.844  22.210   0.872
50452W        W14209  26.995   3.331   3.863
50453W        W14210  22.644   1.841   3.283
50454W        W14211  33.954  26.501   3.275
50455W        W14212  17.618  31.052  10.924
50456W        W14213  16.224  29.516   0.742
50457W        W14214  11.305   9.695   4.255
50458W        W14215   6.339  38.559  12.409
50459W        W14216  44.422  18.660  11.493
50460W        W14217  20.047  21.125   3.290
50461W        W14218  10.821  33.407   4.297
50462W        W14219  34.979  41.985   3.335
50463W        W14220  32.902  40.310   3.280
50464W        W14221   1.287  43.878   1.284
50465W        W14222  33.109  42.974  12.865
50466W        W14223  12.195  28.583   4.259
50467W        W14224  43.862   7.402   3.337
50468W        W14225  36.963   7.729  14.017
50469W        W14226  33.464  27.094   3.776
50470W        W14227   8.397   5.691  12.897
50471W        W14228   9.151  24.559  12.539
50472W        W14229   0.903  32.471  13.519
50473W        W14230  10.800  23.724  12.540
50474W        W14231  27.063  40.951  11.919
50475W        W14232   7.403   6.836   3.816
50476W        W14233  42.951  39.419  10.924
50477W        W14234  16.637   4.418  10.500
50478W        W14235   5.849  12.131   1.851
50479W        W14236  12.340  33.089  12.466
50480W        W14237   0.372   8.829   2.265
50481W        W14238  16.750  37.053  14.794
50482W        W14239  13.700   6.406  10.941
50483W        W14240  25.158   1.245   1.226
50484W        W14241  30.932  41.377  11.590
50485W        W14242  15.763  20.687  12.040
50486W        W14243   8.824   0.925  11.921
50487W        W14244  35.398   2.245   3.219
50488W        W14245  20.685  21.171  12.392
50489W        W14246  12.849  29.079  11.016
50490W        W14247  40.412  30.957  10.616
50491W        W14248  18.074  18.296  11.417
50492W        W14249  16.596  18.761  13.044
50493W        W14250  40.526  44.372  10.104
50494W        W14251  26.560  19.748  13.870
50495W        W14252  10.327   7.785   4.260
50496W        W14253  44.466  25.518  11.483
50497W        W14254  21.037  27.537   0.398
50498W        W14255   6.828  21.160   1.747
50499W        W14256   1.965  20.627   0.876
50500W        W14257   2.962  22.531  14.981
50501W        W14258   7.792  17.269   0.739
50502W        W14259  31.611  13.211   2.249
50503W        W14260  26.511   3.458  11.858
50504W        W14261   6.402  17.641   9.960
50505W        W14262  19.646   2.905   4.336
50506W        W14263  32.901  31.531  11.514
50507W        W14264  42.330  28.175  13.855
50508W        W14265   9.278  19.072   1.744
50509W        W14266  18.119  42.491   4.679
50510W        W14267  32.891   1.352   0.868
50511W        W14268   9.810  24.076  11.540
50512W        W14269   2.257  26.510  10.991
50513W        W14270  42.340   9.183   0.951
50514W        W14271  31.153  23.508  12.971
50515W        W14272  37.966  13.338  11.890
50516W        W14273  13.621  23.015   0.847
50517W        W14274  25.978  11.672   1.886
50518W        W14275   3.289   5.842   3.221
50519W        W14276  30.534  18.715  10.498
50520W        W14277   0.783  44.416  12.432
50521W        W14278  43.943  15.764  11.599
50522W        W14279  44.888  13.152   0.810
50523W        W14280  25.661  33.397  11.944
50524W        W14281   2.773  30.022   1.835
50525W        W14282  20.191  44.264  11.046
50526W        W14283  32.955   1.393   3.784
50527W        W14284  15.598   2.953  10.598
50528W        W14285  35.952   2.228  10.117
50529W        W14286  12.138   5.245  12.841
50530W        W14287  34.085  28.108   3.226
50531W        W14288  43.791  20.704  14.893
50532W        W14289  32.546  11.707   0.352
50533W        W14290  34.083  29.919   0.823
50534W        W14291   0.298   8.774  12.841
50535W        W14292  31.470  18.158   0.773
50536W        W14293  42.881  36.560   0.912
50537W        W14294   9.708  23.498  10.436
50538W        W14295  29.045  11.213  13.332
50539W        W14296   2.735  18.183  11.982
50540W        W14297  17.708   8.666  12.471
50541W        W14298  29.597  33.601   2.389
50542W        W14299  25.100  37.437   4.215
50543W        W14300   3.442  21.563   4.147
50544W        W14301  25.501  24.630   2.277
50545W        W14302  13.166   3.242  14.358
50546W        W14303  26.090  11.859   3.347
50547W        W14304  14.725   5.933   2.399
50548W        W14305  36.582  41.356  14.769
50549W        W14306   1.403   9.867  12.095
50550W        W14307   2.362  14.695   4.670
50551W        W14308  10.823  34.062  12.571
50552W        W14309   1.436  16.161   0.906
50553W        W14310  38.438   3.257  11.063
50554W        W14311  12.126  36.088   2.692
50555W        W14312  36.058   4.344   1.366
50556W        W14313  38.360   6.750   1.439
50557W        W14314  40.426   6.733  11.082
50558W        W14315  12.248   2.728   3.298
50559W        W14316  20.258  42.879   4.621
50560W        W14317  23.158  20.627  13.064
50561W        W14318  12.118  38.944   4.736
50562W        W14319  32.899  15.811  14.440
50563W        W14320  44.945  35.000  13.338
50564W        W14321  32.603  16.714  13.366
50565W        W14322  36.088  31.566   2.740
50566W        W14323  35.360   7.800   0.891
50567W        W14324  37.455  38.069  13.805
50568W        W14325  42.964   1.819  13.532
50569W        W14326  19.121  25.537   4.810
50570W        W14327   2.433  33.072  14.460
50571W        W14328  32.949   5.437   1.820
50572W        W14329  28.979   0.331   1.367
50573W        W14330   6.729  16.807   3.165
50574W        W14331  21.109  35.374   4.798
50575W        W14332  40.996  23.554   4.731
50576W        W14333   9.333  34.064  11.944
50577W        W14334  42.838  18.595  14.837
50578W        W14335  15.199  44.908  13.897
50579W        W14336   0.264  43.490   2.414
50580W        W14337   5.354  35.010  10.490
50581W        W14338  15.818  15.635   0.308
50582W        W14339  21.047  26.631   0.911
50583W        W14340  29.153  28.093   3.686
50584W        W14341  43.864  22.586   1.781
50585W        W14342  21.017  36.021  13.426
50586W        W14343  30.502  12.213   4.354
50587W        W14344  23.157   1.848  11.880
50588W        W14345  15.738  28.178  12.034
50589W        W14346  44.003  31.448  13.500
50590W        W14347  36.379  41.494   4.816
50591W        W14348  10.184  32.578  12.092
50592W        W14349  38.999   6.264   4.821
50593W        W14350  25.658  18.609  13.321
50594W        W14351  28.152  35.002  13.885
50595W        W14352   8.338  10.324  10.478
50596W        W14353  11.623  33.500  13.047
50597W        W14354  38.064  13.338   0.438
50598W        W14355  30.978   9.226  12.874
50599W        W14356   1.932  22.136   0.778
50600W        W14357  27.043   5.259  12.495
50601W        W14358  28.115  15.768   4.343
50602W        W14359   8.663   1.810   3.856
50603W        W14360   0.750  19.729  11.117
50604W        W14361  42.878  43.021  13.370
50605W        W14362   8.397  14.621   0.941
50606W        W14363  43.465  25.023   5.142
50607W        W14364   5.748  19.720  11.974
50608W        W14365  40.484  15.587  10.094
50609W        W14366  23.146  39.391  11.877
50610W        W14367  14.288  19.161  14.946
50611W        W14368   0.384  20.536   2.205
50612W        W14369   5.407  38.407   3.321
50613W        W14370  13.290   5.322  14.885
50614W        W14371  39.914  13.729   0.859
50615W        W14372  31.642  13.203   3.820
50616W        W14373  24.652  35.007   2.697
50617W        W14374  34.587  26.206   2.776
50618W        W14375  31.630  21.141  11.983
50619W        W14376  32.500  37.857   2.183
50620W        W14377  39.876  39.032  10.454
50621W        W14378  31.119  12.807  12.339
50622W        W14379  26.497   7.768   3.305
50623W        W14380  30.148  22.161  14.915
50624W        W14381   0.781  38.345   2.257
50625W        W14382  15.328  34.505   0.393
50626W        W14383  29.651  41.966   1.765
50627W        W14384  23.005  36.529  12.977
50628W        W14385  43.272  37.005  11.039
50629W        W14386  27.545   8.787  11.423
50630W        W14387  16.140   2.782  14.811
50631W        W14388  43.409  14.151   1.739
50632W        W14389  41.466  28.076   1.380
50633W        W14390  33.054  44.265   0.811
50634W        W14391  28.664  14.693   2.889
50635W        W14392  35.394  33.042   4.664
50636W        W14393   6.903  26.576  13.812
50637W        W14394  39.517  12.320  12.529
50638W        W14395  13.111   9.238  12.046
50639W        W14396  11.223  24.230   3.208
50640W        W14397   5.400  21.736   4.199
50641W        W14398  23.529  16.622   4.719
50642W        W14399  37.951  37.566   2.799
50643W        W14400  18.215  35.065   3.260
50644W        W14401  42.952  35.977   2.699
50645W        W14402  33.430  22.044  14.901
50646W        W14403  35.894  22.725   1.222
50647W        W14404   1.293  25.139  13.325
50648W        W14405  29.994  24.076   1.325
50649W        W14406  16.679  14.808   3.829
50650W        W14407  18.742  33.107  14.982
50651W        W14408   6.714   9.764   2.819
50652W        W14409  24.009  34.063  11.449
50653W        W14410  29.424   6.689   4.608
50654W        W14411  41.827  24.576  13.909
50655W        W14412  27.110  13.680  11.933
50656W        W14413  41.416  39.325  13.405
50657W        W14414   1.900  34.468   3.249
50658W        W14415  12.845  33.396  14.965
50659W        W14416  14.107   8.347  14.849
50660W        W14417   2.313  26.007   4.817
50661W        W14418  18.654  17.118  10.595
50662W        W14419   2.734  43.450  11.960
50663W        W14420   8.160   5.194   2.663
50664W        W14421  30.482  39.414   4.667
50665W        W14422  12.644  12.355  14.319
50666W        W14423  32.078  23.185  14.501
50667W        W14424  39.557  36.352  12.838
50668W        W14425  38.371  14.329   4.612
50669W        W14426  43.383   1.739   1.881
50670W        W14427   7.340  19.069   4.217
50671W        W14428  25.148   0.312   2.844
50672W        W14429  32.624  38.450   1.762
50673W        W14430  18.635  28.083  12.357
50674W        W14431  15.625  40.476  12.458
50675W        W14432  41.403  23.535   3.861
50676W        W14433  23.185   3.258   0.784
50677W        W14434  41.435  38.059   2.313
50678W        W14435  32.896  39.998  10.900
50679W        W14436  25.632  11.272  14.500
50680W        W14437  12.239  33.382  11.867
50681W        W14438   5.343  25.129   3.249
50682W        W14439   4.279  37.520  11.576
50683W        W14440  41.982   6.266  10.595
50684W        W14441  44.805  30.484   0.465
50685W        W14442  10.198   1.968   3.809
50686W        W14443   8.750  19.578   1.915
50687W        W14444  33.512   8.174  13.311
50688W        W14445  28.610  24.161  14.861
50689W        W14446  32.051   0.489   1.237
50690W        W14447  38.494  35.510   3.653
50691W        W14448  32.490  20.745   0.452
50692W        W14449  42.933  37.562  11.568
50693W        W14450  35.507  23.023  10.967
50694W        W14451  28.061  41.800   4.348
50695W        W14452  13.702  42.351   1.752
50696W        W14453  34.959  27.037   3.151
50697W        W14454  38.421  25.038  14.807
50698W        W14455  40.310   9.858  10.642
50699W        W14456  43.990  15.297  10.577
50700W        W14457  24.167   3.366   4.758
50701W        W14458   4.872  32.588  11.102
50702W        W14459  20.755  13.289  10.513
50703W        W14460  28.129  31.924   4.145
50704W        W14461  42.513  15.721  10.461
50705W        W14462  26.617   8.747   0.438
50706W        W14463   9.787  24.668   2.359
50707W        W14464   0.456  28.473   2.359
50708W        W14465  35.970   5.788  12.887
50709W        W14466   2.938   7.870  13.840
50710W        W14467  11.198   1.272  11.077
50711W        W14468  13.828  15.221   2.771
50712W        W14469  19.777  11.330  12.039
50713W        W14470   6.188  34.459  12.509
50714W        W14471  13.785  34.582   1.826
50715W        W14472   3.216  35.042   5.297
50716W        W14473   1.468   8.854   3.167
50717W        W14474  35.024  33.430  13.800
50718W        W14475  29.622  28.638   1.921
50719W        W14476  44.366  41.861   0.954
50720W        W14477  40.361  34.917   0.342
50721W        W14478  34.016  38.865  12.486
50722W        W14479   2.921   3.400   2.311
50723W        W14480  21.032   9.379   4.837
50724W        W14481   7.769  16.112  13.413
50725W        W14482  38.984   6.413   1.733
50726W        W14483  13.229  27.949  14.427
50727W        W14484  28.065   5.429  14.900
50728W        W14485   1.456  14.790  14.929
50729W        W14486  11.682  36.027   2.867
50730W        W14487   9.839   2.799   1.435
50731W        W14488  24.047   3.944   4.283
50732W        W14489  42.775  28.447  14.434
50733W        W14490  17.183  30.932  11.075
50734W        W14491  40.493   6.339   4.623
50735W        W14492  41.306  19.538  10.452
50736W        W14493  12.321  19.696  11.526
50737W        W14494   8.201  17.709   4.622
50738W        W14495  30.578   3.453  12.505
50739W        W14496  41.902  27.991   4.653
50740W        W14497  13.782   1.968   4.815
50741W        W14498  31.011  23.046  10.429
50742W        W14499  36.516   1.871  11.892
50743W        W14500  11.352  40.959  11.925
50744W        W14501  44.976  22.556   4.691
50745W        W14502   6.757   7.711   3.770
50746W        W14503   7.686  12.826  14.479
50747W        W14504  39.486  41.536  13.813
50748W        W14505   5.275  33.030  13.502
50749W        W14506   3.759  40.411   1.903
50750W        W14507  10.206  29.635  13.859
50751W        W14508   8.189  18.544   1.395
50752W        W14509  31.424   7.693  10.444
50753W        W14510  20.112  42.509  13.954
50754W        W14511  33.975  30.441  10.143
50755W        W14512  38.328  23.657   3.815
50756W        W14513  28.568  36.431   1.409
50757W        W14514  38.047  23.103   3.327
50758W        W14515  33.879  36.089  14.941
50759W        W14516  18.642  13.742   1.861
50760W        W14517  13.300  37.851   2.792
50761W        W14518  14.207  21.042   3.630
50762W        W14519   2.454  16.204  14.472
50763W        W14520  19.101  20.152   1.900
50764W        W14521  23.994  13.667  10.625
50765W        W14522  43.871   3.768   2.294
50766W        W14523  22.197  43.404  12.518
50767W        W14524   4.780  41.471  13.468
50768W        W14525   5.923   5.197  11.565
50769W        W14526  29.437  36.876   4.613
50770W        W14527   0.324   4.421  12.498
50771W        W14528  10.868   9.852   0.428
50772W        W14529  37.841  41.307   1.744
50773W        W14530  20.744  29.006   3.750
50774W        W14531  21.204  37.950   3.213
50775W        W14532  28.546  32.538  14.386
50776W        W14533   3.384  32.964  14.938
50777W        W14534  37.992   4.809   0.469
50778W        W14535  11.230  30.093   0.800
50779W        W14536  34.529  30.461   4.682
50780W        W14537  26.520  25.124   0.759
50781W        W14538  28.147  24.512  12.580
50782W        W14539   4.261   5.275   4.306
50783W        W14540  14.697  31.453  11.091
50784W        W14541  36.390  42.892  10.965
50785W        W14542   8.859   5.401  13.909
50786W        W14543  38.497   3.834   2.774
50787W        W14544  36.900  43.998   2.299
50788W        W14545  28.651   8.310   2.756
50789W        W14546  13.254   1.771  11.028
50790W        W14547  14.675  43.499   2.199
50791W        W14548   7.725  31.937   0.343
50792W        W14549  13.290  42.430   4.241
50793W        W14550  43.350  36.862   1.740
50794W        W14551  39.549   6.374   3.346
50795W        W14552  27.173  41.311   1.837
50796W        W14553  19.694  33.991   2.305
50797W        W14554  43.814  36.866  12.480
50798W        W14555  36.070  35.597  10.440
50799W        W14556  35.358  24.643  10.497
50800W        W14557  21.621  32.093   2.377
50801W        W14558  21.025  33.462  13.483
50802W        W14559   6.845  32.966   1.794
50803W        W14560   7.755   6.327   0.370
50804W        W14561  35.591  24.208   4.252
50805W        W14562   3.434  24.601  10.630
50806W        W14563  15.122  37.483  10.560
50807W        W14564  19.162  26.458  14.908
50808W        W14565  37.881  11.138   4.240
50809W        W14566  11.315  44.289  10.617
50810W        W14567  35.975  33.970  12.515
50811W        W14568  42.991  16.318  13.393
50812W        W14569  27.447  10.362   0.727
50813W        W14570   7.829  41.458   0.475
50814W        W14571  23.598  35.479  12.899
50815W        W14572   2.821  10.695  11.911
50816W        W14573   0.285  40.849   4.657
50817W        W14574  16.579  30.094  10.548
50818W        W14575  41.517  19.073  10.566
50819W        W14576  17.186  40.483   9.969
50820W        W14577   2.431  35.431   4.149
50821W        W14578  19.134   3.248  13.316
50822W        W14579   6.781  22.598   0.427
50823W        W14580  10.342  26.084  12.499
50824W        W14581  26.544  12.210   3.368
50825W        W14582  20.040  28.138   2.264
50826W        W14583  11.765  15.216  12.065
50827W        W14584  36.566  23.992  14.017
50828W        W14585  27.007  18.133   0.427
50829W        W14586  41.360  13.202   1.749
50830W        W14587   2.452   7.349  11.945
50831W        W14588  21.668  31.028   3.212
50832W        W14589   3.439  27.503  12.961
50833W        W14590  32.130  23.659  13.828
50834W        W14591  14.125  18.575  10.410
50835W        W14592  35.969  26.459  11.423
50836W        W14593  19.721  29.068  12.004
50837W        W14594  13.216   2.404   4.819
50838W        W14595  14.215  43.492   9.514
50839W        W14596  40.049  40.053  13.481
50840W        W14597  37.549   7.774  12.928
50841W        W14598  33.571  24.637   3.226
50842W        W14599   8.200  34.527   0.274
50843W        W14600  22.219   3.345  10.439
50844W        W14601   4.744  28.978  14.485
50845W        W14602  22.185  21.111   4.141
50846W        W14603  15.820  26.982   4.263
50847W        W14604   7.861   2.244  11.907
50848W        W14605  28.040  31.470  14.288
50849W        W14606  15.132  38.914   2.234
50850W        W14607  25.682  29.503  12.848
50851W        W14608  43.788  27.647  10.995
50852W        W14609  32.915  24.491  12.830
50853W        W14610  12.357  44.825  14.913
50854W        W14611  29.431  40.480  14.967
50855W        W14612  12.692  25.110   2.220
50856W        W14613  26.603  25.076  11.404
50857W        W14614  32.077   9.680   4.204
50858W        W14615  12.780  28.566  11.412
50859W        W14616  15.222  18.748   1.274
50860W        W14617   5.308  23.206  12.434
50861W        W14618   9.231  10.678  14.014
50862W        W14619  38.543  13.264   1.884
50863W        W14620  34.460  32.553   0.855
50864W        W14621  30.609  18.750   4.140
50865W        W14622  40.438  15.151  13.861
50866W        W14623  11.304   4.731   4.191
50867W        W14624  31.564  15.598  13.541
50868W        W14625  44.002  40.320   0.471
50869W        W14626   4.341   3.869  11.483
50870W        W14627   2.733  17.635   3.766
50871W        W14628  40.526  31.955  13.992
50872W        W14629  44.454  36.500  10.124
50873W        W14630  14.757  19.561   3.338
50874W        W14631  15.724  34.908  13.986
50875W        W14632  35.059  26.606  11.542
50876W        W14633  44.763  31.050   2.730
50877W        W14634  20.573  14.680  14.307
50878W        W14635   8.193  40.477   4.130
50879W        W14636  36.033  21.564   1.887
50880W        W14637  17.263  38.423   2.822
50881W        W14638  41.476   1.827   5.149
50882W        W14639  12.290  22.995  11.049
50883W        W14640   1.787  25.137   0.935
50884W        W14641  26.609  25.472  14.910
50885W        W14642  44.871   0.324  13.543
50886W        W14643  14.601  40.841  13.950
50887W        W14644  16.117  15.244   0.915
50888W        W14645  37.367  17.646  11.436
50889W        W14646  27.559  17.617  13.822
50890W        W14647   6.380  40.348   3.205
50891W        W14648  44.816  16.750   1.713
50892W        W14649   9.863  27.475   4.118
50893W        W14650  44.976  35.572  12.882
50894W        W14651  27.066  24.017   2.225
50895W        W14652  43.789  36.892   3.311
50896W        W14653  29.565  37.550   1.288
50897W        W14654   7.294  10.649  13.912
50898W        W14655  44.339  17.175   2.712
50899W        W14656  37.069  31.554   4.155
50900W        W14657   6.887  25.156  13.359
50901W        W14658  22.151   4.763  11.989
50902W        W14659  44.960  36.886   2.213
50903W        W14660   7.225   5.291   0.785
50904W        W14661  33.084  15.258   1.244
50905W        W14662  20.543  38.907  10.981
50906W        W14663  13.815   4.344  14.308
50907W        W14664   4.290  11.779  10.540
50908W        W14665  40.375  15.607  13.322
50909W        W14666  16.730   7.348   3.635
50910W        W14667   0.339   2.958   1.700
50911W        W14668  35.470  44.338  10.434
50912W        W14669  22.199  15.823   3.641
50913W        W14670  28.988  44.909  10.641
50914W        W14671  16.596   9.798   0.795
50915W        W14672  38.501  25.555  12.027
50916W        W14673  10.798  11.273   4.197
50917W        W14674  43.004   3.434  11.887
50918W        W14675  23.701  30.934  11.091
50919W        W14676  27.003   9.867   3.245
50920W        W14677  42.510  27.541   1.396
50921W        W14678   4.932  39.007  10.943
50922W        W14679  29.613  15.180  14.976
50923W        W14680  27.145  44.419  14.842
50924W        W14681  15.700  27.117   0.355
50925W        W14682  19.741   9.747  12.411
50926W        W14683  25.474   2.233   3.205
50927W        W14684  32.060  29.086   0.740
50928W        W14685  37.510  43.015  11.427
50929W        W14686  27.558  10.646  12.916
50930W        W14687   2.923  16.737  13.054
50931W        W14688   2.802  43.848  14.949
50932W        W14689  24.662  20.578   2.806
50933W        W14690  14.764  21.234  14.019
50934W        W14691  19.729  36.097   2.746
50935W        W14692  38.325  13.831   3.705
50936W        W14693  12.747  38.912   0.302
50937W        W14694  19.049  36.052   4.662
50938W        W14695  29.985  15.147  12.470
50939W        W14696  11.290  43.445  13.820
50940W        W14697   4.767  27.570   0.351
50941W        W14698  24.630  32.076   2.868
50942W        W14699   3.461   0.874   1.334
50943W        W14700  32.120  24.623   4.224
50944W        W14701  24.516  22.732  14.285
50945W        W14702  27.571   5.394   1.925
50946W        W14703  18.219  42.911   2.185
50947W        W14704  22.204  21.040   0.860
50948W        W14705  28.934  21.727   2.818
50949W        W14706  37.340  25.634   0.412
50950W        W14707  27.196   7.694  11.557
50951W        W14708   1.322   5.229  14.389
50952W        W14709   0.894  17.635  12.382
50953W        W14710  32.499  43.769  13.509
50954W        W14711  14.751   8.803  12.011
50955W        W14712   6.281  40.853  11.974
50956W        W14713  28.449  34.952   4.175
50957W        W14714   5.246  16.694  10.412
50958W        W14715  43.954   5.309  13.401
50959W        W14716   5.769  30.056  13.402
50960W        W14717  44.009  20.030  12.532
50961W        W14718  29.496   7.804  10.630
50962W        W14719  13.297  20.178  13.872
50963W        W14720  35.058  27.672  11.565
50964W        W14721  18.163  23.064   4.771
50965W        W14722  37.998  18.656   4.341
50966W        W14723  13.781  36.885   1.917
50967W        W14724  34.894  26.183  10.984
50968W        W14725  34.468  23.044  14.326
50969W        W14726  17.266   6.225  10.056
50970W        W14727  23.053  21.149   3.746
50971W        W14728   9.731  23.217   4.299
50972W        W14729  26.029   6.751   3.355
50973W        W14730  22.195  23.142   0.267
50974W        W14731   9.888  35.890  11.114
50975W        W14732  37.421  41.836  12.363
50976W        W14733   5.901  12.618  10.576
50977W        W14734  13.640  40.023  11.511
50978W        W14735  16.711   5.857   2.240
50979W        W14736   5.223  37.051  13.883
50980W        W14737  25.003  21.586  10.496
50981W        W14738  42.300  42.917   4.208
50982W        W14739  12.129  22.007   4.179
50983W        W14740  43.884  29.152   4.736
50984W        W14741  29.643  21.611  10.501
50985W        W14742  36.368  13.317   1.882
50986W        W14743  16.166  21.224  12.435
50987W        W14744  28.179  34.892   5.082
50988W        W14745  32.028  27.033  10.962
50989W        W14746  42.959  20.583   4.129
50990W        W14747  30.473  31.486  13.968
50991W        W14748   7.806  11.300  13.880
50992W        W14749   5.743  25.491   4.667
50993W        W14750  15.778  10.766  13.946
50994W        W14751  30.148   9.883  13.493
50995W        W14752  26.655  38.943   2.226
50996W        W14753  23.088  17.187  11.395
50997W        W14754  21.624  23.042   2.754
50998W        W14755  37.060   8.205  14.297
50999W        W14756  44.844  18.088  11.439
51000W        W14757  38.436   7.714  14.394
51001W        W14758  27.152  43.959   3.167
51002W        W14759   2.413  21.163   0.776
51003W        W14760  38.930  11.263   1.398
51004W        W14761   8.363  38.502  10.444
51005W        W14762  39.526  26.551  11.491
51006W        W14763  40.824  26.582   3.632
51007W        W14764  30.557  26.518   1.867
51008W        W14765  11.250  29.086  13.835
51009W        W14766   5.399  25.600   0.327
51010W        W14767  17.143  34.048  11.394
51011W        W14768  19.578   5.432   3.325
51012W        W14769  43.342  35.913  11.572
51013W        W14770  26.592  41.803   0.802
51014W        W14771  31.014  28.664   0.733
51015W        W14772  30.979  10.195   0.385
51016W        W14773  18.137  23.549   0.845
51017W        W14774   1.852  35.520  14.017
51018W        W14775  28.136  34.998  10.644
51019W        W14776   2.302  34.021  14.304
51020W        W14777  39.362  28.068   4.615
51021W        W14778  19.694  14.216  13.320
51022W        W14779  33.906  15.633  11.092
51023W        W14780   7.701   8.290  13.936
51024W        W14781  19.245   6.891  10.580
51025W        W14782  29.099  32.023   2.829
51026W        W14783  42.027  37.428  14.399
51027W        W14784  36.449  41.307  12.562
51028W        W14785  24.533  29.528   2.756
51029W        W14786   7.730  25.176  10.563
51030W        W14787   7.273  26.625  11.486
51031W        W14788   4.212  31.117   1.736
51032W        W14789   6.301  14.694   2.844
51033W        W14790  24.191  23.655   2.415
51034W        W14791  33.975  16.100  12.847
51035W        W14792   7.182  17.270   2.774
51036W        W14793  12.615  36.468  13.949
51037W        W14794   3.773  21.744  10.941
51038W        W14795  33.096  37.525   4.794
51039W        W14796  42.943  32.068   2.755
51040W        W14797  41.043  32.026  13.353
51041W        W14798  35.026  41.937  12.087
51042W        W14799  12.205  11.813  12.984
51043W        W14800  35.963  10.721   1.422
51044W        W14801  20.215   9.704  12.992
51045W        W14802  22.647   0.425   0.966
51046W        W14803   3.451  42.980  12.916
51047W        W14804  40.918  11.215  11.990
51048W        W14805  14.287  32.527  11.570
51049W        W14806   7.239  19.116  14.841
51050W        W14807  28.081  29.476   1.374
51051W        W14808  31.613  34.536   0.327
51052W        W14809  41.797   1.383   4.803
51053W        W14810  14.119  21.153  14.450
51054W        W14811  37.990   4.736   1.880
51055W        W14812  11.663  38.332   4.737
51056W        W14813  19.552   9.201   0.387
51057W        W14814  34.990  39.995  13.324
51058W        W14815  41.320  36.923   0.392
51059W        W14816  36.543  11.340  13.001
51060W        W14817  17.110  30.015   3.304
51061W        W14818   5.694  27.148   3.808
51062W        W14819  28.167  24.157  12.532
51063W        W14820  37.570  26.123   1.739
51064W        W14821  13.795   8.337  12.003
51065W        W14822  25.669  41.911   3.338
51066W        W14823  20.028  36.966  11.556
51067W        W14824  19.271  24.071  12.381
51068W        W14825  18.612   2.327   3.384
51069W        W14826   4.733  38.880   2.295
51070W        W14827   5.310   0.805   0.927
51071W        W14828  13.150  16.081   3.268
51072W        W14829   4.261  18.750  10.432
51073W        W14830  14.275   1.771   2.267
51074W        W14831  24.675  22.098  10.013
51075W        W14832  41.469  12.300   0.288
51076W        W14833   4.866  22.664  12.823
51077W        W14834  44.346  26.177   0.947
51078W        W14835   9.661  21.734  13.812
51079W        W14836  29.563  35.511  12.342
51080W        W14837   4.831   1.825   1.216
51081W        W14838  13.820  18.699   1.891
51082W        W14839  41.001   0.366  12.058
51083W        W14840  12.204  20.708  12.375
51084W        W14841  18.217  15.315  11.528
51085W        W14842   5.733  25.188   4.675
51086W        W14843  12.663  43.930  14.434
51087W        W14844   3.411   7.723   5.304
51088W        W14845  40.455  31.122   4.727
51089W        W14846  38.051   7.306  14.448
51090W        W14847  30.620  36.916  12.847
51091W        W14848  35.878   9.391  11.956
51092W        W14849  40.956  37.984  13.472
51093W        W14850  14.307  19.081  13.800
51094W        W14851  32.464  20.705  10.958
51095W        W14852   1.895  18.254   2.786
51096W        W14853  10.248   6.848   3.731
51097W        W14854  24.138  38.846  13.986
51098W        W14855   1.923  44.002   4.131
51099W        W14856  30.074  29.150   3.760
51100W        W14857  41.787  33.103   2.252
51101W        W14858  15.110  41.041  12.962
51102W        W14859   9.734  22.203   3.817
51103W        W14860   4.443  15.135  14.993
51104W        W14861   1.315  20.112   3.237
51105W        W14862  18.779   7.667   1.785
51106W        W14863  31.947  17.142   3.689
51107W        W14864  33.555  43.953   1.232
51108W        W14865  20.246  12.179  10.500
51109W        W14866   6.783   7.693  11.511
51110W        W14867  28.487  34.495   4.828
51111W        W14868   8.746  13.351  11.068
51112W        W14869   4.721  11.868  13.449
51113W        W14870  20.746   6.790   4.618
51114W        W14871   3.278  34.371   4.294
51115W        W14872   4.255  10.732   0.743
51116W        W14873   5.365  37.558  12.090
51117W        W14874  21.074  17.635   1.214
51118W        W14875  34.999  18.251   9.965
51119W        W14876   4.384  15.178   1.385
51120W        W14877  39.417  14.797   4.730
51121W        W14878  37.874  24.008   4.162
51122W        W14879  25.007   7.368  14.870
51123W        W14880  31.918  39.377   0.772
51124W        W14881  44.854   2.388   0.829
51125W        W14882  42.909  32.996   1.771
51126W        W14883  19.628  24.669   0.358
51127W        W14884  18.659  20.747  10.542
51128W        W14885  44.965  32.901   0.399
51129W        W14886  29.639   6.399   4.737
51130W        W14887   1.387  19.534  13.446
51131W        W14888  23.008  19.073   1.435
51132W        W14889  25.971   8.794   4.302
51133W        W14890   3.408  32.424   0.786
51134W        W14891  27.127  12.197  13.878
51135W        W14892   3.387  29.471  12.935
51136W        W14893  21.679  17.115  12.045
51137W        W14894  40.851  19.279  14.485
51138W        W14895  27.564  17.233  12.881
51139W        W14896  24.161  20.671   1.273
51140W        W14897  39.812  10.857  11.394
51141W        W14898  15.299   0.345   0.917
51142W        W14899   6.799  15.179   2.852
51143W        W14900  40.484  33.477   2.826
51144W        W14901  28.454  18.167   3.774
51145W        W14902  20.173  29.061  14.969
51146W        W14903   8.695  36.418   1.357
51147W        W14904  43.462  23.645  12.895
51148W        W14905   8.384  10.819  13.957
51149W        W14906  26.123  21.232   4.729
51150W        W14907  11.341   1.970  13.808
51151W        W14908  13.599  34.917   2.189
51152W        W14909  26.093   4.319   3.658
51153W        W14910  18.556  26.086  12.838
51154W        W14911  34.379   2.912  10.535
51155W        W14912  34.911  14.297  10.095
51156W        W14913  24.201  38.887  14.895
51157W        W14914  22.058  34.502   3.358
51158W        W14915  12.824  24.681   4.313
51159W        W14916   5.350  11.776  12.829
51160W        W14917  44.413  11.181  13.927
51161W        W14918  37.987  17.190  11.866
51162W        W14919  23.662   8.315  11.895
51163W        W14920   7.346  33.047  12.424
51164W        W14921  22.514  39.021  12.913
51165W        W14922  25.667  43.927   4.668
51166W        W14923  10.750  41.941  14.997
51167W        W14924  41.351   9.733  11.885
51168W        W14925   4.717  17.243  11.861
51169W        W14926  44.805  12.689   1.795
51170W        W14927  38.412  39.389   4.839
51171W        W14928  11.343   4.310  12.933
51172W        W14929  35.418   3.839   3.261
51173W        W14930  44.834   7.394  12.082
51174W        W14931   3.791  10.697   3.856
51175W        W14932  36.486  44.450  11.027
51176W        W14933  36.441   4.756  14.792
51177W        W14934  18.076  25.171   1.339
51178W        W14935  13.273  35.985  12.979
51179W        W14936  18.240  33.883  13.349
51180W        W14937  22.562  41.829   3.837
51181W        W14938  19.281  13.240  11.962
51182W        W14939  25.166  27.161  14.332
51183W        W14940  37.884   1.318  11.499
51184W        W14941  27.593   3.433   2.853
51185W        W14942  42.878  17.304   5.126
51186W        W14943  15.223  25.009   3.655
51187W        W14944  27.167  28.129   0.318
51188W        W14945  34.551  16.730   4.648
51189W        W14946  15.805  23.061  14.917
51190W        W14947  18.686   6.798   1.762
51191W        W14948  25.038   3.409   1.879
51192W        W14949  21.167  36.466   1.902
51193W        W14950  37.080  19.068  14.337
51194W        W14951  12.698  41.877  13.457
51195W        W14952  35.554  23.166   0.799
51196W        W14953   0.814  27.001  13.885
51197W        W14954  34.923  24.079  14.944
51198W        W14955  11.821  26.133  14.924
51199W        W14956  35.589  10.361  14.468
51200W        W14957  23.592   2.877   2.240
51201W        W14958   7.385  29.919  14.955
51202W        W14959  19.255  19.760   3.246
51203W        W14960  13.339  36.427   4.747
51204W        W14961  17.787  11.772  10.141
51205W        W14962  35.971  37.578   1.805
51206W        W14963   0.989   8.320   0.363
51207W        W14964   0.982  23.091  12.445
51208W        W14965  36.436  43.850  13.913
51209W        W14966  31.441  26.205  14.902
51210W        W14967  41.974  26.090  13.051
51211W        W14968   9.795   2.924   3.668
51212W        W14969   0.407  32.092   1.308
51213W        W14970  17.610  43.853   3.773
51214W        W14971  39.437  34.386  14.515
51215W        W14972  11.156  17.246   2.891
51216W        W14973  33.517  21.103  12.490
51217W        W14974  38.370  41.872  13.997
51218W        W14975   4.291  42.875   1.756
51219W        W14976   6.839   1.328  13.999
51220W        W14977  29.978  29.509   1.392
51221W        W14978  18.052  33.991   2.847
51222W        W14979   6.181  13.628   3.733
51223W        W14980  37.074  24.724   1.765
51224W        W14981  17.137  21.180   1.739
51225W        W14982  27.960  16.678   3.733
51226W        W14983  32.535  32.530   1.718
51227W        W14984  38.016  27.978  10.073
51228W        W14985  41.516   1.240   3.346
51229W        W14986  24.639  28.601   4.633
51230W        W14987  38.336  13.684   0.818
51231W        W14988  10.701  27.155  12.071
51232W        W14989  26.582  31.976  10.010
51233W        W14990  33.596   8.800  13.492
51234W        W14991  32.556  43.376  14.362
51235W        W14992  14.683  43.020   5.273
51236W        W14993  15.746   4.793   2.327
51237W        W14994  22.726  28.148  11.577
51238W        W14995  17.276   0.965  14.888
51239W        W14996  14.727   0.262   1.285
51240W        W14997   1.879   2.817   2.809
51241W        W14998  26.566  26.657   4.246
51242W        W14999  40.973  40.897   3.646
51243W        W15000  22.669  37.950   3.709
51244W        W15001  11.711  34.871   5.241
51245W        W15002   2.823  28.567  12.376
51246W        W15003  10.800  38.937   4.654
51247W        W15004  28.963  18.568   4.807
51248W        W15005  13.116  12.834   4.217
51249W        W15006  13.680  34.414   2.252
51250W        W15007  38.944  15.286  10.995
51251W        W15008  32.099  37.013   1.843
51252W        W15009  19.221  36.932   0.276
51253W        W15010  17.105  22.117   0.755
51254W        W15011   5.914   4.725  12.893
51255W        W15012   3.786  22.159   0.834
51256W        W15013  16.800  29.568  12.057
51257W        W15014  21.151  39.560  14.968
51258W        W15015  38.343   6.247  14.932
51259W        W15016  21.751  41.036   2.311
51260W        W15017  12.273  34.890  11.888
51261W        W15018  37.411  33.436   4.292
51262W        W15019   9.720   8.369   0.344
51263W        W15020  25.156  26.024  11.457
51264W        W15021  22.580   6.421  10.939
51265W        W15022  44.786  37.570   4.166
51266W        W15023  15.088   3.385   4.647
51267W        W15024   2.383  32.430   2.217
51268W        W15025  39.906  36.865  14.886
51269W        W15026  44.859  11.217  11.494
51270W        W15027   0.385  13.758  10.613
51271W        W15028  35.380  35.937   0.883
51272W        W15029   5.894   9.724  13.060
51273W        W15030  43.944  42.317   2.403
51274W        W15031   2.356  36.573   4.241
51275W        W15032   2.346  22.218  14.317
51276W        W15033  25.990  34.089   4.618
51277W        W15034  16.796  18.068  12.823
51278W        W15035  16.237  34.904  11.096
51279W        W15036  17.660  11.652   0.469
51280W        W15037  30.505   1.929   1.234
51281W        W15038  15.296   4.344  11.001
51282W        W15039  37.960   5.205  12.521
51283W        W15040  20.119  27.028   4.313
51284W        W15041  29.545  44.806   3.146
51285W        W15042  15.756  26.983   2.717
51286W        W15043   6.190  30.645   0.348
51287W        W15044  16.244  41.484   0.477
51288W        W15045  44.428  11.356  11.999
51289W        W15046  18.266  14.098  12.526
51290W        W15047  17.117   9.658   4.730
51291W        W15048   0.822  18.229  11.384
51292W        W15049   4.322  38.473   4.179
51293W        W15050  21.525  42.357   4.189
51294W        W15051  11.372  43.765   2.704
51295W        W15052   0.915  21.171   0.768
51296W        W15053   6.399  25.993   2.880
51297W        W15054  23.226  10.871  12.083
51298W        W15055   2.760  39.427  14.857
51299W        W15056  39.381  14.655  11.106
51300W        W15057  23.212  43.833  11.957
51301W        W15058   5.901  23.565  11.898
51302W        W15059  17.646  42.356   4.196
51303W        W15060  44.388  44.783   9.958
51304W        W15061  44.480   8.394  11.004
51305W        W15062  24.030  32.445  10.958
51306W        W15063  31.990  26.160  14.958
51307W        W15064  19.538   7.744  13.891
51308W        W15065  44.975  42.282   2.292
51309W        W15066  15.290  44.758  12.368
51310W        W15067  11.323  29.499   1.739
51311W        W15068  23.594  28.540  14.019
51312W        W15069  26.020  15.085   4.825
51313W        W15070  35.441  20.047   4.148
51314W        W15071  22.695   5.924   3.755
51315W        W15072  39.398   1.241   4.308
51316W        W15073  17.084   3.736  12.562
51317W        W15074  34.015  20.178   3.726
51318W        W15075   7.390   3.738  12.940
51319W        W15076  37.354  34.872  14.477
51320W        W15077   6.831  28.679  14.460
51321W        W15078  14.698  20.748   4.194
51322W        W15079  11.224  34.460   0.248
51323W        W15080  32.454  14.309   1.819
51324W        W15081  33.487  43.286   2.359
51325W        W15082  32.398  11.748   1.851
51326W        W15083   9.678   1.303  10.606
51327W        W15084   4.216  30.486   0.407
51328W        W15085  37.058  28.043   2.715
51329W        W15086  38.898  16.133  13.832
51330W        W15087  35.542   8.211  12.344
51331W        W15088   9.203  23.676   2.178
51332W        W15089  21.642  18.274   4.792
51333W        W15090  43.401  30.920   3.288
51334W        W15091  19.690   2.855  14.415
51335W        W15092  31.626  20.634   2.718
51336W        W15093  24.634  30.988   0.448
51337W        W15094  31.595  13.158  14.884
51338W        W15095  19.692  18.125  14.397
51339W        W15096   9.221  35.488  10.600
51340W        W15097  25.649  33.531   0.245
51341W        W15098  39.914  43.400  11.556
51342W        W15099   8.838  44.977   2.744
51343W        W15100  24.183  21.206   2.852
51344W        W15101  33.968  16.247   0.881
51345W        W15102  12.708  31.092   2.402
51346W        W15103  30.128  38.341  12.460
51347W        W15104  26.149  28.534   0.914
51348W        W15105  14.625  18.701   1.420
51349W        W15106  37.337  21.131   1.749
51350W        W15107   9.373  12.242   1.924
51351W        W15108  39.990  38.354   0.925
51352W        W15109  33.026   9.715  13.548
51353W        W15110  30.483   5.221  10.936
51354W        W15111  34.957   9.315  11.055
51355W        W15112  43.818  11.199  11.451
51356W        W15113  18.144   7.393  12.081
51357W        W15114  39.832   2.407  11.568
51358W        W15115   8.380  19.257  12.478
51359W        W15116  38.371  24.620   3.711
51360W        W15117   0.827  41.819  12.027
51361W        W15118  25.560  38.915   4.751
51362W        W15119  43.505  30.089  14.968
51363W        W15120  37.038  22.664  11.904
51364W        W15121   5.296   7.268  11.556
51365W        W15122  30.032   1.938  12.574
51366W        W15123  31.071  14.208  11.516
51367W        W15124  24.017   0.486   2.699
51368W        W15125  23.150   6.766  14.397
51369W        W15126  25.154  37.962   4.200
51370W        W15127  14.248  43.415  14.506
51371W        W15128  33.485  26.640   0.449
51372W        W15129   4.716  32.612  12.357
51373W        W15130   2.785  28.121  10.642
51374W        W15131  35.601  41.926  14.504
51375W        W15132  16.137  27.000  12.543
51376W        W15133  41.888  26.134  11.998
51377W        W15134   2.963  21.588   1.305
51378W        W15135  32.080  22.611   4.158
51379W        W15136   3.404  25.594  14.946
51380W        W15137  11.251  28.102  13.516
51381W        W15138  12.766  12.231  12.387
51382W        W15139  41.374  20.168  12.030
51383W        W15140  40.439   4.902   2.307
51384W        W15141  24.492  32.917   1.886
51385W        W15142  25.644  44.001  10.468
51386W        W15143  18.110  37.024   2.357
51387W        W15144  34.043  13.235  12.849
51388W        W15145  38.552  32.436   0.873
51389W        W15146   8.785  22.551  10.633
51390W        W15147  35.406  14.785  14.396
51391W        W15148  13.717  17.306   3.366
51392W        W15149   2.430  37.488   3.270
51393W        W15150  26.190  14.157  13.811
51394W        W15151  33.876  26.010  10.564
51395W        W15152   5.924  42.398   1.320
51396W        W15153  26.085  28.982  10.634
51397W        W15154  38.425  44.913   4.272
51398W        W15155  12.269  32.429  11.482
51399W        W15156  29.005  26.504   0.481
51400W        W15157  35.974  13.291  13.015
51401W        W15158  17.716  24.161   1.435
51402W        W15159  41.002  15.614   2.825
51403W        W15160  12.657  24.016  13.940
51404W        W15161  35.061  42.912   1.367
51405W        W15162   5.316  43.331  12.060
51406W        W15163  19.083  40.893  11.497
51407W        W15164  14.651  18.759  13.400
51408W        W15165  29.987  43.988  10.436
51409W        W15166  21.043   0.922  14.356
51410W        W15167  14.653  10.804   1.282
51411W        W15168  36.359  32.006  12.007
51412W        W15169  20.079  31.986   2.248
51413W        W15170  18.091  26.176   2.413
51414W        W15171  16.575  41.455   3.323
51415W        W15172  32.918  41.392  14.955
51416W        W15173  34.985  37.857   1.872
51417W        W15174  14.650  38.337   0.447
51418W        W15175  22.635  10.802   1.399
51419W        W15176  30.909  25.625  10.466
51420W        W15177  14.259  43.838  11.945
51421W        W15178   7.807   9.755   1.796
51422W        W15179  34.560   6.418  11.578
51423W        W15180  41.336  43.381   1.785
51424W        W15181  21.082  37.003  11.563
51425W        W15182   1.959   6.704  14.310
51426W        W15183  11.804  40.976  12.523
51427W        W15184  31.976  15.615  12.095
51428W        W15185   0.329   3.860   4.672
51429W        W15186  35.397  11.159   0.333
51430W        W15187   4.890  21.233   0.955
51431W        W15188  23.652  44.792   0.251
51432W        W15189  10.674  23.650  14.376
51433W        W15190  15.256  24.501   2.180
51434W        W15191  42.398  10.345   3.717
51435W        W15192  36.017   8.764  13.488
51436W        W15193  37.356  39.843   0.731
51437W        W15194  40.414   7.405   0.729
51438W        W15195  17.655   7.176   2.295
51439W        W15196   4.211  22.709  14.328
51440W        W15197   5.336   0.857  14.979
51441W        W15198  41.410  38.955  11.103
51442W        W15199  40.367  44.804   2.358
51443W        W15200  25.118  13.138  12.082
51444W        W15201   7.757   3.434   1.225
51445W        W15202  24.141  25.048   2.381
51446W        W15203  38.364  34.446  12.419
51447W        W15204  15.164   9.178  10.998
51448W        W15205  43.805  10.692   0.446
51449W        W15206  38.487  36.470   4.680
51450W        W15207  44.773  17.590  10.910
51451W        W15208  24.067  42.301   3.729
51452W        W15209  18.112  36.066   1.904
51453W        W15210  15.802   6.330   0.351
51454W        W15211  21.096  39.986   1.731
51455W        W15212  17.235  15.133   3.186
51456W        W15213  25.484   3.927   3.661
51457W        W15214  43.826  28.467  14.423
51458W        W15215  40.932  37.009   3.230
51459W        W15216  19.164  19.280   0.817
51460W        W15217   8.403  41.519  12.428
51461W        W15218   6.844  44.301  13.409
51462W        W15219  10.808  31.537   3.156
51463W        W15220  14.095  34.566  10.992
51464W        W15221  13.196  22.679   2.272
51465W        W15222   5.247  38.393   4.311
51466W        W15223   7.330  36.433  13.890
51467W        W15224   8.860   0.788  13.897
51468W        W15225  27.611  31.023   2.198
51469W        W15226  39.907  21.649   1.899
51470W        W15227  23.051  35.434   0.262
51471W        W15228   3.240  16.099  14.515
51472W        W15229  11.235  39.932  14.971
51473W        W15230  33.560   9.717  11.986
51474W        W15231  12.708  43.788  10.610
51475W        W15232  35.978  22.584  12.004
51476W        W15233  10.344  39.964   2.341
51477W        W15234   8.728  39.317  12.512
51478W        W15235  11.184   8.714   3.286
51479W        W15236  21.139  40.980  11.037
51480W        W15237  21.188  34.449   3.337
51481W        W15238  14.681   8.196  13.977
51482W        W15239  39.977  32.411  11.521
51483W        W15240  19.687  18.762  13.344
51484W        W15241   1.901   2.884   2.360
51485W        W15242  23.670  27.173   0.476
51486W        W15243  36.563  20.265  11.076
51487W        W15244   7.751   6.910   3.680
51488W        W15245  23.017  13.297  11.984
51489W        W15246  32.025  18.683  13.503
51490W        W15247  32.625   7.390  11.944
51491W        W15248  26.681  25.468  11.060
51492W        W15249  30.912   2.782  11.089
51493W        W15250  26.055  37.421  11.970
51494W        W15251  10.288   7.689  12.390
51495W        W15252   7.187  23.094  12.457
51496W        W15253   5.236   5.818  11.405
51497W        W15254  17.747  37.042  14.021
51498W        W15255  21.661  12.164  13.930
51499W        W15256  21.166  13.107   0.894
51500W        W15257  41.954  43.890  11.990
51501W        W15258  29.658   5.334   2.815
51502W        W15259  32.910  28.019  10.921
51503W        W15260  14.589  37.548  11.888
51504W        W15261  28.003   5.216   0.885
51505W        W15262  21.205  33.926  13.342
51506W        W15263  14.731  13.253   1.332
51507W        W15264  28.057  19.574  10.619
51508W        W15265  28.930  26.143  14.966
51509W        W15266  25.082  29.524   0.932
51510W        W15267  35.893  16.160   1.301
51511W        W15268  41.959  42.517   1.824
51512W        W15269  10.219  44.300  11.496
51513W        W15270  28.946   9.694   1.439
51514W        W15271  33.021   7.324  10.453
51515W        W15272   5.915  24.596  14.342
51516W        W15273   2.313   2.856  12.549
51517W        W15274  33.982   4.876  12.463
51518W        W15275  11.185   5.703   4.138
51519W        W15276  42.309  25.668  10.404
51520W        W15277   2.767  31.984  14.821
51521W        W15278  40.541   4.361   0.385
51522W        W15279  44.387  37.338   5.209
51523W        W15280  26.066  26.513   2.698
51524W        W15281  27.117  37.895  13.795
51525W        W15282  36.067  33.120  13.484
51526W        W15283  36.561  28.159  10.528
51527W        W15284  31.467  24.064  14.883
51528W        W15285  34.477  12.176  13.371
51529W        W15286  35.108   1.339   2.418
51530W        W15287  11.206  22.744  11.516
51531W        W15288  17.303   9.307   3.736
51532W        W15289  11.129  39.808   2.256
51533W        W15290  15.153  37.552  13.529
51534W        W15291   4.858   5.294  14.359
51535W        W15292  23.207  33.982  11.024
51536W        W15293   5.877  15.697  11.008
51537W        W15294  17.586  31.542  11.583
51538W        W15295  32.517  12.620   3.803
51539W        W15296  29.033  44.924   1.694
51540W        W15297  31.143  17.239   3.152
51541W        W15298  10.384  17.133   3.324
51542W        W15299  43.349  18.575  13.984
51543W        W15300  12.221  34.483  12.930
51544W        W15301  32.585  20.142  10.417
51545W        W15302  20.103  33.950  11.439
51546W        W15303  16.773   6.708  14.485
51547W        W15304  10.236  35.101  11.381
51548W        W15305  31.960  42.433  11.989
51549W        W15306  36.590  13.104  13.987
51550W        W15307  27.988  29.158   2.777
51551W        W15308  27.656  11.804   2.790
51552W        W15309  36.394  43.786  11.511
51553W        W15310  26.182  10.768   0.400
51554W        W15311  19.740  26.970  10.489
51555W        W15312  31.071  24.211  14.005
51556W        W15313  40.960  29.612  10.466
51557W        W15314  13.229  41.897   2.772
51558W        W15315  42.455   7.764  12.511
51559W        W15316  25.979  11.719   0.458
51560W        W15317  42.018  12.650  14.808
51561W        W15318  19.144  35.945  14.397
51562W        W15319  37.551  11.665  14.866
51563W        W15320   7.873  22.175   3.293
51564W        W15321  12.126  35.441   0.467
51565W        W15322   1.814  43.004  11.000
51566W        W15323  37.044  36.502  13.864
51567W        W15324  27.125  30.654  11.055
51568W        W15325  13.239  11.343  12.467
51569W        W15326  38.037  20.165  11.497
51570W        W15327  36.431   8.187   2.200
51571W        W15328  32.983  18.631   2.705
51572W        W15329   1.777  31.455  12.031
51573W        W15330  22.674  12.251  11.557
51574W        W15331  19.592  38.547  14.805
51575W        W15332  29.636  13.690  13.394
51576W        W15333  33.914  34.479  12.009
51577W        W15334   6.267  30.160  11.109
51578W        W15335  16.307  29.495   4.251
51579W        W15336  35.031   7.705   2.744
51580W        W15337  39.988  42.451  11.108
51581W        W15338  36.842  35.049   2.687
51582W        W15339  20.555   8.374  11.109
51583W        W15340  38.864  42.409   3.165
51584W        W15341  35.502  32.134  11.590
51585W        W15342  14.138   2.954  14.405
51586W        W15343  34.088  16.168  11.956
51587W        W15344   1.804  43.893  11.426
51588W        W15345  43.387  32.057   5.275
51589W        W15346  26.615  14.723  13.505
51590W        W15347  15.734  41.413   1.828
51591W        W15348   8.828  39.909  10.563
51592W        W15349  19.061  11.232   3.317
51593W        W15350  44.453   8.179  10.430
51594W        W15351  42.973   5.397   0.329
51595W        W15352  32.558  39.423   4.327
51596W        W15353  16.701  11.247   4.603
51597W        W15354  10.191  21.113  11.867
51598W        W15355   9.847  14.211  14.505
51599W        W15356   4.734  13.623   1.703
51600W        W15357  27.015  20.558   9.923
51601W        W15358  40.462  18.210  13.313
51602W        W15359  31.068  33.528   4.797
51603W        W15360  16.666   7.364   4.670
51604W        W15361  30.586  27.615   2.704
51605W        W15362  24.639   2.748   4.267
51606W        W15363  44.843  39.827  12.350
51607W        W15364  27.963  38.920   0.312
51608W        W15365  40.420  41.527  14.925
51609W        W15366  40.326   2.263  11.895
51610W        W15367  12.235  12.272  14.956
51611W        W15368  29.641   2.782   1.774
51612W        W15369  30.466  18.733  13.800
51613W        W15370  37.035   9.220   1.771
51614W        W15371   0.825  38.832   1.897
51615W        W15372   2.351   5.782   4.346
51616W        W15373  19.645  31.093  13.444
51617W        W15374  20.702  22.604   1.827
51618W        W15375  18.181   2.966   1.399
51619W        W15376  11.281  15.642  13.528
51620W        W15377  19.748  19.211   0.353
51621W        W15378  36.579  11.261  10.503
51622W        W15379  16.090   5.792  13.351
51623W        W15380  34.564  27.129  11.512
51624W        W15381   3.313  12.702   4.128
51625W        W15382  23.218   1.937   1.392
51626W        W15383  17.294  18.754   5.297
51627W        W15384  36.036  44.433   2.371
51628W        W15385   6.239  18.196   4.645
51629W        W15386  26.978  13.106  14.873
51630W        W15387  28.133  14.723  14.362
51631W        W15388  14.183  11.833  14.883
51632W        W15389   6.844  37.061  11.055
51633W        W15390  38.918  16.678   2.244
51634W        W15391   5.388  34.450   4.796
51635W        W15392  10.242  13.167  12.052
51636W        W15393  42.834  10.366  11.442
51637W        W15394  20.738  18.717   1.312
51638W        W15395  42.294  18.132   2.760
51639W        W15396  14.152  38.437   4.215
51640W        W15397   4.417  44.300   3.775
51641W        W15398  28.082  26.069   2.677
51642W        W15399  24.624  32.896   3.852
51643W        W15400  13.189  28.974  14.982
51644W        W15401  25.619   2.774   3.635
51645W        W15402  25.216   1.360  11.920
51646W        W15403  21.152   6.374   0.762
51647W        W15404   7.858  42.374   2.252
51648W        W15405  35.864  21.632   4.623
51649W        W15406  36.974  37.916   2.190
51650W        W15407   3.742  11.760  14.859
51651W        W15408  16.117  24.118   2.826
51652W        W15409  19.576  22.736  11.961
51653W        W15410  25.522  22.143   1.929
51654W        W15411  18.286  24.103  13.456
51655W        W15412   0.411   4.748  13.790
51656W        W15413  34.000  12.155   0.792
51657W        W15414  22.699  10.326  14.383
51658W        W15415  14.623  28.650   1.358
51659W        W15416  15.306  31.648   4.674
51660W        W15417  39.340  20.713  11.436
51661W        W15418  13.715  14.322  10.536
51662W        W15419   6.329  42.435   2.823
51663W        W15420  36.379  37.383   3.858
51664W        W15421  30.124   8.401   0.477
51665W        W15422  32.518  35.941   0.757
51666W        W15423  29.448  39.326   1.315
51667W        W15424  32.511  20.090  13.873
51668W        W15425  29.967  24.079   4.180
51669W        W15426  44.432  10.187  14.291
51670W        W15427   0.953  40.922   0.375
51671W        W15428  15.812  28.950  12.414
51672W        W15429  23.091  34.118   5.300
51673W        W15430  43.987  39.850  14.909
51674W        W15431  40.897   0.322   2.702
51675W        W15432  36.899  33.606   0.387
51676W        W15433  31.511  22.568  14.768
51677W        W15434  33.033  25.171  12.399
51678W        W15435  34.534  14.146  10.438
51679W        W15436  17.163  15.748   0.473
51680W        W15437  20.111  28.530  12.026
51681W        W15438  34.078  22.026   4.720
51682W        W15439  12.167   1.933  11.075
51683W        W15440   2.376   8.748   1.327
51684W        W15441   6.407  38.006   4.130
51685W        W15442  44.914  40.501  11.931
51686W        W15443  20.584  31.429   1.855
51687W        W15444   3.293   8.703   1.705
51688W        W15445   8.242  39.902   5.579
51689W        W15446  32.426   2.893  11.907
51690W        W15447  32.628  32.593   0.817
51691W        W15448  11.779  12.701  13.491
51692W        W15449  22.526   6.688  10.642
51693W        W15450  43.502  18.781  10.040
51694W        W15451  39.399  42.003  14.887
51695W        W15452  27.605  43.770  11.918
51696W        W15453   6.373  32.950  13.334
51697W        W15454  16.638  36.435   1.874
51698W        W15455   0.762  38.399   3.204
51699W        W15456  36.907  19.723  10.933
51700W        W15457  38.912  42.404  14.503
51701W        W15458   0.255  25.608  10.901
51702W        W15459  15.308  26.658  13.936
51703W        W15460  41.381   8.890  14.963
51704W        W15461  21.623  38.970   0.840
51705W        W15462  31.126  13.735  13.423
51706W        W15463  29.925  17.688  10.007
51707W        W15464  38.526  39.377   1.773
51708W        W15465  16.631  41.453   1.415
51709W        W15466   0.369  17.100  14.456
51710W        W15467  24.566  12.726  10.430
51711W        W15468  23.598  40.400   2.417
51712W        W15469  14.171  26.059   2.707
51713W        W15470  20.597   6.273   1.907
51714W        W15471  15.122  42.797  10.050
51715W        W15472  21.172  32.935   0.836
51716W        W15473   9.235  44.791  12.514
51717W        W15474  22.687  42.865  13.338
51718W        W15475  18.617  27.567   0.781
51719W        W15476  11.188  26.591  11.963
51720W        W15477  33.496  28.102   4.598
51721W        W15478  40.897   6.737   0.275
51722W        W15479  12.699   0.836   1.779
51723W        W15480  37.443  19.069   3.341
51724W        W15481  24.626  13.624   3.330
51725W        W15482   3.324   1.427   4.160
51726W        W15483  43.978  30.654  11.968
51727W        W15484  22.199  31.493  13.436
51728W        W15485  28.455  35.595  14.331
51729W        W15486  26.167  35.923  13.031
51730W        W15487  38.357  10.754   0.297
51731W        W15488   2.920   2.821  11.978
51732W        W15489  42.918  22.007  10.995
51733W        W15490  16.237  34.382  14.820
51734W        W15491  10.332  40.525   3.835
51735W        W15492  39.386  44.472   3.257
51736W        W15493  15.824  11.754  13.947
51737W        W15494  21.038  33.404  14.874
51738W        W15495  30.485  28.467   5.261
51739W        W15496  11.817  30.065  13.998
51740W        W15497  43.956  44.991   0.399
51741W        W15498  11.161  42.514   0.854
51742W        W15499   9.670  32.118   4.661
51743W        W15500  12.214  19.146  11.481
51744W        W15501  14.212  39.985  10.103
51745W        W15502  34.481   8.860   4.275
51746W        W15503  43.511   2.943  14.327
51747W        W15504  44.321  35.003   4.768
51748W        W15505  27.674  16.697   1.403
51749W        W15506  22.623  33.931  13.931
51750W        W15507  34.479  39.344   0.728
51751W        W15508  15.219  17.765  13.049
51752W        W15509   7.174  25.119  10.955
51753W        W15510  44.772  21.086  14.773
51754W        W15511  21.550  13.315  11.607
51755W        W15512  30.155  41.820   2.838
51756W        W15513   0.764  23.717   3.708
51757W        W15514   0.958  12.705  13.426
51758W        W15515  25.655   7.853   4.314
51759W        W15516  39.318  15.148   0.935
51760W        W15517  19.606  17.639   0.965
51761W        W15518   7.726  38.854   1.390
51762W        W15519   4.265  32.001  10.891
51763W        W15520  23.193  38.373   0.901
51764W        W15521   8.682   8.877   0.316
51765W        W15522  29.660  24.565  10.504
51766W        W15523  11.732  18.055  11.062
51767W        W15524  38.916   6.415   3.768
51768W        W15525  32.897   8.266   4.823
51769W        W15526  14.288  34.064  13.922
51770W        W15527  29.157  22.668   9.549
51771W        W15528  16.806   6.776  13.422
51772W        W15529  28.591  16.146   0.766
51773W        W15530  26.540  18.582  12.856
51774W        W15531  16.183  17.743   3.384
51775W        W15532  43.425  18.720   2.240
51776W        W15533  32.947  11.255  13.836
51777W        W15534   0.324   0.804  12.961
51778W        W15535  18.218  14.715  14.865
51779W        W15536  17.130  16.312  14.785
51780W        W15537  26.119   4.927   1.367
51781W        W15538  21.750  24.706   1.869
51782W        W15539  33.569  23.505  11.553
51783W        W15540  36.407  32.065   4.640
51784W        W15541  41.817   9.841   4.815
51785W        W15542  41.002  18.696   1.734
51786W        W15543   8.297  26.025   3.701
51787W        W15544  35.536  40.054  14.334
51788W        W15545  19.716  21.582  10.590
51789W        W15546  38.373  40.904   1.347
51790W        W15547  44.493  30.474  12.871
51791W        W15548  41.444  32.589  14.365
51792W        W15549  23.011  31.424   1.338
51793W        W15550  20.613  38.919   4.289
51794W        W15551   1.739  34.381   1.748
51795W        W15552   0.783  19.200  13.967
51796W        W15553   0.805  31.580   2.737
51797W        W15554  28.478  31.593  12.481
51798W        W15555  36.090  20.549  11.935
51799W        W15556  39.334  33.989   3.325
51800W        W15557  36.853  21.128   4.281
51801W        W15558  12.269   5.293   1.893
51802W        W15559  37.018  17.617   2.887
51803W        W15560  37.381  15.291   1.735
51804W        W15561  34.897  28.981   3.203
51805W        W15562  17.149  37.042  12.986
51806W        W15563   5.328   8.402  11.907
51807W        W15564   0.276   9.798  14.337
51808W        W15565   8.849   5.707  13.890
51809W        W15566  13.105  17.288   1.935
51810W        W15567  34.398  13.801  12.993
51811W        W15568  36.383  20.595  14.921
51812W        W15569   6.782  35.090   3.370
51813W        W15570  25.115  14.150  10.083
51814W        W15571  34.026   5.708   1.350
51815W        W15572  10.225   4.338   4.830
51816W        W15573  25.680  17.594  13.051
51817W        W15574   1.773  44.785   0.465
51818W        W15575  37.423   8.351  10.515
51819W        W15576   9.162  40.417  13.455
51820W        W15577   1.776   2.298   1.916
51821W        W15578   8.665  17.664   3.180
51822W        W15579   6.785   7.326  14.986
51823W        W15580  39.850   8.820   2.854
51824W        W15581  26.689  19.285  14.940
51825W        W15582  35.586  11.187  14.421
51826W        W15583   1.310  25.210  10.549
51827W        W15584  18.194  35.376  10.582
51828W        W15585  42.852  18.751   1.823
51829W        W15586  40.018  17.705  11.947
51830W        W15587  10.255  21.103  10.038
51831W        W15588  22.039  21.696  13.981
51832W        W15589  33.056  37.529  11.602
51833W        W15590  11.176  20.589  13.461
51834W        W15591  18.225   8.872  11.543
51835W        W15592  35.887  22.676   3.222
51836W        W15593  18.557  29.925  12.480
51837W        W15594  37.394  43.809   1.251
51838W        W15595  21.562   2.840   3.865
51839W        W15596  19.588   9.289   4.279
51840W        W15597  42.795  35.856  10.904
51841W        W15598  42.427  23.176   2.296
51842W        W15599   9.736  15.125  13.049
51843W        W15600  24.075   9.847  11.106
51844W        W15601  18.160  32.925   2.190
51845W        W15602   5.232   1.821   0.249
51846W        W15603  27.074  13.158  12.905
51847W        W15604  11.666   1.840  13.363
51848W        W15605  30.000  27.632   3.700
51849W        W15606  35.424  12.262   1.775
51850W        W15607  44.830  43.781  14.805
51851W        W15608   2.313  31.971   2.826
51852W        W15609  29.963  30.589   3.240
51853W        W15610   3.289  13.738  10.975
51854W        W15611  36.573   7.248  13.380
51855W        W15612  40.846   6.855   3.714
51856W        W15613  41.438   7.408   2.828
51857W        W15614  36.468  22.091  14.396
51858W        W15615  37.070  11.823   3.211
51859W        W15616  20.558   3.452   2.372
51860W        W15617   0.432  20.525   0.401
51861W        W15618  19.212   8.302   2.824
51862W        W15619  16.149  11.171  14.766
51863W        W15620  23.228  34.004   9.543
51864W        W15621  15.780  12.334  11.587
51865W        W15622   9.821   9.813  11.599
51866W        W15623   8.236  30.451   1.244
51867W        W15624  43.996  23.025   2.788
51868W        W15625   8.250   8.667   2.214
51869W        W15626  32.934   1.854  10.567
51870W        W15627   9.374  44.819  11.115
51871W        W15628  44.944  20.555   4.745
51872W        W15629  26.581   8.720  13.842
51873W        W15630  36.087   1.737   1.767
51874W        W15631  20.753  12.305  14.857
51875W        W15632  15.299  18.073  11.428
51876W        W15633  38.383  33.909   2.747
51877W        W15634  30.911   9.761  12.997
51878W        W15635  22.107  41.328  13.967
51879W        W15636   2.248  12.721  11.383
51880W        W15637  18.575  24.598   3.370
51881W        W15638  22.512  33.389   4.720
51882W        W15639   8.688  27.157   3.764
51883W        W15640  24.573  24.663  11.086
51884W        W15641  20.613  41.997  14.879
51885W        W15642  27.186  37.073   2.283
51886W        W15643  43.280  39.847   4.165
51887W        W15644  40.523  17.650  13.937
51888W        W15645  38.427  27.142   0.918
51889W        W15646  27.524   3.424   4.641
51890W        W15647  23.164   4.421   2.211
51891W        W15648  27.006   5.894   1.262
51892W        W15649  41.326   6.197  12.422
51893W        W15650  33.589  21.615  12.907
51894W        W15651   5.716  34.455  11.044
51895W        W15652  44.305  34.966   2.679
51896W        W15653  14.265   6.250   2.726
51897W        W15654  14.129  43.476  12.556
51898W        W15655  43.960  28.000   1.338
51899W        W15656  33.617  12.169  14.302
51900W        W15657   0.300  36.020   1.399
51901W        W15658  18.651   5.927  13.353
51902W        W15659  28.135  37.433  14.413
51903W        W15660  40.851  17.076   0.246
51904W        W15661   8.850   3.216   4.171
51905W        W15662  40.026  38.512   3.154
51906W        W15663  42.314  13.186   0.734
51907W        W15664  16.682  39.935  13.879
51908W        W15665  15.735  33.568   1.852
51909W        W15666   6.263  42.867   1.261
51910W        W15667  31.123  42.787  10.891
51911W        W15668  28.448  37.954  14.331
51912W        W15669  39.398  26.182  14.918
51913W        W15670  14.106  24.152  12.453
51914W        W15671  22.745  25.651  14.395
51915W        W15672   4.378  23.107  14.858
51916W        W15673  41.847  35.412   3.709
51917W        W15674  17.190  33.465   3.652
51918W        W15675  40.020  29.482  13.513
51919W        W15676   8.274  25.519  14.362
51920W        W15677  28.162  41.910   3.637
51921W        W15678  35.469   7.281  13.385
51922W        W15679  42.452  19.538  11.921
51923W        W15680  22.582  38.418  10.428
51924W        W15681  22.098  25.115   1.886
51925W        W15682  14.309  21.706   2.191
51926W        W15683  39.033   5.774  10.155
51927W        W15684  35.552  17.221  12.351
51928W        W15685  22.602   1.925   0.268
51929W        W15686  12.312  44.854  11.088
51930W        W15687  39.829  26.691   0.349
51931W        W15688  24.665  26.527   1.312
51932W        W15689  28.582  19.636   0.773
51933W        W15690  35.920  31.580  12.065
51934W        W15691  44.493  24.120  13.467
51935W        W15692  41.454   4.919   0.391
51936W        W15693  23.053  37.916  12.068
51937W        W15694   4.814  23.552  12.990
51938W        W15695  24.507  38.376  14.399
51939W        W15696   7.222   1.282  10.565
51940W        W15697   4.810  44.354   0.817
51941W        W15698   2.817  17.591   2.758
51942W        W15699  18.566  24.634  13.802
51943W        W15700  44.501  43.948   3.155
51944W        W15701   4.420  44.446   0.246
51945W        W15702  40.328  29.644   0.957
51946W        W15703  15.631  44.421   3.724
51947W        W15704  12.779  28.457   2.385
51948W        W15705  23.634  25.192  13.327
51949W        W15706   2.463   6.681   0.890
51950W        W15707  10.770  24.121   1.344
51951W        W15708  27.624   0.851   0.359
51952W        W15709   9.714  23.140   0.390
51953W        W15710   2.794  36.007   3.160
51954W        W15711  35.371  44.483  14.776
51955W        W15712  25.073  41.933   4.737
51956W        W15713   4.362   5.848  13.950
51957W        W15714   1.449  18.764   3.272
51958W        W15715  29.469   1.952   2.865
51959W        W15716  32.025  39.439  13.335
51960W        W15717  20.713  16.134   3.697
51961W        W15718   1.908  21.752   0.753
51962W        W15719  25.101  33.432   2.885
51963W        W15720  30.650  30.962  13.822
51964W        W15721  22.219   3.236  14.789
51965W        W15722  30.027   8.271   2.405
51966W        W15723   9.868  42.433  10.563
51967W        W15724   1.405  21.143   3.709
51968W        W15725  23.616  42.802  12.431
51969W        W15726  29.163  29.535   2.293
51970W        W15727  44.260  16.667  14.927
51971W        W15728  25.573  35.075  12.531
51972W        W15729  21.234   6.736   4.791
51973W        W15730  21.737  37.934  12.969
51974W        W15731  10.283  10.827  12.997
51975W        W15732  23.574  27.043  10.466
51976W        W15733   2.768  42.357   0.287
51977W        W15734  33.433  13.168   2.272
51978W        W15735  38.838  20.649   2.239
51979W        W15736   5.865   6.736   1.892
51980W        W15737  28.011  31.523   1.734
51981W        W15738  30.036  19.090   4.836
51982W        W15739  14.739  40.372   4.624
51983W        W15740   9.329  37.030   4.639
51984W        W15741  10.746   6.821   3.366
51985W        W15742  22.251  31.615   0.282
51986W        W15743  27.001  33.380   0.728
51987W        W15744  39.891   6.844  11.961
51988W        W15745  29.975  42.981   4.250
51989W        W15746   4.737  38.555  14.976
51990W        W15747  22.730   7.364  10.123
51991W        W15748  33.032  37.956   2.821
51992W        W15749  44.002  22.121   2.370
51993W        W15750   0.422  25.015   2.690
51994W        W15751  36.975   1.298  11.024
51995W        W15752  14.232  38.022   0.789
51996W        W15753  25.609  28.441   0.462
51997W        W15754   9.168  20.171   3.195
51998W        W15755  20.184  42.342  12.359
51999W        W15756  20.752  21.048   4.332
52000W        W15757  19.084  15.153  10.963
52001W        W15758  21.244  20.530   0.731
52002W        W15759  22.081   8.205   3.380
52003W        W15760  26.181   2.731   4.788
52004W        W15761  18.560   6.702   3.801
52005W        W15762   3.915  16.237  11.923
52006W        W15763  21.052  24.041   0.366
52007W        W15764  36.891  22.139  13.492
52008W        W15765   0.334   3.353  13.012
52009W        W15766   1.332  42.459  13.817
52010W        W15767  42.817  10.638   2.825
52011W        W15768  16.668  41.858   0.285
52012W        W15769  11.731  30.575   3.163
52013W        W15770  16.806  27.657   1.356
52014W        W15771   3.715  22.122   4.287
52015W        W15772  26.180  32.575  11.495
52016W        W15773   1.242  10.281   0.934
52017W        W15774  23.604   9.871  10.467
52018W        W15775  36.411  22.515  12.516
52019W        W15776  10.301  42.811  10.016
52020W        W15777   8.246  13.169  10.981
52021W        W15778   2.809   2.727  10.981
52022W        W15779  20.644   5.780   0.772
52023W        W15780  38.048  12.676   4.620
52024W        W15781  26.489  24.164   0.333
52025W        W15782   4.320   7.225  13.507
52026W        W15783   1.242  10.866   4.648
52027W        W15784  41.014  35.898  14.844
52028W        W15785  21.117  39.833   2.198
52029W        W15786  30.588  29.052  14.511
52030W        W15787  31.480   5.429  12.482
52031W        W15788  41.856  12.627   2.386
52032W        W15789  14.267  17.588   2.868
52033W        W15790  29.029   8.757   3.319
52034W        W15791  41.348  30.915  13.319
52035W        W15792  43.924  10.233   0.836
52036W        W15793  39.825   5.841  12.427
52037W        W15794  32.494  14.827  14.882
52038W        W15795  31.586  32.498   3.286
52039W        W15796  13.719  14.608   2.772
52040W        W15797   0.434  21.688   3.726
52041W        W15798  24.034  41.028   1.851
52042W        W15799  28.187  10.756   2.826
52043W        W15800  17.095  24.082  11.895
52044W        W15801  21.224  24.516   2.231
52045W        W15802  38.530  41.040   2.323
52046W        W15803  44.313  34.494   4.803
52047W        W15804  15.696  26.501   3.710
52048W        W15805  36.580  14.171   1.236
52049W        W15806  34.061  11.220  14.846
52050W        W15807   9.380   1.852   0.928
52051W        W15808  21.210  36.590   2.709
52052W        W15809  41.028  13.711  11.036
52053W        W15810  26.630  24.215  10.951
52054W        W15811  24.158   4.917   1.854
52055W        W15812  31.921  36.354  13.969
52056W        W15813  11.372  36.422   3.248
52057W        W15814  24.669  37.856   4.807
52058W        W15815  42.946  35.972   0.782
52059W        W15816  10.338  30.069   1.375
52060W        W15817  29.614   0.459  13.539
52061W        W15818  26.000  28.962   3.753
52062W        W15819  14.730  14.704   1.856
52063W        W15820  39.942  24.604   1.922
52064W        W15821  10.660  35.409   0.314
52065W        W15822  34.870  44.446  14.508
52066W        W15823  35.058   1.440   2.665
52067W        W15824   5.264  16.745  14.004
52068W        W15825   7.236  18.185  14.845
52069W        W15826  10.306  16.644   4.162
52070W        W15827  44.993  37.954  13.045
52071W        W15828  33.615   9.703  12.856
52072W        W15829   0.981   2.340   2.821
52073W        W15830  14.320  13.311   0.390
52074W        W15831  37.859  13.331  13.472
52075W        W15832  31.631  34.376  11.058
52076W        W15833  30.511  12.825   3.297
52077W        W15834  23.030   9.361   0.440
52078W        W15835  24.534  42.515  13.038
52079W        W15836  10.686  32.922   2.250
52080W        W15837   0.812   8.677   2.238
52081W        W15838  39.892  10.274   3.348
52082W        W15839   5.695   2.771   4.767
52083W        W15840  24.651  12.706   3.342
52084W        W15841  35.590  33.034  11.859
52085W        W15842  35.020   1.328  13.352
52086W        W15843  41.479  42.372  12.402
52087W        W15844   0.806  36.476  12.058
52088W        W15845  26.640  28.988   0.365
52089W        W15846  33.552   9.868  10.413
52090W        W15847  41.787   8.697   5.322
52091W        W15848  10.832  22.122  14.323
52092W        W15849  40.521   3.913   5.187
52093W        W15850  22.730  18.766   3.275
52094W        W15851  25.990  25.626  11.558
52095W        W15852   1.479   4.840   4.697
52096W        W15853  14.697  30.568   3.337
52097W        W15854  27.559  35.498  12.999
52098W        W15855  22.135  20.072  14.819
52099W        W15856  31.905   4.373  12.965
52100W        W15857   2.849  10.699  10.583
52101W        W15858  29.540  22.746   0.247
52102W        W15859  38.974  19.648  13.345
52103W        W15860   1.822  11.751  12.824
52104W        W15861   5.389  33.608   4.270
52105W        W15862  16.806  43.331  12.346
52106W        W15863  14.717  36.563  10.543
52107W        W15864  21.067   3.327   0.833
52108W        W15865  28.552  41.884  13.372
52109W        W15866  25.511  42.463  12.547
52110W        W15867  12.740  17.758  12.951
52111W        W15868   8.396   4.710   3.322
52112W        W15869   4.794  43.445  12.526
52113W        W15870  41.941  23.207   1.839
52114W        W15871  42.520  31.644  13.395
52115W        W15872  10.800  42.793   0.350
52116W        W15873  10.334  14.154   2.887
52117W        W15874  27.464  13.309  12.878
52118W        W15875  24.709  13.639   0.916
52119W        W15876  12.201  10.239   4.696
52120W        W15877  24.616  10.877   4.133
52121W        W15878  26.961   7.355   2.328
52122W        W15879   4.242  28.635   0.395
52123W        W15880  30.018   9.870  12.047
52124W        W15881  29.442  34.080   2.892
52125W        W15882  13.684  40.802   0.258
52126W        W15883  23.604   3.231   0.353
52127W        W15884  44.445  29.012   2.891
52128W        W15885  15.244  38.544   4.800
52129W        W15886  32.482  15.773   0.414
52130W        W15887  16.208  16.787  12.435
52131W        W15888   8.392   0.747  11.967
52132W        W15889   4.443  37.479   4.169
52133W        W15890   6.386  13.844   0.414
52134W        W15891   5.417   6.746   0.828
52135W        W15892  24.987  25.698  11.555
52136W        W15893  28.122  44.460  10.910
52137W        W15894  40.911  19.682  13.889
52138W        W15895  28.494  41.923   4.277
52139W        W15896  32.556  17.748   3.324
52140W        W15897   6.382  25.628  11.613
52141W        W15898  22.639  36.054  11.450
52142W        W15899  43.838  12.243   0.314
52143W        W15900   1.868   8.878  12.394
52144W        W15901  41.859  15.233  11.906
52145W        W15902  14.179  27.668   1.909
52146W        W15903  22.188  11.352   4.320
52147W        W15904   1.781  15.628   2.286
52148W        W15905  20.240  16.725  11.122
52149W        W15906  12.673  13.738  11.486
52150W        W15907  29.495  16.131  12.007
52151W        W15908  34.867  22.108  14.804
52152W        W15909  12.654   1.417   2.827
52153W        W15910  43.429  33.022  10.567
52154W        W15911  25.662  34.428  13.877
52155W        W15912  26.148  27.104   0.383
52156W        W15913  10.280  21.157  14.912
52157W        W15914  37.476   0.888  11.031
52158W        W15915  36.348   1.277  13.889
52159W        W15916  41.348  19.660  10.900
52160W        W15917  26.970  43.464  10.531
52161W        W15918   7.361   8.219   0.950
52162W        W15919  39.022   5.887   0.912
52163W        W15920  24.702   9.661   2.735
52164W        W15921  39.539   0.396  11.463
52165W        W15922   2.720  20.653   1.839
52166W        W15923  12.615  23.028   2.888
52167W        W15924  43.495  38.060  10.441
52168W        W15925  17.062  34.396  12.565
52169W        W15926   5.757  34.376  14.018
52170W        W15927  44.308  11.286   3.829
52171W        W15928   2.954  20.607   3.794
52172W        W15929  25.154  42.951   3.871
52173W        W15930  34.982  23.533   4.332
52174W        W15931  33.064  14.128   0.303
52175W        W15932  10.371  34.056  13.905
52176W        W15933  29.170  43.504   1.808
52177W        W15934  36.451  40.815  11.446
52178W        W15935  18.238  27.593   1.934
52179W        W15936  32.597   0.292  12.904
52180W        W15937   0.412  29.435  11.958
52181W        W15938   2.417  15.711  12.370
52182W        W15939  25.015  29.961   1.848
52183W        W15940  10.709   2.854   0.806
52184W        W15941   6.781   1.257   3.330
52185W        W15942  19.684  44.882   2.181
52186W        W15943  33.615  34.071  11.059
52187W        W15944  28.484   0.436  12.008
52188W        W15945  16.251  22.182  11.033
52189W        W15946  18.716  42.499   1.874
52190W        W15947  29.168  35.391   2.774
52191W        W15948  27.053  24.592   0.362
52192W        W15949  42.006   6.919  14.372
52193W        W15950  32.134  37.989  12.560
52194W        W15951  15.776   1.881   4.613
52195W        W15952  33.617  30.427   1.881
52196W        W15953  17.570   8.185  14.476
52197W        W15954   6.889  13.715   3.179
52198W        W15955  16.226  42.519   2.832
52199W        W15956  12.700  35.936   0.477
52200W        W15957  30.971  39.050   4.745
52201W        W15958  41.879  17.245  14.342
52202W        W15959  29.087  10.339  11.975
52203W        W15960   5.922   1.364   2.682
52204W        W15961  25.011  10.298  12.382
52205W        W15962  42.421  38.035  11.077
52206W        W15963   3.450  17.245   2.321
52207W        W15964  29.551  20.238   0.938
52208W        W15965  42.514   4.231  11.526
52209W        W15966  39.066  18.698   4.805
52210W        W15967  24.216  22.037  14.929
52211W        W15968  44.336   7.770   1.695
52212W        W15969   5.291  14.687   2.872
52213W        W15970  36.353  17.222  13.987
52214W        W15971  12.708  42.296  13.328
52215W        W15972  36.006  35.888   0.339
52216W        W15973  14.653  24.194   0.939
52217W        W15974  29.935  44.451  13.801
52218W        W15975  27.454  18.745  14.791
52219W        W15976  37.371  29.572  11.884
52220W        W15977  22.006  39.357  10.917
52221W        W15978  13.817  25.183  13.497
52222W        W15979  34.073  17.725  14.882
52223W        W15980   6.348  10.342   0.768
52224W        W15981  23.668   7.856  11.462
52225W        W15982   6.859  32.013   0.248
52226W        W15983  22.080  13.797   1.418
52227W        W15984  22.060   8.836   4.731
52228W        W15985  43.001  30.058  11.443
52229W        W15986   0.457  37.554   0.315
52230W        W15987  20.677  26.480   1.871
52231W        W15988  20.041  33.957   3.231
52232W        W15989  18.205  23.556  14.026
52233W        W15990  26.478   9.838   5.235
52234W        W15991  35.448   2.893   1.412
52235W        W15992  27.577  28.554   2.859
52236W        W15993  10.746  35.048  11.996
52237W        W15994   0.823   4.776   4.289
52238W        W15995   9.252  15.245  13.887
52239W        W15996  23.177  30.042  12.476
52240W        W15997  30.035  31.641   0.813
52241W        W15998   1.458  12.165   4.661
52242W        W15999  10.204  19.682  10.027
52243W        W16000  16.695   3.940  12.497
52244W        W16001  33.121  20.696   3.779
52245W        W16002  42.421  20.628   3.650
52246W        W16003   0.846  32.997   0.409
52247W        W16004  19.658   2.365  11.494
52248W        W16005  16.197   0.893   4.170
52249W        W16006  19.150  31.000   3.261
52250W        W16007  21.520   8.237  11.479
52251W        W16008  14.689  14.194  13.407
52252W        W16009  41.518  39.013   3.744
52253W        W16010  42.935  18.676  11.885
52254W        W16011   6.751  14.235   1.234
52255W        W16012   8.874  35.919   4.277
52256W        W16013  44.789  31.130   2.246
52257W        W16014  44.313  23.093   4.644
52258W        W16015   9.674   9.702  10.507
52259W        W16016  44.276   2.769   4.337
52260W        W16017   5.702  39.490  13.471
52261W        W16018   7.233  31.417  12.005
52262W        W16019   8.330  40.399   4.783
52263W        W16020   6.842  23.686   1.786
52264W        W16021   1.466  42.289  14.968
52265W        W16022  24.975   7.681  14.770
52266W        W16023  42.496   9.329   2.730
52267W        W16024  23.659  24.189   3.242
52268W        W16025  23.539   0.952  12.953
52269W        W16026  39.317   1.778  11.058
52270W        W16027  20.052  24.122   4.629
52271W        W16028  22.150  12.213   0.904
52272W        W16029  24.200  20.114   0.253
52273W        W16030  28.582  30.042   4.168
52274W        W16031   9.297  25.990  14.779
52275W        W16032  15.084  39.453  12.498
52276W        W16033  11.218  42.818   4.245
52277W        W16034  11.189  18.222  10.603
52278W        W16035  25.159  36.081   2.881
52279W        W16036  17.764  19.587  13.309
52280W        W16037  19.748  19.263  11.995
52281W        W16038  35.366  39.327   2.382
52282W        W16039  16.092  10.179   4.734
52283W        W16040  36.523  22.618   3.362
52284W        W16041   3.277   8.393   0.332
52285W        W16042  27.043  32.941   2.858
52286W        W16043  23.090  12.787  13.358
52287W        W16044   2.755  40.946  13.497
52288W        W16045  16.301  24.485   3.799
52289W        W16046  21.657  39.352   3.759
52290W        W16047  42.006  37.842   2.259
52291W        W16048  29.537   7.666  13.914
52292W        W16049  21.567  29.556  13.872
52293W        W16050  40.533   3.268  10.593
52294W        W16051  41.345  31.570  10.468
52295W        W16052  44.452  38.328  13.498
52296W        W16053   3.796  20.578  14.831
52297W        W16054  17.774   2.837  13.504
52298W        W16055  34.582  38.008  11.041
52299W        W16056  33.061  32.939  14.782
52300W        W16057  33.447  38.532   0.381
52301W        W16058  38.900  36.488   3.249
52302W        W16059  40.894  14.328  13.903
52303W        W16060  11.840  26.201   2.246
52304W        W16061   5.311  25.099  11.578
52305W        W16062  42.405  25.569   2.842
52306W        W16063   2.945   7.334   3.176
52307W        W16064  16.098   6.758  12.945
52308W        W16065  23.520  41.020  12.908
52309W        W16066  38.343  25.661   4.235
52310W        W16067  34.936   9.839  12.529
52311W        W16068   4.762  35.089   4.729
52312W        W16069  10.820  34.017   3.807
52313W        W16070   6.267  36.977   2.760
52314W        W16071  38.387  44.813   2.407
52315W        W16072  44.939  10.719  14.341
52316W        W16073  16.750  33.612  11.091
52317W        W16074  12.122  27.666   0.921
52318W        W16075  27.512  10.154   4.761
52319W        W16076  15.806  26.559  13.431
52320W        W16077  23.691  30.054   0.871
52321W        W16078  11.326  31.422   1.434
52322W        W16079   4.937  13.145   2.348
52323W        W16080  24.523  41.317  14.383
52324W        W16081  27.963   7.835   1.323
52325W        W16082  18.211  43.895   4.159
52326W        W16083  30.076  34.613  12.894
52327W        W16084  14.177  29.945  14.372
52328W        W16085  23.103  39.010  12.050
52329W        W16086  39.045  29.554   1.322
52330W        W16087  26.629  20.669  12.547
52331W        W16088  22.705  30.611  11.434
52332W        W16089   9.352  29.076   4.283
52333W        W16090  38.005  37.361   0.920
52334W        W16091   2.275   6.259  10.411
52335W        W16092  16.760  10.357   1.371
52336W        W16093  43.833  37.895   3.171
52337W        W16094  40.509  10.241   4.201
52338W        W16095  15.691  19.268  10.561
52339W        W16096  14.696   7.317   4.832
52340W        W16097  32.572  33.543  11.878
52341W        W16098  10.223  12.774  12.457
52342W        W16099  22.533  10.295  10.974
52343W        W16100  29.524  38.056   0.874
52344W        W16101  22.603   9.341  12.455
52345W        W16102  16.794  38.977   3.789
52346W        W16103  33.496  12.804   2.709
52347W        W16104  10.228  24.722   2.358
52348W        W16105  39.470  20.575  12.919
52349W        W16106  18.110   8.734  12.874
52350W        W16107  12.359  26.601  14.446
52351W        W16108  41.336  13.623   0.380
52352W        W16109   1.774  12.643   0.442
52353W        W16110  23.658  22.505   0.418
52354W        W16111  41.854  35.999  11.935
52355W        W16112  37.041  13.208  13.478
52356W        W16113  34.561   1.971   0.422
52357W        W16114  23.996  37.447  10.951
52358W        W16115  10.285   8.845  14.846
52359W        W16116  17.725  34.387   2.844
52360W        W16117  44.894  15.635  10.585
52361W        W16118  30.976  21.514  12.509
52362W        W16119  44.269  37.041  13.959
52363W        W16120  24.710   8.659  14.960
52364W        W16121   5.356  18.058  12.992
52365W        W16122  26.150  14.654   2.280
52366W        W16123   8.286  35.036   2.843
52367W        W16124  36.939  24.143  12.849
52368W        W16125  34.412   5.804  13.046
52369W        W16126   8.872  13.632  12.087
52370W        W16127  29.968  25.963  11.105
52371W        W16128  41.343   2.260   0.332
52372W        W16129  11.254  37.402  10.899
52373W        W16130   1.921  19.734  12.355
52374W        W16131  20.527  33.568   3.716
52375W        W16132  31.554  13.295   0.735
52376W        W16133  44.766  14.236   4.800
52377W        W16134  20.585  28.631   2.796
52378W        W16135  38.979  12.788   4.292
52379W        W16136   8.820  12.286  10.907
52380W        W16137  32.572  25.986  14.410
52381W        W16138  20.069  19.599   3.241
52382W        W16139   3.926   4.365  10.927
52383W        W16140   0.824  44.295   9.993
52384W        W16141  24.521  16.599  12.524
52385W        W16142   5.294  43.802  13.830
52386W        W16143  36.941  17.636  11.977
52387W        W16144  32.933  22.195   0.755
52388W        W16145  16.183  15.218   1.924
52389W        W16146  13.268  33.563  12.445
52390W        W16147  40.966  15.669   3.288
52391W        W16148  39.843   7.837  12.454
52392W        W16149  26.179  10.205  14.499
52393W        W16150  11.796  23.697   2.782
52394W        W16151  25.608  40.332   1.398
52395W        W16152   0.393   8.839   0.791
52396W        W16153  29.545  14.208  12.575
52397W        W16154  22.664  38.401   1.413
52398W        W16155  22.995  19.147  12.872
52399W        W16156  40.401  27.051  13.925
52400W        W16157   5.888  44.339   4.266
52401W        W16158  12.209   2.732  13.825
52402W        W16159  31.981  31.148   2.718
52403W        W16160  35.940  31.016   2.208
52404W        W16161  29.533  22.697   1.717
52405W        W16162   9.321  13.145  14.454
52406W        W16163  44.262  35.442  12.560
52407W        W16164  25.590  37.512   4.151
52408W        W16165  12.699   1.844  10.446
52409W        W16166  28.627  27.005  13.834
52410W        W16167  13.777  16.277  12.393
52411W        W16168  11.306  23.682  12.029
52412W        W16169  36.078  44.788  14.360
52413W        W16170  41.813  15.229  10.645
52414W        W16171  25.555  39.834  10.446
52415W        W16172  33.014  36.462  11.593
52416W        W16173  41.992  19.170  13.373
52417W        W16174  10.711  31.992   0.450
52418W        W16175  19.042  39.531   1.357
52419W        W16176  40.406   9.752   2.683
52420W        W16177  33.104  41.881   1.291
52421W        W16178  34.061  11.139  11.118
52422W        W16179  41.797  24.121  13.474
52423W        W16180  36.970  26.701  12.823
52424W        W16181   3.925  12.780  11.888
52425W        W16182   6.355  24.510  12.029
52426W        W16183  17.281  35.472  11.875
52427W        W16184  33.890  10.314  11.049
52428W        W16185  21.159  34.527   4.647
52429W        W16186  42.327   4.275  10.531
52430W        W16187   0.374  13.758  13.991
52431W        W16188  12.612  25.121   3.301
52432W        W16189  23.521  23.993   4.214
52433W        W16190  25.208  32.937  12.884
52434W        W16191  23.047  43.308  11.859
52435W        W16192  20.753  28.995   2.678
52436W        W16193  34.943  22.554   3.786
52437W        W16194  30.544  21.215   3.745
52438W        W16195  34.900  20.090   4.135
52439W        W16196  38.064  14.780  14.866
52440W        W16197  28.185  18.202   4.190
52441W        W16198  11.867  15.764  13.493
52442W        W16199  27.668  29.133  14.497
52443W        W16200   2.321   6.918  14.808
52444W        W16201   9.786  40.995   3.710
52445W        W16202  43.427  27.489   0.788
52446W        W16203  11.139  35.575  11.868
52447W        W16204  28.581  16.243  10.961
52448W        W16205  15.632   4.334  11.070
52449W        W16206   0.432  26.175   4.310
52450W        W16207  18.567  26.588   2.400
52451W        W16208  41.946  42.808  11.081
52452W        W16209  34.614   8.183  10.550
52453W        W16210   5.742  41.354   2.371
52454W        W16211  14.173   3.775   0.400
52455W        W16212  31.605   5.226   0.371
52456W        W16213  31.462  35.979   3.796
52457W        W16214  13.783  18.122   2.863
52458W        W16215   9.268   1.302   0.885
52459W        W16216  28.590  43.332   0.788
52460W        W16217  20.731  10.241   4.340
52461W        W16218   7.803  33.968   0.387
52462W        W16219  25.517  13.840  11.074
52463W        W16220  40.832  38.977   3.376
52464W        W16221  29.633  35.427   4.203
52465W        W16222   3.865   9.363  13.487
52466W        W16223  41.310  15.723  14.870
52467W        W16224  41.467  17.617  12.834
52468W        W16225  29.971  12.782  12.352
52469W        W16226   7.701  33.482   2.780
52470W        W16227  38.994   1.283   4.173
52471W        W16228   2.418   1.744   4.210
52472W        W16229  23.736  25.113  10.433
52473W        W16230  17.208  28.523   2.759
52474W        W16231  38.552   7.874   4.299
52475W        W16232  43.446   3.719   3.377
52476W        W16233   5.714  16.087   1.757
52477W        W16234  26.015  17.104   0.387
52478W        W16235   4.302  40.939   0.300
52479W        W16236  26.692  36.551  12.077
52480W        W16237  18.122   0.823  10.442
52481W        W16238  12.312  27.136   1.749
52482W        W16239  37.503  28.621   4.827
52483W        W16240  13.745  26.672   0.848
52484W        W16241  20.089  44.858  12.529
52485W        W16242  21.173  21.050  13.875
52486W        W16243   6.356   1.924   3.708
52487W        W16244  39.065  19.275  11.960
52488W        W16245  44.766  30.524  14.276
52489W        W16246   6.795   9.257   3.869
52490W        W16247  24.123   3.854  14.982
52491W        W16248  11.647  38.378  13.950
52492W        W16249  42.317  35.992   0.262
52493W        W16250  14.323  19.270   2.396
52494W        W16251  31.553  25.583   2.399
52495W        W16252  32.453  26.671   0.340
52496W        W16253  43.427  11.794  12.422
52497W        W16254  26.965  29.930  12.569
52498W        W16255  26.003  16.104  10.127
52499W        W16256  21.665  20.532   2.707
52500W        W16257  39.319   0.388  11.894
52501W        W16258  30.009  41.317  10.639
52502W        W16259  27.580  18.120  11.912
52503W        W16260  36.356   6.834  12.849
52504W        W16261  32.530   8.728  11.611
52505W        W16262  41.861  13.313  11.096
52506W        W16263  40.967  15.167  12.917
52507W        W16264  17.114  34.098   0.359
52508W        W16265  30.457  10.669   4.620
52509W        W16266  38.013  43.776  12.856
52510W        W16267  35.989   9.687   4.727
52511W        W16268  15.235   3.227   0.469
52512W        W16269  39.444  16.162   0.747
52513W        W16270  11.672   8.897   1.377
52514W        W16271  36.074   6.693   3.701
52515W        W16272  15.660   1.410   3.711
52516W        W16273  20.114  21.089   1.365
52517W        W16274  24.193  20.136  10.640
52518W        W16275  44.407  42.516  11.383
52519W        W16276  21.038   9.852  12.556
52520W        W16277  17.710   9.724   2.881
52521W        W16278  36.435  24.520  13.985
52522W        W16279  31.606   6.322  11.924
52523W        W16280   6.758   9.708  12.384
52524W        W16281  28.455  38.926   3.342
52525W        W16282  28.040  38.534   2.869
52526W        W16283   3.798   7.298   0.472
52527W        W16284  20.041  33.014  10.457
52528W        W16285  44.340   6.824   3.263
52529W        W16286   7.747  41.465  11.465
52530W        W16287  33.539   8.390   0.834
52531W        W16288  14.690   0.917   5.585
52532W        W16289  25.202  20.672   4.739
52533W        W16290  14.816  40.814  12.964
52534W        W16291  13.790  16.186  14.031
52535W        W16292  37.501  11.308  11.048
52536W        W16293  41.954  37.084   2.781
52537W        W16294  32.471  13.777   2.288
52538W        W16295   0.758  20.555  13.495
52539W        W16296  13.811   1.891  10.603
52540W        W16297  28.124  11.772  12.958
52541W        W16298  29.108  28.569  13.956
52542W        W16299  38.028  35.446   2.867
52543W        W16300  41.999  28.176   5.196
52544W        W16301  25.565   3.336   0.387
52545W        W16302  44.954  13.754   1.851
52546W        W16303  14.768  43.513   4.251
52547W        W16304   2.444  37.529  11.458
52548W        W16305   2.286  37.007   0.409
52549W        W16306  32.575  35.035  10.540
52550W        W16307   1.970  16.183   4.121
52551W        W16308   1.406  43.283   2.778
52552W        W16309   6.192   9.377  14.967
52553W        W16310  21.116  39.500  13.513
52554W        W16311  26.095   8.164   2.883
52555W        W16312  38.991  42.516  10.944
52556W        W16313  36.503   5.701  12.833
52557W        W16314  40.894  10.318  14.804
52558W        W16315  43.480  34.083  13.456
52559W        W16316  24.103  12.260  11.126
52560W        W16317  35.603   6.243  10.453
52561W        W16318   3.240   3.799   2.859
52562W        W16319  35.362  26.204  14.308
52563W        W16320  38.840  14.286  13.802
52564W        W16321   9.387   6.342   0.445
52565W        W16322   9.670  39.507   2.359
52566W        W16323  29.666  18.115  13.421
52567W        W16324  43.003  37.929   1.232
52568W        W16325  33.460  23.150   3.362
52569W        W16326  34.434  17.199  13.024
52570W        W16327  28.675   8.890  14.356
52571W        W16328  41.860   4.385   4.655
52572W        W16329  13.271   2.934  11.984
52573W        W16330  19.573  13.170  10.445
52574W        W16331  15.165  43.392   1.319
52575W        W16332  24.193   9.153  14.334
52576W        W16333   7.416  43.282  13.850
52577W        W16334   8.720  27.564   4.337
52578W        W16335  34.400   4.759  12.906
52579W        W16336  27.447  30.602   2.390
52580W        W16337  37.861  32.930   2.415
52581W        W16338  16.663  38.992   3.232
52582W        W16339  10.259  41.844  11.874
52583W        W16340  11.681  15.117  11.456
52584W        W16341  27.955  12.746   4.135
52585W        W16342  17.771  44.318  11.530
52586W        W16343  27.995   3.299   5.176
52587W        W16344   0.887   9.849   3.870
52588W        W16345   3.322   4.439  12.823
52589W        W16346  23.193  18.782  13.987
52590W        W16347  35.937   7.711  14.844
52591W        W16348  34.009  28.102   3.767
52592W        W16349   1.468  26.199   2.327
52593W        W16350  36.562  35.507  11.438
52594W        W16351  21.531  42.339   1.832
52595W        W16352  23.181   1.894  13.445
52596W        W16353  22.616  24.648   0.264
52597W        W16354  32.406  33.400  12.529
52598W        W16355  39.046  44.437   1.711
52599W        W16356  33.078  41.339   4.236
52600W        W16357  40.824  26.688  11.071
52601W        W16358   2.383  43.835   4.721
52602W        W16359  19.754  25.626  14.851
52603W        W16360  40.404  26.671  14.370
52604W        W16361  13.615  35.088  12.911
52605W        W16362  32.598  40.899   1.778
52606W        W16363   4.327  33.472  12.006
52607W        W16364  40.021   7.258   0.883
52608W        W16365  22.699  41.025  14.337
52609W        W16366   3.894  36.050  13.860
52610W        W16367   1.247   5.423  12.423
52611W        W16368  11.695  18.274  14.351
52612W        W16369   3.379  23.573  14.281
52613W        W16370  25.490   4.369  11.544
52614W        W16371  42.872  44.374   1.286
52615W        W16372  24.549  38.424   1.246
52616W        W16373  11.702  14.659  11.018
52617W        W16374  37.552   3.811  14.457
52618W        W16375   7.284  22.227   3.633
52619W        W16376  36.984  13.127  12.484
52620W        W16377  27.461   0.919  12.912
52621W        W16378  21.553  13.136  14.326
52622W        W16379  44.789  12.161   0.748
52623W        W16380   8.871  38.407  10.585
52624W        W16381   5.257   3.311   2.263
52625W        W16382  23.026   6.230  10.532
52626W        W16383  39.063   9.873  12.989
52627W        W16384  14.636  29.480   2.824
52628W        W16385  33.933   9.742  14.398
52629W        W16386   5.260  41.926  12.841
52630W        W16387  34.097   6.804  14.796
52631W        W16388  36.884  43.783   3.345
52632W        W16389  32.491   3.258   0.412
52633W        W16390  39.963  39.064   3.840
52634W        W16391  40.390  15.095  13.349
52635W        W16392   0.282  29.072   1.802
52636W        W16393  39.533  29.088  11.501
52637W        W16394  42.292  36.084  10.443
52638W        W16395  43.362  14.234  11.578
52639W        W16396  17.768   4.825   1.759
52640W        W16397   9.720  22.065   4.631
52641W        W16398  28.152  20.627   2.378
52642W        W16399  16.252  33.432   4.280
52643W        W16400  16.711  38.986   1.706
52644W        W16401   9.200  20.076  10.406
52645W        W16402   7.884  36.374   2.814
52646W        W16403  36.873  26.543  10.141
52647W        W16404  43.895  19.739   4.672
52648W        W16405   4.794  35.579   0.403
52649W        W16406  22.544   6.707  12.568
52650W        W16407  18.680   9.726   1.716
52651W        W16408  41.911  37.518   5.148
52652W        W16409   1.399   3.293   0.852
52653W        W16410  22.658  44.353  11.025
52654W        W16411  20.265  14.785   1.852
52655W        W16412   5.802  43.804  10.475
52656W        W16413   1.928  40.516  12.070
52657W        W16414  37.872  38.452   3.855
52658W        W16415  35.989   7.315  10.897
52659W        W16416  36.401  30.650  11.112
52660W        W16417  26.544  21.099   4.157
52661W        W16418  21.566  30.129  10.568
52662W        W16419  32.411  36.903  12.825
52663W        W16420   3.289  11.624   0.751
52664W        W16421  40.006  44.321   2.684
52665W        W16422   2.929   6.782   3.315
52666W        W16423   9.295   0.860  14.459
52667W        W16424  43.383  41.361  13.793
52668W        W16425   9.703  15.794  11.492
52669W        W16426  28.031   4.297   0.846
52670W        W16427  20.642   2.392  12.571
52671W        W16428  36.041  43.849   2.222
52672W        W16429  20.268   0.793   3.746
52673W        W16430  11.150  29.076   3.227
52674W        W16431  41.003  42.308  12.348
52675W        W16432   1.832   8.713  10.455
52676W        W16433   2.863  36.017   1.346
52677W        W16434  13.148  32.448  13.494
52678W        W16435  24.496  42.936   3.380
52679W        W16436  17.706  25.022   4.770
52680W        W16437  36.418  29.042   1.362
52681W        W16438  24.708  13.258  14.883
52682W        W16439  21.720   9.319  12.086
52683W        W16440  24.519  34.937  11.406
52684W        W16441  13.243  32.481   1.783
52685W        W16442  37.367  21.249  13.473
52686W        W16443   9.685  32.099   1.816
52687W        W16444   4.392  28.045  13.803
52688W        W16445  30.143  14.339   3.738
52689W        W16446  28.681  16.173   4.237
52690W        W16447  14.123  44.278   3.231
52691W        W16448  27.684  15.179  11.088
52692W        W16449   0.957  35.596  10.559
52693W        W16450  22.166  29.561  14.843
52694W        W16451   8.655  13.135  13.487
52695W        W16452  15.227  41.527  14.015
52696W        W16453  16.610  23.991   3.347
52697W        W16454   7.284  19.561   1.444
52698W        W16455  36.522  10.773   3.381
52699W        W16456  15.782   2.792  11.086
52700W        W16457  40.927  33.941  14.961
52701W        W16458  34.610  18.055  10.559
52702W        W16459  29.601   0.777   0.286
52703W        W16460   8.349  27.673   3.758
52704W        W16461  30.999  10.773  10.634
52705W        W16462  20.630  31.595  13.848
52706W        W16463  32.054  19.081  14.365
52707W        W16464  36.567  12.334   0.945
52708W        W16465   3.759  33.008   0.282
52709W        W16466   1.256  27.995   0.744
52710W        W16467  43.375  24.641   3.650
52711W        W16468  29.523  44.387   5.241
52712W        W16469  23.537   8.875  10.404
52713W        W16470  16.752  33.581  13.919
52714W        W16471  35.962   3.258   4.272
52715W        W16472  23.111   0.328   3.724
52716W        W16473  27.636  17.145  11.951
52717W        W16474  35.509   8.723  10.615
52718W        W16475   6.237  35.385   1.877
52719W        W16476  26.611  32.906   4.794
52720W        W16477   5.818  10.761   4.648
52721W        W16478  40.534  31.067  13.808
52722W        W16479  38.379  12.254  14.822
52723W        W16480   8.322  35.884  10.492
52724W        W16481  14.693  34.376  10.609
52725W        W16482   2.752  29.012  14.494
52726W        W16483  30.489  14.757  11.578
52727W        W16484   8.230   5.792   2.789
52728W        W16485  17.092  27.980   9.965
52729W        W16486  10.322  24.654  13.913
52730W        W16487  19.208  28.600  14.468
52731W        W16488  10.166  12.200   4.751
52732W        W16489  33.967   1.379   0.906
52733W        W16490  38.374   2.373   1.420
52734W        W16491  40.397  31.942   5.322
52735W        W16492   4.433  38.342  12.929
52736W        W16493  11.327  30.654   0.748
52737W        W16494  37.387  35.857  13.995
52738W        W16495  22.692  35.004  13.896
52739W        W16496  29.576  34.017   3.162
52740W        W16497   4.736  23.160   0.924
52741W        W16498  41.358  21.120  13.952
52742W        W16499  17.223  24.056   4.604
52743W        W16500   2.866  40.374   2.184
52744W        W16501  23.107  32.016   1.380
52745W        W16502  15.595  17.308  10.930
52746W        W16503  15.648  14.168   0.401
52747W        W16504  14.140  41.412  11.076
52748W        W16505  12.781  43.344  10.159
52749W        W16506  15.586  22.217   0.378
52750W        W16507   7.270  37.996  11.599
52751W        W16508  44.815  36.424  12.923
52752W        W16509   2.245  26.685  11.885
52753W        W16510  20.627  25.056  12.826
52754W        W16511  24.541  21.579  13.035
52755W        W16512  23.569  23.658  11.397
52756W        W16513  16.578  16.686   0.379
52757W        W16514  43.323  33.525  13.819
52758W        W16515  10.367  44.997  10.483
52759W        W16516  15.660  15.649   3.837
52760W        W16517  24.140  24.065  13.498
52761W        W16518   6.227   1.307   4.628
52762W        W16519  39.397   8.355   0.375
52763W        W16520  33.465  29.424   4.138
52764W        W16521   3.330  24.658   4.345
52765W        W16522  20.196  44.794  10.622
52766W        W16523  21.196   8.169   4.721
52767W        W16524  36.550  26.068   0.341
52768W        W16525   6.227   4.252  14.285
52769W        W16526   4.311   7.888  10.992
52770W        W16527  20.186  26.190   1.876
52771W        W16528  43.769  16.288  11.925
52772W        W16529  44.916   5.333  11.987
52773W        W16530   8.182  43.833  10.527
52774W        W16531  16.779  12.277   4.327
52775W        W16532  36.368  25.217  13.864
52776W        W16533  40.902  10.347  11.410
52777W        W16534  12.668  28.555   3.303
52778W        W16535  28.932  30.084   1.749
52779W        W16536  24.707  33.596  12.487
52780W        W16537   5.690   4.378   0.925
52781W        W16538   1.814  27.505   3.822
52782W        W16539  44.927  43.861  11.051
52783W        W16540  15.614   4.226   4.299
52784W        W16541  24.173  13.728   0.426
52785W        W16542  40.356  20.565  13.044
52786W        W16543  28.177  30.056   3.252
52787W        W16544  10.298  23.214   0.248
52788W        W16545  24.689  12.196   1.283
52789W        W16546  10.724  25.017   1.218
52790W        W16547  10.184   7.720  10.623
52791W        W16548  24.086  27.086  13.057
52792W        W16549   1.911  40.054   2.725
52793W        W16550  42.482  15.702  14.400
52794W        W16551   5.798   0.946   3.666
52795W        W16552   8.189  17.566   5.727
52796W        W16553  22.121  19.196   4.195
52797W        W16554  18.130  43.414  14.308
52798W        W16555   9.199  11.757  14.006
52799W        W16556   0.287   2.762   4.781
52800W        W16557  13.236  43.489   0.276
52801W        W16558  30.934  10.699   1.380
52802W        W16559  31.053  34.056  13.046
52803W        W16560   8.275  27.993   2.766
52804W        W16561  42.440  30.975  12.902
52805W        W16562  40.397   6.891  13.923
52806W        W16563  22.210  15.747  11.453
52807W        W16564   5.212  16.790   1.808
52808W        W16565  15.123  26.103   2.220
52809W        W16566  20.209  23.616  11.977
52810W        W16567  41.882  31.440   0.751
52811W        W16568  15.168  18.638   4.797
52812W        W16569  40.382  42.022  12.968
52813W        W16570  35.485  31.510   3.285
52814W        W16571   6.381  42.488  11.542
52815W        W16572   2.443  20.130  10.624
52816W        W16573  26.673  30.083  13.793
52817W        W16574  27.501  30.654   1.858
52818W        W16575   3.355  17.133  12.469
52819W        W16576  16.160  39.439   0.791
52820W        W16577   5.262  24.721  14.305
52821W        W16578  43.951  44.384  12.956
52822W        W16579   0.414  37.013   1.697
52823W        W16580  33.984   3.297   4.132
52824W        W16581  29.527  17.130  14.505
52825W        W16582   1.246  12.200  12.045
52826W        W16583  32.431  22.613  10.052
52827W        W16584  37.414  44.261   5.256
52828W        W16585   6.798   4.879  14.364
52829W        W16586   3.448  18.578  12.983
52830W        W16587   1.324  41.907  13.018
52831W        W16588  10.366  15.320  14.377
52832W        W16589  38.341   9.857   0.475
52833W        W16590   6.684   9.766  14.993
52834W        W16591  24.078   4.362   3.177
52835W        W16592   6.768  36.490  14.970
52836W        W16593  32.990   2.345  14.845
52837W        W16594   7.291  17.574  14.882
52838W        W16595  18.209  23.134   2.722
52839W        W16596  13.214  28.553   3.687
52840W        W16597  16.120  26.637  14.463
52841W        W16598  40.027   5.754  14.913
52842W        W16599  12.768  36.370   2.391
52843W        W16600  32.123  18.120   3.791
52844W        W16601  39.434  36.951  12.836
52845W        W16602  38.054   5.748   5.200
52846W        W16603  22.706  22.534   4.245
52847W        W16604  34.045  39.450   1.891
52848W        W16605  21.038  29.153   1.883
52849W        W16606  15.580  12.762   1.786
52850W        W16607   9.781  14.644  12.888
52851W        W16608  18.715  19.150  14.448
52852W        W16609  12.686   6.764  13.361
52853W        W16610  26.172  17.139   5.283
52854W        W16611   7.215  43.373  12.563
52855W        W16612  22.715  22.605   0.871
52856W        W16613   2.898   6.700  10.467
52857W        W16614  16.614  39.362   2.243
52858W        W16615  39.014  17.713   4.716
52859W        W16616  36.498  19.247   3.243
52860W        W16617  32.549   0.905  13.017
52861W        W16618  11.289   8.699  12.046
52862W        W16619  20.626  40.909   2.342
52863W        W16620  23.594  31.541   4.193
52864W        W16621  14.325  11.312   1.872
52865W        W16622   4.727  36.887   0.890
52866W        W16623   8.187  24.675  11.019
52867W        W16624  43.494  23.072  12.077
52868W        W16625  38.385  29.139   1.814
52869W        W16626  17.800  41.496   4.339
52870W        W16627  22.709  37.033   0.376
52871W        W16628  33.937  15.091   3.785
52872W        W16629  42.890   9.381  13.346
52873W        W16630   5.358  28.981  14.991
52874W        W16631  11.157  31.552   4.146
52875W        W16632  15.230  41.882   2.733
52876W        W16633  26.642  33.570   2.723
52877W        W16634   3.251   7.798  11.420
52878W        W16635   4.792  27.591  14.485
52879W        W16636  21.242   9.339   4.220
52880W        W16637  21.229  41.454  10.150
52881W        W16638  19.681  36.467  14.976
52882W        W16639  37.890  32.976   1.705
52883W        W16640  31.898  40.011   4.273
52884W        W16641  27.995  15.237   0.886
52885W        W16642   0.291  38.419   4.227
52886W        W16643  36.514  13.754  13.027
52887W        W16644  33.459  23.199  13.372
52888W        W16645  14.149  28.667  12.999
52889W        W16646  43.400  29.573  10.633
52890W        W16647  17.722  35.920   1.844
52891W        W16648   7.223  31.591   4.187
52892W        W16649  35.406  16.184  11.874
52893W        W16650  11.697   3.810   1.836
52894W        W16651  38.391  15.773  13.811
52895W        W16652  33.493  17.299   3.188
52896W        W16653  41.931  21.168  10.983
52897W        W16654  14.169  35.445   0.926
52898W        W16655  37.016  25.601   4.823
52899W        W16656  20.594  26.510  13.859
52900W        W16657  38.964   3.272  13.884
52901W        W16658  43.325  29.023   4.672
52902W        W16659  39.821  11.160  14.487
52903W        W16660  28.650  30.933   2.741
52904W        W16661  16.570  37.481  14.486
52905W        W16662  26.512  12.697  14.500
52906W        W16663  40.547   6.915  14.823
52907W        W16664   8.255  15.192   5.708
52908W        W16665  32.613  31.434  12.420
52909W        W16666  28.997   2.864   2.272
52910W        W16667  28.601  12.140   1.333
52911W        W16668   1.926  22.548  10.912
52912W        W16669  38.397   6.872   1.895
52913W        W16670   9.219  39.860  10.016
52914W        W16671  37.387  21.058   3.652
52915W        W16672  22.244  37.498  11.922
52916W        W16673  22.171  15.251  14.962
52917W        W16674  41.899  44.891   3.304
52918W        W16675  10.749  34.516   4.652
52919W        W16676  32.518  32.427   1.403
52920W        W16677  35.491  14.339  13.352
52921W        W16678   1.253   8.193  13.344
52922W        W16679  20.142  36.859   3.301
52923W        W16680  38.525   4.296   1.269
52924W        W16681  17.778  34.965  13.063
52925W        W16682  37.036  20.078  10.931
52926W        W16683  43.807   7.718  10.512
52927W        W16684   6.911  40.452   5.717
52928W        W16685  38.822  32.625  12.564
52929W        W16686  26.677  25.491   4.650
52930W        W16687  30.958  35.051  12.457
52931W        W16688  19.610  20.163  13.368
52932W        W16689  29.459  41.803  14.357
52933W        W16690   9.394   8.338   2.198
52934W        W16691  36.402  23.080  11.489
52935W        W16692  30.961  36.903   1.370
52936W        W16693  13.311  41.918  14.999
52937W        W16694  38.868  16.736  14.347
52938W        W16695   9.333  10.742   1.791
52939W        W16696  12.718  21.212   3.357
52940W        W16697  12.132  21.697  11.402
52941W        W16698  11.238  40.481  13.443
52942W        W16699  11.234  14.766  13.982
52943W        W16700  35.928   1.409  13.508
52944W        W16701  24.059  43.953  10.494
52945W        W16702  36.512  43.458  13.886
52946W        W16703  18.641  27.959   9.990
52947W        W16704  27.160  25.714  10.056
52948W        W16705  18.546  34.559   0.348
52949W        W16706  42.825  31.549  12.530
52950W        W16707  28.496  14.297  14.998
52951W        W16708   8.655  21.602   3.267
52952W        W16709  25.665  20.117  10.561
52953W        W16710  29.163  11.304  13.048
52954W        W16711  37.941   0.311  11.409
52955W        W16712  13.623  19.652  14.279
52956W        W16713   5.276  41.508   2.225
52957W        W16714  25.659  39.924   5.245
52958W        W16715  18.233  30.648   2.327
52959W        W16716   4.404  31.114   2.237
52960W        W16717  26.645  26.116  13.534
52961W        W16718  29.662  34.429   0.867
52962W        W16719  28.555  23.993  11.860
52963W        W16720  39.426  37.345   0.377
52964W        W16721  20.570   5.862   3.304
52965W        W16722  44.900  29.471  14.990
52966W        W16723  38.532  36.903  10.476
52967W        W16724   5.912   2.873  13.341
52968W        W16725  19.089  26.554  10.987
52969W        W16726  22.062  33.547   1.311
52970W        W16727  44.827  39.040   0.764
52971W        W16728   1.912  15.609  13.308
52972W        W16729  32.537  19.182   3.816
52973W        W16730  30.031  29.078  10.502
52974W        W16731   5.915   2.459  12.924
52975W        W16732  14.698  31.979  11.546
52976W        W16733  26.686  16.253   4.342
52977W        W16734  35.880  28.569  13.034
52978W        W16735  20.086  26.207   0.815
52979W        W16736  20.155  12.772   2.277
52980W        W16737  10.257  15.623  10.428
52981W        W16738  23.129  38.342   3.223
52982W        W16739  38.424   9.372   3.153
52983W        W16740   5.696  22.502  12.071
52984W        W16741  14.701   8.248   1.737
52985W        W16742  44.351  43.318  12.437
52986W        W16743  25.023  31.947   3.323
52987W        W16744  19.193  23.619  10.473
52988W        W16745  41.498  24.156  10.909
52989W        W16746  28.437   4.235   2.754
52990W        W16747  27.539  36.034  11.470
52991W        W16748  42.372  13.795  12.489
52992W        W16749  11.362  39.330   1.410
52993W        W16750  43.382  28.469   1.795
52994W        W16751  15.287  20.246  13.941
52995W        W16752  17.635  26.473  10.921
52996W        W16753  39.319  40.518  12.940
52997W        W16754  14.608  23.673   1.450
52998W        W16755  28.634   4.351  14.485
52999W        W16756   3.787  32.058   0.796
53000W        W16757   1.920  31.595   4.636
53001W        W16758  27.050   1.321  12.443
53002W        W16759  28.024  36.482   0.899
53003W        W16760  30.655  22.572  12.385
53004W        W16761   0.297  31.495   2.242
53005W        W16762  37.086   3.902  14.326
53006W        W16763  33.615  35.993  12.856
53007W        W16764  18.155  41.858  12.966
53008W        W16765  40.868  42.024   1.748
53009W        W16766  24.617  44.417  10.968
53010W        W16767  26.032  21.160  12.088
53011W        W16768   7.303  26.567  10.472
53012W        W16769   7.392   2.294   2.673
53013W        W16770  18.614  38.870   2.847
53014W        W16771  31.636  12.298  14.312
53015W        W16772  33.554  42.320  13.028
53016W        W16773  22.644  21.657   0.931
53017W        W16774  36.925  25.082   3.284
53018W        W16775  40.953  37.480  12.400
53019W        W16776  43.487  43.304   3.236
53020W        W16777  39.846  36.519  10.948
53021W        W16778  42.510  11.825  12.092
53022W        W16779  21.640  33.464   1.365
53023W        W16780  19.566  43.857  11.438
53024W        W16781  27.959  16.577   4.609
53025W        W16782   6.860  23.103   2.761
53026W        W16783  36.868  38.564   4.599
53027W        W16784   6.255  17.695   4.717
53028W        W16785  24.678   8.262   3.851
53029W        W16786  23.047  25.584   1.846
53030W        W16787  34.489  37.564   4.650
53031W        W16788  35.490   1.273   0.462
53032W        W16789   3.804   5.804   2.708
53033W        W16790  35.898   9.348  11.589
53034W        W16791   1.860  44.865   3.257
53035W        W16792  38.871  14.819  12.063
53036W        W16793  14.123  32.529  13.357
53037W        W16794  28.086   4.843  10.000
53038W        W16795  15.241  11.130   0.778
53039W        W16796   0.764  26.170   4.647
53040W        W16797  13.175  26.561  14.976
53041W        W16798  24.195  16.165   4.723
53042W        W16799  28.946   1.967   1.903
53043W        W16800  15.259  41.398  14.944
53044W        W16801  26.996  24.182   1.802
53045W        W16802  40.432  33.076   2.205
53046W        W16803  18.200  12.801  12.840
53047W        W16804   8.271  24.624   0.260
53048W        W16805  40.396  14.154  13.379
53049W        W16806  31.449   4.271  11.066
53050W        W16807  37.580   8.763   0.769
53051W        W16808   8.188  10.709   0.266
53052W        W16809  27.982  41.467   3.312
53053W        W16810  43.360  37.510   1.915
53054W        W16811  23.579   3.834  11.412
53055W        W16812   3.868  13.231  12.568
53056W        W16813   0.768   3.441  14.817
53057W        W16814  41.806  22.554   4.332
53058W        W16815  44.353  23.612  12.545
53059W        W16816  24.230  34.052  14.968
53060W        W16817  11.198   4.265   1.777
53061W        W16818  25.501   4.233  10.524
53062W        W16819  43.461   3.263   0.872
53063W        W16820  33.115  43.982  13.939
53064W        W16821  18.549  36.012  10.521
53065W        W16822  37.893   9.234   3.824
53066W        W16823   3.931  34.968   4.839
53067W        W16824   1.445  30.983  12.431
53068W        W16825  31.501  33.881  14.429
53069W        W16826  36.364   9.308  10.903
53070W        W16827  29.137  36.860   1.425
53071W        W16828   6.818  18.781  14.818
53072W        W16829  36.917   2.248   3.148
53073W        W16830  16.309  24.012   0.308
53074W        W16831  29.151  39.341  11.477
53075W        W16832  12.820  14.783  13.363
53076W        W16833  40.912  30.997   1.391
53077W        W16834  41.975  12.764  11.394
53078W        W16835   1.345  20.169   1.324
53079W        W16836  36.521  32.123   1.710
53080W        W16837  30.019   5.395   1.240
53081W        W16838  17.640  26.043  11.092
53082W        W16839  25.168   2.317   3.650
53083W        W16840  14.613   7.241   1.278
53084W        W16841  30.101   9.860   0.276
53085W        W16842  25.012  25.560   1.767
53086W        W16843  31.598  12.838   3.271
53087W        W16844  20.551  41.400  12.575
53088W        W16845  13.813  24.598  13.951
53089W        W16846   7.846  20.169   0.937
53090W        W16847   0.272  12.311  13.990
53091W        W16848  35.961  11.691  12.578
53092W        W16849  12.703  14.749  12.884
53093W        W16850  41.847  40.385   1.423
53094W        W16851  27.524   2.817  12.461
53095W        W16852   0.430  12.831   0.271
53096W        W16853  42.988  41.464   3.323
53097W        W16854  16.286   9.342  11.526
53098W        W16855  29.031  42.299  12.025
53099W        W16856   5.194  40.422  14.985
53100W        W16857  18.132  25.136  12.095
53101W        W16858  23.037   5.227   4.191
53102W        W16859   0.799   3.216  10.586
53103W        W16860  21.709  27.458   1.257
53104W        W16861  20.606  11.818  10.420
53105W        W16862  42.919  38.053  11.944
53106W        W16863  29.523  34.497  10.615
53107W        W16864  12.255  31.939   3.798
53108W        W16865  19.584   7.789  14.941
53109W        W16866  41.921  39.337   1.362
53110W        W16867  17.252  39.037   0.938
53111W        W16868  15.099  30.072   0.809
53112W        W16869  32.519  34.941  13.869
53113W        W16870  36.577  16.732  10.007
53114W        W16871  26.072   8.848   2.677
53115W        W16872  20.702  10.305  10.608
53116W        W16873   5.777  36.039   3.287
53117W        W16874  15.769  11.159   0.357
53118W        W16875  32.050  20.157   4.335
53119W        W16876  37.018  10.138  13.027
53120W        W16877  37.365  41.000   3.816
53121W        W16878   9.848  16.723  14.845
53122W        W16879   1.971  18.085   1.818
53123W        W16880  21.739  23.622  13.363
53124W        W16881  42.832   2.883  12.499
53125W        W16882   1.960  26.663   9.988
53126W        W16883  42.825  26.118  14.893
53127W        W16884  43.379  25.081   2.666
53128W        W16885  34.118  25.166   3.348
53129W        W16886  17.604  17.793   2.198
53130W        W16887  10.197  34.576   1.375
53131W        W16888   4.746   0.837   1.274
53132W        W16889  13.796  28.147   3.631
53133W        W16890   0.923  18.657  13.954
53134W        W16891  34.975  28.452   1.428
53135W        W16892   8.274   9.366  12.404
53136W        W16893  41.433  29.139  13.324
53137W        W16894  36.372  43.353   0.911
53138W        W16895  44.311  43.450   2.406
53139W        W16896   6.737  22.204  10.595
53140W        W16897  18.092  20.248   3.839
53141W        W16898  11.662  36.583   2.868
53142W        W16899   7.241   6.296  13.947
53143W        W16900  17.745  39.513  11.084
53144W        W16901   9.283  15.328   3.697
53145W        W16902  18.669  22.237   0.834
53146W        W16903  42.781  29.007  11.449
53147W        W16904  33.103   5.439   3.857
53148W        W16905  16.750  42.477  13.889
53149W        W16906   7.400  36.879  10.569
53150W        W16907  23.584   2.375  11.556
53151W        W16908   4.885  18.266   1.761
53152W        W16909  34.532  40.474   4.279
53153W        W16910  23.226  25.046   2.811
53154W        W16911  36.547  35.547  10.448
53155W        W16912  31.063  15.232   4.834
53156W        W16913  25.542  32.964   4.665
53157W        W16914  33.588  16.774  10.567
53158W        W16915   3.849  29.475  12.049
53159W        W16916   9.393  19.577   2.700
53160W        W16917   6.810   3.343  13.341
53161W        W16918  32.546  30.557   4.147
53162W        W16919  16.248  29.963  10.477
53163W        W16920   5.802   9.283  13.814
53164W        W16921  42.781  44.879   4.297
53165W        W16922  36.359   0.878   5.752
53166W        W16923  27.150   2.798  10.410
53167W        W16924  15.250  14.215   4.143
53168W        W16925  11.282  34.593  14.991
53169W        W16926  37.524   5.325   1.229
53170W        W16927  26.643   1.381   1.411
53171W        W16928  32.917  25.976   2.249
53172W        W16929   0.948   0.845  11.540
53173W        W16930  26.548  35.579  14.422
53174W        W16931  14.759  42.311   1.391
53175W        W16932  36.957  34.946  13.488
53176W        W16933  16.678   6.794   3.713
53177W        W16934  32.000  19.176   1.424
53178W        W16935  43.936  19.768  13.012
53179W        W16936  35.404  29.159   4.689
53180W        W16937   1.916  33.604   3.379
53181W        W16938  42.426  33.399   1.445
53182W        W16939  42.517  22.716   2.282
53183W        W16940  14.125  35.591  11.106
53184W        W16941  24.101   6.320   3.183
53185W        W16942  36.090  20.538  14.819
53186W        W16943  43.945  26.507   3.357
53187W        W16944  24.616  12.174  12.019
53188W        W16945  40.879  27.119  12.358
53189W        W16946  11.719  39.906   4.670
53190W        W16947   9.736   6.363  12.995
53191W        W16948   9.354  27.101  13.859
53192W        W16949  42.800  31.968   0.460
53193W        W16950  44.394  10.218  12.341
53194W        W16951   2.752   7.386   1.736
53195W        W16952  41.821  12.232  11.917
53196W        W16953  19.198   0.301   3.381
53197W        W16954  36.091  28.123   4.628
53198W        W16955   5.890  15.247   1.901
53199W        W16956   9.267  20.212  11.899
53200W        W16957   5.705  33.026   2.889
53201W        W16958  44.917  38.949  12.938
53202W        W16959  13.127  36.403  11.083
53203W        W16960  29.437  27.999   3.803
53204W        W16961  42.013  35.528   4.694
53205W        W16962   8.863   8.330  13.425
53206W        W16963   5.311  21.247  10.453
53207W        W16964  28.121  27.478  10.009
53208W        W16965   2.347   1.967  10.434
53209W        W16966   0.776  10.172  10.627
53210W        W16967   2.432  29.109   2.862
53211W        W16968   7.196  24.165  13.375
53212W        W16969   9.808   9.827   2.885
53213W        W16970  31.503  41.391  13.321
53214W        W16971  30.644  18.740  12.510
53215W        W16972   3.359  44.821  13.347
53216W        W16973   1.398  38.424   3.670
53217W        W16974  35.106  17.617  12.948
53218W        W16975  25.593   8.791   1.357
53219W        W16976  36.420  33.390   3.776
53220W        W16977  20.201  27.134   3.222
53221W        W16978  18.079   8.772   4.336
53222W        W16979   5.393  44.391   0.447
53223W        W16980  18.644  22.094  11.424
53224W        W16981   0.808  26.519  14.313
53225W        W16982  23.656  24.169   0.264
53226W        W16983   4.799  29.068  13.964
53227W        W16984   4.717  38.434   9.946
53228W        W16985   4.911   6.742  14.964
53229W        W16986  29.551  12.647   1.339
53230W        W16987  18.238  17.246  14.977
53231W        W16988  36.976  36.513   3.795
53232W        W16989   7.874  43.284   0.330
53233W        W16990  20.655  25.020  13.519
53234W        W16991  23.492  18.674   3.851
53235W        W16992   8.773  21.654  12.521
53236W        W16993   2.347  14.817  12.884
53237W        W16994  27.125   9.657  13.365
53238W        W16995  21.143  20.600  10.961
53239W        W16996  39.471  17.091   2.333
53240W        W16997  27.116  42.986   1.358
53241W        W16998  18.587  12.682  10.080
53242W        W16999  16.168  12.266  14.436
53243W        W17000  19.560  39.413   1.404
53244W        W17001   2.229  32.936   2.747
53245W        W17002   3.923  42.481   3.791
53246W        W17003  32.532  28.461   2.284
53247W        W17004   9.310   8.793  10.501
53248W        W17005  16.676  24.658   2.691
53249W        W17006  18.659  11.720  12.447
53250W        W17007   7.803  12.349   1.773
53251W        W17008  14.200  24.128   1.431
53252W        W17009   0.400  32.123   3.687
53253W        W17010   0.274  41.475  12.982
53254W        W17011  29.018  42.456   0.331
53255W        W17012  44.352   4.311  14.494
53256W        W17013  28.654   6.268  14.451
53257W        W17014  38.423   5.432  12.350
53258W        W17015  19.611  32.437  10.541
53259W        W17016  19.250  12.248   1.273
53260W        W17017   3.752   4.907   4.808
53261W        W17018  39.000  11.316  11.098
53262W        W17019   3.318  40.429  11.442
53263W        W17020  39.359  40.993  14.496
53264W        W17021   7.244   0.371   1.841
53265W        W17022  39.989  26.603  14.846
53266W        W17023   1.455  16.125   4.790
53267W        W17024   9.274  37.496  10.474
53268W        W17025   2.464  25.995  12.930
53269W        W17026  21.665   3.893   4.153
53270W        W17027  36.437   0.767  10.122
53271W        W17028  28.935  44.871   4.797
53272W        W17029  35.958  16.743  11.401
53273W        W17030  32.142   1.899   1.411
53274W        W17031  32.450   8.789   1.895
53275W        W17032  43.392  24.535   1.420
53276W        W17033   3.948  37.353  13.855
53277W        W17034  17.599  42.382  13.904
53278W        W17035  42.911  27.625   9.968
53279W        W17036  36.488   1.268   3.235
53280W        W17037  16.150  19.222   1.234
53281W        W17038   6.352   1.342   0.270
53282W        W17039  28.934  25.120  10.502
53283W        W17040  22.079   6.843   4.716
53284W        W17041  28.550  24.596  11.956
53285W        W17042  34.876  12.708  12.339
53286W        W17043  40.331  44.381  12.543
53287W        W17044  35.090  23.004   0.833
53288W        W17045  31.413   9.210   3.248
53289W        W17046   6.879   5.727  12.899
53290W        W17047  14.176   9.677   1.434
53291W        W17048  30.080  32.516   3.278
53292W        W17049  17.116  37.060  13.351
53293W        W17050   8.264  32.053   1.885
53294W        W17051  29.546  25.013  10.916
53295W        W17052  14.792  22.168   2.224
53296W        W17053   6.854  20.701  13.872
53297W        W17054  25.171   5.348  14.847
53298W        W17055  13.326  21.746   4.179
53299W        W17056  15.213   3.390   1.744
53300W        W17057  37.042   4.360  10.593
53301W        W17058  23.679  10.710  10.526
53302W        W17059  26.595  34.372  10.558
53303W        W17060  36.417   8.290  14.935
53304W        W17061  36.020  14.669  12.399
53305W        W17062  18.711  22.132  13.324
53306W        W17063  36.071  34.056  14.285
53307W        W17064  25.604  29.948  12.564
53308W        W17065   4.355   9.157  11.601
53309W        W17066   5.387  17.752  13.527
53310W        W17067  23.084  31.120  11.877
53311W        W17068  30.414  16.220   1.765
53312W        W17069  19.117  29.020   1.770
53313W        W17070  13.224   0.912  14.890
53314W        W17071  39.549  38.356  11.110
53315W        W17072   5.412   5.231  10.562
53316W        W17073  22.717  28.964  12.084
53317W        W17074  19.274  30.059  12.869
53318W        W17075  13.214  40.307   5.125
53319W        W17076  11.839  15.290   3.199
53320W        W17077   8.795  37.455  10.599
53321W        W17078   7.711  32.555   1.421
53322W        W17079   0.960  37.503  14.467
53323W        W17080  18.750  17.090  14.987
53324W        W17081  34.378   3.928   4.302
53325W        W17082  13.114  33.097  12.521
53326W        W17083  31.116  28.496   3.684
53327W        W17084   2.311   2.802   3.856
53328W        W17085  35.921  27.128   1.308
53329W        W17086  15.134  10.318   0.785
53330W        W17087  31.621  34.991  11.998
53331W        W17088  23.998  30.102   4.147
53332W        W17089  25.161  23.511  11.011
53333W        W17090   7.269  25.200   0.935
53334W        W17091   9.392  30.163  14.898
53335W        W17092  12.799  10.852  12.979
53336W        W17093  37.836  44.262   0.726
53337W        W17094   6.369   4.255  13.898
53338W        W17095  20.270   6.874  13.836
53339W        W17096  21.042   8.257   1.305
53340W        W17097  24.575  35.085  11.021
53341W        W17098  10.184  31.460   0.282
53342W        W17099  26.693   2.916  14.445
53343W        W17100  27.028  16.572   1.428
53344W        W17101  36.928   1.354  10.157
53345W        W17102   6.357  28.502   0.402
53346W        W17103  26.019  38.068   4.668
53347W        W17104  19.596  17.121   2.217
53348W        W17105  36.842  44.759  12.516
53349W        W17106  23.098  40.009  10.524
53350W        W17107  26.636  22.743  11.933
53351W        W17108   0.482  23.995   3.760
53352W        W17109  24.118  41.922  14.829
53353W        W17110   2.889  29.441  11.081
53354W        W17111  24.003  41.524   1.768
53355W        W17112   0.271   0.476  10.538
53356W        W17113  25.105  20.146  11.083
53357W        W17114  19.599  29.426   0.915
53358W        W17115  14.818  15.260  14.515
53359W        W17116  12.287  27.104   0.426
53360W        W17117  39.390  39.432   3.267
53361W        W17118  31.592  23.998   4.763
53362W        W17119  23.995   9.877   4.274
53363W        W17120  39.925   7.716  11.457
53364W        W17121  14.223   0.744   5.168
53365W        W17122  42.963  44.500  12.387
53366W        W17123  12.648   7.344  13.812
53367W        W17124  34.379  43.840   2.336
53368W        W17125  15.306  19.694   4.811
53369W        W17126  27.582  43.500  12.569
53370W        W17127  13.782  27.020  10.623
53371W        W17128  21.111   8.694   3.262
53372W        W17129  27.487  34.114   0.889
53373W        W17130  17.233  25.011  13.922
53374W        W17131  21.522   4.777  14.896
53375W        W17132  27.503  42.328  12.012
53376W        W17133  43.480  18.643  10.528
53377W        W17134  37.553   8.222   4.659
53378W        W17135  35.446  34.983   2.667
53379W        W17136  32.561  14.265   4.782
53380W        W17137   9.243  32.491   3.340
53381W        W17138  31.615  15.234   2.710
53382W        W17139  18.655  19.142  11.030
53383W        W17140  27.527  38.383   4.613
53384W        W17141  22.573   7.820  12.925
53385W        W17142  20.063  39.868  10.631
53386W        W17143  30.651  44.449   4.738
53387W        W17144  16.797  34.445  14.783
53388W        W17145  31.596  23.717   1.917
53389W        W17146   7.297  10.808  11.880
53390W        W17147  33.593  38.879  10.436
53391W        W17148   5.783  24.209   3.678
53392W        W17149  42.333  36.959   0.370
53393W        W17150  38.907  30.934  14.912
53394W        W17151  21.192  34.558   5.287
53395W        W17152  20.559  25.126  12.086
53396W        W17153   6.271   0.272  13.926
53397W        W17154  34.073  13.638   4.172
53398W        W17155  28.564   7.319  12.053
53399W        W17156  38.003   4.232   2.750
53400W        W17157   5.780  43.369  14.881
53401W        W17158  21.256  42.434   1.225
53402W        W17159  25.074  19.249  13.962
53403W        W17160  20.069  40.466  11.112
53404W        W17161  32.896  27.634   0.922
53405W        W17162   9.774  28.595   3.176
53406W        W17163  17.770  36.934   0.943
53407W        W17164  32.951  11.838  14.385
53408W        W17165  19.203  36.048  11.544
53409W        W17166  38.821  12.310   2.822
53410W        W17167  28.106  33.995  13.936
53411W        W17168   9.306   4.347   4.128
53412W        W17169  27.974  44.279  14.797
53413W        W17170  27.036   9.302  11.083
53414W        W17171  36.854  29.027  10.948
53415W        W17172  35.524   7.258  10.902
53416W        W17173   8.722  33.885   2.747
53417W        W17174  31.543   2.739   1.328
53418W        W17175   9.359   6.791  11.112
53419W        W17176   3.782  28.608  13.382
53420W        W17177  11.273  26.660   1.271
53421W        W17178   2.776  36.441   0.286
53422W        W17179  37.449  44.932   4.706
53423W        W17180  28.443  44.386   2.234
53424W        W17181  31.042   8.245  14.414
53425W        W17182  28.623  44.505   1.739
53426W        W17183   0.472  43.833   4.273
53427W        W17184  42.776  19.063  12.489
53428W        W17185  31.416  10.712  10.499
53429W        W17186  22.550  21.595  14.026
53430W        W17187  30.414  35.476  12.835
53431W        W17188   7.353   9.655   4.703
53432W        W17189  23.158  37.404  12.418
53433W        W17190  28.619   0.866  10.895
53434W        W17191  31.628  33.922   0.252
53435W        W17192  26.978  11.805  14.953
53436W        W17193  34.008  18.167   2.850
53437W        W17194  33.080  23.581  11.010
53438W        W17195  35.364  43.801  10.547
53439W        W17196  12.646  17.708  11.381
53440W        W17197  30.509   9.655  12.860
53441W        W17198  36.411   5.388   2.901
53442W        W17199  23.577  44.890  12.517
53443W        W17200   4.373  43.904   5.710
53444W        W17201   9.880   0.818   3.846
53445W        W17202  35.962   0.889  13.876
53446W        W17203  18.251  38.487   4.775
53447W        W17204  39.485  10.174  14.005
53448W        W17205  29.510  44.936   0.442
53449W        W17206   7.885  27.173   0.322
53450W        W17207  40.975  10.672  10.629
53451W        W17208   9.683  38.544   2.790
53452W        W17209  40.423  22.521  12.891
53453W        W17210  13.712  24.609   0.760
53454W        W17211   0.435  25.504  11.913
53455W        W17212  40.982  36.463   0.303
53456W        W17213  34.896   9.864  12.933
53457W        W17214  41.853  27.135   3.285
53458W        W17215  39.939  20.246   1.292
53459W        W17216  31.541  21.579  13.983
53460W        W17217  43.334   8.687   4.643
53461W        W17218  15.312  41.458   2.412
53462W        W17219  44.973   2.439  13.974
53463W        W17220   4.334  14.740   1.846
53464W        W17221  12.155  32.937   0.364
53465W        W17222  42.295  40.459  10.443
53466W        W17223  33.968  41.907  11.956
53467W        W17224  27.198  26.180  11.436
53468W        W17225  23.193   6.409   1.759
53469W        W17226   9.286  30.159   3.271
53470W        W17227  43.510  34.980   2.410
53471W        W17228  42.852  19.733   2.835
53472W        W17229  22.662  38.444   2.884
53473W        W17230  19.267  32.904  13.982
53474W        W17231  28.670  27.977  13.968
53475W        W17232   4.931  13.826   3.791
53476W        W17233  26.651  12.637  10.009
53477W        W17234   5.853  38.043   1.886
53478W        W17235  11.640  34.592  12.472
53479W        W17236  17.130   5.812  10.147
53480W        W17237   9.295  11.190   3.301
53481W        W17238   9.758  21.212   0.465
53482W        W17239  26.575  18.219   3.831
53483W        W17240  31.542  38.858   0.750
53484W        W17241   6.744  17.735   3.352
53485W        W17242  38.548  33.440   3.368
53486W        W17243  32.102  15.599   4.294
53487W        W17244  34.385  31.403   0.945
53488W        W17245  44.444  18.154  10.088
53489W        W17246  35.604   4.910  14.781
53490W        W17247   4.701  22.704  12.568
53491W        W17248   7.865   9.749   3.637
53492W        W17249  13.270   7.795   0.944
53493W        W17250  34.455   9.166   1.309
53494W        W17251  32.113  17.761  11.543
53495W        W17252   5.333   2.310  14.898
53496W        W17253  33.944   9.263  13.495
53497W        W17254   9.255  21.082   4.677
53498W        W17255  15.287  27.998  10.522
53499W        W17256  15.135   4.308   3.301
53500W        W17257   2.232   2.851   1.763
53501W        W17258  30.931  17.666  14.022
53502W        W17259  12.811   6.824  10.607
53503W        W17260  15.714   8.169   9.924
53504W        W17261  11.650  40.356  11.966
53505W        W17262  36.394  13.224   3.667
53506W        W17263  27.063  40.368  11.891
53507W        W17264   4.372  23.596  10.562
53508W        W17265  23.713  24.997  13.954
53509W        W17266  12.290   9.883  10.571
53510W        W17267  20.192  32.111  10.568
53511W        W17268  31.981  30.539  13.959
53512W        W17269  31.635  23.208   2.348
53513W        W17270  32.120  34.370   0.734
53514W        W17271  24.695   5.409   1.843
53515W        W17272  15.626  35.046  14.778
53516W        W17273  11.358  17.161  11.489
53517W        W17274  29.137   6.359  13.909
53518W        W17275   3.880  16.668   1.449
53519W        W17276  24.657  18.715   0.395
53520W        W17277  13.221  12.760   5.307
53521W        W17278  44.503  40.822  13.358
53522W        W17279  26.469   2.246   0.417
53523W        W17280   7.227   9.155  10.451
53524W        W17281   9.184  18.676  10.971
53525W        W17282  24.035   8.702  12.364
53526W        W17283  35.578  43.456   0.826
53527W        W17284  20.186  14.612  10.911
53528W        W17285  33.098  11.193  11.074
53529W        W17286  31.148   4.363  10.979
53530W        W17287   9.227  42.439   1.437
53531W        W17288   3.786  34.909   2.730
53532W        W17289   9.804  41.362   0.309
53533W        W17290  40.897  26.033  14.419
53534W        W17291  41.911   5.703   0.309
53535W        W17292  33.593  29.123   5.226
53536W        W17293  32.421  38.395  13.425
53537W        W17294  12.765   7.377   2.878
53538W        W17295  13.206  18.226  14.905
53539W        W17296  35.507  32.483  12.509
53540W        W17297  29.505   8.250  11.934
53541W        W17298  35.088  34.513  14.954
53542W        W17299   1.416   9.667   0.737
53543W        W17300  33.594   8.879   2.679
53544W        W17301  44.392  24.211   2.211
53545W        W17302  44.973   3.315  10.582
53546W        W17303  44.497  30.559  12.405
53547W        W17304  41.989  12.215  13.046
53548W        W17305   0.295  16.588  13.370
53549W        W17306  43.009  22.538   2.210
53550W        W17307  35.383  33.032  13.416
53551W        W17308  41.475  19.084  14.830
53552W        W17309  41.926  14.653  11.937
53553W        W17310  17.251   6.755   1.335
53554W        W17311  30.022  34.033  14.363
53555W        W17312  21.089  23.008  11.029
53556W        W17313  36.098  12.262   0.802
53557W        W17314  24.120  43.281   0.266
53558W        W17315   2.807  29.490   0.790
53559W        W17316  41.989  30.648  12.414
53560W        W17317  43.499  44.913  10.913
53561W        W17318  34.104  34.909  10.994
53562W        W17319  10.872   4.406  11.869
53563W        W17320  20.177  11.293  13.415
53564W        W17321  36.459  42.304   1.906
53565W        W17322  15.257  33.085   4.649
53566W        W17323  11.288  31.484  12.510
53567W        W17324   4.249  27.472  12.402
53568W        W17325   2.377  34.544   0.374
53569W        W17326  40.934  30.990  13.497
53570W        W17327   4.361   5.793  12.348
53571W        W17328  42.412  21.079  10.559
53572W        W17329  33.905   7.766   3.806
53573W        W17330   6.816   0.789  10.990
53574W        W17331  40.521  41.461  13.320
53575W        W17332   1.382   5.895   4.139
53576W        W17333  35.473  13.253   3.718
53577W        W17334  20.107  26.168  13.504
53578W        W17335  30.514  32.132  13.476
53579W        W17336  25.508  19.725   9.973
53580W        W17337   3.785  18.283  11.968
53581W        W17338  38.852  28.563  11.936
53582W        W17339  29.012  23.075   5.136
53583W        W17340   2.438  31.090  13.548
53584W        W17341  12.349  26.673  11.118
53585W        W17342  31.596  29.049  11.571
53586W        W17343  29.654  16.637  13.944
53587W        W17344   6.309   2.818  14.852
53588W        W17345  31.052   7.212  12.490
53589W        W17346  42.926  42.320   1.243
53590W        W17347  37.499  29.013   4.169
53591W        W17348  13.286   5.197  11.526
53592W        W17349  34.545  12.760   2.246
53593W        W17350   2.327  27.590   3.220
53594W        W17351  26.624  30.038   1.695
53595W        W17352  41.855  39.938  14.470
53596W        W17353  31.613  26.206   0.957
53597W        W17354  13.664  30.975  13.477
53598W        W17355  18.584   4.912  14.367
53599W        W17356   8.852  44.489   4.768
53600W        W17357  12.362  18.292   4.125
53601W        W17358  41.878  10.185   3.743
53602W        W17359  32.070  17.670   2.256
53603W        W17360  16.706  29.611   3.174
53604W        W17361   6.805  38.901   0.377
53605W        W17362  22.118  15.636   3.380
53606W        W17363  10.795  20.138  14.367
53607W        W17364  26.543  38.050  14.377
53608W        W17365  16.575  17.564  14.814
53609W        W17366   1.773  35.603   1.214
53610W        W17367  41.516  12.799  11.425
53611W        W17368  10.650  21.610  12.899
53612W        W17369   1.770  13.115   3.717
53613W        W17370  17.664  36.005   4.267
53614W        W17371  23.579   6.715  13.034
53615W        W17372   8.285  31.912   3.360
53616W        W17373  27.154  27.638   1.267
53617W        W17374   9.848  25.175  12.453
53618W        W17375  25.052   5.386  13.400
53619W        W17376   3.760  22.174  11.042
53620W        W17377  12.806  14.834   2.230
53621W        W17378  29.924  23.132  14.315
53622W        W17379  21.181  35.587  10.936
53623W        W17380  31.144   0.840  12.039
53624W        W17381  25.154   7.351   2.244
53625W        W17382  24.723  21.669   2.399
53626W        W17383  33.464  26.650   1.710
53627W        W17384  38.928  34.499  14.852
53628W        W17385  39.824  30.484  11.886
53629W        W17386  32.490   4.932  12.406
53630W        W17387  10.257   7.786   4.735
53631W        W17388  38.036  42.432   2.774
53632W        W17389   1.463  30.624  14.783
53633W        W17390  42.505  25.616   0.456
53634W        W17391  15.220  17.657  13.316
53635W        W17392  31.034  20.548   0.829
53636W        W17393  12.211  20.711  11.582
53637W        W17394  10.713  32.953   3.173
53638W        W17395  25.058  14.338  12.035
53639W        W17396   7.219   7.875  13.526
53640W        W17397   8.733  11.868  14.893
53641W        W17398  30.059  18.171   1.416
53642W        W17399   8.812   6.350   2.895
53643W        W17400  27.025  30.916   2.715
53644W        W17401   7.300  10.811   3.170
53645W        W17402   8.735  29.445  11.000
53646W        W17403  34.500   8.366  11.037
53647W        W17404  22.535  38.929  14.438
53648W        W17405  33.913   4.363  10.057
53649W        W17406  23.515  39.487   2.724
53650W        W17407  33.932  43.927  11.048
53651W        W17408  12.146  41.532   1.865
53652W        W17409  14.196   9.837   3.740
53653W        W17410  16.080  44.492   0.737
53654W        W17411  20.179  41.975  10.923
53655W        W17412  10.147   4.768  11.873
53656W        W17413  42.851   9.780  13.443
53657W        W17414  43.977  34.108  11.401
53658W        W17415  31.433  18.551   2.327
53659W        W17416  22.679  16.648  11.985
53660W        W17417  18.672  18.205  14.932
53661W        W17418  28.129  22.055  14.890
53662W        W17419   4.875  20.615  14.508
53663W        W17420  12.247  17.075  14.398
53664W        W17421  42.503  11.171  14.287
53665W        W17422  31.543  30.047  14.479
53666W        W17423  40.382  18.255  11.588
53667W        W17424  19.676  20.608   4.822
53668W        W17425  17.189  15.714   3.764
53669W        W17426   4.443  21.153   4.770
53670W        W17427  37.577  38.383  10.592
53671W        W17428  27.634  38.872   2.230
53672W        W17429  19.622  38.013  10.562
53673W        W17430  15.727  14.747  13.056
53674W        W17431   0.430  15.770  13.879
53675W        W17432  31.998  26.686  14.299
53676W        W17433  13.144  37.020  10.427
53677W        W17434   9.334  31.931  10.426
53678W        W17435   6.365   4.744  11.543
53679W        W17436  27.675  23.088  13.441
53680W        W17437  17.236   9.876   0.360
53681W        W17438  31.923  43.960   1.793
53682W        W17439   1.454  12.342   0.750
53683W        W17440  14.768  19.554   4.316
53684W        W17441   8.301   9.676   3.348
53685W        W17442   2.881  33.958   2.402
53686W        W17443  17.237  42.457   2.179
53687W        W17444  36.530  22.707   5.229
53688W        W17445  29.060  41.325  12.462
53689W        W17446  11.268   2.244   0.855
53690W        W17447  16.196  35.532   1.918
53691W        W17448  29.484   9.688   3.832
53692W        W17449  24.034   2.915  12.823
53693W        W17450  34.917  10.701  12.086
53694W        W17451  13.640  43.783   2.354
53695W        W17452  26.000  35.492  13.808
53696W        W17453  39.540   8.370  10.456
53697W        W17454  39.360  34.899  11.588
53698W        W17455  15.665  36.973   4.126
53699W        W17456   7.792  19.106   0.749
53700W        W17457   7.248  24.541  12.561
53701W        W17458   7.900  25.217   2.401
53702W        W17459  39.977  39.925   3.371
53703W        W17460  26.525   8.162   1.733
53704W        W17461  41.971  27.042  12.371
53705W        W17462  37.418  14.654  11.431
53706W        W17463   6.399  39.842  11.451
53707W        W17464  23.046  35.481  12.961
53708W        W17465  40.445  27.600   2.895
53709W        W17466  24.660   4.214  14.291
53710W        W17467  38.901  14.337   9.996
53711W        W17468   2.930  37.983  11.504
53712W        W17469  33.020  25.154  10.583
53713W        W17470  44.008   3.329  11.865
53714W        W17471  27.450  24.195   3.733
53715W        W17472  23.624  26.097  12.442
53716W        W17473   5.918  40.892   3.232
53717W        W17474   5.734  24.604  13.467
53718W        W17475  32.111  32.520   0.376
53719W        W17476   5.800  30.028   1.218
53720W        W17477  27.672  23.664  12.579
53721W        W17478  38.897  11.790  14.408
53722W        W17479   5.239  42.804   1.322
53723W        W17480   0.765  13.708  14.855
53724W        W17481  33.012  30.914   1.915
53725W        W17482  17.223  26.486   5.286
53726W        W17483  11.223  10.224   3.186
53727W        W17484  27.581  11.283  14.453
53728W        W17485  36.939  32.538   1.711
53729W        W17486  40.848  40.887  14.807
53730W        W17487  41.425   4.404  14.951
53731W        W17488  32.076  11.273   2.416
53732W        W17489  23.992  30.952   2.309
53733W        W17490  39.531   5.415  14.449
53734W        W17491   1.290  32.574   1.417
53735W        W17492  19.206   0.947   1.305
53736W        W17493  41.532  20.597   1.774
53737W        W17494   4.869  41.507  11.122
53738W        W17495  35.008  15.675  14.029
53739W        W17496   8.844  24.597  14.977
53740W        W17497   1.747  40.942  10.577
53741W        W17498  34.080   8.794  14.940
53742W        W17499  21.742  23.577   2.826
53743W        W17500  19.639  31.067   3.372
53744W        W17501  37.446  40.459  10.478
53745W        W17502  19.099   9.781  12.442
53746W        W17503  32.551  33.125   3.386
53747W        W17504   9.743  39.530   1.706
53748W        W17505  32.498   5.352  12.086
53749W        W17506  23.205   1.410   3.701
53750W        W17507  30.511  20.625  14.848
53751W        W17508  36.064  30.534   3.165
53752W        W17509  13.677  23.550   2.364
53753W        W17510  37.562   1.915   1.264
53754W        W17511  32.409   7.680   4.157
53755W        W17512  32.501  36.877   0.348
53756W        W17513  12.624  32.140  11.392
53757W        W17514  30.117  22.233  13.909
53758W        W17515  41.984  23.620   2.402
53759W        W17516  31.527  23.611   2.680
53760W        W17517  12.730  26.577   2.735
53761W        W17518   5.412  44.386   3.804
53762W        W17519   4.384  31.079  11.082
53763W        W17520  41.893  23.594   3.164
53764W        W17521  32.421   5.860  14.830
53765W        W17522   3.891  41.338   1.403
53766W        W17523   2.896   9.888  13.312
53767W        W17524  41.500  42.432  13.410
53768W        W17525  44.003  17.601  13.865
53769W        W17526  26.203  40.944   4.758
53770W        W17527   2.433   2.762   2.319
53771W        W17528  43.357   8.710  13.063
53772W        W17529   2.880  18.729  14.383
53773W        W17530  14.831  36.415   1.432
53774W        W17531  43.381  41.308   0.806
53775W        W17532  19.552  42.357   0.805
53776W        W17533  17.641  38.900   1.765
53777W        W17534  20.098  18.645   0.340
53778W        W17535   3.429  21.587   1.919
53779W        W17536  44.848  29.603  13.933
53780W        W17537  12.303   2.840  10.587
53781W        W17538   6.900  24.046   3.339
53782W        W17539  39.550   2.875  13.944
53783W        W17540   8.268   3.313  13.503
53784W        W17541  39.915  12.148   1.326
53785W        W17542  30.569  40.892  12.562
53786W        W17543  33.006  17.687  13.988
53787W        W17544  32.422  33.985   1.789
53788W        W17545   4.812  33.948  13.910
53789W        W17546   6.251  18.780  14.350
53790W        W17547  22.504  26.503   0.331
53791W        W17548   5.391   4.387  12.502
53792W        W17549  38.368  24.520  11.596
53793W        W17550  24.541  26.525   4.292
53794W        W17551  27.125  27.049   0.738
53795W        W17552  23.495  15.620  12.948
53796W        W17553  37.567  43.373  11.098
53797W        W17554  30.028  39.385   2.415
53798W        W17555   4.841  23.151  14.923
53799W        W17556  12.136   0.784   4.204
53800W        W17557  31.125  39.353  11.033
53801W        W17558  35.429  38.484   4.204
53802W        W17559  36.907  40.939   4.681
53803W        W17560  25.558  33.606  13.982
53804W        W17561  29.444  31.534  11.509
53805W        W17562  10.297   5.407  14.302
53806W        W17563  21.205  35.590  14.428
53807W        W17564  44.419   9.317  14.495
53808W        W17565  36.013  42.995  10.579
53809W        W17566  10.729  10.261   0.474
53810W        W17567  10.155   1.476  14.804
53811W        W17568   4.772  25.973  12.932
53812W        W17569  36.934  24.541   3.360
53813W        W17570  10.373   9.690   4.190
53814W        W17571  35.559  30.474   3.154
53815W        W17572  28.606   2.722   3.284
53816W        W17573  22.021  11.249   0.734
53817W        W17574  13.703  28.497  10.486
53818W        W17575   5.887   1.746  11.942
53819W        W17576  19.081  11.800  13.468
53820W        W17577  20.660  24.631   4.600
53821W        W17578   6.772  36.561   2.346
53822W        W17579  42.285   5.259  12.910
53823W        W17580  32.580  18.102   2.670
53824W        W17581  34.036  43.796   2.679
53825W        W17582  28.141  12.182  14.902
53826W        W17583  10.760   0.295  11.537
53827W        W17584  38.976  23.165  14.345
53828W        W17585  10.212  33.920   0.461
53829W        W17586  27.565  11.154   1.259
53830W        W17587  15.262  43.326   4.684
53831W        W17588  33.000  36.535  12.843
53832W        W17589  29.589  36.572  11.875
53833W        W17590   1.319  26.968   3.713
53834W        W17591  33.480  20.712  12.499
53835W        W17592  14.792  31.620  14.344
53836W        W17593  44.422  31.407  13.334
53837W        W17594  21.120  32.975  12.004
53838W        W17595  15.736  28.015   1.450
53839W        W17596  19.061   4.923  14.392
53840W        W17597  23.692   1.462   2.210
53841W        W17598  30.476  11.221  14.352
53842W        W17599  19.162  36.572   4.659
53843W        W17600  12.751  39.905  14.434
53844W        W17601  35.855  40.956  11.530
53845W        W17602  26.565   6.335   3.228
53846W        W17603  36.955  21.241  14.855
53847W        W17604  26.678   7.221   9.948
53848W        W17605  32.534  16.638   3.735
53849W        W17606  11.805  17.571  12.344
53850W        W17607   9.698  19.220   4.310
53851W        W17608  23.999  37.345  14.025
53852W        W17609   7.894  22.143   0.354
53853W        W17610  19.762   9.337   3.685
53854W        W17611  19.171  20.534   3.184
53855W        W17612  42.999  25.176   3.258
53856W        W17613  43.402  43.314   3.801
53857W        W17614  39.326   9.331  13.053
53858W        W17615  27.624  28.149  12.902
53859W        W17616  33.938  41.880   0.249
53860W        W17617  34.035  35.025   0.829
53861W        W17618  41.512   0.447   4.678
53862W        W17619  44.882  17.609   1.418
53863W        W17620   5.765  20.581   3.798
53864W        W17621  36.566  11.772   0.274
53865W        W17622   1.380   1.368   1.865
53866W        W17623   1.967  13.721  13.820
53867W        W17624   5.270  13.685   3.369
53868W        W17625  19.630  12.293  13.845
53869W        W17626  35.936  32.058   2.666
53870W        W17627   0.446  41.347   4.166
53871W        W17628  15.749  18.648   2.228
53872W        W17629  15.102   4.895   3.228
53873W        W17630  30.075   4.754  12.571
53874W        W17631  32.471   1.943  11.483
53875W        W17632   1.805   6.792  10.540
53876W        W17633  24.118  18.192   3.641
53877W        W17634  22.189  21.628   0.414
53878W        W17635  26.585  28.995  11.429
53879W        W17636  26.015  43.440  13.987
53880W        W17637  32.946  16.116  10.982
53881W        W17638   0.844  11.263   2.418
53882W        W17639   1.477  32.975  12.536
53883W        W17640  44.964  41.420  14.512
53884W        W17641  29.074   1.757  13.050
53885W        W17642  39.915   2.365   2.361
53886W        W17643  29.106  13.154   1.823
53887W        W17644  14.784   9.842  14.297
53888W        W17645  21.612  23.193   3.658
53889W        W17646  17.217  16.206  10.887
53890W        W17647   4.705  37.896   2.290
53891W        W17648  11.717  42.805  13.358
53892W        W17649  14.339  13.177  10.916
53893W        W17650  21.699   7.755   4.756
53894W        W17651  29.603  43.428  10.484
53895W        W17652  20.597   4.702   0.362
53896W        W17653  35.437   6.813   4.116
53897W        W17654  12.702  21.717   0.471
53898W        W17655  25.639  16.637   1.451
53899W        W17656  34.875  35.859  13.426
53900W        W17657  25.491  26.206   4.189
53901W        W17658  26.969  25.103   4.157
53902W        W17659  39.405   6.274  10.510
53903W        W17660  26.620   5.342  13.494
53904W        W17661  18.787  23.212  11.103
53905W        W17662  29.139  26.134  13.468
53906W        W17663  26.071  43.791   0.244
53907W        W17664  26.539   9.716  13.478
53908W        W17665  10.742   2.392   0.823
53909W        W17666  16.273  13.212   0.427
53910W        W17667  25.566  11.686  12.867
53911W        W17668  29.083  21.514  12.491
53912W        W17669   1.273  40.337  11.058
53913W        W17670  29.652  39.968  10.443
53914W        W17671  39.868  41.320  14.469
53915W        W17672  18.702  17.084   0.436
53916W        W17673  11.779  32.049  13.352
53917W        W17674  27.966  22.610  11.972
53918W        W17675  18.249   3.934   2.276
53919W        W17676  26.664  27.985   1.826
53920W        W17677  19.703  19.119  13.331
53921W        W17678  32.552  33.077   0.738
53922W        W17679  26.615  26.477  10.586
53923W        W17680   2.724  21.619   3.701
53924W        W17681   2.950  20.719  10.960
53925W        W17682  38.050  32.908  14.030
53926W        W17683  25.707  19.057  14.001
53927W        W17684  37.405   7.724  10.489
53928W        W17685  28.952  33.031   1.328
53929W        W17686  40.389  17.758  12.025
53930W        W17687  42.516  18.269  13.854
53931W        W17688  15.767  15.269  14.915
53932W        W17689  21.259   3.414   1.818
53933W        W17690   1.481  20.595  13.952
53934W        W17691  34.924  12.736   9.988
53935W        W17692   7.751   8.832   2.284
53936W        W17693  39.355  35.418   2.846
53937W        W17694  10.291   4.447   3.225
53938W        W17695  38.550  19.257   0.304
53939W        W17696  23.206   9.648   2.679
53940W        W17697  26.005  19.594   4.236
53941W        W17698  22.693  43.935  10.472
53942W        W17699  10.841  44.291  13.545
53943W        W17700  40.494  35.515   4.620
53944W        W17701  31.923   8.303  13.348
53945W        W17702  35.561  24.717  10.949
53946W        W17703  22.096  16.228  12.830
53947W        W17704  36.045  44.812  13.929
53948W        W17705   0.419  22.203   1.801
53949W        W17706   2.774  14.753  11.982
53950W        W17707  14.316  32.578   1.933
53951W        W17708  17.652  16.218   9.441
53952W        W17709  23.169   6.307  14.869
53953W        W17710   0.893  13.304  12.469
53954W        W17711  40.938  18.121  13.405
53955W        W17712  32.116  33.104   4.698
53956W        W17713  17.758  31.569   1.730
53957W        W17714  23.616  26.524  12.827
53958W        W17715   9.391  38.976   1.746
53959W        W17716  44.805  37.445   3.822
53960W        W17717   5.900  25.485  14.367
53961W        W17718  11.365  14.156  13.873
53962W        W17719  31.932  11.214   4.618
53963W        W17720  20.135  30.566  10.483
53964W        W17721  29.638  20.764  13.332
53965W        W17722  29.564  43.861   2.347
53966W        W17723   7.863  14.185   3.263
53967W        W17724  42.479  35.397   3.781
53968W        W17725  25.030  32.959   2.790
53969W        W17726  11.720  40.984  14.999
53970W        W17727  32.048  21.545   1.700
53971W        W17728  36.493   2.904  12.464
53972W        W17729  22.553   5.805   1.856
53973W        W17730  13.204  28.151  11.129
53974W        W17731  10.249  27.021   3.631
53975W        W17732  31.573  31.488   3.325
53976W        W17733  31.901   8.704   3.822
53977W        W17734  20.182  37.919   1.859
53978W        W17735   1.398  19.220  13.836
53979W        W17736  11.151  28.569   3.742
53980W        W17737  38.871  42.412   1.261
53981W        W17738   3.384  16.123  11.056
53982W        W17739  10.327  31.465   4.198
53983W        W17740  34.090   4.254   4.747
53984W        W17741  27.114  38.409  12.872
53985W        W17742  38.914  36.978   0.371
53986W        W17743  28.614   9.652  11.609
53987W        W17744   2.267  40.950   3.382
53988W        W17745  12.148  15.265  10.455
53989W        W17746  27.639  41.890   0.957
53990W        W17747  25.683  33.473   2.701
53991W        W17748   8.203  29.168  11.889
53992W        W17749  23.563   9.698   4.775
53993W        W17750  22.095  23.567  11.119
53994W        W17751   4.388  22.008  14.901
53995W        W17752   6.710  43.461  13.873
53996W        W17753  13.792  41.963   5.732
53997W        W17754  18.089  29.150   1.359
53998W        W17755   9.148  21.183  14.361
53999W        W17756  34.529  20.199  10.417
54000W        W17757   5.747  39.408  13.848
54001W        W17758   2.920   9.338   0.247
54002W        W17759  20.580  21.236   0.764
54003W        W17760  15.606  25.170  11.583
54004W        W17761  32.502  10.203   2.311
54005W        W17762  31.473  37.448   2.329
54006W        W17763   2.828  35.943   1.816
54007W        W17764   3.303  43.870   1.800
54008W        W17765   4.867  19.273   3.278
54009W        W17766  32.985   0.913  12.560
54010W        W17767  18.565  24.118  10.527
54011W        W17768  23.074   6.362   9.938
54012W        W17769  21.745  17.562   4.232
54013W        W17770   5.407  27.534  14.469
54014W        W17771   9.654   0.295   2.898
54015W        W17772  31.047   0.448  11.523
54016W        W17773  14.691  31.472   1.421
54017W        W17774  29.128  14.333  12.870
54018W        W17775  20.632  12.636  12.504
54019W        W17776  42.841  26.069   0.911
54020W        W17777   8.839  18.248  14.002
54021W        W17778  10.283  40.984  12.984
54022W        W17779  40.956  40.366  14.770
54023W        W17780  34.089  34.863   3.268
54024W        W17781  44.951  34.398   3.653
54025W        W17782  16.657  12.659   0.867
54026W        W17783   5.216   8.276   3.275
54027W        W17784  36.097  35.047   1.908
54028W        W17785  10.815  40.474  14.858
54029W        W17786  17.733  16.111   3.377
54030W        W17787  18.218  15.760  13.926
54031W        W17788  32.125   3.759  12.095
54032W        W17789  33.048   5.362   0.464
54033W        W17790  20.209  40.822   1.271
54034W        W17791  40.474  27.669  11.410
54035W        W17792  24.104  18.208  10.891
54036W        W17793  18.548  29.460   4.628
54037W        W17794  33.890   7.846   1.342
54038W        W17795  28.493  17.771   3.289
54039W        W17796   9.232  34.438  10.976
54040W        W17797  31.457  34.581  13.061
54041W        W17798  25.505  38.988   5.274
54042W        W17799  27.152  29.508   3.310
54043W        W17800  27.538  39.419  12.390
54044W        W17801   8.686  39.541   3.718
54045W        W17802  17.197  19.754  10.092
54046W        W17803  28.986  11.218  12.077
54047W        W17804   6.885  25.511  13.866
54048W        W17805  22.081   4.714   1.224
54049W        W17806  33.981  10.636   0.927
54050W        W17807  26.971   4.767   4.600
54051W        W17808  41.301  31.073  14.024
54052W        W17809  13.817  13.115  11.980
54053W        W17810  15.717   4.830   0.820
54054W        W17811  27.044  10.208  12.922
54055W        W17812  24.131  10.198  11.408
54056W        W17813  31.002  41.464  10.062
54057W        W17814   0.418   8.730  11.112
54058W        W17815   0.462  42.821  12.836
54059W        W17816  26.013  24.541  12.545
54060W        W17817  15.092  43.830  11.535
54061W        W17818   0.758  11.719   2.814
54062W        W17819  10.206  28.113   5.105
54063W        W17820  25.528   9.384  14.487
54064W        W17821  41.927  38.915  11.860
54065W        W17822  15.188  32.906  14.335
54066W        W17823  14.256  25.107  10.972
54067W        W17824  44.291  13.605  11.420
54068W        W17825  28.547  30.651   4.735
54069W        W17826  12.804   7.804   0.746
54070W        W17827  41.030  39.028   4.800
54071W        W17828   2.254   7.721   3.314
54072W        W17829  42.821   5.743  14.813
54073W        W17830  39.377  39.543   1.407
54074W        W17831  25.610  10.144   2.274
54075W        W17832  41.814  33.408  10.984
54076W        W17833  23.159  22.199  11.973
54077W        W17834   1.299  15.821   4.620
54078W        W17835   0.972   6.686   2.760
54079W        W17836  12.318  42.331   0.382
54080W        W17837  37.432  30.581   3.385
54081W        W17838   3.836  10.717   4.839
54082W        W17839  26.073  15.812  14.297
54083W        W17840   5.902   4.364   1.767
54084W        W17841  35.532  37.021   4.142
54085W        W17842  17.664  16.156   5.599
54086W        W17843  28.997  20.564   4.621
54087W        W17844  14.609  33.393  14.982
54088W        W17845  34.078  23.046  14.799
54089W        W17846  42.418   5.711  13.307
54090W        W17847  23.709  14.658  12.873
54091W        W17848  41.307  30.093   1.822
54092W        W17849  37.940  16.229   0.260
54093W        W17850  20.584  14.323  13.014
54094W        W17851  10.690  30.993   2.406
54095W        W17852   8.888   1.405  14.758
54096W        W17853  22.556  40.009   4.125
54097W        W17854  19.096   9.330   2.861
54098W        W17855   3.855  35.361   4.614
54099W        W17856   4.409  27.085  13.049
54100W        W17857  18.673  36.538  10.515
54101W        W17858  13.736  26.147   2.826
54102W        W17859  23.489   5.245   1.806
54103W        W17860  39.497  19.194  13.484
54104W        W17861   4.847  29.148   2.221
54105W        W17862   8.387   2.227   3.659
54106W        W17863  22.211  31.528  12.557
54107W        W17864  24.709   0.430  12.887
54108W        W17865  18.099  37.084   3.866
54109W        W17866   0.325   2.884  13.408
54110W        W17867  38.509   6.366   1.260
54111W        W17868  26.997  18.276   4.623
54112W        W17869  24.102  33.488   9.618
54113W        W17870  26.015   6.210   1.293
54114W        W17871  15.095   6.350  13.029
54115W        W17872  39.334  34.967  12.886
54116W        W17873  13.833  24.675  12.838
54117W        W17874  33.915  16.588  13.545
54118W        W17875  22.722  28.536   1.935
54119W        W17876  16.157  16.754  11.517
54120W        W17877  15.583  31.095  13.935
54121W        W17878   9.781  35.919  11.549
54122W        W17879  11.862   8.236  10.899
54123W        W17880  40.482   4.431  10.158
54124W        W17881  14.689  24.612   1.777
54125W        W17882  14.142  31.578   1.303
54126W        W17883  19.083  14.148  13.852
54127W        W17884  33.096  24.705  13.867
54128W        W17885  31.060  19.679   2.254
54129W        W17886   5.244  31.592  12.061
54130W        W17887  25.128   7.179  13.377
54131W        W17888  35.864  37.385   0.914
54132W        W17889   6.870  12.162  11.425
54133W        W17890  39.972  25.217   2.316
54134W        W17891   3.436  40.423  10.593
54135W        W17892  18.632  26.178   4.281
54136W        W17893  20.155  22.690  13.049
54137W        W17894  40.958  44.417  11.403
54138W        W17895  17.775  25.012   2.352
54139W        W17896  41.412  39.902  11.111
54140W        W17897  18.617   0.848   0.482
54141W        W17898  38.011  21.142   4.333
54142W        W17899  44.832  13.648   3.183
54143W        W17900  18.594   9.843   0.383
54144W        W17901   2.361  30.117   1.758
54145W        W17902  30.973   8.672  10.443
54146W        W17903  33.079  23.694   1.352
54147W        W17904  15.608  13.303   1.908
54148W        W17905  15.708   6.255  13.341
54149W        W17906  32.414   4.738   2.874
54150W        W17907  28.045   9.235   4.815
54151W        W17908  23.163  36.450  14.346
54152W        W17909   9.205   9.250  12.382
54153W        W17910  25.503  39.409   2.329
54154W        W17911  21.256  10.146  14.766
54155W        W17912  29.131  38.507  12.851
54156W        W17913  39.313  22.556   2.871
54157W        W17914  26.533  43.861  10.420
54158W        W17915  40.039   5.771   0.324
54159W        W17916   4.319   2.352  12.070
54160W        W17917  27.572  18.132   5.687
54161W        W17918  40.907  39.473  14.990
54162W        W17919   4.787   3.781   0.441
54163W        W17920  17.741  26.140  12.450
54164W        W17921  21.114  10.660  10.999
54165W        W17922  24.054   2.934  12.031
54166W        W17923  38.895  11.817  12.577
54167W        W17924  42.820  19.718  12.893
54168W        W17925  17.562   1.910  10.467
54169W        W17926   7.295   8.793  13.887
54170W        W17927  32.477  26.552   2.740
54171W        W17928  32.891  27.957   3.803
54172W        W17929   0.987  11.718  11.884
54173W        W17930  33.422  34.397   1.695
54174W        W17931   1.327  44.898   2.851
54175W        W17932  35.521  13.833  11.869
54176W        W17933  30.959   1.936   4.274
54177W        W17934  23.593  36.955  10.920
54178W        W17935  10.358  36.348   1.739
54179W        W17936   4.931  29.090  11.011
54180W        W17937  38.356  30.036  13.448
54181W        W17938  19.572  40.959   3.366
54182W        W17939   9.376  15.108   4.285
54183W        W17940  12.849  31.947   0.796
54184W        W17941  39.380  38.931  14.374
54185W        W17942  38.948   3.751   1.804
54186W        W17943  20.176   1.391  10.448
54187W        W17944  24.071  15.813   1.232
54188W        W17945   6.313  30.510  10.143
54189W        W17946  17.608  19.724   2.813
54190W        W17947  20.636  30.570   1.296
54191W        W17948   3.266  21.190   0.798
54192W        W17949  15.172  15.148  12.077
54193W        W17950   5.813   8.315  12.578
54194W        W17951  11.650   1.844  10.971
54195W        W17952  15.120  35.435   0.306
54196W        W17953  15.666  31.926  10.445
54197W        W17954  27.573  37.358  11.109
54198W        W17955  36.963  18.655   3.733
54199W        W17956  29.044  22.131  13.536
54200W        W17957  43.435  30.654   5.133
54201W        W17958  23.234  19.188  14.960
54202W        W17959  32.515  29.990  14.826
54203W        W17960  15.602  29.163   1.447
54204W        W17961  22.088  26.053   1.882
54205W        W17962  21.103  20.554  12.082
54206W        W17963  27.978   0.931   4.776
54207W        W17964  33.437  15.244   2.900
54208W        W17965  16.694  41.329  14.471
54209W        W17966  13.144  26.074  14.866
54210W        W17967  13.834  17.107  11.059
54211W        W17968  31.080  16.316  11.449
54212W        W17969  41.828  32.047  13.443
54213W        W17970  30.133  28.112   3.206
54214W        W17971  26.026   7.194  12.399
54215W        W17972  35.876  17.692   4.775
54216W        W17973   1.846   2.236  13.384
54217W        W17974   6.287   0.785   3.278
54218W        W17975  23.694  16.782  14.428
54219W        W17976  39.045  17.192  13.031
54220W        W17977   2.930  11.669  13.514
54221W        W17978  36.898  14.134   3.763
54222W        W17979  44.813   6.310  13.333
54223W        W17980   0.752  40.992   1.892
54224W        W17981   1.331   5.869  10.908
54225W        W17982  15.754  20.549   0.842
54226W        W17983  31.455  25.557  11.490
54227W        W17984  27.162  27.509   3.750
54228W        W17985   5.340  31.921   4.188
54229W        W17986   9.368  10.343   2.316
54230W        W17987  32.062  39.845  10.450
54231W        W17988  13.283  22.617  14.986
54232W        W17989  30.644   5.351   0.941
54233W        W17990  24.988  32.596  14.408
54234W        W17991  15.690   5.810  13.870
54235W        W17992  29.664  13.275  10.918
54236W        W17993  24.645  40.465  10.613
54237W        W17994  11.257  28.560  13.056
54238W        W17995  23.578  25.096  11.068
54239W        W17996  27.995  28.145   1.813
54240W        W17997  35.977   3.454   0.412
54241W        W17998  17.635   3.719   0.319
54242W        W17999  33.880  36.898  12.020
54243W        W18000  18.115   2.452  10.570
54244W        W18001   1.294   4.731  10.904
54245W        W18002  30.602   2.733  14.474
54246W        W18003   1.328  31.022  13.010
54247W        W18004  31.928  19.150  13.466
54248W        W18005  32.632  44.348  13.395
54249W        W18006  44.771  29.437   1.419
54250W        W18007  26.126  31.632  12.355
54251W        W18008  35.939  23.130  10.645
54252W        W18009  39.842  38.013  11.971
54253W        W18010  37.444  22.733   3.328
54254W        W18011   3.226  29.542   5.109
54255W        W18012   3.294  43.863  14.951
54256W        W18013  20.066  36.950  10.459
54257W        W18014  15.248   4.440  10.641
54258W        W18015   6.240   1.790  13.899
54259W        W18016  20.610  38.352   3.861
54260W        W18017  29.627  29.048   9.982
54261W        W18018  15.246  32.076   2.266
54262W        W18019  33.056   1.745   0.242
54263W        W18020   7.308  43.964  12.533
54264W        W18021  30.659  15.321  11.537
54265W        W18022  23.126  33.009   4.177
54266W        W18023  43.364  22.706  14.976
54267W        W18024  13.248  30.090   0.786
54268W        W18025  14.668  43.965   2.712
54269W        W18026   9.725  32.403  10.635
54270W        W18027  31.019  42.402   1.287
54271W        W18028  29.156  25.196   1.213
54272W        W18029  27.595   9.691  13.999
54273W        W18030   0.365  33.541  10.928
54274W        W18031   9.771  42.890   3.194
54275W        W18032  29.137  41.318   2.365
54276W        W18033  20.678  40.039   1.764
54277W        W18034  26.999  27.188   4.313
54278W        W18035  30.455  17.172   5.299
54279W        W18036  18.775   0.377  10.563
54280W        W18037  37.015  31.500  11.396
54281W        W18038  24.109  17.620  11.128
54282W        W18039  30.141  31.911   4.302
54283W        W18040  28.579  34.906   4.682
54284W        W18041   0.277  18.545   1.378
54285W        W18042  24.039  22.544  13.833
54286W        W18043   7.330  19.774  12.859
54287W        W18044  33.061   3.441  11.008
54288W        W18045  28.147  16.773  11.415
54289W        W18046  29.518  10.274   0.483
54290W        W18047  33.988   5.702  10.475
54291W        W18048  17.150  18.221  12.847
54292W        W18049  25.081  20.617   0.292
54293W        W18050  27.155  31.126   0.423
54294W        W18051  23.514  19.149   2.198
54295W        W18052  24.174  38.954  10.925
54296W        W18053  20.054  17.662  10.975
54297W        W18054  10.353  14.832   4.821
54298W        W18055  39.999  11.221   1.297
54299W        W18056  35.562  31.477  14.417
54300W        W18057  29.500   4.775  14.484
54301W        W18058   6.354  42.963  13.444
54302W        W18059   3.755   2.770   0.461
54303W        W18060  11.723  30.156  13.041
54304W        W18061  19.042  44.481  12.851
54305W        W18062  24.652  36.027  12.003
54306W        W18063  33.971  26.481   2.757
54307W        W18064  18.195  44.789  10.899
54308W        W18065  25.215  22.536   4.600
54309W        W18066  11.146  18.605  14.429
54310W        W18067  30.962  17.603  12.960
54311W        W18068   1.284   3.337   4.665
54312W        W18069  39.888  17.292  11.075
54313W        W18070  16.144  30.995   2.189
54314W        W18071  10.236   6.362  11.377
54315W        W18072  17.560  26.699  14.914
54316W        W18073  16.676   6.304  12.465
54317W        W18074  15.606   8.257   3.800
54318W        W18075  16.629  35.391   1.819
54319W        W18076  36.368  27.557  14.855
54320W        W18077  38.027  24.137  12.519
54321W        W18078  26.625  35.908  14.384
54322W        W18079  36.976  39.342   3.796
54323W        W18080  29.109  41.033  10.958
54324W        W18081  43.889  30.044   2.277
54325W        W18082  29.565  10.691  11.575
54326W        W18083  16.139  17.063  10.491
54327W        W18084   8.391   3.403   0.478
54328W        W18085   4.275  12.303   3.722
54329W        W18086   4.317   6.914   2.209
54330W        W18087  24.998  33.046  10.583
54331W        W18088  12.827  17.611   0.416
54332W        W18089  27.060  29.566  14.901
54333W        W18090  22.629   8.296  14.405
54334W        W18091  33.880  21.659  11.460
54335W        W18092  30.162   2.342   4.295
54336W        W18093  22.251  21.019  12.912
54337W        W18094  35.516  35.561   2.712
54338W        W18095  44.846  19.253   3.655
54339W        W18096   8.837  35.543  13.009
54340W        W18097   5.201  13.662  14.992
54341W        W18098  38.457   0.250   4.618
54342W        W18099   1.239  36.916   2.743
54343W        W18100   1.261  16.308   2.390
54344W        W18101   5.427  23.696   3.384
54345W        W18102  30.493   1.810   2.891
54346W        W18103  12.768   9.867  13.906
54347W        W18104  14.716   8.251   0.362
54348W        W18105   9.846  17.168  13.798
54349W        W18106  31.640   4.317  11.502
54350W        W18107  40.922  11.706   2.178
54351W        W18108  36.499  16.759   3.386
54352W        W18109  22.083  12.843   2.891
54353W        W18110  25.980  31.914  13.327
54354W        W18111  24.993  28.435   0.342
54355W        W18112  18.105  10.306   3.267
54356W        W18113  27.492  23.634  13.990
54357W        W18114  14.651  29.557   0.303
54358W        W18115  33.052  30.033   2.774
54359W        W18116  39.813  29.531  11.440
54360W        W18117  28.606  17.242   1.419
54361W        W18118  17.274  39.995  14.467
54362W        W18119   7.228  32.441   1.283
54363W        W18120  25.039  24.127   3.260
54364W        W18121  38.051  44.919   2.897
54365W        W18122   1.266   5.869  11.611
54366W        W18123  14.804  41.326  14.344
54367W        W18124   8.182  19.571   0.894
54368W        W18125  27.119  43.332  12.415
54369W        W18126  30.912  17.757   3.307
54370W        W18127  35.601   5.876   2.317
54371W        W18128   1.337  11.238   3.364
54372W        W18129  16.163  14.220   3.209
54373W        W18130  41.841  30.554   4.290
54374W        W18131   0.874  43.814   4.828
54375W        W18132   1.916   0.766  14.455
54376W        W18133  11.371  40.841   1.292
54377W        W18134  34.962  20.687   2.724
54378W        W18135   5.907   7.220  11.520
54379W        W18136  14.608  28.020   3.261
54380W        W18137  39.465  35.491   3.214
54381W        W18138  10.207  22.117  12.559
54382W        W18139   6.735  33.432  13.452
54383W        W18140  10.871   3.892   0.837
54384W        W18141  29.619   2.836  12.365
54385W        W18142   4.232   2.267  10.430
54386W        W18143  26.976  40.525   2.897
54387W        W18144  43.928  27.546   3.288
54388W        W18145  13.658  23.554  13.985
54389W        W18146  39.961   5.194   0.351
54390W        W18147  18.188  29.565  13.473
54391W        W18148  10.335  20.112   2.673
54392W        W18149  20.645  14.329   1.294
54393W        W18150  39.861   2.431  12.958
54394W        W18151   3.374  27.194  12.390
54395W        W18152   9.194  19.176   3.152
54396W        W18153  43.405  24.148   4.185
54397W        W18154  22.501  34.547  11.405
54398W        W18155  40.035  24.117  12.402
54399W        W18156  19.691  28.472  12.048
54400W        W18157  39.547  32.096   3.157
54401W        W18158   9.184  30.605  10.900
54402W        W18159   3.326  30.091  11.562
54403W        W18160  25.568  27.565  11.436
54404W        W18161  36.428  28.063  14.774
54405W        W18162  33.018  11.750  13.370
54406W        W18163  25.657  37.969  10.641
54407W        W18164  11.187   9.378  10.907
54408W        W18165  28.036   7.330  11.097
54409W        W18166  28.487  15.624  12.402
54410W        W18167  12.322  34.011  14.275
54411W        W18168  15.652  37.009   1.805
54412W        W18169  35.040  10.207  12.846
54413W        W18170   4.850  36.565  13.458
54414W        W18171   7.236  11.300   0.863
54415W        W18172  22.557  10.273   0.414
54416W        W18173  24.032  29.927   2.764
54417W        W18174  17.253  20.150   1.911
54418W        W18175  32.950  20.120  14.413
54419W        W18176  21.049   7.769   3.294
54420W        W18177  32.598  12.303   0.417
54421W        W18178  24.599  15.601  12.436
54422W        W18179  33.114  29.010  14.407
54423W        W18180  43.379  20.236  14.779
54424W        W18181  42.854  12.840   2.827
54425W        W18182  32.562  25.686   0.306
54426W        W18183   6.365  30.432  13.425
54427W        W18184   0.925  28.974   2.190
54428W        W18185  20.527  12.635   0.734
54429W        W18186  33.511  43.420   0.453
54430W        W18187  23.612  30.487   0.806
54431W        W18188  13.671  29.943   3.378
54432W        W18189   5.303  29.022   3.742
54433W        W18190  12.674   0.900  14.828
54434W        W18191   9.275  34.988   0.794
54435W        W18192  28.987   6.869  13.994
54436W        W18193   7.302  30.968  12.960
54437W        W18194  19.728   5.248  14.461
54438W        W18195  19.138   0.323  14.853
54439W        W18196  37.409   8.881  11.515
54440W        W18197  30.008  24.587  14.957
54441W        W18198  20.766  40.966  11.544
54442W        W18199  25.666  26.970  14.009
54443W        W18200  28.053  21.060   4.743
54444W        W18201  15.812   3.816  14.972
54445W        W18202  32.627   7.381  14.792
54446W        W18203  13.651   1.436  12.031
54447W        W18204  21.620  24.571  14.300
54448W        W18205  23.002   3.418   3.798
54449W        W18206  10.799  44.467  14.838
54450W        W18207  27.517  25.644  10.609
54451W        W18208  40.406  18.641   4.792
54452W        W18209  14.174  41.931   4.260
54453W        W18210  38.455   4.203  11.882
54454W        W18211  35.946  11.820   4.220
54455W        W18212  25.215  34.008   0.896
54456W        W18213  44.433  41.480   0.730
54457W        W18214  41.412  11.733   4.834
54458W        W18215   2.959  24.561   3.752
54459W        W18216   7.293  24.178   1.231
54460W        W18217  14.229   6.709  11.393
54461W        W18218   6.886  17.730   3.770
54462W        W18219  20.668  35.869   0.336
54463W        W18220   5.369  43.943  13.388
54464W        W18221   3.427  13.136   1.871
54465W        W18222  42.989   0.767   0.414
54466W        W18223   9.732  30.024  13.904
54467W        W18224  44.917  38.415   2.679
54468W        W18225  42.440   3.271   2.727
54469W        W18226  37.457  13.336  13.432
54470W        W18227   7.759  15.712   2.844
54471W        W18228  25.124   5.746  14.796
54472W        W18229  27.974   8.384  10.468
54473W        W18230  24.614  15.150   4.287
54474W        W18231  29.567   7.197  11.457
54475W        W18232  13.133  12.134   0.888
54476W        W18233   1.757  13.349  14.307
54477W        W18234  20.705  31.015  12.399
54478W        W18235   2.865   8.799   3.357
54479W        W18236  39.426  41.470  12.915
54480W        W18237  19.144  13.749  11.013
54481W        W18238   3.371  35.889  12.967
54482W        W18239  23.565   1.244   3.330
54483W        W18240  15.275   7.741  14.951
54484W        W18241  16.105  10.356  12.952
54485W        W18242   8.387  38.974   1.702
54486W        W18243  24.514  23.240  12.986
54487W        W18244  44.425  19.085   1.442
54488W        W18245   6.404  27.066   4.119
54489W        W18246  12.639  25.106   0.401
54490W        W18247  20.129  33.475  11.057
54491W        W18248  15.243  17.742  14.324
54492W        W18249   7.357   8.240  12.083
54493W        W18250  37.009  37.847   4.620
54494W        W18251  31.022   4.250   2.324
54495W        W18252  32.895  19.542  13.815
54496W        W18253  23.544  36.855  10.640
54497W        W18254  43.878   5.926  11.103
54498W        W18255  20.702  32.503  12.911
54499W        W18256  21.654   3.350   2.884
54500W        W18257  23.531  34.524  10.922
54501W        W18258  36.452   5.899   3.308
54502W        W18259  14.598   9.747   0.480
54503W        W18260  24.504  20.142   4.118
54504W        W18261  35.480  44.361   2.226
54505W        W18262  11.279  44.468  14.865
54506W        W18263  40.312   7.872  13.880
54507W        W18264  34.452  15.149   4.708
54508W        W18265  11.337   4.443  14.361
54509W        W18266  25.046  26.177   2.357
54510W        W18267   5.408  16.085   3.761
54511W        W18268  27.552  40.031  13.878
54512W        W18269  36.575  10.302  10.541
54513W        W18270  44.920  36.071  10.922
54514W        W18271  37.853  32.495  11.465
54515W        W18272  42.425   6.279   3.838
54516W        W18273  19.070  10.760   4.670
54517W        W18274  11.243  10.675  12.415
54518W        W18275   7.297  18.771   0.281
54519W        W18276  30.624  11.316  12.891
54520W        W18277  34.602  38.964   0.822
54521W        W18278  40.879  43.395   3.865
54522W        W18279   1.733   4.343  12.422
54523W        W18280  42.424   3.279   2.178
54524W        W18281  25.197  33.910   4.176
54525W        W18282  14.610  25.093  14.411
54526W        W18283   5.334  26.017   0.428
54527W        W18284  26.473  44.851   1.234
54528W        W18285   4.860  18.274  14.322
54529W        W18286  24.505  27.016   4.208
54530W        W18287   8.816  40.927  14.415
54531W        W18288  32.981   7.308  10.995
54532W        W18289  41.308   6.230  10.626
54533W        W18290  30.999   7.883  11.448
54534W        W18291  34.046   2.452   1.231
54535W        W18292  24.656  12.808  13.357
54536W        W18293  11.809   4.333  14.404
54537W        W18294  23.011   5.395   4.638
54538W        W18295  14.591  22.173   1.730
54539W        W18296  37.977  36.873   4.739
54540W        W18297   4.712   3.217   3.696
54541W        W18298  10.206  44.400   1.906
54542W        W18299  40.028   6.822   4.608
54543W        W18300  40.304  37.994   3.690
54544W        W18301  20.141  38.443  10.405
54545W        W18302  41.020  41.881   1.350
54546W        W18303   5.736  39.948   3.725
54547W        W18304  28.661  15.289  11.123
54548W        W18305  22.597   7.276  14.393
54549W        W18306  11.190  28.016  12.535
54550W        W18307   5.391  36.874   3.249
54551W        W18308  32.635  17.061   1.237
54552W        W18309   0.289  36.868   0.845
54553W        W18310  12.287  39.318  14.926
54554W        W18311  11.865   7.697  13.912
54555W        W18312  10.803   2.912  14.854
54556W        W18313  42.435   0.825  13.405
54557W        W18314  40.023  10.380   4.280
54558W        W18315  29.577  15.148   3.662
54559W        W18316  35.510  19.172  10.931
54560W        W18317  24.615   3.779  12.380
54561W        W18318  22.561  26.148   2.324
54562W        W18319  38.361  27.954  11.956
54563W        W18320   1.419   4.295  11.460
54564W        W18321   8.348  22.134  12.939
54565W        W18322  22.222  30.079  11.920
54566W        W18323  18.742   2.349   4.634
54567W        W18324  29.969  13.777   3.720
54568W        W18325  44.332  18.222   4.662
54569W        W18326  23.506  23.137   3.198
54570W        W18327  15.764  12.648   1.347
54571W        W18328  30.068  10.340  14.764
54572W        W18329  38.862  18.233  14.955
54573W        W18330  25.485  42.305  11.565
54574W        W18331  27.973  38.479  14.354
54575W        W18332  17.235  16.638  10.527
54576W        W18333  32.404   3.266   1.795
54577W        W18334  34.032  23.103  14.511
54578W        W18335  42.399  29.461   3.735
54579W        W18336  13.748  14.829   4.113
54580W        W18337  18.268   2.811  13.970
54581W        W18338   0.846   9.846   0.880
54582W        W18339  11.205   5.691   0.763
54583W        W18340  43.912   6.413   3.235
54584W        W18341  25.962  31.897   2.301
54585W        W18342  41.423   9.706   1.409
54586W        W18343  24.120  19.574  14.940
54587W        W18344  12.163  17.212   0.942
54588W        W18345   0.941  10.734  13.895
54589W        W18346  10.201  23.606   2.285
54590W        W18347  21.208  35.389  11.894
54591W        W18348  39.977  38.863   4.160
54592W        W18349  18.243  30.004   4.247
54593W        W18350  19.630  38.453  14.355
54594W        W18351  22.692  43.962  14.810
54595W        W18352  18.070  17.199   5.151
54596W        W18353  30.572  31.622   1.298
54597W        W18354  12.713  16.107  11.874
54598W        W18355   3.791  16.231   0.962
54599W        W18356  39.831   6.199  13.030
54600W        W18357  14.678  37.838  12.905
54601W        W18358  30.006   3.415   0.904
54602W        W18359   0.822  44.904   3.637
54603W        W18360  40.039  24.216   3.844
54604W        W18361  22.127   9.791  12.381
54605W        W18362  26.666  41.928   5.131
54606W        W18363  10.228  26.127  12.031
54607W        W18364  35.483   6.820   4.777
54608W        W18365  40.334  34.056   2.677
54609W        W18366  24.193  34.992  10.413
54610W        W18367   5.250  13.660   3.867
54611W        W18368  31.534  29.654   4.678
54612W        W18369   5.363   8.736  12.912
54613W        W18370  29.586   9.884  12.905
54614W        W18371  35.437   8.257  11.875
54615W        W18372  32.036  31.646  12.071
54616W        W18373  41.825  11.373  11.517
54617W        W18374  43.828  10.254  11.864
54618W        W18375  44.348   8.338  11.999
54619W        W18376  23.647  24.486   0.780
54620W        W18377   3.239   8.199   0.729
54621W        W18378   5.390  23.673   4.686
54622W        W18379  22.524  44.986   3.356
54623W        W18380  29.424  13.289   1.878
54624W        W18381   6.291   8.690  13.445
54625W        W18382  44.292  25.111   2.685
54626W        W18383  20.095  29.141   1.357
54627W        W18384   4.323  38.032   1.731
54628W        W18385   7.715  17.743  13.329
54629W        W18386  30.454  34.578   4.274
54630W        W18387  42.014  29.439   5.192
54631W        W18388  38.993  39.953  14.868
54632W        W18389  41.310  28.497  10.999
54633W        W18390  31.629  39.059   1.428
54634W        W18391  13.788  11.149  11.026
54635W        W18392  38.382  25.050   3.735
54636W        W18393  40.029   7.862  10.458
54637W        W18394   5.437  30.121  14.774
54638W        W18395   9.669  25.111   3.744
54639W        W18396  20.732  16.709  12.561
54640W        W18397  11.775  35.067  12.458
54641W        W18398   1.906  10.796   2.241
54642W        W18399  30.966  22.105   1.744
54643W        W18400  12.832   9.151  14.960
54644W        W18401  23.106  43.473  11.123
54645W        W18402   0.848  25.652  13.061
54646W        W18403   4.862  23.684  12.399
54647W        W18404  22.126  26.552  14.999
54648W        W18405  15.671   1.872  14.858
54649W        W18406  13.225  36.355   3.154
54650W        W18407  44.006  26.203   0.377
54651W        W18408  12.660  22.193   3.692
54652W        W18409  24.651   9.331   3.302
54653W        W18410  16.652  22.509  12.940
54654W        W18411  35.411  12.646   0.277
54655W        W18412  22.627  13.697   4.827
54656W        W18413  23.100  11.338  10.475
54657W        W18414   1.480  17.739   0.403
54658W        W18415  25.596  32.414   2.799
54659W        W18416  14.104  44.880   2.410
54660W        W18417  43.980  17.632  11.958
54661W        W18418  36.524  39.866  11.514
54662W        W18419   9.366  30.476   2.679
54663W        W18420  19.092  42.936   1.405
54664W        W18421  26.041  10.261  10.606
54665W        W18422   2.429  35.087   2.295
54666W        W18423  16.273   0.988   2.284
54667W        W18424  21.109  29.105  10.517
54668W        W18425  38.406   3.823  14.347
54669W        W18426  10.757  26.534   2.384
54670W        W18427   9.330  28.602   3.260
54671W        W18428  14.773  40.843  12.433
54672W        W18429   3.309  18.280  12.496
54673W        W18430   2.403  16.795  14.287
54674W        W18431  20.619  13.819   3.373
54675W        W18432  42.520  17.288  13.005
54676W        W18433  14.159  43.877  10.983
54677W        W18434  38.528   5.878  13.407
54678W        W18435  30.467  31.540  11.584
54679W        W18436  42.293  44.470  14.875
54680W        W18437   8.787  43.916  11.424
54681W        W18438  11.262   8.357   2.362
54682W        W18439  33.560  11.229  14.294
54683W        W18440  32.063  24.694  14.785
54684W        W18441  44.895  33.401  12.356
54685W        W18442  36.493  16.221  13.912
54686W        W18443  18.129   5.312   3.171
54687W        W18444  44.341  32.025  11.883
54688W        W18445   4.811   1.760  10.478
54689W        W18446  11.314  23.562  11.482
54690W        W18447  36.575  37.977  12.059
54691W        W18448  13.619  29.928   4.301
54692W        W18449   0.838  29.027   0.782
54693W        W18450  26.557  41.825   0.346
54694W        W18451  22.727  29.012   4.332
54695W        W18452  25.127  32.974   1.275
54696W        W18453  38.002   2.829   2.885
54697W        W18454  39.486  37.897  11.506
54698W        W18455   7.823  19.610  14.842
54699W        W18456  43.937  35.929  13.373
54700W        W18457  38.030  17.139   0.764
54701W        W18458  26.525   1.893  12.462
54702W        W18459  41.885  34.513  12.933
54703W        W18460  27.665  22.216  10.979
54704W        W18461  20.222  23.561   4.254
54705W        W18462  16.310  28.638   0.420
54706W        W18463  28.602  31.063  12.827
54707W        W18464  16.811  34.420  14.421
54708W        W18465  24.721   0.890  11.465
54709W        W18466  23.596  29.014  14.298
54710W        W18467  23.542  23.500   3.214
54711W        W18468  26.098  11.656  13.470
54712W        W18469   4.709  44.308   1.770
54713W        W18470   1.815  39.508   3.336
54714W        W18471   6.782  24.086   4.157
54715W        W18472  31.591  38.014   0.811
54716W        W18473  31.516  14.722   0.945
54717W        W18474  32.920  20.107  11.083
54718W        W18475  29.482  18.782  14.018
54719W        W18476  13.767   7.364   0.782
54720W        W18477  17.560  30.426  10.523
54721W        W18478   8.317  41.922   1.320
54722W        W18479   8.757  41.352  13.342
54723W        W18480  16.680  34.539   1.830
54724W        W18481  17.196  31.074   3.221
54725W        W18482  20.620  20.116  13.995
54726W        W18483  14.256   5.715   1.814
54727W        W18484  29.076   2.313   0.417
54728W        W18485  17.247  29.602  11.573
54729W        W18486  24.509  36.920   4.346
54730W        W18487   0.934  35.378  11.058
54731W        W18488  11.158  41.905   3.350
54732W        W18489  44.992  39.457  13.428
54733W        W18490  37.494   1.792   2.180
54734W        W18491  38.500  20.657  13.951
54735W        W18492  39.812   7.262  13.851
54736W        W18493  40.319  34.973   4.748
54737W        W18494   2.303  39.397  12.096
54738W        W18495  15.622  29.426   2.801
54739W        W18496  37.570  16.285   2.204
54740W        W18497  20.529  22.100  11.030
54741W        W18498  25.112  35.081   1.861
54742W        W18499  28.159  23.107   0.732
54743W        W18500  27.151  35.937   2.322
54744W        W18501   2.343  18.739  14.958
54745W        W18502  17.292   4.708   4.188
54746W        W18503  30.955  18.217   1.401
54747W        W18504  24.009  44.890   4.715
54748W        W18505  32.927  44.831   4.164
54749W        W18506  11.761  36.871   0.878
54750W        W18507  30.657  21.063   2.300
54751W        W18508   8.673   5.315   4.664
54752W        W18509  35.024  11.299   1.372
54753W        W18510  29.522  36.528  11.466
54754W        W18511  28.595  26.609  10.418
54755W        W18512  18.703   4.709  10.475
54756W        W18513  19.693   6.923  12.035
54757W        W18514  28.132  27.985   4.780
54758W        W18515  33.912  37.552   2.859
54759W        W18516  21.545  44.813   1.708
54760W        W18517   0.934  12.189   0.402
54761W        W18518  40.907  20.625   4.834
54762W        W18519  40.355  21.112  11.049
54763W        W18520   6.760  17.668  13.005
54764W        W18521  41.842  39.324  14.997
54765W        W18522  18.630   4.401  12.433
54766W        W18523  14.731  44.832  12.064
54767W        W18524  10.721   8.339  12.944
54768W        W18525  38.930  21.035  11.465
54769W        W18526  43.980  30.030  11.374
54770W        W18527  30.439  32.028  10.467
54771W        W18528  10.252  28.594   0.314
54772W        W18529   7.378  37.015  12.862
54773W        W18530  32.003  40.005   3.667
54774W        W18531  44.771  12.281  14.913
54775W        W18532   6.229  35.026   4.151
54776W        W18533   7.263  39.898   2.815
54777W        W18534  12.645  36.574   4.160
54778W        W18535  23.124  31.455   0.375
54779W        W18536  37.530   9.202   2.767
54780W        W18537  15.128   6.740   3.701
54781W        W18538  19.236  13.638   3.278
54782W        W18539  17.694  26.176   3.842
54783W        W18540  16.088  24.639   2.714
54784W        W18541   0.962   7.189  13.009
54785W        W18542   0.924  19.555   1.439
54786W        W18543  17.145   7.330   3.729
54787W        W18544   2.862   4.315  14.924
54788W        W18545  27.116  12.746  10.968
54789W        W18546  33.380   5.364   2.230
54790W        W18547   6.677  34.103  12.922
54791W        W18548  28.455  25.118  11.410
54792W        W18549  35.092  21.074   2.309
54793W        W18550  21.642  43.371   0.328
54794W        W18551  35.054  15.236  12.363
54795W        W18552  27.645  41.313  11.126
54796W        W18553  32.927  39.988   1.835
54797W        W18554  11.345   4.343   2.833
54798W        W18555  20.744  26.003   0.770
54799W        W18556  15.602  12.798  11.023
54800W        W18557  23.214   0.944   4.834
54801W        W18558  17.198   3.903  11.052
54802W        W18559  43.364   3.339  13.933
54803W        W18560  29.484  23.723   5.260
54804W        W18561  33.000  20.269  10.465
54805W        W18562   4.852  21.728   2.722
54806W        W18563  13.258   0.317  13.364
54807W        W18564  37.546   2.781   3.263
54808W        W18565  14.108   2.841   3.695
54809W        W18566  26.067  16.084   3.327
54810W        W18567  13.643  11.827  10.936
54811W        W18568   5.241  28.073  14.492
54812W        W18569  15.259  42.347  12.379
54813W        W18570   4.917  43.270  14.991
54814W        W18571  28.437  27.535  10.600
54815W        W18572   5.393   2.763   1.732
54816W        W18573  20.526   3.885   0.243
54817W        W18574  30.433  12.335   3.153
54818W        W18575  30.592   1.737   3.377
54819W        W18576  44.791  31.034  12.930
54820W        W18577  44.843   0.334   4.205
54821W        W18578  39.977  38.878   3.222
54822W        W18579   3.796  41.969   1.781
54823W        W18580   6.268  44.967  14.838
54824W        W18581  21.135  19.573  11.004
54825W        W18582  14.293  12.172  13.838
54826W        W18583  19.267   9.673   2.390
54827W        W18584  14.624  15.699  14.955
54828W        W18585  31.015  30.527  12.930
54829W        W18586  11.645   6.876  12.823
54830W        W18587  28.549   1.429  10.930
54831W        W18588  42.809  16.095  10.953
54832W        W18589  29.599  38.881  14.292
54833W        W18590   9.252   2.799  11.558
54834W        W18591  24.159  33.918  13.903
54835W        W18592   0.310  27.598   2.778
54836W        W18593   2.828  24.720   3.320
54837W        W18594  10.775  44.797   1.372
54838W        W18595  38.537  15.098  11.017
54839W        W18596  10.873  17.587   0.925
54840W        W18597  36.916  24.693   0.299
54841W        W18598  28.014  12.638   0.826
54842W        W18599  19.617   4.445   0.764
54843W        W18600  14.665   4.810  11.099
54844W        W18601  43.874  37.514   4.667
54845W        W18602   8.892   8.285  12.426
54846W        W18603  39.885  19.104   3.727
54847W        W18604   3.792  14.606   4.191
54848W        W18605   8.747  17.189   1.390
54849W        W18606  32.505  11.355   4.720
54850W        W18607  26.133   9.381  12.824
54851W        W18608   4.881  31.054  11.556
54852W        W18609  10.878   7.336   4.758
54853W        W18610   4.750  30.555   3.211
54854W        W18611  18.656  39.969   1.830
54855W        W18612   7.255  28.087  14.797
54856W        W18613  29.138  23.116  11.910
54857W        W18614  14.702  37.853   4.218
54858W        W18615   7.865  36.516  11.448
54859W        W18616   3.847   9.676  14.810
54860W        W18617  21.653  36.467   9.552
54861W        W18618  19.255  29.434  13.932
54862W        W18619  43.003  32.941  12.392
54863W        W18620  20.617   6.910  13.064
54864W        W18621  19.586  10.689  14.986
54865W        W18622  40.379   5.912  11.482
54866W        W18623  37.062  19.678   2.262
54867W        W18624  13.278  29.565  13.435
54868W        W18625  25.702  35.995   1.848
54869W        W18626  22.564  24.642  12.854
54870W        W18627  36.092  21.263   2.770
54871W        W18628  15.662  32.392   2.376
54872W        W18629   0.267  13.150   3.372
54873W        W18630  43.386  22.574  14.385
54874W        W18631  12.706  22.566   2.356
54875W        W18632  23.724   3.814   4.277
54876W        W18633   5.210  31.971   0.413
54877W        W18634  20.658  11.345   2.387
54878W        W18635  11.641  31.464  12.049
54879W        W18636  28.112  28.641   3.386
54880W        W18637  43.944   7.744  11.053
54881W        W18638  15.238  24.214  13.848
54882W        W18639  27.102  22.552  12.400
54883W        W18640  24.678  18.750   0.756
54884W        W18641  10.876   6.710   0.385
54885W        W18642  20.268   2.425   4.115
54886W        W18643  10.180  25.714   2.214
54887W        W18644  26.633   2.862   4.286
54888W        W18645   3.761  37.386  12.387
54889W        W18646  17.606  23.541   3.318
54890W        W18647   8.727  42.907  12.924
54891W        W18648  19.609  14.722   1.306
54892W        W18649   9.328  27.473   2.394
54893W        W18650   8.365  12.725   0.948
54894W        W18651  16.220   6.797   2.223
54895W        W18652  11.300  19.049  14.862
54896W        W18653  44.832  15.103  14.446
54897W        W18654   6.193  41.973   3.823
54898W        W18655   0.772   0.332  11.063
54899W        W18656   7.413  15.652   1.414
54900W        W18657  43.818  36.009   2.770
54901W        W18658   4.841  25.601  11.106
54902W        W18659  23.605  11.129  10.963
54903W        W18660   8.671  21.182  12.471
54904W        W18661   5.198  21.521  12.548
54905W        W18662  41.446  39.962  14.368
54906W        W18663  15.286  36.089   2.825
54907W        W18664  21.253   9.807  11.927
54908W        W18665  14.170  23.723  14.938
54909W        W18666  27.138  29.665   3.708
54910W        W18667  35.465  29.491  13.057
54911W        W18668  37.953  20.145  10.994
54912W        W18669   4.816  14.727  11.505
54913W        W18670  16.746  42.495  13.338
54914W        W18671  32.492   1.800  14.347
54915W        W18672  34.590  22.586  13.522
54916W        W18673  37.446  34.483   0.420
54917W        W18674  38.833   7.212   5.302
54918W        W18675  41.517  36.048  13.308
54919W        W18676  18.687   9.849  11.457
54920W        W18677  24.598  25.061   0.406
54921W        W18678  10.709   9.842   1.347
54922W        W18679   7.832  34.884   2.830
54923W        W18680  42.420  24.013  11.085
54924W        W18681  11.207  27.964  10.969
54925W        W18682   9.724  13.697  11.443
54926W        W18683  13.784   6.881  12.884
54927W        W18684  17.124  22.669   4.601
54928W        W18685  25.525  19.561  10.983
54929W        W18686  17.765  23.089   0.750
54930W        W18687  43.430  24.073  14.454
54931W        W18688  34.083  20.691  12.562
54932W        W18689  18.707  25.575  12.977
54933W        W18690  12.770  30.947  13.791
54934W        W18691  25.200  44.263   3.277
54935W        W18692  28.034   3.315   9.964
54936W        W18693  10.713  18.285  13.500
54937W        W18694  42.876  42.031   5.239
54938W        W18695  26.669   3.366   1.694
54939W        W18696  29.567  18.294   0.740
54940W        W18697  25.603  14.781  12.895
54941W        W18698   5.730  37.467  13.406
54942W        W18699  23.120  16.289   1.785
54943W        W18700  34.467  18.271   0.750
54944W        W18701   5.290  34.555   0.484
54945W        W18702  26.517  11.642  13.802
54946W        W18703   4.436  38.056  12.579
54947W        W18704   0.844  13.163  12.826
54948W        W18705  35.949  25.025  11.436
54949W        W18706  42.289   7.350   1.743
54950W        W18707  22.542   3.418  10.119
54951W        W18708  41.532   0.896   4.195
54952W        W18709  10.268  36.579  10.904
54953W        W18710  13.195  16.614   2.868
54954W        W18711   5.918  18.090  12.474
54955W        W18712  43.791  38.906  11.906
54956W        W18713  21.625  14.648  12.872
54957W        W18714  21.128   9.312   5.132
54958W        W18715  13.161  39.368  11.124
54959W        W18716   6.884   0.418  11.937
54960W        W18717  33.886  27.546  10.943
54961W        W18718  10.683  43.868  12.889
54962W        W18719  12.308  22.029   2.271
54963W        W18720  10.210  44.412  13.361
54964W        W18721  10.654   0.971  11.037
54965W        W18722  24.540  20.764   0.788
54966W        W18723  17.173  12.836   1.704
54967W        W18724  18.232   7.901  12.072
54968W        W18725   4.778   5.883  11.938
54969W        W18726  40.941  19.136   4.122
54970W        W18727  32.964  20.729   3.229
54971W        W18728  24.141  35.893  13.423
54972W        W18729  37.508  31.458   4.702
54973W        W18730   7.781  43.452   1.340
54974W        W18731   8.682  17.278  14.300
54975W        W18732  12.650   9.788  13.340
54976W        W18733  13.185  11.763  12.364
54977W        W18734  19.622  25.156   0.939
54978W        W18735  13.636  19.584   2.232
54979W        W18736   9.656   3.955   4.304
54980W        W18737  19.616  16.077  14.417
54981W        W18738  37.472  40.798   0.431
54982W        W18739  39.004  35.450  13.975
54983W        W18740  10.291   1.295   0.378
54984W        W18741  43.286  34.955   0.373
54985W        W18742  38.933  31.076  10.943
54986W        W18743  28.604   3.914   5.306
54987W        W18744  42.295  20.080   3.348
54988W        W18745  16.665  21.150  10.546
54989W        W18746  28.441  42.312  14.979
54990W        W18747  32.941  15.685  13.034
54991W        W18748  33.412  15.586  13.435
54992W        W18749  13.338  27.567  13.401
54993W        W18750  36.943   0.279   4.656
54994W        W18751  29.092  23.203   0.405
54995W        W18752  21.149  25.511  13.796
54996W        W18753  33.515  23.600   3.805
54997W        W18754  43.873   9.395  10.615
54998W        W18755  22.540  34.917   9.521
54999W        W18756  35.931  41.527   3.726
55000W        W18757  19.212  38.919   1.255
55001W        W18758  30.473   0.298  14.479
55002W        W18759   4.884  35.925  14.840
55003W        W18760  16.230   6.755   3.764
55004W        W18761  37.840  22.645   1.722
55005W        W18762  32.988  15.615  10.413
55006W        W18763  35.890   2.863   3.256
55007W        W18764   6.891  42.281  12.040
55008W        W18765  20.556  43.460  13.499
55009W        W18766  33.888  16.217  14.280
55010W        W18767  26.018   1.751  10.969
55011W        W18768  17.152  36.873   3.858
55012W        W18769  10.196  20.637   4.631
55013W        W18770  31.570  13.222   1.329
55014W        W18771  41.930  16.262  11.477
55015W        W18772  14.224  36.061   4.256
55016W        W18773   1.354  12.232   2.179
55017W        W18774  19.128   8.262   0.853
55018W        W18775   4.821  39.933  13.420
55019W        W18776  30.960   7.724   2.285
55020W        W18777  42.521  41.855  13.931
55021W        W18778   6.765  37.540  12.469
55022W        W18779   3.290  32.928   3.839
55023W        W18780  44.800  26.489  12.090
55024W        W18781  28.944  12.162   3.326
55025W        W18782  27.542   0.889  14.972
55026W        W18783  27.037  24.016  12.892
55027W        W18784  26.463   3.390   1.243
55028W        W18785  10.810  35.969  14.288
55029W        W18786  30.600   6.691   2.829
55030W        W18787   0.419  26.551   2.304
55031W        W18788  40.995  38.973  11.067
55032W        W18789  27.578  14.659  14.908
55033W        W18790  13.760  19.278   0.392
55034W        W18791  16.170   0.273  11.510
55035W        W18792  11.229  18.568  12.975
55036W        W18793   9.355  39.416  14.851
55037W        W18794  44.998   2.466   1.774
55038W        W18795  24.062  38.904  12.463
55039W        W18796  16.809  27.125   1.377
55040W        W18797  31.997  37.070  10.626
55041W        W18798   7.832  16.750   0.356
55042W        W18799  31.947   5.232  13.984
55043W        W18800  25.556  20.029  13.536
55044W        W18801  41.034  28.991  10.412
55045W        W18802  28.579  21.049  10.090
55046W        W18803  11.864  25.548   0.955
55047W        W18804   1.968  25.655   2.318
55048W        W18805  42.027  44.965  13.867
55049W        W18806   9.876  23.234  13.921
55050W        W18807   8.235  12.146  14.021
55051W        W18808  26.982  25.060   0.964
55052W        W18809   5.857  30.063  13.938
55053W        W18810  21.162  23.646  10.927
55054W        W18811  24.592   5.208  14.908
55055W        W18812  16.282  35.856   1.787
55056W        W18813  17.722  12.339  10.901
55057W        W18814   9.882  43.765  11.078
55058W        W18815   0.408  16.675  11.996
55059W        W18816  32.624   5.827  12.055
55060W        W18817   4.915  13.616   0.881
55061W        W18818  28.149  41.327   1.773
55062W        W18819   0.370  19.566   4.673
55063W        W18820  25.219   1.973   0.887
55064W        W18821   6.773  35.957   3.299
55065W        W18822   1.398  19.547  11.042
55066W        W18823  18.295  26.584  10.561
55067W        W18824  25.163  20.665   3.350
55068W        W18825   0.492  26.063  12.876
55069W        W18826   4.416   7.810   1.230
55070W        W18827  43.813  32.931   3.375
55071W        W18828  25.609  41.871  12.978
55072W        W18829  37.863   1.936   1.834
55073W        W18830  16.101   2.734   2.265
55074W        W18831  44.485  13.686   3.321
55075W        W18832  24.527  32.991  14.801
55076W        W18833  22.515  11.351  12.861
55077W        W18834  37.580  18.597  14.428
55078W        W18835   3.859  41.903  11.509
55079W        W18836   0.400  11.721  14.482
55080W        W18837  27.623   5.848  11.530
55081W        W18838  34.538  43.840   0.832
55082W        W18839  25.531   5.832  14.874
55083W        W18840   7.248  26.616   0.357
55084W        W18841  32.898   5.287  10.160
55085W        W18842  20.061  20.112  12.959
55086W        W18843  34.574  15.163  14.810
55087W        W18844  17.678  40.546   1.708
55088W        W18845  15.124   5.275   4.657
55089W        W18846  12.222  11.197   4.759
55090W        W18847  32.127  36.369   3.752
55091W        W18848  34.608  32.600  14.883
55092W        W18849  20.111  24.160  13.831
55093W        W18850  22.162  17.065  11.585
55094W        W18851  20.104   1.911   4.173
55095W        W18852  29.461  13.317  14.867
55096W        W18853  10.744  30.072  14.461
55097W        W18854  11.747  32.450   4.297
55098W        W18855  25.597  33.416   4.250
55099W        W18856  21.253   5.387   2.390
55100W        W18857  21.604  27.994  10.455
55101W        W18858  14.594  29.551  13.819
55102W        W18859  36.972  28.050  13.911
55103W        W18860   5.369  27.669   3.870
55104W        W18861  32.537  25.965   4.155
55105W        W18862  25.179  15.207   4.187
55106W        W18863  43.389  26.124  11.939
55107W        W18864   6.869  31.934   1.381
55108W        W18865  12.650  22.622  13.800
55109W        W18866  40.335  27.593   0.828
55110W        W18867  11.162  21.019   3.850
55111W        W18868   7.864   8.865   1.247
55112W        W18869  29.124  11.786   1.713
55113W        W18870  10.202  37.481   4.667
55114W        W18871  10.698  40.435   3.237
55115W        W18872  43.405   0.882   1.251
55116W        W18873  11.697   1.321  13.328
55117W        W18874  26.112   9.175  11.872
55118W        W18875   7.733  25.127  12.497
55119W        W18876  26.191   8.350   3.241
55120W        W18877  26.979   2.240  11.482
55121W        W18878  43.308   1.851   2.375
55122W        W18879  21.702  39.549  12.011
55123W        W18880  34.479  33.005   0.300
55124W        W18881  41.940  30.512  10.114
55125W        W18882   2.842  11.680  12.444
55126W        W18883  35.483  11.798   4.239
55127W        W18884  19.245   8.232   1.286
55128W        W18885  43.426  20.151  13.371
55129W        W18886  22.718  44.301   0.889
55130W        W18887  32.095   5.796   1.417
55131W        W18888   3.444  24.028  13.055
55132W        W18889  19.135   6.874   3.168
55133W        W18890  28.598  23.093   3.178
55134W        W18891  30.424  32.565   4.184
55135W        W18892  43.807  10.270  12.979
55136W        W18893  39.475  44.918   1.788
55137W        W18894  21.627  38.070   0.252
55138W        W18895  11.364  13.106   1.757
55139W        W18896  23.532  26.181   3.677
55140W        W18897  17.201  32.421   0.951
55141W        W18898  16.584  19.137   1.780
55142W        W18899  29.032  36.964   0.343
55143W        W18900  26.695  34.059   4.670
55144W        W18901  32.090  42.007   5.242
55145W        W18902  27.147   2.925   0.783
55146W        W18903  40.463  35.889   4.719
55147W        W18904   5.867  25.576  13.511
55148W        W18905   5.377  10.634  14.828
55149W        W18906   8.375  38.959   2.692
55150W        W18907  29.133   3.910   2.747
55151W        W18908  17.084  23.663   2.785
55152W        W18909  35.392  44.896   1.389
55153W        W18910  20.122  29.104   4.300
55154W        W18911  13.258  37.544   1.394
55155W        W18912  12.767  44.402  11.098
55156W        W18913   6.685  17.063  11.512
55157W        W18914  42.310  43.019  10.474
55158W        W18915  12.316  16.779  14.370
55159W        W18916  29.622  38.907  13.828
55160W        W18917  11.139   0.949  14.828
55161W        W18918  25.610   9.688   4.623
55162W        W18919  41.325  41.873   2.262
55163W        W18920  19.638  22.672  11.433
55164W        W18921   3.431  27.628   0.958
55165W        W18922  22.062   5.310   1.832
55166W        W18923  12.300  13.766  11.080
55167W        W18924  22.161  38.023  14.824
55168W        W18925  13.250  35.560   1.769
55169W        W18926  34.434  44.786   0.335
55170W        W18927   5.804  42.893   3.771
55171W        W18928   2.377  13.789  11.569
55172W        W18929  32.024  23.165  12.932
55173W        W18930  18.058  19.701   0.761
55174W        W18931  15.752   0.438   3.745
55175W        W18932  37.978   2.422   3.170
55176W        W18933  27.482  36.410  12.375
55177W        W18934  43.934  11.171   4.317
55178W        W18935  38.437  41.335  10.511
55179W        W18936  38.959  35.424  12.517
55180W        W18937  31.092   8.780   2.882
55181W        W18938  37.867  39.465   4.333
55182W        W18939  13.230  34.086   3.802
55183W        W18940   4.743  12.258   2.414
55184W        W18941  15.748  42.348   4.688
55185W        W18942  15.230  30.479  10.437
55186W        W18943  31.014   8.235   3.658
55187W        W18944  22.511  28.596  14.996
55188W        W18945  44.922  24.042  11.000
55189W        W18946  42.823  26.638  14.877
55190W        W18947  25.162  37.855  13.962
55191W        W18948  16.099   5.320  14.839
55192W        W18949  36.088  21.139  14.882
55193W        W18950  24.154  44.350  13.524
55194W        W18951  18.714  12.273  14.392
55195W        W18952  44.493   5.279  10.442
55196W        W18953  38.028   6.789   1.236
55197W        W18954  40.893  33.895   4.133
55198W        W18955  31.093  41.849  13.937
55199W        W18956  38.997  24.675   2.756
55200W        W18957   9.813  35.501   4.300
55201W        W18958  27.594   0.908  11.493
55202W        W18959   2.416  43.345  14.435
55203W        W18960  31.131  24.005   2.719
55204W        W18961   5.900  22.023   4.260
55205W        W18962  33.053  26.995  11.528
55206W        W18963  21.648  43.815  12.851
55207W        W18964  19.702  17.584  14.891
55208W        W18965  12.228  44.927   2.672
55209W        W18966  17.191  39.059  11.937
55210W        W18967  36.432  15.216  14.348
55211W        W18968   8.657  41.040   3.791
55212W        W18969  33.522   3.873   4.135
55213W        W18970  11.621   9.832   2.711
55214W        W18971  31.610  25.705  13.816
55215W        W18972  21.171  44.958  11.402
55216W        W18973  16.202   1.837  12.537
55217W        W18974  34.918  16.193  10.975
55218W        W18975  32.571  21.223   4.773
55219W        W18976  33.021  39.970   1.403
55220W        W18977   8.207  27.573   2.668
55221W        W18978  22.726  18.070   0.849
55222W        W18979  35.457  43.992   1.330
55223W        W18980   1.851  18.636   3.373
55224W        W18981  24.664  34.897  13.001
55225W        W18982  20.100  14.709   1.402
55226W        W18983  30.950  31.566   4.341
55227W        W18984   0.360  40.902   0.444
55228W        W18985  22.151  21.753  13.377
55229W        W18986  39.935  34.407  13.823
55230W        W18987  17.727  17.068   5.160
55231W        W18988  24.695  43.982  12.871
55232W        W18989  30.488   6.191   4.666
55233W        W18990   5.762  42.998   4.305
55234W        W18991  14.310  20.592   2.398
55235W        W18992  16.719  10.198   3.676
55236W        W18993  19.269  27.978   4.785
55237W        W18994  39.363  37.965   2.846
55238W        W18995  32.037  10.157  12.964
55239W        W18996  27.072  39.460   2.402
55240W        W18997  11.645  24.631  14.929
55241W        W18998  41.798  28.990   2.900
55242W        W18999   3.872  14.127  12.519
55243W        W19000  22.207  42.804   4.137
55244W        W19001   7.191  10.330  13.944
55245W        W19002  11.361  35.564  10.444
55246W        W19003   4.354  35.539  10.963
55247W        W19004  26.985  27.952  11.124
55248W        W19005  17.778  38.962  12.927
55249W        W19006  18.739  35.538  11.121
55250W        W19007   8.230  40.889  14.423
55251W        W19008  40.931   2.465  11.447
55252W        W19009  12.169  43.291   1.442
55253W        W19010  41.515  11.216   0.263
55254W        W19011   7.789  18.575  10.492
55255W        W19012  14.113  20.052   1.387
55256W        W19013  18.606   6.764  11.122
55257W        W19014  26.499  28.975  11.900
55258W        W19015  40.022  28.634   4.321
55259W        W19016  28.498  36.516  14.803
55260W        W19017   1.406  37.928   2.856
55261W        W19018  31.501  17.300   4.323
55262W        W19019  30.633  13.332   4.219
55263W        W19020   2.889  38.367  13.970
55264W        W19021  10.765   2.949  13.489
55265W        W19022  22.506   1.847   1.896
55266W        W19023  28.470  12.678  14.441
55267W        W19024  30.928   7.731  14.946
55268W        W19025  12.151   6.695  12.386
55269W        W19026   3.373  19.681   4.670
55270W        W19027  14.743  38.377  10.564
55271W        W19028  33.423  35.933   2.672
55272W        W19029  37.078  33.904   2.688
55273W        W19030  29.934  25.019  11.071
55274W        W19031   8.244   0.761  12.999
55275W        W19032   1.855  37.028   1.451
55276W        W19033  31.982  22.669   2.245
55277W        W19034   9.818  36.467   1.869
55278W        W19035  42.800  28.074   2.881
55279W        W19036   1.477  24.016   3.182
55280W        W19037  30.959  27.669   5.107
55281W        W19038  41.034  41.035   3.326
55282W        W19039  37.872  27.542   4.229
55283W        W19040   1.351   5.202   1.846
55284W        W19041  28.546  15.641   2.262
55285W        W19042  19.747  43.513   4.712
55286W        W19043  32.409  41.371  14.400
55287W        W19044  19.718  12.126   2.739
55288W        W19045  40.037   3.323   1.213
55289W        W19046   8.716  25.096  11.506
55290W        W19047  10.715  19.756  12.452
55291W        W19048  32.623  10.240   4.133
55292W        W19049   1.250   9.869  10.413
55293W        W19050   6.714   8.220   2.778
55294W        W19051  44.440  36.455  12.485
55295W        W19052  31.975   8.890   4.183
55296W        W19053  36.966  39.004  12.901
55297W        W19054  14.257  32.532  12.350
55298W        W19055  40.412  15.625   4.599
55299W        W19056  11.663  17.638  14.342
55300W        W19057  36.027   9.357  12.843
55301W        W19058   5.245  25.613  12.912
55302W        W19059  27.195  43.294   0.347
55303W        W19060  22.673  32.944  12.383
55304W        W19061  15.600  16.296  14.419
55305W        W19062  44.933  44.328  11.086
55306W        W19063  21.028   5.866   0.895
55307W        W19064  34.387   0.947   4.802
55308W        W19065  25.647  36.410  13.846
55309W        W19066  42.404  39.952   1.748
55310W        W19067   7.890  36.514   4.611
55311W        W19068  16.598   7.311   2.695
55312W        W19069  40.822   0.269  13.322
55313W        W19070  19.564  21.034  11.505
55314W        W19071   9.240   6.709   0.372
55315W        W19072  33.585  16.108   2.683
55316W        W19073  40.499  42.312  10.633
55317W        W19074   1.936  36.393   1.424
55318W        W19075  37.843  35.380  11.512
55319W        W19076  17.179  21.734  11.950
55320W        W19077   5.352  15.764  12.351
55321W        W19078  30.011   3.444   0.402
55322W        W19079  16.577  21.548   2.843
55323W        W19080   6.831  41.387  10.962
55324W        W19081  30.032  17.289   3.855
55325W        W19082  32.897  10.785  11.501
55326W        W19083  35.050  34.010   2.784
55327W        W19084   5.758  26.174   3.666
55328W        W19085  19.163  29.022  11.441
55329W        W19086  26.137  29.934  14.274
55330W        W19087  31.455  33.129   4.647
55331W        W19088  26.700  31.043   3.775
55332W        W19089   3.448  37.841   1.842
55333W        W19090  18.129   3.321  13.003
55334W        W19091  38.347  34.374  14.856
55335W        W19092  38.845  32.078   3.752
55336W        W19093  31.133   8.319  10.968
55337W        W19094  25.626  26.508  10.011
55338W        W19095  31.480  29.126   4.779
55339W        W19096  35.987  26.000   9.529
55340W        W19097  29.528  14.615   2.336
55341W        W19098   9.155   8.337  11.870
55342W        W19099  37.443  19.084  13.475
55343W        W19100  43.902  33.578   0.449
55344W        W19101  23.616  13.344  12.845
55345W        W19102  34.444  31.029  10.571
55346W        W19103  42.905  42.840  14.797
55347W        W19104  37.401  25.542  14.858
55348W        W19105  19.209  29.973   3.812
55349W        W19106  35.427  25.217   0.458
55350W        W19107  33.118  12.835  12.364
55351W        W19108  32.996  11.836   2.817
55352W        W19109  36.021  10.747  12.948
55353W        W19110  17.677   6.321   1.291
55354W        W19111   5.354  42.904  14.778
55355W        W19112  28.936  39.323  10.930
55356W        W19113  43.840  15.156  13.544
55357W        W19114  15.099  27.500  14.808
55358W        W19115  32.620   1.941  12.407
55359W        W19116  42.302  41.956   2.878
55360W        W19117  21.541  12.191  10.950
55361W        W19118  30.016  28.970   2.189
55362W        W19119  27.651  37.930   0.300
55363W        W19120  44.443  14.161   4.707
55364W        W19121  18.646  32.402   1.249
55365W        W19122  24.094  29.612   0.333
55366W        W19123  24.201  25.202  13.524
55367W        W19124  32.455  12.806   4.727
55368W        W19125  17.128  16.077  13.380
55369W        W19126  21.023   8.814  10.129
55370W        W19127  35.982  40.971  12.494
55371W        W19128  17.643  31.080  13.502
55372W        W19129  18.050  24.030  11.535
55373W        W19130  21.740  26.982  14.490
55374W        W19131   5.862  15.255   1.345
55375W        W19132  42.836  30.650   0.257
55376W        W19133  37.986  38.954   3.728
55377W        W19134  43.827  38.548  14.374
55378W        W19135  27.036  29.038   3.288
55379W        W19136  40.928  22.023  12.914
55380W        W19137  37.570  19.272  10.498
55381W        W19138  40.512  14.714  14.446
55382W        W19139  19.100   0.931  13.024
55383W        W19140  26.623  17.286  11.581
55384W        W19141  37.411  15.283  12.012
55385W        W19142  43.312  26.683  10.571
55386W        W19143  41.350  25.695   1.216
55387W        W19144  17.646   6.723   1.401
55388W        W19145   6.702  13.770   0.324
55389W        W19146   3.894   0.420  14.850
55390W        W19147  40.048  17.625  13.345
55391W        W19148  32.899  10.314  11.561
55392W        W19149  28.452   6.800  12.461
55393W        W19150  11.846   6.921  13.819
55394W        W19151  19.673  41.035   0.893
55395W        W19152  26.560  31.609   2.191
55396W        W19153  39.489  39.893  11.054
55397W        W19154   3.802  30.420  12.572
55398W        W19155  21.620  32.086   0.272
55399W        W19156   1.320  32.500   3.796
55400W        W19157  15.106   6.734  14.321
55401W        W19158  16.705  29.126   4.607
55402W        W19159  34.563  20.223   2.714
55403W        W19160  20.618  25.692   1.804
55404W        W19161  17.770  12.645  13.976
55405W        W19162  13.810  13.624   2.817
55406W        W19163  37.899  11.828  10.568
55407W        W19164  24.690  17.625   0.850
55408W        W19165  18.150  23.219  13.347
55409W        W19166   4.723  29.570   0.303
55410W        W19167  33.453  14.289   3.249
55411W        W19168   6.234   2.834  12.902
55412W        W19169  33.053  16.726  14.511
55413W        W19170  20.262   9.291  13.008
55414W        W19171  33.509  31.903  11.049
55415W        W19172  13.679  31.971   1.706
55416W        W19173  22.107   1.480  12.826
55417W        W19174   2.380  22.131  10.544
55418W        W19175  44.324  42.462   0.334
55419W        W19176  34.379  20.274  12.875
55420W        W19177  39.318  36.075   0.859
55421W        W19178  25.209   0.291  13.009
55422W        W19179   4.741  22.078   3.820
55423W        W19180  25.590  10.304   3.708
55424W        W19181  15.659   0.887  12.565
55425W        W19182  10.200  12.639  14.315
55426W        W19183  44.776   5.919  12.349
55427W        W19184  19.177  44.938  11.003
55428W        W19185  38.943  31.141  14.380
55429W        W19186  13.271   9.819   3.787
55430W        W19187   7.397  40.905   2.379
55431W        W19188  24.070  33.981   2.328
55432W        W19189  25.627  22.556  11.395
55433W        W19190  31.453  22.032  12.367
55434W        W19191   3.911  35.998   0.767
55435W        W19192   1.953  41.960   4.716
55436W        W19193  26.954  15.665   2.228
55437W        W19194  22.667  21.140   1.215
55438W        W19195  15.630  26.124   2.403
55439W        W19196   3.721  35.084   3.252
55440W        W19197  12.652  41.909  10.404
55441W        W19198  43.782  11.692   0.764
55442W        W19199   7.387  22.741  12.458
55443W        W19200  43.327  44.376  10.460
55444W        W19201  37.012  15.251   4.113
55445W        W19202  27.035  35.896  14.299
55446W        W19203   1.818  43.949  13.930
55447W        W19204  34.602  28.995   9.975
55448W        W19205  12.759  31.485  13.897
55449W        W19206  37.430  42.867  11.871
55450W        W19207   0.477  32.019  14.467
55451W        W19208  27.467  28.525  13.364
55452W        W19209  44.292   7.173  12.953
55453W        W19210  25.039  15.588  13.348
55454W        W19211  33.420  30.982  11.891
55455W        W19212  39.500  43.914  11.091
55456W        W19213  25.593  44.487  10.504
55457W        W19214  40.800  15.169  10.494
55458W        W19215  15.273  14.231   0.893
55459W        W19216  44.996  13.183   3.861
55460W        W19217   7.783  12.341   0.284
55461W        W19218   3.292  29.921  12.521
55462W        W19219  18.665  39.514   1.880
55463W        W19220   3.750   6.305   0.933
55464W        W19221  23.627  42.972  10.492
55465W        W19222  28.061  33.495   4.162
55466W        W19223   6.404  24.574   4.707
55467W        W19224   7.367  29.654  10.905
55468W        W19225  38.412  35.488  13.460
55469W        W19226  17.648  44.418   9.963
55470W        W19227  34.083  13.734   1.789
55471W        W19228  40.826  27.667   0.326
55472W        W19229  12.328  31.016  11.066
55473W        W19230  32.507  25.581  13.053
55474W        W19231  10.326  25.534  11.400
55475W        W19232   5.215  43.292   0.418
55476W        W19233   8.729  38.351   1.283
55477W        W19234  20.193  19.050  11.458
55478W        W19235  11.321  15.303  12.851
55479W        W19236  41.302  33.504  12.899
55480W        W19237   0.838  29.607   4.147
55481W        W19238  41.475  42.951   0.741
55482W        W19239   1.823  37.862   3.378
55483W        W19240  30.000   9.195   1.790
55484W        W19241  32.081   5.204   2.199
55485W        W19242  33.529  39.367  11.008
55486W        W19243  24.183  24.039  11.461
55487W        W19244  41.881  29.171  11.871
55488W        W19245  40.931  23.143  14.875
55489W        W19246  25.489  44.337   2.359
55490W        W19247   5.417  10.644  10.981
55491W        W19248  18.152  17.064   0.797
55492W        W19249  15.271  36.062  14.974
55493W        W19250  31.436  16.127   3.249
55494W        W19251   0.397  35.967  11.587
55495W        W19252  44.362  33.970  13.391
55496W        W19253  22.592  19.199   4.211
55497W        W19254   2.942  10.845   3.205
55498W        W19255  15.793  36.407  14.363
55499W        W19256  24.197  11.632   1.809
55500W        W19257   4.792   6.706  11.404
55501W        W19258  24.603  32.890   1.342
55502W        W19259  11.175  31.931   0.932
55503W        W19260   9.297  16.285  12.065
55504W        W19261   7.698  16.694   3.312
55505W        W19262   6.682   3.940   3.635
55506W        W19263  32.082  15.681   0.916
55507W        W19264   9.349  41.410   1.388
55508W        W19265   1.436   2.413   1.356
55509W        W19266  40.469   1.797   5.298
55510W        W19267  28.058  12.769  11.475
55511W        W19268  25.572  31.541  10.583
55512W        W19269  23.052  14.588  14.905
55513W        W19270  38.050  15.146   3.763
55514W        W19271  42.909  23.155   1.929
55515W        W19272  18.686  42.971   3.275
55516W        W19273  21.619  37.380   3.840
55517W        W19274  22.513   4.390   3.712
55518W        W19275  42.495   8.825   0.365
55519W        W19276  17.775  39.042   0.350
55520W        W19277  42.823  41.933  12.492
55521W        W19278  22.680   7.197   4.658
55522W        W19279   0.430  20.612   0.956
55523W        W19280  41.335   7.387  13.942
55524W        W19281  35.594  15.291   3.362
55525W        W19282  40.397  31.075  12.380
55526W        W19283   3.790  40.015   2.767
55527W        W19284  26.580  10.786  10.632
55528W        W19285   5.761  12.177  13.809
55529W        W19286  21.030  16.140   0.307
55530W        W19287  26.518  21.017  12.061
55531W        W19288  42.896  23.206   0.899
55532W        W19289  41.522   9.391   4.172
55533W        W19290   2.950  22.595  12.542
55534W        W19291   6.187  38.968   3.732
55535W        W19292   0.471  33.564  14.017
55536W        W19293  35.519  35.008   1.222
55537W        W19294  23.536  10.764  14.014
55538W        W19295  24.200  33.954   2.877
55539W        W19296   2.256  24.984  14.295
55540W        W19297  30.067  37.493   0.325
55541W        W19298  30.920  30.979  11.406
55542W        W19299  27.631  11.670   1.786
55543W        W19300  14.201  28.170   3.356
55544W        W19301  29.584  32.957   0.840
55545W        W19302  15.757  42.936  12.083
55546W        W19303  18.178  28.115   0.303
55547W        W19304   0.867  41.926  13.814
55548W        W19305  24.613   2.346  14.459
55549W        W19306  22.507  13.842  10.589
55550W        W19307  33.604  33.465  11.527
55551W        W19308  12.670  38.074  13.020
55552W        W19309  11.197  37.471   4.794
55553W        W19310  29.439  37.570  11.998
55554W        W19311  26.160  18.665   4.341
55555W        W19312   7.677   2.722   4.822
55556W        W19313  40.919  29.472   0.955
55557W        W19314   8.699  25.663   4.141
55558W        W19315  28.022   5.387   3.307
55559W        W19316  29.615  36.004  14.834
55560W        W19317  40.051  17.307   3.729
55561W        W19318  25.668  14.130  11.462
55562W        W19319  30.921  31.144  12.542
55563W        W19320  33.433  40.813  14.931
55564W        W19321  19.197  39.375   0.372
55565W        W19322   3.878  11.273  10.644
55566W        W19323   0.940  39.856   1.287
55567W        W19324  43.335  14.823  12.496
55568W        W19325  34.414  37.060  13.059
55569W        W19326  21.179  28.620  12.569
55570W        W19327  18.557  40.855  10.601
55571W        W19328   1.249  36.925   3.348
55572W        W19329  27.004  18.778   2.224
55573W        W19330  17.691  29.052   2.288
55574W        W19331  31.415  27.463  14.345
55575W        W19332  41.450  19.622  11.585
55576W        W19333  31.525   0.270  12.915
55577W        W19334  13.282   2.741   4.205
55578W        W19335   4.234   4.273  13.447
55579W        W19336   9.721   2.430   0.932
55580W        W19337  15.225  18.138  10.641
55581W        W19338   3.903   6.890   4.752
55582W        W19339  20.625  36.591  12.019
55583W        W19340  24.173  34.451  11.528
55584W        W19341  30.951  34.978   0.922
55585W        W19342  29.486   0.835  13.323
55586W        W19343  28.468  19.661   1.925
55587W        W19344   0.969  38.064  11.421
55588W        W19345  12.700  37.485   0.953
55589W        W19346  44.930   4.913  11.595
55590W        W19347  35.487  16.661  13.057
55591W        W19348  17.781   4.371   0.437
55592W        W19349   8.898  34.878   1.259
55593W        W19350  14.142   9.311  12.509
55594W        W19351  39.494   3.247  13.914
55595W        W19352  29.450  28.604   0.744
55596W        W19353  41.457  22.726   3.151
55597W        W19354  26.027   1.314   4.820
55598W        W19355  27.673  26.500   3.637
55599W        W19356  16.218   7.824   0.926
55600W        W19357  16.634  26.648   1.786
55601W        W19358  15.223  30.519   0.432
55602W        W19359   6.364  37.911   3.724
55603W        W19360  35.471  34.925  14.873
55604W        W19361  30.935  15.577   0.292
55605W        W19362  41.960  25.522  10.962
55606W        W19363  40.880   1.305   4.290
55607W        W19364  10.674   9.339   1.922
55608W        W19365  14.096  43.986   3.798
55609W        W19366  15.244  12.268   3.751
55610W        W19367  28.015  24.164   5.266
55611W        W19368   7.396  38.059  12.826
55612W        W19369  33.620  36.038   4.745
55613W        W19370  24.985  20.719  12.829
55614W        W19371  25.528   3.239  12.424
55615W        W19372  24.205   0.813  13.362
55616W        W19373  30.150  34.987  11.511
55617W        W19374   5.259  21.700   1.908
55618W        W19375  39.426  12.239   4.323
55619W        W19376  24.615  21.706  11.068
55620W        W19377   8.896  27.943  12.926
55621W        W19378   0.756  16.196   4.708
55622W        W19379   0.788  19.139  10.121
55623W        W19380  33.131  29.448   2.399
55624W        W19381  35.002  22.582   0.421
55625W        W19382   6.847   4.426  11.470
55626W        W19383  43.952  19.247  14.916
55627W        W19384  17.565  24.182  12.032
55628W        W19385  29.023  15.641   1.927
55629W        W19386  12.782  21.255  13.437
55630W        W19387  32.956  23.716   4.130
55631W        W19388   6.256  15.185   0.736
55632W        W19389  23.591  24.229  12.953
55633W        W19390  24.623  14.665  13.912
55634W        W19391   6.190  42.871  10.626
55635W        W19392  41.800   2.468   4.297
55636W        W19393   6.232  39.560   5.202
55637W        W19394   2.882  29.939  12.907
55638W        W19395  15.775   5.865   0.445
55639W        W19396  36.536   2.440   1.903
55640W        W19397  43.316   7.216   3.839
55641W        W19398  41.789  25.082  14.869
55642W        W19399  35.066  43.303  13.988
55643W        W19400  18.611  13.619   0.272
55644W        W19401  29.079  44.322   0.427
55645W        W19402  11.135  18.727  12.548
55646W        W19403  26.032  40.415  10.950
55647W        W19404  43.902  26.201  11.107
55648W        W19405   7.353  43.816   4.744
55649W        W19406  29.490  37.069   4.346
55650W        W19407  15.291  28.981  14.347
55651W        W19408  11.330  31.903   5.264
55652W        W19409  15.786   1.418  10.618
55653W        W19410  17.779  15.670   5.084
55654W        W19411  11.256   9.379  11.927
55655W        W19412  18.606  37.538  11.881
55656W        W19413  21.053  15.710   0.348
55657W        W19414  27.474  22.095  14.910
55658W        W19415  42.340   8.857  14.849
55659W        W19416   9.394  25.595  14.352
55660W        W19417  13.654   7.366   3.803
55661W        W19418  42.914  31.434   2.219
55662W        W19419   0.349  30.452  10.896
55663W        W19420  36.006   2.443   5.110
55664W        W19421  12.821   9.689   3.313
55665W        W19422   1.972  28.971   4.224
55666W        W19423  29.006  39.962  11.371
55667W        W19424  27.945   9.785  14.833
55668W        W19425  44.479  16.744  12.825
55669W        W19426  21.513  39.435  14.872
55670W        W19427   9.306  40.337  10.622
55671W        W19428   1.881  16.081  10.454
55672W        W19429  17.690  18.085  14.364
55673W        W19430  16.684  15.724  11.388
55674W        W19431  23.546   4.314   2.846
55675W        W19432  35.094   5.313  13.524
55676W        W19433  39.945  28.454  14.289
55677W        W19434  30.038   3.249  12.386
55678W        W19435  23.708  13.296  11.479
55679W        W19436  41.008  11.295  10.442
55680W        W19437  21.594  34.464  14.488
55681W        W19438   2.233  41.306   2.662
55682W        W19439   6.787  39.894   3.816
55683W        W19440  23.120  34.412  14.349
55684W        W19441  13.298  25.624  13.313
55685W        W19442  28.144  33.044  12.989
55686W        W19443  32.922   9.221   0.428
55687W        W19444  11.686  20.251   1.323
55688W        W19445  22.713   0.948  10.466
55689W        W19446  18.223   6.411  11.122
55690W        W19447  19.605  17.189   2.720
55691W        W19448   4.941  11.307  13.422
55692W        W19449  32.479  43.933   3.827
55693W        W19450  34.057  38.861   2.726
55694W        W19451   2.899  34.040  12.914
55695W        W19452  15.205   4.788   4.824
55696W        W19453  35.601  19.103   0.275
55697W        W19454   3.941  31.993   3.364
55698W        W19455  43.835   4.311  12.851
55699W        W19456  17.223  34.543   1.260
55700W        W19457   5.437  27.480   0.867
55701W        W19458  32.122   3.391  13.900
55702W        W19459  41.835  14.133  10.547
55703W        W19460  16.313  31.121  11.437
55704W        W19461  34.415  39.552   2.797
55705W        W19462  18.071  35.598   2.679
55706W        W19463  27.130  10.856   3.762
55707W        W19464  40.519  15.220   2.885
55708W        W19465  16.625  38.075  12.342
55709W        W19466   6.271  22.071  13.479
55710W        W19467  28.499  10.333  10.935
55711W        W19468  26.164  38.485  12.557
55712W        W19469   5.352   6.424  11.991
55713W        W19470  29.176  18.164   1.369
55714W        W19471  42.408   2.333  13.534
55715W        W19472   1.962  29.620   4.158
55716W        W19473  36.526  19.746  11.030
55717W        W19474   1.913  13.760   2.228
55718W        W19475  33.456  28.531  11.991
55719W        W19476   3.425  22.726  11.484
55720W        W19477  24.196  30.425   2.344
55721W        W19478  21.548  31.562   3.191
55722W        W19479  26.648  12.679   0.395
55723W        W19480  29.165  40.512  13.979
55724W        W19481  27.679  44.754   1.228
55725W        W19482   0.974  38.411   1.821
55726W        W19483   9.342  44.819   0.741
55727W        W19484  11.821  24.528  10.445
55728W        W19485  32.601  40.913   4.768
55729W        W19486  18.751   5.389   1.354
55730W        W19487  40.334  37.344  12.952
55731W        W19488  11.723   3.310  14.998
55732W        W19489   8.780   6.257   1.861
55733W        W19490  34.399  26.595  12.455
55734W        W19491   8.848  19.231   2.390
55735W        W19492  25.207  30.536   0.775
55736W        W19493   5.379  37.383  13.382
55737W        W19494   0.961  17.572   1.276
55738W        W19495  36.015  13.243  12.452
55739W        W19496  13.662  12.187   3.767
55740W        W19497   7.821  14.101   4.127
55741W        W19498  30.147  18.703  12.857
55742W        W19499  18.170  19.109   1.388
55743W        W19500   4.213  24.181  13.985
55744W        W19501   4.409  36.411  11.889
55745W        W19502  35.364  27.128   0.953
55746W        W19503  26.954   8.228   0.814
55747W        W19504  28.067  34.448  14.874
55748W        W19505  37.026   7.691   1.394
55749W        W19506   0.314  36.535   0.804
55750W        W19507  39.560  28.655   1.776
55751W        W19508   5.331  32.898   1.859
55752W        W19509  42.836  33.513   2.257
55753W        W19510  18.551  27.042  10.626
55754W        W19511   8.198   2.376  13.508
55755W        W19512  36.029  33.484   4.750
55756W        W19513  37.888  33.519   4.338
55757W        W19514  21.605   7.888   3.815
55758W        W19515   9.150  38.065   2.814
55759W        W19516  30.924  23.196  11.424
55760W        W19517   2.279  40.306  14.879
55761W        W19518   1.331   4.441  10.510
55762W        W19519  17.568  17.744   3.691
55763W        W19520  38.056  16.794   1.807
55764W        W19521  11.209  32.892  14.508
55765W        W19522   0.354  38.012  10.485
55766W        W19523   2.459  41.377   0.459
55767W        W19524  24.230  39.816  10.408
55768W        W19525  28.642   8.234   0.264
55769W        W19526   0.390  18.264  13.906
55770W        W19527   8.682  23.147   3.705
55771W        W19528  33.934   1.278  10.597
55772W        W19529  41.362   2.937  11.068
55773W        W19530  32.507  10.251   2.799
55774W        W19531  25.552   3.220   5.149
55775W        W19532  31.012  39.431  14.467
55776W        W19533  13.278   9.279  14.835
55777W        W19534  26.085  19.138   0.290
55778W        W19535  25.092  12.194   0.313
55779W        W19536  34.468   0.757  14.431
55780W        W19537   7.314   3.777   4.811
55781W        W19538  30.087  26.974  12.560
55782W        W19539   7.714  23.011  11.518
55783W        W19540  10.232  35.878   4.179
55784W        W19541  19.657  15.786  12.967
55785W        W19542  14.811  10.271   1.789
55786W        W19543   5.319  32.529  13.531
55787W        W19544  14.731   1.277  11.942
55788W        W19545   2.955  22.660   1.310
55789W        W19546  21.642   0.297   0.357
55790W        W19547   5.438  27.048   3.642
55791W        W19548  18.247   8.207  10.922
55792W        W19549  22.183  25.200   3.726
55793W        W19550  38.539  39.002   1.274
55794W        W19551  31.116  25.013  11.379
55795W        W19552  11.311  11.744  11.884
55796W        W19553  44.932  20.274  12.365
55797W        W19554  24.992  11.336   1.881
55798W        W19555  33.508  23.590  14.457
55799W        W19556   7.269  19.189  10.911
55800W        W19557  18.057  14.727   3.253
55801W        W19558  44.491  42.012   2.838
55802W        W19559  41.307  34.552  12.058
55803W        W19560   2.907  38.481  14.817
55804W        W19561  12.650  42.334   2.759
55805W        W19562  36.993  13.781  10.898
55806W        W19563   9.666   5.778  11.871
55807W        W19564  38.953  33.116   2.774
55808W        W19565   9.799   9.198   2.870
55809W        W19566  41.805  44.833  11.444
55810W        W19567  18.641  31.122   4.177
55811W        W19568  21.200   3.294  11.926
55812W        W19569   2.293  39.470  11.443
55813W        W19570  31.445  22.603  12.980
55814W        W19571  26.611   8.712   3.342
55815W        W19572  42.376   3.805  10.538
55816W        W19573  35.365   8.212  13.018
55817W        W19574  31.537  43.325   2.873
55818W        W19575  25.617  32.399   0.481
55819W        W19576  26.022  18.078   2.694
55820W        W19577  25.199  11.678   4.768
55821W        W19578  31.627   8.363   4.689
55822W        W19579  11.690  20.690  12.083
55823W        W19580  35.954  26.006  14.833
55824W        W19581   3.451   4.281   3.218
55825W        W19582  13.634  21.635   3.345
55826W        W19583   7.839  20.579   0.342
55827W        W19584  39.932  17.245  14.920
55828W        W19585  40.906   9.740   2.397
55829W        W19586  25.595  28.176   4.276
55830W        W19587   0.367   7.191   1.439
55831W        W19588  39.369  40.038  13.472
55832W        W19589   5.205   2.956   4.811
55833W        W19590  12.310  13.800   4.252
55834W        W19591  27.495  26.543  11.612
55835W        W19592  33.621   2.847   2.256
55836W        W19593   8.243  28.500  13.954
55837W        W19594  32.602   9.395   0.946
55838W        W19595  36.577  34.450  13.400
55839W        W19596  34.988  43.363   2.180
55840W        W19597  32.108  14.249  14.994
55841W        W19598  42.499   3.884  12.504
55842W        W19599   4.910  43.861  10.636
55843W        W19600  42.395  28.983   2.364
55844W        W19601  27.503  22.666  12.386
55845W        W19602  35.973  12.333   3.719
55846W        W19603  16.081  24.107  14.351
55847W        W19604   0.965  12.759   3.149
55848W        W19605   1.913   6.826   1.419
55849W        W19606  12.254   7.857  12.948
55850W        W19607  11.787  29.977   4.742
55851W        W19608  40.822  20.113  10.939
55852W        W19609  33.453  43.816   3.324
55853W        W19610   2.443  16.130  12.875
55854W        W19611  42.024  39.831  14.864
55855W        W19612   4.422  23.224  13.332
55856W        W19613   3.444  39.928   2.729
55857W        W19614  17.623  18.553  11.383
55858W        W19615  40.812  11.153  13.808
55859W        W19616  28.164  39.037  14.944
55860W        W19617  24.637  26.061  13.374
55861W        W19618  22.515  34.483  11.089
55862W        W19619   1.969  29.175   0.446
55863W        W19620  37.387  20.170   0.383
55864W        W19621  29.490  10.768   2.794
55865W        W19622  29.489  29.466  11.856
55866W        W19623   0.441  28.541   3.845
55867W        W19624  32.112  25.542   2.364
55868W        W19625   3.378  34.094  12.529
55869W        W19626  12.192  21.716   2.672
55870W        W19627   7.704   0.889   0.283
55871W        W19628  39.898  37.547   1.889
55872W        W19629  37.008  17.147   4.766
55873W        W19630   4.778  36.859  11.485
55874W        W19631  28.486  40.922  11.386
55875W        W19632  30.132  10.678  14.941
55876W        W19633  21.529  42.913  13.447
55877W        W19634  33.034   8.656  12.449
55878W        W19635  38.409  29.517  11.576
55879W        W19636  39.457  16.152  12.946
55880W        W19637  41.917  32.522  10.512
55881W        W19638  20.641  25.044  13.868
55882W        W19639  27.156  20.037   4.350
55883W        W19640   4.735  27.080  12.054
55884W        W19641   7.282  33.947  10.944
55885W        W19642  37.905  31.998   9.949
55886W        W19643  24.026   4.768   0.933
55887W        W19644   7.216   3.751  13.363
55888W        W19645   8.350  42.032   2.411
55889W        W19646   6.740  14.137   3.323
55890W        W19647  17.642  26.632  10.552
55891W        W19648  14.762  32.119   3.266
55892W        W19649   9.352  30.163   1.224
55893W        W19650  35.530  43.796  12.974
55894W        W19651  16.769   0.979   0.365
55895W        W19652  33.077  17.191   1.233
55896W        W19653  13.125  22.059   4.312
55897W        W19654  43.779  29.522  12.028
55898W        W19655   3.728  43.454  11.423
55899W        W19656  31.474  30.048   5.645
55900W        W19657  42.957  11.347  10.408
55901W        W19658   8.676  44.479  10.939
55902W        W19659  18.102  27.982   3.698
55903W        W19660  43.974  43.459   3.652
55904W        W19661  17.153  24.150   3.349
55905W        W19662  18.614  12.311  13.357
55906W        W19663  22.533  28.119  12.027
55907W        W19664  28.032  41.917   1.318
55908W        W19665  30.040  24.133   4.759
55909W        W19666  42.295   2.804  10.606
55910W        W19667  34.107  22.026   1.295
55911W        W19668  36.380  39.403  11.430
55912W        W19669  39.943  36.492   2.332
55913W        W19670  14.625  41.352   4.201
55914W        W19671  11.671   1.878   4.179
55915W        W19672  31.426  33.128   2.180
55916W        W19673  16.079  32.099   4.273
55917W        W19674  22.080  35.572   0.774
55918W        W19675  17.243   2.847   4.817
55919W        W19676  44.292   9.798   1.770
55920W        W19677  19.165   8.271   4.150
55921W        W19678   4.377  26.150  12.976
55922W        W19679  40.322  25.525  11.595
55923W        W19680   3.215  17.231   4.205
55924W        W19681  39.420   4.207  10.919
55925W        W19682  22.225  24.593  12.837
55926W        W19683   4.898  31.903   0.428
55927W        W19684  30.639  36.997   4.641
55928W        W19685   9.756   5.897   3.843
55929W        W19686  28.564  32.117   3.207
55930W        W19687  30.435  38.534  12.462
55931W        W19688  23.231   9.340   3.265
55932W        W19689  23.181  15.765  13.351
55933W        W19690   9.371  41.786  11.382
55934W        W19691  35.493  30.568  13.413
55935W        W19692  32.058  14.263  14.466
55936W        W19693  32.392  17.767  14.974
55937W        W19694  36.452   6.401   2.387
55938W        W19695  11.805  37.358   4.146
55939W        W19696  31.496  19.268   3.275
55940W        W19697  28.659  23.052  11.992
55941W        W19698  41.793  32.102   4.791
55942W        W19699  26.590  41.502   4.180
55943W        W19700  17.781  10.149  14.827
55944W        W19701  26.011   3.908   1.849
55945W        W19702  12.131  24.982  11.944
55946W        W19703  35.479  13.704   1.768
55947W        W19704  39.019  16.146  12.051
55948W        W19705  12.850  24.509  10.433
55949W        W19706  33.105  20.051  12.048
55950W        W19707  16.645   5.212   2.813
55951W        W19708  20.719  35.962   2.679
55952W        W19709  41.454  22.641   0.887
55953W        W19710  13.626  12.809   2.418
55954W        W19711  34.427  42.979   2.217
55955W        W19712   1.893  42.020  10.409
55956W        W19713  17.204  17.215   5.232
55957W        W19714  41.421  12.706   0.910
55958W        W19715  37.018  30.981  14.965
55959W        W19716  39.840   3.424  10.044
55960W        W19717  20.151  23.228  13.468
55961W        W19718   9.173   1.877   4.597
55962W        W19719  36.574  35.570  13.009
55963W        W19720  33.906   6.389  11.452
55964W        W19721   5.929   4.878  13.878
55965W        W19722   6.246  39.467   3.234
55966W        W19723  29.670  36.002  13.943
55967W        W19724  35.585   3.232   3.629
55968W        W19725  33.399  42.367  14.991
55969W        W19726  11.281  28.149   3.656
55970W        W19727  33.935   1.450   2.792
55971W        W19728  42.341   4.795  10.457
55972W        W19729  10.145   4.728  12.545
55973W        W19730   3.727  31.607  13.353
55974W        W19731  44.889  11.358   4.293
55975W        W19732   0.837  25.511   1.710
55976W        W19733  26.191  11.133   4.122
55977W        W19734  15.188  12.744   1.905
55978W        W19735  35.432  25.516  10.492
55979W        W19736  24.686  22.245  13.049
55980W        W19737  42.865  24.613  10.638
55981W        W19738  27.047  13.119  12.478
55982W        W19739  26.639  22.594   0.793
55983W        W19740   3.764  28.109  13.314
55984W        W19741  39.449  30.574   2.394
55985W        W19742   9.156  25.161   4.179
55986W        W19743  23.637  16.570  10.525
55987W        W19744   5.862  25.660  13.992
55988W        W19745  24.502  20.272  13.958
55989W        W19746   7.416  30.954   1.935
55990W        W19747  42.791  33.956   4.696
55991W        W19748  37.055  35.900   3.795
55992W        W19749  19.064  37.424  11.958
55993W        W19750   0.934  21.097   4.142
55994W        W19751   7.202  44.932   2.228
55995W        W19752  26.060  34.448   2.711
55996W        W19753  44.800  18.083  13.805
55997W        W19754  37.418   8.773   1.754
55998W        W19755  38.831   9.805   2.855
55999W        W19756  41.367   8.228   0.841
56000W        W19757  17.077   0.263  10.480
56001W        W19758  35.023  24.183   3.179
56002W        W19759  24.603  15.671  11.080
56003W        W19760  34.065   1.302  12.013
56004W        W19761   4.793  10.669   1.794
56005W        W19762  20.263  11.285  11.128
56006W        W19763   3.849   4.754   0.892
56007W        W19764  30.071  20.714  12.463
56008W        W19765   4.274  25.607  13.406
56009W        W19766  37.545  39.029  13.347
56010W        W19767   6.220  12.224  10.517
56011W        W19768   2.459  23.048  10.473
56012W        W19769  14.150  25.042  13.401
56013W        W19770  42.850  14.671  10.645
56014W        W19771  32.967  27.193  11.893
56015W        W19772  42.971   3.927   1.744
56016W        W19773  34.908  36.961   2.721
56017W        W19774  19.255   8.261  14.982
56018W        W19775  40.916  38.536   3.655
56019W        W19776  44.978  27.105  14.386
56020W        W19777  18.625  25.560   3.303
56021W        W19778  40.376   4.313   3.230
56022W        W19779  25.067  24.982  12.556
56023W        W19780  38.465  11.644  13.542
56024W        W19781  19.274  29.500   4.218
56025W        W19782  23.551  35.529   2.413
56026W        W19783   6.412   1.798   0.372
56027W        W19784  10.179   8.306  12.485
56028W        W19785  39.510  28.018   0.418
56029W        W19786   3.447  37.560  13.059
56030W        W19787  20.255  21.581   3.336
56031W        W19788   5.911  35.487   1.316
56032W        W19789  37.890  12.615   0.349
56033W        W19790  30.655  34.100  11.412
56034W        W19791  33.517  25.662  13.830
56035W        W19792  43.351  13.171   4.322
56036W        W19793   8.683   4.802  10.641
56037W        W19794   8.846  34.902   5.150
56038W        W19795  31.057  28.560  10.468
56039W        W19796  28.501   9.852   1.779
56040W        W19797  13.764  37.968  12.575
56041W        W19798  29.498  41.459  10.504
56042W        W19799   3.847  26.062   2.671
56043W        W19800  35.922  42.442  11.049
56044W        W19801  22.504  14.705   0.868
56045W        W19802  38.033   4.725   0.775
56046W        W19803  25.078  31.499  11.499
56047W        W19804  12.239  36.466  14.929
56048W        W19805   6.806  35.548  14.311
56049W        W19806  10.755  37.062  11.381
56050W        W19807  25.617  38.946   3.770
56051W        W19808  35.943  38.377  10.970
56052W        W19809  16.283   8.790  12.557
56053W        W19810   4.268  39.825   2.680
56054W        W19811  28.950  22.689   0.955
56055W        W19812  13.328  15.814   5.105
56056W        W19813   2.425  33.475  12.524
56057W        W19814   1.426  13.244   4.210
56058W        W19815  25.694  38.880   0.869
56059W        W19816  37.889  43.999   3.710
56060W        W19817  26.004  13.213  13.341
56061W        W19818  25.043  34.871   4.785
56062W        W19819   3.935  14.306   3.726
56063W        W19820  26.013  24.179   2.813
56064W        W19821  24.048  43.826   3.817
56065W        W19822  41.419  16.122   0.939
56066W        W19823  30.080  27.486  12.839
56067W        W19824  26.137  38.431  10.601
56068W        W19825   4.266  26.185  10.924
56069W        W19826  30.552  39.993  11.446
56070W        W19827  16.797  38.977   1.218
56071W        W19828   8.166   2.937   2.785
56072W        W19829  16.123  25.969  12.565
56073W        W19830  21.151  19.728  11.459
56074W        W19831  11.632   5.276   2.281
56075W        W19832  13.118  38.352   2.290
56076W        W19833  12.346   0.939  11.911
56077W        W19834  40.382   0.888   3.341
56078W        W19835   4.867   4.210   4.632
56079W        W19836  22.075   1.317  10.405
56080W        W19837   6.892   8.836  11.988
56081W        W19838  38.829  26.149   5.222
56082W        W19839  17.663  12.126   5.094
56083W        W19840  38.357  15.097  14.419
56084W        W19841  26.618   4.763  13.962
56085W        W19842  43.956  21.037  13.909
56086W        W19843  14.247  43.985  13.493
56087W        W19844  29.641  18.725   1.280
56088W        W19845   5.791  17.148  14.809
56089W        W19846  39.559  33.070   2.214
56090W        W19847  44.398  33.453  12.953
56091W        W19848   4.752  34.061   0.749
56092W        W19849  36.383   0.976   4.643
56093W        W19850  39.542   7.414  14.994
56094W        W19851   4.889  34.038  12.834
56095W        W19852  35.391  25.523   1.880
56096W        W19853   5.410   7.334  11.090
56097W        W19854  37.510  14.708  14.315
56098W        W19855  33.985  16.645  13.053
56099W        W19856  33.951  18.096  11.405
56100W        W19857   4.221  40.838  12.053
56101W        W19858   9.764  37.850   0.423
56102W        W19859  23.052  22.999  10.629
56103W        W19860  22.663  16.710   4.758
56104W        W19861   3.455  35.945   3.842
56105W        W19862   7.289  40.919   4.223
56106W        W19863  28.104  37.354  10.571
56107W        W19864  33.475  12.649   4.779
56108W        W19865  38.444  25.144  10.965
56109W        W19866  23.704  28.026  12.865
56110W        W19867   5.320  18.666   0.897
56111W        W19868  16.764   3.729  10.528
56112W        W19869  22.522  34.568   2.300
56113W        W19870  30.965   2.923  10.494
56114W        W19871   2.459  21.661   4.140
56115W        W19872  15.092  38.029   4.636
56116W        W19873  40.426   9.846   3.720
56117W        W19874  26.526  38.026  12.046
56118W        W19875  28.489   7.351   2.372
56119W        W19876  33.939  14.742   1.391
56120W        W19877  32.634  29.921   1.746
56121W        W19878  42.287  13.841   0.956
56122W        W19879  35.078  36.582   0.473
56123W        W19880  16.263  44.970  13.875
56124W        W19881  26.136  13.313  10.538
56125W        W19882  12.706  27.068   3.214
56126W        W19883  29.472  22.727   9.509
56127W        W19884   1.374   0.838  14.855
56128W        W19885  23.650   0.471  11.411
56129W        W19886  39.033  25.601  14.795
56130W        W19887  38.410   5.817  11.955
56131W        W19888   4.265  15.305  11.448
56132W        W19889   6.887  35.532   1.894
56133W        W19890  19.580  37.350   4.665
56134W        W19891  14.604  40.318  13.792
56135W        W19892   7.704  17.122   1.704
56136W        W19893  34.019  26.516  12.460
56137W        W19894  44.857  22.140  10.412
56138W        W19895   2.312   3.764  11.001
56139W        W19896  11.858  41.482   1.858
56140W        W19897  10.723  35.425   4.639
56141W        W19898  28.676  24.093   4.663
56142W        W19899  26.674  22.222   5.225
56143W        W19900   0.442   8.899  13.507
56144W        W19901   9.266  21.019   1.288
56145W        W19902  10.846  13.830   3.685
56146W        W19903  31.517   8.890   3.301
56147W        W19904  18.217  36.847  11.443
56148W        W19905  11.215  44.348  13.423
56149W        W19906  24.153  12.261   2.355
56150W        W19907  10.295  40.403   3.237
56151W        W19908  13.284   4.709   4.731
56152W        W19909  20.731  16.201  12.502
56153W        W19910  11.730  11.652   1.293
56154W        W19911  29.653   4.812   5.193
56155W        W19912  42.980   8.266  10.477
56156W        W19913  38.558   2.748  12.033
56157W        W19914   5.851   8.704   4.764
56158W        W19915  40.347  42.452   0.332
56159W        W19916   9.310   4.853   0.307
56160W        W19917  12.722  26.981  11.020
56161W        W19918   1.427  20.637  12.525
56162W        W19919  18.119  43.325  12.973
56163W        W19920   6.389  26.678   3.198
56164W        W19921   5.415  15.794  11.514
56165W        W19922  23.643  22.663  13.533
56166W        W19923  18.078  37.969  13.799
56167W        W19924  14.129   7.305   1.935
56168W        W19925  33.911   0.887  10.540
56169W        W19926  36.950  38.861  14.813
56170W        W19927  40.002  23.674   1.388
56171W        W19928  22.011  28.500  14.925
56172W        W19929  27.013  43.400   1.352
56173W        W19930   1.960  19.571   2.756
56174W        W19931  15.138  28.545   2.903
56175W        W19932  30.016  21.058   3.748
56176W        W19933  37.955  10.699  14.789
56177W        W19934   2.405  13.206  11.489
56178W        W19935  13.637  33.530  12.535
56179W        W19936  39.033  33.005   2.201
56180W        W19937  28.601  18.133   0.390
56181W        W19938  25.651  29.049  13.406
56182W        W19939  16.094  38.552   2.317
56183W        W19940  14.203  15.293   3.775
56184W        W19941   3.741   4.811   1.700
56185W        W19942  38.516   5.819  11.434
56186W        W19943  33.605  26.171  13.869
56187W        W19944  44.918  31.979   3.224
56188W        W19945  12.686  29.981   0.733
56189W        W19946  19.050  38.948  10.428
56190W        W19947  24.616  38.933  10.898
56191W        W19948   0.393  32.528  14.399
56192W        W19949   2.421  25.650   0.915
56193W        W19950  22.060  17.280   4.197
56194W        W19951  38.004  11.359   3.362
56195W        W19952  18.605  35.945  11.581
56196W        W19953  42.348  14.205   2.779
56197W        W19954  13.603  38.993   1.789
56198W        W19955  11.338  29.980   1.270
56199W        W19956  15.786  30.941  11.508
56200W        W19957   5.271  26.095   4.710
56201W        W19958  24.112  14.110   4.124
56202W        W19959  30.960  11.743   9.993
56203W        W19960  28.996  28.128  14.004
56204W        W19961  19.149  30.583  13.384
56205W        W19962   7.416  23.149   1.277
56206W        W19963  38.494  35.582   2.857
56207W        W19964   1.478   4.845  14.422
56208W        W19965  11.734   3.429   1.791
56209W        W19966   9.779  34.537  14.800
56210W        W19967  18.559  37.373  10.589
56211W        W19968  24.229  16.724  11.982
56212W        W19969  29.975  17.274  13.308
56213W        W19970   9.225  38.563  10.967
56214W        W19971  13.740  13.681  12.450
56215W        W19972  33.527   1.441  11.521
56216W        W19973  12.646  35.472   3.832
56217W        W19974  18.547  30.592   3.336
56218W        W19975   1.375  18.073  13.890
56219W        W19976   6.853  34.552   1.901
56220W        W19977  21.540  17.280  11.466
56221W        W19978  44.989  32.484  14.987
56222W        W19979  43.399   0.266   4.740
56223W        W19980  42.978  12.750   3.673
56224W        W19981  15.614  12.704   3.632
56225W        W19982  12.622   5.831  14.337
56226W        W19983  18.065  33.424  10.422
56227W        W19984  15.244  18.733  12.865
56228W        W19985  42.499  29.941  12.933
56229W        W19986  17.290   4.877  13.848
56230W        W19987  19.149  10.686   2.283
56231W        W19988  37.896  28.489  13.543
56232W        W19989   3.773   3.340   4.153
56233W        W19990  10.710  35.071   2.277
56234W        W19991  25.024  21.738   3.246
56235W        W19992  34.900  25.154   3.737
56236W        W19993   4.716  30.142   3.649
56237W        W19994  32.927  21.598   4.230
56238W        W19995   3.811   2.895   4.191
56239W        W19996   3.333  12.825   4.827
56240W        W19997  27.634  30.417  12.974
56241W        W19998   7.301  41.421  14.393
56242W        W19999  17.683  30.652   1.354
56243W        W20000  40.000  31.569  14.304
56244W        W20001  18.162  18.271  12.010
56245W        W20002  35.485   3.385  12.418
56246W        W20003  26.460  16.229  12.516
56247W        W20004  44.911  26.459  14.814
56248W        W20005  15.613  32.082  14.284
56249W        W20006  26.159  27.051  11.463
56250W        W20007  22.080  10.745   0.774
56251W        W20008  31.455  44.301  11.061
56252W        W20009  22.066  31.945   0.938
56253W        W20010  30.028  23.211  14.861
56254W        W20011  15.261   0.848   2.718
56255W        W20012  19.652  37.954   0.299
56256W        W20013  16.742  18.116  12.531
56257W        W20014  21.626  43.836   1.381
56258W        W20015  41.378   8.255   0.358
56259W        W20016  41.902  12.315  14.409
56260W        W20017  42.838  43.925  11.991
56261W        W20018  44.924   5.360  12.981
56262W        W20019  14.184   7.372  13.429
56263W        W20020   7.409  10.146  14.473
56264W        W20021  25.032   4.233   2.351
56265W        W20022  23.098  38.326  12.999
56266W        W20023  32.989  35.886   3.185
56267W        W20024  17.679  38.471  13.348
56268W        W20025   4.840  19.141  12.868
56269W        W20026   2.368   1.810  11.047
56270W        W20027  14.243   8.772   3.742
56271W        W20028  37.436  22.644   4.795
56272W        W20029  24.105  42.472  12.565
56273W        W20030  14.117  11.746   0.259
56274W        W20031  39.329  32.501   3.822
56275W        W20032  20.680   5.796   2.347
56276W        W20033  13.708  34.439  11.088
56277W        W20034  19.190   3.953  13.490
56278W        W20035   3.900  43.474  13.050
56279W        W20036  30.987  35.994  12.998
56280W        W20037  29.543  39.834  10.965
56281W        W20038  44.837  26.657   1.272
56282W        W20039  19.650  18.762   4.249
56283W        W20040  38.021  36.559  11.110
56284W        W20041  26.644  17.677   4.317
56285W        W20042  29.007   2.917   0.964
56286W        W20043  17.160  39.989   3.721
56287W        W20044   9.247  44.918   3.758
56288W        W20045  33.491  25.105   5.126
56289W        W20046  15.191  25.983   1.435
56290W        W20047   3.779  36.426  12.405
56291W        W20048  26.479  21.577   9.497
56292W        W20049  14.328  36.384   1.301
56293W        W20050  26.626  28.091   1.321
56294W        W20051  40.889  34.895   4.123
56295W        W20052  36.458   7.234   1.255
56296W        W20053  24.539  44.306   0.857
56297W        W20054   8.674   2.865  10.897
56298W        W20055  25.081  15.618   2.231
56299W        W20056  23.123  13.217  13.035
56300W        W20057  44.886  40.536   0.247
56301W        W20058  11.812  23.997  11.930
56302W        W20059  33.994  38.344  14.923
56303W        W20060  32.627  34.946   4.661
56304W        W20061  33.047  42.338  12.422
56305W        W20062   6.210  35.909   3.639
56306W        W20063  31.640  28.164   2.746
56307W        W20064   6.783  30.484   4.639
56308W        W20065  25.555  23.677   2.412
56309W        W20066  19.760   4.237  13.792
56310W        W20067  41.299  34.542   4.769
56311W        W20068   5.200  10.145   2.414
56312W        W20069   7.319  19.687  12.523
56313W        W20070   3.414  36.059   1.219
56314W        W20071   7.895  28.439   0.932
56315W        W20072   3.278  34.100   4.623
56316W        W20073  39.518  13.732   1.321
56317W        W20074   5.927  33.085   3.245
56318W        W20075  10.352  27.075   2.253
56319W        W20076  19.630   6.726   2.760
56320W        W20077  29.634  16.677   1.335
56321W        W20078  28.082  10.381   0.303
56322W        W20079  33.056  19.039   1.847
56323W        W20080  36.541  12.247  11.421
56324W        W20081  37.537  28.668  14.912
56325W        W20082  29.625  11.623   2.400
56326W        W20083  27.994  26.193   2.417
56327W        W20084  13.809   7.894  11.532
56328W        W20085  19.059   9.713  13.989
56329W        W20086   1.375  44.903   0.750
56330W        W20087  13.766  14.695  14.841
56331W        W20088  35.478  27.975   0.917
56332W        W20089  10.847  11.793   4.703
56333W        W20090  15.659  26.464  11.436
56334W        W20091   0.928  35.867  14.976
56335W        W20092   3.863  15.303   1.257
56336W        W20093  34.576   6.740   2.747
56337W        W20094   0.885   5.437   4.243
56338W        W20095  38.407  19.260  12.368
56339W        W20096  19.113   7.879  10.889
56340W        W20097  44.361  40.405  13.989
56341W        W20098  34.965  14.189   0.445
56342W        W20099   7.274  39.352   0.864
56343W        W20100  10.321  26.509   3.758
56344W        W20101   8.761  32.451   3.638
56345W        W20102  43.792  41.319   2.350
56346W        W20103  26.642  34.055  11.088
56347W        W20104  12.749   0.779  10.610
56348W        W20105  35.949  25.977   3.672
56349W        W20106   6.844  25.197  11.003
56350W        W20107   5.874   3.242  14.838
56351W        W20108  17.218  29.954   1.258
56352W        W20109  37.521  29.448   3.636
56353W        W20110  15.607   5.716   2.884
56354W        W20111   2.762  44.818   4.322
56355W        W20112  36.046  19.747  13.007
56356W        W20113   9.721  15.664   4.658
56357W        W20114  17.156  28.475   0.914
56358W        W20115  39.525  17.619  10.416
56359W        W20116  41.003  21.543   3.794
56360W        W20117   0.777  36.972  13.841
56361W        W20118  12.632   4.913   3.766
56362W        W20119  13.307  17.259   4.153
56363W        W20120  31.134  22.014  14.400
56364W        W20121  32.940   4.346   1.715
56365W        W20122  34.880  29.174   4.294
56366W        W20123   4.871  24.478   5.090
56367W        W20124  37.918  20.769   4.190
56368W        W20125  15.587  17.597  14.376
56369W        W20126  19.667  24.006  13.029
56370W        W20127  26.465  21.110  12.492
56371W        W20128   7.684  21.173   1.835
56372W        W20129   3.363   6.222   4.688
56373W        W20130  22.225  35.512  12.916
56374W        W20131   2.457  41.394  10.431
56375W        W20132  10.836  35.002  14.462
56376W        W20133  29.581  12.267   3.768
56377W        W20134  37.018  30.537   2.346
56378W        W20135  13.109   2.455   4.267
56379W        W20136   7.332  14.643  11.023
56380W        W20137  29.954  21.619   2.318
56381W        W20138  20.557   9.728  13.886
56382W        W20139  17.610  25.496   0.792
56383W        W20140   0.780   1.414   3.794
56384W        W20141  42.901  22.657  10.633
56385W        W20142  37.912   3.369   2.362
56386W        W20143  29.546   1.744  10.622
56387W        W20144  13.744  34.474   3.867
56388W        W20145  18.206  11.189  10.075
56389W        W20146  22.642   1.731  13.007
56390W        W20147  20.523   8.824   2.784
56391W        W20148  26.677  25.057   1.771
56392W        W20149  13.809  14.656  10.493
56393W        W20150   3.240  18.664   2.277
56394W        W20151   6.253  16.701   4.645
56395W        W20152  19.235  33.985   4.719
56396W        W20153  22.214   1.844  11.987
56397W        W20154  26.568  10.351   1.355
56398W        W20155  43.954  33.979  13.958
56399W        W20156  14.191  43.009  14.990
56400W        W20157   1.311  44.897   4.676
56401W        W20158  29.044  14.804   0.447
56402W        W20159  32.990  11.649  12.423
56403W        W20160  28.155  27.591  11.062
56404W        W20161   7.800   4.854  14.383
56405W        W20162  42.339  28.945  11.123
56406W        W20163  43.952  22.550  12.023
56407W        W20164   9.377   8.897  12.491
56408W        W20165   8.185  18.774  12.458
56409W        W20166  43.507  33.058  14.449
56410W        W20167  22.559  34.598   1.322
56411W        W20168  41.292  44.782   2.195
56412W        W20169  43.803  19.248   4.260
56413W        W20170  22.595  19.725   0.835
56414W        W20171  19.597   7.317   1.877
56415W        W20172  13.222  22.672   0.325
56416W        W20173   3.393  20.038  11.060
56417W        W20174   3.944  31.087   3.340
56418W        W20175   2.740  29.489  12.019
56419W        W20176  34.095  18.056   2.272
56420W        W20177  36.422  34.057   3.809
56421W        W20178  34.022  14.662   4.320
56422W        W20179  14.233  10.800  11.543
56423W        W20180  36.518  25.058   4.623
56424W        W20181  23.490  18.293  11.484
56425W        W20182  14.593  39.461   4.306
56426W        W20183   5.234  11.342  10.519
56427W        W20184  37.940  16.765  12.069
56428W        W20185  39.478  16.694   1.857
56429W        W20186  28.584  32.089  11.118
56430W        W20187   7.199  19.642   4.598
56431W        W20188  29.162  43.841  13.791
56432W        W20189  27.474  39.036  12.396
56433W        W20190  40.011  36.027   0.954
56434W        W20191  25.994  12.207   2.293
56435W        W20192  19.140  13.144   1.736
56436W        W20193  23.604  14.127  11.546
56437W        W20194  34.934   6.762   2.775
56438W        W20195  41.310  37.037  10.438
56439W        W20196   6.372  21.745   0.395
56440W        W20197  11.801  43.426   3.195
56441W        W20198   6.801  11.269  14.992
56442W        W20199  24.022  20.668  10.924
56443W        W20200  31.647   8.710  10.566
56444W        W20201  11.672  30.041  10.987
56445W        W20202   4.311  32.033  10.018
56446W        W20203  41.850   4.371  12.064
56447W        W20204  11.360  13.685   0.755
56448W        W20205  35.108  35.483   0.444
56449W        W20206   8.728   6.698  12.482
56450W        W20207  24.569  27.187  14.367
56451W        W20208  30.581  27.153  13.885
56452W        W20209   9.181   5.823   3.759
56453W        W20210   1.879  10.191  13.535
56454W        W20211  33.022  39.371   1.871
56455W        W20212  41.829  41.918   1.276
56456W        W20213  35.473  29.436  14.401
56457W        W20214  14.725   7.808  13.354
56458W        W20215  35.946  39.436   2.691
56459W        W20216   8.660  27.662   3.307
56460W        W20217  24.030  37.930  10.959
56461W        W20218  42.889  10.743  12.862
56462W        W20219   3.841   8.263   3.683
56463W        W20220  32.009  35.006  12.853
56464W        W20221  11.756  16.189  12.007
56465W        W20222  40.852   8.203  11.127
56466W        W20223  23.195   4.340  10.431
56467W        W20224  34.562   6.833  11.988
56468W        W20225  39.047   8.662   2.747
56469W        W20226   2.819  43.367   2.873
56470W        W20227  10.792  26.044  12.520
56471W        W20228  32.103  20.219  13.878
56472W        W20229  16.605  26.208  11.605
56473W        W20230   0.327  14.775   2.286
56474W        W20231  33.409  37.380  12.826
56475W        W20232  29.946  31.474   4.198
56476W        W20233  27.051  43.812  13.049
56477W        W20234  19.573   0.253   3.232
56478W        W20235  31.637   5.271   5.159
56479W        W20236  22.647  15.682  12.517
56480W        W20237  43.952  43.301   1.241
56481W        W20238   6.838  34.370  11.915
56482W        W20239  10.347  19.214   4.214
56483W        W20240  18.120  12.347   1.297
56484W        W20241   5.294  27.959   1.902
56485W        W20242  31.149  10.702   4.125
56486W        W20243  13.226  17.627  13.965
56487W        W20244   5.311  22.730   3.728
56488W        W20245  18.775  36.987  14.873
56489W        W20246  13.174  33.472   3.679
56490W        W20247  37.868  16.638   2.894
56491W        W20248  30.595  37.526   1.898
56492W        W20249  31.428   0.825  13.444
56493W        W20250  43.809   9.769   1.306
56494W        W20251  19.118  36.900   3.631
56495W        W20252  35.597  27.087  14.817
56496W        W20253  28.524  33.415   4.675
56497W        W20254  15.811  28.435   1.285
56498W        W20255  29.425   9.359  11.396
56499W        W20256  35.442  17.733  14.793
56500W        W20257  36.979   0.479  11.561
56501W        W20258  44.764  20.091  14.822
56502W        W20259  27.595  27.635  12.922
56503W        W20260   7.742   7.884  13.318
56504W        W20261  20.661   3.423   0.338
56505W        W20262   7.254  35.054  12.467
56506W        W20263  35.426  20.584   0.895
56507W        W20264   3.422  33.615   0.322
56508W        W20265  29.960  23.007   3.767
56509W        W20266  21.212  33.064   9.601
56510W        W20267  27.008   1.317   2.692
56511W        W20268  39.961   4.943  10.451
56512W        W20269  28.595  23.143   0.813
56513W        W20270  25.213  25.075   4.603
56514W        W20271  43.002  30.128  12.945
56515W        W20272  21.236  12.764  11.419
56516W        W20273  12.636   6.829   3.202
56517W        W20274   4.253  41.500   2.402
56518W        W20275  17.185  17.631   1.821
56519W        W20276  29.610  37.866   4.237
56520W        W20277  22.199  42.325  13.373
56521W        W20278  18.583  36.914  13.829
56522W        W20279   7.405  34.042  10.420
56523W        W20280  25.520  37.864  12.000
56524W        W20281   6.349  37.435   4.765
56525W        W20282  17.555  30.644   3.278
56526W        W20283   2.760   8.185   4.732
56527W        W20284  33.563  11.269  12.356
56528W        W20285  12.342  12.341  11.063
56529W        W20286  40.378  24.191  13.887
56530W        W20287  22.517  20.069  12.883
56531W        W20288   1.938  37.547   3.751
56532W        W20289  34.570  42.787  12.422
56533W        W20290  13.255   8.330  13.485
56534W        W20291  11.749  20.248  12.500
56535W        W20292   0.939  24.565  14.840
56536W        W20293  17.161  19.083   1.823
56537W        W20294   3.247  37.835   4.598
56538W        W20295   6.758  31.093  12.837
56539W        W20296   6.383  30.548  14.444
56540W        W20297  42.852  33.513   4.650
56541W        W20298   3.407  23.148   4.347
56542W        W20299   5.200  23.110  10.427
56543W        W20300  42.448  34.600  11.543
56544W        W20301   6.410   5.294  10.897
56545W        W20302  24.536  28.079  10.492
56546W        W20303  12.229   3.267  12.484
56547W        W20304   7.309  33.000   1.258
56548W        W20305  18.691  40.815   4.326
56549W        W20306  43.020  13.337   0.297
56550W        W20307  36.425  29.551   4.662
56551W        W20308  36.951  25.623   1.756
56552W        W20309  10.375  17.254  12.035
56553W        W20310  19.049   8.294   1.927
56554W        W20311  17.622  37.034  14.425
56555W        W20312  39.843  20.129  10.462
56556W        W20313  10.715  42.374  11.480
56557W        W20314  43.824   5.838  12.903
56558W        W20315  39.519  32.420   1.401
56559W        W20316  35.528  22.573   0.303
56560W        W20317   6.427  36.926   3.374
56561W        W20318  29.500  40.395   2.192
56562W        W20319   1.274   5.842  13.864
56563W        W20320   2.458   4.223   3.321
56564W        W20321  39.810  31.923  11.523
56565W        W20322  34.974  30.053   2.323
56566W        W20323   0.794  20.743  14.372
56567W        W20324  38.402  22.537   1.412
56568W        W20325   0.743  33.480  13.855
56569W        W20326  17.734  20.037   0.730
56570W        W20327  33.890   4.922   0.265
56571W        W20328  15.794  30.620   3.240
56572W        W20329  12.342  22.546  12.842
56573W        W20330  35.568   5.798   3.187
56574W        W20331  16.699  35.875   2.682
56575W        W20332  31.439  37.933  14.927
56576W        W20333  14.153  28.187  14.941
56577W        W20334  12.219  15.706   4.625
56578W        W20335  32.427  15.328   4.258
56579W        W20336   0.964  25.640  14.912
56580W        W20337  43.776  40.895  10.958
56581W        W20338   9.237  19.164  10.611
56582W        W20339  21.517  38.475  14.432
56583W        W20340  32.519   3.945   1.311
56584W        W20341  43.945  31.122  11.450
56585W        W20342   9.871  44.832   2.892
56586W        W20343   8.709  19.122  14.823
56587W        W20344  37.571  44.271  13.063
56588W        W20345  14.626  39.954   5.320
56589W        W20346   2.818   7.865   2.777
56590W        W20347  28.067   0.429  10.483
56591W        W20348   4.236  10.365  11.940
56592W        W20349  33.904  28.034  14.511
56593W        W20350  26.458  44.787   2.237
56594W        W20351  39.044   0.452   4.706
56595W        W20352  16.220  39.852   1.867
56596W        W20353   0.913  30.982  13.516
56597W        W20354  12.747  11.317   3.221
56598W        W20355   8.393  15.732   2.731
56599W        W20356   2.466   5.826  12.365
56600W        W20357  44.853  29.017   0.455
56601W        W20358  39.522  31.458   1.385
56602W        W20359  10.709  37.415   2.344
56603W        W20360  23.183  14.633   2.254
56604W        W20361  18.177  27.675   0.956
56605W        W20362  13.795   2.921   0.837
56606W        W20363  13.289   1.454   0.733
56607W        W20364   0.792  20.073  13.448
56608W        W20365  28.444  22.716   4.753
56609W        W20366  29.465   5.430  10.427
56610W        W20367  17.714  16.615   0.462
56611W        W20368  18.605   9.653  11.932
56612W        W20369  11.325   2.731   4.602
56613W        W20370  33.562  32.996   2.268
56614W        W20371   7.889   8.250   4.144
56615W        W20372  38.903  43.475   0.861
56616W        W20373  37.436  34.109  12.986
56617W        W20374   7.819   1.270   4.823
56618W        W20375  26.020  16.089  12.461
56619W        W20376   8.792  15.323  10.148
56620W        W20377  18.121  21.680  13.035
56621W        W20378  27.642  35.951  12.980
56622W        W20379  10.231   5.406   4.291
56623W        W20380  33.556  22.619  11.975
56624W        W20381  28.989  22.159  10.958
56625W        W20382  29.062   9.759  11.993
56626W        W20383  18.273  16.100  10.579
56627W        W20384   2.359  23.575  11.413
56628W        W20385  43.353  30.553  14.950
56629W        W20386  28.474  16.136  12.360
56630W        W20387   9.241  36.426   3.380
56631W        W20388  44.490  23.639   1.268
56632W        W20389  10.200   8.387   1.388
56633W        W20390  30.916  30.132  13.021
56634W        W20391  12.138  42.898   3.784
56635W        W20392   1.921  26.567   1.854
56636W        W20393  19.222  38.375   1.884
56637W        W20394  16.226  23.041   0.350
56638W        W20395  23.211  11.224  11.440
56639W        W20396   8.731   6.686   3.363
56640W        W20397  12.155  33.054   3.641
56641W        W20398  18.556  23.624   2.365
56642W        W20399  33.113  25.011   2.233
56643W        W20400  15.658  30.453  13.852
56644W        W20401   0.422  16.246   2.768
56645W        W20402   6.212  20.152  12.381
56646W        W20403  18.686  43.313  10.488
56647W        W20404   9.853   2.409  12.901
56648W        W20405   6.755  18.711   0.894
56649W        W20406  11.700   6.682   4.271
56650W        W20407   7.402  30.066  14.457
56651W        W20408  37.881  23.095  12.061
56652W        W20409  40.025  36.373   1.727
56653W        W20410   0.805  28.127   0.288
56654W        W20411   5.878  20.094  11.376
56655W        W20412  32.049  26.040  14.428
56656W        W20413   6.720  20.037   0.330
56657W        W20414  43.875  32.517   1.929
56658W        W20415  30.537   9.788   3.203
56659W        W20416   1.262  31.063  13.842
56660W        W20417  30.413  24.128  12.476
56661W        W20418  23.732  33.594  13.896
56662W        W20419  28.956  22.115   2.761
56663W        W20420  30.029  40.501   2.412
56664W        W20421  20.651   7.780  12.928
56665W        W20422   2.364  37.001  14.807
56666W        W20423  15.797  27.517   1.302
56667W        W20424  22.187  23.078  12.038
56668W        W20425  10.744  38.963  10.018
56669W        W20426  34.397   1.401   2.770
56670W        W20427  21.727   2.909  11.102
56671W        W20428  37.959  28.473   4.787
56672W        W20429  22.115  13.833   1.810
56673W        W20430  29.045   4.845  14.869
56674W        W20431  34.096  30.471   0.360
56675W        W20432   2.308  14.632  11.538
56676W        W20433  36.856  11.133   1.421
56677W        W20434   7.190  16.144   3.668
56678W        W20435  30.512  28.517   4.290
56679W        W20436  33.524   7.738  11.919
56680W        W20437   5.312   7.802  10.974
56681W        W20438  24.139   5.432  13.319
56682W        W20439  40.886  19.633   0.734
56683W        W20440  41.532  25.020   4.153
56684W        W20441  40.002  24.045   0.756
56685W        W20442  37.042  36.388  10.467
56686W        W20443  23.076   0.935  11.997
56687W        W20444  17.073   7.371   1.827
56688W        W20445   2.955  37.051  13.823
56689W        W20446  12.357   5.805  12.568
56690W        W20447   7.765  32.011  13.819
56691W        W20448  14.691   4.420  13.044
56692W        W20449  38.563  18.053  14.400
56693W        W20450  14.770  18.637   5.228
56694W        W20451  29.017  38.366   0.388
56695W        W20452   2.299  30.421   1.337
56696W        W20453  20.060  24.716   2.680
56697W        W20454   2.803  30.042  10.888
56698W        W20455  42.523  26.616   2.289
56699W        W20456  30.449   9.262   0.431
56700W        W20457   5.331  36.871  14.351
56701W        W20458   2.398  39.890  11.052
56702W        W20459  17.652  36.578  12.497
56703W        W20460   9.872  16.149   4.729
56704W        W20461  27.038  29.590   4.717
56705W        W20462  23.679   1.261  12.463
56706W        W20463   6.726  33.510  12.504
56707W        W20464  24.144  26.660  11.024
56708W        W20465  30.004  22.044  11.875
56709W        W20466  11.801   2.397  13.518
56710W        W20467   0.483  36.438  12.008
56711W        W20468  13.708  29.609  13.956
56712W        W20469   1.237   3.258  11.411
56713W        W20470  12.777  32.919  13.845
56714W        W20471  22.558  32.586  10.552
56715W        W20472   1.327   0.417   2.855
56716W        W20473   8.214  19.207  10.407
56717W        W20474  28.093   6.314  12.404
56718W        W20475   0.399  38.857   4.613
56719W        W20476   0.251  42.863   4.715
56720W        W20477   4.882  41.835   0.482
56721W        W20478  18.050  33.566  10.043
56722W        W20479  34.576  26.588  12.048
56723W        W20480  34.911  30.570   1.929
56724W        W20481  19.610   2.361   1.247
56725W        W20482  20.115   3.953  14.875
56726W        W20483  37.384  26.074  11.589
56727W        W20484  11.218  17.302  10.525
56728W        W20485   0.970  18.264   3.830
56729W        W20486  28.175  23.582  14.897
56730W        W20487  24.070   9.226   0.816
56731W        W20488  27.535   1.461   2.286
56732W        W20489  38.022  42.813  11.561
56733W        W20490  28.041  25.058   4.713
56734W        W20491  15.757   5.288   2.684
56735W        W20492  20.193   7.276  13.526
56736W        W20493  21.541   7.292   1.256
56737W        W20494  17.284  44.954  14.016
56738W        W20495  29.470  30.152  11.033
56739W        W20496   5.931  18.240  12.953
56740W        W20497  38.876  13.168  13.372
56741W        W20498  26.174  23.538   4.185
56742W        W20499  38.009  40.354  12.493
56743W        W20500  24.046  29.663   3.711
56744W        W20501  39.037  40.436   5.171
56745W        W20502  10.170   0.776   5.209
56746W        W20503  14.723   6.345   4.318
56747W        W20504  30.083  10.768  10.432
56748W        W20505  39.381  41.344   3.231
56749W        W20506  28.001   2.860  13.803
56750W        W20507  20.534  29.599   2.264
56751W        W20508   2.380  44.360  14.876
56752W        W20509   4.400  30.937   0.402
56753W        W20510  17.156  40.911   1.732
56754W        W20511   3.890  40.868   2.357
56755W        W20512  32.430  13.708  14.312
56756W        W20513  25.567  37.452   0.858
56757W        W20514  28.079  10.167  11.513
56758W        W20515   2.353  23.171  12.933
56759W        W20516   6.811  31.577  10.503
56760W        W20517  42.875   0.978  12.006
56761W        W20518  40.799   5.902   3.345
56762W        W20519  19.547  44.787  12.428
56763W        W20520  24.124  11.283  12.545
56764W        W20521  34.439  42.857  13.435
56765W        W20522  20.710  26.159   4.293
56766W        W20523  13.673  18.733   3.833
56767W        W20524   6.332  11.867  13.434
56768W        W20525  18.072  44.301  13.499
56769W        W20526  34.064   5.924   0.831
56770W        W20527  19.226  44.857  14.865
56771W        W20528  43.367  18.224   1.411
56772W        W20529  21.588  11.671  14.513
56773W        W20530   5.932  41.530   0.475
56774W        W20531   3.835  11.861   3.312
56775W        W20532  37.834  13.693  12.487
56776W        W20533  39.426   5.843   5.192
56777W        W20534  12.316  18.628  14.510
56778W        W20535  39.952  21.258   1.822
56779W        W20536  44.284   8.749  12.022
56780W        W20537   7.177   5.391   4.311
56781W        W20538  25.124  40.350   1.441
56782W        W20539   6.683  30.452  11.878
56783W        W20540  18.636  11.235   1.808
56784W        W20541  22.566  21.131  14.964
56785W        W20542  10.806  21.750   4.347
56786W        W20543  26.050  27.949  14.025
56787W        W20544  41.529  33.397  14.842
56788W        W20545  28.511  33.965   3.187
56789W        W20546  11.283  25.188  10.455
56790W        W20547  33.122  15.246  11.936
56791W        W20548  30.930  41.837   0.824
56792W        W20549  23.666   2.368  11.034
56793W        W20550   8.875  23.730  13.377
56794W        W20551  24.649  36.942  14.350
56795W        W20552  10.159  11.330  12.018
56796W        W20553  23.499  14.104   3.150
56797W        W20554  44.756  13.603   3.747
56798W        W20555   8.198  27.562  12.507
56799W        W20556  10.775  15.597   1.374
56800W        W20557   8.262  26.690   3.748
56801W        W20558  25.171  36.029  14.921
56802W        W20559  18.766  39.893  11.949
56803W        W20560  41.841  35.996   1.381
56804W        W20561   4.882   5.260  10.902
56805W        W20562  13.121   4.312   0.847
56806W        W20563   1.958  31.063   2.885
56807W        W20564  27.530  24.217   5.620
56808W        W20565  30.475  44.457  11.518
56809W        W20566  42.409  14.175   3.325
56810W        W20567  21.627  36.865  14.337
56811W        W20568  37.857   2.348   0.334
56812W        W20569  33.534  37.983   2.832
56813W        W20570  13.671  31.539   2.704
56814W        W20571   9.274  38.470  13.983
56815W        W20572   7.752  44.486  14.282
56816W        W20573  16.810   5.705   1.879
56817W        W20574  17.154  29.025  12.846
56818W        W20575  20.636  31.524   3.384
56819W        W20576  12.812  26.145   2.866
56820W        W20577  19.158  39.941  12.493
56821W        W20578   8.900  39.538  11.968
56822W        W20579  22.639  25.213  10.599
56823W        W20580  36.382  35.568  12.395
56824W        W20581  37.086  25.108  13.948
56825W        W20582  40.881  29.661  14.876
56826W        W20583  23.194  26.463   1.737
56827W        W20584  28.122  40.472   2.192
56828W        W20585  29.544  26.527   4.220
56829W        W20586  32.416  18.711  10.638
56830W        W20587  34.947  18.207  14.003
56831W        W20588  43.308  33.036  14.980
56832W        W20589  35.894  35.517   1.770
56833W        W20590  34.882  32.131   1.849
56834W        W20591  10.671  44.006   3.728
56835W        W20592   1.241  24.597  12.512
56836W        W20593   7.678  43.432   2.212
56837W        W20594   2.952  24.150   2.903
56838W        W20595  40.367  10.326   2.816
56839W        W20596  42.975   8.307   3.786
56840W        W20597  17.133  11.737  11.988
56841W        W20598  21.531  28.945   0.726
56842W        W20599  27.137  38.478   1.321
56843W        W20600  11.721   0.958   3.385
56844W        W20601  15.646   3.887   1.694
56845W        W20602   8.756  39.470  13.405
56846W        W20603  19.634  31.518  11.951
56847W        W20604  35.980   3.446  13.981
56848W        W20605   0.957  19.273  11.580
56849W        W20606  12.266  11.297  10.909
56850W        W20607   7.887  37.579   3.779
56851W        W20608  26.195  11.723   1.309
56852W        W20609  10.641  37.997  13.389
56853W        W20610  33.000  44.962  14.948
56854W        W20611   6.189  43.288   0.875
56855W        W20612  34.003  19.206  12.368
56856W        W20613  17.132  29.540  10.430
56857W        W20614  14.104  44.422  13.817
56858W        W20615  37.903  14.696   1.231
56859W        W20616  26.035  43.371   2.389
56860W        W20617  14.659  27.660   0.846
56861W        W20618  14.747  10.755   4.710
56862W        W20619  17.575  39.981   1.310
56863W        W20620  11.769  34.102  11.939
56864W        W20621   8.270  14.648  12.365
56865W        W20622  40.806  42.482  14.385
56866W        W20623  31.623   5.865  11.584
56867W        W20624  36.561   6.715  13.960
56868W        W20625   6.723  28.949   4.138
56869W        W20626  11.684  39.349   2.265
56870W        W20627  26.639  34.916  14.917
56871W        W20628  27.643  39.375   2.889
56872W        W20629  25.965  13.805   2.392
56873W        W20630  31.961  35.381   4.789
56874W        W20631  40.966  24.020   1.817
56875W        W20632  24.662  28.015   1.744
56876W        W20633  43.884  25.607  11.477
56877W        W20634  10.360  28.955   5.289
56878W        W20635  14.811  27.481  11.585
56879W        W20636  44.380  27.684   2.816
56880W        W20637  21.742   0.375   1.857
56881W        W20638  43.838  34.532   0.340
56882W        W20639  34.060  40.964  14.999
56883W        W20640  38.551  26.596  14.277
56884W        W20641  36.480   4.707   3.818
56885W        W20642  41.436   6.285   0.732
56886W        W20643  39.428  12.846  10.453
56887W        W20644  33.032  11.162  12.093
56888W        W20645  42.307  38.546  11.868
56889W        W20646  37.494  43.822   3.343
56890W        W20647  40.862  31.907   0.424
56891W        W20648  15.103  41.017  13.928
56892W        W20649  37.480  23.560   2.253
56893W        W20650  24.549  22.037   0.935
56894W        W20651   3.953  42.849  11.389
56895W        W20652  38.471  31.630  13.841
56896W        W20653  41.350   4.736  14.341
56897W        W20654   4.835   0.366  10.048
56898W        W20655  14.237  40.879   3.197
56899W        W20656   8.822   4.259   3.199
56900W        W20657  29.042  14.645   0.918
56901W        W20658  12.691   4.817  11.049
56902W        W20659  44.983  32.070  10.505
56903W        W20660  38.896  13.673   1.318
56904W        W20661   6.852  15.293   4.829
56905W        W20662   5.749  37.897   4.755
56906W        W20663  16.239  44.894   0.248
56907W        W20664   1.275  22.157  12.091
56908W        W20665  25.029  24.623  10.977
56909W        W20666  25.178  17.230  12.450
56910W        W20667   4.878   3.809   1.785
56911W        W20668  21.711  14.100  11.591
56912W        W20669  19.665  31.122   5.241
56913W        W20670  13.113   4.449  14.822
56914W        W20671  29.465  17.614   0.467
56915W        W20672  13.262  10.701   3.222
56916W        W20673   8.735  40.814  10.625
56917W        W20674   6.708  31.426  14.845
56918W        W20675   1.914  30.431  12.471
56919W        W20676  14.712  35.488  11.493
56920W        W20677  36.063  19.660  13.470
56921W        W20678  41.822  11.296  12.360
56922W        W20679   9.646   9.711   3.802
56923W        W20680  44.356  34.413  12.481
56924W        W20681   1.771   1.418  13.898
56925W        W20682  41.333   8.298   4.836
56926W        W20683  28.560  28.977  10.506
56927W        W20684  32.613   1.344   2.320
56928W        W20685  31.432  25.218  12.346
56929W        W20686  14.248   7.666  11.528
56930W        W20687  33.386   8.323  10.549
56931W        W20688  28.607  20.270  14.337
56932W        W20689   3.880  25.533  11.418
56933W        W20690  34.955  37.580  14.513
56934W        W20691   8.249   1.929  14.458
56935W        W20692  11.814  37.358  13.495
56936W        W20693   9.341  42.317   3.720
56937W        W20694  21.657  26.608  10.539
56938W        W20695  11.195  14.710   4.663
56939W        W20696  18.145  44.891   3.171
56940W        W20697  34.075  17.117  12.947
56941W        W20698  40.532  25.020  14.386
56942W        W20699   3.782   4.731  12.404
56943W        W20700   0.930  39.030   4.297
56944W        W20701   5.701  28.662  14.443
56945W        W20702  22.728  37.399  14.440
56946W        W20703  13.335   6.885  12.546
56947W        W20704   1.340  12.646  14.431
56948W        W20705  20.740  14.265  10.451
56949W        W20706   5.803   8.357   1.904
56950W        W20707  26.134  10.231   0.437
56951W        W20708  39.861  21.702   0.851
56952W        W20709  34.059  11.646  13.792
56953W        W20710   9.660   6.766   2.382
56954W        W20711  29.638  25.194   2.251
56955W        W20712  38.023   0.909   0.935
56956W        W20713  20.754  12.211  11.497
56957W        W20714  31.106  18.231  13.958
56958W        W20715   9.654  19.206  12.869
56959W        W20716   8.317  12.729  14.322
56960W        W20717  41.954  29.546   3.814
56961W        W20718   1.831  25.041   2.414
56962W        W20719  15.328  12.135  12.570
56963W        W20720  25.568  36.049   3.308
56964W        W20721  11.820  39.819  13.997
56965W        W20722  38.927   0.465   1.714
56966W        W20723  38.354   0.795  12.049
56967W        W20724   7.364  28.003  10.414
56968W        W20725  16.135  25.538   1.252
56969W        W20726  34.973  38.482  14.275
56970W        W20727  40.343  44.449   3.190
56971W        W20728   7.247  30.517   0.325
56972W        W20729  15.298  12.617  13.487
56973W        W20730  15.752   4.847   3.694
56974W        W20731  14.799  36.859  11.877
56975W        W20732  28.950  34.608   3.649
56976W        W20733  28.633  23.181  10.941
56977W        W20734   8.321  42.871   1.754
56978W        W20735   3.239  13.158  14.463
56979W        W20736  36.050  42.945  13.000
56980W        W20737  40.429  15.205  10.595
56981W        W20738  43.938  43.906   1.279
56982W        W20739  10.245  26.564   9.984
56983W        W20740  18.742   0.802  12.022
56984W        W20741   4.782   5.918   0.480
56985W        W20742  19.118  27.593   0.883
56986W        W20743  32.037  44.979  10.940
56987W        W20744  24.160   8.397   4.308
56988W        W20745   4.309  44.902  11.604
56989W        W20746  10.158  26.966  12.474
56990W        W20747  16.636  25.519  12.482
56991W        W20748  29.141   4.332  12.840
56992W        W20749   4.240  39.861   5.282
56993W        W20750  13.121  29.608  13.988
56994W        W20751  39.502  28.574  12.558
56995W        W20752  38.017  37.348   0.390
56996W        W20753  35.553  26.544   2.319
56997W        W20754  32.456  41.482  13.944
56998W        W20755  17.097  36.585  12.371
56999W        W20756   5.243   9.329   4.767
57000W        W20757  28.672   6.799   3.745
57001W        W20758   5.814  26.977  13.349
57002W        W20759  21.248  34.967  12.881
57003W        W20760  17.108  44.774   2.235
57004W        W20761  42.412  21.232   0.427
57005W        W20762  10.244  25.685  11.973
57006W        W20763   9.357  33.559  13.962
57007W        W20764   7.352  22.612   3.248
57008W        W20765   1.806  29.972   1.211
57009W        W20766  14.805  26.171   1.324
57010W        W20767  37.011   5.722   4.258
57011W        W20768  23.114   3.280   4.217
57012W        W20769  41.886   5.223   4.153
57013W        W20770  16.631   3.381  10.521
57014W        W20771  13.314   1.928   2.300
57015W        W20772   4.781   8.791  10.479
57016W        W20773  41.866  22.653   0.389
57017W        W20774  12.245  36.865  13.798
57018W        W20775  42.867   2.400  13.031
57019W        W20776  18.235  29.518  12.486
57020W        W20777   4.937   1.970   0.757
57021W        W20778  27.539  27.472  11.534
57022W        W20779  31.612  26.037  13.329
57023W        W20780  43.835  17.304  12.957
57024W        W20781  22.682  22.086   3.387
57025W        W20782  20.122  42.900  14.339
57026W        W20783  15.791   5.925  11.000
57027W        W20784  35.895   2.262   2.732
57028W        W20785  43.425  41.825  13.979
57029W        W20786  43.386  31.012   4.314
57030W        W20787  14.111   8.668  11.986
57031W        W20788  11.357  43.392  11.567
57032W        W20789  30.586  43.940  12.425
57033W        W20790  33.445  36.527   1.794
57034W        W20791  16.606  14.813   2.686
57035W        W20792   8.200  19.208  10.064
57036W        W20793  14.832  43.408  12.426
57037W        W20794  17.653  19.551   2.242
57038W        W20795   9.149   9.826   4.204
57039W        W20796  32.016  11.166   3.775
57040W        W20797   3.788  34.481  11.580
57041W        W20798  27.123  11.762  13.911
57042W        W20799  25.655  18.741   2.724
57043W        W20800   0.964  27.673   2.783
57044W        W20801  25.594  35.407   4.832
57045W        W20802  19.229  39.491   2.339
57046W        W20803   8.787   0.413   2.412
57047W        W20804   5.413  22.611   2.301
57048W        W20805  20.716  38.882   2.863
57049W        W20806  20.075  14.781  11.385
57050W        W20807  34.054  25.018   1.228
57051W        W20808  16.313  41.014   4.616
57052W        W20809  44.450  26.547   3.201
57053W        W20810  23.066   1.735  14.946
57054W        W20811  33.896  42.320  14.762
57055W        W20812  28.147  39.861  14.439
57056W        W20813   1.968   9.721  14.857
57057W        W20814  44.825   4.423   4.835
57058W        W20815   3.440   0.854   1.708
57059W        W20816  10.323  23.138   3.209
57060W        W20817  24.187  16.312  11.978
57061W        W20818  14.792  38.049  11.605
57062W        W20819  29.464  39.317   3.762
57063W        W20820   3.385  25.475  12.952
57064W        W20821  28.513  12.266   4.331
57065W        W20822  26.509  17.669  14.829
57066W        W20823   3.343   4.837  14.888
57067W        W20824  27.100  22.048   3.226
57068W        W20825  23.571  14.678   0.870
57069W        W20826   5.900  13.188  12.052
57070W        W20827  28.645  35.564   4.128
57071W        W20828  20.042  40.335   4.143
57072W        W20829  26.007  11.342  13.800
57073W        W20830   3.427  25.099   0.745
57074W        W20831  42.465  44.934  14.311
57075W        W20832  11.652  42.827  10.485
57076W        W20833  22.613  39.421  10.437
57077W        W20834  21.720  24.653   4.658
57078W        W20835   7.366  18.237   4.185
57079W        W20836   1.477   2.966   0.946
57080W        W20837  10.246  13.128   4.137
57081W        W20838   2.311  44.420  13.401
57082W        W20839   5.892  38.959  14.894
57083W        W20840   8.254  16.589   1.862
57084W        W20841  24.184  43.366   2.301
57085W        W20842   7.200   3.265   0.844
57086W        W20843  25.484  33.047   2.332
57087W        W20844  10.865  29.094   4.610
57088W        W20845  28.680  20.157   4.703
57089W        W20846   2.841  20.194   2.233
57090W        W20847  25.138  31.602   2.314
57091W        W20848   3.426  27.677   2.298
57092W        W20849   1.372  40.009  11.026
57093W        W20850  22.580  32.610   4.289
57094W        W20851  40.984  32.450   1.291
57095W        W20852   0.268  21.732   3.151
57096W        W20853   7.335  32.449   1.875
57097W        W20854   1.314  41.527   3.756
57098W        W20855  44.992  29.963   2.338
57099W        W20856  43.331  21.241   2.365
57100W        W20857  33.557  27.520   1.401
57101W        W20858  29.468   6.189   1.778
57102W        W20859  25.012   6.397  10.903
57103W        W20860  36.447  25.095  14.476
57104W        W20861  33.504  41.385  14.911
57105W        W20862  10.150   1.947   4.267
57106W        W20863  21.610  33.110   3.243
57107W        W20864  26.531   8.321  14.328
57108W        W20865  37.396  34.418  11.107
57109W        W20866   9.360   8.699   5.092
57110W        W20867  33.569  21.681  11.924
57111W        W20868  39.957  21.512  12.983
57112W        W20869  30.928  33.890   1.440
57113W        W20870   6.297   8.345   1.905
57114W        W20871  16.575   7.250  10.498
57115W        W20872  36.574  29.653  11.925
57116W        W20873   3.398  39.019   2.830
57117W        W20874  35.392  24.043   4.662
57118W        W20875   8.168  10.371   3.176
57119W        W20876  37.066  12.116   1.439
57120W        W20877   7.205   4.916  13.438
57121W        W20878   9.364  25.976  12.455
57122W        W20879   4.747  16.116  13.805
57123W        W20880  34.065   2.457  13.865
57124W        W20881  11.721  44.971  13.793
57125W        W20882  28.557  17.629   0.875
57126W        W20883   5.865  39.058   4.273
57127W        W20884  40.497   9.250  14.961
57128W        W20885  10.804   7.356  10.952
57129W        W20886  44.480   1.345  10.952
57130W        W20887   2.938   8.273   1.267
57131W        W20888  25.539  21.569  11.402
57132W        W20889   4.330  28.447  14.308
57133W        W20890  30.009   4.349   1.847
57134W        W20891  17.287   1.909  10.117
57135W        W20892  26.634  34.989   1.243
57136W        W20893  26.019  44.385  11.598
57137W        W20894  25.470   4.394  12.865
57138W        W20895   1.884   0.803  10.958
57139W        W20896  16.267  42.949  14.009
57140W        W20897  19.681  24.984   0.333
57141W        W20898  28.046   3.286  10.577
57142W        W20899  39.445  35.979  12.938
57143W        W20900  32.141   6.322   3.196
57144W        W20901   2.721  31.110  10.975
57145W        W20902   9.332  23.136  10.632
57146W        W20903  15.122   2.410  11.574
57147W        W20904  14.722  19.651   1.818
57148W        W20905  14.750  42.902   2.269
57149W        W20906  19.606  27.092  11.398
57150W        W20907   4.381  38.534  13.447
57151W        W20908  33.615  21.161  13.413
57152W        W20909  28.656  19.761  11.029
57153W        W20910  39.994   0.744   4.272
57154W        W20911  37.916  43.281  11.897
57155W        W20912  14.797  38.961  14.484
57156W        W20913  31.123  40.442   4.750
57157W        W20914  20.188  24.001   0.369
57158W        W20915  30.621   2.238   4.628
57159W        W20916  18.627  43.983  12.901
57160W        W20917  17.705  10.373  13.836
57161W        W20918  34.599  29.443   4.798
57162W        W20919  40.958  44.379   4.681
57163W        W20920  42.494  11.299  13.880
57164W        W20921   6.267   2.424  10.998
57165W        W20922  31.055  17.112   3.768
57166W        W20923  11.779   6.825   0.431
57167W        W20924  10.800  33.571  13.372
57168W        W20925   1.772  31.006  12.505
57169W        W20926  27.527  22.563  10.991
57170W        W20927  12.239  13.215  11.017
57171W        W20928   7.767  21.692  13.373
57172W        W20929  25.211  27.956  14.294
57173W        W20930  10.144  30.102  13.492
57174W        W20931  29.469   0.859   4.176
57175W        W20932  24.530  43.370   3.249
57176W        W20933   8.676   5.293   3.704
57177W        W20934  41.974   9.305   4.139
57178W        W20935  43.013  12.630  10.037
57179W        W20936   9.735   0.926  11.400
57180W        W20937  32.486  44.787   1.443
57181W        W20938  41.033  18.159  12.993
57182W        W20939  22.643  12.730  13.833
57183W        W20940  41.018  25.193   0.844
57184W        W20941   4.212   6.224   3.285
57185W        W20942  36.942   2.432   3.802
57186W        W20943   2.297  24.481   3.662
57187W        W20944  40.013  22.062  11.510
57188W        W20945  12.773  27.117  12.396
57189W        W20946  11.178  12.623   1.864
57190W        W20947  15.113  38.555  13.899
57191W        W20948  44.450  36.871  10.448
57192W        W20949  16.620  37.358  11.067
57193W        W20950  35.003  21.173  10.090
57194W        W20951  11.331  41.309   0.395
57195W        W20952  23.194  41.022   2.785
57196W        W20953  39.939  20.523   0.851
57197W        W20954  28.170  14.118  14.276
57198W        W20955  12.820  35.882   2.401
57199W        W20956  30.968  43.837  11.080
57200W        W20957  15.727  40.372  11.967
57201W        W20958  25.494  18.624   5.302
57202W        W20959  30.442  42.879   0.472
57203W        W20960  18.725  24.999  11.400
57204W        W20961  35.572   5.380  11.001
57205W        W20962  37.082  23.537  11.407
57206W        W20963   4.810  16.600   3.796
57207W        W20964  14.267   3.233   2.669
57208W        W20965  39.416   0.825   4.699
57209W        W20966  40.351  10.307  13.407
57210W        W20967   6.223   8.373  11.069
57211W        W20968   7.708   1.344  11.412
57212W        W20969  10.871  23.047  12.504
57213W        W20970  22.530   5.808  14.884
57214W        W20971  12.336  32.133   0.298
57215W        W20972  22.047  30.519  13.903
57216W        W20973  15.673  42.869   2.793
57217W        W20974  18.067  30.532  10.939
57218W        W20975  30.086  44.461   2.183
57219W        W20976  36.080  21.640  13.388
57220W        W20977   8.798  40.489  13.493
57221W        W20978  18.614  28.619   1.450
57222W        W20979  21.706   6.365   0.287
57223W        W20980   5.321  38.547  10.635
57224W        W20981   3.236  22.198  10.519
57225W        W20982  38.560  18.762  14.340
57226W        W20983  21.229  21.173  13.509
57227W        W20984  22.625   0.458   1.251
57228W        W20985  43.301   4.307   3.671
57229W        W20986  34.547  19.107   1.405
57230W        W20987  43.414  37.982   1.768
57231W        W20988  31.590   0.382  13.448
57232W        W20989  44.300   2.266   3.819
57233W        W20990  37.517   1.922  13.813
57234W        W20991   6.893  33.054   3.258
57235W        W20992  31.470  37.862  14.450
57236W        W20993  18.716  10.829  11.875
57237W        W20994  34.086  27.042   4.263
57238W        W20995  41.016  16.129  14.811
57239W        W20996   5.196   2.955   4.119
57240W        W20997  15.329  24.139  12.453
57241W        W20998  14.712  20.741  10.896
57242W        W20999  33.598   2.875  13.823
57243W        W21000  17.133  20.705   2.298
57244W        W21001  12.322   9.770   3.789
57245W        W21002  26.144   1.300  13.793
57246W        W21003  20.069  30.158   2.321
57247W        W21004   6.783   2.463  11.505
57248W        W21005  38.949  21.698  13.957
57249W        W21006  11.275   3.711  10.501
57250W        W21007  24.686  34.387  13.335
57251W        W21008  11.253  36.020  10.441
57252W        W21009  43.801  33.519  14.449
57253W        W21010   7.237  43.800  10.537
57254W        W21011  26.116  40.850   1.312
57255W        W21012  37.450  22.136   0.811
57256W        W21013  24.049  44.429   0.306
57257W        W21014  33.386  16.766   3.688
57258W        W21015  10.745  30.157   2.865
57259W        W21016  19.666  37.967   4.261
57260W        W21017  33.111  44.481  11.454
57261W        W21018  30.492   2.797  10.540
57262W        W21019  11.134   3.712   3.161
57263W        W21020  38.852  33.065  12.921
57264W        W21021   1.925  27.623  12.549
57265W        W21022  36.582  12.344   1.921
57266W        W21023  39.350  40.932  13.020
57267W        W21024  33.035  20.092  11.397
57268W        W21025  19.208   2.771  13.376
57269W        W21026  26.066  42.321  11.415
57270W        W21027   3.802   6.907   4.200
57271W        W21028  32.443  33.905   3.832
57272W        W21029  28.613  19.656  14.469
57273W        W21030  21.704  23.221   0.779
57274W        W21031   6.285   0.278   0.933
57275W        W21032  10.204  18.265  11.005
57276W        W21033  20.256  33.053   1.876
57277W        W21034   3.931   1.458   0.743
57278W        W21035  19.734  20.271  10.572
57279W        W21036   8.307   1.832   1.794
57280W        W21037  25.523  17.735   1.379
57281W        W21038  35.565   3.421   3.314
57282W        W21039  44.839  40.049   0.277
57283W        W21040  40.052   4.415  12.862
57284W        W21041  20.738  30.926   3.714
57285W        W21042  32.050  18.718   2.899
57286W        W21043  42.490  33.413   3.290
57287W        W21044  35.104  44.002   0.421
57288W        W21045  29.595  19.215  10.997
57289W        W21046  27.630  20.579   1.929
57290W        W21047   6.757  15.202  12.990
57291W        W21048  10.775  35.894   0.754
57292W        W21049   8.403   0.747   4.607
57293W        W21050  30.435  30.086   3.835
57294W        W21051  27.981  42.801  12.439
57295W        W21052  35.416  43.283  14.506
57296W        W21053  13.204  30.926   4.147
57297W        W21054  23.652  35.020   2.737
57298W        W21055  33.090   6.226  12.400
57299W        W21056   4.222  43.428  12.579
57300W        W21057  22.627   0.768   1.785
57301W        W21058  44.872   1.369   3.789
57302W        W21059  26.687  30.416   0.944
57303W        W21060  19.219  28.512  12.460
57304W        W21061  42.505  10.384  14.764
57305W        W21062   7.834  31.643  14.515
57306W        W21063  10.657  23.110   0.767
57307W        W21064  28.014  41.470  13.884
57308W        W21065  29.528  29.664  11.401
57309W        W21066  33.960   6.365  12.931
57310W        W21067  41.015  20.217   4.708
57311W        W21068  31.420   8.885  13.844
57312W        W21069  42.446  38.988  12.017
57313W        W21070  20.209  19.599  11.449
57314W        W21071  19.146  16.638   0.377
57315W        W21072  41.375   8.832  12.835
57316W        W21073  10.640  25.166  11.990
57317W        W21074  16.075  44.484   3.251
57318W        W21075  35.994  27.090  10.467
57319W        W21076  15.258  25.552  13.392
57320W        W21077  17.165  18.099   1.854
57321W        W21078  13.157  20.242  11.371
57322W        W21079   5.911  39.523   4.705
57323W        W21080  17.686  14.293  14.358
57324W        W21081  10.377  37.388   2.832
57325W        W21082  19.052  23.235  10.436
57326W        W21083  37.341   5.904  13.358
57327W        W21084  18.556  31.903   4.837
57328W        W21085   6.718  28.159  11.392
57329W        W21086   8.867  14.286  12.941
57330W        W21087  36.881  14.623   3.243
57331W        W21088  20.085  29.170  13.368
57332W        W21089   3.402  42.853  14.916
57333W        W21090  24.682  37.039  14.833
57334W        W21091  43.798   8.200   0.734
57335W        W21092  10.755   5.387   2.206
57336W        W21093   7.216  28.959   2.846
57337W        W21094   9.359  27.191   0.249
57338W        W21095  14.117  42.980   2.243
57339W        W21096  41.895  35.869  10.066
57340W        W21097   9.866   8.819   0.452
57341W        W21098  38.939   5.752  12.508
57342W        W21099  16.576  37.495  11.976
57343W        W21100  17.176   4.791  13.388
57344W        W21101   5.779  38.407   4.681
57345W        W21102  12.290  18.192  12.094
57346W        W21103  21.630  17.154   2.183
57347W        W21104   6.360  40.868  14.290
57348W        W21105  24.707  12.279   3.247
57349W        W21106   4.215   8.312   4.715
57350W        W21107   1.841   1.333   1.344
57351W        W21108  23.675  13.707  13.995
57352W        W21109  31.101  22.031   4.700
57353W        W21110  11.219  12.850   0.321
57354W        W21111  11.208  39.314  14.514
57355W        W21112  25.598  11.838  11.121
57356W        W21113  10.379  34.482   2.729
57357W        W21114  14.233  16.097  14.448
57358W        W21115  43.274  31.986   2.763
57359W        W21116  16.687  36.371  13.461
57360W        W21117  41.868  26.025  13.534
57361W        W21118  43.932   3.776  13.359
57362W        W21119  10.736  12.698  10.429
57363W        W21120  29.075  20.153   3.702
57364W        W21121  43.860  13.337  14.765
57365W        W21122  15.755  44.347   2.734
57366W        W21123  41.842   3.790   0.743
57367W        W21124  24.044   6.688  14.349
57368W        W21125  36.952   2.846   1.446
57369W        W21126  32.558  43.395  12.067
57370W        W21127  40.440  20.632  13.543
57371W        W21128   0.919  30.531  11.128
57372W        W21129  22.141  28.948   1.305
57373W        W21130   1.737   8.289  12.998
57374W        W21131   8.733  10.638  14.385
57375W        W21132  35.046  21.534   1.824
57376W        W21133  34.580  39.321  13.445
57377W        W21134  14.159  23.240   0.734
57378W        W21135   5.799  43.869   3.290
57379W        W21136  22.224  21.021  10.934
57380W        W21137  30.469  23.226  11.515
57381W        W21138  26.020  25.500  14.458
57382W        W21139  17.751  23.708   1.835
57383W        W21140  25.182  14.781  13.011
57384W        W21141   7.783  39.443   2.204
57385W        W21142  19.680  29.459  14.844
57386W        W21143   4.341  28.119  11.946
57387W        W21144  42.414  26.499  13.338
57388W        W21145  17.608  22.017  14.014
57389W        W21146  28.677   6.391  14.926
57390W        W21147  43.443  21.690   2.382
57391W        W21148  25.216   2.843   0.940
57392W        W21149  32.536  43.386  13.936
57393W        W21150  44.331   6.228   5.196
57394W        W21151  34.955   9.384  14.967
57395W        W21152  41.886   2.245  12.513
57396W        W21153  38.983  27.609   3.287
57397W        W21154   9.335  38.025   4.636
57398W        W21155  18.695  31.105   2.781
57399W        W21156  21.240   4.811   3.263
57400W        W21157  34.071  31.483   2.309
57401W        W21158   4.706  15.650  12.436
57402W        W21159  21.194  15.749  10.069
57403W        W21160  34.940  40.019   2.774
57404W        W21161   9.715   8.680   1.242
57405W        W21162  30.105  14.165   4.216
57406W        W21163  25.035  35.359   3.195
57407W        W21164  43.384  24.990  12.023
57408W        W21165  15.254  28.954   3.670
57409W        W21166  14.775  30.011   2.404
57410W        W21167  11.373  10.645  11.956
57411W        W21168  43.799  14.294  11.906
57412W        W21169  24.125  21.229   1.732
57413W        W21170   1.270  42.891   1.333
57414W        W21171  43.468  41.043   0.255
57415W        W21172   9.207  39.870  14.980
57416W        W21173  25.994  31.429  14.766
57417W        W21174  41.376   2.287   1.342
57418W        W21175  39.819  21.085   3.251
57419W        W21176  16.252  36.925   1.309
57420W        W21177   1.412  38.415  12.888
57421W        W21178  21.121  44.312   3.657
57422W        W21179   0.404   7.245   1.785
57423W        W21180  12.770   1.363  12.363
57424W        W21181  15.316  22.627   0.418
57425W        W21182  33.401  43.275   1.784
57426W        W21183  42.942  40.890  11.524
57427W        W21184  14.723  12.681   1.807
57428W        W21185  30.652  38.914   2.214
57429W        W21186   9.714  44.359   4.349
57430W        W21187   2.437   3.294  11.983
57431W        W21188  31.565  39.431   1.305
57432W        W21189  18.715  26.491  13.407
57433W        W21190  42.498  22.152  14.329
57434W        W21191   9.779  21.031  12.048
57435W        W21192  14.691  12.788   4.644
57436W        W21193  35.382   7.284  14.986
57437W        W21194  19.699  33.036  12.412
57438W        W21195  37.462   0.434   3.164
57439W        W21196  17.712  11.750   1.383
57440W        W21197  41.501  23.990   2.363
57441W        W21198  13.302   4.898  13.953
57442W        W21199  11.163   7.906   1.771
57443W        W21200  40.945  34.983   0.861
57444W        W21201   7.224   0.487   4.672
57445W        W21202   1.296   0.781   1.782
57446W        W21203   6.801   1.756  14.277
57447W        W21204  36.385  34.509   3.831
57448W        W21205  31.574   0.914  12.971
57449W        W21206  28.497  11.767  12.522
57450W        W21207  11.688   5.810   1.348
57451W        W21208  15.143  44.463  12.392
57452W        W21209   3.834  11.280  11.490
57453W        W21210  29.536  29.052   0.363
57454W        W21211  16.671  21.033  14.325
57455W        W21212   5.290   3.813   2.307
57456W        W21213  41.907  10.307  14.285
57457W        W21214  21.147  26.597   5.187
57458W        W21215  32.900  22.074   2.311
57459W        W21216  44.845  10.772  14.976
57460W        W21217   6.251  37.351  11.952
57461W        W21218  27.500   4.441  14.027
57462W        W21219  25.971  27.089   0.942
57463W        W21220  30.576  14.255   1.239
57464W        W21221  35.042  20.082   0.891
57465W        W21222  24.192  17.242  10.427
57466W        W21223  24.015  32.450   0.901
57467W        W21224  32.106  36.019  12.480
57468W        W21225  42.904  11.277  13.420
57469W        W21226   8.684  27.486   0.290
57470W        W21227  44.896   0.905  14.759
57471W        W21228  21.209  37.974  10.096
57472W        W21229  25.201   5.753   4.170
57473W        W21230  34.015  42.948   0.849
57474W        W21231  15.771  17.294   0.918
57475W        W21232  16.694   5.688   0.402
57476W        W21233   5.855   3.823   3.692
57477W        W21234   2.346  43.881  14.431
57478W        W21235  41.381   6.742  13.027
57479W        W21236  16.111   4.260   3.215
57480W        W21237  10.655  28.988  13.935
57481W        W21238   1.750   4.809  14.013
57482W        W21239   4.254  37.896   0.739
57483W        W21240  41.929   6.691  13.365
57484W        W21241  20.636  28.144   1.327
57485W        W21242  34.494  18.113   0.424
57486W        W21243  35.406  25.011   4.606
57487W        W21244  29.594  19.113  14.477
57488W        W21245  37.545  30.547  11.875
57489W        W21246  29.983  25.219  12.579
57490W        W21247   9.275   8.869  11.586
57491W        W21248   6.698  43.344  10.566
57492W        W21249  22.697  11.658  13.804
57493W        W21250  14.790   1.942   4.608
57494W        W21251   5.401   0.250  12.087
57495W        W21252  17.238   5.420   2.874
57496W        W21253  41.373  34.583  11.507
57497W        W21254  42.991   3.756   4.291
57498W        W21255   1.731   1.843  13.360
57499W        W21256  22.123  12.686  12.918
57500W        W21257  20.261  44.344   1.881
57501W        W21258  11.363   4.855  11.066
57502W        W21259  39.026  26.547   0.426
57503W        W21260  20.155  44.484   0.787
57504W        W21261   4.418  42.860  11.507
57505W        W21262  22.642  21.536   0.252
57506W        W21263  22.740   5.756  13.388
57507W        W21264   1.374   0.279   1.400
57508W        W21265  35.471  10.161  10.416
57509W        W21266  41.801  27.476   1.904
57510W        W21267   4.316  11.743  11.990
57511W        W21268  38.826  37.061   1.438
57512W        W21269   8.230  10.222   3.822
57513W        W21270  36.386  32.555   0.284
57514W        W21271   8.881  42.983  13.479
57515W        W21272  34.414  29.670  14.913
57516W        W21273  33.982  10.848   1.256
57517W        W21274  29.506  18.058   2.331
57518W        W21275   3.262  20.189   4.115
57519W        W21276  34.885   8.699   3.679
57520W        W21277  43.943  37.531   1.774
57521W        W21278   6.356  26.098  11.383
57522W        W21279  33.124  39.415  11.996
57523W        W21280  19.613  12.634  13.468
57524W        W21281  33.404  23.553   2.688
57525W        W21282  37.355  31.536   2.823
57526W        W21283  16.592  35.002  10.962
57527W        W21284  41.462  40.898   1.348
57528W        W21285  44.357  31.584  14.785
57529W        W21286  28.496  22.119  11.588
57530W        W21287   4.368  10.700  13.545
57531W        W21288  32.556   7.893  12.935
57532W        W21289  42.455   7.766   1.309
57533W        W21290   2.296  37.418   0.423
57534W        W21291   3.738  25.006  14.473
57535W        W21292  16.282  28.992   4.124
57536W        W21293  31.954  33.956   4.680
57537W        W21294   1.753  28.461  12.049
57538W        W21295  29.124   6.390   3.269
57539W        W21296  14.808  21.099  12.483
57540W        W21297   5.746  19.221   1.905
57541W        W21298   6.693  13.270  12.826
57542W        W21299  43.921  40.930  10.621
57543W        W21300  44.266  15.749   2.806
57544W        W21301  41.307   7.359   3.313
57545W        W21302  13.748  21.150  10.466
57546W        W21303  17.304  18.634  13.020
57547W        W21304   9.717   1.926  11.527
57548W        W21305   5.701  10.349  14.885
57549W        W21306   8.291  31.433   0.249
57550W        W21307  16.689  38.908  14.328
57551W        W21308  15.305  18.253   2.379
57552W        W21309  13.695   0.378   2.288
57553W        W21310  40.368  42.024   4.703
57554W        W21311  40.432  39.010   3.674
57555W        W21312  34.095  44.416  13.432
57556W        W21313  36.538  25.700  14.927
57557W        W21314  44.891  41.926  14.021
57558W        W21315  19.086  28.184  14.977
57559W        W21316  28.027  36.984  12.456
57560W        W21317  43.782  24.973   4.267
57561W        W21318   0.393  21.568   0.936
57562W        W21319   5.859   0.333   4.626
57563W        W21320  14.638   2.402  10.467
57564W        W21321   5.821  26.994  12.443
57565W        W21322  17.799  16.650   2.820
57566W        W21323  11.336  35.929   2.363
57567W        W21324  17.211   7.897  12.089
57568W        W21325  35.863  39.995   1.917
57569W        W21326   8.222   4.780  11.439
57570W        W21327  29.621  36.450  14.370
57571W        W21328  37.067  43.294  14.436
57572W        W21329   6.280  43.799  13.532
57573W        W21330   3.942  11.812   4.710
57574W        W21331  36.407  27.991   3.255
57575W        W21332  32.580   9.257  12.975
57576W        W21333  39.000  38.964   1.876
57577W        W21334   3.766   6.858  11.591
57578W        W21335  29.524  24.695   4.601
57579W        W21336  23.590  26.699   0.755
57580W        W21337   5.281  17.251  12.007
57581W        W21338  15.218   8.188  14.897
57582W        W21339  17.300  25.595  11.113
57583W        W21340   4.428   1.293  12.936
57584W        W21341  36.393  26.686  13.333
57585W        W21342  25.627  10.705  13.987
57586W        W21343  23.581  40.869  11.117
57587W        W21344   2.912  30.125   4.338
57588W        W21345  16.599   7.259  13.984
57589W        W21346  18.749  23.173   4.216
57590W        W21347  33.054  43.890   0.895
57591W        W21348  34.083  19.563   3.309
57592W        W21349  42.901  20.635  12.898
57593W        W21350  26.993  32.469   4.703
57594W        W21351   2.845   4.318  12.837
57595W        W21352  40.336  11.731   3.367
57596W        W21353   5.410  12.857  11.608
57597W        W21354  30.591  21.129  13.343
57598W        W21355   2.881  14.262   3.295
57599W        W21356   2.436   7.364  13.914
57600W        W21357  17.063   2.755   2.395
57601W        W21358   6.331  20.217  11.599
57602W        W21359  34.983  26.059   4.665
57603W        W21360  15.255  13.149   2.384
57604W        W21361  31.422  41.944   4.707
57605W        W21362   2.425  15.629  13.974
57606W        W21363  26.082  13.639   4.325
57607W        W21364  36.040   5.800   3.272
57608W        W21365   5.774  23.121   3.775
57609W        W21366   2.916  18.686  12.483
57610W        W21367  19.142   6.404  12.366
57611W        W21368  23.594  22.122  10.950
57612W        W21369  11.372  30.007  12.014
57613W        W21370  42.887   4.377   0.809
57614W        W21371   4.400  28.556   4.634
57615W        W21372  33.525  15.713   3.666
57616W        W21373  24.659   6.339  12.549
57617W        W21374   8.777  29.457  13.961
57618W        W21375  43.853  44.393   3.214
57619W        W21376   9.215   2.761   0.784
57620W        W21377   0.920  30.646   1.283
57621W        W21378  20.260  32.603  12.387
57622W        W21379  30.635  37.352   1.237
57623W        W21380  13.625  33.961  13.533
57624W        W21381  34.507  14.184   4.725
57625W        W21382   2.918  34.596   2.856
57626W        W21383  43.342   8.744   0.803
57627W        W21384   0.389  32.564  10.600
57628W        W21385  22.105  16.594   4.643
57629W        W21386  21.153   6.794   4.285
57630W        W21387  20.132  27.629  13.348
57631W        W21388  31.436  13.661  12.488
57632W        W21389  17.238   3.860   4.633
57633W        W21390   5.436   8.859  11.591
57634W        W21391   8.314   5.211  13.328
57635W        W21392   6.908  27.490  10.544
57636W        W21393  16.110  25.469   3.703
57637W        W21394  23.699  18.742   1.394
57638W        W21395  10.838  37.989   0.912
57639W        W21396  30.974  30.049  10.095
57640W        W21397  13.838  35.981   0.308
57641W        W21398  32.081  11.790  13.972
57642W        W21399  43.429  43.430  11.982
57643W        W21400  34.593   6.255   3.779
57644W        W21401  36.382  24.980   2.716
57645W        W21402  13.744   5.262   1.230
57646W        W21403  35.499  25.029  12.085
57647W        W21404  19.221   8.337  11.061
57648W        W21405   6.705  10.310   4.678
57649W        W21406  19.185  43.359   0.831
57650W        W21407  14.273  21.595  13.001
57651W        W21408   4.934   8.295  12.880
57652W        W21409  42.906  20.747  11.855
57653W        W21410   7.885  34.602  11.484
57654W        W21411  10.292   4.704   2.765
57655W        W21412  11.760  38.984  10.592
57656W        W21413  20.247   3.745  11.971
57657W        W21414  43.499  40.857  13.040
57658W        W21415  20.577  13.275   3.767
57659W        W21416  35.465   9.717   0.798
57660W        W21417  16.318  22.527   1.825
57661W        W21418   8.333  15.302   3.188
57662W        W21419  27.659   4.888  10.563
57663W        W21420   0.772  25.999  13.878
57664W        W21421  12.225  19.743   4.766
57665W        W21422  27.501  28.010  11.077
57666W        W21423  29.636  22.021   0.961
57667W        W21424   5.340  38.465   1.699
57668W        W21425   4.383  16.254   0.956
57669W        W21426  13.125  18.084   2.859
57670W        W21427  40.812  26.501   4.208
57671W        W21428  16.680   0.902   0.837
57672W        W21429  36.508  38.012   2.834
57673W        W21430  39.421  16.616  11.471
57674W        W21431  38.465  22.110  13.839
57675W        W21432  14.645  29.459   4.838
57676W        W21433  30.953  25.538   3.175
57677W        W21434  32.573   0.465   1.929
57678W        W21435  10.751  14.120   1.819
57679W        W21436  17.280  23.137   1.312
57680W        W21437   8.338   0.912   1.440
57681W        W21438  42.973  27.451   3.363
57682W        W21439  40.321  28.062  11.023
57683W        W21440  26.024  33.050  14.367
57684W        W21441  10.739  37.431   0.287
57685W        W21442   0.432   9.746   3.335
57686W        W21443  21.023  40.508   3.698
57687W        W21444  11.260  12.647  12.973
57688W        W21445  33.130   3.944   1.211
57689W        W21446  17.797  40.843  10.434
57690W        W21447  13.220  19.537   3.296
57691W        W21448  32.570  23.515   2.897
57692W        W21449  22.609  27.134  13.883
57693W        W21450  28.932  24.697   0.770
57694W        W21451  19.546  44.875  12.857
57695W        W21452  31.125  37.381   3.194
57696W        W21453  29.094  12.305   3.833
57697W        W21454   8.754  43.985  13.386
57698W        W21455  24.513  30.930  11.895
57699W        W21456  42.363  27.173  10.491
57700W        W21457   3.918  39.452   0.416
57701W        W21458  37.492   3.296  14.869
57702W        W21459  21.073  38.552   2.832
57703W        W21460  37.463  11.218  12.038
57704W        W21461   2.425  11.176   4.825
57705W        W21462  13.805  36.377   0.900
57706W        W21463  23.209  25.534   2.213
57707W        W21464  40.882  28.149  14.868
57708W        W21465   0.320  37.414   2.764
57709W        W21466  36.982  16.190  12.929
57710W        W21467  28.447   7.719   1.762
57711W        W21468  22.036  15.098   1.808
57712W        W21469   5.798  22.514  13.473
57713W        W21470  28.539  23.723  14.513
57714W        W21471   9.151  18.762   2.272
57715W        W21472  17.209  24.978  11.580
57716W        W21473  17.252  12.291   5.595
57717W        W21474  26.000  28.952   2.251
57718W        W21475  43.417  44.961   2.815
57719W        W21476  17.619  15.664  12.940
57720W        W21477  15.142  25.708   2.833
57721W        W21478  32.464  35.454  13.876
57722W        W21479   9.698  13.743   0.740
57723W        W21480   6.202  37.390   2.778
57724W        W21481  16.728  11.661  14.407
57725W        W21482   3.262  25.207  11.499
57726W        W21483   6.704  43.290   9.545
57727W        W21484  21.615   8.806   3.226
57728W        W21485  20.209   1.266   1.448
57729W        W21486   9.811  10.229  11.086
57730W        W21487  41.918   6.289  14.908
57731W        W21488   5.393  34.066   2.317
57732W        W21489  28.504  14.694  12.365
57733W        W21490   8.260  23.709   3.809
57734W        W21491  25.560  19.207  11.559
57735W        W21492  36.021  27.669  11.436
57736W        W21493  10.818  25.997  10.458
57737W        W21494  24.147   0.952  14.953
57738W        W21495  15.749  14.224  14.293
57739W        W21496  25.535  40.974   1.862
57740W        W21497   9.264   3.876   0.741
57741W        W21498  19.108  31.000   1.881
57742W        W21499  40.845  23.550   0.252
57743W        W21500   4.236   6.280   0.430
57744W        W21501  13.279   5.721  14.960
57745W        W21502  22.739  19.585   2.745
57746W        W21503  22.071  44.316   2.696
57747W        W21504   4.847  29.569   1.242
57748W        W21505  21.685   2.877  14.379
57749W        W21506  33.426  10.254  14.482
57750W        W21507  36.421   6.259   3.189
57751W        W21508  30.584   4.387  12.896
57752W        W21509  42.928  30.048   2.833
57753W        W21510  27.109  30.082  14.450
57754W        W21511   4.857  19.612   0.265
57755W        W21512   2.811   8.352  14.954
57756W        W21513   8.241  35.525   3.160
57757W        W21514  18.605   9.223  11.386
57758W        W21515  23.717  11.640   0.862
57759W        W21516   1.807  26.049  13.352
57760W        W21517   9.658  20.052   2.338
57761W        W21518   6.416  14.709   0.262
57762W        W21519  15.733  15.100   0.902
57763W        W21520   0.868  11.848   1.370
57764W        W21521  22.133  42.422  12.576
57765W        W21522  22.138  12.139   2.842
57766W        W21523   1.415  18.718   2.898
57767W        W21524  25.207   2.304  11.380
57768W        W21525  29.045  32.455   4.116
57769W        W21526  12.234  41.364  11.394
57770W        W21527  43.904  25.099   2.758
57771W        W21528  25.110   0.743   0.362
57772W        W21529  17.621  40.451   4.789
57773W        W21530  35.968   8.173   4.607
57774W        W21531  40.010  20.536  14.942
57775W        W21532  39.486  30.552  14.903
57776W        W21533  37.869   2.964  12.573
57777W        W21534  11.797   9.875   3.271
57778W        W21535  31.559   0.894  11.927
57779W        W21536  37.397  13.615   2.884
57780W        W21537  14.773   4.435  12.493
57781W        W21538  41.028  26.095  14.990
57782W        W21539  27.999  29.005   9.930
57783W        W21540   4.855  40.879   1.402
57784W        W21541   9.679  11.863   2.797
57785W        W21542  25.181  21.178  13.894
57786W        W21543  29.147   5.225  12.994
57787W        W21544  25.984  18.742  13.519
57788W        W21545  34.112   9.768   4.224
57789W        W21546  36.417   7.204  12.528
57790W        W21547   8.277  15.584   3.673
57791W        W21548  36.551  44.821   3.291
57792W        W21549  23.631  33.994  11.470
57793W        W21550  31.983  20.701  11.535
57794W        W21551  25.547   4.265   1.769
57795W        W21552  11.360  29.175  11.544
57796W        W21553  11.201  15.223   4.772
57797W        W21554  26.002   3.364   3.206
57798W        W21555  40.488   4.330   2.397
57799W        W21556  34.476   4.239  12.841
57800W        W21557  18.653   0.954   1.255
57801W        W21558  25.583  19.087   3.314
57802W        W21559  24.196  22.603   3.227
57803W        W21560  10.728  10.870   2.289
57804W        W21561  26.049  16.613  10.985
57805W        W21562  10.214  12.769  11.546
57806W        W21563   8.715  13.295  13.879
57807W        W21564  12.676  10.665   3.710
57808W        W21565  42.327   0.928   0.935
57809W        W21566  33.052  36.514   1.372
57810W        W21567  37.901  30.147   4.214
57811W        W21568  21.647  11.342  11.568
57812W        W21569  31.923   5.697  10.450
57813W        W21570  44.320  32.908   2.681
57814W        W21571   2.430  42.341  14.442
57815W        W21572   7.319  31.634  13.794
57816W        W21573  32.561  37.425   1.214
57817W        W21574  23.229   9.187   2.673
57818W        W21575  37.010  23.179   4.790
57819W        W21576   0.892  15.135   0.279
57820W        W21577  37.038  12.748   0.265
57821W        W21578  44.943  24.991   4.796
57822W        W21579   9.226  18.650  11.430
57823W        W21580  29.661  27.659   3.203
57824W        W21581  44.978  21.089  12.385
57825W        W21582  19.111  35.424   1.713
57826W        W21583  36.050  34.098   1.321
57827W        W21584  43.385  29.043   0.278
57828W        W21585  10.215   0.883  10.969
57829W        W21586  33.070  40.318   4.828
57830W        W21587   6.818  23.119   1.837
57831W        W21588  34.463  42.922   1.761
57832W        W21589  29.569  16.258   0.920
57833W        W21590  12.670  13.638   4.820
57834W        W21591  44.820  15.325   1.841
57835W        W21592  39.810  41.463   1.231
57836W        W21593   2.228   0.940   1.786
57837W        W21594  18.267  29.425  14.988
57838W        W21595  10.265  17.297  12.875
57839W        W21596  16.809   0.309   3.250
57840W        W21597  16.175  11.641   1.263
57841W        W21598  35.423  15.238   2.878
57842W        W21599  21.049  37.040  11.959
57843W        W21600  22.247  26.067   2.363
57844W        W21601   5.933  17.664   2.267
57845W        W21602  36.346  38.851   4.747
57846W        W21603  37.841  19.256   0.765
57847W        W21604  38.569  39.957  10.628
57848W        W21605  16.095  11.332   3.745
57849W        W21606   7.751  31.057  14.921
57850W        W21607  33.943  13.309  13.936
57851W        W21608  44.294  15.293   0.337
57852W        W21609   0.351   9.380   1.447
57853W        W21610  10.824  43.387   0.290
57854W        W21611  31.435  42.402  11.518
57855W        W21612  41.302  14.790   0.311
57856W        W21613   5.336   3.352   2.663
57857W        W21614  20.175  20.098   4.821
57858W        W21615   3.345  25.660   0.440
57859W        W21616  29.067  26.128   3.352
57860W        W21617  19.259   0.956  11.481
57861W        W21618  28.051  13.192  12.830
57862W        W21619  12.760  11.186  11.942
57863W        W21620  21.182  24.481  14.793
57864W        W21621  24.044   9.255  12.040
57865W        W21622   0.384  37.830   2.673
57866W        W21623  16.122   0.426   1.253
57867W        W21624  30.438  27.528   5.139
57868W        W21625  20.217   9.169  14.807
57869W        W21626  24.604  33.515  13.818
57870W        W21627  17.687  15.202  11.373
57871W        W21628  27.110  32.013   0.910
57872W        W21629  19.132  43.356   2.766
57873W        W21630   1.292  12.722   4.645
57874W        W21631  13.345  39.031  13.939
57875W        W21632  42.851  24.515  13.526
57876W        W21633   7.764  34.096  11.935
57877W        W21634  32.932   7.841  10.996
57878W        W21635  30.613  23.210  13.524
57879W        W21636  10.760  13.302   3.253
57880W        W21637  43.910  24.120   3.267
57881W        W21638  12.184   0.305   2.204
57882W        W21639  18.107  42.314   4.268
57883W        W21640   4.408   9.215   4.628
57884W        W21641  38.819  15.683  10.460
57885W        W21642  30.153  33.089   3.248
57886W        W21643  26.590  18.732   0.474
57887W        W21644  12.136  12.355   3.702
57888W        W21645  13.719   7.296  14.305
57889W        W21646  26.967  37.407   3.254
57890W        W21647  17.063  18.747   3.177
57891W        W21648  31.103  31.002   1.393
57892W        W21649  34.877  33.479  10.951
57893W        W21650  36.351  35.087   1.704
57894W        W21651  32.468  40.917  14.394
57895W        W21652   6.321  27.469  13.363
57896W        W21653  36.383  12.312   2.773
57897W        W21654  25.543  28.657   0.763
57898W        W21655  23.118  30.954  14.804
57899W        W21656  39.897  28.536  10.530
57900W        W21657  13.766  35.985   3.676
57901W        W21658  12.263  18.599  12.403
57902W        W21659  28.565  35.397  13.926
57903W        W21660  24.644  40.411  11.007
57904W        W21661   9.198  23.121   2.757
57905W        W21662   2.351  11.310  13.011
57906W        W21663  34.025   6.853  11.572
57907W        W21664   5.342  43.273  12.349
57908W        W21665  18.191   6.904   3.743
57909W        W21666  21.573  16.274   0.250
57910W        W21667  40.816   6.838  14.286
57911W        W21668  36.895  21.032   4.648
57912W        W21669  25.164   4.791  14.304
57913W        W21670  44.959  39.831   2.779
57914W        W21671  22.089   2.261   2.318
57915W        W21672  21.742   1.398   4.297
57916W        W21673  36.040   6.886  11.928
57917W        W21674  12.673  11.268   4.212
57918W        W21675  22.177  11.296  13.913
57919W        W21676  23.053  20.169  11.088
57920W        W21677  40.818  29.495  13.380
57921W        W21678  12.682   1.391   1.320
57922W        W21679   9.872   2.289  11.116
57923W        W21680  11.657   0.392  10.550
57924W        W21681  44.418  39.819   1.708
57925W        W21682  35.386  32.915  12.347
57926W        W21683  35.602   7.386  13.002
57927W        W21684  25.708  31.129  10.412
57928W        W21685  35.575  28.447  14.279
57929W        W21686  42.365  11.182  13.540
57930W        W21687  28.172   2.231   3.681
57931W        W21688  24.620  41.038  10.445
57932W        W21689  30.549  16.718  12.579
57933W        W21690   1.259   7.816  14.834
57934W        W21691  30.436  31.471  14.311
57935W        W21692  19.126  24.037   0.791
57936W        W21693  10.710  33.547   0.421
57937W        W21694  19.060   1.358   4.702
57938W        W21695  42.018   9.278  11.034
57939W        W21696  27.144   2.335  14.792
57940W        W21697  15.285  30.074  12.528
57941W        W21698  38.947  28.117   0.335
57942W        W21699  27.639   6.340  10.549
57943W        W21700  37.895  42.309   1.760
57944W        W21701  23.621  25.149   2.873
57945W        W21702  10.756  28.448   0.845
57946W        W21703  38.822  14.139   0.458
57947W        W21704  22.584  39.846  12.966
57948W        W21705  36.569  11.820   4.130
57949W        W21706  10.686  44.801  14.796
57950W        W21707  14.683   9.299  13.477
57951W        W21708   3.387   8.665   3.175
57952W        W21709  16.639  23.724   3.829
57953W        W21710  34.968  18.127   0.936
57954W        W21711  29.667  41.479   2.335
57955W        W21712  18.644  26.474   0.300
57956W        W21713   6.369  39.476   2.273
57957W        W21714  10.732   4.818   4.703
57958W        W21715  32.510  18.728  14.776
57959W        W21716  36.459  21.670   3.660
57960W        W21717  20.666  27.177  13.449
57961W        W21718   7.707  23.611   4.160
57962W        W21719  38.390  21.198  11.961
57963W        W21720  32.964  22.649  13.819
57964W        W21721   2.790   5.777   2.266
57965W        W21722  39.951  44.439  12.939
57966W        W21723  14.233  22.700  12.518
57967W        W21724   6.676   8.685  11.562
57968W        W21725  33.466  42.405  10.624
57969W        W21726  18.061   3.215   2.686
57970W        W21727  26.205  39.318   0.451
57971W        W21728  43.409  37.449   3.817
57972W        W21729  32.574  26.601  13.363
57973W        W21730  31.630  39.990   2.713
57974W        W21731  40.424  21.195  14.759
57975W        W21732  30.497   5.843   1.816
57976W        W21733  14.294   5.780  14.887
57977W        W21734  34.931  25.652   3.207
57978W        W21735   6.857   9.752   3.838
57979W        W21736   5.832  19.245   2.854
57980W        W21737  21.129  31.982   2.801
57981W        W21738  33.479  33.504   1.212
57982W        W21739  38.855  20.578   0.849
57983W        W21740   0.249   0.809  11.951
57984W        W21741  34.976   3.853  11.381
57985W        W21742   1.391   6.273  12.852
57986W        W21743  12.673   4.299   0.342
57987W        W21744  11.761  34.573  12.092
57988W        W21745  17.125  32.607   3.343
57989W        W21746  31.528  20.038   0.454
57990W        W21747  32.990   4.727   1.310
57991W        W21748  14.814  27.095  12.370
57992W        W21749  30.090   3.845   2.283
57993W        W21750   5.199  11.755  13.962
57994W        W21751  35.577   9.322  14.479
57995W        W21752  16.105  20.754   3.380
57996W        W21753  15.749  40.497  14.816
57997W        W21754  24.057  16.231  14.466
57998W        W21755  13.153   4.328   4.811
57999W        W21756  12.137  24.600   1.770
58000W        W21757  29.441   6.700  13.934
58001W        W21758  29.564  16.787  11.602
58002W        W21759  16.754  24.141   2.797
58003W        W21760   1.400  25.502  13.956
58004W        W21761  27.116  30.997   0.933
58005W        W21762  20.190  43.287  11.547
58006W        W21763  22.007  31.048  11.971
58007W        W21764  16.624  11.145  13.031
58008W        W21765  15.161  30.659   1.858
58009W        W21766   1.916  23.667   4.122
58010W        W21767   0.413   4.445  10.641
58011W        W21768  34.089  32.941  12.345
58012W        W21769  19.619  24.987  13.319
58013W        W21770  13.763  14.692  14.399
58014W        W21771   8.282  26.557   9.985
58015W        W21772   5.798  30.549  14.963
58016W        W21773   0.944  34.426   1.285
58017W        W21774  24.644  36.399   0.869
58018W        W21775  21.142   0.282   0.385
58019W        W21776  23.710  24.543   3.222
58020W        W21777  29.604  11.202  14.819
58021W        W21778  29.046  11.753  11.081
58022W        W21779  37.087  36.932   3.683
58023W        W21780  25.662  41.375   1.927
58024W        W21781   1.810  30.931   2.211
58025W        W21782  10.759  20.756   1.261
58026W        W21783  39.002   9.747   4.724
58027W        W21784  28.489  22.719  10.629
58028W        W21785   6.399   2.876   0.456
58029W        W21786  37.061   1.928  12.557
58030W        W21787   6.397  21.119   5.298
58031W        W21788  41.819  29.037   0.359
58032W        W21789   2.917  28.125   1.924
58033W        W21790   1.958  35.542  14.506
58034W        W21791  27.189  33.479  14.806
58035W        W21792  12.801   6.897   1.289
58036W        W21793  32.404  14.339  11.905
58037W        W21794  26.572   1.797   1.232
58038W        W21795   8.180   0.863   3.867
58039W        W21796   3.320   9.257   4.667
58040W        W21797  16.300   1.827  13.515
58041W        W21798  15.710  40.421  13.017
58042W        W21799   8.719  21.645  11.436
58043W        W21800  14.768  20.249  11.019
58044W        W21801   7.694  39.434  12.924
58045W        W21802  33.584  15.780  11.517
58046W        W21803  24.679   9.654   0.749
58047W        W21804  18.777  14.713  11.541
58048W        W21805  29.156  33.420  14.334
58049W        W21806  18.601  15.150  14.946
58050W        W21807  21.174  22.250   1.704
58051W        W21808  15.135   6.210  11.948
58052W        W21809   7.187  31.128   4.838
58053W        W21810   2.373   4.364   4.287
58054W        W21811  11.658  40.383  10.563
58055W        W21812  36.065  42.865  12.066
58056W        W21813  19.599  44.392   3.769
58057W        W21814  13.718  13.229  14.004
58058W        W21815  31.103  14.253   3.774
58059W        W21816   4.336  17.136   4.837
58060W        W21817  31.133  39.820   2.235
58061W        W21818  31.980  12.236   1.305
58062W        W21819  39.822  10.221  10.889
58063W        W21820   4.247  16.608   4.232
58064W        W21821  11.653  44.004   5.211
58065W        W21822  37.911   0.958   5.721
58066W        W21823  33.531  29.526  14.401
58067W        W21824   5.225  10.806   4.269
58068W        W21825  13.827  21.719   2.180
58069W        W21826   3.931  13.677  11.459
58070W        W21827  22.086  39.553   2.751
58071W        W21828  29.665  12.611   2.734
58072W        W21829  38.381  44.310   4.134
58073W        W21830  39.887  31.420  10.541
58074W        W21831  37.402   6.258   9.920
58075W        W21832   3.767  42.402   1.416
58076W        W21833  17.573  25.638  13.375
58077W        W21834  34.061  30.542   1.319
58078W        W21835  38.450  32.975  12.015
58079W        W21836  31.993  19.164   4.617
58080W        W21837  16.308  20.542   2.221
58081W        W21838  30.075  10.663  14.453
58082W        W21839   2.336  10.250  11.893
58083W        W21840  33.395  13.644   3.267
58084W        W21841  13.208  38.426   0.459
58085W        W21842  19.204  21.109   2.407
58086W        W21843  12.285  23.710   4.332
58087W        W21844  10.702  10.325  13.975
58088W        W21845  15.609  22.679   1.782
58089W        W21846  30.449  21.176  13.949
58090W        W21847   2.351   6.212  12.054
58091W        W21848   2.896  40.040   4.639
58092W        W21849  28.155  31.100  14.403
58093W        W21850  30.473  17.740   2.379
58094W        W21851   1.383  37.396  10.917
58095W        W21852  21.726  21.090  12.514
58096W        W21853  37.535  43.284   0.243
58097W        W21854  13.838  15.111   4.170
58098W        W21855  12.742  12.323   0.465
58099W        W21856  25.205   7.320   3.772
58100W        W21857   7.781   9.348  10.972
58101W        W21858  30.047  12.669  13.426
58102W        W21859  14.199  31.101  12.531
58103W        W21860   7.417  35.904  11.448
58104W        W21861  17.609  36.406   3.187
58105W        W21862  30.088  43.877  14.338
58106W        W21863  33.992  37.386   2.344
58107W        W21864  28.086  17.061   1.341
58108W        W21865  43.362  12.808   4.720
58109W        W21866  39.330  11.730   2.782
58110W        W21867  33.897   4.792  12.823
58111W        W21868  28.471  43.859  10.976
58112W        W21869  42.933  34.924   3.344
58113W        W21870  40.396   1.262  12.044
58114W        W21871  16.651  20.212   0.730
58115W        W21872  31.444  26.023  12.992
58116W        W21873  10.814  13.279   0.300
58117W        W21874  16.620  30.152  14.797
58118W        W21875  10.179  10.645  10.487
58119W        W21876   5.365   5.213   2.728
58120W        W21877  43.403  43.937  11.559
58121W        W21878  28.169  33.083  12.073
58122W        W21879  26.013  23.208   3.331
58123W        W21880   4.344  23.066   4.624
58124W        W21881  36.507  43.330   3.679
58125W        W21882   2.414  12.212   0.325
58126W        W21883  37.858  13.797   3.804
58127W        W21884   6.327   6.903  13.019
58128W        W21885  17.559  15.240  14.283
58129W        W21886  37.554  31.901  10.572
58130W        W21887  21.146  26.990   3.171
58131W        W21888  18.239  28.475  11.123
58132W        W21889  34.482  13.124   4.256
58133W        W21890  36.455  38.477  13.880
58134W        W21891  12.831  32.019  10.609
58135W        W21892  22.543  23.531   2.343
58136W        W21893  22.622   8.724   0.961
58137W        W21894  30.473  39.441   2.349
58138W        W21895  24.621  23.989  11.528
58139W        W21896  11.863  24.038  13.955
58140W        W21897  14.602  22.649   0.440
58141W        W21898  15.642  30.111  11.861
58142W        W21899  44.968  38.046   4.819
58143W        W21900  27.555  29.644  11.594
58144W        W21901  41.967   1.361   4.241
58145W        W21902  10.243  37.505   0.437
58146W        W21903  14.329  38.841   3.636
58147W        W21904   8.689   9.263  10.921
58148W        W21905  13.320  42.440   2.698
58149W        W21906  20.061   8.733  12.060
58150W        W21907  18.106  42.299  10.931
58151W        W21908  23.037  14.742  11.874
58152W        W21909  35.973  27.657   4.115
58153W        W21910  12.126  41.021  14.921
58154W        W21911  44.474   6.716  10.595
58155W        W21912  25.191  24.162   4.194
58156W        W21913  11.366  43.366   4.710
58157W        W21914  31.955  40.889  14.463
58158W        W21915   3.831  11.373   4.250
58159W        W21916  34.906  11.240   4.800
58160W        W21917   2.932  41.295  12.858
58161W        W21918   0.339  23.577  13.919
58162W        W21919  41.923   4.770   0.256
58163W        W21920  19.197  27.016  14.928
58164W        W21921  14.768   1.438  11.486
58165W        W21922  19.775  11.810   1.434
58166W        W21923  32.095  41.443   3.786
58167W        W21924  26.670  10.184   0.850
58168W        W21925   1.891   7.911  11.380
58169W        W21926  15.787  13.117   4.695
58170W        W21927   3.453  21.692   3.824
58171W        W21928  21.574  17.245  12.532
58172W        W21929   5.401   3.848  14.499
58173W        W21930  35.451  16.271  10.913
58174W        W21931  28.633  43.473   2.351
58175W        W21932  30.443  14.245   9.930
58176W        W21933  41.480  18.667   1.353
58177W        W21934  40.454  16.304   3.728
58178W        W21935  20.722  29.128  14.845
58179W        W21936  23.532  15.236  14.892
58180W        W21937  36.038  27.141   1.927
58181W        W21938  40.325  16.131  14.769
58182W        W21939  24.609  33.533  14.775
58183W        W21940  35.972  16.230   4.813
58184W        W21941  44.477  31.479  11.009
58185W        W21942  31.473  44.380   1.238
58186W        W21943  42.783  34.950   5.297
58187W        W21944  10.711  42.921  11.481
58188W        W21945  13.119   9.261   2.182
58189W        W21946  25.116  12.811  14.480
58190W        W21947  24.068  30.068   4.735
58191W        W21948  43.766  16.117   0.820
58192W        W21949   0.790  41.827  11.440
58193W        W21950  22.996   7.300  10.585
58194W        W21951  15.280   5.381   3.736
58195W        W21952  38.571  22.010  11.612
58196W        W21953   4.266   0.931   1.790
58197W        W21954  15.287   9.655   4.260
58198W        W21955  11.246  38.909   1.854
58199W        W21956  20.628  31.901  13.367
58200W        W21957  34.962  32.125   3.842
58201W        W21958  29.112  44.763  14.971
58202W        W21959  28.980  30.093   2.691
58203W        W21960  24.599  28.495  13.017
58204W        W21961  18.224  22.572  13.894
58205W        W21962  31.529   1.321  13.542
58206W        W21963   3.348  39.325   4.315
58207W        W21964  26.575  21.045  13.908
58208W        W21965  11.676  25.147  11.387
58209W        W21966  41.360  41.886  12.872
58210W        W21967   0.398  40.339   0.893
58211W        W21968   6.268  24.026  12.374
58212W        W21969  24.062  44.000   1.217
58213W        W21970  29.459  32.614  14.939
58214W        W21971  19.573  43.425  11.982
58215W        W21972  39.448  11.196  12.861
58216W        W21973  39.948  23.131  10.523
58217W        W21974   9.819   2.835   0.856
58218W        W21975  13.773  43.357   0.338
58219W        W21976   3.343  16.587  14.957
58220W        W21977  40.330  20.088   0.294
58221W        W21978   1.933  44.945   0.760
58222W        W21979  29.582  44.394  13.046
58223W        W21980  44.753  34.015  13.335
58224W        W21981  31.410  16.222   1.701
58225W        W21982  26.137   7.890   2.821
58226W        W21983   8.353  13.727   2.315
58227W        W21984  24.152  44.964  14.909
58228W        W21985   2.864  24.062   4.692
58229W        W21986   2.746  17.183   3.819
58230W        W21987   6.719  17.149  14.019
58231W        W21988  41.917  11.243  14.303
58232W        W21989  31.054  37.427   3.736
58233W        W21990   2.396  39.876  14.789
58234W        W21991  38.405  35.550  14.804
58235W        W21992  30.634  33.889   4.687
58236W        W21993   6.224  17.606   0.409
58237W        W21994  19.557  18.245   4.795
58238W        W21995  29.976  11.639   4.632
58239W        W21996  20.066  31.621   0.258
58240W        W21997   3.712  26.112  10.624
58241W        W21998  23.025  19.241  14.493
58242W        W21999  31.546  28.997  13.028
58243W        W22000   5.249  17.213  14.456
58244W        W22001  42.828   3.340   1.727
58245W        W22002   2.405  28.556  12.927
58246W        W22003  32.932  21.539  14.930
58247W        W22004  28.663   6.383   0.460
58248W        W22005   8.896  26.539  10.434
58249W        W22006  27.991   2.362   2.853
58250W        W22007  16.716  27.560   0.825
58251W        W22008  11.722  37.447   1.773
58252W        W22009  19.744  33.046  14.422
58253W        W22010  42.405   2.765  13.936
58254W        W22011  23.236  28.535  12.404
58255W        W22012  19.162  43.371  10.965
58256W        W22013   4.753  28.139  13.054
58257W        W22014  23.213  32.617  13.959
58258W        W22015  42.329  43.376   0.877
58259W        W22016  11.734  27.616   3.370
58260W        W22017   0.475  36.489  10.894
58261W        W22018  24.715   7.667  11.988
58262W        W22019  36.975   7.722   1.799
58263W        W22020  38.822  33.949   2.267
58264W        W22021  14.140  14.764   2.266
58265W        W22022  21.156  31.590  12.985
58266W        W22023  12.818  41.004  12.579
58267W        W22024  38.963  26.490   4.620
58268W        W22025  36.990  12.195  10.641
58269W        W22026  34.494  36.933  13.913
58270W        W22027   4.407   9.276   0.809
58271W        W22028   1.746  21.162   0.854
58272W        W22029   3.806  39.957  13.816
58273W        W22030  16.640  13.648  11.534
58274W        W22031  24.016  37.041  12.952
58275W        W22032  29.985  32.920  11.084
58276W        W22033  39.462  12.660   4.727
58277W        W22034  42.012  36.384   3.746
58278W        W22035  18.550   9.346   3.800
58279W        W22036   8.395  21.043   3.172
58280W        W22037  26.962  24.673  14.352
58281W        W22038  29.021  33.412   0.775
58282W        W22039  32.118   3.458   1.446
58283W        W22040  26.191  41.948  12.441
58284W        W22041  36.985  39.040   1.216
58285W        W22042  33.048  22.747   4.198
58286W        W22043  13.337   7.674   1.407
58287W        W22044   1.744  14.117   2.306
58288W        W22045  17.100  36.406  10.908
58289W        W22046  26.039   8.299  10.406
58290W        W22047  25.110  10.692   1.313
58291W        W22048  41.839  17.072   4.658
58292W        W22049  42.883   6.372  11.532
58293W        W22050  16.696  22.058   3.803
58294W        W22051  13.344  41.482   4.219
58295W        W22052   0.860  35.076  14.966
58296W        W22053   6.210   5.422   0.742
58297W        W22054  31.565  27.549  13.892
58298W        W22055   2.797  18.653  12.878
58299W        W22056  22.668  24.069   3.707
58300W        W22057  36.535  21.740   0.743
58301W        W22058  42.286  18.676  13.429
58302W        W22059  16.204  19.724  10.485
58303W        W22060  32.903   1.758  13.546
58304W        W22061  20.699  42.399   0.465
58305W        W22062  27.663  10.282   2.210
58306W        W22063   6.782  42.823   5.240
58307W        W22064   0.833   7.795   3.352
58308W        W22065  37.352  27.961  13.475
58309W        W22066  18.202  37.575   4.724
58310W        W22067  31.125  27.175   4.696
58311W        W22068  21.044  12.763  11.076
58312W        W22069  16.290  28.673  13.887
58313W        W22070  38.860  31.484   4.290
58314W        W22071  16.670  35.358   0.340
58315W        W22072  32.439   2.389   0.947
58316W        W22073  33.947  42.523  12.472
58317W        W22074  25.073  21.019   4.640
58318W        W22075  36.955  36.088   2.311
58319W        W22076  29.594  30.974   4.178
58320W        W22077  25.977  10.212  13.884
58321W        W22078  18.665   1.830   3.331
58322W        W22079  34.448   0.325   4.196
58323W        W22080   6.244  40.453   2.287
58324W        W22081  21.658  40.831  12.955
58325W        W22082  16.742  27.948   3.334
58326W        W22083  13.604  37.985   2.348
58327W        W22084  17.684  20.575  12.835
58328W        W22085  32.906  14.239  14.350
58329W        W22086  33.080   0.871   0.248
58330W        W22087   9.818  24.224   1.752
58331W        W22088  33.011  24.631   4.781
58332W        W22089  19.248  30.162   0.470
58333W        W22090  26.648  39.472  12.909
58334W        W22091  34.484  19.577  14.768
58335W        W22092  36.955  17.305   3.645
58336W        W22093  31.151  28.538  10.987
58337W        W22094  21.514  39.014   0.346
58338W        W22095  30.477  40.407  13.354
58339W        W22096  31.082  11.148  13.801
58340W        W22097  27.061  23.153   0.862
58341W        W22098  18.560   5.371   1.907
58342W        W22099  37.524  18.075  13.032
58343W        W22100  16.290   4.858  13.939
58344W        W22101  16.251  33.877   3.710
58345W        W22102  35.569   8.785   1.446
58346W        W22103  32.098   4.336   1.351
58347W        W22104   6.355  39.912  13.956
58348W        W22105  16.733  24.980   3.248
58349W        W22106  20.274  21.602   0.902
58350W        W22107  18.626  33.127  14.416
58351W        W22108  41.876  23.497   9.970
58352W        W22109  10.679  38.063  12.946
58353W        W22110  12.255   7.207   3.355
58354W        W22111   7.261  29.031  13.385
58355W        W22112  37.071  44.490   2.350
58356W        W22113  25.526  18.741   3.217
58357W        W22114  16.635   5.888   4.628
58358W        W22115   1.403  26.177   2.813
58359W        W22116  24.086  23.120  14.846
58360W        W22117   3.277  33.875   3.250
58361W        W22118  10.709  21.689  13.939
58362W        W22119  12.317  36.509   2.854
58363W        W22120  43.327  31.967  11.560
58364W        W22121   7.689   3.789   4.208
58365W        W22122  38.488  39.463   0.439
58366W        W22123  28.106  22.035  12.063
58367W        W22124  11.258   1.770   1.236
58368W        W22125  36.961  30.126  13.316
58369W        W22126  24.025   7.669   1.372
58370W        W22127  22.683   4.764   5.206
58371W        W22128  12.300  10.771  13.983
58372W        W22129  18.786   5.729  13.048
58373W        W22130  23.177  38.897   1.372
58374W        W22131   0.283   8.361  14.431
58375W        W22132   3.455  40.810   0.289
58376W        W22133  18.626  18.734   1.282
58377W        W22134   1.852   3.242   2.265
58378W        W22135  17.216   8.268  10.592
58379W        W22136   4.915  41.850  10.971
58380W        W22137  30.114  25.547   4.695
58381W        W22138  37.514   5.828   3.338
58382W        W22139   1.855  27.150  14.995
58383W        W22140  15.142   2.896  11.003
58384W        W22141  32.093  36.953  12.360
58385W        W22142  30.978  39.324  11.434
58386W        W22143   6.360  37.839   2.184
58387W        W22144  12.288  20.244  13.489
58388W        W22145  22.604  27.597  13.524
58389W        W22146  21.159  22.066   3.200
58390W        W22147  29.965   4.777  13.050
58391W        W22148  28.559  27.489   4.159
58392W        W22149  25.015  34.930  14.404
58393W        W22150  34.057  12.286   2.738
58394W        W22151  10.225  40.529   1.423
58395W        W22152  27.599   0.317  14.282
58396W        W22153  21.199  33.589  11.028
58397W        W22154  39.553  44.824  12.339
58398W        W22155  38.946  35.969  13.864
58399W        W22156  18.588  13.332   1.429
58400W        W22157  29.950  17.661  14.354
58401W        W22158  30.016  36.993  14.845
58402W        W22159  20.691  17.765   3.174
58403W        W22160  12.359  37.496  11.943
58404W        W22161  11.208  31.962   2.691
58405W        W22162   2.290  32.960  10.898
58406W        W22163  17.765  23.722  11.592
58407W        W22164  28.504  32.509  14.822
58408W        W22165  26.559  42.436   4.244
58409W        W22166  33.885  29.435   3.742
58410W        W22167   4.251   6.887  12.543
58411W        W22168  11.687  22.241   4.234
58412W        W22169  27.130  29.142  13.793
58413W        W22170  20.081  33.617  13.931
58414W        W22171  26.552  14.785   0.257
58415W        W22172  44.856  18.119   2.310
58416W        W22173  12.817  42.896  11.518
58417W        W22174  12.623  20.766   4.347
58418W        W22175  21.106   9.783  11.490
58419W        W22176  36.430  24.646  11.026
58420W        W22177  44.268   2.869   3.789
58421W        W22178  42.483  32.404  12.861
58422W        W22179   5.349  18.605   5.672
58423W        W22180  15.329  42.366   3.638
58424W        W22181   3.319  21.671  12.947
58425W        W22182  38.977  25.535  11.900
58426W        W22183   7.282  30.146  12.080
58427W        W22184  35.917  21.588   0.369
58428W        W22185  39.814  26.108  11.041
58429W        W22186   4.227   1.795  11.446
58430W        W22187  24.975  11.337  13.365
58431W        W22188  31.603   3.253   2.360
58432W        W22189  12.336  29.430  12.068
58433W        W22190   5.746  24.216   2.672
58434W        W22191  13.279  13.181   1.315
58435W        W22192  10.328  13.209   1.325
58436W        W22193  21.042  12.122   0.785
58437W        W22194  13.292   3.797   3.245
58438W        W22195  44.366  30.911  11.108
58439W        W22196  25.108   8.276  13.845
58440W        W22197  32.550  18.551   4.251
58441W        W22198   4.734   3.445   2.725
58442W        W22199   7.874  15.735   4.179
58443W        W22200  15.243  14.234  12.974
58444W        W22201  18.650  16.620   5.165
58445W        W22202  18.270  21.640   4.293
58446W        W22203   5.305  13.798  12.961
58447W        W22204  23.034  10.768   1.400
58448W        W22205  37.393  38.830   1.383
58449W        W22206  32.453  18.575   3.331
58450W        W22207  38.484  43.955  14.399
58451W        W22208  29.932  11.241   2.829
58452W        W22209  23.164  38.927  14.000
58453W        W22210  12.277  28.641   4.678
58454W        W22211  32.497   9.735  13.902
58455W        W22212  26.157  25.209  12.899
58456W        W22213  38.445  32.920  14.411
58457W        W22214  15.238  37.424  12.354
58458W        W22215  22.162  44.496  11.534
58459W        W22216  36.585  16.644   1.346
58460W        W22217  25.988  27.940  10.532
58461W        W22218  31.402  26.466   5.204
58462W        W22219  11.257  12.121   0.894
58463W        W22220  38.916   9.666  13.525
58464W        W22221   4.316   6.299  14.868
58465W        W22222  42.319   8.898   4.290
58466W        W22223  15.617  39.935   1.741
58467W        W22224  37.908  11.640   0.352
58468W        W22225  16.257   4.856   2.344
58469W        W22226   3.217  16.222   1.748
58470W        W22227  31.909  19.582  12.542
58471W        W22228  16.085  44.760  11.917
58472W        W22229  28.507  28.012  12.464
58473W        W22230  14.258  14.600   3.654
58474W        W22231  21.207  34.581   3.745
58475W        W22232   5.913  33.988   3.633
58476W        W22233   5.333   5.746   2.766
58477W        W22234  23.492  26.031   1.248
58478W        W22235  32.569  34.085  10.889
58479W        W22236  12.652   0.251   0.385
58480W        W22237  25.508  29.956  14.318
58481W        W22238   5.819   4.236  12.557
58482W        W22239  19.272  16.189  12.039
58483W        W22240  12.291  35.075   1.431
58484W        W22241  18.161   7.357   2.360
58485W        W22242   8.212  26.609   2.889
58486W        W22243  38.421  41.857  14.841
58487W        W22244   9.242  15.160   1.442
58488W        W22245  26.535  24.103   1.811
58489W        W22246  26.122  44.993  11.463
58490W        W22247  40.466  40.885   4.240
58491W        W22248   1.420  43.870   2.775
58492W        W22249  31.648  36.351  11.591
58493W        W22250  21.600  35.568   0.847
58494W        W22251   6.743  17.145  11.120
58495W        W22252  31.924  44.967   4.212
58496W        W22253  43.313  37.912  12.970
58497W        W22254   8.264  22.012   3.179
58498W        W22255  40.305   0.837  12.355
58499W        W22256   0.865  12.774  14.912
58500W        W22257   7.735  36.915   1.848
58501W        W22258  15.733   3.896  11.028
58502W        W22259  19.658  40.410   3.780
58503W        W22260  38.558  39.984  12.567
58504W        W22261  39.513  29.583  12.983
58505W        W22262  11.315   2.427   1.447
58506W        W22263   5.903   2.958   3.837
58507W        W22264  43.902  31.039   4.313
58508W        W22265  33.110  13.175  11.375
58509W        W22266   9.649  28.998  12.897
58510W        W22267   4.220  29.124   1.248
58511W        W22268  40.904  25.528  13.481
58512W        W22269   8.732  38.938  14.489
58513W        W22270  24.618  39.852  13.423
58514W        W22271  30.115  20.118   2.865
58515W        W22272   5.418   8.206   4.795
58516W        W22273  24.501  41.027  14.897
58517W        W22274  12.694   1.751   0.862
58518W        W22275  24.665  35.558   1.435
58519W        W22276   2.376  34.582   4.700
58520W        W22277   0.405  42.898  10.948
58521W        W22278  29.446   3.819  10.889
58522W        W22279  35.951  11.710  13.480
58523W        W22280  19.586   7.220   4.622
58524W        W22281  38.547  10.174  13.926
58525W        W22282  42.847   7.891   1.249
58526W        W22283  42.840  20.107   4.802
58527W        W22284  24.662  28.654  13.427
58528W        W22285   4.707  43.826  11.922
58529W        W22286  33.887  19.757  13.011
58530W        W22287  22.700  16.681   0.852
58531W        W22288  11.865  37.873  12.938
58532W        W22289   5.886  29.575  11.371
58533W        W22290  18.612   8.367  13.485
58534W        W22291  42.028   1.398   1.249
58535W        W22292   0.327  32.588  13.851
58536W        W22293  11.184   6.313  12.871
58537W        W22294  10.738  13.733  12.576
58538W        W22295  32.392   5.217   0.483
58539W        W22296  34.961  34.511  12.964
58540W        W22297  40.940   2.797  11.858
58541W        W22298   8.224  32.554   2.778
58542W        W22299  20.748  12.232   2.676
58543W        W22300  12.645  44.291   1.397
58544W        W22301  28.583  10.193  12.976
58545W        W22302  38.339   5.254  10.062
58546W        W22303  16.641  41.293   4.793
58547W        W22304  16.297  42.993   1.319
58548W        W22305   7.344  34.966   1.299
58549W        W22306   6.403  31.545  11.007
58550W        W22307  31.574  26.155   1.231
58551W        W22308   9.381  17.778   1.698
58552W        W22309   4.923  17.192  12.915
58553W        W22310  26.554   1.481  10.441
58554W        W22311  21.732   3.809   3.332
58555W        W22312  42.332  21.184   3.274
58556W        W22313  10.319  34.870  14.336
58557W        W22314   6.208   0.472   9.975
58558W        W22315   8.231   1.897  13.796
58559W        W22316  18.618   7.712  12.462
58560W        W22317  24.654  41.968  14.315
58561W        W22318  17.227  35.949  11.101
58562W        W22319  17.267  13.843  11.408
58563W        W22320  12.136  34.516   3.222
58564W        W22321  32.437  27.052   2.822
58565W        W22322  42.849  21.739   1.236
58566W        W22323  29.091  28.168  12.006
58567W        W22324  20.153  32.518  13.018
58568W        W22325  23.217   8.850   0.477
58569W        W22326  43.961  19.635   1.321
58570W        W22327  41.005  37.407  13.488
58571W        W22328   7.202  32.467  11.867
58572W        W22329   2.244  40.308   4.698
58573W        W22330  13.203   9.373  14.445
58574W        W22331  23.561   6.693   1.261
58575W        W22332  24.603  37.544   1.763
58576W        W22333  16.214  14.679   3.302
58577W        W22334  36.994   9.834  13.484
58578W        W22335  24.565  24.679   3.379
58579W        W22336   4.318  25.054   0.960
58580W        W22337  39.935  33.099  14.965
58581W        W22338  40.372  29.571   2.718
58582W        W22339  33.509  34.483   0.774
58583W        W22340   6.695  27.661   1.912
58584W        W22341  25.202  15.242   1.377
58585W        W22342  15.296  15.213   3.194
58586W        W22343  34.457   6.365   2.192
58587W        W22344  44.371  41.525   4.196
58588W        W22345  19.636  31.429  11.114
58589W        W22346  16.701  31.896   0.795
58590W        W22347   1.927  37.515  12.974
58591W        W22348  39.455  27.580   1.308
58592W        W22349  42.497   7.825  14.508
58593W        W22350  36.499   3.758   1.306
58594W        W22351  25.171  20.265   1.294
58595W        W22352   1.463  40.985  11.567
58596W        W22353  24.639  23.121   3.230
58597W        W22354  43.899  14.798  13.041
58598W        W22355  22.626  43.462  10.923
58599W        W22356  27.571  30.076  11.111
58600W        W22357  27.170  21.176   0.261
58601W        W22358  26.612  44.373  10.470
58602W        W22359  42.518  25.086  10.432
58603W        W22360  43.292  15.816  11.907
58604W        W22361  36.887  39.560  12.056
58605W        W22362  43.343   1.829  11.920
58606W        W22363  17.656  29.455   0.833
58607W        W22364  21.740  24.615  12.442
58608W        W22365  28.097  36.506   4.230
58609W        W22366   1.416   6.187  14.966
58610W        W22367  28.530   2.750  14.318
58611W        W22368  11.348   9.248   3.156
58612W        W22369   2.885  34.032  14.817
58613W        W22370  24.097  42.831  10.008
58614W        W22371  24.580  40.347   3.714
58615W        W22372   6.189  25.985  12.540
58616W        W22373   6.307  40.024   4.161
58617W        W22374  27.632  44.002   4.179
58618W        W22375  19.214  23.019  14.803
58619W        W22376  25.570  24.601  11.939
58620W        W22377  14.211  19.077   3.717
58621W        W22378   4.401  12.660   1.271
58622W        W22379  19.774  25.543   1.381
58623W        W22380  40.320  15.198   0.816
58624W        W22381   5.910  44.462   3.213
58625W        W22382  44.289  21.242  10.443
58626W        W22383   9.233  11.673  12.363
58627W        W22384  42.297  19.202  14.981
58628W        W22385  14.193  36.057   4.789
58629W        W22386  31.132  21.648  11.123
58630W        W22387   9.199  31.432   1.767
58631W        W22388  15.157  25.545   1.305
58632W        W22389  31.536  34.916   2.300
58633W        W22390  42.341  19.253   0.859
58634W        W22391  36.023  33.474   4.349
58635W        W22392  33.543  12.824   0.889
58636W        W22393  23.577  43.270   0.415
58637W        W22394  21.153  30.118  13.371
58638W        W22395  20.109   8.741  12.826
58639W        W22396  29.471  34.390   1.446
58640W        W22397  33.529  19.270   3.202
58641W        W22398  15.148   4.295  14.496
58642W        W22399  34.439  34.956   2.727
58643W        W22400  37.900   4.406   1.787
58644W        W22401  40.014   4.936  14.769
58645W        W22402  35.924  31.639   4.300
58646W        W22403  21.603  15.778   2.737
58647W        W22404   9.766  31.077  13.055
58648W        W22405  15.262  17.182  13.019
58649W        W22406   8.829   4.880  14.030
58650W        W22407  33.950  22.731   2.701
58651W        W22408  22.653  30.416  14.460
58652W        W22409  42.324   9.735  14.032
58653W        W22410  31.993  20.627  10.914
58654W        W22411  42.319  26.665  10.451
58655W        W22412  27.638  39.537   4.816
58656W        W22413  39.002  32.505   4.740
58657W        W22414  15.625  40.477   2.319
58658W        W22415  42.978  19.661  13.379
58659W        W22416  15.587   1.273   1.450
58660W        W22417  27.523  26.041  10.923
58661W        W22418  37.079  14.647   4.620
58662W        W22419  36.575   9.225   3.806
58663W        W22420   9.389  37.576   2.395
58664W        W22421  23.664  14.174   3.823
58665W        W22422   1.318  12.337   3.825
58666W        W22423  30.439  19.673   4.797
58667W        W22424   8.661  24.638   0.299
58668W        W22425  20.753   2.731   2.397
58669W        W22426  36.462  17.290  13.336
58670W        W22427  20.580   0.443   0.727
58671W        W22428  18.126  13.730  14.409
58672W        W22429  39.420   7.201  13.530
58673W        W22430  26.098  34.586  11.402
58674W        W22431  43.288  18.145  11.946
58675W        W22432  39.917  36.040   4.781
58676W        W22433  25.142  24.578   9.984
58677W        W22434  34.411  29.964  10.002
58678W        W22435  38.983   3.270  13.356
58679W        W22436  14.269  28.003   3.861
58680W        W22437  39.325  25.110  14.760
58681W        W22438  20.038  43.964   3.845
58682W        W22439  18.291  29.624  10.926
58683W        W22440   0.263  12.238  11.920
58684W        W22441   8.872  27.990   4.642
58685W        W22442  10.262   8.237   2.733
58686W        W22443  31.928  36.578  13.414
58687W        W22444  17.160  30.557  11.855
58688W        W22445  26.959  27.043   1.916
58689W        W22446  35.516   0.392   3.360
58690W        W22447  30.966  31.088   3.179
58691W        W22448   7.281  29.024   1.738
58692W        W22449  13.283  27.456   3.187
58693W        W22450  41.452  12.148  10.912
58694W        W22451  19.620  34.426   2.793
58695W        W22452  11.130  22.228   3.729
58696W        W22453  31.977  38.853   2.886
58697W        W22454  38.531  12.156  11.021
58698W        W22455  27.046   2.462   2.312
58699W        W22456  16.622   8.222  10.557
58700W        W22457  38.851  31.922   4.141
58701W        W22458  23.100  20.130  11.875
58702W        W22459   4.353   3.254  14.394
58703W        W22460  35.498  33.117  10.441
58704W        W22461   2.851  39.015   4.654
58705W        W22462  44.988  41.518  14.886
58706W        W22463  38.378   9.331  10.628
58707W        W22464  36.398   0.357   1.305
58708W        W22465  39.855  21.062   0.898
58709W        W22466   6.312  19.568  10.554
58710W        W22467   8.836  28.933   2.220
58711W        W22468  15.702  24.031   1.441
58712W        W22469  37.338  25.595  12.864
58713W        W22470   0.280   2.830   2.178
58714W        W22471  41.027   0.344   4.222
58715W        W22472  14.149   9.182   4.765
58716W        W22473  35.390  41.448   3.870
58717W        W22474   0.393  11.864   2.233
58718W        W22475  28.043  42.804  14.456
58719W        W22476  23.503  36.495  12.008
58720W        W22477   8.898  43.500  11.576
58721W        W22478  19.065   2.392  11.059
58722W        W22479  35.458  30.992   0.315
58723W        W22480   7.881  42.838   1.923
58724W        W22481  15.669  29.539   0.478
58725W        W22482   2.255  34.402  13.500
58726W        W22483   0.415  19.706   2.231
58727W        W22484  34.068  41.535   4.146
58728W        W22485   6.800  23.240   3.301
58729W        W22486   1.357  29.499   0.781
58730W        W22487  35.049  21.554  13.957
58731W        W22488  27.562  34.063   1.756
58732W        W22489  22.637  18.147   0.350
58733W        W22490  30.573  18.058   4.760
58734W        W22491   9.853   1.955  12.430
58735W        W22492  41.384  37.515   2.253
58736W        W22493  25.593  15.161  13.027
58737W        W22494  27.659  33.500  11.021
58738W        W22495  27.114  43.494   0.740
58739W        W22496   2.261  19.272   4.339
58740W        W22497  33.954  27.652   1.270
58741W        W22498  40.904   2.814  14.478
58742W        W22499  14.660  27.506  12.887
58743W        W22500  32.886  18.282  10.500
58744W        W22501  25.629  39.868  13.055
58745W        W22502   9.361  37.021   1.768
58746W        W22503  16.608  41.894  11.867
58747W        W22504  29.090  30.627  11.016
58748W        W22505  12.213  40.412  10.447
58749W        W22506  25.969  38.431  14.017
58750W        W22507  35.887  29.431   1.376
58751W        W22508  25.186  27.457   0.348
58752W        W22509  14.768   8.730   5.160
58753W        W22510  25.091  33.039   0.887
58754W        W22511   0.295  38.351   3.280
58755W        W22512  30.144   3.415   2.741
58756W        W22513   5.384   4.210  11.530
58757W        W22514  27.657   6.308  11.450
58758W        W22515  26.185  26.568  12.369
58759W        W22516   4.423   3.837  12.087
58760W        W22517  34.935  31.519  10.448
58761W        W22518  23.623   7.278   0.793
58762W        W22519  16.147  17.124   1.231
58763W        W22520  10.274   8.667  10.108
58764W        W22521  44.810  41.394   4.721
58765W        W22522  25.643  12.738  12.077
58766W        W22523  24.716  10.315  13.894
58767W        W22524  40.885   7.727  11.569
58768W        W22525  44.360  22.112  11.511
58769W        W22526  13.169  22.619   1.742
58770W        W22527  12.168  16.638  13.501
58771W        W22528  13.828  16.673  12.988
58772W        W22529   7.192  37.501   5.085
58773W        W22530  22.178  24.584   4.317
58774W        W22531  16.602  34.922   2.677
58775W        W22532  17.700   8.184   3.250
58776W        W22533  16.258  28.089   4.116
58777W        W22534  23.184  31.048   0.340
58778W        W22535   8.305  12.751  14.998
58779W        W22536  18.107  36.987   1.914
58780W        W22537  31.014   4.231   2.723
58781W        W22538  16.745   3.771   0.428
58782W        W22539  40.904   9.190   2.813
58783W        W22540  33.599  34.592   4.675
58784W        W22541   2.362  22.547   3.174
58785W        W22542  44.009   4.280  10.598
58786W        W22543  30.982   1.238  14.983
58787W        W22544   6.342  24.585  14.993
58788W        W22545  38.459   9.672  11.542
58789W        W22546  26.499  41.863   1.906
58790W        W22547  36.451  12.611   3.375
58791W        W22548  17.150  16.116   3.277
58792W        W22549  30.913  10.200  12.562
58793W        W22550  10.243  20.039  10.488
58794W        W22551  27.094  23.523  12.076
58795W        W22552  12.852  15.718  12.420
58796W        W22553  34.022  32.458  14.760
58797W        W22554   0.914   5.896  11.529
58798W        W22555  26.998  19.147  10.578
58799W        W22556  41.012  12.193  13.863
58800W        W22557  23.202  43.352   4.182
58801W        W22558   0.769  30.125   1.760
58802W        W22559  34.379  16.647  10.581
58803W        W22560  35.493  21.227   2.408
58804W        W22561  33.519   0.952  12.083
58805W        W22562  10.375   1.942  12.899
58806W        W22563  18.239  27.682   0.421
58807W        W22564  21.695  44.875   2.695
58808W        W22565  21.093  28.056  11.116
58809W        W22566  23.729  30.557   1.423
58810W        W22567  26.701   0.818   3.777
58811W        W22568  33.578  10.209   2.795
58812W        W22569  42.852   0.276   3.682
58813W        W22570  44.994  33.117  12.369
58814W        W22571  14.258  37.372   1.422
58815W        W22572  29.019  17.705   5.213
58816W        W22573  15.608   8.727  14.288
58817W        W22574  26.458   4.865  12.446
58818W        W22575  43.856  24.221   0.942
58819W        W22576  23.567  31.067   2.679
58820W        W22577  41.836  24.217  13.001
58821W        W22578  30.139   8.768   3.199
58822W        W22579  26.968  23.544   2.412
58823W        W22580   2.337   6.314  12.460
58824W        W22581   2.840  41.945   2.227
58825W        W22582  41.481  28.666  11.864
58826W        W22583  38.395  34.018  11.460
58827W        W22584  41.410   6.241  13.012
58828W        W22585  12.317  35.004   2.398
58829W        W22586  42.341  13.143   3.201
58830W        W22587  42.945  36.950   3.204
58831W        W22588  31.147   1.897  13.483
58832W        W22589  31.406  27.002  10.012
58833W        W22590   7.275  42.956  13.333
58834W        W22591   6.182  15.733  11.890
58835W        W22592   2.839  37.918  13.375
58836W        W22593  15.729  23.699  14.928
58837W        W22594   6.196  24.974   1.431
58838W        W22595  43.788   8.822   2.184
58839W        W22596  17.583  10.177  11.428
58840W        W22597  33.554   4.323   3.356
58841W        W22598   9.333  17.121  10.970
58842W        W22599   3.374  39.522  14.337
58843W        W22600  39.355  20.555  14.769
58844W        W22601  40.967  41.465  11.082
58845W        W22602   9.840  18.210   2.662
58846W        W22603  11.847  31.918  10.430
58847W        W22604   8.689  24.130  12.011
58848W        W22605  25.538  13.340   4.729
58849W        W22606   9.679   4.861   3.748
58850W        W22607   9.313   4.861  13.333
58851W        W22608  17.198  39.361  14.901
58852W        W22609  40.510  18.680   1.825
58853W        W22610  16.073  23.579   3.736
58854W        W22611  39.436  25.506   4.678
58855W        W22612  30.128  25.193   2.886
58856W        W22613  24.054   6.387  13.431
58857W        W22614   1.272  24.539   3.314
58858W        W22615  26.607  41.811  12.467
58859W        W22616  32.947  30.620   4.137
58860W        W22617  33.889  17.205  11.983
58861W        W22618  34.406  22.125   4.767
58862W        W22619  24.173  37.379   2.329
58863W        W22620  40.993  44.269  13.308
58864W        W22621   6.691  43.846  13.405
58865W        W22622  10.198  31.931   3.775
58866W        W22623  25.164  42.007  14.337
58867W        W22624  20.146   9.780   1.304
58868W        W22625   2.413  44.390   3.320
58869W        W22626  23.532  21.064   1.913
58870W        W22627  30.637  36.841  11.908
58871W        W22628  13.149  14.597   0.839
58872W        W22629   3.369  23.997  10.513
58873W        W22630  11.174  18.070   4.712
58874W        W22631  25.663  11.717   2.413
58875W        W22632  38.899  11.735   3.709
58876W        W22633  18.191  33.066   0.397
58877W        W22634   3.929  43.934   4.180
58878W        W22635   2.948  11.239  10.587
58879W        W22636  10.753  31.101  13.927
58880W        W22637  24.534  18.245  13.986
58881W        W22638   6.418  21.625   2.869
58882W        W22639  20.636  15.209  12.483
58883W        W22640  43.804  36.039  11.401
58884W        W22641  11.163  20.616  11.004
58885W        W22642  28.090  19.267   4.740
58886W        W22643  33.059   4.894   4.623
58887W        W22644  33.074  21.182  12.427
58888W        W22645   7.255  16.119  13.850
58889W        W22646  44.832  43.850  14.355
58890W        W22647  41.434   6.813  11.112
58891W        W22648  29.529   1.788  12.344
58892W        W22649   1.464  22.651   1.706
58893W        W22650  21.537  29.963  14.941
58894W        W22651  29.080  43.378  11.570
58895W        W22652  24.721   2.860  12.871
58896W        W22653  42.419   6.895   0.898
58897W        W22654  34.375  19.179  12.867
58898W        W22655  22.115  15.639   0.740
58899W        W22656  39.476  38.902  11.967
58900W        W22657   0.388  15.687  11.550
58901W        W22658  12.214  41.389  12.025
58902W        W22659  17.620  41.975   2.351
58903W        W22660  29.173  39.328  13.021
58904W        W22661  30.414  28.125  11.944
58905W        W22662  32.899  17.564   1.741
58906W        W22663  37.576   1.934   0.761
58907W        W22664  36.371  42.323  13.491
58908W        W22665  44.428  35.954   3.332
58909W        W22666  33.539  22.646  11.030
58910W        W22667  11.674  10.672   1.849
58911W        W22668  18.113  29.546   4.658
58912W        W22669  24.618  29.964  10.980
58913W        W22670  22.683   9.236   2.220
58914W        W22671  27.953  43.388  10.544
58915W        W22672  29.470  15.268  13.908
58916W        W22673  23.087  14.261   1.859
58917W        W22674  40.995  13.268  12.481
58918W        W22675  28.945  31.121  14.440
58919W        W22676   5.337  16.801   0.379
58920W        W22677  23.105  28.571   1.395
58921W        W22678  27.615  36.396  11.942
58922W        W22679   8.799  23.217  14.374
58923W        W22680  39.409  19.224   2.863
58924W        W22681   0.868  29.141   3.352
58925W        W22682  29.057  30.647  10.612
58926W        W22683  33.499  42.303   3.329
58927W        W22684  27.059  22.063   5.245
58928W        W22685  11.354  24.058  10.934
58929W        W22686  23.696  27.968   3.785
58930W        W22687  39.532   8.694  11.929
58931W        W22688  11.706   6.403  14.460
58932W        W22689   6.766  26.994  14.998
58933W        W22690  11.779  24.484   4.658
58934W        W22691  10.831  40.813   0.904
58935W        W22692  10.246  30.141  11.608
58936W        W22693  33.964  18.249   3.691
58937W        W22694  26.962   0.852  11.901
58938W        W22695   2.409  32.989   3.359
58939W        W22696   0.327  10.159  11.965
58940W        W22697  22.238  22.612  14.311
58941W        W22698  25.094   6.827   2.881
58942W        W22699  25.164  39.011  13.008
58943W        W22700  30.054  10.322   0.336
58944W        W22701  20.265  33.915   2.733
58945W        W22702  39.366  10.793  13.521
58946W        W22703  11.821  35.505  11.492
58947W        W22704  37.462  39.914   1.379
58948W        W22705  24.043  34.377   4.212
58949W        W22706   3.736  34.940  11.860
58950W        W22707  29.068  24.095  11.414
58951W        W22708   2.262  43.019  13.409
58952W        W22709  42.806  11.373   4.200
58953W        W22710  22.057  38.840  13.887
58954W        W22711  44.401   4.427   0.806
58955W        W22712  36.883   3.420   4.121
58956W        W22713   7.268   0.448   2.889
58957W        W22714   5.269  41.448   2.837
58958W        W22715   7.848  29.959   4.707
58959W        W22716   8.767  44.765   0.901
58960W        W22717  11.143   2.228  12.420
58961W        W22718  33.406   6.836   0.283
58962W        W22719  32.015  35.387  12.444
58963W        W22720  40.038  40.918   1.221
58964W        W22721   6.883  10.799   4.683
58965W        W22722  44.263  29.984   1.274
58966W        W22723  15.278  36.588  12.462
58967W        W22724   6.908  41.917  11.412
58968W        W22725   3.841  33.938  14.974
58969W        W22726  20.090  31.139  11.477
58970W        W22727   4.853  12.821   3.672
58971W        W22728  17.264  38.927   4.263
58972W        W22729  19.702  37.422  13.358
58973W        W22730  35.880  18.650  10.509
58974W        W22731  42.973   1.428   2.753
58975W        W22732  32.463  32.920  11.487
58976W        W22733  26.187  15.293   9.981
58977W        W22734  41.959   1.954   1.255
58978W        W22735  19.112  40.466   3.770
58979W        W22736  10.324  27.648   4.633
58980W        W22737  13.622   3.820  12.903
58981W        W22738  19.152  27.974  14.511
58982W        W22739  19.604  43.830  10.889
58983W        W22740   1.270  38.984   1.855
58984W        W22741  15.088  16.640   0.310
58985W        W22742   3.826  20.259  11.897
58986W        W22743  37.855  44.283  12.840
58987W        W22744   2.267  31.639   4.277
58988W        W22745  37.495   1.349  14.413
58989W        W22746  28.506   6.309   1.779
58990W        W22747  43.348  18.182  11.456
58991W        W22748  44.265   1.860  13.914
58992W        W22749  20.037   1.472   0.294
58993W        W22750  25.646  21.238  12.343
58994W        W22751  25.066  11.828  14.513
58995W        W22752  34.001  28.681  13.800
58996W        W22753  31.585  28.973  14.945
58997W        W22754  40.429  19.133  13.804
58998W        W22755  30.605  43.855   1.721
58999W        W22756  41.882  26.637   1.729
59000W        W22757  27.012  32.000   2.751
59001W        W22758  28.996  16.702  12.489
59002W        W22759  16.317  43.345  12.048
59003W        W22760   5.783   6.183   3.358
59004W        W22761   2.444  19.703  10.418
59005W        W22762  21.243  22.115   0.729
59006W        W22763  13.109  20.589  12.430
59007W        W22764   4.279  43.470  13.542
59008W        W22765  26.567  25.052  12.506
59009W        W22766  41.961  10.311   0.870
59010W        W22767  34.549  33.437  14.996
59011W        W22768  28.549  14.780   3.801
59012W        W22769   4.909  25.964   9.975
59013W        W22770   0.391  20.167   2.899
59014W        W22771  11.764  11.170  13.947
59015W        W22772  38.853  10.706   1.914
59016W        W22773  34.905  43.808  10.897
59017W        W22774  44.317  37.539   3.678
59018W        W22775  24.036  39.990  12.936
59019W        W22776  29.158  33.036  10.626
59020W        W22777  12.637   7.278  13.347
59021W        W22778   3.411   8.316  13.990
59022W        W22779  44.927   8.699  12.986
59023W        W22780  15.783  11.258   3.703
59024W        W22781  26.043  29.525   4.753
59025W        W22782  36.071   0.945  14.486
59026W        W22783  31.588  44.349   1.762
59027W        W22784   4.846  37.088  11.055
59028W        W22785   5.200  21.147  12.366
59029W        W22786  22.191  41.836  11.604
59030W        W22787  28.127  32.060  11.404
59031W        W22788  19.537  30.108   3.254
59032W        W22789   9.180  14.811  14.811
59033W        W22790   9.271  44.474   1.807
59034W        W22791  16.250  23.714   4.670
59035W        W22792  11.719  41.347   4.653
59036W        W22793  26.186  39.986  14.857
59037W        W22794  37.569   4.890   1.836
59038W        W22795  38.882   4.242   3.753
59039W        W22796  18.549  18.211  13.532
59040W        W22797   9.255  23.599   3.378
59041W        W22798  23.619  44.374  11.895
59042W        W22799  15.622  31.097  13.428
59043W        W22800  17.174  37.985   2.845
59044W        W22801  27.575  42.461   1.829
59045W        W22802   7.753  18.201  14.833
59046W        W22803  38.885  26.108  12.928
59047W        W22804  13.339  28.971   0.863
59048W        W22805  44.355  13.617  13.534
59049W        W22806   0.301  30.519  14.834
59050W        W22807  39.508  26.505   0.929
59051W        W22808  12.250  17.765   4.281
59052W        W22809  30.635  17.628  13.871
59053W        W22810  35.580  20.676  11.966
59054W        W22811  37.979  27.191   2.708
59055W        W22812  14.624  25.655  11.860
59056W        W22813   2.455  26.134   2.266
59057W        W22814  14.145  16.097  10.951
59058W        W22815  33.018  30.111   5.566
59059W        W22816  11.710   2.890   3.331
59060W        W22817  20.129  39.987  14.374
59061W        W22818  28.998   5.259   4.350
59062W        W22819   7.200  36.376   1.298
59063W        W22820  44.411  27.186   0.335
59064W        W22821  16.127  30.549  12.455
59065W        W22822   6.900   0.263   2.196
59066W        W22823  28.556  43.509  11.921
59067W        W22824  21.250  28.082  11.964
59068W        W22825  20.272  31.978  13.507
59069W        W22826  27.942  27.492   2.874
59070W        W22827  13.311  35.878  13.797
59071W        W22828  43.283   9.180   2.230
59072W        W22829  13.172  38.831  13.352
59073W        W22830  43.346  20.232   1.761
59074W        W22831  17.288  13.195  14.798
59075W        W22832  18.236  25.617  12.571
59076W        W22833  38.863  38.521  11.408
59077W        W22834  22.221   4.741  10.634
59078W        W22835  38.934  40.338  13.853
59079W        W22836  27.467  40.969   4.152
59080W        W22837  17.188  29.113  13.526
59081W        W22838   4.792  36.351   3.768
59082W        W22839  24.713  43.417   2.211
59083W        W22840  43.902  35.052   3.349
59084W        W22841  41.417  14.637   0.881
59085W        W22842   0.837  36.924   3.750
59086W        W22843  37.951  40.358  10.544
59087W        W22844   5.293  34.539  10.580
59088W        W22845  29.627  19.716  12.447
59089W        W22846  23.662  24.505  12.874
59090W        W22847   5.736   2.843   2.718
59091W        W22848  14.736   7.199  13.475
59092W        W22849   7.709  34.417   4.674
59093W        W22850   5.416  12.295   4.198
59094W        W22851  30.532  29.586   3.865
59095W        W22852   9.649  39.371  14.358
59096W        W22853  11.250  29.074   4.118
59097W        W22854  27.955   0.818   9.962
59098W        W22855  34.614  40.975   0.737
59099W        W22856  33.488   1.965   2.899
59100W        W22857  17.789   0.742   1.914
59101W        W22858  10.797  18.223   1.253
59102W        W22859   9.344  41.530  10.631
59103W        W22860  42.499   4.772   1.419
59104W        W22861  31.905  23.216  11.573
59105W        W22862  35.516  27.142  12.376
59106W        W22863  38.847   1.293  11.967
59107W        W22864  41.950  24.088   0.405
59108W        W22865  10.720  22.645  13.530
59109W        W22866  18.259  31.497  11.072
59110W        W22867  29.091   5.928  10.567
59111W        W22868  17.222   3.751   3.785
59112W        W22869   7.743  17.708   2.364
59113W        W22870  20.568  15.808  12.007
59114W        W22871  17.583  33.909   3.853
59115W        W22872  42.303  31.957  13.342
59116W        W22873  34.515  37.909  12.024
59117W        W22874  32.563   2.851   1.286
59118W        W22875  37.848  40.799   0.421
59119W        W22876  43.858   6.311   2.248
59120W        W22877  38.844   6.823  14.291
59121W        W22878  17.578  44.902   0.865
59122W        W22879  32.397  10.198   9.931
59123W        W22880  17.744  25.008   2.816
59124W        W22881  21.629  25.170  13.002
59125W        W22882  15.312  20.761   2.761
59126W        W22883  39.906  21.111  11.408
59127W        W22884   6.276  36.428  12.871
59128W        W22885  17.288   1.876   5.168
59129W        W22886  22.096  27.013   0.461
59130W        W22887  25.102  41.901  12.462
59131W        W22888   2.366  26.613  13.063
59132W        W22889  12.806   8.228   1.290
59133W        W22890  13.303  28.525   4.309
59134W        W22891   6.766  22.006  14.382
59135W        W22892  22.574  39.923  14.450
59136W        W22893  27.551  32.048  13.393
59137W        W22894  28.525  11.699  11.858
59138W        W22895  18.167  19.219   0.911
59139W        W22896   6.188   0.796  13.860
59140W        W22897  30.145   0.427  13.856
59141W        W22898  30.654  27.987  14.831
59142W        W22899  42.307  30.461  13.978
59143W        W22900  11.259  10.790   1.743
59144W        W22901  17.764  38.024  10.622
59145W        W22902  10.268   9.662   1.435
59146W        W22903   8.205  30.008  11.897
59147W        W22904  38.381  44.927   3.702
59148W        W22905   6.800   6.257   4.259
59149W        W22906  21.197  16.721  10.156
59150W        W22907  35.934  16.757   4.253
59151W        W22908   4.211  38.865   1.249
59152W        W22909   9.832  17.090  10.983
59153W        W22910  25.161   6.298  13.978
59154W        W22911   3.362   9.715   3.798
59155W        W22912   1.287   0.789   2.407
59156W        W22913  33.974  23.157  10.938
59157W        W22914   9.746  19.164   0.905
59158W        W22915  39.439  13.291  10.639
59159W        W22916  37.391  31.630   1.778
59160W        W22917  35.400   1.451  12.058
59161W        W22918  40.489  30.137  13.326
59162W        W22919  30.045   8.211  11.436
59163W        W22920  26.467  34.427  10.930
59164W        W22921  18.240  24.100   1.326
59165W        W22922  27.060  10.721   0.265
59166W        W22923  13.830  40.322   0.246
59167W        W22924  14.207  35.028  14.000
59168W        W22925  24.621  32.542  14.019
59169W        W22926  31.533  33.608  14.437
59170W        W22927  33.414  30.098   0.353
59171W        W22928  35.424  25.473  14.840
59172W        W22929  43.333  42.408   2.372
59173W        W22930  21.587  15.760  11.125
59174W        W22931  10.236  17.770   0.912
59175W        W22932  41.868  21.041   2.780
59176W        W22933  28.935  12.138  13.817
59177W        W22934   3.412  38.940  11.924
59178W        W22935  35.859  10.357  11.481
59179W        W22936  26.185  15.241  10.953
59180W        W22937   6.331   5.795  10.542
59181W        W22938  21.067  15.224   3.293
59182W        W22939  38.983   2.798   2.791
59183W        W22940   0.874   2.852  10.960
59184W        W22941  20.115  24.695  13.844
59185W        W22942  13.242  37.458  14.859
59186W        W22943  36.453  40.527   3.747
59187W        W22944  22.077  36.856   3.737
59188W        W22945  21.563   7.903  11.040
59189W        W22946  32.965  15.284  14.792
59190W        W22947  39.367  31.050   2.179
59191W        W22948  10.668  42.016   0.778
59192W        W22949  26.976  28.095   2.720
59193W        W22950  22.077   1.295   0.848
59194W        W22951   7.901  29.566  12.500
59195W        W22952  30.078  30.595  14.920
59196W        W22953  19.656  15.729  14.806
59197W        W22954   7.319   0.412  11.003
59198W        W22955  21.165  15.705  10.630
59199W        W22956  11.356  28.965  12.092
59200W        W22957   8.239   5.876  13.446
59201W        W22958  26.488   9.173  13.902
59202W        W22959  11.795  28.031   5.178
59203W        W22960  13.662  37.883   2.698
59204W        W22961  32.612  39.838   4.626
59205W        W22962  33.901  25.124  11.567
59206W        W22963  12.170  15.687  10.913
59207W        W22964  10.876  23.236   4.708
59208W        W22965  26.110  25.182  13.819
59209W        W22966  12.248  13.660  13.531
59210W        W22967  30.007  13.779  10.971
59211W        W22968   5.309  39.920   1.747
59212W        W22969   3.309  34.070   2.356
59213W        W22970  13.158  11.789   2.795
59214W        W22971  31.477   1.764   0.447
59215W        W22972   7.258  19.746  11.467
59216W        W22973  37.384  25.136  12.956
59217W        W22974   6.866   4.887   0.447
59218W        W22975  35.965  16.234   0.384
59219W        W22976   4.794  24.084   0.730
59220W        W22977   5.898  28.137  11.094
59221W        W22978  43.308  10.380  14.881
59222W        W22979  17.115  44.811  10.527
59223W        W22980  31.418  37.473  14.851
59224W        W22981  29.090  39.432  10.409
59225W        W22982   1.324  39.897   2.349
59226W        W22983  15.632  28.095  10.993
59227W        W22984  16.593   9.367   4.824
59228W        W22985   2.862  26.471  12.946
59229W        W22986  37.447  12.297   4.706
59230W        W22987  27.107   9.357   2.893
59231W        W22988  44.411  38.497  13.879
59232W        W22989  30.939  11.163  12.359
59233W        W22990  39.880  41.023   1.733
59234W        W22991  17.145  41.998  13.832
59235W        W22992  39.913  41.520   2.242
59236W        W22993  40.419  30.057  13.055
59237W        W22994   4.939  25.656  12.007
59238W        W22995   7.880  30.479   3.285
59239W        W22996  34.372  28.451  14.906
59240W        W22997  27.622  26.032   2.693
59241W        W22998   9.315  24.974  12.071
59242W        W22999  44.281  28.030  11.863
59243W        W23000  34.929  32.901   3.196
59244W        W23001  22.223  39.381   0.885
59245W        W23002  23.129  41.787   1.787
59246W        W23003  24.225  34.113   0.467
59247W        W23004  14.752  41.536   2.185
59248W        W23005   0.921  20.592  10.889
59249W        W23006  32.475  40.434   3.810
59250W        W23007  35.424  22.193   4.772
59251W        W23008  37.918  25.159  13.384
59252W        W23009  15.707  22.156  11.612
59253W        W23010  18.095  19.106  11.073
59254W        W23011   8.175  18.545   9.618
59255W        W23012  10.822  31.575  11.611
59256W        W23013   2.356   7.308   0.874
59257W        W23014   9.792   0.798   4.160
59258W        W23015  37.505   7.752   3.854
59259W        W23016  30.016  10.236   2.272
59260W        W23017  19.542   7.243   2.192
59261W        W23018  41.470  42.891  13.918
59262W        W23019  38.976  15.675  12.086
59263W        W23020   7.171  29.536   4.718
59264W        W23021  30.521  44.394   0.808
59265W        W23022  16.575  14.235   3.269
59266W        W23023  38.021  42.940   2.819
59267W        W23024   4.406  41.406  14.506
59268W        W23025  37.866  20.108   2.792
59269W        W23026   6.293  39.965  10.112
59270W        W23027  16.295  29.160   1.351
59271W        W23028  27.487  36.850  11.086
59272W        W23029   3.373   6.228  12.545
59273W        W23030  22.104  44.326  14.838
59274W        W23031  13.157   5.804  13.888
59275W        W23032  17.201  31.594   0.371
59276W        W23033  21.061  12.126   0.414
59277W        W23034  20.759  10.670   0.851
59278W        W23035  10.636  21.626   0.250
59279W        W23036  23.057  43.813  13.052
59280W        W23037  37.908   2.352  14.406
59281W        W23038  28.651  36.074  12.407
59282W        W23039   8.297  44.934   0.430
59283W        W23040   4.254  18.671  12.478
59284W        W23041  28.977  24.497   1.368
59285W        W23042  29.166  32.920  10.963
59286W        W23043  35.420  37.924  14.024
59287W        W23044  25.567  31.932  12.039
59288W        W23045  13.672  15.168   3.715
59289W        W23046  32.062   7.188  11.959
59290W        W23047  11.680  40.419   5.297
59291W        W23048  23.622   6.306  13.800
59292W        W23049  42.394  38.447   3.202
59293W        W23050  22.513  13.209   2.777
59294W        W23051  37.070   1.474  10.621
59295W        W23052  29.503  35.911   2.896
59296W        W23053  10.722  24.675  13.813
59297W        W23054  28.525  23.158   1.709
59298W        W23055  22.550  39.984  10.559
59299W        W23056  30.936  36.577   3.253
59300W        W23057  14.823  25.142   5.257
59301W        W23058  44.959  35.049  13.896
59302W        W23059   0.925  25.558  10.511
59303W        W23060  15.706  42.496  13.425
59304W        W23061  25.507  26.652   4.311
59305W        W23062  44.834  24.986   0.471
59306W        W23063  27.640   0.832  13.330
59307W        W23064   4.882   3.265   4.238
59308W        W23065  22.738   9.783   0.795
59309W        W23066   5.739   4.769  14.510
59310W        W23067  21.720  32.117   3.711
59311W        W23068  26.623  36.455   2.668
59312W        W23069  29.608  13.171   4.741
59313W        W23070  34.894   5.729  10.060
59314W        W23071   0.456  44.934   2.300
59315W        W23072  17.611  23.490  14.950
59316W        W23073  20.123  11.676  11.093
59317W        W23074  32.017  29.046  10.563
59318W        W23075  14.159  44.417   1.332
59319W        W23076  17.613  30.971   2.212
59320W        W23077  21.583   2.758   4.277
59321W        W23078  28.521  21.678  12.500
59322W        W23079  32.974   7.710   4.303
59323W        W23080   4.345  33.449  10.483
59324W        W23081  30.501  10.360  13.017
59325W        W23082   5.240  30.450   1.420
59326W        W23083   9.774  41.413  14.795
59327W        W23084  35.887   7.390  13.341
59328W        W23085   0.420   7.263   2.698
59329W        W23086   0.459   9.195   1.904
59330W        W23087  32.071  22.018  10.009
59331W        W23088  40.046  25.586   1.281
59332W        W23089   2.399  15.269  14.906
59333W        W23090  44.308  14.747  12.867
59334W        W23091   5.817  25.676  14.913
59335W        W23092  27.021  14.215   2.254
59336W        W23093  41.344   7.687  10.449
59337W        W23094  30.414  22.039  12.826
59338W        W23095  22.650  34.939   0.802
59339W        W23096  12.332  37.021  12.824
59340W        W23097  37.907  28.052  11.066
59341W        W23098  32.119  25.694   4.667
59342W        W23099   2.746  24.128   3.757
59343W        W23100  41.993  42.900  13.429
59344W        W23101  15.314  19.196  11.382
59345W        W23102  10.372  23.045  13.996
59346W        W23103  32.123  19.099  13.843
59347W        W23104  35.552  39.972   4.720
59348W        W23105  17.762  18.124   1.880
59349W        W23106  31.950   7.833  10.513
59350W        W23107  43.292   8.386   1.784
59351W        W23108  37.383  18.616  12.515
59352W        W23109  27.992  34.934   0.465
59353W        W23110  21.156  24.197   3.654
59354W        W23111  13.719  38.549   3.799
59355W        W23112  10.352  23.180  12.884
59356W        W23113  28.621  36.502  13.969
59357W        W23114   6.834  24.611  10.548
59358W        W23115  12.271  42.320   1.829
59359W        W23116  36.525  40.937   0.838
59360W        W23117  42.900  35.461  14.857
59361W        W23118  21.159  20.140  14.325
59362W        W23119   8.858   1.863  13.506
59363W        W23120   6.208  44.791  13.484
59364W        W23121  17.574  14.226  11.115
59365W        W23122  28.633  44.000   4.807
59366W        W23123  20.040   9.229  14.389
59367W        W23124  30.531  10.234  11.484
59368W        W23125   4.885  24.579   3.362
59369W        W23126  27.681  13.837   3.377
59370W        W23127  20.140  13.283  11.513
59371W        W23128  18.580   3.832  10.503
59372W        W23129  31.644  19.222   0.949
59373W        W23130   9.154  10.878   1.346
59374W        W23131  14.607  22.611  13.509
59375W        W23132  21.148  16.216  11.929
59376W        W23133  35.026  40.389  11.912
59377W        W23134   5.779  16.792   5.128
59378W        W23135   2.404   3.943   2.376
59379W        W23136  34.101  30.438  14.413
59380W        W23137  17.761  13.337   3.644
59381W        W23138  23.687  12.320  10.931
59382W        W23139  43.412  38.529  13.017
59383W        W23140  13.195  38.865   0.414
59384W        W23141   1.789  33.030  13.546
59385W        W23142  34.014  10.823  14.916
59386W        W23143   5.863  13.677  14.319
59387W        W23144  43.272  37.850  12.470
59388W        W23145  43.885  15.089   3.211
59389W        W23146  16.808  28.463  13.500
59390W        W23147  38.049   2.383  10.923
59391W        W23148  27.093  24.125  14.382
59392W        W23149  34.088  36.405  11.957
59393W        W23150  15.786  20.227  12.533
59394W        W23151  22.675   9.220   1.760
59395W        W23152  11.759  44.813   4.287
59396W        W23153   0.285  11.865   0.323
59397W        W23154  44.859   5.704   4.693
59398W        W23155  25.534  39.440  14.030
59399W        W23156  23.993  10.345   3.636
59400W        W23157  43.357  36.581  11.878
59401W        W23158   9.356  40.868   2.192
59402W        W23159  39.991  22.142   2.192
59403W        W23160  22.014  43.960  10.431
59404W        W23161  28.496   8.658   9.971
59405W        W23162  27.046  16.628   3.365
59406W        W23163  16.113  29.043  10.965
59407W        W23164  32.922   8.173   3.642
59408W        W23165  39.864  24.697  11.878
59409W        W23166  33.573   5.871   2.287
59410W        W23167  12.206  38.348  12.535
59411W        W23168  16.608   2.450  10.933
59412W        W23169  44.967  19.543   2.722
59413W        W23170  29.070  35.392  13.806
59414W        W23171  19.063  35.400   1.329
59415W        W23172  20.046  39.392   2.894
59416W        W23173   6.775  18.787   0.440
59417W        W23174  34.540  15.792   2.221
59418W        W23175  41.344  32.416   4.794
59419W        W23176   2.404  29.542  12.853
59420W        W23177  10.816  14.296  14.395
59421W        W23178  29.459   0.896   1.736
59422W        W23179  22.638  38.825   0.959
59423W        W23180   5.883  13.275   4.203
59424W        W23181  29.516  36.346  13.958
59425W        W23182  25.001  44.986   0.911
59426W        W23183  32.115  10.766   0.738
59427W        W23184  27.459  34.988   0.942
59428W        W23185  24.988  29.921  12.926
59429W        W23186  16.691  22.015  14.848
59430W        W23187   5.702  16.114   4.796
59431W        W23188  22.062  38.440  12.372
59432W        W23189  36.515  30.013  11.596
59433W        W23190  43.016  30.418  10.913
59434W        W23191  17.726  19.070  13.438
59435W        W23192   5.433  38.455  11.952
59436W        W23193  17.114  12.769  14.910
59437W        W23194   2.908  30.999  14.405
59438W        W23195  24.561   0.933   4.208
59439W        W23196  24.682   0.925   2.819
59440W        W23197  34.507  12.814   0.950
59441W        W23198  40.484   5.395  13.911
59442W        W23199  30.570   2.395  10.058
59443W        W23200  25.486  41.435   3.809
59444W        W23201  35.482  35.065  11.006
59445W        W23202  10.251  28.071  14.764
59446W        W23203  11.292  39.047  13.908
59447W        W23204  43.274  36.580  13.802
59448W        W23205  12.270  24.660   3.306
59449W        W23206  19.750   4.944   1.914
59450W        W23207  30.999   4.290  11.869
59451W        W23208  35.094  33.958   1.775
59452W        W23209  12.714  30.004  13.396
59453W        W23210  32.602   4.899   0.840
59454W        W23211  41.967  21.069   4.114
59455W        W23212   7.741  31.556   1.232
59456W        W23213  43.379  21.587  11.535
59457W        W23214  27.501  43.479   1.832
59458W        W23215  41.423   2.251  14.779
59459W        W23216   4.835   0.884  11.124
59460W        W23217  12.669  19.756  14.825
59461W        W23218   2.755  17.686   2.357
59462W        W23219   2.394  19.626   3.769
59463W        W23220  16.147  22.555  14.898
59464W        W23221  25.549  36.392  14.862
59465W        W23222  36.503   4.340  11.110
59466W        W23223  26.633  26.671  14.977
59467W        W23224  34.466  40.458   0.437
59468W        W23225  43.282  19.059  11.979
59469W        W23226  32.069  31.443  13.952
59470W        W23227  34.886  40.971  10.404
59471W        W23228  11.183  23.522  14.964
59472W        W23229  30.008  36.033  11.913
59473W        W23230  42.929  38.385  10.928
59474W        W23231  21.171  35.938  14.472
59475W        W23232  30.495  17.298  12.003
59476W        W23233  16.786   9.239   1.893
59477W        W23234  38.417  33.938   4.271
59478W        W23235  18.157  24.168   0.417
59479W        W23236  42.348  27.534   1.768
59480W        W23237   7.258  35.883  10.622
59481W        W23238  25.592  11.685  14.998
59482W        W23239  29.054  23.204   5.688
59483W        W23240  30.055  40.895  13.923
59484W        W23241  20.231  11.228   4.126
59485W        W23242  16.082  17.694  12.836
59486W        W23243   4.722  19.241   4.142
59487W        W23244   9.191  17.222  13.411
59488W        W23245   1.788   5.914  14.443
59489W        W23246  17.647   3.826  13.011
59490W        W23247  30.607  38.866  13.384
59491W        W23248  22.023  15.717   0.464
59492W        W23249  37.492  18.721   2.872
59493W        W23250  37.464  30.480   1.359
59494W        W23251  31.138  18.738   1.751
59495W        W23252  13.766  27.655  14.369
59496W        W23253  14.823  27.087  14.945
59497W        W23254  39.967   5.194   4.672
59498W        W23255  26.558  37.446  13.841
59499W        W23256   3.748  18.213   2.729
59500W        W23257  10.816  11.765   4.141
59501W        W23258   6.902   8.250   3.320
59502W        W23259   0.377  18.661   3.193
59503W        W23260  24.219  43.984   2.242
59504W        W23261  26.650  31.526  11.391
59505W        W23262  25.551   2.939  12.040
59506W        W23263  13.732  41.366  12.874
59507W        W23264   7.276  13.779  12.569
59508W        W23265  21.130  23.216   2.776
59509W        W23266  37.952   8.808  13.324
59510W        W23267  19.045  36.354   5.237
59511W        W23268  41.526   5.718   4.767
59512W        W23269  29.050   4.259   3.832
59513W        W23270   3.330  31.573  10.617
59514W        W23271  29.522  39.886  13.926
59515W        W23272   9.376  29.946  11.423
59516W        W23273   3.873  13.137   2.691
59517W        W23274  20.094  43.486   1.853
59518W        W23275  42.871   9.342   1.394
59519W        W23276  27.535  44.880  14.396
59520W        W23277  29.611   5.316  12.863
59521W        W23278  27.484  33.111   4.192
59522W        W23279  37.934  34.066   3.634
59523W        W23280  22.182   9.319  14.382
59524W        W23281  14.337   2.268   0.252
59525W        W23282  39.532  34.607   0.729
59526W        W23283  31.110  16.732   4.811
59527W        W23284   1.272  44.973  10.432
59528W        W23285  28.107  27.186  12.944
59529W        W23286  29.482  27.991   0.850
59530W        W23287   9.352  11.301  13.374
59531W        W23288   9.646  34.378  13.497
59532W        W23289  25.106  27.643   3.676
59533W        W23290  22.510  23.202   2.789
59534W        W23291  30.980   4.752   3.834
59535W        W23292  38.568  19.545   0.303
59536W        W23293  29.055  26.636  10.937
59537W        W23294   4.904   1.424   3.164
59538W        W23295  31.414   1.265   1.926
59539W        W23296  43.939  15.310   0.765
59540W        W23297   5.307   6.902  13.517
59541W        W23298  17.204  28.565  11.020
59542W        W23299  36.499  39.064   3.844
59543W        W23300   0.454  12.121  13.404
59544W        W23301  30.991  16.189  14.822
59545W        W23302  15.758  28.118  12.492
59546W        W23303  29.080   0.391   3.821
59547W        W23304  16.318  18.084   4.281
59548W        W23305  22.577   8.745   5.086
59549W        W23306  16.617   2.370   4.647
59550W        W23307  34.968  21.210   0.957
59551W        W23308  16.262  43.974  10.066
59552W        W23309  20.569  15.785  13.928
59553W        W23310  30.419  21.024  11.079
59554W        W23311  42.517  42.805   1.883
59555W        W23312  33.523  28.588   2.185
59556W        W23313   6.215  32.585   0.955
59557W        W23314  25.073  24.193  14.915
59558W        W23315   9.870   2.307  14.365
59559W        W23316   8.656  20.116  14.443
59560W        W23317  19.118  44.950   3.800
59561W        W23318  27.968   8.170  12.938
59562W        W23319  31.144  37.567  12.964
59563W        W23320  30.537   6.259  10.614
59564W        W23321   0.468  40.534   3.700
59565W        W23322  31.122   1.356   1.451
59566W        W23323  21.523  15.138   1.807
59567W        W23324  30.021  29.513  11.051
59568W        W23325  23.558   2.944   3.166
59569W        W23326  16.695  21.737  14.408
59570W        W23327   8.319  35.991   2.754
59571W        W23328   1.847  12.807  14.866
59572W        W23329  40.028  29.481  12.339
59573W        W23330  28.139  18.568   2.266
59574W        W23331  43.300  29.609   3.724
59575W        W23332   1.946  23.600  13.905
59576W        W23333  10.319  39.369   0.767
59577W        W23334   7.410  14.272  10.629
59578W        W23335  11.714  33.425   0.930
59579W        W23336  33.495  20.677   4.166
59580W        W23337   8.678  35.906  13.428
59581W        W23338  23.710  17.657  14.015
59582W        W23339  24.125  37.385  11.426
59583W        W23340  20.130  12.762   0.819
59584W        W23341  28.672  37.834  13.351
59585W        W23342  14.292  11.318   4.288
59586W        W23343  35.870  28.475   4.758
59587W        W23344  27.038  11.752  10.105
59588W        W23345  21.213  38.833   2.881
59589W        W23346   5.216   0.898  10.611
59590W        W23347  41.904  15.793  11.896
59591W        W23348  40.503  32.586   0.962
59592W        W23349  15.161  44.767   3.725
59593W        W23350  28.520  17.682   2.181
59594W        W23351  42.397  15.729  10.894
59595W        W23352   5.352  42.873  11.447
59596W        W23353  21.254   5.403  14.938
59597W        W23354  10.648  15.108   0.367
59598W        W23355   3.767   5.205  10.961
59599W        W23356  28.502  44.799  14.921
59600W        W23357  26.554  31.543   4.768
59601W        W23358  20.068  37.055  12.547
59602W        W23359  37.876  39.833   2.870
59603W        W23360  11.668  40.374   4.639
59604W        W23361   7.765  28.606   3.351
59605W        W23362  17.562  31.994  13.993
59606W        W23363   4.394  12.810  12.470
59607W        W23364  13.239  19.662   2.770
59608W        W23365  18.743  25.555   2.242
59609W        W23366   9.858  39.018  14.926
59610W        W23367  25.711   8.207   3.322
59611W        W23368  13.605  33.934  14.296
59612W        W23369  18.171  40.844   4.675
59613W        W23370   8.901  15.802   4.332
59614W        W23371   3.223  27.122   2.365
59615W        W23372  19.210  24.002  13.546
59616W        W23373  11.265  40.382   2.669
59617W        W23374  28.583   4.874  11.588
59618W        W23375  21.516  40.915  11.441
59619W        W23376   3.717   1.370   1.391
59620W        W23377  42.790  38.927  12.570
59621W        W23378   7.282  37.453   2.315
59622W        W23379  22.183   8.819   0.265
59623W        W23380  40.982  37.445  14.917
59624W        W23381  34.041  17.073   1.274
59625W        W23382  26.606  43.937  11.500
59626W        W23383  13.811  41.978   4.737
59627W        W23384   8.371  14.767  10.566
59628W        W23385  41.381  11.217   2.849
59629W        W23386   3.433   8.719  12.940
59630W        W23387  12.830  29.031   4.149
59631W        W23388   2.333  13.744   0.331
59632W        W23389  29.455  36.425   4.294
59633W        W23390  43.985   2.257  11.071
59634W        W23391  43.900  42.930   2.216
59635W        W23392  28.003  44.941   3.289
59636W        W23393  27.473  36.511  12.862
59637W        W23394  22.165  17.784   0.268
59638W        W23395  23.679   2.809  14.899
59639W        W23396  28.623  11.227   4.611
59640W        W23397  24.614  15.803  13.540
59641W        W23398   0.756  36.015   2.753
59642W        W23399  18.168   1.749   4.831
59643W        W23400  10.341  41.867   0.258
59644W        W23401  10.286   5.735   3.847
59645W        W23402  23.523  19.742   3.273
59646W        W23403   3.725  40.961  12.339
59647W        W23404  34.863  24.708  13.818
59648W        W23405  19.607  19.104  10.944
59649W        W23406  36.509  33.382   2.299
59650W        W23407  12.135  43.810  14.997
59651W        W23408  35.578  38.849  13.310
59652W        W23409  23.043   1.409  11.954
59653W        W23410   9.778  22.045   2.249
59654W        W23411  20.741  26.151   0.282
59655W        W23412  27.509  17.291  11.426
59656W        W23413  29.153  27.649  10.510
59657W        W23414  22.141   9.844   4.728
59658W        W23415  25.662  15.616   0.363
59659W        W23416  18.589  37.385   1.843
59660W        W23417  34.080  15.086  11.927
59661W        W23418  35.488  35.584  13.921
59662W        W23419  20.666  13.266  14.801
59663W        W23420  34.603   5.912  11.475
59664W        W23421  11.759  26.134  14.435
59665W        W23422  14.327  32.891   0.333
59666W        W23423  23.542  35.860  12.065
59667W        W23424   7.873   6.861  11.946
59668W        W23425  38.559  11.282  13.029
59669W        W23426  15.812  34.561   4.600
59670W        W23427  19.563  43.324  14.964
59671W        W23428  27.151  20.212   3.791
59672W        W23429  38.434  15.145   2.679
59673W        W23430  29.066   8.308  11.412
59674W        W23431  31.576  13.612  13.490
59675W        W23432  22.136   3.396  13.336
59676W        W23433  28.124  19.146  14.814
59677W        W23434  40.472  13.831  11.578
59678W        W23435   5.703  33.054  14.500
59679W        W23436  28.519  20.767  11.609
59680W        W23437  35.559  37.893  11.541
59681W        W23438   3.941  17.070   4.664
59682W        W23439  40.429  28.556   1.365
59683W        W23440   1.782  39.875  14.984
59684W        W23441   5.923  13.732  13.346
59685W        W23442  19.660  34.610   1.804
59686W        W23443  10.177  15.651  12.036
59687W        W23444  18.772  31.145  13.516
59688W        W23445  14.719  36.396   0.841
59689W        W23446  24.683  34.434  13.914
59690W        W23447  42.832  15.812  13.831
59691W        W23448  39.006  36.077  10.126
59692W        W23449   7.793  40.837  11.044
59693W        W23450  39.469   9.163  13.951
59694W        W23451  22.162  18.624  11.574
59695W        W23452  35.918   4.449   3.681
59696W        W23453   8.260  29.494  11.454
59697W        W23454  38.065  42.290   0.390
59698W        W23455  18.667  33.427  13.064
59699W        W23456  37.055  34.077  11.483
59700W        W23457  18.791   6.847   4.717
59701W        W23458   9.868   3.426  13.475
59702W        W23459   4.742  22.517   2.235
59703W        W23460  12.770   5.233   1.734
59704W        W23461  17.656  20.758  12.543
59705W        W23462  22.714   9.310  11.501
59706W        W23463  32.004  25.661  11.020
59707W        W23464  23.531  35.104   1.450
59708W        W23465  35.857  13.765   3.364
59709W        W23466  20.715  41.333  14.826
59710W        W23467   3.749  21.680   4.658
59711W        W23468  32.012  36.965  12.895
59712W        W23469  21.259  37.373   5.082
59713W        W23470   9.691   7.801   2.187
59714W        W23471  13.250   9.659  11.416
59715W        W23472  14.604  30.048   2.786
59716W        W23473  23.017   3.920  14.986
59717W        W23474   0.938  24.568   1.241
59718W        W23475  24.543  31.046   3.378
59719W        W23476  13.206  30.562  10.466
59720W        W23477  29.615  36.054   3.843
59721W        W23478   9.301  24.144  13.509
59722W        W23479  34.006  22.093  12.895
59723W        W23480  29.083  43.297  11.060
59724W        W23481   5.411  10.322   3.650
59725W        W23482  43.393   4.793   2.715
59726W        W23483  14.228  19.154   4.275
59727W        W23484  35.373   5.353   3.343
59728W        W23485  29.512  38.506   4.834
59729W        W23486  12.747  39.877   3.661
59730W        W23487   8.379  22.073   4.117
59731W        W23488   9.876  28.442   1.731
59732W        W23489   2.802  43.484  14.427
59733W        W23490  36.002   1.766   3.357
59734W        W23491   3.328  34.407   4.783
59735W        W23492   3.915   0.942   0.313
59736W        W23493  28.449  40.980   3.302
59737W        W23494  15.791  15.634  11.886
59738W        W23495  26.536  33.579   0.478
59739W        W23496  17.307  16.772   0.932
59740W        W23497  32.439   0.261  13.434
59741W        W23498  17.683  32.457  13.318
59742W        W23499  43.989  31.926   3.272
59743W        W23500  28.975  23.647  14.030
59744W        W23501  16.691  31.612  11.529
59745W        W23502  20.077  40.852   3.827
59746W        W23503   4.747  23.045   2.784
59747W        W23504  35.060  31.981  12.873
59748W        W23505  20.147  27.049   3.738
59749W        W23506  16.778  44.768  13.990
59750W        W23507  42.817  10.692  14.929
59751W        W23508  39.448   4.401   2.319
59752W        W23509  26.108  36.922  12.082
59753W        W23510  34.042  29.527   3.171
59754W        W23511  13.130  39.507   0.807
59755W        W23512   4.803   9.310   1.826
59756W        W23513  17.702  15.605  12.558
59757W        W23514  10.671   1.750   3.180
59758W        W23515  16.080  37.954   4.694
59759W        W23516   7.210  29.010   4.743
59760W        W23517  10.275  34.593   1.820
59761W        W23518  12.271  12.755  13.815
59762W        W23519  30.993  41.037   2.187
59763W        W23520   9.229  32.588  12.844
59764W        W23521  16.789  16.777   3.169
59765W        W23522  35.425  17.796   4.318
59766W        W23523   0.766   7.310  11.519
59767W        W23524   4.835  24.670  13.886
59768W        W23525  43.458  35.506  11.123
59769W        W23526  15.310  27.670   4.225
59770W        W23527  15.653  17.607   2.325
59771W        W23528  28.051  36.429  10.617
59772W        W23529   8.888   1.771  14.817
59773W        W23530  19.575  34.388  11.946
59774W        W23531   6.916  14.834   4.786
59775W        W23532  39.951  41.386  14.850
59776W        W23533  26.487  33.423  14.971
59777W        W23534  13.283  34.019   2.259
59778W        W23535  31.119  25.986   2.235
59779W        W23536   8.694  26.617   2.219
59780W        W23537  37.003   2.314   2.676
59781W        W23538  42.873  10.332  13.362
59782W        W23539  17.723   0.976  12.856
59783W        W23540  23.048  44.292  13.978
59784W        W23541   6.880  29.045  13.055
59785W        W23542  32.617  17.292   4.285
59786W        W23543  29.091  41.493   1.406
59787W        W23544  25.707  44.794  11.497
59788W        W23545   2.732  16.236   0.869
59789W        W23546   2.781  36.071   2.850
59790W        W23547   9.735  24.224   0.967
59791W        W23548  15.284  15.754  12.555
59792W        W23549  38.862  36.051   4.231
59793W        W23550  11.682  10.774  14.376
59794W        W23551   7.295  28.186   1.876
59795W        W23552  10.779  23.158  14.515
59796W        W23553  11.214   5.894  13.913
59797W        W23554   4.335  18.223   1.884
59798W        W23555  24.213  12.319  14.963
59799W        W23556  40.929   6.776   4.302
59800W        W23557  33.055  43.296   2.707
59801W        W23558   7.294  44.472   1.428
59802W        W23559  22.055  20.694  12.910
59803W        W23560  31.101   7.396  10.567
59804W        W23561  14.290   6.329   3.237
59805W        W23562  38.531  44.935   2.700
59806W        W23563  10.379   0.743   4.160
59807W        W23564   5.362   2.371   3.701
59808W        W23565  12.658  43.866   5.152
59809W        W23566   5.790  31.587  12.877
59810W        W23567  30.061  36.540   0.373
59811W        W23568  39.330   2.722   3.178
59812W        W23569  43.316   8.758  14.498
59813W        W23570  17.128  35.902   5.154
59814W        W23571   0.781  39.980   1.745
59815W        W23572  26.122   8.860  13.897
59816W        W23573   4.344  25.095  12.347
59817W        W23574  15.593  21.689  13.968
59818W        W23575  24.978  26.061  11.879
59819W        W23576   8.246   6.318   0.270
59820W        W23577  14.707  18.065  12.428
59821W        W23578  26.033  21.739   4.834
59822W        W23579  24.088  15.603   5.212
59823W        W23580  21.646  36.009   0.440
59824W        W23581   1.850  15.240  11.887
59825W        W23582  17.146  44.968  12.518
59826W        W23583   4.709   7.831   0.919
59827W        W23584  35.600  38.453  14.454
59828W        W23585  32.041  39.517  12.012
59829W        W23586  20.700  42.855   2.743
59830W        W23587  12.136  20.575  12.975
59831W        W23588   9.294   7.342  11.964
59832W        W23589   5.333   9.189  11.468
59833W        W23590  35.401  24.663   4.658
59834W        W23591   8.335  20.752  12.368
59835W        W23592   8.806  38.890   9.988
59836W        W23593  27.634   3.777   0.388
59837W        W23594  12.146   3.810   0.243
59838W        W23595  25.077  38.473  13.361
59839W        W23596  41.959  14.672   3.237
59840W        W23597  41.946   8.715   4.658
59841W        W23598  30.151  30.586  13.511
59842W        W23599   2.879  37.552  14.409
59843W        W23600   5.897   5.901  11.124
59844W        W23601   9.283  37.530  12.953
59845W        W23602  27.983  32.141   3.791
59846W        W23603   9.195  22.129   2.790
59847W        W23604  10.382  41.988  13.997
59848W        W23605  41.951  30.925   2.892
59849W        W23606  34.515  41.408  12.076
59850W        W23607  15.695  38.927   3.653
59851W        W23608  11.775  33.012  14.829
59852W        W23609   6.208  16.641  14.338
59853W        W23610  16.594   0.410   1.910
59854W        W23611  21.035   3.931   1.417
59855W        W23612   8.675  25.183  10.530
59856W        W23613  22.527  28.102   1.931
59857W        W23614  18.733  21.577  13.478
59858W        W23615  34.875  30.656  14.477
59859W        W23616  44.898  41.455  13.478
59860W        W23617  34.548  20.107   0.450
59861W        W23618  10.185  30.475   3.646
59862W        W23619  39.486  10.375  14.432
59863W        W23620  22.118  15.599  10.443
59864W        W23621  28.547  12.758   1.324
59865W        W23622  20.052  10.632  14.399
59866W        W23623  40.864   1.857  10.495
59867W        W23624  38.338   9.705  10.530
59868W        W23625  18.624  43.006   4.749
59869W        W23626  12.635  20.206   4.656
59870W        W23627   0.760  30.079  10.969
59871W        W23628  14.313   9.688   0.805
59872W        W23629   0.963  42.464   2.264
59873W        W23630  28.004   0.314  11.496
59874W        W23631  12.203   9.814   1.721
59875W        W23632  42.426  43.332   1.429
59876W        W23633  10.635  11.363   1.790
59877W        W23634  42.385  13.145   2.867
59878W        W23635   3.817  37.045  10.429
59879W        W23636   0.408   2.459  12.846
59880W        W23637  42.951  26.203   3.806
59881W        W23638  34.078   3.251  11.480
59882W        W23639  31.049   2.841  12.450
59883W        W23640  26.492  40.845   4.709
59884W        W23641  28.630   9.253  14.988
59885W        W23642  40.963   1.835   5.116
59886W        W23643  35.447  15.759  11.531
59887W        W23644  37.027  13.651  11.448
59888W        W23645  17.200  40.027   3.381
59889W        W23646  17.641  26.964  11.396
59890W        W23647  43.434  12.332   0.868
59891W        W23648  17.210  17.796  10.957
59892W        W23649  12.766  42.021   3.226
59893W        W23650  38.058  41.501   3.378
59894W        W23651  12.206   8.857   3.733
59895W        W23652  29.491  31.412   0.445
59896W        W23653  29.634  32.979  10.992
59897W        W23654   2.458  43.318  13.504
59898W        W23655  21.194  29.148  11.075
59899W        W23656  33.468  26.665   1.382
59900W        W23657  33.024  16.308  11.492
59901W        W23658  25.157  30.540   4.283
59902W        W23659  25.514   6.301   4.157
59903W        W23660  29.083   2.731  12.386
59904W        W23661  24.587  14.266  11.951
59905W        W23662  36.915   5.783   4.765
59906W        W23663   2.870  13.699  12.041
59907W        W23664   4.712  15.823  14.338
59908W        W23665  26.552  40.846   2.303
59909W        W23666   2.805  19.198  11.936
59910W        W23667  42.452  43.387  11.085
59911W        W23668  35.014  29.504  14.395
59912W        W23669  14.715   8.722   2.385
59913W        W23670  10.194   1.842  14.969
59914W        W23671  18.730   5.359   3.693
59915W        W23672  25.678   6.770   2.859
59916W        W23673  25.035  16.694  12.026
59917W        W23674  37.961   9.350  11.529
59918W        W23675  42.306  30.924   1.260
59919W        W23676  19.640  30.592  13.795
59920W        W23677  41.936   9.715   3.681
59921W        W23678   1.479  33.515   4.762
59922W        W23679  26.025  44.980   1.286
59923W        W23680  29.448  20.618  11.377
59924W        W23681  23.512  43.376   1.359
59925W        W23682  17.237  42.021   0.836
59926W        W23683   6.223  23.134   4.180
59927W        W23684  20.216  12.756  14.415
59928W        W23685  17.124  18.171   4.312
59929W        W23686  29.501   9.344   0.814
59930W        W23687  13.761  29.955  13.957
59931W        W23688  11.746  17.125   2.862
59932W        W23689  29.100  10.189   0.789
59933W        W23690   5.931  22.510  11.479
59934W        W23691  15.216   8.311  12.568
59935W        W23692  41.950  11.701  13.879
59936W        W23693  20.739   3.716   1.829
59937W        W23694  25.174  38.519  10.597
59938W        W23695   2.721  35.918  11.981
59939W        W23696  23.545  26.536  10.574
59940W        W23697   4.276  43.972  10.097
59941W        W23698  36.559   1.265   0.751
59942W        W23699  20.033  39.964  13.894
59943W        W23700  26.025  26.626  11.575
59944W        W23701  20.547  25.567  13.964
59945W        W23702  22.112  19.694  13.460
59946W        W23703  24.615  44.956  11.077
59947W        W23704   2.939   6.761  11.121
59948W        W23705  31.591  41.342  12.509
59949W        W23706   7.350   3.457  11.998
59950W        W23707  15.824  34.581   3.165
59951W        W23708  37.536   6.755   0.307
59952W        W23709  33.583  37.384   1.874
59953W        W23710  14.215   6.242  10.526
59954W        W23711   5.284  29.160   3.297
59955W        W23712  41.460   5.816  10.631
59956W        W23713  32.060  13.816  13.047
59957W        W23714  30.480  39.812   1.438
59958W        W23715  22.674  37.420  11.595
59959W        W23716  19.234  14.775   2.856
59960W        W23717  29.589  17.687  10.588
59961W        W23718  38.016   6.338  11.429
59962W        W23719  15.755  18.115  10.951
59963W        W23720  42.810  16.213   4.331
59964W        W23721  39.995  21.687   3.154
59965W        W23722  43.420  15.794  11.022
59966W        W23723  34.435  31.578  12.074
59967W        W23724  33.010  34.608   0.755
59968W        W23725   7.396  25.549  13.543
59969W        W23726  42.953   3.889  12.549
59970W        W23727  14.728   9.306   4.226
59971W        W23728   0.954  15.810   1.350
59972W        W23729  38.931  14.290  11.002
59973W        W23730  20.633  27.050   3.812
59974W        W23731  12.659   1.341   0.439
59975W        W23732  33.981  26.534  10.043
59976W        W23733  25.711  39.410   1.232
59977W        W23734  38.869  36.055   3.745
59978W        W23735  11.652  30.975   3.673
59979W        W23736   8.356  18.202   0.290
59980W        W23737  24.978   4.909   2.410
59981W        W23738   1.442  25.011  14.811
59982W        W23739   1.267  26.189   3.675
59983W        W23740   8.340  34.031  12.478
59984W        W23741   6.381   6.341   3.762
59985W        W23742  27.167   0.858   1.773
59986W        W23743  42.925   7.833  14.509
59987W        W23744  28.515  35.487  10.913
59988W        W23745  18.206   5.912   0.891
59989W        W23746  30.640  38.914  11.979
59990W        W23747  20.063  27.036   4.758
59991W        W23748  13.291  32.615  12.868
59992W        W23749   8.335  34.904  14.018
59993W        W23750   6.304  11.836  14.920
59994W        W23751   6.348   2.930   3.840
59995W        W23752  11.622  13.278   4.606
59996W        W23753  39.050   1.873  11.979
59997W        W23754   1.453  33.510  13.374
59998W        W23755  13.788  11.260  11.856
59999W        W23756   5.388  22.618   2.781
60000W        W23757  36.973   7.826   4.729
60001W        W23758  34.397  43.493  11.498
60002W        W23759  40.347  32.412  13.006
60003W        W23760  31.592  26.695   2.353
60004W        W23761   6.769  27.946  14.820
60005W        W23762  30.462  39.962   0.393
60006W        W23763  20.535  38.058  14.453
60007W        W23764   1.441  31.560   1.220
60008W        W23765  30.965  43.787   0.298
60009W        W23766  21.739  29.428  13.385
60010W        W23767  25.660  20.590   1.349
60011W        W23768   5.844   3.940  13.958
60012W        W23769  41.801   8.721  12.527
60013W        W23770   3.765  36.022  14.379
60014W        W23771  13.239  33.503   0.265
60015W        W23772  22.676   1.454  10.976
60016W        W23773  42.892  41.974   4.227
60017W        W23774  11.286  38.023  11.602
60018W        W23775  16.221  10.697  10.892
60019W        W23776  29.618   4.344  12.065
60020W        W23777  12.764  15.655   3.315
60021W        W23778  41.482   1.242  13.506
60022W        W23779  13.699   8.864  10.617
60023W        W23780  14.315  18.570  11.125
60024W        W23781  32.910  17.664   4.710
60025W        W23782  36.867   1.364   4.311
60026W        W23783  15.315  21.123   0.798
60027W        W23784  32.102  36.509   1.347
60028W        W23785  36.390   4.919   0.778
60029W        W23786  20.171  44.878   0.440
60030W        W23787  41.308  35.445   2.814
60031W        W23788  14.786  26.170   0.269
60032W        W23789  36.057   4.370  10.095
60033W        W23790  42.527  31.007   2.269
60034W        W23791  39.858  10.240   0.924
60035W        W23792   7.258  41.997  14.929
60036W        W23793  23.184  26.171  13.950
60037W        W23794  35.475   7.754   4.676
60038W        W23795  44.823  43.956   1.270
60039W        W23796  44.950   7.185   3.689
60040W        W23797  14.614  20.114   3.202
60041W        W23798   8.284  26.116  13.516
60042W        W23799   1.826  18.164  14.341
60043W        W23800  37.419  35.872   0.790
60044W        W23801  31.950  18.224   2.322
60045W        W23802  12.194  32.006   1.881
60046W        W23803  38.902  15.771  13.333
60047W        W23804  12.341   5.736  12.969
60048W        W23805  13.285   1.845   2.769
60049W        W23806  27.531  14.272  10.497
60050W        W23807  41.942  24.008   3.752
60051W        W23808   6.763  31.025   3.677
60052W        W23809  13.132  29.534   2.221
60053W        W23810  35.992   3.295  12.030
60054W        W23811  43.501  31.499  14.884
60055W        W23812  15.707  26.570   4.608
60056W        W23813  20.231  25.681  14.802
60057W        W23814  19.621  11.172   4.211
60058W        W23815  36.352  20.202  12.422
60059W        W23816  40.993  24.988   3.828
60060W        W23817   9.827  44.397  14.886
60061W        W23818  17.251  40.884   3.791
60062W        W23819   9.788  25.073   3.170
60063W        W23820  35.460  28.018   0.363
60064W        W23821  29.964  20.731   4.321
60065W        W23822   9.292   9.748   4.777
60066W        W23823  28.016   4.425  11.551
60067W        W23824  25.996  43.810   3.337
60068W        W23825   2.376  43.353   3.321
60069W        W23826  34.389  36.066  14.291
60070W        W23827  32.004  16.210  14.834
60071W        W23828  27.666  14.317   4.796
60072W        W23829   6.700  12.255  10.558
60073W        W23830  29.162   9.362   4.136
60074W        W23831  12.722  20.553   2.754
60075W        W23832  28.036  30.959  11.595
60076W        W23833  44.801  41.906   1.757
60077W        W23834  27.494  21.592   0.942
60078W        W23835   8.186  16.692  10.631
60079W        W23836  11.739   2.832  11.449
60080W        W23837  10.799  14.235  14.027
60081W        W23838   6.388   2.257  10.494
60082W        W23839   5.921   6.861   2.335
60083W        W23840  32.518  40.928   0.250
60084W        W23841   0.792  35.902  13.481
60085W        W23842  31.916  10.227   1.344
60086W        W23843  14.124   1.875  12.085
60087W        W23844  44.990  42.344  10.956
60088W        W23845   9.715   8.703  11.490
60089W        W23846  20.585  32.409  14.931
60090W        W23847  29.086   5.397  10.897
60091W        W23848  32.983  25.657   2.250
60092W        W23849  32.895  41.478   1.261
60093W        W23850  12.257  36.352  12.071
60094W        W23851  25.049  13.800  10.088
60095W        W23852  44.809  26.182   0.276
60096W        W23853  27.460  32.457   3.355
60097W        W23854   8.177  42.811  11.447
60098W        W23855  11.774  19.694  11.074
60099W        W23856   5.213  15.085  10.506
60100W        W23857   3.773  30.037   4.782
60101W        W23858  36.516  35.530  14.844
60102W        W23859  10.812  25.472   3.753
60103W        W23860  33.102  30.458  12.838
60104W        W23861  17.769   8.365  10.641
60105W        W23862  25.620   4.762  10.929
60106W        W23863   1.387  31.627   0.763
60107W        W23864  43.415  41.380  10.526
60108W        W23865  20.746  43.369   4.146
60109W        W23866  11.337  29.529  12.563
60110W        W23867  32.002  16.761   1.912
60111W        W23868  39.885   0.746  11.595
60112W        W23869  31.146   1.955   2.901
60113W        W23870  20.186   4.919   2.737
60114W        W23871  22.226  31.152   3.366
60115W        W23872   9.363  34.118   4.346
60116W        W23873  25.118  44.371   5.305
60117W        W23874  26.629  31.988   3.836
60118W        W23875  38.426   4.875   4.253
60119W        W23876  28.113  31.414   1.266
60120W        W23877  14.295   6.919   3.722
60121W        W23878  37.992  31.565   2.844
60122W        W23879  17.277   0.442   3.380
60123W        W23880  39.487  23.988  10.465
60124W        W23881  33.963  33.403   3.868
60125W        W23882  36.960   4.922  11.018
60126W        W23883  20.656  39.939  14.414
60127W        W23884  28.135  27.625  14.346
60128W        W23885  38.519  38.540  10.425
60129W        W23886  41.536  34.935   1.871
60130W        W23887  44.446  10.336  13.984
60131W        W23888  24.656  33.585   0.908
60132W        W23889  11.160  21.560  10.971
60133W        W23890  30.084  43.380   3.368
60134W        W23891  25.507  22.041  13.369
60135W        W23892  36.436  40.513  11.866
60136W        W23893   6.733   4.736  14.854
60137W        W23894  13.608  25.205  10.469
60138W        W23895  33.385   2.243   3.242
60139W        W23896  33.083  34.938   0.947
60140W        W23897  41.412  34.556   2.782
60141W        W23898  22.167  26.458   4.347
60142W        W23899  35.987  42.381   4.711
60143W        W23900  11.742  11.333  14.864
60144W        W23901   7.180  34.411  14.457
60145W        W23902  17.718  11.258  14.392
60146W        W23903  18.762  16.725   0.936
60147W        W23904  30.134  31.468   1.895
60148W        W23905  11.195   1.270   3.353
60149W        W23906  14.796  11.345   3.633
60150W        W23907  30.593  35.531   4.128
60151W        W23908  38.998  42.884   0.822
60152W        W23909  32.077  41.506   4.293
60153W        W23910   5.310   4.308  12.885
60154W        W23911  21.136  26.539   1.426
60155W        W23912  37.937  31.109   1.930
60156W        W23913  35.485   0.336   4.763
60157W        W23914  11.201  38.325  10.913
60158W        W23915  36.988   0.806   0.860
60159W        W23916   8.303  36.090   1.451
60160W        W23917  25.511  38.010   0.476
60161W        W23918  40.800  19.633  10.455
60162W        W23919  30.499  22.668   4.823
60163W        W23920  20.038  34.402  12.073
60164W        W23921  43.929  30.928  10.437
60165W        W23922  34.040  30.985   1.364
60166W        W23923  37.008   1.874   0.920
60167W        W23924  22.137  41.978   3.849
60168W        W23925   7.175   7.280   4.611
60169W        W23926  12.194  38.918  11.549
60170W        W23927  42.798  31.525   2.837
60171W        W23928  33.129  32.469   1.724
60172W        W23929  10.854  30.989  12.962
60173W        W23930  29.061   2.815   1.905
60174W        W23931  35.900  33.412   1.339
60175W        W23932  19.284   4.395   2.203
60176W        W23933  26.150  18.692  14.981
60177W        W23934  38.935  34.550   0.738
60178W        W23935  29.167  22.013  11.378
60179W        W23936  15.761  14.302  10.944
60180W        W23937  44.386  13.727   4.330
60181W        W23938  29.554   3.848   2.729
60182W        W23939  12.761   7.389   4.835
60183W        W23940  25.090   5.405  12.035
60184W        W23941  29.455  23.159  14.429
60185W        W23942   6.427   3.819  14.336
60186W        W23943   1.315  44.335   2.401
60187W        W23944  14.202   0.785   0.411
60188W        W23945  21.094   1.829  10.470
60189W        W23946  43.809  34.040  12.031
60190W        W23947  44.311  15.650   4.799
60191W        W23948   4.892  28.022  13.392
60192W        W23949  39.848  43.431  10.541
60193W        W23950   4.240  35.981   3.822
60194W        W23951   8.280   5.778  11.080
60195W        W23952  32.631  36.499   1.283
60196W        W23953  14.193   6.802  10.536
60197W        W23954  43.784  30.547  11.009
60198W        W23955   4.739  12.361  10.584
60199W        W23956  25.570  38.043   4.214
60200W        W23957   7.353   5.281  11.887
60201W        W23958  24.542  25.564   9.948
60202W        W23959  38.985  20.073  13.431
60203W        W23960  12.767   8.258  12.991
60204W        W23961  39.533  16.144   0.440
60205W        W23962  22.137  42.368   4.774
60206W        W23963  16.269  39.546  10.443
60207W        W23964  19.621  26.677  10.407
60208W        W23965  25.140  30.449  14.274
60209W        W23966   0.912  15.307   4.185
60210W        W23967  16.220  12.699   5.113
60211W        W23968  24.574   5.201   3.634
60212W        W23969  20.640   7.242  10.555
60213W        W23970  25.637  15.244   4.144
60214W        W23971  27.509  40.331  12.903
60215W        W23972  12.232  12.251  12.400
60216W        W23973  32.459  26.983   1.447
60217W        W23974  13.650  15.129  10.469
60218W        W23975  41.467  24.146  12.021
60219W        W23976  10.639  30.103  10.888
60220W        W23977  23.120   4.338  14.302
60221W        W23978  17.135   1.973  10.516
60222W        W23979  40.355  10.839  14.413
60223W        W23980  27.945  34.023   1.336
60224W        W23981  17.134  15.107  10.140
60225W        W23982  27.957  33.558   1.275
60226W        W23983  12.690  44.767   1.752
60227W        W23984   1.404  29.958  10.558
60228W        W23985  10.298  10.353   1.285
60229W        W23986  23.144   7.692   2.890
60230W        W23987   4.396   1.786   4.302
60231W        W23988   3.757  43.886   3.791
60232W        W23989  31.063  17.780   2.338
60233W        W23990  19.243  35.546  11.124
60234W        W23991  32.620  22.508   0.826
60235W        W23992  12.815  43.807  12.969
60236W        W23993   4.397  44.386   1.742
60237W        W23994  28.015  29.932  13.962
60238W        W23995   2.337   1.247   4.608
60239W        W23996  29.657   2.725  14.460
60240W        W23997  11.165  38.895  14.515
60241W        W23998  34.543  11.633   2.272
60242W        W23999  44.455  35.364   3.842
60243W        W24000  18.127  37.836  11.002
60244W        W24001  40.866  11.854   0.777
60245W        W24002  11.758  18.155   3.633
60246W        W24003  34.010  11.323  11.999
60247W        W24004  41.880  35.998  11.482
60248W        W24005  30.944  26.545  11.536
60249W        W24006  14.190  21.611   0.877
60250W        W24007   8.392   9.651   0.853
60251W        W24008  10.772  40.916  11.446
60252W        W24009  32.632  44.497  14.014
60253W        W24010  31.557  21.105  10.414
60254W        W24011  13.132   0.267   1.414
60255W        W24012  19.640  42.462  14.805
60256W        W24013  19.051  13.196   5.248
60257W        W24014  35.852  10.171   2.681
60258W        W24015  31.460   2.741  10.138
60259W        W24016  35.475  25.603   0.801
60260W        W24017  16.279  34.063  14.438
60261W        W24018   3.861  24.133  14.915
60262W        W24019  37.022   0.462  13.311
60263W        W24020  39.859  41.358  13.487
60264W        W24021  20.566  40.812   1.213
60265W        W24022  31.126  44.870  11.967
60266W        W24023   0.966  20.240   0.727
60267W        W24024  42.974  36.387  10.956
60268W        W24025   6.805  14.722   2.300
60269W        W24026  19.726  14.711  12.971
60270W        W24027  13.822  12.720  14.310
60271W        W24028  20.621  43.308   3.690
60272W        W24029  41.497  21.702   1.839
60273W        W24030  44.433  18.609  13.020
60274W        W24031   5.264  11.157  14.290
60275W        W24032  32.962  23.633  13.900
60276W        W24033  19.753  25.020   3.355
60277W        W24034   6.298  22.627   4.750
60278W        W24035  15.792  34.420   1.365
60279W        W24036  20.756  41.326  13.812
60280W        W24037  20.558  39.988   1.290
60281W        W24038  38.826  12.710   3.264
60282W        W24039  10.342  27.047   4.756
60283W        W24040   5.385  12.321  11.409
60284W        W24041   7.728  42.952   1.275
60285W        W24042  36.549  20.038  13.064
60286W        W24043  22.024  38.407   0.266
60287W        W24044  24.218   5.350   3.718
60288W        W24045  19.755  40.042   1.351
60289W        W24046  20.576  13.785  14.842
60290W        W24047   0.930   9.165  11.062
60291W        W24048  11.222  22.536  14.770
60292W        W24049  25.580  16.612  14.337
60293W        W24050  17.607  29.941  10.556
60294W        W24051  28.943   2.451  14.400
60295W        W24052  19.067  42.010  12.905
60296W        W24053  24.069   6.901   2.416
60297W        W24054  38.373  11.799   4.199
60298W        W24055   9.198  12.246  10.627
60299W        W24056  38.982  36.470   1.706
60300W        W24057   5.814  42.776  10.056
60301W        W24058  39.430  31.589   2.775
60302W        W24059  15.138  32.995  12.024
60303W        W24060   8.700  20.105   0.354
60304W        W24061  43.503  15.313  13.808
60305W        W24062  32.473  21.685  12.375
60306W        W24063  37.995   7.715  11.862
60307W        W24064  14.724   6.407   1.358
60308W        W24065  17.679  43.483   4.834
60309W        W24066  22.114   9.373   0.392
60310W        W24067  37.921  43.923   0.878
60311W        W24068  40.308  12.341  10.925
60312W        W24069  38.893  30.611  13.321
60313W        W24070   8.254  27.475   0.459
60314W        W24071  40.804  20.065   0.803
60315W        W24072   7.720  30.146   4.277
60316W        W24073  11.814  28.952  14.969
60317W        W24074  37.019  12.248   2.348
60318W        W24075  28.526  43.021   0.307
60319W        W24076   7.403   6.210   1.762
60320W        W24077  27.147  17.095   2.750
60321W        W24078  40.316   6.779   2.201
60322W        W24079  28.640   1.344  11.972
60323W        W24080  16.096   4.248  11.569
60324W        W24081  24.977  19.601   1.425
60325W        W24082  10.175  15.084  11.954
60326W        W24083  33.587  23.094   4.305
60327W        W24084  10.306  32.499   4.688
60328W        W24085  39.405   8.670  13.883
60329W        W24086  43.455  27.012   3.223
60330W        W24087  41.386   2.877  11.512
60331W        W24088  39.982  26.480  11.929
60332W        W24089  24.020  25.179  11.043
60333W        W24090  26.589  19.643  10.971
60334W        W24091   7.308  14.782  11.500
60335W        W24092   6.319  25.710  13.536
60336W        W24093  44.911  26.043  13.061
60337W        W24094  38.351   1.417   2.797
60338W        W24095   5.309   9.744  14.413
60339W        W24096  30.656  10.316  12.494
60340W        W24097  31.426  33.953   4.346
60341W        W24098  33.580  14.220   3.828
60342W        W24099   7.308  35.464  12.530
60343W        W24100   6.688  30.111   2.881
60344W        W24101  11.327  24.020   0.407
60345W        W24102   0.289  27.177   3.674
60346W        W24103  44.874  40.538  14.319
60347W        W24104   3.313   9.253   1.709
60348W        W24105  17.208   1.343  10.987
60349W        W24106   9.260  21.019   3.333
60350W        W24107  18.728  27.669  12.886
60351W        W24108  42.983  26.128   4.120
60352W        W24109  25.184   9.717  13.469
60353W        W24110   3.734  34.026   4.750
60354W        W24111   4.352  40.479   4.793
60355W        W24112  19.200  22.118  10.933
60356W        W24113  22.110  43.990  14.830
60357W        W24114   4.389  33.060   1.801
60358W        W24115   7.822  41.827   3.806
60359W        W24116  19.553  16.312  14.919
60360W        W24117  31.464  43.362  12.509
60361W        W24118  10.338   5.323   2.338
60362W        W24119  37.873   6.318   4.197
60363W        W24120   1.363  26.136  12.543
60364W        W24121  42.921  41.294  12.880
60365W        W24122  43.433  16.278  11.387
60366W        W24123  10.306  20.670   1.409
60367W        W24124   4.908   4.823  14.302
60368W        W24125   3.943  27.105  12.541
60369W        W24126  40.475  43.967  11.408
60370W        W24127  31.100  43.804   3.161
60371W        W24128   1.840  15.165   1.433
60372W        W24129  12.636  36.395   3.244
60373W        W24130   4.269  13.281   3.289
60374W        W24131   6.195  41.344   2.796
60375W        W24132  25.567  11.327   0.827
60376W        W24133  13.764   6.772  11.980
60377W        W24134   6.410  39.809   5.189
60378W        W24135   7.812  38.368   0.870
60379W        W24136  26.080  12.760   1.786
60380W        W24137  24.602  41.530   2.233
60381W        W24138  17.089  43.511  13.890
60382W        W24139  29.517  15.726  14.381
60383W        W24140   1.828  17.710   2.789
60384W        W24141  16.225   8.683  12.945
60385W        W24142  37.945   9.191  12.939
60386W        W24143  25.552   6.319   9.949
60387W        W24144   9.880   5.388  14.944
60388W        W24145  18.229  23.708   1.227
60389W        W24146  41.867  41.818   4.764
60390W        W24147  10.245  25.005   4.318
60391W        W24148  19.268  43.474   3.279
60392W        W24149   3.292   6.896  12.938
60393W        W24150   4.303  15.694   3.863
60394W        W24151  33.391  26.958   1.705
60395W        W24152  30.436  20.544  13.445
60396W        W24153  38.911  15.233  13.447
60397W        W24154  44.978  10.786  13.535
60398W        W24155  44.429  37.832  12.385
60399W        W24156   4.262   1.819   0.966
60400W        W24157  33.960  13.661  12.844
60401W        W24158  22.583  12.287   0.254
60402W        W24159  14.262  24.521   0.751
60403W        W24160  21.517  35.917   0.932
60404W        W24161  25.641  39.038   2.398
60405W        W24162  21.519  35.862  10.917
60406W        W24163  10.324  30.548  12.952
60407W        W24164   2.942  19.753   1.891
60408W        W24165  26.645  21.697   2.189
60409W        W24166  30.152  31.627   0.328
60410W        W24167  38.924  29.017   4.788
60411W        W24168  40.442  19.242  14.789
60412W        W24169   6.192  19.160   2.745
60413W        W24170   1.784   3.910   2.201
60414W        W24171   8.886  20.229  14.926
60415W        W24172  24.181   1.822   0.454
60416W        W24173   2.859  44.484  11.934
60417W        W24174  21.213  26.001   1.387
60418W        W24175  24.226  40.832  13.000
60419W        W24176  26.641  13.661   0.471
60420W        W24177  22.167   9.849   3.170
60421W        W24178  40.352  39.953  14.900
60422W        W24179   0.284  22.090  12.036
60423W        W24180   8.247   4.386   4.742
60424W        W24181  10.812  22.508   0.909
60425W        W24182  31.102  26.005  14.376
60426W        W24183   7.888  36.025  13.816
60427W        W24184   6.228  18.765  13.319
60428W        W24185  16.653  39.458  13.429
60429W        W24186   3.245  42.027   2.407
60430W        W24187  44.303  31.516  12.450
60431W        W24188   7.770  25.589   1.865
60432W        W24189  33.944  39.428  12.079
60433W        W24190  38.880  18.286  10.581
60434W        W24191   6.260   8.879  10.105
60435W        W24192   2.938  34.416  12.420
60436W        W24193  44.819  29.985  11.480
60437W        W24194  11.168  18.733  10.520
60438W        W24195  24.495  26.629   4.762
60439W        W24196  22.146   7.220  12.996
60440W        W24197  25.192   3.295  13.318
60441W        W24198  27.118   8.885   2.374
60442W        W24199  29.483  40.834   3.373
60443W        W24200  32.959  44.414  13.954
60444W        W24201   9.737   4.773   1.854
60445W        W24202  40.024  37.889   0.790
60446W        W24203  22.050   9.667  10.936
60447W        W24204  39.870  25.174   4.748
60448W        W24205  11.661  40.835   1.323
60449W        W24206  19.585  41.376   4.597
60450W        W24207  14.690  14.677  12.565
60451W        W24208  42.006  21.056   4.661
60452W        W24209  27.941  25.495   0.271
60453W        W24210  43.307   6.216  11.924
60454W        W24211  29.669   2.764  11.098
60455W        W24212  38.887  29.577   5.248
60456W        W24213  11.849  15.103   0.738
60457W        W24214  35.062  44.398   2.671
60458W        W24215  35.952  44.860  13.536
60459W        W24216  24.001  28.461  12.089
60460W        W24217  16.746  12.618   1.776
60461W        W24218  19.606   5.279  13.919
60462W        W24219  20.695  42.968   3.732
60463W        W24220   9.325  44.389  14.376
60464W        W24221   5.816  35.483   3.167
60465W        W24222   3.876  26.053  12.466
60466W        W24223  25.538   6.842   0.316
60467W        W24224  42.407  20.756  11.531
60468W        W24225  17.079   0.808   5.095
60469W        W24226  38.355  41.369   0.457
60470W        W24227  37.943  29.492   2.382
60471W        W24228   7.329  12.241   2.209
60472W        W24229  44.910  31.549  12.539
60473W        W24230  28.474  42.808   4.665
60474W        W24231  43.925  26.573  10.528
60475W        W24232  22.028  28.074  10.989
60476W        W24233  44.372  19.168   3.667
60477W        W24234  22.574  33.437   1.889
60478W        W24235  11.151  15.238  10.993
60479W        W24236  18.556  12.727  11.899
60480W        W24237  38.860   6.725   2.326
60481W        W24238   9.867  42.412  12.522
60482W        W24239  11.218  20.160   3.727
60483W        W24240  43.855  29.027   4.127
60484W        W24241  35.359  15.142  12.370
60485W        W24242   7.244  17.633  13.407
60486W        W24243  25.138  13.718  12.051
60487W        W24244  24.723  24.105  12.044
60488W        W24245  11.810  10.708  10.564
60489W        W24246  18.703  38.015   1.270
60490W        W24247  42.021  28.457  12.341
60491W        W24248  17.201  23.718   3.192
60492W        W24249  41.373  24.646   0.920
60493W        W24250  10.817   6.772   1.699
60494W        W24251  38.364   4.779  14.777
60495W        W24252  43.404   2.434   2.820
60496W        W24253   8.396   3.793  14.305
60497W        W24254  18.111  15.128  12.909
60498W        W24255  14.149   5.341   1.762
60499W        W24256   6.255  16.712  12.016
60500W        W24257  10.641  10.727  11.397
60501W        W24258   4.213   4.359  11.408
60502W        W24259  35.916  21.060  10.914
60503W        W24260  27.133  24.051   3.230
60504W        W24261  11.355   9.191   4.259
60505W        W24262  17.103  19.698  13.453
60506W        W24263  11.669  23.570  13.963
60507W        W24264  12.833  15.229  14.444
60508W        W24265  14.164  16.798   3.313
60509W        W24266  34.873  21.166  14.443
60510W        W24267  42.974  39.479   1.219
60511W        W24268  41.920  43.276  10.472
60512W        W24269  22.538   0.325   1.886
60513W        W24270  41.336  13.724   4.190
60514W        W24271  24.539   0.904   0.310
60515W        W24272   9.699  32.577   1.249
60516W        W24273  29.665  37.947  10.486
60517W        W24274  19.228   2.428  14.321
60518W        W24275   8.181  42.342  14.784
60519W        W24276   1.769  28.457  12.422
60520W        W24277  44.455  35.092  11.963
60521W        W24278  35.527  16.632   0.402
60522W        W24279  32.069  11.324  12.559
60523W        W24280  20.596  33.519   2.204
60524W        W24281  41.522  20.072   4.686
60525W        W24282  32.915  25.508   0.829
60526W        W24283  39.409  26.651   2.245
60527W        W24284  39.952   9.664   2.181
60528W        W24285  30.636  32.102  14.284
60529W        W24286  16.639  19.609  12.940
60530W        W24287  37.845  35.369  10.525
60531W        W24288  34.538  42.448  12.033
60532W        W24289  39.538  29.542  13.795
60533W        W24290  39.391  15.198   4.174
60534W        W24291  21.107  11.165   3.731
60535W        W24292  13.618   8.711  14.798
60536W        W24293  20.031   4.935   0.481
60537W        W24294   1.475  17.734   3.280
60538W        W24295  26.503  17.800   9.535
60539W        W24296  10.686  26.515  14.983
60540W        W24297  24.524   4.911  13.975
60541W        W24298  14.123  14.777  11.420
60542W        W24299  30.003  38.965   2.802
60543W        W24300  39.395  31.918  13.063
60544W        W24301   7.669  15.297  10.938
60545W        W24302   7.758  11.859  14.274
60546W        W24303  13.820   3.444  12.452
60547W        W24304  41.951   4.844   1.401
60548W        W24305  43.005  35.893   2.364
60549W        W24306  30.926  40.934   3.276
60550W        W24307  25.580  18.164  13.915
60551W        W24308  23.076  25.980   3.713
60552W        W24309  15.579  44.917  14.374
60553W        W24310  36.404  19.196   4.814
60554W        W24311  11.202  33.613  11.606
60555W        W24312  18.718  12.772   4.671
60556W        W24313  19.540  25.977   0.790
60557W        W24314  17.228  33.131   0.250
60558W        W24315  17.695  25.067   4.216
60559W        W24316  40.011  33.617   0.933
60560W        W24317   1.387   5.815  11.927
60561W        W24318  24.123  24.094  14.969
60562W        W24319  38.565  39.495   1.221
60563W        W24320  25.116  32.963  14.989
60564W        W24321   7.207   6.227  14.814
60565W        W24322   1.861  41.517  11.587
60566W        W24323  21.130  41.400  13.877
60567W        W24324  34.440  33.534   0.332
60568W        W24325  10.782  28.482   2.295
60569W        W24326   3.900  22.200   2.188
60570W        W24327  39.483  19.677  11.960
60571W        W24328   0.439  20.655  12.999
60572W        W24329  17.601  16.593   4.775
60573W        W24330  44.450  43.898   0.470
60574W        W24331  42.922   6.892  13.399
60575W        W24332  21.024   1.253  13.805
60576W        W24333  26.162  30.427   2.214
60577W        W24334   8.186  17.640  10.928
60578W        W24335  12.639  35.474  13.512
60579W        W24336  37.915  17.239  12.544
60580W        W24337   6.894  10.669  11.497
60581W        W24338  33.625  22.731   0.815
60582W        W24339  41.976  31.446   1.705
60583W        W24340  10.811  30.441  10.568
60584W        W24341  32.898  32.042   4.636
60585W        W24342  10.728  14.158   4.724
60586W        W24343  11.845  22.054  12.512
60587W        W24344  36.545  10.364  12.495
60588W        W24345  18.650  39.409   1.262
60589W        W24346  39.314  25.695   3.227
60590W        W24347  34.577   2.269  13.019
60591W        W24348   0.960   5.838  13.372
60592W        W24349   9.835  24.139   0.296
60593W        W24350  36.422  21.656  14.905
60594W        W24351   5.363   7.172  12.398
60595W        W24352  40.434  33.047  13.810
60596W        W24353  38.483  41.880  11.511
60597W        W24354  42.423   5.866  14.844
60598W        W24355  10.239  41.897   4.140
60599W        W24356  30.149  15.233   2.832
60600W        W24357  26.951  19.723   1.296
60601W        W24358  39.818  13.803   3.859
60602W        W24359  13.670  32.467   0.383
60603W        W24360  29.938  18.081   0.740
60604W        W24361   1.799  11.315  11.901
60605W        W24362  13.754  24.659  12.388
60606W        W24363  33.064  41.305  10.986
60607W        W24364  10.322   6.808   2.692
60608W        W24365  26.518  21.249  10.922
60609W        W24366   2.827  44.426   4.638
60610W        W24367  41.798   1.919   5.170
60611W        W24368   6.230   8.748   5.226
60612W        W24369  14.193  42.817  10.983
60613W        W24370  14.238   3.316   3.312
60614W        W24371  10.201  10.788  11.104
60615W        W24372  17.658   7.278   3.768
60616W        W24373  44.364   6.909   4.677
60617W        W24374  17.733  23.188   0.334
60618W        W24375  36.923   4.347   2.393
60619W        W24376  39.887  37.881   3.864
60620W        W24377   7.351  38.066  14.484
60621W        W24378   4.291  42.355   2.386
60622W        W24379   0.294  18.696  13.037
60623W        W24380  32.422  13.138   0.882
60624W        W24381  32.557  41.361  11.560
60625W        W24382  33.096  37.038   2.798
60626W        W24383  14.317  32.631   2.184
60627W        W24384  20.614  28.107  11.883
60628W        W24385   1.341   2.768   4.287
60629W        W24386  37.349   7.414  13.509
60630W        W24387   4.212  21.593  13.043
60631W        W24388  27.591  32.486  13.981
60632W        W24389  27.600  10.768   1.226
60633W        W24390  42.979  17.681  12.497
60634W        W24391  35.079  10.639  13.312
60635W        W24392  11.811   7.836   0.902
60636W        W24393  32.458  21.251  11.401
60637W        W24394  21.633  36.073  13.809
60638W        W24395  10.847   7.368   2.767
60639W        W24396  11.241  10.138   4.666
60640W        W24397   1.370  35.565   4.730
60641W        W24398  12.316  19.152   1.706
60642W        W24399  10.722  33.972   2.803
60643W        W24400   1.968  40.017  11.464
60644W        W24401  31.034   0.327   1.401
60645W        W24402  21.255  17.616  13.329
60646W        W24403  17.557   4.929  12.063
60647W        W24404  44.397  37.488  13.457
60648W        W24405  13.178  25.970  12.519
60649W        W24406  18.719  18.212   9.956
60650W        W24407   3.860  12.288  10.944
60651W        W24408  21.219  42.319   2.705
60652W        W24409   7.413  21.090   1.700
60653W        W24410   1.398  29.131   0.943
60654W        W24411   6.372  38.553  13.541
60655W        W24412  32.543  10.877  13.801
60656W        W24413  24.149  36.070   2.877
60657W        W24414  10.866  26.622  13.451
60658W        W24415  11.845  42.422  13.396
60659W        W24416   7.188  22.027   2.811
60660W        W24417  26.968  39.892   1.722
60661W        W24418  33.913  29.668   5.156
60662W        W24419   1.966   7.220   4.696
60663W        W24420  43.405  15.590   4.804
60664W        W24421  43.013  29.041   9.970
60665W        W24422  25.544  20.042   3.384
60666W        W24423   8.657  24.642   1.396
60667W        W24424  21.183  36.486   3.865
60668W        W24425  25.970  28.171  14.456
60669W        W24426   5.195  11.840   2.203
60670W        W24427   7.846  15.727  11.093
60671W        W24428   0.865  17.065   4.624
60672W        W24429   7.713   4.337   3.362
60673W        W24430  33.924  15.816   1.744
60674W        W24431  12.654   0.742  11.953
60675W        W24432  38.389  38.429   3.637
60676W        W24433  31.011  22.235   0.727
60677W        W24434  25.123  31.991  13.982
60678W        W24435   7.717  20.652   3.777
60679W        W24436  26.504  10.292  12.492
60680W        W24437  34.582  22.578  14.481
60681W        W24438  41.985  40.351  14.965
60682W        W24439   9.333   1.970   1.712
60683W        W24440  22.548  39.416  14.818
60684W        W24441  24.199  10.869  11.066
60685W        W24442  21.560  17.744  10.639
60686W        W24443  36.928  40.476  11.382
60687W        W24444  32.075  17.700   3.645
60688W        W24445  34.937  34.075   0.348
60689W        W24446  40.445  37.491  14.928
60690W        W24447   7.176  36.466   4.315
60691W        W24448   6.877   1.762   4.826
60692W        W24449   1.384   7.697   4.283
60693W        W24450   7.214  31.987  13.932
60694W        W24451  21.050  38.820   4.717
60695W        W24452  14.685  28.626   0.827
60696W        W24453  33.523   5.288   9.920
60697W        W24454  31.594  30.064  11.864
60698W        W24455   9.201  30.651   1.720
60699W        W24456   5.705  16.282   0.966
60700W        W24457  21.100  11.657  14.442
60701W        W24458  18.112   7.751  14.350
60702W        W24459   5.378  31.642  13.502
60703W        W24460  14.669  26.105  14.491
60704W        W24461  37.416  23.553  11.897
60705W        W24462   2.358  30.162   3.676
60706W        W24463   5.314  15.178  13.366
60707W        W24464   7.686  42.832  14.357
60708W        W24465  26.639  25.692   1.877
60709W        W24466  28.469  22.139   1.358
60710W        W24467  27.647   4.831   3.663
60711W        W24468   1.472  36.906  14.836
60712W        W24469   6.366   8.696  10.475
60713W        W24470  43.414  43.323   4.625
60714W        W24471  39.002  18.103   1.858
60715W        W24472  21.707  31.607   3.645
60716W        W24473  14.623  43.281   4.704
60717W        W24474  12.661  18.270  11.604
60718W        W24475  16.195  14.699  14.477
60719W        W24476  34.427  11.223   0.737
60720W        W24477  33.570  27.657  13.797
60721W        W24478  40.942  16.618   4.330
60722W        W24479  10.695  30.982   1.394
60723W        W24480  21.078   2.230   0.325
60724W        W24481  21.123   4.870   3.860
60725W        W24482  19.172  25.148   1.876
60726W        W24483  33.486   2.384  11.013
60727W        W24484  20.219   6.411   1.297
60728W        W24485  15.803  37.966  14.815
60729W        W24486  17.198  29.651   0.270
60730W        W24487  22.179  34.394   1.327
60731W        W24488  42.332  40.410   2.317
60732W        W24489  36.902   3.350   4.795
60733W        W24490   0.408  44.829   2.771
60734W        W24491  18.729   5.820   4.667
60735W        W24492   6.683  43.805   3.831
60736W        W24493  30.938   2.401  13.943
60737W        W24494  30.458  35.984   3.822
60738W        W24495  15.742  28.959  14.020
60739W        W24496  19.633  29.580   0.313
60740W        W24497   6.283  20.044   4.798
60741W        W24498   0.401  32.045   2.824
60742W        W24499  18.297  37.482  13.825
60743W        W24500  15.789  23.507   2.275
60744W        W24501  35.916  34.580  14.364
60745W        W24502  19.075  33.968  14.413
60746W        W24503  43.949  28.592  13.354
60747W        W24504  39.361   1.816   2.882
60748W        W24505  14.708  28.186   3.674
60749W        W24506   3.738  20.103  13.424
60750W        W24507   7.911  35.494  11.481
60751W        W24508   4.425  18.061   0.954
60752W        W24509  41.506  30.653   0.470
60753W        W24510  32.569   4.286   2.677
60754W        W24511  17.133  24.715   1.859
60755W        W24512  14.602   5.833  13.448
60756W        W24513  22.007   1.391  12.504
60757W        W24514  37.874  43.017   0.773
60758W        W24515  26.079   3.377   0.792
60759W        W24516  13.640  28.588   0.423
60760W        W24517  30.619   2.261   3.720
60761W        W24518  23.641   1.734   0.812
60762W        W24519  37.929  28.457   0.345
60763W        W24520   2.440  27.578  12.953
60764W        W24521  15.296  38.461  14.936
60765W        W24522   6.304  27.479   3.273
60766W        W24523   2.373  13.693  11.020
60767W        W24524   6.204  13.242   5.184
60768W        W24525  18.276  34.605  14.357
60769W        W24526  10.331  42.979  10.972
60770W        W24527  18.769  26.651   5.090
60771W        W24528  10.314  23.684  14.832
60772W        W24529  27.650  25.500  13.911
60773W        W24530   1.242  36.415  12.973
60774W        W24531  33.428  13.638   4.699
60775W        W24532  44.920  13.123   2.312
60776W        W24533  41.909  17.716  11.919
60777W        W24534  18.656   0.791  13.007
60778W        W24535  35.567  23.107   0.286
60779W        W24536   4.761  31.591  13.995
60780W        W24537  17.676   2.347  14.026
60781W        W24538   3.771  41.931  13.402
60782W        W24539   4.327  18.260  11.531
60783W        W24540  21.259  17.156   1.732
60784W        W24541   5.275  34.370  11.964
60785W        W24542   7.268  29.630  12.378
60786W        W24543  36.914  42.030   2.890
60787W        W24544  40.452  36.494   3.346
60788W        W24545   3.374  40.404  11.858
60789W        W24546   0.448  41.033  13.852
60790W        W24547  16.085   5.862  14.429
60791W        W24548  18.571  40.425   0.768
60792W        W24549  35.027  41.475   3.298
60793W        W24550  38.890   5.815   3.207
60794W        W24551   9.775   7.262   2.345
60795W        W24552   3.782  37.842  13.803
60796W        W24553  29.150  40.881   1.914
60797W        W24554   7.243  32.988  10.989
60798W        W24555  30.494   9.252   3.265
60799W        W24556  14.247  43.818  13.893
60800W        W24557  26.639  20.227   2.256
60801W        W24558  13.195  18.683   4.649
60802W        W24559  38.972  42.861   2.278
60803W        W24560   0.405  24.530   4.708
60804W        W24561  21.688   0.955  12.378
60805W        W24562   3.220   0.392   1.215
60806W        W24563  27.967  38.883   2.886
60807W        W24564  16.171   3.317  12.955
60808W        W24565  18.735  13.166  12.344
60809W        W24566  24.667   2.910  14.982
60810W        W24567  44.865  35.367   1.904
60811W        W24568  22.080  31.620   2.290
60812W        W24569  40.952   6.892  14.869
60813W        W24570   1.946  34.018   3.785
60814W        W24571  12.358   2.441  13.342
60815W        W24572  32.048  10.723  14.859
60816W        W24573  11.856  16.582  12.408
60817W        W24574  21.240  22.227  10.482
60818W        W24575  25.594   5.403  12.864
60819W        W24576  17.666  17.636   1.346
60820W        W24577  28.121  11.857   1.443
60821W        W24578   9.354  14.162   2.765
60822W        W24579  20.233  13.292   0.834
60823W        W24580  15.093  14.648  13.903
60824W        W24581  38.500  10.777   3.156
60825W        W24582  29.654  26.989   0.802
60826W        W24583   5.304   5.204   4.675
60827W        W24584  16.769   5.221  11.532
60828W        W24585  12.315   5.334  13.792
60829W        W24586   8.761  27.511  12.855
60830W        W24587   4.722  30.077   1.309
60831W        W24588   8.226  44.310   0.790
60832W        W24589  31.117   5.706   4.752
60833W        W24590  26.501  37.530   0.792
60834W        W24591  17.245  34.586   1.842
60835W        W24592  26.477  41.023   2.782
60836W        W24593  42.814   2.756   2.818
60837W        W24594  22.556   0.335   3.240
60838W        W24595  24.608  37.438   2.189
60839W        W24596  14.725  10.360   9.985
60840W        W24597   7.822  12.270   1.265
60841W        W24598  40.809   8.767  13.792
60842W        W24599  28.517  34.581   2.191
60843W        W24600  31.567  27.151   2.408
60844W        W24601  32.452  22.536   1.407
60845W        W24602  17.700  13.675  14.829
60846W        W24603  34.999  43.802   4.830
60847W        W24604   0.319  30.111   1.211
60848W        W24605   7.192  31.428   0.941
60849W        W24606  34.458  15.636  12.440
60850W        W24607  34.076  21.603  10.958
60851W        W24608  36.501  43.962  14.960
60852W        W24609  23.525  33.029  10.448
60853W        W24610   7.909  13.809  11.126
60854W        W24611  40.983  21.250   1.931
60855W        W24612  39.890  40.525  13.375
60856W        W24613  41.375  41.885  13.344
60857W        W24614  30.492   9.302   2.399
60858W        W24615  43.015   5.914  11.019
60859W        W24616  15.579  14.252  11.987
60860W        W24617  21.730   1.318  14.950
60861W        W24618  23.103   6.709  10.506
60862W        W24619  24.048  40.481   2.896
60863W        W24620  14.290  25.619   3.283
60864W        W24621  20.084  18.736   3.654
60865W        W24622  21.194  11.763   3.166
60866W        W24623  34.429  32.065  12.903
60867W        W24624  31.538  33.610  11.388
60868W        W24625  26.037  28.486   2.288
60869W        W24626  32.896  14.286   3.800
60870W        W24627  37.498  24.171  14.400
60871W        W24628  42.455  21.256   2.884
60872W        W24629  20.571  31.118  13.394
60873W        W24630  37.376   8.851  13.899
60874W        W24631  14.649   6.302  12.949
60875W        W24632  37.966  25.666  13.030
60876W        W24633   9.338  28.444  12.923
60877W        W24634  35.568  35.960  14.922
60878W        W24635  28.612  24.189   1.903
60879W        W24636  27.042  15.277  14.324
60880W        W24637  43.295  28.540  12.517
60881W        W24638  43.989  29.100   1.800
60882W        W24639  41.473  38.950   1.695
60883W        W24640  17.290  33.437   5.286
60884W        W24641  24.501  15.769   3.826
60885W        W24642  32.450  29.641   3.738
60886W        W24643  35.870  34.459   0.956
60887W        W24644  24.538   9.850   4.238
60888W        W24645  28.103  15.602   3.662
60889W        W24646  34.931  42.434   4.345
60890W        W24647  44.849   6.402   0.281
60891W        W24648   5.923  31.420   2.725
60892W        W24649   3.459   1.934   0.423
60893W        W24650   5.823  18.296  11.862
60894W        W24651   1.811  23.500   1.278
60895W        W24652  16.215  40.446  14.298
60896W        W24653   0.395  18.145   4.143
60897W        W24654  32.032  24.492   2.898
60898W        W24655  30.642  19.072  14.297
60899W        W24656  37.367  18.620  13.474
60900W        W24657  10.220  35.040   0.753
60901W        W24658   4.370  26.044  14.762
60902W        W24659  40.398  25.083  12.405
60903W        W24660  20.180  36.028   0.918
60904W        W24661  37.439  27.104   3.366
60905W        W24662  28.035  30.092   1.432
60906W        W24663  37.010  37.444  12.362
60907W        W24664  34.991  16.290  11.909
60908W        W24665   3.711  20.046   3.740
60909W        W24666  35.080  44.961  13.433
60910W        W24667  12.140  30.429   0.774
60911W        W24668  40.441   4.757  12.828
60912W        W24669  34.580  30.098  10.972
60913W        W24670  43.883  32.580   2.746
60914W        W24671   6.784   4.917   4.176
60915W        W24672  16.592  31.640   4.117
60916W        W24673  34.915   4.765  12.904
60917W        W24674  18.687  38.033  12.378
60918W        W24675  14.333   5.861  13.975
60919W        W24676  30.935  24.490  12.863
60920W        W24677  24.496  15.702   0.371
60921W        W24678  29.574  43.843   1.425
60922W        W24679  37.517  24.486  13.392
60923W        W24680  26.139  42.314   1.225
60924W        W24681  31.977  32.949  10.991
60925W        W24682  39.840  27.684   1.895
60926W        W24683  13.205   1.364   2.187
60927W        W24684  29.144  25.554  12.840
60928W        W24685  20.080  43.804   1.331
60929W        W24686  12.327  44.411  13.949
60930W        W24687   4.753   6.367   0.362
60931W        W24688  33.089   1.480   1.429
60932W        W24689  29.984  27.032  10.990
60933W        W24690  30.080  16.250  12.001
60934W        W24691   8.380  33.035   2.234
60935W        W24692   2.825  36.961   3.242
60936W        W24693  42.385  27.192   2.867
60937W        W24694  19.611  36.496  14.325
60938W        W24695  30.464  13.734   2.691
60939W        W24696  37.456  35.094  11.902
60940W        W24697  42.935  38.059  14.354
60941W        W24698  18.076  25.485  14.922
60942W        W24699  33.400  21.077  10.068
60943W        W24700  14.297  29.982  12.455
60944W        W24701  41.472  34.115  11.898
60945W        W24702  28.557  23.509  11.007
60946W        W24703  31.004  10.328   2.727
60947W        W24704  41.408  15.657  12.503
60948W        W24705  12.706  35.037  12.899
60949W        W24706  28.020  41.415   1.333
60950W        W24707  23.542  28.942  13.804
60951W        W24708  22.617  20.650  12.954
60952W        W24709  30.126  14.291  12.556
60953W        W24710  33.553  23.039   4.814
60954W        W24711   5.316  12.740   2.683
60955W        W24712  10.310   2.410  11.474
60956W        W24713  35.895  10.694  10.888
60957W        W24714  19.645  24.079   4.654
60958W        W24715  43.985  20.169  14.300
60959W        W24716   1.309  33.516  11.515
60960W        W24717  40.337  20.746   3.236
60961W        W24718  14.225  12.845  12.508
60962W        W24719  43.515  23.166  13.507
60963W        W24720  38.364  41.369  11.863
60964W        W24721  11.718  20.120   3.683
60965W        W24722   0.876   6.276  12.453
60966W        W24723  44.924  18.683   2.720
60967W        W24724   4.361  37.842   4.128
60968W        W24725  32.918  21.676  14.319
60969W        W24726  28.672   0.748   3.668
60970W        W24727  23.219  27.596   2.300
60971W        W24728  43.317  27.988   1.378
60972W        W24729  23.544  10.683  14.319
60973W        W24730   7.391   7.400  12.446
60974W        W24731  34.913   3.878  12.407
60975W        W24732   3.795  19.609   3.286
60976W        W24733  35.967  25.133   1.223
60977W        W24734   5.930  39.985   3.214
60978W        W24735  29.033  23.694  13.528
60979W        W24736   0.452  18.559  13.975
60980W        W24737  26.666  32.040   1.377
60981W        W24738  20.726  30.613  12.380
60982W        W24739  42.839  37.008   4.664
60983W        W24740  27.482  17.173  14.819
60984W        W24741  26.076  34.098  14.508
60985W        W24742  42.495  11.171   3.375
60986W        W24743  41.480  31.502  11.920
60987W        W24744  20.205  44.494   0.441
60988W        W24745  17.263  11.177   3.265
60989W        W24746   4.934   7.760   1.381
60990W        W24747   8.870  43.829  12.342
60991W        W24748   1.349  29.159  13.849
60992W        W24749  24.584  37.519   3.309
60993W        W24750  12.225  33.477  10.518
60994W        W24751  31.566  36.538  12.824
60995W        W24752  19.232  25.615  10.436
60996W        W24753   0.799  29.596   0.810
60997W        W24754  29.525  43.837  12.027
60998W        W24755  43.800  44.305   2.197
60999W        W24756  17.686   7.888  10.942
61000W        W24757   4.398  44.829  10.937
61001W        W24758  42.978  37.005   1.403
61002W        W24759   0.884  27.103  10.558
61003W        W24760  22.080  26.475   4.781
61004W        W24761  16.711   0.251   1.417
61005W        W24762   7.767   7.728   1.405
61006W        W24763   4.347   0.458  13.342
61007W        W24764  17.732  22.622   3.186
61008W        W24765  30.644  15.817   3.828
61009W        W24766  32.097  43.960   0.355
61010W        W24767  42.894  35.008  14.448
61011W        W24768  30.571   2.457  14.353
61012W        W24769   3.270   1.403  12.380
61013W        W24770   4.322   2.762  14.814
61014W        W24771  16.188  11.668  13.433
61015W        W24772  35.371  27.658   2.212
61016W        W24773   9.682  26.186  14.842
61017W        W24774  15.152  38.919  10.629
61018W        W24775  20.679  12.637  14.342
61019W        W24776  15.590   2.232   1.319
61020W        W24777   5.872  44.496   2.344
61021W        W24778  24.663  20.534  12.555
61022W        W24779   5.735  29.571   4.265
61023W        W24780  33.979  29.977   3.263
61024W        W24781  20.641  43.468  11.992
61025W        W24782  18.765  10.642   2.236
61026W        W24783  24.031  36.984  10.483
61027W        W24784   3.313  39.517  11.388
61028W        W24785  27.188  21.568   3.805
61029W        W24786  36.844  43.320  12.056
61030W        W24787   0.825   7.790  12.381
61031W        W24788   8.197  28.551  11.572
61032W        W24789   9.175  40.823  10.461
61033W        W24790  21.092   5.380   4.656
61034W        W24791   1.947  31.579  14.413
61035W        W24792  42.330  31.912   1.433
61036W        W24793   6.305  25.667  12.959
61037W        W24794  39.475  29.618   0.878
61038W        W24795  43.008  44.840  10.968
61039W        W24796   6.336   4.342  11.108
61040W        W24797  31.998  36.449   0.325
61041W        W24798  36.849   1.888  14.353
61042W        W24799  22.049   3.458   1.284
61043W        W24800   7.694  14.600   1.302
61044W        W24801  20.069  27.471   0.791
61045W        W24802  38.044   4.419   4.747
61046W        W24803  20.646  30.555   4.293
61047W        W24804   3.790  15.236  13.418
61048W        W24805   2.797  15.811   3.301
61049W        W24806  44.343  11.311   0.393
61050W        W24807  29.621  27.660  14.918
61051W        W24808  26.513  43.453  14.979
61052W        W24809   1.332  21.239  11.914
61053W        W24810  35.478   4.753   4.661
61054W        W24811  19.264  19.076   1.324
61055W        W24812  21.643   1.898   2.814
61056W        W24813   3.817  37.539  12.991
61057W        W24814  25.508  40.431  14.835
61058W        W24815  43.311  18.088   2.177
61059W        W24816  33.542  14.612   3.846
61060W        W24817  21.571  29.643  10.583
61061W        W24818  11.134  25.055   4.785
61062W        W24819   4.945  27.454  14.773
61063W        W24820  32.598  20.754   4.228
61064W        W24821  28.122  31.138  12.866
61065W        W24822  39.901  44.400   4.260
61066W        W24823  29.120  26.549   3.310
61067W        W24824   3.221  37.859  10.443
61068W        W24825  13.758  25.027   1.266
61069W        W24826  31.078   5.768   2.838
61070W        W24827  18.567  25.975   3.308
61071W        W24828  12.730  24.628   3.686
61072W        W24829  19.054  28.954   4.206
61073W        W24830   3.327   2.721   2.193
61074W        W24831  34.442  28.648   2.343
61075W        W24832  33.891  10.762  12.393
61076W        W24833  39.503  43.909  14.496
61077W        W24834  41.915   3.889  10.050
61078W        W24835  28.675   3.870   3.311
61079W        W24836  36.449  40.410   0.307
61080W        W24837  30.483  16.182  12.344
61081W        W24838  20.090   5.370  12.386
61082W        W24839  18.652  43.805   4.129
61083W        W24840  21.711  23.695   4.741
61084W        W24841  19.773  24.188   1.701
61085W        W24842  43.398  18.237  12.452
61086W        W24843  26.207  23.531  14.277
61087W        W24844  40.960  27.470   4.778
61088W        W24845   3.301  31.903   1.771
61089W        W24846  16.679  35.052  14.893
61090W        W24847  42.418  11.676   4.344
61091W        W24848   0.493  23.570  14.285
61092W        W24849  11.776  40.470   1.260
61093W        W24850   3.736   6.773  13.939
61094W        W24851  15.234  42.485  13.367
61095W        W24852  44.799  14.220  13.383
61096W        W24853   6.246  36.995  13.835
61097W        W24854   3.375   2.921  10.456
61098W        W24855  43.302  18.214  13.976
61099W        W24856  39.511   5.424   0.466
61100W        W24857  43.912  16.750   4.653
61101W        W24858   9.369  39.907  11.115
61102W        W24859  24.491  27.644   0.954
61103W        W24860  39.057  44.977   0.920
61104W        W24861   0.444   4.243   1.702
61105W        W24862  13.834  39.942   1.787
61106W        W24863  10.298  17.593  13.911
61107W        W24864  12.235  37.377  14.952
61108W        W24865  26.180  24.976   0.308
61109W        W24866   1.776  20.583   4.140
61110W        W24867   5.331  28.054  10.532
61111W        W24868  22.041  44.896  11.403
61112W        W24869  36.496   9.252   2.189
61113W        W24870  21.627  22.146  12.059
61114W        W24871  23.574  30.650  14.316
61115W        W24872  36.018   8.293  10.999
61116W        W24873  29.131   0.263   0.419
61117W        W24874  29.987   3.830  14.418
61118W        W24875  33.898  31.995  13.005
61119W        W24876  18.126   5.875  12.975
61120W        W24877   0.770  22.176  10.462
61121W        W24878  28.004   8.694   3.779
61122W        W24879  19.774  12.610   9.971
61123W        W24880  22.665  10.833   4.314
61124W        W24881   2.855   8.889  10.921
61125W        W24882   3.442  12.842  14.936
61126W        W24883   8.243  44.374  12.082
61127W        W24884  25.083  19.075  10.964
61128W        W24885   7.286  18.155   5.312
61129W        W24886   2.837   0.319   2.784
61130W        W24887  11.172  25.688  14.876
61131W        W24888  22.145   6.323   4.724
61132W        W24889  24.655   4.385   0.801
61133W        W24890  14.250   5.820   0.967
61134W        W24891  37.055  19.736   0.854
61135W        W24892   9.372  22.646  12.852
61136W        W24893   8.347  24.690   1.267
61137W        W24894  29.160   8.831  12.370
61138W        W24895  14.678   6.745  10.976
61139W        W24896  18.055   8.366   3.166
61140W        W24897  33.416  41.437  11.494
61141W        W24898   7.897  10.818   1.353
61142W        W24899  38.882  21.580   1.895
61143W        W24900  11.812  22.580   5.171
61144W        W24901  10.257  36.357   0.314
61145W        W24902  42.853  32.096  10.530
61146W        W24903  31.042  19.566  13.447
61147W        W24904  43.339  35.855   4.247
61148W        W24905  31.565  23.636   0.386
61149W        W24906   0.980   3.841   3.213
61150W        W24907  38.870  42.939  14.987
61151W        W24908  21.590  40.330   1.380
61152W        W24909  38.023   9.155   1.417
61153W        W24910  43.802  28.949  14.298
61154W        W24911  14.296  15.740  12.514
61155W        W24912  39.419  43.506  14.508
61156W        W24913   6.907  43.418  14.968
61157W        W24914  39.324  24.998   3.278
61158W        W24915  12.669  24.528   4.829
61159W        W24916   1.902   6.788  13.482
61160W        W24917  35.097  41.312   2.678
61161W        W24918  33.984  17.076  12.347
61162W        W24919  37.857  18.241   0.325
61163W        W24920  13.616  25.539   4.800
61164W        W24921  41.496  38.964   3.193
61165W        W24922  13.745  24.610   4.630
61166W        W24923  10.641  14.773   4.659
61167W        W24924  19.061  21.576  14.017
61168W        W24925   2.810   1.237   3.237
61169W        W24926  22.735  34.900  12.989
61170W        W24927  42.526   4.815   0.877
61171W        W24928  12.688   8.244  11.887
61172W        W24929  14.103  26.093  12.036
61173W        W24930  17.220  23.131  14.816
61174W        W24931  43.794  27.998  11.882
61175W        W24932  40.914  33.453   0.816
61176W        W24933  38.526  34.468   2.232
61177W        W24934   6.326   1.353  12.570
61178W        W24935  22.506  27.662   1.703
61179W        W24936  43.780   1.822   2.178
61180W        W24937  16.587  26.578   4.354
61181W        W24938  12.170  37.975   3.735
61182W        W24939  43.795  27.080   4.646
61183W        W24940  35.563  35.548   1.386
61184W        W24941   3.865   3.746   2.196
61185W        W24942  41.873  15.757   1.776
61186W        W24943   2.280   8.752   4.193
61187W        W24944  40.009  17.783  14.908
61188W        W24945  27.499  12.312   1.311
61189W        W24946  37.923  44.468   0.413
61190W        W24947  22.666  28.942   0.377
61191W        W24948  18.226   5.817   4.627
61192W        W24949  14.162  13.834   4.158
61193W        W24950   9.692  12.203  10.978
61194W        W24951  36.358  34.099  13.994
61195W        W24952  28.542  15.261  14.895
61196W        W24953   2.347  23.494   0.921
61197W        W24954  36.590  32.139  11.553
61198W        W24955  43.824   5.238  12.850
61199W        W24956   5.905  12.671  13.046
61200W        W24957   0.488   6.887  11.492
61201W        W24958   6.300  44.905   4.755
61202W        W24959  10.694  39.012   0.339
61203W        W24960  31.529  34.940  14.958
61204W        W24961  18.079  11.646   4.351
61205W        W24962  14.662  32.053  10.625
61206W        W24963  32.404  33.038   1.854
61207W        W24964  38.005   0.467   0.407
61208W        W24965  38.382  19.232  12.058
61209W        W24966  17.145  30.116  14.397
61210W        W24967  44.985  26.983   3.845
61211W        W24968  44.263  36.028  12.568
61212W        W24969  23.519  27.498  10.425
61213W        W24970  29.536  23.023   0.784
61214W        W24971  36.888  42.810  13.964
61215W        W24972   7.717  39.941   1.707
61216W        W24973   1.457  16.591  12.472
61217W        W24974   7.829   1.386   0.456
61218W        W24975  14.306  17.617  12.939
61219W        W24976   6.796  43.978   1.286
61220W        W24977  22.607  20.566   4.207
61221W        W24978  19.754  21.066  11.949
61222W        W24979  40.398  26.023  11.500
61223W        W24980   5.265   8.845   1.888
61224W        W24981  18.720  21.560   1.367
61225W        W24982  16.752  22.028  13.950
61226W        W24983   1.375  42.913   1.864
61227W        W24984  23.650  38.855  11.485
61228W        W24985   1.795  25.546   0.424
61229W        W24986   3.859   9.196  14.505
61230W        W24987  23.987  37.881   0.370
61231W        W24988  26.687  22.649   3.319
61232W        W24989   0.471   3.774  14.815
61233W        W24990   5.368  25.613   4.774
61234W        W24991  37.903  15.792  11.417
61235W        W24992  44.386   1.253  10.523
61236W        W24993  31.049  11.668  11.055
61237W        W24994  31.622  35.064  13.376
61238W        W24995  42.293  17.193  11.864
61239W        W24996  24.621   0.346  13.930
61240W        W24997   2.232   0.930  11.543
61241W        W24998  28.950  10.274  13.420
61242W        W24999  26.988  28.148   3.674
61243W        W25000  32.123  40.414  13.441
61244W        W25001  11.133  31.957  14.021
61245W        W25002  30.567  44.831  14.016
61246W        W25003  30.646  22.739   1.855
61247W        W25004  11.251  25.129  11.596
61248W        W25005  26.995  33.622   1.224
61249W        W25006  41.372   4.768  12.862
61250W        W25007   0.793   9.860  12.068
61251W        W25008  35.377  39.415   0.374
61252W        W25009  21.048  39.932  13.481
61253W        W25010  40.931  30.451  12.987
61254W        W25011  13.202  21.532  11.860
61255W        W25012   6.778   8.303  14.319
61256W        W25013  12.803  41.389  14.278
61257W        W25014   2.241  36.576   1.260
61258W        W25015  39.407  25.216   4.787
61259W        W25016  44.913   5.409   3.804
61260W        W25017  15.805  23.076   1.930
61261W        W25018   4.320   3.240  14.793
61262W        W25019   0.457  17.095  13.876
61263W        W25020  41.033   1.389   3.377
61264W        W25021  34.571  38.919   2.262
61265W        W25022  31.592  26.659  11.975
61266W        W25023  30.044  29.924   0.375
61267W        W25024  14.719  28.519  11.032
61268W        W25025  42.800  35.996  13.490
61269W        W25026  31.957  11.195   0.964
61270W        W25027   6.212  18.122   1.442
61271W        W25028  22.146   7.296  10.929
61272W        W25029  24.614  20.213   4.709
61273W        W25030   5.868  40.369  14.298
61274W        W25031  40.833  20.080   1.879
61275W        W25032  17.083  34.867  11.891
61276W        W25033  44.974  21.530   2.805
61277W        W25034  34.546  13.135   0.414
61278W        W25035  37.959   7.262   0.857
61279W        W25036  31.517  20.048   4.267
61280W        W25037   9.162  41.479   0.901
61281W        W25038  17.148  10.730  11.095
61282W        W25039  20.271  29.487   4.615
61283W        W25040  39.417  40.859   2.696
61284W        W25041  15.288  39.445   3.177
61285W        W25042  12.779   8.382   0.747
61286W        W25043   3.366  26.648   2.696
61287W        W25044  16.639  22.573  11.987
61288W        W25045   5.315  30.022  11.512
61289W        W25046  20.125  35.000  11.387
61290W        W25047  12.258  39.511   3.326
61291W        W25048  37.873  22.511  13.930
61292W        W25049  37.577   4.721   2.408
61293W        W25050  10.259  43.462   1.432
61294W        W25051  44.756  23.164   2.375
61295W        W25052  30.439   2.432   5.248
61296W        W25053  35.437  31.954   1.451
61297W        W25054  20.098  30.985  11.938
61298W        W25055  33.937  29.028   5.658
61299W        W25056  17.222  40.459  13.006
61300W        W25057  27.185  35.551   2.804
61301W        W25058   5.250  21.612  13.975
61302W        W25059  11.258  16.569  14.765
61303W        W25060  41.017  32.983  10.949
61304W        W25061  42.402  35.983   3.257
61305W        W25062  41.304  22.065   4.241
61306W        W25063  18.228   8.759   3.286
61307W        W25064  11.221   4.387   4.228
61308W        W25065  39.957  14.709  14.455
61309W        W25066  14.109  35.018   3.644
61310W        W25067  22.702  17.076   0.735
61311W        W25068  14.723  37.352  12.563
61312W        W25069  21.540  38.018   3.330
61313W        W25070   7.886  16.594  13.537
61314W        W25071  15.120  26.545  13.416
61315W        W25072  10.352   1.397  14.020
61316W        W25073  11.246  38.509   1.804
61317W        W25074  20.043  15.236  13.458
61318W        W25075  40.511  16.317  10.497
61319W        W25076  39.987  14.773  13.008
61320W        W25077  40.829  13.301  11.472
61321W        W25078  35.858   4.383   4.284
61322W        W25079  16.210  34.061   1.288
61323W        W25080  14.119  10.639  14.394
61324W        W25081  14.231   3.725   1.913
61325W        W25082  22.619  24.992  12.426
61326W        W25083  15.663  35.016  12.906
61327W        W25084  16.729  35.092  12.990
61328W        W25085  25.035   4.895   3.213
61329W        W25086  15.700  20.261  11.510
61330W        W25087  19.152  33.504  13.345
61331W        W25088  15.703  24.605  10.522
61332W        W25089  30.629  18.730   3.167
61333W        W25090  39.810  17.162   1.359
61334W        W25091   3.877  30.546  13.440
61335W        W25092  15.126  40.031   3.854
61336W        W25093  27.503  19.191  14.891
61337W        W25094  30.629   7.836   2.404
61338W        W25095  16.146   1.881  11.925
61339W        W25096  34.413  23.180   4.245
61340W        W25097   8.207  26.159  11.906
61341W        W25098  23.037  28.941   4.703
61342W        W25099  17.719  18.145  13.500
61343W        W25100  28.471  26.527  13.033
61344W        W25101  22.578  18.099  13.817
61345W        W25102  29.441  17.684   4.765
61346W        W25103  29.963   5.929   4.194
61347W        W25104  16.257  34.372  12.910
61348W        W25105  14.728  17.555  11.382
61349W        W25106  15.207   5.736   2.731
61350W        W25107  38.885  24.648   4.248
61351W        W25108  24.627   6.894  10.950
61352W        W25109  41.892  38.520  10.597
61353W        W25110   1.396  26.462   0.802
61354W        W25111  24.015   2.257   4.161
61355W        W25112  40.834  39.550  10.959
61356W        W25113  26.167  14.806   5.251
61357W        W25114   5.310  34.034  10.540
61358W        W25115  10.662  10.731   4.174
61359W        W25116  39.872  35.574  13.963
61360W        W25117  42.885  25.200   1.931
61361W        W25118  38.921  37.903   2.812
61362W        W25119  15.105   8.842  11.555
61363W        W25120  17.176  39.066  10.497
61364W        W25121  10.243  21.042   2.319
61365W        W25122  20.665  19.589  13.448
61366W        W25123  17.236   1.786   4.225
61367W        W25124  37.501  22.550  14.497
61368W        W25125  19.729  42.415   4.328
61369W        W25126  35.571   3.853   5.238
61370W        W25127  16.243  35.939  13.838
61371W        W25128   9.795  36.841  12.859
61372W        W25129   1.771  39.890   4.605
61373W        W25130   9.315  20.745  13.523
61374W        W25131  36.588  23.985  14.981
61375W        W25132  28.633  42.837  11.590
61376W        W25133   9.314  39.935  11.955
61377W        W25134   0.802  24.714   4.836
61378W        W25135  37.859  16.599  11.123
61379W        W25136   1.819  22.721   2.695
61380W        W25137   7.370   5.344   0.347
61381W        W25138  37.337  15.725  10.639
61382W        W25139  42.481   0.856  11.583
61383W        W25140  19.135   8.315  13.920
61384W        W25141  36.031   8.849  10.557
61385W        W25142  37.904  38.553   2.775
61386W        W25143  18.755  18.088  12.474
61387W        W25144  43.353  20.601  12.990
61388W        W25145  37.400  38.352   4.795
61389W        W25146   3.907  42.978   2.404
61390W        W25147  17.707  43.944  12.344
61391W        W25148   9.181  24.627  13.394
61392W        W25149  35.971  41.307  12.356
61393W        W25150  41.871  19.770  13.045
61394W        W25151  43.309  26.071   3.777
61395W        W25152   6.854  18.060  13.479
61396W        W25153   9.665  38.569  12.856
61397W        W25154   9.711  21.146  11.399
61398W        W25155  21.555   0.336  12.459
61399W        W25156   0.787  29.952  13.057
61400W        W25157  37.990  18.667  10.538
61401W        W25158  26.138  23.177  13.858
61402W        W25159  38.327  27.181  13.388
61403W        W25160  39.041  31.976  13.029
61404W        W25161  20.139  29.520   4.304
61405W        W25162  28.117  11.714  10.457
61406W        W25163  43.977   4.793   0.293
61407W        W25164  34.606  24.149  14.888
61408W        W25165   2.370   1.882  11.970
61409W        W25166  40.421  39.043   0.946
61410W        W25167   7.331  28.649   0.778
61411W        W25168  33.041  24.482   0.901
61412W        W25169  20.593  37.004  10.908
61413W        W25170  24.155  23.613  13.352
61414W        W25171  17.637   7.700   0.259
61415W        W25172   2.355  44.852  10.598
61416W        W25173  25.017  29.028  12.842
61417W        W25174   1.470  36.521   3.238
61418W        W25175  25.482  21.662  10.602
61419W        W25176  26.549  13.200   2.230
61420W        W25177   1.908  39.886   0.393
61421W        W25178  41.014  23.710  14.285
61422W        W25179  24.177  22.694   0.801
61423W        W25180  35.364  18.728  10.511
61424W        W25181   6.355  29.096   3.788
61425W        W25182  24.032  24.554   0.358
61426W        W25183  32.544   2.243   3.212
61427W        W25184  34.433  21.235  10.461
61428W        W25185  33.573  24.163   3.789
61429W        W25186  21.661  43.848  13.509
61430W        W25187  32.065  27.587  13.455
61431W        W25188   5.925  18.585   4.789
61432W        W25189  10.216   5.747  11.543
61433W        W25190  22.675  44.878   0.852
61434W        W25191  42.508  35.935  12.349
61435W        W25192  35.043   7.693  13.328
61436W        W25193  14.686  24.501  14.509
61437W        W25194  37.972  28.047   3.789
61438W        W25195  44.310   3.376   3.344
61439W        W25196  40.021  40.527  14.297
61440W        W25197   1.946   4.807   4.776
61441W        W25198  23.672  32.888  14.959
61442W        W25199  28.485  25.055   0.316
61443W        W25200   7.378  22.185  12.404
61444W        W25201  30.921  31.023  11.949
61445W        W25202  38.040   0.762   2.407
61446W        W25203  33.588  19.620   3.284
61447W        W25204  27.044   8.365  11.546
61448W        W25205  20.135  26.657   4.822
61449W        W25206   6.408  27.173   0.735
61450W        W25207   3.361  40.450   0.851
61451W        W25208  31.119  22.668  13.332
61452W        W25209   1.858  31.542  14.980
61453W        W25210  10.711  23.555   0.384
61454W        W25211   5.908  35.975  11.970
61455W        W25212   7.693   8.352   4.813
61456W        W25213  39.543  20.209  11.884
61457W        W25214  23.494  34.522  12.043
61458W        W25215  28.484  28.661   3.295
61459W        W25216  26.679   8.687  13.407
61460W        W25217  29.116  19.574  14.817
61461W        W25218   9.645  25.479   4.809
61462W        W25219   0.468  39.520   3.313
61463W        W25220  22.600  37.371  12.342
61464W        W25221  13.120  35.464  12.963
61465W        W25222  41.535  20.558   0.789
61466W        W25223  33.442  35.952   3.836
61467W        W25224   9.792   9.784  12.957
61468W        W25225  14.336  43.294  11.588
61469W        W25226  19.243  32.551   0.921
61470W        W25227  19.198  29.450   4.773
61471W        W25228  27.463   9.218  13.859
61472W        W25229  27.046   6.888  14.503
61473W        W25230  21.533   9.819   1.386
61474W        W25231  33.921  27.972  10.894
61475W        W25232  15.221  41.013  13.493
61476W        W25233  37.399   9.766  12.513
61477W        W25234   4.843  14.113  11.895
61478W        W25235  43.929  32.621  13.451
61479W        W25236  28.099   0.487  10.011
61480W        W25237  37.995  13.622  13.431
61481W        W25238   7.754  36.083  11.013
61482W        W25239  29.944   8.374  14.913
61483W        W25240  29.117  25.167  11.872
61484W        W25241  33.397   9.819   3.685
61485W        W25242   9.692  16.126   3.379
61486W        W25243  28.982   7.815  10.450
61487W        W25244   0.378  14.113   4.620
61488W        W25245  35.938  37.575  12.005
61489W        W25246  32.446  29.029  13.513
61490W        W25247  30.448  16.586  11.013
61491W        W25248  18.570  26.142   0.780
61492W        W25249   6.769  21.253  14.312
61493W        W25250   6.725  30.158   0.430
61494W        W25251  33.580   4.412  13.319
61495W        W25252   6.766  24.124  12.522
61496W        W25253  34.386  17.268  13.519
61497W        W25254  39.337  19.209   0.782
61498W        W25255  14.651  10.243   5.160
61499W        W25256  17.128   5.876  14.911
61500W        W25257  33.458  28.011   2.688
61501W        W25258   7.390  24.667  13.825
61502W        W25259  37.839   2.242  13.318
61503W        W25260  27.561  42.958  10.944
61504W        W25261  17.583  44.871  12.061
61505W        W25262   1.738  33.432   2.758
61506W        W25263  27.154  29.164   2.272
61507W        W25264  43.836  37.929   0.343
61508W        W25265   9.827  17.750   9.609
61509W        W25266  38.390  15.634   1.871
61510W        W25267  14.211   4.217  12.355
61511W        W25268  34.483   9.645   3.161
61512W        W25269  24.052  42.838  12.849
61513W        W25270  24.128  18.564   0.314
61514W        W25271   9.643  40.035  12.825
61515W        W25272  28.096  31.074  10.895
61516W        W25273  30.067  27.557  11.506
61517W        W25274  13.319   5.749  11.452
61518W        W25275  37.926  44.279   4.687
61519W        W25276  21.138  20.535  10.453
61520W        W25277   5.225  25.179  12.484
61521W        W25278  32.962   9.676   3.330
61522W        W25279  39.976  14.293   2.851
61523W        W25280  40.323  30.456   0.851
61524W        W25281  44.284  42.397   2.825
61525W        W25282  10.703   9.202  13.943
61526W        W25283   8.275  29.655  10.615
61527W        W25284   6.749  15.312  13.882
61528W        W25285  38.821  28.465  12.410
61529W        W25286   5.335  36.496   3.351
61530W        W25287   6.302  20.712  10.404
61531W        W25288  38.398  22.040   2.679
61532W        W25289  17.098  30.432  13.424
61533W        W25290   2.802  19.544   3.217
61534W        W25291  19.540   7.245   2.842
61535W        W25292  25.964  21.187   0.274
61536W        W25293  20.695  27.115  10.530
61537W        W25294  28.942  22.149   1.350
61538W        W25295  31.137  31.033   4.649
61539W        W25296  27.952  28.456   0.335
61540W        W25297  34.599  15.212   0.950
61541W        W25298  20.543  38.943   3.866
61542W        W25299  21.034  43.292  14.767
61543W        W25300  42.972  34.611  13.014
61544W        W25301  38.928  44.882   3.201
61545W        W25302  35.982  32.455   3.717
61546W        W25303  30.967  27.543  12.967
61547W        W25304  20.101  38.507   4.650
61548W        W25305  43.326   0.850  10.536
61549W        W25306  38.472  41.328  14.781
61550W        W25307   7.323  38.039   1.249
61551W        W25308  31.491   3.312   1.439
61552W        W25309   0.782  34.614   4.181
61553W        W25310   5.414  36.985  12.942
61554W        W25311  44.842  25.140  10.618
61555W        W25312  20.696  34.886   4.224
61556W        W25313  44.833  34.576   5.138
61557W        W25314   4.839   4.762   3.769
61558W        W25315  28.644   9.727  13.317
61559W        W25316  10.271  41.810  11.458
61560W        W25317  32.943   2.798  13.449
61561W        W25318  24.682  13.339  10.950
61562W        W25319   5.842  39.048  14.350
61563W        W25320   7.829  37.399  11.890
61564W        W25321   2.865  10.187  11.571
61565W        W25322  38.057   4.431  12.468
61566W        W25323  27.629   0.249  13.877
61567W        W25324  41.486  32.631  11.475
61568W        W25325  12.174   7.252  12.089
61569W        W25326   5.868   8.819  12.369
61570W        W25327  25.560  27.128   2.417
61571W        W25328  26.166  39.816  12.858
61572W        W25329   7.199  28.588  14.398
61573W        W25330  16.805  16.259  13.822
61574W        W25331  26.696  36.360   4.653
61575W        W25332  43.783  24.220   2.886
61576W        W25333  25.541  13.805  13.992
61577W        W25334  11.784   5.271  12.983
61578W        W25335  25.699  14.618  14.456
61579W        W25336   4.422   6.736  13.892
61580W        W25337  38.061  36.959   4.126
61581W        W25338  11.638  26.544   3.846
61582W        W25339   7.780  14.592  10.003
61583W        W25340   2.350   3.443   3.864
61584W        W25341  10.858  25.977   3.841
61585W        W25342  11.817   6.836   4.661
61586W        W25343  32.115  35.594   3.176
61587W        W25344   9.786  18.097  12.497
61588W        W25345  18.689   3.380   2.225
61589W        W25346  35.554  35.479  11.035
61590W        W25347  20.175  28.627   2.349
61591W        W25348  30.437   3.458   4.323
61592W        W25349  30.658  20.739   3.165
61593W        W25350  18.633   7.669   4.144
61594W        W25351   3.253   7.778  10.480
61595W        W25352  18.661  42.303  14.447
61596W        W25353   7.184   2.459  10.911
61597W        W25354  21.585   0.291  14.837
61598W        W25355  29.957   5.278  11.589
61599W        W25356   7.352  30.104   3.761
61600W        W25357  37.942   3.808  12.076
61601W        W25358   8.405  12.829   1.734
61602W        W25359  25.181  35.951   2.260
61603W        W25360  41.324  10.781  14.319
61604W        W25361  32.566   5.932  12.426
61605W        W25362  21.191   0.780   3.697
61606W        W25363  33.597  44.438   3.243
61607W        W25364   8.837   3.733  14.400
61608W        W25365   5.196   4.357  13.486
61609W        W25366   5.332  25.973  11.579
61610W        W25367  31.968  34.889   3.696
61611W        W25368  16.138  32.123  13.398
61612W        W25369  30.109  20.548   3.194
61613W        W25370  40.547  22.104  12.406
61614W        W25371   8.308   9.248  10.631
61615W        W25372  44.490  19.603   0.314
61616W        W25373  26.009  35.519   2.228
61617W        W25374  32.459  35.997  14.499
61618W        W25375  42.869  31.902  11.418
61619W        W25376  44.426  27.454  14.961
61620W        W25377  33.903  38.875   4.661
61621W        W25378  24.093   4.218  12.543
61622W        W25379  10.736  19.719   1.359
61623W        W25380  30.127   9.264   0.435
61624W        W25381  20.069  41.028  10.925
61625W        W25382  25.995   2.432  12.560
61626W        W25383   4.934  27.008  10.424
61627W        W25384  32.121   2.262   3.765
61628W        W25385  24.618   5.904   2.178
61629W        W25386   5.347   8.844   2.776
61630W        W25387   8.319  33.126   1.349
61631W        W25388   7.211  37.878   2.276
61632W        W25389  14.335  26.128  11.016
61633W        W25390  22.652   9.790   4.670
61634W        W25391  16.083   9.748   4.305
61635W        W25392  39.544  26.096   0.310
61636W        W25393  31.939  40.873   1.217
61637W        W25394  34.500  15.771  11.121
61638W        W25395  37.908   8.815  12.051
61639W        W25396  31.500  43.841  12.572
61640W        W25397  39.007  10.653  14.794
61641W        W25398  42.972  34.475  12.556
61642W        W25399  39.935  18.241  12.868
61643W        W25400   5.205  12.824  13.490
61644W        W25401  36.093   4.857  14.476
61645W        W25402   0.810  16.650   9.966
61646W        W25403  36.562  26.113  10.510
61647W        W25404   3.920  19.107  14.793
61648W        W25405  14.300  23.624   3.831
61649W        W25406   5.881  28.015   1.310
61650W        W25407  15.617  14.312   4.829
61651W        W25408  44.995  26.164   2.674
61652W        W25409   2.249  38.967  14.446
61653W        W25410  19.182  10.355   0.947
61654W        W25411  22.172  41.463  12.520
61655W        W25412  26.674  32.932  14.278
61656W        W25413  13.650   9.727  14.477
61657W        W25414  43.808  32.889  14.876
61658W        W25415  17.159  15.211   2.247
61659W        W25416   3.914   5.739   1.860
61660W        W25417  37.063   4.783  13.401
61661W        W25418  33.422  43.825  12.961
61662W        W25419   6.816  20.185  14.937
61663W        W25420  28.177  33.934  14.501
61664W        W25421  20.674  32.398  10.033
61665W        W25422  35.020   4.868   4.127
61666W        W25423   8.677  26.995   3.229
61667W        W25424  43.858  16.128  13.038
61668W        W25425  34.962   5.869   0.425
61669W        W25426  23.985  38.033   2.805
61670W        W25427  40.911   2.814   9.592
61671W        W25428  28.107  15.743   0.733
61672W        W25429   8.323  40.473   0.280
61673W        W25430  21.174  27.966  10.596
61674W        W25431  40.803   1.904  14.926
61675W        W25432  27.149   2.239  13.415
61676W        W25433  36.027   1.429   3.780
61677W        W25434   5.918  26.658   4.665
61678W        W25435  17.697   4.734  14.840
61679W        W25436  20.682   9.684   0.832
61680W        W25437  32.491  33.415   0.802
61681W        W25438  38.933  30.558  11.446
61682W        W25439  18.151  33.956  14.964
61683W        W25440  19.221  18.290   3.274
61684W        W25441  15.144  18.294  13.496
61685W        W25442   6.761  23.045  14.414
61686W        W25443  42.926  19.227  13.460
61687W        W25444  40.432  11.800  12.529
61688W        W25445  25.000  24.689  13.401
61689W        W25446  32.934  26.181   5.637
61690W        W25447   3.890   9.851   0.303
61691W        W25448  17.783  14.684   4.301
61692W        W25449  41.978  26.108   4.715
61693W        W25450   6.826  14.622  11.591
61694W        W25451  27.511  29.941  14.963
61695W        W25452  13.747  25.130  12.827
61696W        W25453   1.284   5.746   4.833
61697W        W25454   6.382   4.772  13.318
61698W        W25455  24.986  10.837   0.374
61699W        W25456  14.195  19.068  13.372
61700W        W25457  35.372  17.670  12.569
61701W        W25458   5.321  29.627  11.997
61702W        W25459  33.498  12.159  13.829
61703W        W25460  31.065  17.179   2.411
61704W        W25461  11.688   3.426   0.856
61705W        W25462  30.133   0.779   0.894
61706W        W25463  20.654   4.939   4.350
61707W        W25464  35.408   4.824   0.727
61708W        W25465  35.960  26.153  13.851
61709W        W25466  44.802  26.485  14.461
61710W        W25467  27.584  40.389   0.758
61711W        W25468  21.167  33.888  10.906
61712W        W25469  23.207   7.804   0.934
61713W        W25470   8.222   4.922   3.665
61714W        W25471  38.461  29.989  10.548
61715W        W25472   8.662   4.935  14.310
61716W        W25473  27.482  14.114  11.941
61717W        W25474   8.206  22.545   4.677
61718W        W25475  12.704  27.163   1.832
61719W        W25476  39.838  11.138  11.394
61720W        W25477   6.848  27.098   3.699
61721W        W25478  32.052  27.667   3.227
61722W        W25479   2.745  31.943  10.931
61723W        W25480   1.753  29.925  13.021
61724W        W25481  11.200  43.840  14.295
61725W        W25482  29.584  17.181   1.895
61726W        W25483  20.076  34.116  11.082
61727W        W25484  16.749  12.224  11.003
61728W        W25485  36.974  43.930  14.787
61729W        W25486   4.718  39.559   0.365
61730W        W25487  26.480  40.436   0.946
61731W        W25488   5.333  11.302  13.824
61732W        W25489  26.170  23.736   3.230
61733W        W25490  31.609  27.570   1.915
61734W        W25491  43.019   0.342   2.884
61735W        W25492   3.303  33.103  13.540
61736W        W25493  34.040   2.734  13.500
61737W        W25494  11.655  26.694  13.847
61738W        W25495  17.729   3.232  11.426
61739W        W25496  19.233  12.808   3.310
61740W        W25497  39.545  15.752   0.941
61741W        W25498  26.160   0.775   3.373
61742W        W25499   2.262  38.974  13.926
61743W        W25500   2.836  24.220   1.259
61744W        W25501  39.327  14.146  11.498
61745W        W25502  24.031   2.813   0.341
61746W        W25503  33.110  15.134   3.182
61747W        W25504  20.191  23.666  10.929
61748W        W25505  16.307  17.787  11.397
61749W        W25506   1.385  31.416  11.496
61750W        W25507  23.232   0.251   0.941
61751W        W25508  31.471  21.580   4.783
61752W        W25509  36.862   7.325   0.809
61753W        W25510  10.216  40.444  14.340
61754W        W25511  18.140  11.350   3.262
61755W        W25512   0.257   9.204   4.144
61756W        W25513   5.880  12.732   1.749
61757W        W25514  32.113  10.367   4.653
61758W        W25515  36.924   1.321   3.321
61759W        W25516  10.803  39.880  13.379
61760W        W25517  29.627  19.645  11.941
61761W        W25518  37.049  35.017   0.480
61762W        W25519  33.948  44.964   3.836
61763W        W25520   1.328  35.542  12.847
61764W        W25521  21.204  41.984   3.261
61765W        W25522  38.533  15.765  12.008
61766W        W25523  35.937   8.807   3.231
61767W        W25524  21.524  11.332   2.789
61768W        W25525  33.961  34.375   2.273
61769W        W25526   0.815  30.043   2.375
61770W        W25527  24.589  21.069  12.062
61771W        W25528  15.088  22.149  13.350
61772W        W25529  11.827  22.095   2.183
61773W        W25530  23.079  19.139  11.599
61774W        W25531  39.375   2.878  14.927
61775W        W25532  43.924  41.503   1.882
61776W        W25533  39.386  10.833   1.764
61777W        W25534  19.707  40.354  14.005
61778W        W25535  17.798  22.037  13.405
61779W        W25536  25.180  37.020  11.399
61780W        W25537  19.040  40.836  10.568
61781W        W25538  33.974  42.512   0.735
61782W        W25539   7.225  29.666   2.796
61783W        W25540   3.850  32.428   0.266
61784W        W25541   2.326  30.047  10.491
61785W        W25542  14.296  31.143  10.918
61786W        W25543  27.118  42.850  13.371
61787W        W25544  30.070   4.819   3.343
61788W        W25545  39.979  35.522  12.346
61789W        W25546   7.780  27.176   1.802
61790W        W25547  30.042  24.080   2.379
61791W        W25548   0.491  12.761  13.322
61792W        W25549  25.630  38.883  13.406
61793W        W25550  14.822   4.441   1.220
61794W        W25551  24.529  25.176  14.441
61795W        W25552  28.147  38.948   0.859
61796W        W25553  39.370  13.625   3.642
61797W        W25554  29.638  26.992  12.993
61798W        W25555  41.908   2.361   3.809
61799W        W25556  18.264  25.565   0.865
61800W        W25557  21.148  10.270  10.947
61801W        W25558  33.544  34.440  11.082
61802W        W25559  26.701   8.389  11.072
61803W        W25560  38.555   4.349  11.494
61804W        W25561  17.081  39.839  11.547
61805W        W25562  31.587   8.299   1.253
61806W        W25563   7.743  30.922  12.501
61807W        W25564  13.732  33.586   4.697
61808W        W25565  15.094  42.975  12.052
61809W        W25566  19.741  36.514  11.447
61810W        W25567  25.583  17.273  12.471
61811W        W25568  41.380  27.194  11.106
61812W        W25569  26.011  10.874  14.989
61813W        W25570  35.506  14.629  14.831
61814W        W25571   1.375  25.976   4.334
61815W        W25572  33.621   3.355   4.295
61816W        W25573  33.941  14.255   2.197
61817W        W25574  27.133  40.843  10.602
61818W        W25575  13.212   8.265   4.270
61819W        W25576  14.777  11.325   2.318
61820W        W25577  41.988   9.726  12.368
61821W        W25578  12.137   1.751   1.334
61822W        W25579  42.296  13.835   2.835
61823W        W25580  11.369  16.112  11.492
61824W        W25581  39.977  42.481   2.714
61825W        W25582  40.318  14.787   3.853
61826W        W25583  25.152   1.752  10.619
61827W        W25584  23.116   8.270  11.504
61828W        W25585  19.754   1.736   2.179
61829W        W25586   5.288  31.040   2.798
61830W        W25587  42.830  39.328  14.012
61831W        W25588  14.619  26.955   3.384
61832W        W25589   5.731  36.031  10.418
61833W        W25590  27.599  28.600  14.810
61834W        W25591   0.859  42.897   0.896
61835W        W25592  35.367  36.424   2.896
61836W        W25593  14.615  20.741  11.949
61837W        W25594  11.795  11.284   3.725
61838W        W25595  27.577  33.103   4.763
61839W        W25596   4.406  20.588   1.442
61840W        W25597  40.410  16.686  14.394
61841W        W25598  36.912  26.963   0.789
61842W        W25599  33.576  26.690  10.424
61843W        W25600   6.194  27.532  14.781
61844W        W25601  11.297  17.696  11.997
61845W        W25602   8.258   8.842   0.934
61846W        W25603   0.756  14.228  11.896
61847W        W25604  36.929  33.029   2.204
61848W        W25605  17.127  19.732   0.339
61849W        W25606  38.902   8.336  13.027
61850W        W25607  43.410  11.632   3.844
61851W        W25608  41.817   9.297   3.827
61852W        W25609  32.026  19.612  12.083
61853W        W25610  13.746  39.444  11.057
61854W        W25611  38.548   0.263   1.913
61855W        W25612  28.653  16.294   2.738
61856W        W25613  23.506  24.007  13.315
61857W        W25614  15.588  22.148  14.820
61858W        W25615  21.662  19.135  12.520
61859W        W25616  28.952   4.418   3.178
61860W        W25617  11.705  31.112  14.454
61861W        W25618   4.872   7.260   1.743
61862W        W25619   4.410  41.373   0.327
61863W        W25620  13.342  38.050  12.435
61864W        W25621  19.773  32.490  14.474
61865W        W25622   2.271  28.642   3.735
61866W        W25623  35.915  21.064   5.204
61867W        W25624  33.495  21.653  13.882
61868W        W25625  35.551  19.134  13.807
61869W        W25626  27.103  21.060   5.571
61870W        W25627  35.478  14.786   1.725
61871W        W25628   2.736  33.579   1.415
61872W        W25629  23.009  41.850   2.859
61873W        W25630   2.305  28.086   0.774
61874W        W25631  33.536  30.425   0.727
61875W        W25632   8.850  36.521  11.382
61876W        W25633  34.370  44.001  14.486
61877W        W25634  10.845  13.803  13.885
61878W        W25635  37.343  34.593   2.254
61879W        W25636   4.797  17.177  10.481
61880W        W25637  19.753  17.302  12.982
61881W        W25638  35.543  27.074   1.713
61882W        W25639   4.342  16.668  11.061
61883W        W25640  14.691  33.875   1.280
61884W        W25641  44.855  25.567   4.118
61885W        W25642   1.914  27.525  14.512
61886W        W25643  43.783  20.550  14.342
61887W        W25644  22.523  26.207  10.989
61888W        W25645   6.721  43.390   2.248
61889W        W25646  10.265  17.627  10.439
61890W        W25647  20.194  27.484   3.361
61891W        W25648  16.213   3.801  12.377
61892W        W25649   6.739  20.619  11.488
61893W        W25650  25.191  16.130   4.796
61894W        W25651  14.333   5.810   2.192
61895W        W25652  40.537  38.878  13.545
61896W        W25653   7.415   5.885   1.269
61897W        W25654  27.507  36.495   4.130
61898W        W25655  37.005  28.994  11.508
61899W        W25656  17.122  15.090   1.214
61900W        W25657  16.744  37.959  14.918
61901W        W25658  19.207  40.930   0.800
61902W        W25659  39.957   6.225   1.337
61903W        W25660  17.706  35.583  13.858
61904W        W25661  18.277   2.777   1.872
61905W        W25662  43.353  38.350   0.411
61906W        W25663  39.818  20.709   3.650
61907W        W25664  22.716  24.184   1.210
61908W        W25665  19.061   9.317  14.325
61909W        W25666  40.374  21.743  12.063
61910W        W25667  40.809  14.643   0.323
61911W        W25668  17.234  19.660   3.357
61912W        W25669  42.484  42.830   2.703
61913W        W25670  23.497  15.697   4.225
61914W        W25671   7.400  32.109  11.478
61915W        W25672  16.228  38.446   0.376
61916W        W25673  42.514  17.209  14.294
61917W        W25674  10.268   9.820   3.247
61918W        W25675  21.036  32.117   0.960
61919W        W25676  32.615  36.094  11.955
61920W        W25677  41.872   5.821   2.365
61921W        W25678  15.229  21.561  14.899
61922W        W25679   2.306   9.644  14.282
61923W        W25680  13.311  34.470   3.280
61924W        W25681  32.531  15.182   1.288
61925W        W25682  11.258   2.908  13.468
61926W        W25683  21.623   5.849   3.798
61927W        W25684  28.066  13.317   0.365
61928W        W25685  41.525  39.994  11.446
61929W        W25686  40.939  40.031  10.638
61930W        W25687  44.802  25.101   0.957
61931W        W25688  14.274  39.447   2.816
61932W        W25689  24.520   9.882  11.865
61933W        W25690  14.730  26.630  14.873
61934W        W25691  42.394  13.152  12.398
61935W        W25692  22.606  24.992  14.325
61936W        W25693  23.226  32.055   3.690
61937W        W25694  40.046  19.571  12.015
61938W        W25695   3.328   8.350  11.415
61939W        W25696  19.648  24.044   2.259
61940W        W25697  23.117  30.616   0.462
61941W        W25698  40.433   8.185   3.314
61942W        W25699  11.719   5.281   2.874
61943W        W25700  13.123  43.895  12.042
61944W        W25701   3.272  24.189  14.310
61945W        W25702  14.797   1.789  10.457
61946W        W25703  20.160   3.263   3.312
61947W        W25704  38.903  25.553  10.625
61948W        W25705  18.751  22.068  13.926
61949W        W25706  35.925   6.857   0.250
61950W        W25707  10.643  18.177   4.833
61951W        W25708   0.428  29.094   4.273
61952W        W25709  24.027   2.383   3.824
61953W        W25710  17.767  18.722   0.817
61954W        W25711   0.884  26.044   0.870
61955W        W25712  37.558  12.305  10.559
61956W        W25713   8.836   5.433   4.348
61957W        W25714  31.989  21.026   1.361
61958W        W25715  44.968   5.371   0.331
61959W        W25716  10.746  18.622   0.822
61960W        W25717  20.084  23.222  11.587
61961W        W25718  31.561  43.961   4.763
61962W        W25719  24.067  42.824  10.898
61963W        W25720  44.824  11.853   1.869
61964W        W25721  39.043  20.679   4.300
61965W        W25722  16.745   4.928  10.903
61966W        W25723  14.320  41.865  11.951
61967W        W25724  19.213  40.023   1.719
61968W        W25725  43.876  38.863   0.434
61969W        W25726  36.368  37.446   3.217
61970W        W25727   7.193  31.980  11.863
61971W        W25728  15.234  10.231   0.290
61972W        W25729  22.687  43.943  12.949
61973W        W25730  17.669  28.027   1.804
61974W        W25731  38.440  29.506   2.861
61975W        W25732  42.491  28.556  13.547
61976W        W25733  23.109  34.016   1.377
61977W        W25734   3.829   4.446   4.654
61978W        W25735  20.708  42.386  12.485
61979W        W25736  32.891  18.115   0.367
61980W        W25737   5.226   5.339  12.053
61981W        W25738  37.533  32.909  12.401
61982W        W25739  19.598  11.638   3.702
61983W        W25740  19.612  28.495  12.577
61984W        W25741  37.038  27.152  13.497
61985W        W25742  16.654   2.904   1.240
61986W        W25743   6.777  40.335  14.886
61987W        W25744  41.023  27.618  11.927
61988W        W25745  30.013  34.889  12.518
61989W        W25746  24.607  27.636   4.176
61990W        W25747   2.904   9.647  11.859
61991W        W25748  37.976   9.753   3.289
61992W        W25749  44.292   7.398   0.373
61993W        W25750  31.914  14.706  12.023
61994W        W25751  13.282  27.653  12.975
61995W        W25752   3.850   5.195  11.952
61996W        W25753  39.008  19.571   0.850
61997W        W25754   9.194  26.997  13.502
61998W        W25755  29.963  39.991   0.871
61999W        W25756  38.841  43.767   1.730
62000W        W25757  30.543  12.690   0.317
62001W        W25758   5.919  17.130   5.161
62002W        W25759  41.380  43.929   4.200
62003W        W25760  28.484  38.523   4.217
62004W        W25761  11.838  12.293  11.534
62005W        W25762   4.305  41.980   3.837
62006W        W25763  36.953  30.111  11.941
62007W        W25764   2.870  28.957   3.780
62008W        W25765  16.170  20.522   4.157
62009W        W25766  35.010  18.633  14.849
62010W        W25767  35.044  15.177   3.159
62011W        W25768  40.849  36.411  12.408
62012W        W25769  33.447  37.954   4.244
62013W        W25770   6.789   1.398   0.762
62014W        W25771  37.350  26.534  14.994
62015W        W25772  16.154  23.080  11.456
62016W        W25773  32.405  27.124   3.720
62017W        W25774   8.226  41.903   0.479
62018W        W25775  24.649   3.733   0.764
62019W        W25776  19.277  13.812   1.214
62020W        W25777  44.925   9.813   0.771
62021W        W25778  38.902  16.639  10.949
62022W        W25779   3.737  15.593  13.799
62023W        W25780  32.910   6.771  13.319
62024W        W25781   3.805  32.575   1.303
62025W        W25782  26.546  19.698   0.953
62026W        W25783  38.840   5.764  13.319
62027W        W25784  44.781   9.360   0.816
62028W        W25785  16.702  36.376   2.898
62029W        W25786   4.287  19.271  14.837
62030W        W25787  35.949  30.423   0.759
62031W        W25788   2.412   6.777   0.431
62032W        W25789  41.536   4.279   3.795
62033W        W25790   3.336  30.950   2.192
62034W        W25791  43.838  20.746   4.127
62035W        W25792  26.151   6.788  14.460
62036W        W25793  22.725   5.850   4.609
62037W        W25794  30.569  19.234  11.119
62038W        W25795  23.653  43.333  12.448
62039W        W25796   0.266  21.173   2.202
62040W        W25797  20.658  13.723  13.034
62041W        W25798  39.857  14.157  11.437
62042W        W25799  10.244  14.166   3.363
62043W        W25800  39.001  35.454   4.265
62044W        W25801  41.483  17.150  12.883
62045W        W25802  15.675  39.333  10.434
62046W        W25803  34.936  33.616   4.332
62047W        W25804   8.779  30.553  13.340
62048W        W25805  22.165   7.255   2.194
62049W        W25806  14.660   1.281  11.057
62050W        W25807   5.775  17.768   3.782
62051W        W25808  31.125  44.796  13.381
62052W        W25809  10.821  27.171   2.833
62053W        W25810   1.914  23.524  12.043
62054W        W25811  32.407  13.672   2.699
62055W        W25812  35.105   6.421  13.438
62056W        W25813   7.870   3.288   4.165
62057W        W25814  33.402  33.515   1.900
62058W        W25815  40.549  30.032   3.633
62059W        W25816  20.719   5.374  14.386
62060W        W25817  25.007  19.225   2.784
62061W        W25818  37.336  13.130   3.379
62062W        W25819  18.784  32.475   2.843
62063W        W25820  22.215  42.787   2.756
62064W        W25821  32.890  32.010   0.866
62065W        W25822   9.183   1.328   4.768
62066W        W25823  42.388  21.703  11.011
62067W        W25824  10.825  41.425  12.438
62068W        W25825  21.701  10.366   3.806
62069W        W25826  20.689   8.672   5.289
62070W        W25827  11.725  37.420   0.449
62071W        W25828  44.924   0.983   4.305
62072W        W25829   0.268  44.835  14.509
62073W        W25830  36.519  18.101  12.489
62074W        W25831  34.944  41.296   1.377
62075W        W25832   4.256  12.362  13.041
62076W        W25833  15.620  20.219  14.769
62077W        W25834  26.571  15.700  14.921
62078W        W25835  12.347  18.267  14.918
62079W        W25836  15.308  44.957  14.868
62080W        W25837  14.806  23.062  11.475
62081W        W25838  37.931  13.719   2.214
62082W        W25839  21.042  32.511  14.846
62083W        W25840  27.974  12.122   4.728
62084W        W25841  27.119  19.106   1.350
62085W        W25842  39.885  21.171  12.016
62086W        W25843   5.839   5.346  14.356
62087W        W25844  15.282  13.658  12.860
62088W        W25845  15.646   7.403   2.853
62089W        W25846  43.823  21.151   1.431
62090W        W25847  24.114  12.778  10.576
62091W        W25848  22.664   3.797  10.122
62092W        W25849   3.358  15.163  10.572
62093W        W25850  42.901  18.581  12.888
62094W        W25851  33.437  17.159   4.717
62095W        W25852  19.631  17.197  12.024
62096W        W25853  11.301  17.767  13.045
62097W        W25854  25.045  24.595  14.016
62098W        W25855  15.214  11.718   0.786
62099W        W25856   5.409  17.767   2.708
62100W        W25857  19.151  34.932  11.564
62101W        W25858  29.080   1.443   1.836
62102W        W25859  21.146  11.200   4.189
62103W        W25860   6.710  20.534  14.336
62104W        W25861   6.390   9.233   0.411
62105W        W25862  29.009  11.366  11.405
62106W        W25863   6.261   2.302  11.594
62107W        W25864  10.252   6.422   1.362
62108W        W25865   4.854  13.625   1.408
62109W        W25866  33.016  38.906   1.850
62110W        W25867  16.628  34.570   4.666
62111W        W25868  33.464  26.202   0.950
62112W        W25869  29.030  32.978  11.389
62113W        W25870  38.938  29.092  13.354
62114W        W25871  25.537  22.651   3.828
62115W        W25872   2.303  36.934   2.301
62116W        W25873  27.080  36.434   1.908
62117W        W25874  42.434  22.071  12.388
62118W        W25875   3.721  18.718  13.003
62119W        W25876   6.840   4.376  11.976
62120W        W25877  42.948  31.549   1.312
62121W        W25878  11.737   6.860   2.884
62122W        W25879  12.615  17.172   0.783
62123W        W25880  24.648  34.449  14.876
62124W        W25881  39.891  16.283  10.538
62125W        W25882  16.617  12.361   1.722
62126W        W25883  37.527   2.918   1.420
62127W        W25884   0.423  42.875   2.224
62128W        W25885  32.482  28.481  12.410
62129W        W25886  31.480  21.038   0.292
62130W        W25887   5.744  31.974  11.908
62131W        W25888  44.448   9.873   0.783
62132W        W25889  44.942  32.617   4.667
62133W        W25890  44.314  12.250  12.429
62134W        W25891  27.495  15.723   0.290
62135W        W25892  26.660  44.382  13.969
62136W        W25893  25.128   2.882  10.550
62137W        W25894   6.759  33.984  12.019
62138W        W25895   3.922  28.530   1.327
62139W        W25896  31.016   2.828  13.906
62140W        W25897   9.738   7.673   2.663
62141W        W25898  22.725  15.658   0.373
62142W        W25899  44.792  42.371   3.172
62143W        W25900  37.358   1.483   1.327
62144W        W25901  25.070  22.710  14.355
62145W        W25902  19.744  16.246   4.784
62146W        W25903  37.947  14.247   0.741
62147W        W25904  32.461  24.705  11.968
62148W        W25905  40.013   3.758  11.545
62149W        W25906  30.958  39.390   4.792
62150W        W25907  10.825   0.920   0.854
62151W        W25908  44.894   0.406  12.986
62152W        W25909  22.029  41.334  11.067
62153W        W25910  34.892  11.730  13.861
62154W        W25911   9.724  22.064   0.770
62155W        W25912  25.219  25.098   0.355
62156W        W25913   2.886  33.951  10.628
62157W        W25914  27.097  32.984   3.236
62158W        W25915  17.182  41.391   4.599
62159W        W25916  28.087  30.601  14.399
62160W        W25917  24.229  20.123   3.827
62161W        W25918   9.824   7.782  12.016
62162W        W25919   7.386  40.479   1.929
62163W        W25920  37.461  13.665   0.924
62164W        W25921  30.079  25.208  13.940
62165W        W25922  33.090   1.746  10.027
62166W        W25923  29.980  23.055   4.121
62167W        W25924  25.107  21.719  12.425
62168W        W25925   0.378  23.106   1.745
62169W        W25926  32.890  36.923   2.204
62170W        W25927  44.842  30.486  11.431
62171W        W25928  13.662   4.734   4.612
62172W        W25929   3.278  14.698   4.268
62173W        W25930  39.965  24.718  13.351
62174W        W25931  15.302   4.285   2.816
62175W        W25932   8.352   2.410   2.744
62176W        W25933  44.259  21.055   2.701
62177W        W25934   8.241   5.396   1.874
62178W        W25935  42.338  19.730   2.311
62179W        W25936  11.272  34.031  12.508
62180W        W25937   5.838  25.503   3.728
62181W        W25938  18.293  19.074   4.279
62182W        W25939  14.706   0.885   0.967
62183W        W25940   5.826   4.223   1.298
62184W        W25941  42.962  36.365  13.458
62185W        W25942  36.382  33.053   1.749
62186W        W25943  16.245  25.168  10.887
62187W        W25944  18.259   6.353  10.451
62188W        W25945  11.826  37.422   1.313
62189W        W25946  41.021  36.027  10.609
62190W        W25947   0.442  12.280   3.182
62191W        W25948  44.942  28.589  11.003
62192W        W25949  27.495  30.571   3.247
62193W        W25950  31.606  37.849  12.446
62194W        W25951  33.565   1.812  11.108
62195W        W25952  30.425   7.829  11.096
62196W        W25953   4.390  18.287   3.685
62197W        W25954  22.623  24.616   1.902
62198W        W25955  33.004  16.730  12.525
62199W        W25956  35.379  12.804   3.715
62200W        W25957  21.559  24.222  11.036
62201W        W25958   9.238  32.557  11.055
62202W        W25959  28.971  10.186  12.934
62203W        W25960   9.710  24.701   0.388
62204W        W25961  16.142   4.818   1.747
62205W        W25962  24.530  16.694  13.427
62206W        W25963   4.380  44.355   2.675
62207W        W25964  25.046  14.597   3.812
62208W        W25965  40.825  33.409  13.064
62209W        W25966  32.501  42.457   0.873
62210W        W25967  24.045  15.299   3.280
62211W        W25968   2.365  24.507   1.236
62212W        W25969   3.414   8.895   2.378
62213W        W25970  22.605   3.872  13.970
62214W        W25971  17.744  15.199  12.384
62215W        W25972  40.872  21.259  12.941
62216W        W25973  20.527  33.577  14.993
62217W        W25974  43.859  31.448   4.282
62218W        W25975  38.562   5.227  14.796
62219W        W25976  18.207   4.282  12.054
62220W        W25977  13.173  42.418  11.551
62221W        W25978  11.205  28.999  12.399
62222W        W25979   9.744  25.999   1.372
62223W        W25980  15.238  23.227  13.491
62224W        W25981   8.242  36.966   1.697
62225W        W25982  44.918  23.206  10.981
62226W        W25983  24.990   0.983  14.308
62227W        W25984   7.363   8.224   3.715
62228W        W25985  44.446  13.171  14.912
62229W        W25986  17.735  44.943  12.983
62230W        W25987  31.402  18.726   2.798
62231W        W25988  42.371  12.795  10.441
62232W        W25989  29.148  33.459   4.255
62233W        W25990  21.584   8.353  13.909
62234W        W25991   7.905   6.292  14.903
62235W        W25992  39.904   1.407  11.436
62236W        W25993  13.699  15.145   2.213
62237W        W25994   1.878  17.666  14.471
62238W        W25995  33.454   7.785   5.138
62239W        W25996  11.816  34.437   2.857
62240W        W25997  30.565  31.920   4.207
62241W        W25998   4.911  44.851  12.546
62242W        W25999  27.168  29.133  12.825
62243W        W26000  41.907  44.825   0.343
62244W        W26001  26.571  34.045   1.285
62245W        W26002  29.174  39.943  12.525
62246W        W26003   7.255  17.195  14.972
62247W        W26004  38.850  35.371   3.357
62248W        W26005  34.468   2.966   3.175
62249W        W26006  28.645  44.965   3.864
62250W        W26007   3.236  34.614  14.885
62251W        W26008  32.893   7.333  12.560
62252W        W26009  28.990   4.801   1.445
62253W        W26010  21.730  17.787   3.294
62254W        W26011  24.219  32.091   4.804
62255W        W26012  11.203   1.744   1.698
62256W        W26013  22.233  17.100  10.912
62257W        W26014  44.776  34.976  14.455
62258W        W26015  32.595  15.633  10.009
62259W        W26016  31.442   9.390  10.411
62260W        W26017   6.881  34.997   4.205
62261W        W26018  37.892  38.890  14.366
62262W        W26019   3.901  31.980   2.757
62263W        W26020  41.804  36.010  14.386
62264W        W26021   6.260  43.392   0.318
62265W        W26022   7.803  24.189  10.975
62266W        W26023  28.470  42.947  14.990
62267W        W26024   4.289   6.768   1.321
62268W        W26025  15.124  19.249  12.986
62269W        W26026  31.567   4.737   3.310
62270W        W26027  44.011  18.781  12.976
62271W        W26028  24.670  18.653   1.294
62272W        W26029  42.436  43.329   0.339
62273W        W26030  25.102  15.323   3.842
62274W        W26031  12.663  34.998   4.614
62275W        W26032  24.998  38.049  13.445
62276W        W26033  25.697   7.803  11.417
62277W        W26034  10.209  17.306  12.384
62278W        W26035  18.106   9.154   2.776
62279W        W26036  24.612  34.042   3.846
62280W        W26037  15.750   6.792   5.139
62281W        W26038  11.777  40.929   3.821
62282W        W26039  44.494   2.887   2.899
62283W        W26040  15.099   1.369   4.246
62284W        W26041  36.963   9.806   1.821
62285W        W26042   6.830   9.199  14.028
62286W        W26043  19.255  14.213  11.565
62287W        W26044  29.454  28.526  13.862
62288W        W26045   7.416  36.920  11.053
62289W        W26046  27.644  26.116  14.922
62290W        W26047  36.528  26.117   3.326
62291W        W26048  28.598  32.886   2.384
62292W        W26049  40.376  41.947  12.066
62293W        W26050  19.600  23.508   3.314
62294W        W26051  27.031  19.216   0.785
62295W        W26052  11.185  28.498  13.826
62296W        W26053  15.589  11.360   0.904
62297W        W26054  14.650  15.679  10.109
62298W        W26055   8.278  26.509  11.527
62299W        W26056   3.297  11.340   2.714
62300W        W26057  18.597   6.727   4.204
62301W        W26058  36.524   7.715   4.809
62302W        W26059  44.836  14.818  13.429
62303W        W26060  18.100  22.597   4.291
62304W        W26061  28.059   0.435  14.898
62305W        W26062  26.052   3.403  11.925
62306W        W26063  18.224  40.026  14.505
62307W        W26064  40.938  28.654   0.761
62308W        W26065  19.270  23.031  11.951
62309W        W26066   9.753   6.762   2.790
62310W        W26067   2.430  28.463   0.299
62311W        W26068  35.370  39.554   2.696
62312W        W26069  13.675  24.174   3.254
62313W        W26070  18.167  23.149   0.833
62314W        W26071  40.413  33.618   1.285
62315W        W26072  40.878  27.028  13.933
62316W        W26073   0.389  42.917   3.372
62317W        W26074   2.268  42.946  11.022
62318W        W26075  37.461  15.228  12.376
62319W        W26076  34.004  22.595   0.483
62320W        W26077   7.689  44.489  10.507
62321W        W26078  13.722  27.026   3.693
62322W        W26079  31.491   7.190   0.771
62323W        W26080  37.974  26.167   4.222
62324W        W26081  32.630  15.783   1.732
62325W        W26082  44.440  44.923   0.314
62326W        W26083  42.455  18.566   4.235
62327W        W26084  34.471  28.178  12.964
62328W        W26085  41.031  18.672   4.139
62329W        W26086  12.214   5.816   1.420
62330W        W26087   7.851  44.772   0.322
62331W        W26088  39.418   6.677  13.909
62332W        W26089  39.829  14.709   2.353
62333W        W26090  22.059   9.851  14.975
62334W        W26091  38.850  31.112   4.782
62335W        W26092  12.779  32.528  14.826
62336W        W26093  15.687  28.610   4.630
62337W        W26094   4.408  20.640   0.754
62338W        W26095  25.550  19.162  10.944
62339W        W26096  11.253   8.318   3.380
62340W        W26097  40.921  32.394  11.505
62341W        W26098  22.067  41.952   1.303
62342W        W26099  20.524  10.167   2.764
62343W        W26100  31.555  35.932  10.446
62344W        W26101  15.723  24.038  10.469
62345W        W26102  27.571   8.196  11.433
62346W        W26103  19.257   8.700  12.522
62347W        W26104  32.541   3.336  14.294
62348W        W26105  31.575  35.497  13.026
62349W        W26106   2.311  22.673   4.687
62350W        W26107  34.513  44.811  12.399
62351W        W26108   2.430  32.092  13.904
62352W        W26109   7.376  43.978  14.439
62353W        W26110  39.860  28.531  11.457
62354W        W26111  15.278  22.115   0.292
62355W        W26112   2.457  10.260  13.829
62356W        W26113  14.270  25.021  12.464
62357W        W26114  40.037  32.946  12.938
62358W        W26115   1.876  35.098   0.419
62359W        W26116  13.794   3.325   2.699
62360W        W26117  33.526  19.535  13.022
62361W        W26118  25.206  27.524  12.844
62362W        W26119  34.474  37.983  10.642
62363W        W26120  17.773  17.067  14.383
62364W        W26121  23.139  42.934  12.829
62365W        W26122  23.026  27.552  13.810
62366W        W26123  40.350  39.967   1.818
62367W        W26124  31.627  36.875  14.380
62368W        W26125  19.620  19.579  13.489
62369W        W26126  41.517  14.187   4.272
62370W        W26127  25.663   1.767   4.312
62371W        W26128  40.410  41.525   2.680
62372W        W26129  37.412  41.886  13.884
62373W        W26130  32.549   6.805  11.439
62374W        W26131  14.183   4.765  11.023
62375W        W26132  23.057  30.422  14.296
62376W        W26133  27.681  37.357   4.642
62377W        W26134  40.321  27.032   1.931
62378W        W26135  31.088  10.333  14.815
62379W        W26136  41.906  24.495  14.366
62380W        W26137  16.172  42.519  14.418
62381W        W26138  27.969  19.185  14.476
62382W        W26139   1.274  15.296  13.540
62383W        W26140   0.264  27.601   0.336
62384W        W26141  39.947  25.971  14.297
62385W        W26142   8.889  14.618  10.426
62386W        W26143  42.854  28.655  13.422
62387W        W26144  40.381  42.976   3.262
62388W        W26145  33.537   2.748   1.743
62389W        W26146  14.750  31.635  12.467
62390W        W26147  38.054  27.979   4.624
62391W        W26148  43.919  14.780  11.558
62392W        W26149  34.422  29.463  10.916
62393W        W26150   1.926  14.702  13.822
62394W        W26151  31.129   2.229   1.332
62395W        W26152   6.798  39.838  11.951
62396W        W26153   8.805  21.645  14.360
62397W        W26154  22.103  41.849   3.315
62398W        W26155  15.642  43.341  11.073
62399W        W26156  31.609  33.968  13.015
62400W        W26157  43.772  19.252  10.431
62401W        W26158  11.836  29.556  13.812
62402W        W26159   7.760  13.196  14.981
62403W        W26160   4.249  11.763  14.876
62404W        W26161  17.775  29.657   3.783
62405W        W26162  25.077  20.648   1.332
62406W        W26163  24.532   5.279   4.253
62407W        W26164   9.183  18.052   2.317
62408W        W26165   8.279  28.934  14.828
62409W        W26166   9.206  34.587   1.796
62410W        W26167  24.064  21.105   5.180
62411W        W26168  24.086  30.426   5.138
62412W        W26169   8.166  20.234   4.230
62413W        W26170  30.960  37.557   4.220
62414W        W26171  43.825  41.874   2.242
62415W        W26172  39.363  32.568  13.356
62416W        W26173  40.344  15.699   0.266
62417W        W26174  21.709  26.017   1.334
62418W        W26175  38.897   2.955  12.364
62419W        W26176  19.598  10.858  13.485
62420W        W26177  17.690  31.000  13.001
62421W        W26178  28.004   9.886   1.241
62422W        W26179  27.958   7.777  11.898
62423W        W26180  41.479  32.636   4.172
62424W        W26181  42.948  32.076  12.960
62425W        W26182  30.542  13.773   3.771
62426W        W26183  36.967  29.516  14.488
62427W        W26184  36.960  20.119  14.319
62428W        W26185  33.543  15.611   2.898
62429W        W26186   8.307   0.367  12.890
62430W        W26187  27.647  32.406  12.918
62431W        W26188  19.677  34.403  13.862
62432W        W26189   1.352  16.802   0.862
62433W        W26190   2.903  21.151  12.423
62434W        W26191  37.833  36.881  12.963
62435W        W26192  43.346   3.387  10.981
62436W        W26193  31.603   4.936  10.452
62437W        W26194  15.253  19.142   4.818
62438W        W26195  20.597  42.009  11.101
62439W        W26196   5.878  26.954   1.812
62440W        W26197  39.548  14.630   1.446
62441W        W26198  11.243  38.466   2.246
62442W        W26199  27.669   2.309  12.089
62443W        W26200  40.979  30.623   2.204
62444W        W26201   2.793  21.166  11.855
62445W        W26202   8.304  38.937  11.998
62446W        W26203  17.579  30.432   4.121
62447W        W26204  10.651  24.073   3.669
62448W        W26205  19.643  14.602  13.316
62449W        W26206  43.501  36.383  13.352
62450W        W26207  24.164   3.227   1.790
62451W        W26208   0.471  38.962   2.276
62452W        W26209  43.801   4.424   3.243
62453W        W26210  37.886  30.419  12.472
62454W        W26211  27.458  32.390  11.968
62455W        W26212  14.825  29.144   0.870
62456W        W26213  30.922  12.320   3.840
62457W        W26214  39.865  41.853  12.487
62458W        W26215  38.537  29.482   3.223
62459W        W26216  32.018  43.918  10.564
62460W        W26217  35.986  37.547  11.456
62461W        W26218  36.524  21.592   1.234
62462W        W26219   9.383  42.856   5.199
62463W        W26220  42.426  20.619   0.477
62464W        W26221  17.717  27.161   4.184
62465W        W26222  28.565  18.636  13.968
62466W        W26223   6.267  38.829   4.648
62467W        W26224  34.996  16.102   2.275
62468W        W26225  33.511  26.120  13.394
62469W        W26226   1.779  22.706   4.702
62470W        W26227  15.640  10.831   4.349
62471W        W26228  14.288   2.251   3.350
62472W        W26229  20.540   9.655  13.514
62473W        W26230  19.780  23.082   2.743
62474W        W26231   7.735  14.115   4.798
62475W        W26232  11.321  16.273  13.351
62476W        W26233  12.756  19.231  14.322
62477W        W26234  28.932  17.269   1.858
62478W        W26235  40.396   3.414   3.712
62479W        W26236  10.803   0.905  13.041
62480W        W26237   2.382   7.335   2.258
62481W        W26238  43.789  25.015  14.837
62482W        W26239  39.996  21.177  12.578
62483W        W26240  33.124  10.831   0.927
62484W        W26241   3.421   9.388  12.497
62485W        W26242  23.034  34.415   9.539
62486W        W26243  14.705  18.182  10.430
62487W        W26244  31.030  18.255  10.550
62488W        W26245  27.501  16.733   1.705
62489W        W26246   1.443   8.264   4.648
62490W        W26247  34.113  23.614   4.623
62491W        W26248  32.932  18.248   4.678
62492W        W26249  31.065   6.754  12.987
62493W        W26250   0.872  12.249   1.831
62494W        W26251  22.147   3.720  14.877
62495W        W26252   1.966   4.767  11.593
62496W        W26253  40.002  30.531  11.588
62497W        W26254  39.404  43.459  10.454
62498W        W26255   4.779  26.597  14.759
62499W        W26256  17.619  36.877  12.994
62500W        W26257  13.187   1.317  12.339
62501W        W26258   4.368  14.283  13.462
62502W        W26259  43.434  15.645  13.860
62503W        W26260  21.521   8.387   0.263
62504W        W26261   3.904  25.066   0.777
62505W        W26262  24.496  28.635   4.195
62506W        W26263  35.589  38.861   0.817
62507W        W26264  44.933  23.189   3.709
62508W        W26265  13.140  34.428  13.431
62509W        W26266  33.596  11.337  12.837
62510W        W26267  13.766  37.472   4.307
62511W        W26268  41.871   1.450   0.257
62512W        W26269  37.888  42.973  10.918
62513W        W26270   4.266  35.565   4.203
62514W        W26271  13.606  34.422   3.351
62515W        W26272  34.468  43.827   4.273
62516W        W26273   0.263  33.429  10.456
62517W        W26274  21.209  38.892   4.352
62518W        W26275   3.861  28.041  11.004
62519W        W26276  15.615   6.849  11.561
62520W        W26277  19.270  38.862   2.332
62521W        W26278  28.114  39.397   4.732
62522W        W26279  32.101   7.753  14.278
62523W        W26280  25.190  29.669  14.900
62524W        W26281  43.864  31.538  14.921
62525W        W26282   7.398   4.862   1.390
62526W        W26283   3.943  24.520   0.829
62527W        W26284  21.653  31.970  14.832
62528W        W26285   3.848  26.009   4.603
62529W        W26286  38.530  26.692   0.407
62530W        W26287  39.847  29.554   0.343
62531W        W26288  22.714  32.997   0.848
62532W        W26289   0.277  37.441  13.890
62533W        W26290  23.618  26.109  12.064
62534W        W26291  18.633  44.903  12.043
62535W        W26292  26.574  24.549   4.807
62536W        W26293   8.333  13.287  14.318
62537W        W26294  24.511  32.999  11.901
62538W        W26295  11.212  24.575  11.382
62539W        W26296  38.400  26.130  13.355
62540W        W26297  44.309  20.632  11.925
62541W        W26298   2.372   8.293  11.914
62542W        W26299  23.512  35.527   1.269
62543W        W26300  18.750  22.732   1.435
62544W        W26301  29.007  13.171   1.260
62545W        W26302  31.471   4.825   5.288
62546W        W26303  11.654  31.527   1.438
62547W        W26304   2.851   0.871  11.532
62548W        W26305  24.012   7.308   1.726
62549W        W26306  14.642   9.643   3.755
62550W        W26307   3.343   4.312  14.018
62551W        W26308  14.769  18.182   4.681
62552W        W26309  40.017  10.346   2.330
62553W        W26310  11.635  33.458  13.821
62554W        W26311  16.711  16.164   2.357
62555W        W26312  27.148  39.845  11.422
62556W        W26313  12.617  33.474  11.605
62557W        W26314  14.211  25.161   1.711
62558W        W26315  12.819  15.816  14.286
62559W        W26316  39.910  29.150  13.049
62560W        W26317   8.762   0.953   2.197
62561W        W26318  37.401  44.900  10.457
62562W        W26319  18.587  12.804   4.327
62563W        W26320   8.394  33.053   1.867
62564W        W26321  14.104   1.839   3.679
62565W        W26322  26.667  23.124   0.961
62566W        W26323   8.354   7.705  13.820
62567W        W26324  26.208   0.428   1.299
62568W        W26325  25.563  41.326  10.149
62569W        W26326  10.334  24.981  12.872
62570W        W26327   4.387  34.392   4.799
62571W        W26328  19.720  24.225   2.682
62572W        W26329   5.780  14.790   1.314
62573W        W26330   9.751  28.095  14.446
62574W        W26331  16.797  15.273   1.702
62575W        W26332   8.779  33.918  14.366
62576W        W26333   5.338  12.647   3.711
62577W        W26334   7.263  24.664   3.805
62578W        W26335  38.560   8.304   2.229
62579W        W26336  24.208  36.593   1.304
62580W        W26337   2.843  40.841  14.002
62581W        W26338  14.709  41.003   3.379
62582W        W26339   5.283   0.327  11.555
62583W        W26340  10.684   3.293  12.372
62584W        W26341  32.005   1.368  12.056
62585W        W26342   2.364  27.549  12.471
62586W        W26343  42.978  19.762  14.766
62587W        W26344  34.584   1.458   3.741
62588W        W26345  15.767  19.223  11.951
62589W        W26346   3.925  19.698  12.061
62590W        W26347   4.313  33.029   4.343
62591W        W26348  26.488  22.702  13.932
62592W        W26349   8.354  41.820   1.792
62593W        W26350  21.617  34.601   1.811
62594W        W26351  15.792   1.947   2.313
62595W        W26352  15.729  25.140  10.459
62596W        W26353  10.267  34.040  12.976
62597W        W26354   7.835  37.004   0.308
62598W        W26355  22.516  12.353  10.571
62599W        W26356  24.087  10.269  11.883
62600W        W26357  17.781  44.924   4.604
62601W        W26358  40.522  41.791   0.905
62602W        W26359   6.290  41.855   4.620
62603W        W26360   9.699  23.516  14.852
62604W        W26361  37.060  37.951   1.292
62605W        W26362  22.142  16.781   0.745
62606W        W26363  18.071  25.187  13.444
62607W        W26364  13.826  38.856   2.803
62608W        W26365  19.082  25.605  11.472
62609W        W26366  16.691  27.944   0.791
62610W        W26367   9.164  29.930   2.719
62611W        W26368   9.788   6.841  10.620
62612W        W26369  34.561  22.030  13.002
62613W        W26370  22.668  21.084   1.700
62614W        W26371  31.950  24.092  10.603
62615W        W26372  36.525   3.249   0.317
62616W        W26373  19.259  29.478  12.447
62617W        W26374  21.697  35.883   9.928
62618W        W26375   5.249  31.613   2.732
62619W        W26376  25.572  12.673  13.039
62620W        W26377  23.078  39.026  14.913
62621W        W26378  13.264  14.231   4.612
62622W        W26379   6.784  17.618   4.799
62623W        W26380  18.745  18.686   4.838
62624W        W26381  31.544   3.412   1.793
62625W        W26382  32.124  26.987  14.836
62626W        W26383  22.236  39.496  11.469
62627W        W26384  43.797   3.914  11.974
62628W        W26385   3.311  31.580   3.710
62629W        W26386  25.023  44.971   1.261
62630W        W26387  13.609  14.234   2.881
62631W        W26388  18.706   7.206  10.895
62632W        W26389  37.842  40.433   2.858
62633W        W26390  20.247   9.713   2.680
62634W        W26391  20.736  13.178   4.642
62635W        W26392  23.128   7.897   4.697
62636W        W26393  33.623   9.762   4.122
62637W        W26394  42.418   7.887  13.457
62638W        W26395  34.038   3.803   3.781
62639W        W26396  37.895  41.917   0.789
62640W        W26397  29.046  25.675  14.766
62641W        W26398  13.273  17.253   0.794
62642W        W26399  21.730  38.486   4.120
62643W        W26400  42.456  22.672  11.048
62644W        W26401  33.380  16.301   0.806
62645W        W26402   7.799  14.111  12.034
62646W        W26403  28.456  30.625  10.505
62647W        W26404   2.243   3.446   5.090
62648W        W26405  29.049  32.948   0.427
62649W        W26406  35.011   1.766  11.495
62650W        W26407  31.062  33.415   0.779
62651W        W26408  31.451  32.011   5.168
62652W        W26409  27.127  27.110   0.311
62653W        W26410  44.294  18.170  13.926
62654W        W26411  19.644   2.271  11.916
62655W        W26412  20.203   4.830   4.190
62656W        W26413  43.864   5.354   4.310
62657W        W26414   4.415  34.455   2.204
62658W        W26415  40.008  39.370   0.781
62659W        W26416  11.721   7.686   0.307
62660W        W26417  38.361   0.840  13.799
62661W        W26418  41.952  16.603   2.715
62662W        W26419   8.229   7.227   3.225
62663W        W26420   4.398   6.852   4.143
62664W        W26421  37.013  13.811  10.538
62665W        W26422  23.667  35.411   4.262
62666W        W26423  17.662  20.059  12.883
62667W        W26424  28.933  33.990   3.717
62668W        W26425   9.311  35.501   1.364
62669W        W26426  40.917  35.499  14.347
62670W        W26427  22.602  42.354  11.996
62671W        W26428  34.006   3.871  13.486
62672W        W26429  12.145   6.768   0.444
62673W        W26430  18.702  19.166  12.555
62674W        W26431   9.322  35.410   2.690
62675W        W26432   5.814  43.343   3.706
62676W        W26433   0.395  30.415   2.807
62677W        W26434  15.147  12.350  13.929
62678W        W26435   0.366  27.574  14.020
62679W        W26436  25.708  15.304  12.070
62680W        W26437  16.266  20.039   4.200
62681W        W26438   1.870  30.005   3.793
62682W        W26439  15.253  40.808   2.710
62683W        W26440  11.724   7.343   1.916
62684W        W26441  37.570  38.527  13.527
62685W        W26442   1.935  29.921  13.494
62686W        W26443  33.442   1.744  14.503
62687W        W26444   5.197  12.698   1.426
62688W        W26445   2.814  40.431   0.743
62689W        W26446  23.167   4.863  14.917
62690W        W26447  36.362  12.772   2.226
62691W        W26448  34.370   3.941  10.994
62692W        W26449   8.702  26.540  14.437
62693W        W26450  27.036  11.670  13.365
62694W        W26451  41.331  24.547  13.347
62695W        W26452   1.435  21.054   0.257
62696W        W26453  29.588  43.462  11.570
62697W        W26454   5.888  36.564   3.319
62698W        W26455  12.822   3.251  11.052
62699W        W26456  14.627  40.428  12.403
62700W        W26457  42.327   7.302  14.356
62701W        W26458  36.435  29.458   5.138
62702W        W26459  14.758  43.804   4.191
62703W        W26460  19.651  23.501   0.299
62704W        W26461  38.384   0.409  12.387
62705W        W26462  15.670  35.551  14.405
62706W        W26463  24.661  27.093  11.104
62707W        W26464  34.431  12.199  12.572
62708W        W26465  37.507  33.551   1.441
62709W        W26466  31.641  37.554  10.581
62710W        W26467  15.243  14.828   3.386
62711W        W26468  30.545  18.674  11.498
62712W        W26469  28.017  16.802   9.980
62713W        W26470   4.911  43.780   4.324
62714W        W26471  40.016   5.439  14.011
62715W        W26472   8.857  35.861  11.502
62716W        W26473  16.573  17.294   4.254
62717W        W26474   9.846  15.722  13.895
62718W        W26475  31.916  43.880  10.077
62719W        W26476  12.677  11.209   1.813
62720W        W26477  15.176  16.631  13.819
62721W        W26478  36.383   1.911   1.330
62722W        W26479   5.734  38.033   3.687
62723W        W26480   7.744  24.073  13.326
62724W        W26481  10.304  23.029   3.679
62725W        W26482  28.127   8.701   3.190
62726W        W26483  22.145   5.296  12.843
62727W        W26484  41.960  30.471   3.774
62728W        W26485  25.974  16.285   3.849
62729W        W26486  40.891   5.888   4.625
62730W        W26487   1.765  17.628  12.992
62731W        W26488   1.360  44.783   2.301
62732W        W26489   6.837  27.657  11.411
62733W        W26490  36.053   2.811   0.288
62734W        W26491  18.150  30.913   2.838
62735W        W26492   4.411  39.902  10.415
62736W        W26493   6.916   9.260  11.962
62737W        W26494   5.201   6.705   3.693
62738W        W26495   9.242  14.762   2.850
62739W        W26496  37.871  23.100   1.754
62740W        W26497  29.994  20.623  11.381
62741W        W26498  44.958   8.683  14.362
62742W        W26499  36.011  28.000  14.368
62743W        W26500  36.412  18.218   3.190
62744W        W26501  35.091  24.484  12.870
62745W        W26502  17.799  35.578   1.291
62746W        W26503  13.340  35.944   4.707
62747W        W26504  28.670  29.595   3.350
62748W        W26505  25.628  34.519   3.774
62749W        W26506  13.626  26.094  11.391
62750W        W26507  26.654  36.843   4.247
62751W        W26508   5.336   2.460  10.626
62752W        W26509  18.236  13.692  12.446
62753W        W26510  43.275  37.951   3.201
62754W        W26511  40.859  32.954  14.845
62755W        W26512   4.206   6.860  10.593
62756W        W26513  15.729   9.390   4.248
62757W        W26514   8.772  40.966  11.023
62758W        W26515  11.183  16.253  10.896
62759W        W26516  17.096  29.463  13.499
62760W        W26517  25.545  16.169   9.978
62761W        W26518  35.559  40.835  10.452
62762W        W26519  38.052  19.071   1.697
62763W        W26520  22.018   2.909   0.909
62764W        W26521  31.468  16.216  10.418
62765W        W26522  27.089  39.374  11.449
62766W        W26523  34.020  19.039   3.263
62767W        W26524  29.946  18.124  12.369
62768W        W26525   1.732  11.862  10.623
62769W        W26526  17.800   4.450  14.763
62770W        W26527  36.930  40.546  10.965
62771W        W26528   4.409  37.554  12.915
62772W        W26529  33.571  16.733  13.336
62773W        W26530  36.467  34.882   0.929
62774W        W26531  35.493   9.812   2.254
62775W        W26532   4.390  19.645   0.785
62776W        W26533   2.815  25.049  12.433
62777W        W26534  40.020  19.627   0.930
62778W        W26535  21.077  26.970   0.890
62779W        W26536  35.990  37.968  10.490
62780W        W26537  26.676  13.746  12.844
62781W        W26538  43.892  41.367  12.420
62782W        W26539  31.902  38.487   3.245
62783W        W26540  30.110   0.923   2.384
62784W        W26541  20.096   6.317  10.567
62785W        W26542  29.589  41.516  11.570
62786W        W26543   3.327  42.909   3.248
62787W        W26544  37.005  19.599  14.394
62788W        W26545  12.317   8.790  14.953
62789W        W26546  39.817   9.281  14.785
62790W        W26547  22.530  10.688  11.996
62791W        W26548   9.786   0.286   4.203
62792W        W26549  10.254   1.429  13.004
62793W        W26550  18.610  32.519   3.718
62794W        W26551  37.035  13.198  10.960
62795W        W26552   6.325  35.882  14.433
62796W        W26553  17.130  25.537   2.372
62797W        W26554   6.399  29.118   4.822
62798W        W26555   1.259  34.582  12.874
62799W        W26556   5.291  44.996  12.863
62800W        W26557  11.621   3.790  11.508
62801W        W26558  38.527   2.814   3.310
62802W        W26559   5.278  32.462  13.853
62803W        W26560  31.561  39.817   4.194
62804W        W26561  39.009  24.079   1.356
62805W        W26562   6.815  36.593   4.760
62806W        W26563   6.770   1.757   0.270
62807W        W26564  36.378  19.719  14.822
62808W        W26565  21.569  10.637  13.017
62809W        W26566  13.609  44.440  14.950
62810W        W26567  30.619  37.411  13.923
62811W        W26568   3.850  21.561  11.915
62812W        W26569  10.373  40.832   0.931
62813W        W26570  22.147  40.836  13.983
62814W        W26571  28.138  39.935  11.866
62815W        W26572  16.671  33.570   2.240
62816W        W26573  34.880  43.498  11.401
62817W        W26574  22.717  17.664  11.045
62818W        W26575  18.151  33.019  12.080
62819W        W26576  38.033  40.914   4.306
62820W        W26577  24.021  44.321   3.290
62821W        W26578  16.199   9.344   2.312
62822W        W26579  36.475  24.207  11.585
62823W        W26580   2.230  36.855   0.953
62824W        W26581   6.753  14.155   0.296
62825W        W26582  32.509  28.515   0.733
62826W        W26583   8.310   9.326  14.328
62827W        W26584  15.612  42.420   3.180
62828W        W26585  40.967   5.252  11.932
62829W        W26586  35.511  27.555  10.927
62830W        W26587  37.943   7.238   1.886
62831W        W26588  19.744   4.423   4.814
62832W        W26589  37.527  28.524   2.708
62833W        W26590  25.071  41.490   0.266
62834W        W26591  32.581  24.979  11.585
62835W        W26592  22.018  37.356   1.319
62836W        W26593  22.734   6.871   1.339
62837W        W26594  19.082  17.289  13.361
62838W        W26595   5.203  12.282  12.561
62839W        W26596   6.781  33.507   2.253
62840W        W26597  35.004  10.742   2.239
62841W        W26598  37.082  38.363  13.898
62842W        W26599  16.687  33.949   4.344
62843W        W26600  44.002  23.161  14.801
62844W        W26601  24.659  43.990  11.482
62845W        W26602  23.160   2.948  13.349
62846W        W26603  18.112  11.259  13.333
62847W        W26604  30.564  42.009  13.311
62848W        W26605  27.941  35.883   0.732
62849W        W26606   1.419  35.396   4.206
62850W        W26607  37.960  31.634  13.543
62851W        W26608   0.364  22.069   2.701
62852W        W26609   6.885  29.145  11.918
62853W        W26610  23.235  21.707   1.823
62854W        W26611   2.351  26.972   2.256
62855W        W26612  21.124  41.319   2.880
62856W        W26613  16.739  44.267  14.971
62857W        W26614   0.464   3.371  11.537
62858W        W26615  30.427  30.009  12.465
62859W        W26616  28.654  29.599  11.991
62860W        W26617   0.886  36.844  10.476
62861W        W26618  18.775   1.815   4.245
62862W        W26619  27.459  30.596  12.440
62863W        W26620   3.804   0.813  13.412
62864W        W26621   4.241  28.165  10.987
62865W        W26622  17.611  24.068   4.688
62866W        W26623  14.116  14.333   3.302
62867W        W26624  17.178  39.846  12.983
62868W        W26625  13.299  24.973   4.217
62869W        W26626  11.363  14.715   2.835
62870W        W26627  33.516   1.860   1.378
62871W        W26628  21.163  44.286   1.890
62872W        W26629   0.327  30.130  14.822
62873W        W26630  12.258  38.919  10.586
62874W        W26631  28.000  21.544  10.579
62875W        W26632  39.846  18.554  14.974
62876W        W26633  37.879   9.664  10.894
62877W        W26634  27.649  13.338   1.737
62878W        W26635  16.147   2.264  13.831
62879W        W26636  22.055  10.162   0.961
62880W        W26637  28.159  11.626   4.707
62881W        W26638   1.832  24.488  14.849
62882W        W26639   4.358  15.729   4.785
62883W        W26640  34.094  35.378  12.464
62884W        W26641  23.031  28.140  11.433
62885W        W26642   1.811  41.790   2.399
62886W        W26643   0.258  27.976   2.844
62887W        W26644  10.370  29.134   9.986
62888W        W26645   4.925  23.200   3.666
62889W        W26646  28.569  19.599   4.712
62890W        W26647  10.684  39.532  10.895
62891W        W26648  41.985  41.989   1.765
62892W        W26649  24.222  13.632   1.226
62893W        W26650   2.250   1.297   1.229
62894W        W26651  25.487  28.975   0.768
62895W        W26652  35.052  32.955   1.314
62896W        W26653  24.570  30.125   3.276
62897W        W26654   1.824  25.570   3.150
62898W        W26655   0.893  35.056   3.638
62899W        W26656  40.346  17.704   2.690
62900W        W26657  35.035   0.944   3.850
62901W        W26658  13.166  16.767  13.319
62902W        W26659  36.579  28.028   0.386
62903W        W26660  25.684  38.509   0.245
62904W        W26661  38.544  26.549   4.785
62905W        W26662  41.978  28.508   0.247
62906W        W26663   8.184  37.996   1.909
62907W        W26664  37.908  23.631  11.902
62908W        W26665  36.865  41.023   0.740
62909W        W26666   3.426  24.127  13.357
62910W        W26667   8.807  22.230  12.579
62911W        W26668  27.197   3.399  10.546
62912W        W26669  34.105   0.836   0.401
62913W        W26670  29.947  35.508   2.901
62914W        W26671  11.818  16.595  10.134
62915W        W26672  18.092  30.961  13.002
62916W        W26673  18.071  35.489   4.251
62917W        W26674  33.962  19.655  14.312
62918W        W26675  31.612   1.841   1.380
62919W        W26676  33.394  38.922   2.372
62920W        W26677  25.067  39.001   4.220
62921W        W26678   6.798  14.211  12.991
62922W        W26679   0.429  17.800  13.394
62923W        W26680  36.547  30.559   2.331
62924W        W26681  30.631   7.779   2.701
62925W        W26682  34.576  36.508   4.228
62926W        W26683  43.351   7.399   2.689
62927W        W26684  23.134  31.911  12.383
62928W        W26685  24.133  18.127   2.824
62929W        W26686  39.032  24.123   3.336
62930W        W26687  44.459  29.454   4.341
62931W        W26688  11.278   1.435   0.469
62932W        W26689  16.304   4.281  14.000
62933W        W26690  18.693  35.372  12.400
62934W        W26691  13.333  13.262  14.872
62935W        W26692   2.898   3.951  12.984
62936W        W26693  20.228  35.422   4.199
62937W        W26694  28.053  44.482   2.232
62938W        W26695  14.748   5.392   3.327
62939W        W26696  36.431   1.969  13.536
62940W        W26697  24.194  18.611  14.827
62941W        W26698   5.813  42.908   0.825
62942W        W26699  30.948  40.965   4.673
62943W        W26700  16.177  15.778  12.092
62944W        W26701  16.758  30.531  11.436
62945W        W26702  31.541  21.048   4.198
62946W        W26703   0.818   8.257  11.599
62947W        W26704   9.237  29.573  13.927
62948W        W26705  19.674  32.567   3.845
62949W        W26706  26.488   9.674   3.845
62950W        W26707  22.132  43.416   0.782
62951W        W26708  18.649   6.733  10.542
62952W        W26709  43.948  19.068   2.813
62953W        W26710  31.151  24.720   1.301
62954W        W26711  38.999  11.758   3.289
62955W        W26712  17.573  40.538  13.416
62956W        W26713  26.619  38.336   5.173
62957W        W26714  33.995  19.268   4.681
62958W        W26715   5.757  40.888   0.397
62959W        W26716  24.517  18.662   3.646
62960W        W26717  35.582  20.241  11.067
62961W        W26718  28.024  44.436  12.941
62962W        W26719  33.961  22.123  10.526
62963W        W26720  42.438  12.171   2.760
62964W        W26721  35.978  17.677   2.299
62965W        W26722   5.764  33.452   3.290
62966W        W26723   8.320  30.085   2.224
62967W        W26724   4.359   3.911  11.109
62968W        W26725  38.365  18.219   0.394
62969W        W26726   9.706  10.686   0.958
62970W        W26727  29.945   8.345   3.725
62971W        W26728  17.617  24.004  14.835
62972W        W26729  18.673   0.282   3.647
62973W        W26730  27.979   4.311   9.931
62974W        W26731  22.043  25.121   1.252
62975W        W26732  16.099  44.460  12.943
62976W        W26733  41.995  16.110   3.296
62977W        W26734  27.591  18.611   0.394
62978W        W26735  15.218   0.793   4.176
62979W        W26736  22.611  11.650  13.438
62980W        W26737  44.791   3.821   3.255
62981W        W26738   0.843  20.035   0.442
62982W        W26739  31.456  29.101   1.337
62983W        W26740  16.802  13.810  14.473
62984W        W26741  32.122  14.128  10.137
62985W        W26742  17.251  27.974  10.427
62986W        W26743  11.128  26.141   3.827
62987W        W26744  32.932  11.224   0.249
62988W        W26745  23.657  18.291  13.453
62989W        W26746  40.422  23.193  14.897
62990W        W26747  23.124  37.917   0.426
62991W        W26748  41.900  40.353   2.832
62992W        W26749  23.095  11.711  12.089
62993W        W26750  13.245  29.173   1.395
62994W        W26751  33.937   3.461   2.872
62995W        W26752  10.225   9.275  11.046
62996W        W26753   1.401  42.834   3.765
62997W        W26754  13.700  36.579   4.282
62998W        W26755  33.010  39.940   2.346
62999W        W26756  13.620  41.011   1.308
63000W        W26757  28.636  17.184   5.236
63001W        W26758  14.767  10.364  12.859
63002W        W26759  25.042  20.647  12.387
63003W        W26760  21.683  22.039   3.173
63004W        W26761  19.189  27.150   3.651
63005W        W26762  20.528  41.393   0.420
63006W        W26763  31.557  37.364  13.879
63007W        W26764  37.029   9.167  11.494
63008W        W26765  24.077   1.937   4.120
63009W        W26766  36.564  44.787   4.215
63010W        W26767  28.454  18.570   3.700
63011W        W26768  27.019   9.186  11.612
63012W        W26769  33.617  26.596  14.002
63013W        W26770  38.966  18.063  13.366
63014W        W26771  13.663  41.447   9.931
63015W        W26772   8.317  29.107   3.839
63016W        W26773   4.420  41.001  13.058
63017W        W26774  41.883  15.702  14.793
63018W        W26775  31.512  32.986  12.988
63019W        W26776  33.494  31.122  14.031
63020W        W26777  30.163  29.530   2.221
63021W        W26778  14.212  18.555   1.278
63022W        W26779  25.024  10.747   3.314
63023W        W26780  43.852  12.203   0.922
63024W        W26781  38.496  28.947  11.978
63025W        W26782  40.955  34.095  13.918
63026W        W26783  44.755  35.935  12.952
63027W        W26784  22.611  26.629   1.288
63028W        W26785  15.707  33.920   4.660
63029W        W26786  43.884  21.739  10.405
63030W        W26787  28.550  42.948   1.912
63031W        W26788  12.800  43.364   5.118
63032W        W26789  22.547  20.046  11.027
63033W        W26790   4.426  33.915  11.037
63034W        W26791  15.119  28.564   1.240
63035W        W26792  26.523  24.081   2.679
63036W        W26793   8.375  42.509   5.205
63037W        W26794  10.302  34.426  10.997
63038W        W26795  18.661  27.980  12.953
63039W        W26796  16.177  17.233  13.449
63040W        W26797  19.560  39.002  10.912
63041W        W26798  32.900   4.830   2.397
63042W        W26799  44.413  42.283   4.628
63043W        W26800  35.510  23.544  10.527
63044W        W26801  14.160  31.007   3.767
63045W        W26802   2.768  38.430  11.933
63046W        W26803  25.169   1.413   2.317
63047W        W26804  20.060   1.346   0.967
63048W        W26805  22.739  38.906  10.419
63049W        W26806  14.337  10.335   3.821
63050W        W26807  34.471  39.963   2.868
63051W        W26808  24.041  35.057   4.259
63052W        W26809  40.387  37.830  11.973
63053W        W26810  15.663  18.721   0.347
63054W        W26811   6.404   9.842  11.510
63055W        W26812  25.220   3.307  12.515
63056W        W26813  34.088  26.146   2.711
63057W        W26814  43.793  38.827   2.405
63058W        W26815  33.433  41.515  12.406
63059W        W26816  28.109  22.607  13.496
63060W        W26817  31.124  28.467  12.540
63061W        W26818   4.902  10.757   3.297
63062W        W26819  26.610  26.047   5.291
63063W        W26820   9.240   0.925   4.152
63064W        W26821  23.607  24.124  11.943
63065W        W26822   2.447  14.790   4.139
63066W        W26823  26.697  11.147   0.750
63067W        W26824  17.072  12.147   1.845
63068W        W26825  10.859  30.961   3.780
63069W        W26826  23.030  41.827  12.907
63070W        W26827  20.241  42.519  11.408
63071W        W26828   5.915  14.719   3.764
63072W        W26829  33.515  29.663  11.400
63073W        W26830  38.426  11.227   1.341
63074W        W26831  34.415  38.360   0.311
63075W        W26832   9.374  23.686   3.744
63076W        W26833  44.823   6.228   3.163
63077W        W26834   5.841  33.433   3.657
63078W        W26835  30.077   1.438  10.480
63079W        W26836  30.055  19.738  10.413
63080W        W26837  29.513  30.641  12.066
63081W        W26838  29.500  28.557  13.049
63082W        W26839  32.087  30.946  14.798
63083W        W26840  26.015  25.572   0.271
63084W        W26841  44.345  13.678   3.658
63085W        W26842  34.064  10.338   3.297
63086W        W26843  21.572  41.439   2.722
63087W        W26844  22.224   6.850  14.948
63088W        W26845   6.778   4.311   0.944
63089W        W26846  26.199  40.800   0.807
63090W        W26847  24.068  26.520  10.084
63091W        W26848  37.040  32.601   4.606
63092W        W26849   6.842   1.763   2.742
63093W        W26850  13.827  23.547  13.492
63094W        W26851  39.021  23.167  13.356
63095W        W26852   5.230  26.954  13.520
63096W        W26853   4.791   4.711   1.889
63097W        W26854  29.592   2.376  14.462
63098W        W26855  15.265  20.240   3.810
63099W        W26856  41.476  35.501   2.180
63100W        W26857  39.436  21.134  12.364
63101W        W26858  19.736  29.168   1.427
63102W        W26859  41.416   8.764   2.200
63103W        W26860  31.116  15.183   1.752
63104W        W26861  10.187  13.241   0.795
63105W        W26862  15.620  21.205   0.253
63106W        W26863  13.784  24.003  14.867
63107W        W26864   6.382  19.599  14.013
63108W        W26865  44.894  13.138   4.267
63109W        W26866  19.538   6.715  13.053
63110W        W26867  22.234  30.552   2.309
63111W        W26868  31.047  15.776   4.717
63112W        W26869  13.331  20.157   1.397
63113W        W26870  26.517  35.498  14.880
63114W        W26871  25.709  31.601   0.764
63115W        W26872  23.128  25.094  12.028
63116W        W26873  31.527  15.269  12.888
63117W        W26874  18.181   3.793  13.051
63118W        W26875  13.712   5.350   0.908
63119W        W26876  42.918  27.942  13.349
63120W        W26877  41.498  25.677  13.494
63121W        W26878  15.593  27.055   1.885
63122W        W26879   3.846  16.247   2.708
63123W        W26880  31.554  42.003  14.469
63124W        W26881  33.067   3.949   3.170
63125W        W26882  36.431  42.404  12.451
63126W        W26883  41.034  33.586  14.773
63127W        W26884  24.021   5.750  14.013
63128W        W26885  43.447  21.756   3.663
63129W        W26886   0.361  11.304   0.826
63130W        W26887  43.500   7.183  10.907
63131W        W26888  40.825  38.350   2.342
63132W        W26889  40.541  14.783  12.009
63133W        W26890  19.654   8.687  10.622
63134W        W26891  24.141  27.663  11.513
63135W        W26892  21.247  29.017  12.927
63136W        W26893  34.565  21.557  10.614
63137W        W26894  16.139  33.599  11.111
63138W        W26895   6.876  30.013   0.899
63139W        W26896   4.398  10.253   3.863
63140W        W26897  18.746  21.682  11.541
63141W        W26898  44.792  29.515  13.056
63142W        W26899  18.138  21.206  10.058
63143W        W26900  25.965  23.555  13.477
63144W        W26901  17.068  21.543  14.972
63145W        W26902   4.782  19.282   1.832
63146W        W26903  28.538  11.140   2.376
63147W        W26904   4.414  16.099   3.312
63148W        W26905  21.211  30.930   3.238
63149W        W26906  15.322  17.252   3.167
63150W        W26907   9.872  25.545  11.085
63151W        W26908   4.941  21.110  13.056
63152W        W26909   5.867  33.068   4.625
63153W        W26910  38.040  31.905   5.158
63154W        W26911   8.372  18.189   0.857
63155W        W26912  12.120  19.087  14.019
63156W        W26913  44.376  29.430   3.638
63157W        W26914  21.607  19.570   0.954
63158W        W26915  33.938  39.029   9.960
63159W        W26916  34.082  43.331   1.899
63160W        W26917  30.031   2.834  14.794
63161W        W26918   5.379  39.036   1.719
63162W        W26919  39.949  40.018   3.714
63163W        W26920  35.952  16.644   2.335
63164W        W26921  42.852  37.414   1.854
63165W        W26922  13.650  13.606   3.207
63166W        W26923  36.863  18.734  10.612
63167W        W26924  25.502  18.154  10.591
63168W        W26925  20.618  25.619  11.478
63169W        W26926  30.641  40.404  12.990
63170W        W26927   4.421  25.086  10.556
63171W        W26928  14.138   2.286   2.794
63172W        W26929  21.595  33.979   0.878
63173W        W26930  19.758  24.483   4.243
63174W        W26931  41.353  42.384  10.587
63175W        W26932  39.481  14.692  11.979
63176W        W26933  37.521  27.533   3.738
63177W        W26934  17.620  19.059   3.161
63178W        W26935  36.446  19.726  12.855
63179W        W26936  37.389  29.495   0.732
63180W        W26937  18.585  31.099   1.394
63181W        W26938   7.774   7.711  14.005
63182W        W26939   1.732  13.206  14.873
63183W        W26940   2.255  41.964  10.601
63184W        W26941   3.369  33.575  14.899
63185W        W26942  44.001  27.049  10.577
63186W        W26943  14.653   4.271   4.634
63187W        W26944  11.332  25.981   1.349
63188W        W26945  38.923   9.798   4.337
63189W        W26946   2.262  43.015  14.780
63190W        W26947  16.582  11.325   1.284
63191W        W26948  37.527  29.067  10.904
63192W        W26949  40.014  23.146   1.225
63193W        W26950  10.231   3.835   4.686
63194W        W26951  15.317  34.404   3.854
63195W        W26952  12.856   6.817   4.788
63196W        W26953  19.679  22.056   2.341
63197W        W26954  40.337  19.612   0.828
63198W        W26955  44.758  18.145   0.732
63199W        W26956  27.098  37.573   0.465
63200W        W26957  16.771  12.827  14.432
63201W        W26958  16.741  44.331   9.658
63202W        W26959  36.437  38.952   1.409
63203W        W26960  12.701  38.475  12.979
63204W        W26961  23.537  34.606  13.446
63205W        W26962   4.720  12.772   0.919
63206W        W26963  25.680  34.533  11.956
63207W        W26964  13.827  30.108  12.962
63208W        W26965   6.891  42.944   3.698
63209W        W26966  23.153   0.458   4.765
63210W        W26967  28.583  42.001  10.601
63211W        W26968  42.820  12.806   0.818
63212W        W26969  16.783  42.349   0.936
63213W        W26970  24.561  10.163   1.323
63214W        W26971  12.145  13.292   4.704
63215W        W26972   0.897  23.628  13.415
63216W        W26973  16.129  26.683   0.824
63217W        W26974  40.313   6.869   0.244
63218W        W26975  22.156   8.206  14.374
63219W        W26976   2.949  30.469  12.360
63220W        W26977   7.187   0.939   2.375
63221W        W26978   1.457  41.024   0.767
63222W        W26979  26.622  43.984   1.899
63223W        W26980   9.770  27.041   4.725
63224W        W26981  35.029  42.990   9.975
63225W        W26982  36.986   0.872   2.383
63226W        W26983  32.077  33.446  12.902
63227W        W26984  10.751   5.325   0.967
63228W        W26985  37.017   0.298   1.845
63229W        W26986  18.771  40.509   2.817
63230W        W26987  15.139  39.061  13.896
63231W        W26988  21.629  20.061   1.744
63232W        W26989  40.046  31.534   3.243
63233W        W26990  21.219  42.502  14.300
63234W        W26991  13.680  13.706  11.069
63235W        W26992  28.571  39.968  12.868
63236W        W26993   1.958  13.346   1.412
63237W        W26994  10.727   2.761  12.512
63238W        W26995  17.282  28.550   2.280
63239W        W26996   8.264  33.071  13.427
63240W        W26997  25.542  37.905  12.980
63241W        W26998   2.344  34.063   4.709
63242W        W26999  14.186  33.583   3.771
63243W        W27000   0.494   6.824   0.445
63244W        W27001  25.119  38.884   3.191
63245W        W27002  25.124  14.628  10.405
63246W        W27003   1.328  11.324   2.767
63247W        W27004  20.719  34.983  14.021
63248W        W27005  25.062  41.417   2.242
63249W        W27006  35.468   2.457  13.856
63250W        W27007   6.318  37.515  14.403
63251W        W27008  25.154  41.432  11.012
63252W        W27009  23.160   9.774  14.939
63253W        W27010  38.404  10.207   0.332
63254W        W27011  44.944   3.266   2.752
63255W        W27012  21.644  38.418   1.219
63256W        W27013  22.225   4.867   5.175
63257W        W27014  18.295  39.039  10.417
63258W        W27015   0.918   5.315   1.231
63259W        W27016  39.396  28.476   3.161
63260W        W27017  17.594   0.273   2.336
63261W        W27018  23.575  15.812   3.367
63262W        W27019   1.445  32.960  10.912
63263W        W27020   7.683   9.198  11.973
63264W        W27021  37.055  43.451  13.536
63265W        W27022  26.144  31.941  12.401
63266W        W27023  30.544  43.972   0.754
63267W        W27024  34.910  29.620  12.397
63268W        W27025  34.542   7.728   4.337
63269W        W27026   8.836  15.230   3.188
63270W        W27027   3.938  10.145  12.512
63271W        W27028  17.724  25.592  11.556
63272W        W27029  30.062  29.931   1.765
63273W        W27030  29.565  30.513  11.038
63274W        W27031  18.258   7.315   2.841
63275W        W27032  11.791  27.652  14.024
63276W        W27033  30.509   4.258  13.924
63277W        W27034  10.219  43.919  10.631
63278W        W27035  13.236  33.051  11.529
63279W        W27036  35.857  43.491   2.724
63280W        W27037  12.292  30.908  10.521
63281W        W27038  29.555  35.361  13.314
63282W        W27039  16.145  15.764  14.514
63283W        W27040   3.396  31.098   1.219
63284W        W27041  11.342   2.314  14.888
63285W        W27042  21.561  37.899   1.336
63286W        W27043  39.448  28.648  14.976
63287W        W27044  15.136   9.747   2.409
63288W        W27045   6.241  34.488   3.340
63289W        W27046  39.821  38.480  14.829
63290W        W27047   5.743  23.101   2.280
63291W        W27048  24.228  23.023   1.748
63292W        W27049   0.813  35.876   1.336
63293W        W27050   1.959   9.375  11.411
63294W        W27051  13.200   2.772   1.767
63295W        W27052  32.463  28.674  13.060
63296W        W27053  17.282  16.094   1.373
63297W        W27054  13.623  36.420  14.895
63298W        W27055  14.630  12.638  14.937
63299W        W27056   1.888  34.495   4.282
63300W        W27057  14.780  41.994   0.754
63301W        W27058  18.616  30.432   1.326
63302W        W27059  35.600   3.373   9.981
63303W        W27060  19.154   5.370   2.236
63304W        W27061  18.710   8.770  12.446
63305W        W27062  44.408  21.139  10.997
63306W        W27063  44.971  41.295  10.910
63307W        W27064   7.718  21.235   2.364
63308W        W27065  10.657  26.963  10.957
63309W        W27066   4.768   8.161  13.838
63310W        W27067  40.351  12.615   3.737
63311W        W27068  35.492  37.939   4.242
63312W        W27069  36.045  22.020  14.772
63313W        W27070  43.280  16.298   1.904
63314W        W27071  40.883  43.368   1.841
63315W        W27072  17.195  43.448   1.804
63316W        W27073  32.497  30.500   2.403
63317W        W27074  27.669  41.033  11.009
63318W        W27075   4.333  43.936   0.746
63319W        W27076   7.212  38.428   1.402
63320W        W27077  41.435  38.456  13.993
63321W        W27078  12.158   6.420  11.008
63322W        W27079  34.942  44.415  10.907
63323W        W27080   8.176   8.231  13.027
63324W        W27081  13.153  17.578  12.467
63325W        W27082  37.523   3.828   5.130
63326W        W27083  41.000  32.944  13.384
63327W        W27084  15.593   8.276   1.773
63328W        W27085   7.879   2.346  14.799
63329W        W27086  34.900   5.856   2.180
63330W        W27087  42.422  42.380   3.306
63331W        W27088  25.166  32.888  12.570
63332W        W27089  34.582  31.493   4.676
63333W        W27090  32.141  42.836  11.963
63334W        W27091  29.590  18.128  10.626
63335W        W27092  42.350  36.392   3.688
63336W        W27093  25.118  41.026  10.988
63337W        W27094  11.311  20.195   0.324
63338W        W27095   0.824   1.937  11.484
63339W        W27096  17.159  25.541   3.243
63340W        W27097  34.574  30.583   0.945
63341W        W27098  28.122  40.922  10.972
63342W        W27099  24.154   6.400   0.773
63343W        W27100  33.916   2.367  11.460
63344W        W27101  23.594   5.920   2.357
63345W        W27102  18.188   9.719   2.792
63346W        W27103  28.490  31.102  12.502
63347W        W27104  29.980  28.540   1.330
63348W        W27105  21.107  24.090  14.420
63349W        W27106  30.087  10.152   3.162
63350W        W27107  22.504  41.948   2.686
63351W        W27108  30.452  19.080  14.868
63352W        W27109  23.042   6.885  14.958
63353W        W27110   9.367  33.465   3.168
63354W        W27111  17.778   0.425   3.298
63355W        W27112   9.294  34.449   4.684
63356W        W27113  22.540  24.507  11.047
63357W        W27114  29.632  30.492  14.937
63358W        W27115   3.458  37.576  12.057
63359W        W27116  20.704  42.331  13.441
63360W        W27117  25.038  30.103  11.529
63361W        W27118  10.829  30.462   0.367
63362W        W27119  24.714   6.201   1.438
63363W        W27120   7.336  24.634  10.933
63364W        W27121   0.297  23.218  11.386
63365W        W27122   3.789  37.540   1.707
63366W        W27123  14.294  18.787  12.537
63367W        W27124  23.569  20.203  11.018
63368W        W27125  40.303  42.372   0.744
63369W        W27126   8.382  20.112   0.422
63370W        W27127  10.694  17.287   3.777
63371W        W27128  41.866  22.730  12.547
63372W        W27129  33.974  16.708   2.850
63373W        W27130  29.022  44.273   4.814
63374W        W27131  26.205  25.628   0.919
63375W        W27132  37.450  36.967  12.546
63376W        W27133   9.165   5.288  10.508
63377W        W27134  36.583  28.489  11.099
63378W        W27135   4.343  35.878  14.282
63379W        W27136   7.731   0.338  12.966
63380W        W27137  32.598   6.743   3.714
63381W        W27138  33.435  14.808  13.324
63382W        W27139   6.835  39.384   4.148
63383W        W27140  21.660  18.749   3.181
63384W        W27141   5.382  25.586  14.850
63385W        W27142  22.737  22.127  12.455
63386W        W27143   1.349  15.240  12.949
63387W        W27144  30.506  25.611  13.888
63388W        W27145  44.985  43.359  11.566
63389W        W27146  23.628  36.569  10.092
63390W        W27147   7.388  12.713  12.343
63391W        W27148  31.931   9.378   2.240
63392W        W27149  35.418  10.284  13.527
63393W        W27150  32.415  19.604   5.313
63394W        W27151  16.591  16.677  13.430
63395W        W27152  10.366  42.315  10.949
63396W        W27153   5.925   8.899  10.981
63397W        W27154   2.887  32.893  13.928
63398W        W27155  41.367  28.507   2.760
63399W        W27156  16.707   7.792  13.325
63400W        W27157  34.483  42.433   0.468
63401W        W27158  22.112  32.439  10.903
63402W        W27159  12.650  31.623  11.100
63403W        W27160  37.936  13.258  12.994
63404W        W27161  33.597  15.760  11.855
63405W        W27162  12.329  35.467   4.787
63406W        W27163  38.829  41.442  10.411
63407W        W27164  10.148   5.344   0.305
63408W        W27165  28.067   5.802   0.365
63409W        W27166  20.758  24.195  11.612
63410W        W27167  14.278   6.882  14.434
63411W        W27168  38.502  37.491  14.968
63412W        W27169  27.496   0.932   1.770
63413W        W27170   3.381  22.548  12.536
63414W        W27171   2.381  19.769   1.919
63415W        W27172  15.301   6.818  14.894
63416W        W27173   9.710  31.432  13.424
63417W        W27174   1.828  32.899  11.983
63418W        W27175   7.775  43.837   0.290
63419W        W27176  30.059  16.573  10.454
63420W        W27177  36.555  27.497   0.759
63421W        W27178  15.296  35.054  14.970
63422W        W27179  21.137  39.903  10.520
63423W        W27180  14.666   4.724   0.392
63424W        W27181  27.138  10.156  14.907
63425W        W27182  44.258  20.216   2.398
63426W        W27183  12.783  24.490   0.425
63427W        W27184  12.152  11.807  14.446
63428W        W27185   1.813  24.223  12.991
63429W        W27186  12.692   8.852   5.169
63430W        W27187  26.030   2.798  14.360
63431W        W27188   3.730  12.361   2.706
63432W        W27189  40.505  23.097  11.478
63433W        W27190  21.155  43.416  13.806
63434W        W27191  34.580  35.027  12.869
63435W        W27192  44.006  16.780   2.263
63436W        W27193  33.513  10.382   2.283
63437W        W27194  27.940  29.443  14.310
63438W        W27195   0.451  33.024   0.434
63439W        W27196  18.733   8.232  10.977
63440W        W27197   5.719   2.253   2.205
63441W        W27198  19.765  15.245   4.640
63442W        W27199  22.141  13.304  13.348
63443W        W27200  35.385  37.532  13.010
63444W        W27201  11.653  16.713   4.630
63445W        W27202  32.450  31.017  12.863
63446W        W27203  31.466  18.563   1.861
63447W        W27204  39.530  36.347   2.294
63448W        W27205  38.007  12.610  14.830
63449W        W27206  35.418  25.989  11.085
63450W        W27207  15.646  10.232   0.319
63451W        W27208   9.179  28.535  10.538
63452W        W27209  32.008  20.086   0.784
63453W        W27210  43.778  16.765  13.528
63454W        W27211   9.734  16.772  13.351
63455W        W27212  16.171  25.698   4.796
63456W        W27213   6.745  15.299   1.779
63457W        W27214   1.816  22.563  11.556
63458W        W27215  19.128  17.096   2.822
63459W        W27216  25.670  18.749   4.701
63460W        W27217  31.482  43.471   2.255
63461W        W27218   1.362  30.112   0.876
63462W        W27219   1.781   5.390   3.694
63463W        W27220  25.212  26.537   2.214
63464W        W27221  15.660  36.529  12.840
63465W        W27222  39.812   7.773   4.691
63466W        W27223  13.599  43.941   1.806
63467W        W27224   2.932  19.208  12.556
63468W        W27225   5.243  22.214  10.643
63469W        W27226  18.582  29.043   0.888
63470W        W27227   4.440   8.789   3.646
63471W        W27228   8.327  34.934  10.633
63472W        W27229  17.103  19.640   5.121
63473W        W27230  25.573   2.741   2.884
63474W        W27231  25.564  14.338   2.793
63475W        W27232  24.514  12.179   0.870
63476W        W27233  12.684  36.496  10.960
63477W        W27234   1.283   3.440  13.911
63478W        W27235   6.727  40.889  13.955
63479W        W27236   6.856  18.272  14.971
63480W        W27237  31.639  24.615  12.019
63481W        W27238  28.046   4.901   4.667
63482W        W27239  30.115  44.912   4.786
63483W        W27240  18.173  32.092   1.381
63484W        W27241  28.993  13.809  10.940
63485W        W27242  14.191  24.503   2.813
63486W        W27243   9.227   6.255   1.369
63487W        W27244  36.846  30.494  14.307
63488W        W27245  44.275  44.407  13.896
63489W        W27246  12.137  24.184  14.886
63490W        W27247  43.892   3.859  10.538
63491W        W27248   4.868  14.728   1.800
63492W        W27249  19.545  44.878   4.310
63493W        W27250   9.850  26.608   0.437
63494W        W27251  14.770  43.468  11.037
63495W        W27252  43.381   1.768   0.949
63496W        W27253  12.723  42.390  11.045
63497W        W27254  17.733  41.514   2.843
63498W        W27255  36.582  31.984  12.480
63499W        W27256   7.346  16.749   4.116
63500W        W27257  16.809  32.575  14.933
63501W        W27258  12.138  35.573  14.382
63502W        W27259  35.402   4.443  10.916
63503W        W27260  21.537   9.238   0.471
63504W        W27261  36.975  17.612   3.653
63505W        W27262  32.450  14.152   2.765
63506W        W27263   7.696  20.587  13.468
63507W        W27264  10.790  21.165  11.416
63508W        W27265  26.203  40.961  13.387
63509W        W27266  36.581  14.775  13.955
63510W        W27267  19.236  44.865   2.755
63511W        W27268  29.068  32.553   1.780
63512W        W27269  15.638   4.735  10.468
63513W        W27270   6.391  20.103  13.439
63514W        W27271  12.772   7.206  12.907
63515W        W27272  17.127  33.588   9.979
63516W        W27273  25.525  28.140   2.819
63517W        W27274  43.399  16.201  11.120
63518W        W27275  16.717  41.867   4.278
63519W        W27276  17.796  39.819   3.164
63520W        W27277   8.738  35.385   1.305
63521W        W27278  37.083  42.294  12.029
63522W        W27279  16.260   1.267  14.883
63523W        W27280  11.283   7.321   2.697
63524W        W27281  35.951  16.611   3.798
63525W        W27282  27.143  26.575   1.774
63526W        W27283  24.614  21.143  12.917
63527W        W27284  41.396  31.137  12.985
63528W        W27285  39.324  22.696  13.870
63529W        W27286  33.908   4.390   0.966
63530W        W27287   1.912  38.520  10.532
63531W        W27288  30.620  10.142  13.388
63532W        W27289  28.437   7.304   0.925
63533W        W27290  43.926  32.934  13.483
63534W        W27291  39.827  33.072   0.855
63535W        W27292  10.838  15.807   0.401
63536W        W27293  43.831  26.662   0.780
63537W        W27294  30.126  44.376   0.831
63538W        W27295  11.341  11.843   3.667
63539W        W27296   2.811  38.377  12.473
63540W        W27297   3.367   0.333  13.854
63541W        W27298  33.908  18.635   1.866
63542W        W27299  16.093  14.651  10.491
63543W        W27300  35.907  14.666  13.055
63544W        W27301   9.149  27.957  14.479
63545W        W27302  42.399  15.235  14.335
63546W        W27303   1.461  39.337  13.927
63547W        W27304   5.911   7.310  10.620
63548W        W27305   9.697  12.623  11.453
63549W        W27306  42.382   2.786  12.947
63550W        W27307  25.191  34.939   0.891
63551W        W27308  26.555  10.718   0.875
63552W        W27309  11.179  18.054   3.225
63553W        W27310  31.992  20.047  14.509
63554W        W27311  25.653  38.382   2.883
63555W        W27312  28.025  31.409   0.742
63556W        W27313  31.641  34.017  13.935
63557W        W27314  13.823   3.220   1.752
63558W        W27315  31.419   0.968  12.580
63559W        W27316  19.713  44.324  13.535
63560W        W27317   7.722  15.126  12.823
63561W        W27318  38.435  21.175  14.837
63562W        W27319  12.751   6.216   4.758
63563W        W27320  35.571  14.743  12.952
63564W        W27321   7.301  21.569  13.862
63565W        W27322   1.784  20.170  10.996
63566W        W27323  25.478  16.188  11.576
63567W        W27324  26.514   7.717  13.332
63568W        W27325  43.771  34.385  14.926
63569W        W27326  13.840  41.517   4.167
63570W        W27327   6.817  32.466  14.920
63571W        W27328  14.687  30.153  11.956
63572W        W27329  35.026  38.971   4.797
63573W        W27330   5.362  39.061   3.647
63574W        W27331  13.728  17.105   0.387
63575W        W27332  17.789   0.330   1.872
63576W        W27333  13.801  17.739   2.345
63577W        W27334  25.564   5.820  13.539
63578W        W27335  28.162  38.924   3.667
63579W        W27336  11.137  20.032   1.714
63580W        W27337   5.196  13.623  14.321
63581W        W27338  43.876  18.594  10.415
63582W        W27339  11.351  19.202   4.737
63583W        W27340   3.878  21.170   3.358
63584W        W27341  32.636  40.546  12.493
63585W        W27342  42.304   1.964   2.838
63586W        W27343  37.552  34.444   1.374
63587W        W27344  18.215  41.387   0.821
63588W        W27345  16.692   9.867  13.369
63589W        W27346  25.144  33.906   3.822
63590W        W27347  33.032  18.256   4.129
63591W        W27348  26.617  29.945   0.401
63592W        W27349  12.116  32.022   0.965
63593W        W27350  36.446   5.349   2.329
63594W        W27351   6.223  42.304   0.438
63595W        W27352  39.423  43.448   0.904
63596W        W27353  10.763  35.466  10.988
63597W        W27354  17.111  31.083   4.795
63598W        W27355  24.146  27.624   0.311
63599W        W27356  41.466  34.048   1.426
63600W        W27357  39.994  42.358  11.566
63601W        W27358  36.951  29.959   2.883
63602W        W27359  37.008  10.263  13.523
63603W        W27360   1.355  23.637  12.908
63604W        W27361  23.095  16.145  12.857
63605W        W27362  38.367  41.956   4.198
63606W        W27363  42.421  38.858  14.014
63607W        W27364  16.197  39.859   4.684
63608W        W27365  36.532  33.416  11.416
63609W        W27366  19.631   9.682  14.791
63610W        W27367   8.276  30.958  11.586
63611W        W27368  31.066   8.840  12.941
63612W        W27369  32.131  42.820   4.693
63613W        W27370  21.603  34.486  14.807
63614W        W27371  27.030  37.836   4.310
63615W        W27372  13.790  26.970  13.890
63616W        W27373   7.722   6.317  13.863
63617W        W27374  18.639  21.591   3.206
63618W        W27375  43.508  33.053  11.980
63619W        W27376  27.059  19.107  14.411
63620W        W27377  19.653  17.698  11.955
63621W        W27378   4.373  13.637  12.552
63622W        W27379  14.244  24.144   0.481
63623W        W27380  38.564  43.000   1.378
63624W        W27381  14.677  37.995   0.908
63625W        W27382  35.384  29.667  13.997
63626W        W27383   0.281  43.398  10.451
63627W        W27384  19.056  21.558   1.273
63628W        W27385   4.447  16.306  11.423
63629W        W27386  31.967  19.571   4.255
63630W        W27387   1.896   3.930   1.279
63631W        W27388  22.015   8.306  10.621
63632W        W27389  12.186  16.623   0.818
63633W        W27390  23.732   7.844  14.861
63634W        W27391  32.630   9.866  10.459
63635W        W27392  42.869  13.122  12.931
63636W        W27393  33.985  11.802  12.924
63637W        W27394  33.462  10.180   3.295
63638W        W27395  11.709  11.138  11.108
63639W        W27396   1.389  24.013   2.833
63640W        W27397   5.694   3.928  11.521
63641W        W27398  40.399  25.632  12.454
63642W        W27399  28.142  23.005   4.167
63643W        W27400  36.532   7.840  12.841
63644W        W27401  44.350  40.395   1.773
63645W        W27402  43.496  29.554   0.289
63646W        W27403  20.088  22.625  12.062
63647W        W27404  16.279  23.571   0.372
63648W        W27405   9.883   4.256   1.775
63649W        W27406  23.190  34.482   5.293
63650W        W27407  18.168  24.502  14.020
63651W        W27408  44.816  16.602   4.280
63652W        W27409  14.594  12.227  11.915
63653W        W27410  41.442  19.191  13.968
63654W        W27411  39.499  12.666   2.397
63655W        W27412   8.889  12.709  14.429
63656W        W27413  31.624  12.644  14.993
63657W        W27414  27.532  32.027   0.280
63658W        W27415  27.073  42.443   0.247
63659W        W27416  44.791  40.505   2.744
63660W        W27417  37.080  26.081   1.767
63661W        W27418  25.542  21.159   1.714
63662W        W27419   2.959  24.714  14.468
63663W        W27420  39.488  39.405   2.725
63664W        W27421  42.932  15.676   4.642
63665W        W27422  13.331  16.296   0.952
63666W        W27423  18.166  12.357   9.633
63667W        W27424  34.485   0.467  11.390
63668W        W27425  34.427  25.211  13.500
63669W        W27426  37.963  40.459  10.905
63670W        W27427  30.510  21.553   3.859
63671W        W27428  40.377  13.824  11.023
63672W        W27429  20.051  39.045   2.817
63673W        W27430   0.393   7.724   3.362
63674W        W27431  36.565  43.902  11.859
63675W        W27432  40.385  43.463   0.302
63676W        W27433  14.111   8.802  10.504
63677W        W27434  31.646   7.745  14.021
63678W        W27435  17.133  17.075   4.664
63679W        W27436  31.618   8.206   2.745
63680W        W27437  32.579  15.250  10.627
63681W        W27438  38.834  25.995   4.173
63682W        W27439   4.779   5.888   4.708
63683W        W27440  29.004  31.625  12.844
63684W        W27441   8.828  33.547   3.638
63685W        W27442  31.903  18.683   0.291
63686W        W27443  31.041  30.464   1.820
63687W        W27444  26.628  30.051  12.481
63688W        W27445  27.586  16.265  12.573
63689W        W27446  35.096  12.330  13.800
63690W        W27447  21.658  42.879  10.953
63691W        W27448  13.676   0.757  13.045
63692W        W27449  27.195   6.363   1.828
63693W        W27450   4.271   1.465   0.868
63694W        W27451  14.273  33.890  14.452
63695W        W27452  23.577  12.701   0.483
63696W        W27453  38.891  32.564  10.532
63697W        W27454   6.702   3.928   3.345
63698W        W27455   1.936  21.573   3.291
63699W        W27456  13.819   4.441  12.436
63700W        W27457  23.228  31.917   4.639
63701W        W27458  10.872   1.347   1.900
63702W        W27459  14.610   6.800   0.857
63703W        W27460  11.237  11.222   0.847
63704W        W27461   3.773  12.221  12.851
63705W        W27462  39.340  35.508   0.367
63706W        W27463  13.303  23.190  14.315
63707W        W27464  17.260  18.079  11.455
63708W        W27465  30.114  13.331   3.348
63709W        W27466  29.514  31.502   0.763
63710W        W27467  34.395  35.475   0.729
63711W        W27468   9.820  42.525   2.409
63712W        W27469   5.361  19.221   1.335
63713W        W27470  43.859  10.209   3.302
63714W        W27471  11.330  29.069  10.534
63715W        W27472  23.152  15.101   0.390
63716W        W27473  31.491  19.673  12.552
63717W        W27474   2.785  31.461  12.443
63718W        W27475  38.521  38.910  13.426
63719W        W27476  22.592  35.971   4.689
63720W        W27477  32.527  22.150   3.191
63721W        W27478  20.155  37.849   0.779
63722W        W27479   7.330  10.175   2.806
63723W        W27480  33.428   1.824  12.941
63724W        W27481  20.051  11.741   1.879
63725W        W27482  17.236  31.590   1.884
63726W        W27483   9.385   0.938   1.815
63727W        W27484  29.608  40.336   0.962
63728W        W27485  15.619  10.808  14.799
63729W        W27486   5.930   0.320  14.329
63730W        W27487  28.574  14.726   0.243
63731W        W27488   2.846  17.156   2.803
63732W        W27489   5.773  22.068  13.997
63733W        W27490  13.290  29.501  14.386
63734W        W27491  28.670   5.274  11.005
63735W        W27492  33.626  35.367   0.739
63736W        W27493  20.205  38.988  14.792
63737W        W27494   3.781   5.401   4.198
63738W        W27495  28.181   4.943  14.473
63739W        W27496  31.933   3.804  14.276
63740W        W27497  23.213  42.872   4.708
63741W        W27498   1.918  36.512  14.515
63742W        W27499  17.258  29.479   2.237
63743W        W27500  11.368  18.191  13.428
63744W        W27501  16.735  36.879  11.399
63745W        W27502  25.036   9.759  12.473
63746W        W27503  31.607  41.491  11.550
63747W        W27504   7.318   4.220   4.262
63748W        W27505  10.818  27.490   3.677
63749W        W27506  10.747  14.264  10.523
63750W        W27507   5.377  37.964   2.668
63751W        W27508  11.270  40.332   3.251
63752W        W27509  26.631  19.609   3.829
63753W        W27510  21.132  36.065  10.141
63754W        W27511  10.825  10.217   3.778
63755W        W27512  28.519  20.766  14.389
63756W        W27513  24.034  15.670  13.029
63757W        W27514  32.623  17.717   1.905
63758W        W27515  34.453   1.422  14.943
63759W        W27516  27.657   3.339   9.959
63760W        W27517  39.867  36.031  12.386
63761W        W27518   2.392   8.389  14.864
63762W        W27519  28.566  29.024  12.903
63763W        W27520  10.335  38.459   0.788
63764W        W27521  41.911   2.880  10.570
63765W        W27522   1.372  27.016  12.078
63766W        W27523  29.142  23.142  14.900
63767W        W27524  25.524  24.674   0.339
63768W        W27525  14.695  42.915  13.878
63769W        W27526  10.376  21.193   4.626
63770W        W27527  29.079  32.027  11.938
63771W        W27528  16.229  30.646   0.348
63772W        W27529  19.673  17.133  13.469
63773W        W27530   1.417  12.165  12.430
63774W        W27531  11.340   5.435  14.015
63775W        W27532  17.078  18.589  12.452
63776W        W27533  22.558  35.362  14.492
63777W        W27534  33.493  19.572   0.944
63778W        W27535  15.590  32.592  14.898
63779W        W27536  32.629   6.826  10.520
63780W        W27537   1.464  21.142  10.509
63781W        W27538  41.303  38.053   1.412
63782W        W27539   8.825  43.866   0.354
63783W        W27540  41.788  27.167   2.243
63784W        W27541  26.117  18.159  14.941
63785W        W27542  21.621  35.448   1.764
63786W        W27543  21.641   3.238   2.293
63787W        W27544  17.175  42.434  13.804
63788W        W27545  38.536  16.286   0.740
63789W        W27546  13.753  13.143  12.364
63790W        W27547  23.182  20.720   1.271
63791W        W27548  16.652  11.709  14.882
63792W        W27549  26.975  37.061  10.899
63793W        W27550  39.831  34.972  13.393
63794W        W27551  18.787  12.125  11.007
63795W        W27552  31.913  17.663  13.540
63796W        W27553  42.517   8.367   0.475
63797W        W27554  27.560   9.737  12.564
63798W        W27555  36.395   4.280  11.971
63799W        W27556  20.218   9.338   0.963
63800W        W27557   5.857  15.139  14.484
63801W        W27558   0.963  27.071  12.398
63802W        W27559   8.178  16.088   2.270
63803W        W27560  15.750  41.532  14.813
63804W        W27561  40.316  22.595   9.967
63805W        W27562   4.363  23.193   4.282
63806W        W27563  38.025   6.339  14.016
63807W        W27564  16.676  14.654  13.512
63808W        W27565  42.385  35.053   0.843
63809W        W27566  33.090   5.879   4.126
63810W        W27567  24.588  26.110   1.719
63811W        W27568  14.202  25.172   4.685
63812W        W27569  19.201  21.092   9.933
63813W        W27570  28.076   2.779   2.195
63814W        W27571  43.922  12.770   2.323
63815W        W27572   0.443  19.135  12.499
63816W        W27573  27.089  41.437   3.679
63817W        W27574  35.870  20.556   4.623
63818W        W27575  30.967   2.959  13.044
63819W        W27576  27.688   6.232   0.771
63820W        W27577   3.804  30.486  14.971
63821W        W27578  25.648   1.959   0.759
63822W        W27579  42.500   2.873   4.305
63823W        W27580   4.287  13.754   2.297
63824W        W27581  14.752   6.366   4.635
63825W        W27582   3.289  19.197  13.502
63826W        W27583  39.912  20.193   0.830
63827W        W27584  33.947  14.698  10.573
63828W        W27585  40.941   3.290  12.034
63829W        W27586   0.775  27.159  13.540
63830W        W27587  15.311  35.038   1.804
63831W        W27588  19.694   1.793  13.970
63832W        W27589  25.969  37.517   1.303
63833W        W27590  22.129  20.744   4.242
63834W        W27591  15.794  26.032   4.707
63835W        W27592  34.963  25.561   0.794
63836W        W27593  16.102  12.333   0.774
63837W        W27594  21.627   7.330  14.010
63838W        W27595  14.109  24.710  14.482
63839W        W27596  31.595  27.190  11.473
63840W        W27597   1.872  18.708   0.264
63841W        W27598   0.857  42.843   0.450
63842W        W27599   6.365  14.813   4.353
63843W        W27600  34.055  21.193  10.558
63844W        W27601   8.716  22.609   3.750
63845W        W27602  17.727  43.984  13.399
63846W        W27603  41.461  22.250   3.693
63847W        W27604  31.974   5.863  10.038
63848W        W27605  24.705  37.424   4.346
63849W        W27606  26.486  19.234   0.729
63850W        W27607  39.365  31.615  12.829
63851W        W27608  31.141  26.540   1.342
63852W        W27609   2.724  22.154  11.110
63853W        W27610  43.418  41.452   1.348
63854W        W27611  41.508  26.634  12.000
63855W        W27612  34.085   8.335   4.632
63856W        W27613  11.140   2.380  11.518
63857W        W27614  35.926  44.975   0.805
63858W        W27615   9.818  29.427  11.079
63859W        W27616  15.787  39.363  11.422
63860W        W27617  44.391  23.060  12.518
63861W        W27618  39.013  42.023   0.281
63862W        W27619  33.999   8.348  10.643
63863W        W27620  26.067  38.939   4.635
63864W        W27621  41.382  29.968   2.357
63865W        W27622   9.661   9.820   3.323
63866W        W27623  33.978  30.464   2.884
63867W        W27624  12.287  32.923  14.894
63868W        W27625  33.893  43.431  14.399
63869W        W27626   8.839  19.118  12.832
63870W        W27627  23.684  23.702  14.997
63871W        W27628  14.623  15.200  11.492
63872W        W27629   4.280  30.077  14.497
63873W        W27630  14.104  14.155   1.319
63874W        W27631  24.551  42.942  13.544
63875W        W27632  41.351  30.079  14.292
63876W        W27633   8.354  20.186  10.897
63877W        W27634   0.742   0.386   4.303
63878W        W27635  44.350  44.931  12.524
63879W        W27636  41.472  37.059   0.937
63880W        W27637  10.228  18.208  13.439
63881W        W27638  17.092  25.012  11.122
63882W        W27639  24.045  15.115   1.236
63883W        W27640   5.772  38.077  10.905
63884W        W27641  12.332  28.110  11.416
63885W        W27642  18.631  42.825  14.765
63886W        W27643  21.704  22.592  13.542
63887W        W27644  38.902  40.815  10.149
63888W        W27645  44.502  35.954   1.784
63889W        W27646  31.555   5.814   2.233
63890W        W27647  38.944   1.330   3.786
63891W        W27648  35.377  11.175   3.692
63892W        W27649  31.512  26.459   1.350
63893W        W27650   6.337  39.937   3.374
63894W        W27651  21.598  40.331  11.113
63895W        W27652  12.627  43.485   4.115
63896W        W27653  15.239  13.125  10.555
63897W        W27654  14.232   5.756  13.402
63898W        W27655  35.996  43.999  12.989
63899W        W27656  13.620  10.231  13.999
63900W        W27657   9.246   3.227  10.475
63901W        W27658  10.384  20.559  12.902
63902W        W27659   6.288  15.606  10.561
63903W        W27660   5.239  39.944  14.302
63904W        W27661  36.380  35.597   2.746
63905W        W27662  40.382  20.140  14.315
63906W        W27663  36.389  25.470  12.934
63907W        W27664  41.515  29.474  13.323
63908W        W27665  35.554  38.843  12.082
63909W        W27666  33.944  16.132   1.237
63910W        W27667   8.895  42.507   5.702
63911W        W27668  28.992  36.842   3.256
63912W        W27669   8.361  12.763  11.958
63913W        W27670  14.741  37.550   1.742
63914W        W27671   1.398   7.184   3.682
63915W        W27672  13.161  15.707  11.472
63916W        W27673  36.996   8.182   2.735
63917W        W27674  31.529  32.112  11.938
63918W        W27675  38.549  21.711  14.818
63919W        W27676  15.217  32.590   4.778
63920W        W27677  39.453  25.997   1.767
63921W        W27678  44.382  37.339   1.918
63922W        W27679  20.682  16.237   1.361
63923W        W27680  29.639  35.511   4.794
63924W        W27681   4.790   5.881  14.421
63925W        W27682  35.915   0.928   0.464
63926W        W27683  24.109  25.106   4.196
63927W        W27684  10.733  43.819   0.892
63928W        W27685  16.609  34.917   3.689
63929W        W27686  19.203   7.385   2.769
63930W        W27687  29.032  34.118  13.321
63931W        W27688  23.100  26.130  14.917
63932W        W27689   4.338  32.455  12.023
63933W        W27690  17.639  35.449  14.860
63934W        W27691   5.350  12.261   3.844
63935W        W27692   3.777  26.579   2.720
63936W        W27693   8.817  34.562  11.936
63937W        W27694   7.769  37.001   2.372
63938W        W27695   4.300  42.813  12.421
63939W        W27696  18.724  33.889   5.727
63940W        W27697  26.013   3.812   0.897
63941W        W27698  40.817  30.911   3.858
63942W        W27699   7.706   1.385   1.728
63943W        W27700  37.046  14.250  13.960
63944W        W27701  40.372   9.772   2.401
63945W        W27702  12.221  43.909   3.690
63946W        W27703  19.060  39.040  11.601
63947W        W27704  39.334  40.969   4.767
63948W        W27705  19.708  13.735  11.045
63949W        W27706  13.803  15.306   0.441
63950W        W27707   8.367   0.288  10.939
63951W        W27708  44.912  42.426  11.405
63952W        W27709  16.710  11.736  12.869
63953W        W27710  31.071  21.574  13.321
63954W        W27711  30.494  40.809  12.970
63955W        W27712   1.408   3.441  10.424
63956W        W27713  30.054  41.346  11.423
63957W        W27714  44.370  21.084  10.067
63958W        W27715  11.305  17.645   3.706
63959W        W27716  32.429  28.009  14.427
63960W        W27717  26.484  38.552  11.500
63961W        W27718   7.400  44.866   3.790
63962W        W27719  10.362   3.944   2.234
63963W        W27720  29.468  39.326   3.207
63964W        W27721  41.032   1.344  12.900
63965W        W27722  38.384  25.709  10.962
63966W        W27723   3.415  28.986  12.921
63967W        W27724   2.343  33.962   2.318
63968W        W27725  20.624  32.588   0.846
63969W        W27726  28.555  19.276  14.382
63970W        W27727  39.974  24.085   2.789
63971W        W27728  14.823   5.259  10.965
63972W        W27729  33.551  31.640   0.349
63973W        W27730  16.119   1.467  14.009
63974W        W27731  16.143  18.247  14.793
63975W        W27732  33.526  28.458  10.410
63976W        W27733  28.081  41.822   0.950
63977W        W27734  21.706  17.724  10.996
63978W        W27735  25.706   1.931   5.091
63979W        W27736  15.690  32.020   0.341
63980W        W27737  29.054  19.097  11.405
63981W        W27738   9.280   8.699   3.719
63982W        W27739  17.119   5.271   4.259
63983W        W27740  29.938  15.584  13.403
63984W        W27741   2.731   0.327  14.801
63985W        W27742  25.194  16.296   1.355
63986W        W27743  27.550  23.056   1.359
63987W        W27744  42.933  17.788   0.293
63988W        W27745   5.816  19.535   0.806
63989W        W27746   7.335  11.151   4.224
63990W        W27747  27.541  13.261  12.570
63991W        W27748  26.488  14.625   0.786
63992W        W27749  36.059   1.758   4.301
63993W        W27750   0.770  28.676  10.947
63994W        W27751  38.903  41.300  12.479
63995W        W27752  18.688  35.376  11.508
63996W        W27753  18.604  32.925   2.249
63997W        W27754  36.542   4.331  12.467
63998W        W27755   9.816  29.581  10.499
63999W        W27756  24.705   4.853   0.873
64000W        W27757  22.153   5.863   3.685
64001W        W27758  42.981   7.416  13.044
64002W        W27759   2.809  43.391  10.914
64003W        W27760   1.754  12.244   2.250
64004W        W27761   3.328  35.076  13.473
64005W        W27762  17.640   3.448  12.077
64006W        W27763   8.367  23.524   0.812
64007W        W27764  34.088   1.892   0.829
64008W        W27765  33.109  40.004  13.836
64009W        W27766  11.239   3.399  12.520
64010W        W27767   5.367  10.666  12.478
64011W        W27768  28.455   1.785   1.357
64012W        W27769  33.512  16.720   2.797
64013W        W27770  11.688  24.087  14.809
64014W        W27771  34.495   3.865   0.876
64015W        W27772  30.108  36.852  12.580
64016W        W27773  36.061  16.599   1.368
64017W        W27774   4.298  35.472  11.964
64018W        W27775  36.955  41.023  13.857
64019W        W27776  33.087  10.657   1.916
64020W        W27777  34.059  32.917  13.812
64021W        W27778  22.564  29.171  10.961
64022W        W27779   0.482  24.072  10.556
64023W        W27780  11.628   7.380   3.225
64024W        W27781   7.678  17.162  13.017
64025W        W27782  12.733  34.065  14.296
64026W        W27783  29.038  27.962  10.991
64027W        W27784  30.574  34.533   4.784
64028W        W27785  30.446  16.202   3.361
64029W        W27786  12.178   9.242  13.021
64030W        W27787   0.768  32.473   2.319
64031W        W27788  30.983  26.964   1.270
64032W        W27789   0.845  11.176   3.631
64033W        W27790   6.799  35.899   4.801
64034W        W27791  42.434  28.488  13.819
64035W        W27792  27.690   2.359  13.896
64036W        W27793   1.336  21.654   0.908
64037W        W27794   6.314  36.847   4.778
64038W        W27795  23.187  41.979   0.905
64039W        W27796  32.892  13.745   3.259
64040W        W27797  23.716  20.745   3.672
64041W        W27798  19.120  40.888   2.729
64042W        W27799   3.932  18.621   1.292
64043W        W27800  38.455   1.354   2.262
64044W        W27801  43.323  29.577  13.359
64045W        W27802  33.395  37.863  12.576
64046W        W27803  28.526  23.136   2.767
64047W        W27804  33.495   9.763  13.906
64048W        W27805  33.994   0.366  10.618
64049W        W27806  14.276   1.918   0.845
64050W        W27807  16.273   7.353  12.356
64051W        W27808  11.659  16.095   4.636
64052W        W27809  10.780   1.763  10.504
64053W        W27810  24.713  14.801  11.052
64054W        W27811  12.784  34.045  11.011
64055W        W27812  29.175  27.682  12.035
64056W        W27813  33.610  28.000   4.117
64057W        W27814  22.206   3.414  11.113
64058W        W27815  20.666  16.766   4.125
64059W        W27816  21.128   0.754   4.221
64060W        W27817  15.687  17.170  13.979
64061W        W27818  25.105  29.976   1.250
64062W        W27819   5.306  28.024  14.847
64063W        W27820  21.102  15.087  14.031
64064W        W27821   1.945  16.679  14.452
64065W        W27822   0.484  26.682   1.268
64066W        W27823  44.901   7.398  13.479
64067W        W27824  43.907  28.031  10.512
64068W        W27825  39.452  31.424  11.958
64069W        W27826   4.211  40.499   4.319
64070W        W27827   1.885   1.464  11.042
64071W        W27828  20.547  16.631  10.561
64072W        W27829  13.749  15.805  11.867
64073W        W27830   6.424  17.180   2.375
64074W        W27831  34.610  20.631   4.328
64075W        W27832  31.555   3.722   4.749
64076W        W27833   4.876  31.577  11.030
64077W        W27834  16.106  21.642   0.962
64078W        W27835  32.957  44.993  12.054
64079W        W27836  18.774  16.181  12.966
64080W        W27837  40.933   2.364  12.052
64081W        W27838  24.012   4.730  13.378
64082W        W27839  44.859  30.043   2.768
64083W        W27840   8.294   2.262   0.352
64084W        W27841  21.142  40.007   4.346
64085W        W27842  41.842   2.378  14.438
64086W        W27843  42.831  15.144   2.854
64087W        W27844  12.687  18.151  13.802
64088W        W27845  10.770   3.231  14.854
64089W        W27846  38.035  37.868  10.514
64090W        W27847  28.134  20.756   1.428
64091W        W27848  42.452  29.556   1.448
64092W        W27849  28.003  16.790   2.319
64093W        W27850   2.862  24.977   3.827
64094W        W27851  43.829  39.459   2.873
64095W        W27852  21.571  43.994   3.680
64096W        W27853  41.944  31.908   0.426
64097W        W27854  21.752  16.093  13.873
64098W        W27855  39.480   1.272   3.296
64099W        W27856   9.272  27.996   1.438
64100W        W27857  39.834  38.898  12.549
64101W        W27858   3.457  40.863   2.668
64102W        W27859  12.309  30.571   4.771
64103W        W27860  42.369  44.874   3.296
64104W        W27861   8.282  35.459  13.413
64105W        W27862  40.542  33.445   9.993
64106W        W27863  44.994  40.435   2.419
64107W        W27864  14.115  27.616  13.832
64108W        W27865  23.598  25.640  10.499
64109W        W27866  24.597  37.350   2.893
64110W        W27867  39.877  28.055   1.231
64111W        W27868  20.711  24.043   2.381
64112W        W27869  18.740   9.714   3.274
64113W        W27870  34.003  43.403  12.080
64114W        W27871  31.522  19.716   2.183
64115W        W27872   9.164  18.066  12.466
64116W        W27873   8.781   0.920  14.505
64117W        W27874   4.321  10.359   4.784
64118W        W27875   3.818  40.860   4.728
64119W        W27876   8.301  10.632  14.340
64120W        W27877  20.270  44.854   2.373
64121W        W27878  13.698  11.719   2.822
64122W        W27879  35.068  27.491  12.074
64123W        W27880  21.091  39.382   1.832
64124W        W27881  36.468  21.051   5.269
64125W        W27882  40.993  18.205  13.952
64126W        W27883  28.606  44.940  13.464
64127W        W27884  20.069  44.357  11.410
64128W        W27885  39.324  30.923   3.866
64129W        W27886  24.076  34.046   3.198
64130W        W27887  44.780  25.172  14.771
64131W        W27888  24.497  38.917  10.439
64132W        W27889  35.913  12.850   2.797
64133W        W27890  11.806   9.305   3.184
64134W        W27891  31.134   7.207   0.456
64135W        W27892   3.308   7.734   3.294
64136W        W27893  15.651  37.003   2.833
64137W        W27894  23.550  35.864  11.549
64138W        W27895  18.097  33.128  11.405
64139W        W27896  28.471  31.508   1.325
64140W        W27897  42.944  27.490   3.652
64141W        W27898  27.552   4.829   4.207
64142W        W27899  39.462  44.505   0.371
64143W        W27900  32.992  30.634   0.268
64144W        W27901  12.188   5.411  11.048
64145W        W27902  14.293  28.473   0.475
64146W        W27903  25.114  30.584  14.913
64147W        W27904  11.339  16.211   5.166
64148W        W27905   5.836  17.564   5.216
64149W        W27906  36.037  41.486  11.103
64150W        W27907   0.292  19.621  13.345
64151W        W27908   6.882  18.771  12.015
64152W        W27909  37.888  31.900   4.304
64153W        W27910  28.985  17.707   1.934
64154W        W27911  21.749  17.676  13.931
64155W        W27912  17.269  37.340  11.544
64156W        W27913  23.491  41.858  11.519
64157W        W27914  11.198  33.548   0.421
64158W        W27915  35.033  21.705   4.348
64159W        W27916  16.644  28.074   2.863
64160W        W27917   3.735  10.716   4.230
64161W        W27918  28.474  28.019   1.422
64162W        W27919  19.155   2.919  12.882
64163W        W27920   0.886  17.686  13.043
64164W        W27921   4.385  24.613   4.217
64165W        W27922  10.675  35.018   1.401
64166W        W27923  14.146   2.810  10.949
64167W        W27924  24.515  25.973  11.374
64168W        W27925  25.523  36.457   2.676
64169W        W27926  42.889   5.319   3.636
64170W        W27927  23.194  32.993  13.945
64171W        W27928  24.698  17.062   3.302
64172W        W27929  24.179  19.240  13.380
64173W        W27930  32.927  35.989  12.514
64174W        W27931   5.368  13.616  12.344
64175W        W27932  11.774  18.628   0.344
64176W        W27933   9.809  14.211  12.363
64177W        W27934   6.261  26.180  13.527
64178W        W27935   9.739  35.886   4.127
64179W        W27936  12.167  10.267   2.297
64180W        W27937  32.489  26.604  11.514
64181W        W27938  32.627  28.477  10.954
64182W        W27939  20.248  15.762   5.138
64183W        W27940  13.750  23.988   1.451
64184W        W27941  40.469  14.737  11.043
64185W        W27942  13.316  29.012  11.443
64186W        W27943   4.933  43.401  14.286
64187W        W27944   4.307   8.185  10.909
64188W        W27945   3.454  19.543  14.410
64189W        W27946  20.096  27.990  13.969
64190W        W27947  30.059  34.409   0.851
64191W        W27948  27.096  34.073  14.511
64192W        W27949  38.433   5.259   1.711
64193W        W27950  21.183  24.694   4.660
64194W        W27951  22.569  30.631   4.604
64195W        W27952  11.755  40.309   0.390
64196W        W27953  11.744   8.177  12.867
64197W        W27954  29.616  29.137   4.116
64198W        W27955  35.502  39.817  10.611
64199W        W27956  20.076   8.869  13.971
64200W        W27957  35.473   0.258  14.982
64201W        W27958   9.356  26.561   0.867
64202W        W27959   4.880  23.706   4.220
64203W        W27960  33.002  18.100   3.154
64204W        W27961  38.018  32.468   3.291
64205W        W27962  16.610  44.841   1.741
64206W        W27963  16.798  34.539   1.251
64207W        W27964  10.827   0.483   4.801
64208W        W27965  43.469  38.921   2.413
64209W        W27966  39.018  13.264  14.471
64210W        W27967   9.291  44.284  12.016
64211W        W27968  29.073  38.036  11.016
64212W        W27969  26.671  27.037  12.961
64213W        W27970   4.348  29.939  12.552
64214W        W27971  15.618   9.186   0.886
64215W        W27972  27.685  29.557  10.919
64216W        W27973   7.195   0.326  11.934
64217W        W27974  33.527   8.769  10.594
64218W        W27975  38.951  27.011  11.117
64219W        W27976  39.871  23.676   3.249
64220W        W27977  40.432   4.872   0.834
64221W        W27978  20.207   9.675   0.254
64222W        W27979  27.602  16.702   2.406
64223W        W27980  30.604   0.802   0.728
64224W        W27981   5.303  15.298  14.463
64225W        W27982  21.056  44.366  13.520
64226W        W27983  14.211  38.918  12.540
64227W        W27984  31.643  44.455  13.489
64228W        W27985  34.023  36.591   1.803
64229W        W27986  13.632  33.108   0.746
64230W        W27987  23.011  29.608   1.373
64231W        W27988  23.219  22.038   2.702
64232W        W27989  40.378  14.340   0.871
64233W        W27990  24.511  37.390   4.806
64234W        W27991  13.803  39.911   3.778
64235W        W27992   0.463   5.283  12.508
64236W        W27993  23.237  13.190   4.778
64237W        W27994  27.169  13.705   3.843
64238W        W27995  39.034  17.187  10.548
64239W        W27996   1.810  34.387   4.622
64240W        W27997  13.665  23.699  11.999
64241W        W27998  43.479   0.437  12.489
64242W        W27999   5.782   3.349  11.894
64243W        W28000  22.211  19.591  10.560
64244W        W28001  41.034  31.980  14.396
64245W        W28002   8.320  26.999   3.187
64246W        W28003  30.563  17.265  13.904
64247W        W28004  27.986  12.252   2.227
64248W        W28005  18.754  13.287   2.679
64249W        W28006  23.012  44.858   4.816
64250W        W28007  44.447  30.509  14.494
64251W        W28008  15.721   6.312   5.183
64252W        W28009  44.939  21.550  10.458
64253W        W28010   8.285  22.171   2.307
64254W        W28011   0.949  27.134   0.294
64255W        W28012  13.200   4.706  10.062
64256W        W28013  34.564  13.674  11.961
64257W        W28014  29.977  39.932  13.403
64258W        W28015  27.545  44.491   0.247
64259W        W28016  39.849  20.093  14.860
64260W        W28017  11.150  32.612  13.881
64261W        W28018  18.782   1.860  12.918
64262W        W28019  24.636   1.874   1.378
64263W        W28020  10.695  16.642   0.460
64264W        W28021  24.131  37.548   4.277
64265W        W28022   8.897  26.086   0.876
64266W        W28023  23.018  29.133   2.869
64267W        W28024  21.124  21.576   4.129
64268W        W28025  16.318  20.680   4.691
64269W        W28026  19.136  37.574   2.708
64270W        W28027   0.851   6.776   0.918
64271W        W28028  11.192  39.038  11.589
64272W        W28029   7.214  17.104   4.148
64273W        W28030  11.297  12.274   0.376
64274W        W28031  28.058  28.460   1.262
64275W        W28032  39.452   0.388   2.859
64276W        W28033   7.851  32.450   3.227
64277W        W28034  41.506   9.650  14.472
64278W        W28035  39.888  37.970   3.199
64279W        W28036  20.731  29.535   3.733
64280W        W28037  41.479   5.290  12.956
64281W        W28038   9.223  26.038  13.540
64282W        W28039  19.183  21.259   1.751
64283W        W28040  10.826  11.256  11.873
64284W        W28041  40.433  27.996   0.304
64285W        W28042  20.692  24.504  14.934
64286W        W28043  43.974   3.434  11.392
64287W        W28044  33.892  13.715  11.595
64288W        W28045  16.783   2.813  12.060
64289W        W28046  18.684  38.951  11.471
64290W        W28047  32.990   2.722   0.746
64291W        W28048  20.197  31.604  11.460
64292W        W28049   4.240  31.441  14.445
64293W        W28050   6.867  43.984   0.954
64294W        W28051  15.687  25.574  13.336
64295W        W28052  43.892   3.302   1.926
64296W        W28053   3.292  16.745   0.305
64297W        W28054  10.809  33.908   1.424
64298W        W28055  12.746  22.997  13.365
64299W        W28056  10.209  15.169  13.888
64300W        W28057   6.403  44.431  12.498
64301W        W28058  16.153   8.244  13.838
64302W        W28059  15.199  11.373  11.464
64303W        W28060   0.966   1.386  11.507
64304W        W28061  30.567   4.701   3.637
64305W        W28062  38.368  25.565  10.480
64306W        W28063   6.184  24.572  14.386
64307W        W28064  13.162   7.797  13.534
64308W        W28065  31.437  44.305  12.526
64309W        W28066  20.030  19.267  11.086
64310W        W28067  43.781   6.711  11.045
64311W        W28068  15.581   8.403  13.430
64312W        W28069  23.602   0.325  12.377
64313W        W28070  12.653  38.501   0.287
64314W        W28071  18.690  40.310   3.821
64315W        W28072   6.874  32.493   0.411
64316W        W28073   0.890  39.422   1.839
64317W        W28074  25.108   5.365   2.276
64318W        W28075   4.272  35.509  10.498
64319W        W28076  44.429  10.232   4.242
64320W        W28077   4.216  13.705   4.620
64321W        W28078  33.528  21.633   2.662
64322W        W28079   9.789  16.160   4.127
64323W        W28080   5.204  22.746   3.285
64324W        W28081  15.228  25.498  14.447
64325W        W28082  34.406  34.061   3.830
64326W        W28083   9.809  27.094   3.379
64327W        W28084  20.701  14.151  13.484
64328W        W28085  25.168  17.304   5.292
64329W        W28086  31.420  38.500   3.268
64330W        W28087  18.635  36.072   3.738
64331W        W28088  19.584  30.938   4.282
64332W        W28089  13.145  34.879  12.095
64333W        W28090  42.340   1.289   3.300
64334W        W28091  30.125  35.106  11.073
64335W        W28092  16.574  33.026   0.843
64336W        W28093  26.962  19.083   4.126
64337W        W28094  28.666   6.781  14.820
64338W        W28095   4.237  29.510   1.339
64339W        W28096  33.977  22.063  13.952
64340W        W28097   5.856  33.586  11.989
64341W        W28098  41.528  16.103  13.063
64342W        W28099  21.256   3.885  14.005
64343W        W28100   7.861  22.228   0.963
64344W        W28101  10.370  43.390  11.890
64345W        W28102  20.537  10.652   3.860
64346W        W28103  41.398  34.078   2.268
64347W        W28104   8.702   9.225   4.752
64348W        W28105  12.746  22.027  11.110
64349W        W28106  33.894  30.080   2.224
64350W        W28107  32.495  34.068  11.507
64351W        W28108   2.965  26.135  13.340
64352W        W28109  22.064  22.031   1.343
64353W        W28110  35.884  22.020  14.337
64354W        W28111   2.870  16.746   2.872
64355W        W28112  32.409  33.426   9.984
64356W        W28113  35.948  36.529  13.864
64357W        W28114  28.588   0.793  12.495
64358W        W28115  43.890  34.528  12.856
64359W        W28116  34.459  37.900  13.319
64360W        W28117  34.971  22.104  12.824
64361W        W28118  39.860  39.488  12.374
64362W        W28119  42.311  41.029  12.450
64363W        W28120  38.541  18.601  12.914
64364W        W28121  42.846  27.995   0.821
64365W        W28122  26.180  27.643   4.760
64366W        W28123  23.226   0.846  10.461
64367W        W28124   5.364  30.577   0.281
64368W        W28125  31.115  19.080   2.681
64369W        W28126  32.080  10.180  12.003
64370W        W28127  14.331  16.207   1.405
64371W        W28128  26.532  33.917   3.762
64372W        W28129  13.205  22.025   3.235
64373W        W28130  25.982  14.815  11.607
64374W        W28131  23.624  44.758  14.347
64375W        W28132  29.153  17.221  13.882
64376W        W28133  18.688  29.173  11.586
64377W        W28134  17.200  37.502   2.894
64378W        W28135  36.358  23.660  14.509
64379W        W28136  42.367  17.071   2.187
64380W        W28137  12.250  40.502  13.045
64381W        W28138  16.257  20.622  14.833
64382W        W28139   6.790  28.502   1.813
64383W        W28140  39.821  38.924  12.067
64384W        W28141  38.861  23.080   1.422
64385W        W28142  40.037  36.567  14.448
64386W        W28143  17.664  19.609   1.392
64387W        W28144   2.847  29.998   1.213
64388W        W28145  41.292  44.385   2.847
64389W        W28146  16.215   2.349  11.577
64390W        W28147  37.020   7.798  13.535
64391W        W28148  44.463  24.593   2.681
64392W        W28149  39.363  24.175  13.487
64393W        W28150  41.867   9.803   3.259
64394W        W28151  21.196  15.788  14.984
64395W        W28152  10.297   4.840   3.280
64396W        W28153   6.691  23.124   4.255
64397W        W28154   1.909   9.787   1.768
64398W        W28155   2.383  38.930   4.314
64399W        W28156  40.402  13.162  10.424
64400W        W28157  14.822  16.721   1.444
64401W        W28158  18.683  17.264   5.092
64402W        W28159  34.012  28.503  12.468
64403W        W28160  19.144  20.719  11.971
64404W        W28161  43.868  12.854   0.768
64405W        W28162  33.061  27.506   1.699
64406W        W28163  17.224  19.556   0.904
64407W        W28164   9.787   3.333  13.926
64408W        W28165  20.542  15.587  14.361
64409W        W28166   9.357  38.885  11.465
64410W        W28167  16.767   0.450   2.345
64411W        W28168   5.928  18.175  13.873
64412W        W28169   2.857  11.215  13.005
64413W        W28170   5.914  19.749   2.403
64414W        W28171   7.304  35.444   3.353
64415W        W28172  10.836  14.623  12.554
64416W        W28173  44.356   5.787   4.811
64417W        W28174  37.857  40.015  13.417
64418W        W28175  22.208  26.620   1.927
64419W        W28176  16.774  40.475  12.081
64420W        W28177  33.891  36.977  14.968
64421W        W28178  18.551  13.282   2.316
64422W        W28179  33.885  39.883   2.854
64423W        W28180  29.096  32.905   2.781
64424W        W28181   6.676  21.551  12.838
64425W        W28182  21.640   2.954  13.818
64426W        W28183   6.884  34.952  14.368
64427W        W28184  41.412  41.965   3.236
64428W        W28185  25.053   0.254   0.727
64429W        W28186  15.614  24.169   4.123
64430W        W28187  25.710  19.582  11.373
64431W        W28188   6.722  26.647  12.065
64432W        W28189  30.419  17.233   9.963
64433W        W28190  23.204  21.154   1.891
64434W        W28191  38.051  31.938  11.458
64435W        W28192  22.603  23.509  12.065
64436W        W28193   7.340  23.565   4.826
64437W        W28194  11.680   8.814  12.837
64438W        W28195  15.620   3.773   2.848
64439W        W28196  15.644   5.914  14.390
64440W        W28197   5.196   7.232   3.869
64441W        W28198   7.667   0.369   4.784
64442W        W28199  27.619  38.854  11.378
64443W        W28200   5.381  27.503   3.311
64444W        W28201   8.708  38.363  13.404
64445W        W28202  12.240  21.722  10.468
64446W        W28203  18.246  30.086   1.740
64447W        W28204  20.264  40.868   4.163
64448W        W28205  22.221  42.924   3.732
64449W        W28206  35.004   5.764  10.449
64450W        W28207  41.011  17.756  12.049
64451W        W28208  26.461   2.343  13.307
64452W        W28209  17.669  28.982  14.839
64453W        W28210  19.635  37.866   1.863
64454W        W28211   1.885  29.474   1.851
64455W        W28212   0.914   9.387  11.431
64456W        W28213   9.650  26.493  11.526
64457W        W28214   6.257  10.189   1.351
64458W        W28215  32.113  19.777   2.277
64459W        W28216  25.048  21.707  13.884
64460W        W28217  25.164  22.520  11.581
64461W        W28218   7.287  39.053   3.798
64462W        W28219  35.562  21.161  12.943
64463W        W28220  38.400  20.650   2.901
64464W        W28221  34.111   9.722  11.104
64465W        W28222  27.564  19.242   2.815
64466W        W28223   7.274  31.626   4.749
64467W        W28224   7.347   8.721   1.849
64468W        W28225   9.758  32.127  12.063
64469W        W28226  39.462  30.619   1.238
64470W        W28227   0.260  25.562   0.377
64471W        W28228   8.169  25.531   2.195
64472W        W28229   4.789   3.876   3.711
64473W        W28230  34.443   2.795  11.914
64474W        W28231  27.190  40.456  11.042
64475W        W28232  14.213  38.415  14.504
64476W        W28233  37.928  29.016   1.760
64477W        W28234   3.853  39.428   2.399
64478W        W28235  41.454  14.599  11.029
64479W        W28236  23.199  16.627  12.394
64480W        W28237  39.063  26.999   4.623
64481W        W28238  41.415   4.839   3.736
64482W        W28239  37.041   3.935   9.958
64483W        W28240  26.525  14.115   2.697
64484W        W28241  33.538  12.254  12.396
64485W        W28242   9.842  14.633   0.294
64486W        W28243   0.858  42.917   2.318
64487W        W28244   5.205  11.664  12.083
64488W        W28245  10.296   2.450  12.917
64489W        W28246  15.152   4.410   1.242
64490W        W28247  44.320   2.837  12.009
64491W        W28248  43.476  22.631  12.994
64492W        W28249   6.726  17.247   1.909
64493W        W28250  43.355  12.738   2.258
64494W        W28251  39.897   1.297   0.812
64495W        W28252  35.358  41.956   1.269
64496W        W28253   9.162  44.275  12.375
64497W        W28254  23.068  15.816  10.515
64498W        W28255   0.400  23.548  10.930
64499W        W28256  35.106  17.570  11.858
64500W        W28257  30.431   9.871  11.012
64501W        W28258  44.269  31.937   3.313
64502W        W28259  37.497  36.393   0.361
64503W        W28260  11.650  39.531   1.257
64504W        W28261   8.289  39.058   1.389
64505W        W28262  18.780  44.817  10.568
64506W        W28263   7.315  19.227   2.379
64507W        W28264  29.533  10.688   2.292
64508W        W28265  30.527  23.223   1.290
64509W        W28266  22.596  31.433   0.833
64510W        W28267  33.578  22.121  14.369
64511W        W28268  12.157  33.389   2.241
64512W        W28269  34.519  18.687  14.371
64513W        W28270  27.163  36.524  12.396
64514W        W28271  41.827  29.168  14.402
64515W        W28272  42.378  10.246   2.743
64516W        W28273   3.357   4.871  12.931
64517W        W28274   8.696   7.821  14.898
64518W        W28275   1.431  18.072  10.465
64519W        W28276  18.161  35.876  12.873
64520W        W28277  44.873  32.623  10.478
64521W        W28278   6.899  30.017   4.607
64522W        W28279   4.934  19.100   2.889
64523W        W28280   0.385  27.011  14.815
64524W        W28281  25.023  13.668   0.278
64525W        W28282   1.955  29.119  11.511
64526W        W28283  28.128  25.661  11.008
64527W        W28284  10.200  30.590   4.787
64528W        W28285  41.376  16.665   2.351
64529W        W28286  39.998  43.808   2.401
64530W        W28287   1.890   9.754   4.282
64531W        W28288  29.574  22.630   2.387
64532W        W28289   4.867  33.580   0.446
64533W        W28290  43.340  35.049   4.718
64534W        W28291  33.453  10.806   3.300
64535W        W28292   6.727  31.599   3.361
64536W        W28293  30.120  23.240  13.493
64537W        W28294  33.052  23.564  10.507
64538W        W28295  31.569  20.262   1.793
64539W        W28296  41.375  11.838  10.404
64540W        W28297  20.689   2.791  10.621
64541W        W28298   6.723  15.245  14.987
64542W        W28299  35.436  26.185  10.563
64543W        W28300   7.363  20.230   4.632
64544W        W28301  14.724  37.400   3.342
64545W        W28302  18.772  17.725   1.754
64546W        W28303  28.593  24.724  14.965
64547W        W28304  41.419  30.432   2.901
64548W        W28305  24.023   3.456  10.034
64549W        W28306  32.974  27.114  13.811
64550W        W28307  13.296  23.110   2.395
64551W        W28308  32.549  39.483   3.385
64552W        W28309  34.582  44.838   4.114
64553W        W28310  44.000  15.279   3.777
64554W        W28311  14.213   1.275  13.514
64555W        W28312  31.096  29.668   4.665
64556W        W28313  38.868  39.951   4.598
64557W        W28314   4.803  10.662  11.411
64558W        W28315  31.592  25.146   4.330
64559W        W28316  11.681   1.300   0.865
64560W        W28317  40.480  33.025  14.319
64561W        W28318   2.242  41.326   3.710
64562W        W28319  37.377  15.287   1.368
64563W        W28320  13.346  44.773   4.223
64564W        W28321   9.339  23.566   1.764
64565W        W28322   7.317  42.861   0.339
64566W        W28323  37.080   2.412  12.926
64567W        W28324  17.076  15.244  13.905
64568W        W28325  37.007  41.299  12.420
64569W        W28326   1.912  12.642  12.092
64570W        W28327  39.352  21.742   4.213
64571W        W28328  42.851  43.412   1.850
64572W        W28329  29.070  24.572   3.710
64573W        W28330  31.058  13.174   4.681
64574W        W28331  39.349   6.882   4.632
64575W        W28332  10.294  31.082   5.217
64576W        W28333  10.768  22.072  14.881
64577W        W28334  33.485  23.509  13.828
64578W        W28335  27.497  21.117   3.280
64579W        W28336   6.735  33.056   3.766
64580W        W28337   8.218  14.677   4.809
64581W        W28338  20.215  11.293   1.390
64582W        W28339  43.288  37.963  11.113
64583W        W28340  24.699   2.832  14.368
64584W        W28341   5.403  21.144  11.970
64585W        W28342  25.996  17.771  14.984
64586W        W28343  42.459  44.468   4.696
64587W        W28344  16.774  22.742   1.415
64588W        W28345  26.691  36.997   3.705
64589W        W28346  21.240   5.762  13.929
64590W        W28347   0.918  34.023  12.844
64591W        W28348  34.554  15.611   0.764
64592W        W28349  19.231  30.961  13.383
64593W        W28350  37.349  11.697   3.363
64594W        W28351  30.441  26.472   0.383
64595W        W28352   3.870  14.820   0.947
64596W        W28353  41.506  20.608   3.323
64597W        W28354  30.592  38.058  14.933
64598W        W28355  33.441  28.113  13.527
64599W        W28356  26.973   4.699  12.939
64600W        W28357  30.556   2.286  13.340
64601W        W28358  20.676  28.050  10.481
64602W        W28359  44.993  44.892   1.412
64603W        W28360  22.035  34.423  12.497
64604W        W28361  32.633  41.399   2.259
64605W        W28362  16.695  26.029   2.255
64606W        W28363  21.029   2.251  12.839
64607W        W28364  19.596   1.799   4.234
64608W        W28365  38.516  42.459   4.829
64609W        W28366  13.161  11.709   0.435
64610W        W28367  22.240   7.173   3.792
64611W        W28368  17.275  42.970  13.055
64612W        W28369  24.701  23.682  12.030
64613W        W28370   1.794   1.461   0.804
64614W        W28371  23.203  39.438   3.644
64615W        W28372   8.820  20.576  14.474
64616W        W28373  14.193  39.962   4.268
64617W        W28374  15.742   6.217  14.301
64618W        W28375  39.336  27.954   2.309
64619W        W28376  21.183  29.084  12.059
64620W        W28377  14.813  19.574  10.981
64621W        W28378  33.883  34.924   2.374
64622W        W28379  38.511  14.228  12.091
64623W        W28380  18.569  11.754  13.488
64624W        W28381  32.454  28.493  14.826
64625W        W28382   4.835  21.126  10.088
64626W        W28383  24.120  18.735   3.277
64627W        W28384  20.093  40.817  14.891
64628W        W28385  36.448  24.544  13.047
64629W        W28386   0.396  34.010   4.240
64630W        W28387  37.916  29.663   4.768
64631W        W28388  23.541  31.503   1.384
64632W        W28389  38.075  30.512   1.750
64633W        W28390  34.466  15.100  12.056
64634W        W28391   4.318  32.600  12.958
64635W        W28392  16.596  13.158  14.769
64636W        W28393  35.495   4.735   2.776
64637W        W28394  43.324  43.922  13.843
64638W        W28395   5.204  12.192  13.952
64639W        W28396  18.614  27.147  11.922
64640W        W28397   4.376  38.946   2.341
64641W        W28398   8.740  17.737  10.941
64642W        W28399  34.510  23.162  12.516
64643W        W28400  35.941  30.462  11.903
64644W        W28401  14.109   9.866  11.023
64645W        W28402  19.261   6.353   0.834
64646W        W28403  44.489  21.242   3.208
64647W        W28404  44.427  15.645  10.428
64648W        W28405   4.810  22.557   0.735
64649W        W28406   6.203  43.988   4.805
64650W        W28407  15.146  10.223  11.129
64651W        W28408  18.628   0.257   1.279
64652W        W28409  42.788  30.643  14.515
64653W        W28410   6.351  17.266   0.298
64654W        W28411  34.613  38.358   3.266
64655W        W28412  24.542  12.789  14.411
64656W        W28413  27.686  15.163  13.825
64657W        W28414  30.918  39.373   2.364
64658W        W28415  43.924  38.885  11.505
64659W        W28416   0.476  37.010  12.009
64660W        W28417  42.964  12.163  14.008
64661W        W28418  11.832  10.816   4.784
64662W        W28419  44.917   8.751   0.447
64663W        W28420  30.034  41.022  11.037
64664W        W28421  35.576  23.070  13.516
64665W        W28422  10.290  13.677  10.468
64666W        W28423   7.330  18.137  13.453
64667W        W28424   9.232   0.366  13.050
64668W        W28425  21.748   9.755   0.873
64669W        W28426  39.034  26.183  14.775
64670W        W28427  41.385  21.139  14.466
64671W        W28428  12.782  25.087   1.821
64672W        W28429  34.446  23.704   2.877
64673W        W28430  16.228  41.932  13.813
64674W        W28431  31.517  25.166  14.006
64675W        W28432  34.968  33.098   4.196
64676W        W28433  38.970  18.544  11.458
64677W        W28434   6.231  16.642  12.553
64678W        W28435  17.698  41.531  14.773
64679W        W28436  18.678  17.254  12.966
64680W        W28437  44.455  20.193  11.601
64681W        W28438  29.116   0.426   2.257
64682W        W28439  34.058  21.750   0.261
64683W        W28440  35.566  28.678   3.307
64684W        W28441  12.196   3.722  11.064
64685W        W28442  37.932  22.609   0.791
64686W        W28443  12.216   5.213  14.791
64687W        W28444  38.821  36.068   3.260
64688W        W28445  43.827  40.837   3.314
64689W        W28446   5.340   9.715   4.221
64690W        W28447  11.187  17.632  14.934
64691W        W28448   1.432  27.531  13.347
64692W        W28449  20.116  39.366   0.300
64693W        W28450  37.086  14.622  14.762
64694W        W28451   2.769  26.995  14.904
64695W        W28452   5.258  44.312   5.193
64696W        W28453  33.024  31.512  11.939
64697W        W28454  34.448   6.891  11.559
64698W        W28455  40.867  24.479   1.305
64699W        W28456   0.929  43.423   0.745
64700W        W28457  10.248   2.464   3.282
64701W        W28458  36.924  37.493   0.768
64702W        W28459  26.199   3.882  10.433
64703W        W28460  27.456   3.809  14.497
64704W        W28461  32.400   1.741  13.322
64705W        W28462   4.391  43.425  14.987
64706W        W28463  21.235   2.905   1.702
64707W        W28464  11.251  43.990   9.944
64708W        W28465  30.495  26.987   2.229
64709W        W28466  24.041  28.963   3.160
64710W        W28467  37.979  11.218  13.796
64711W        W28468  40.891  21.067   1.274
64712W        W28469  18.245  38.074   3.775
64713W        W28470  28.982  37.395   4.230
64714W        W28471  18.131   0.945   2.340
64715W        W28472  43.854  26.630  12.447
64716W        W28473  37.550   3.954   2.890
64717W        W28474   6.236  26.029   1.764
64718W        W28475  26.035  28.965  11.873
64719W        W28476  31.043  42.797   2.270
64720W        W28477  31.897  24.667   0.393
64721W        W28478  40.406   8.254  14.783
64722W        W28479  38.509   3.782   5.701
64723W        W28480  35.509  30.162   3.270
64724W        W28481  22.046  43.843  12.342
64725W        W28482  37.998  34.574  13.384
64726W        W28483  37.372   5.326   2.723
64727W        W28484   2.281   7.343  12.866
64728W        W28485   7.670  18.545   3.362
64729W        W28486  30.069  35.461  11.570
64730W        W28487  14.103  20.764   0.284
64731W        W28488   5.308  24.171   1.383
64732W        W28489  19.729   7.684  12.501
64733W        W28490   4.262  28.551  14.847
64734W        W28491  14.680  34.030   0.434
64735W        W28492  17.706  11.783  11.384
64736W        W28493  33.019  22.527   1.312
64737W        W28494  13.289  18.727  12.067
64738W        W28495  43.311  12.289  13.947
64739W        W28496  27.620  25.121   2.775
64740W        W28497  17.557  44.907  12.394
64741W        W28498  13.724  24.582  14.896
64742W        W28499   8.165   5.713   2.407
64743W        W28500   1.431  30.615   0.888
64744W        W28501   2.906   9.853   2.730
64745W        W28502  33.901  17.166   1.804
64746W        W28503   6.913  22.239  10.963
64747W        W28504  31.571   6.382   5.146
64748W        W28505  33.012  10.185  12.844
64749W        W28506  42.386   5.389  12.498
64750W        W28507   1.921  16.758  10.463
64751W        W28508  26.580   4.425   2.744
64752W        W28509  40.467   0.446  13.481
64753W        W28510   7.224  10.690   4.292
64754W        W28511  32.593  41.460   2.668
64755W        W28512  19.257  20.602   2.413
64756W        W28513   7.398  14.745   3.184
64757W        W28514  36.547  26.701  13.791
64758W        W28515  32.572  40.808  12.932
64759W        W28516   2.410   4.292   0.930
64760W        W28517  38.398  23.621  14.917
64761W        W28518  37.000  12.847  13.809
64762W        W28519  18.210   7.714   2.682
64763W        W28520  21.163  42.977  10.512
64764W        W28521  41.032  27.158   2.810
64765W        W28522   9.313  31.473  13.520
64766W        W28523  42.871  15.140  14.283
64767W        W28524  21.173  27.030  14.856
64768W        W28525  30.126  12.318   2.756
64769W        W28526   9.294  25.063   0.434
64770W        W28527  43.825  28.951  13.838
64771W        W28528   1.355  10.649  12.060
64772W        W28529  25.166  33.611  11.098
64773W        W28530  18.179   2.921   4.763
64774W        W28531  18.552  39.932  13.354
64775W        W28532   5.305   3.392  10.519
64776W        W28533  14.330  35.379  10.446
64777W        W28534  28.539  26.651   2.298
64778W        W28535  13.171  17.644   4.836
64779W        W28536  13.707  21.247  14.973
64780W        W28537   8.845   3.792   0.734
64781W        W28538  14.655   7.791  11.393
64782W        W28539  21.240  42.372  10.611
64783W        W28540  24.502  30.473   3.655
64784W        W28541  22.045  37.349  13.039
64785W        W28542  26.172  11.846  10.907
64786W        W28543  33.420  31.448  11.529
64787W        W28544  19.166  26.521   4.205
64788W        W28545  43.323   6.217  12.366
64789W        W28546  18.688  27.048  12.945
64790W        W28547  39.965  44.854  14.357
64791W        W28548  13.738  22.663   3.763
64792W        W28549  15.694  19.590   3.257
64793W        W28550  32.136   9.756   0.816
64794W        W28551   7.282  43.388  12.884
64795W        W28552  17.599  26.511   2.859
64796W        W28553  29.068   2.405  10.475
64797W        W28554  28.497  29.171   4.713
64798W        W28555  31.989  20.582  12.553
64799W        W28556  20.079  25.707   2.786
64800W        W28557  15.311  31.056   0.294
64801W        W28558  26.461  18.632  13.424
64802W        W28559  15.696   1.971   0.300
64803W        W28560   4.901  40.845   0.837
64804W        W28561   4.248   5.900   1.768
64805W        W28562  31.966  41.912   3.219
64806W        W28563  41.909  44.328   2.696
64807W        W28564  12.838  33.505  12.480
64808W        W28565  40.830  10.267   4.736
64809W        W28566  32.071   6.884  14.019
64810W        W28567  40.872  39.386   0.766
64811W        W28568   4.939   8.789   2.212
64812W        W28569  30.480  26.649   2.416
64813W        W28570  26.587  33.425   5.267
64814W        W28571  22.138  15.277   3.354
64815W        W28572  34.915   3.456  13.033
64816W        W28573  39.960   4.317   2.402
64817W        W28574  31.145   3.453   0.309
64818W        W28575  20.137  25.608  10.986
64819W        W28576  22.675  33.092  14.915
64820W        W28577  20.751  31.533  12.368
64821W        W28578  43.427  43.275   2.243
64822W        W28579   6.761  33.608   3.713
64823W        W28580  37.369  15.325   0.391
64824W        W28581  30.910  19.658   0.840
64825W        W28582  31.495  10.639  12.060
64826W        W28583  30.475  26.043  12.835
64827W        W28584  24.132  31.481  12.577
64828W        W28585  25.993   8.873   4.756
64829W        W28586  37.058  33.393   4.836
64830W        W28587   9.692  29.005   1.776
64831W        W28588  25.027  31.553   0.330
64832W        W28589   9.701   1.467  13.879
64833W        W28590  30.921  36.496  11.390
64834W        W28591  33.406   0.751   3.225
64835W        W28592  33.939  33.553  13.802
64836W        W28593  26.652  40.458   1.234
64837W        W28594  10.773  28.516  12.360
64838W        W28595  42.430  27.469   0.328
64839W        W28596  44.490  23.730  14.878
64840W        W28597  13.182  12.166  12.555
64841W        W28598  38.821  13.293   1.706
64842W        W28599   0.494   1.365   0.430
64843W        W28600  35.951  18.604   1.870
64844W        W28601   9.227  18.143  12.059
64845W        W28602  37.377   6.794  10.615
64846W        W28603  13.770  10.209   1.749
64847W        W28604  13.672  43.486  11.863
64848W        W28605  39.546  32.546   4.648
64849W        W28606  26.485  35.000  11.383
64850W        W28607  38.968  29.092  14.863
64851W        W28608  29.494  44.788   4.778
64852W        W28609  39.349  10.192  11.867
64853W        W28610  14.143  19.680  13.849
64854W        W28611  35.488  40.873  12.911
64855W        W28612  16.101  21.654  10.891
64856W        W28613  14.783  33.118  11.385
64857W        W28614   4.774  10.283   5.210
64858W        W28615  13.684  43.809  12.998
64859W        W28616  28.595  31.512   2.678
64860W        W28617   8.375   6.382   4.698
64861W        W28618  44.405   7.667   0.785
64862W        W28619  14.249   5.316   2.862
64863W        W28620  21.545  22.034   1.878
64864W        W28621  17.700  34.024   1.696
64865W        W28622  37.083  41.435   2.814
64866W        W28623  27.180  41.858   3.785
64867W        W28624  23.030  18.186  14.910
64868W        W28625   3.865  34.450  12.940
64869W        W28626  11.234   7.776  14.910
64870W        W28627  12.641  21.743   4.299
64871W        W28628  32.423  38.424  12.492
64872W        W28629  36.479  13.608   3.860
64873W        W28630  34.443  18.784   1.245
64874W        W28631  25.495   1.907  10.498
64875W        W28632  31.050   4.842   2.264
64876W        W28633  13.229  10.184   2.888
64877W        W28634  17.145   8.166  13.313
64878W        W28635  43.430  40.406  13.489
64879W        W28636  13.176  21.050   4.766
64880W        W28637  16.179  14.817   1.763
64881W        W28638  16.608  10.382  14.945
64882W        W28639  20.245  17.563  12.905
64883W        W28640  16.696  22.247   2.417
64884W        W28641  36.576  23.024   2.811
64885W        W28642   7.852  30.597  11.448
64886W        W28643  36.903  15.688   3.221
64887W        W28644  44.309  36.380  14.789
64888W        W28645  44.388  33.000   1.342
64889W        W28646   4.359   7.341   0.966
64890W        W28647  44.306  43.996   1.721
64891W        W28648  44.871  12.740   1.451
64892W        W28649   7.855   1.417  13.513
64893W        W28650  25.660   7.317  10.452
64894W        W28651  13.694   5.340   2.860
64895W        W28652  16.168  38.843   4.726
64896W        W28653  44.893  34.592  14.464
64897W        W28654  36.481  18.245   5.082
64898W        W28655  15.695   2.267  11.964
64899W        W28656  22.660   6.219  12.404
64900W        W28657   6.249  23.006   1.901
64901W        W28658  13.680  21.639  11.936
64902W        W28659   8.728   1.868  10.623
64903W        W28660  14.273  42.964  12.485
64904W        W28661  42.468   8.332   3.836
64905W        W28662   2.381  29.064  14.915
64906W        W28663  20.094  35.508  12.923
64907W        W28664  27.194  44.269  12.824
64908W        W28665  38.347  20.590   0.442
64909W        W28666   3.768   1.845   1.431
64910W        W28667   9.821  33.879   1.731
64911W        W28668  22.699  31.056  14.912
64912W        W28669   6.391  41.873  10.555
64913W        W28670  43.412  22.045  14.446
64914W        W28671  27.611  43.794   0.307
64915W        W28672  28.539  32.086  13.403
64916W        W28673  12.151  40.445   0.449
64917W        W28674   0.345  43.325   2.876
64918W        W28675  30.574  26.990   3.158
64919W        W28676   0.989   7.382  14.295
64920W        W28677  27.974   5.929  14.317
64921W        W28678  18.702  34.878  13.539
64922W        W28679  39.389  44.382   4.609
64923W        W28680  24.166  31.093   1.269
64924W        W28681   8.681  37.860   2.323
64925W        W28682   9.789  43.889   0.807
64926W        W28683   5.838  36.903  14.373
64927W        W28684  21.603  24.649   3.251
64928W        W28685  25.969  22.687   3.713
64929W        W28686  30.007  13.349   1.879
64930W        W28687  33.486  24.606   3.812
64931W        W28688  44.458   0.460  10.944
64932W        W28689  12.121  30.149  10.416
64933W        W28690   3.726  31.584  11.861
64934W        W28691   3.364  43.369   3.861
64935W        W28692  19.183  24.115   1.738
64936W        W28693  13.183  35.538  14.473
64937W        W28694  16.613   2.351  11.395
64938W        W28695   1.441   6.798   4.827
64939W        W28696   6.782  41.377   0.945
64940W        W28697   4.822  26.564   9.947
64941W        W28698  15.747  12.735   3.180
64942W        W28699  41.921  41.324  13.931
64943W        W28700  30.981  29.670   0.777
64944W        W28701  35.398  12.778  12.435
64945W        W28702  38.415  23.046  13.540
64946W        W28703  39.981  28.537   1.411
64947W        W28704   9.154  17.730  13.417
64948W        W28705  28.080  21.187  10.110
64949W        W28706  29.039  26.971   0.370
64950W        W28707  30.543  16.701   9.987
64951W        W28708   9.655  26.010   1.759
64952W        W28709  43.451  10.772  14.983
64953W        W28710  26.664  16.613   0.836
64954W        W28711   1.393  43.302   0.271
64955W        W28712  32.040  26.060   4.808
64956W        W28713  17.601  28.100   4.179
64957W        W28714  19.205  11.341   1.724
64958W        W28715  12.834  40.911  13.980
64959W        W28716   8.373   0.962  10.500
64960W        W28717  36.465  26.644   9.495
64961W        W28718  18.152  35.406  14.282
64962W        W28719  20.253  35.455   2.349
64963W        W28720   9.164  13.121   2.833
64964W        W28721  38.980  40.381   3.245
64965W        W28722  20.194  44.932  11.000
64966W        W28723  37.380  42.468   2.395
64967W        W28724  30.047   2.343  14.861
64968W        W28725  19.614   0.351  13.857
64969W        W28726   3.841  29.944  11.374
64970W        W28727  22.699  14.822   0.409
64971W        W28728   5.932  40.898   2.369
64972W        W28729  20.617  30.582   2.721
64973W        W28730  31.965  13.656   3.256
64974W        W28731   9.741  37.995   3.307
64975W        W28732   6.770   9.849  13.421
64976W        W28733  44.481  17.781   3.325
64977W        W28734   3.838   3.765  13.880
64978W        W28735  21.199   9.827   2.302
64979W        W28736  36.048  32.103   1.352
64980W        W28737  12.768  26.459   4.292
64981W        W28738  28.566  44.950  11.008
64982W        W28739  40.980   0.851   0.861
64983W        W28740  17.108  41.462   1.896
64984W        W28741  21.077  33.516  13.002
64985W        W28742  32.999  27.197   3.253
64986W        W28743  20.159   8.753   0.420
64987W        W28744  25.964  39.037  14.371
64988W        W28745   8.682   8.899   1.380
64989W        W28746  43.397   6.223  11.502
64990W        W28747   2.933  42.923  13.934
64991W        W28748  22.507  28.993   2.669
64992W        W28749  28.454  14.801   1.368
64993W        W28750  16.254  43.770   2.333
64994W        W28751   7.881  32.462  14.013
64995W        W28752  31.931  26.014   1.210
64996W        W28753  18.614  20.682  12.387
64997W        W28754  37.033  41.982  14.024
64998W        W28755  19.697  31.422  13.937
64999W        W28756  27.624   6.719   4.626
65000W        W28757  25.493   6.261   1.823
65001W        W28758  18.094  12.806   0.833
65002W        W28759  18.625  28.436  13.472
65003W        W28760  22.615  15.590  12.925
65004W        W28761  28.524  37.499   3.653
65005W        W28762   6.888  16.617   0.465
65006W        W28763  34.897  12.822  13.933
65007W        W28764  43.837  28.042  14.313
65008W        W28765   3.859  10.689   0.792
65009W        W28766   9.772  32.604   2.181
65010W        W28767  15.650  44.895   2.770
65011W        W28768  35.974  44.760   2.185
65012W        W28769  30.556  43.876  12.077
65013W        W28770  14.820   7.295  10.064
65014W        W28771   0.925  37.548   3.171
65015W        W28772   9.369   1.908   3.298
65016W        W28773  36.866  15.135   2.754
65017W        W28774  14.202  42.918  11.536
65018W        W28775  18.691  39.405  14.500
65019W        W28776  39.022  39.988  10.924
65020W        W28777   3.841  44.475   3.723
65021W        W28778  30.617  41.308   2.326
65022W        W28779   9.264  39.526  13.527
65023W        W28780  37.373  21.573   3.207
65024W        W28781  14.121  20.715   1.378
65025W        W28782  20.071  24.200  11.086
65026W        W28783  21.049  24.148  12.502
65027W        W28784  12.138  31.451   3.294
65028W        W28785  42.486  20.163   4.321
65029W        W28786  27.039  32.457  11.532
65030W        W28787   3.243   7.734   3.816
65031W        W28788   8.721  40.007   3.834
65032W        W28789  34.077   3.868  13.855
65033W        W28790  29.013  33.097   4.734
65034W        W28791   3.955  36.437  11.891
65035W        W28792  14.186  32.121  12.997
65036W        W28793  13.698  11.725  13.426
65037W        W28794  35.090  28.630  14.823
65038W        W28795  21.110  43.416   2.186
65039W        W28796  28.667   3.952  12.093
65040W        W28797  43.936  10.780   4.626
65041W        W28798  12.203  18.646  14.873
65042W        W28799  21.070  15.282   1.861
65043W        W28800  20.192  23.703   1.295
65044W        W28801   9.822   5.233  10.944
65045W        W28802  27.179   0.440   2.295
65046W        W28803  43.503  42.301   3.312
65047W        W28804   9.208  36.348   0.854
65048W        W28805  30.647  24.986   2.208
65049W        W28806  38.020   8.853   0.268
65050W        W28807  18.703   6.403   2.230
65051W        W28808   3.710  30.029  13.843
65052W        W28809  30.149   5.408  14.471
65053W        W28810  44.833  16.618  11.045
65054W        W28811  37.398  31.982  11.044
65055W        W28812  36.458  29.541   1.849
65056W        W28813   9.249   2.277  14.286
65057W        W28814  33.621   2.456  14.328
65058W        W28815  13.652  31.427  11.562
65059W        W28816  34.483  29.169   4.143
65060W        W28817   7.333  17.591  13.834
65061W        W28818   6.798  21.093   4.325
65062W        W28819  33.059  18.122   2.292
65063W        W28820   6.799  21.736  12.374
65064W        W28821  17.673  39.940  13.021
65065W        W28822   6.754  43.344   5.178
65066W        W28823  31.097  12.159   1.213
65067W        W28824  22.634   8.753  10.594
65068W        W28825  11.663   8.847   3.306
65069W        W28826   6.745   7.848  10.547
65070W        W28827  34.061  30.976   4.699
65071W        W28828  28.107  12.818   3.300
65072W        W28829   9.862  30.461   0.305
65073W        W28830  33.102  31.103  11.128
65074W        W28831  23.106  24.104  12.566
65075W        W28832   2.400   1.317   0.480
65076W        W28833  25.502  14.147   5.244
65077W        W28834   8.811  18.738  12.489
65078W        W28835  15.764   4.772   1.359
65079W        W28836  18.095  17.294  14.290
65080W        W28837  18.126  18.551   3.737
65081W        W28838  43.298   1.905  11.075
65082W        W28839  14.167  19.217   0.784
65083W        W28840  32.090   6.275   0.825
65084W        W28841  17.230  14.272  13.960
65085W        W28842  39.889   0.265  14.310
65086W        W28843  14.594  27.491  14.445
65087W        W28844  40.351  28.046  12.876
65088W        W28845   3.378  29.549  13.346
65089W        W28846  34.499  13.275  13.454
65090W        W28847  39.363  19.147   0.396
65091W        W28848   0.825  13.721   2.341
65092W        W28849  29.064  27.642  11.574
65093W        W28850   7.858   6.279  12.892
65094W        W28851   8.856  43.343   4.674
65095W        W28852  43.301  25.156   1.845
65096W        W28853  34.379   3.280   3.846
65097W        W28854   4.771   7.694  12.906
65098W        W28855  21.700   0.984  13.482
65099W        W28856  22.616  35.412  12.553
65100W        W28857  24.534   0.437   2.704
65101W        W28858  27.046  37.830  10.508
65102W        W28859  17.134  20.579  10.411
65103W        W28860  28.181  13.236   0.824
65104W        W28861  35.395   8.821   0.393
65105W        W28862   0.857  35.437  11.931
65106W        W28863  10.180  40.881   1.821
65107W        W28864  43.462   5.724  10.962
65108W        W28865  37.928   9.760  14.353
65109W        W28866   4.430  19.235   0.470
65110W        W28867  18.659  29.942  12.851
65111W        W28868  25.587  28.614   3.216
65112W        W28869  44.400  26.587  10.485
65113W        W28870  20.718  37.020  14.464
65114W        W28871   0.346  19.262  10.445
65115W        W28872   8.688  27.085  11.079
65116W        W28873   1.796  35.518  13.432
65117W        W28874  24.547  29.481   2.214
65118W        W28875  31.009   9.337  13.356
65119W        W28876  40.360  32.547   1.361
65120W        W28877  22.579  41.385   0.372
65121W        W28878  14.764   6.873  14.945
65122W        W28879  27.047   8.861  10.447
65123W        W28880  32.424  28.130   2.406
65124W        W28881  13.269   7.263   0.781
65125W        W28882  13.339  28.632  13.038
65126W        W28883   1.306  11.221  14.334
65127W        W28884  37.996  34.964  13.839
65128W        W28885  18.763  26.066   2.395
65129W        W28886  29.066   5.792   4.184
65130W        W28887  36.440  16.741  12.461
65131W        W28888  44.789   6.388   0.879
65132W        W28889  14.606  18.070   1.851
65133W        W28890  31.496  23.593   1.243
65134W        W28891  15.155  42.963  13.840
65135W        W28892  17.263  27.100   3.869
65136W        W28893   7.398  24.181   1.699
65137W        W28894  37.883  17.218   3.174
65138W        W28895  30.413   6.255   1.291
65139W        W28896  29.048  29.013   0.292
65140W        W28897   6.899  32.574  10.418
65141W        W28898  14.097  35.437  11.562
65142W        W28899   6.810  11.159   2.185
65143W        W28900  12.671   9.188  12.401
65144W        W28901   7.688   9.375   1.430
65145W        W28902   4.924  26.666   1.236
65146W        W28903  22.088  17.796  14.451
65147W        W28904  28.647  23.211   4.737
65148W        W28905  39.537  26.042  12.912
65149W        W28906  43.474  18.213   4.290
65150W        W28907  23.731  21.577   3.180
65151W        W28908  31.427  32.966  11.033
65152W        W28909  36.936  21.600  10.558
65153W        W28910  32.981  14.162  10.919
65154W        W28911  36.897  18.247  12.452
65155W        W28912  17.748  10.673   3.749
65156W        W28913  31.510  23.080   4.736
65157W        W28914  20.212  24.706   1.720
65158W        W28915  33.059  19.710   3.684
65159W        W28916  11.651  39.948   1.702
65160W        W28917  15.644  33.065  14.384
65161W        W28918  43.969  39.917  12.552
65162W        W28919  16.160   9.181   0.789
65163W        W28920  34.431  20.531  12.350
65164W        W28921  19.228  17.164   1.443
65165W        W28922   4.208  16.193  13.544
65166W        W28923  41.455  44.383  13.953
65167W        W28924   3.330  29.570   2.729
65168W        W28925  13.290   7.676   4.171
65169W        W28926  13.115  18.168  14.469
65170W        W28927  36.411  38.052   0.288
65171W        W28928  33.468  33.022  13.481
65172W        W28929  25.694   0.944  12.956
65173W        W28930  10.185   9.797  12.967
65174W        W28931  24.624  28.128   3.710
65175W        W28932  20.602   6.821  11.515
65176W        W28933  12.252   2.269   2.203
65177W        W28934  42.351  38.996  12.549
65178W        W28935  39.518  13.791  11.613
65179W        W28936  42.324  10.237  14.464
65180W        W28937   1.271  37.549  12.854
65181W        W28938   9.678  17.631  10.900
65182W        W28939  29.058  37.351  11.977
65183W        W28940  38.387   0.307   0.401
65184W        W28941   7.286   9.777   4.181
65185W        W28942  41.828   9.244  14.028
65186W        W28943   9.647   9.367   2.225
65187W        W28944  27.176  40.307   1.730
65188W        W28945  14.671  16.149  12.977
65189W        W28946   7.764  12.220  12.504
65190W        W28947  31.905  12.116  10.590
65191W        W28948  38.016  27.672   1.236
65192W        W28949  25.025   5.284   1.368
65193W        W28950   3.217  44.398   1.846
65194W        W28951  44.315  28.479   2.778
65195W        W28952  22.183  13.309   2.396
65196W        W28953  21.192  13.303   0.263
65197W        W28954  32.022  22.215   3.827
65198W        W28955   1.964  44.953  13.311
65199W        W28956  40.901  21.039   5.130
65200W        W28957  29.433  25.145  14.330
65201W        W28958   4.249   7.794  14.948
65202W        W28959  10.678  43.771   0.358
65203W        W28960  13.800  19.051  12.963
65204W        W28961  26.650  18.291  13.062
65205W        W28962  13.707  19.273   1.321
65206W        W28963  11.251  34.881  10.488
65207W        W28964  19.582   7.797   2.218
65208W        W28965   3.272  39.364   3.768
65209W        W28966  36.355  12.763  14.921
65210W        W28967  25.153  10.337  12.896
65211W        W28968  41.041  20.641   0.742
65212W        W28969  14.314  22.203  12.047
65213W        W28970   7.841  15.686   0.374
65214W        W28971   3.264  37.380   2.289
65215W        W28972  14.177  43.790  12.849
65216W        W28973   0.453  42.312   2.874
65217W        W28974  35.578  26.686  14.802
65218W        W28975  34.440  27.025   3.690
65219W        W28976   8.295  34.995   1.351
65220W        W28977  30.054  12.802   4.613
65221W        W28978  38.904  30.574  14.020
65222W        W28979   9.746  41.527   1.902
65223W        W28980  40.055  13.164  11.080
65224W        W28981  35.466   2.360   5.179
65225W        W28982  44.383   9.293  11.399
65226W        W28983  15.202  21.686   2.206
65227W        W28984  44.285   3.730  12.455
65228W        W28985  27.461  19.734  12.841
65229W        W28986  41.462  20.554  12.093
65230W        W28987   1.934  31.103  11.502
65231W        W28988  17.631  24.978  13.470
65232W        W28989   9.849  13.674   2.737
65233W        W28990  19.706  17.755   0.255
65234W        W28991  26.121  12.125  12.374
65235W        W28992  18.211  44.773  11.543
65236W        W28993  15.285  14.829  12.495
65237W        W28994  39.393  14.280   1.780
65238W        W28995  20.079  33.487  12.857
65239W        W28996  16.253  16.281   3.308
65240W        W28997  12.819  25.150  11.874
65241W        W28998  30.928  20.612  12.957
65242W        W28999   0.921  21.045  13.846
65243W        W29000  26.063  39.991  14.444
65244W        W29001  41.332   0.327  10.921
65245W        W29002  10.719  22.176   0.757
65246W        W29003  30.493  19.174  11.426
65247W        W29004  38.041  27.028   3.343
65248W        W29005  25.681  21.188   0.784
65249W        W29006  43.984   3.739   1.715
65250W        W29007  29.615  39.336  12.994
65251W        W29008  33.087  28.964   2.224
65252W        W29009  42.868   6.397  11.867
65253W        W29010  30.590  14.332  14.359
65254W        W29011   4.257  32.439   4.347
65255W        W29012   5.230  19.665  14.470
65256W        W29013  24.513  28.669   1.923
65257W        W29014  25.669  44.814  12.047
65258W        W29015  18.216  16.581   1.901
65259W        W29016  40.954  28.669  11.610
65260W        W29017  26.641  37.978  14.921
65261W        W29018  15.577  27.489   0.307
65262W        W29019   0.372  23.726  12.892
65263W        W29020  23.217  20.117   0.857
65264W        W29021  28.664  27.006   2.328
65265W        W29022  12.667   1.831   4.659
65266W        W29023  31.000  33.110   2.313
65267W        W29024  20.713  28.533   4.639
65268W        W29025  26.159  10.754   3.248
65269W        W29026  23.149  40.388   0.321
65270W        W29027   6.840  41.793   0.825
65271W        W29028  41.801  15.810   4.724
65272W        W29029  43.770   3.376  12.958
65273W        W29030  18.610  22.212  14.315
65274W        W29031  33.515  26.486  10.160
65275W        W29032  27.104  43.335   3.817
65276W        W29033  37.898  19.697   0.440
65277W        W29034  44.861  11.158   0.854
65278W        W29035  23.527  44.381   2.691
65279W        W29036  28.047  41.865  11.892
65280W        W29037  36.946  15.317   1.280
65281W        W29038  21.054  10.309  10.542
65282W        W29039   9.880  20.240   1.888
65283W        W29040  22.036  30.913   4.203
65284W        W29041   1.789   3.316   3.746
65285W        W29042  44.496   9.799  12.450
65286W        W29043  13.829  24.010  14.451
65287W        W29044  30.096  27.995  12.926
65288W        W29045  32.458  27.468  13.418
65289W        W29046   1.803  25.055  12.546
65290W        W29047  16.125  28.956  14.329
65291W        W29048   5.382  41.408   4.142
65292W        W29049  33.438  33.920  13.851
65293W        W29050   1.897   4.280  13.822
65294W        W29051  43.402  42.457  13.544
65295W        W29052  11.276  38.072   3.778
65296W        W29053  22.193  20.171   2.326
65297W        W29054  37.483  14.597   1.363
65298W        W29055  39.946  32.114  14.311
65299W        W29056   0.772  14.315   3.155
65300W        W29057  43.773   0.914   4.130
65301W        W29058   8.235   7.369  13.491
65302W        W29059   8.834   3.846   1.833
65303W        W29060  10.810  33.071  12.865
65304W        W29061  17.600  12.630   5.612
65305W        W29062  25.031  20.039   2.208
65306W        W29063   0.917  33.452  10.525
65307W        W29064   1.800  35.450  14.917
65308W        W29065  23.036  15.610  14.821
65309W        W29066  20.031  18.594  13.895
65310W        W29067   7.898  31.505   4.349
65311W        W29068  40.006  37.386  12.974
65312W        W29069   8.199   5.288  11.429
65313W        W29070  30.925  40.471  11.006
65314W        W29071   0.289  32.419   0.942
65315W        W29072  23.575  16.677   2.419
65316W        W29073  15.230  27.969   0.769
65317W        W29074  13.725   8.844   2.352
65318W        W29075  23.589  19.714  12.872
65319W        W29076   6.249  42.445   1.745
65320W        W29077  42.928  35.475  10.985
65321W        W29078  29.153  36.022  13.390
65322W        W29079   2.839  29.970   2.332
65323W        W29080   0.489  41.357   3.799
65324W        W29081   1.872  29.120  13.049
65325W        W29082   6.303  10.743   4.745
65326W        W29083   8.777  11.257  12.082
65327W        W29084  29.003  19.281   3.693
65328W        W29085  15.297   7.243  12.886
65329W        W29086  17.148  23.576   4.788
65330W        W29087  40.529   6.426  11.105
65331W        W29088   6.902   7.875   2.283
65332W        W29089   6.311  14.260  10.607
65333W        W29090  22.112  32.457  14.758
65334W        W29091  29.576  33.015   4.223
65335W        W29092  18.074  30.132  11.440
65336W        W29093  34.069  40.353   1.229
65337W        W29094  41.515  44.390   3.387
65338W        W29095  38.556  24.568  14.963
65339W        W29096  16.183  37.519   3.838
65340W        W29097   2.413  36.494  12.431
65341W        W29098   8.666  38.553  12.350
65342W        W29099   8.242  15.785  11.095
65343W        W29100  19.072   9.348  12.482
65344W        W29101  40.920  28.006   2.266
65345W        W29102  19.707  36.092  12.482
65346W        W29103  25.032  32.461  11.426
65347W        W29104   0.393  18.785   0.792
65348W        W29105   6.904  38.346  10.966
65349W        W29106  13.635  35.945   2.763
65350W        W29107  12.814  27.606  13.042
65351W        W29108  12.239  40.316  14.001
65352W        W29109  26.066  40.471  14.943
65353W        W29110  16.585  13.804   2.193
65354W        W29111  13.118  20.078   4.153
65355W        W29112  37.488  13.119   0.273
65356W        W29113   5.907   8.349   3.733
65357W        W29114  20.233  35.939  13.362
65358W        W29115  38.826  44.303  12.835
65359W        W29116   8.400  18.220   5.565
65360W        W29117  35.989   0.796  14.869
65361W        W29118  32.890   6.750  13.841
65362W        W29119  20.090  32.938   9.945
65363W        W29120  41.928  40.964   4.601
65364W        W29121  30.585  37.362  12.938
65365W        W29122  37.999  26.980   1.752
65366W        W29123  13.754   3.923  13.502
65367W        W29124  16.194  22.052  13.022
65368W        W29125  41.848  14.202   3.264
65369W        W29126  33.580   5.252   1.886
65370W        W29127  25.155   7.199  12.001
65371W        W29128   5.740   2.932  11.448
65372W        W29129  42.862  17.141   2.691
65373W        W29130  42.930  17.173  10.624
65374W        W29131  44.993  13.187   0.258
65375W        W29132  26.089  28.672  14.287
65376W        W29133  25.196  13.232   1.396
65377W        W29134  13.621  22.021   4.827
65378W        W29135  10.354   4.372  13.540
65379W        W29136  31.405  20.550   3.229
65380W        W29137   0.942  37.568  12.849
65381W        W29138   2.955  26.697  14.911
65382W        W29139   4.408  37.461   1.833
65383W        W29140  18.278   3.747   0.352
65384W        W29141  19.132  30.952  14.889
65385W        W29142   8.671  36.897   4.301
65386W        W29143  14.787   6.336  14.281
65387W        W29144   9.157  11.779  11.553
65388W        W29145   1.250  14.779  12.544
65389W        W29146  21.698  26.964  13.543
65390W        W29147  11.656   3.847  11.884
65391W        W29148  10.832  10.781  11.939
65392W        W29149  43.488   6.728   4.352
65393W        W29150   6.322  34.023  14.025
65394W        W29151  26.484  35.047   4.690
65395W        W29152  40.853  13.238   3.824
65396W        W29153   4.827  20.076  13.466
65397W        W29154   5.206  34.961   4.732
65398W        W29155  21.671  39.903   0.926
65399W        W29156  39.468  42.887  13.316
65400W        W29157   4.376   5.768   2.252
65401W        W29158  12.289   7.834   4.265
65402W        W29159  10.186  35.859  12.012
65403W        W29160  35.056  14.755   1.212
65404W        W29161  25.559  23.692   1.910
65405W        W29162  28.641  44.886   0.259
65406W        W29163  30.485  36.939   0.947
65407W        W29164  15.196  28.047  14.938
65408W        W29165  22.156  24.176   3.815
65409W        W29166   2.917   0.388   1.754
65410W        W29167  24.560  13.346   1.778
65411W        W29168  14.226  38.474   9.940
65412W        W29169  21.196  26.005  13.017
65413W        W29170  34.076  17.161  14.408
65414W        W29171  39.873  34.035  13.515
65415W        W29172  13.157  44.976   3.242
65416W        W29173  41.793  25.591   2.755
65417W        W29174  13.217  19.686   4.285
65418W        W29175  13.299   2.942  14.993
65419W        W29176   8.897   4.243  11.905
65420W        W29177  25.552  36.859  12.340
65421W        W29178  31.925   0.488  11.609
65422W        W29179  39.434  33.024   4.776
65423W        W29180  37.564  21.209   2.286
65424W        W29181  28.113  29.629  13.525
65425W        W29182   1.255  43.795  10.584
65426W        W29183  26.197  30.594  11.927
65427W        W29184  37.510  30.967   3.770
65428W        W29185   1.416  12.682  11.936
65429W        W29186  43.853  11.331   2.768
65430W        W29187  29.084  13.828  14.386
65431W        W29188   9.323  19.762  10.470
65432W        W29189  29.072  11.769   3.709
65433W        W29190  26.551  34.458  13.873
65434W        W29191  25.216  31.452  10.594
65435W        W29192  29.950  24.110   3.834
65436W        W29193  36.961  21.095  12.859
65437W        W29194  40.372  20.214  12.877
65438W        W29195  42.886  28.942   2.252
65439W        W29196   4.220  27.018   4.266
65440W        W29197  42.307  23.132  13.379
65441W        W29198  16.674  14.265  14.775
65442W        W29199  13.324  24.585   3.816
65443W        W29200  24.220  39.923  13.985
65444W        W29201   2.784   0.980   3.765
65445W        W29202  16.602  37.985   1.810
65446W        W29203  34.486  21.134   1.330
65447W        W29204  20.037   9.759   1.795
65448W        W29205  16.185  21.528   3.819
65449W        W29206  41.818  24.208  11.549
65450W        W29207   7.726  11.789  11.044
65451W        W29208  22.694  15.238  10.605
65452W        W29209   4.931  35.536  11.021
65453W        W29210  29.616  31.487  13.946
65454W        W29211  12.148  15.605   2.418
65455W        W29212  35.934  18.599  12.441
65456W        W29213  24.120  40.932   0.895
65457W        W29214   3.449   0.259  11.472
65458W        W29215   2.768   4.823   3.678
65459W        W29216  17.306  21.141  12.367
65460W        W29217  19.559   2.855  13.508
65461W        W29218  42.787   1.738   1.733
65462W        W29219  14.814  35.097   2.788
65463W        W29220   7.859  24.018  13.903
65464W        W29221  25.682  11.788   4.803
65465W        W29222  37.006   2.843  11.100
65466W        W29223  31.021  15.272  13.413
65467W        W29224  21.046   3.813  11.065
65468W        W29225  18.281  37.527   3.335
65469W        W29226  35.584  25.621  14.458
65470W        W29227  44.778   4.436  12.855
65471W        W29228  40.989   8.376  10.531
65472W        W29229  30.086   9.355   2.773
65473W        W29230  29.665  26.063  12.882
65474W        W29231   4.290  40.451   3.317
65475W        W29232  20.083   4.406  14.509
65476W        W29233   9.733  35.950   2.728
65477W        W29234  33.594  14.650  12.879
65478W        W29235  30.640  25.601   0.736
65479W        W29236  12.777  14.619  12.352
65480W        W29237  38.556  40.841   1.710
65481W        W29238  23.091  24.564  13.506
65482W        W29239  17.744  12.617   4.262
65483W        W29240  29.435   8.363  13.539
65484W        W29241  20.726  36.365   1.317
65485W        W29242  25.181  39.941   3.246
65486W        W29243  20.118   5.406  13.425
65487W        W29244  30.108   2.368   1.771
65488W        W29245  30.097  40.394   1.316
65489W        W29246   6.811  42.021   2.315
65490W        W29247  25.528  24.723   3.692
65491W        W29248  15.134  10.335   3.812
65492W        W29249  39.393   4.804  14.944
65493W        W29250  19.099  26.603  12.846
65494W        W29251  27.574   1.472  13.970
65495W        W29252  41.471  17.792  12.426
65496W        W29253  19.210  15.806   4.165
65497W        W29254  32.573   9.305   4.350
65498W        W29255  15.204   7.911   2.210
65499W        W29256  34.876  20.672  11.446
65500W        W29257  10.196  23.239  11.974
65501W        W29258  12.350  42.914   1.429
65502W        W29259  32.404   2.909   5.287
65503W        W29260  17.186  22.125  10.453
65504W        W29261  24.229  15.676   3.868
65505W        W29262  20.530  27.139  12.089
65506W        W29263  18.606  31.591   0.923
65507W        W29264   2.942  19.683   2.339
65508W        W29265  34.528  25.468  14.391
65509W        W29266  42.357  22.243   1.729
65510W        W29267   0.384   9.282   2.711
65511W        W29268   5.738  10.854   0.473
65512W        W29269  41.895  15.771  11.567
65513W        W29270  34.501  15.131   3.806
65514W        W29271  44.906  14.137  13.027
65515W        W29272   2.910  17.176  14.501
65516W        W29273   9.190  30.548   4.345
65517W        W29274  10.351  20.052   3.248
65518W        W29275  24.489  16.215  14.332
65519W        W29276  22.702  16.787   2.280
65520W        W29277  25.119  19.605  14.023
65521W        W29278   0.886  28.016   0.780
65522W        W29279   7.283  40.450   3.242
65523W        W29280  35.537  40.859   3.259
65524W        W29281   7.881   7.826  11.481
65525W        W29282  37.997  14.304   4.183
65526W        W29283  27.094  16.581   4.607
65527W        W29284   8.255  17.560   0.391
65528W        W29285  20.046  18.068  11.522
65529W        W29286  14.696  24.673  10.411
65530W        W29287  20.148   0.977  13.512
65531W        W29288  42.807  12.663   4.228
65532W        W29289  27.593  34.886   4.124
65533W        W29290   4.816   5.744   0.798
65534W        W29291  10.765  27.969  12.858
65535W        W29292   1.876  27.536   1.916
65536W        W29293   8.729  16.673  11.478
65537W        W29294  24.150  41.017   3.272
65538W        W29295  34.986  29.480   2.197
65539W        W29296   0.869  22.208  14.383
65540W        W29297  16.757  29.453   0.372
65541W        W29298  34.372  32.498   0.326
65542W        W29299  36.841  37.901  12.947
65543W        W29300   5.723   5.926   4.647
65544W        W29301  29.490  28.606   4.789
65545W        W29302  32.910  38.002  10.536
65546W        W29303  23.726  22.623   9.962
65547W        W29304  13.661  20.545  14.365
65548W        W29305  17.559  20.064   3.719
65549W        W29306  15.299  13.771   4.699
65550W        W29307   6.757  17.117   2.253
65551W        W29308   2.425  41.368  14.772
65552W        W29309  24.159  17.187  13.869
65553W        W29310  18.158   4.921   2.713
65554W        W29311  43.936   3.752   3.242
65555W        W29312   8.347  19.187  13.923
65556W        W29313   3.905  31.594  13.039
65557W        W29314   9.890  17.619   3.381
65558W        W29315   6.797  16.140  14.822
65559W        W29316   1.403  43.948  14.434
65560W        W29317  26.095  29.172   1.286
65561W        W29318  26.138   0.946  14.495
65562W        W29319  26.162  41.880  10.612
65563W        W29320  10.820  22.202  11.086
65564W        W29321  13.825  10.276  11.875
65565W        W29322  38.954  33.088   1.836
65566W        W29323   1.877  41.892  14.894
65567W        W29324  20.037  16.110   3.753
65568W        W29325  39.005  25.188  10.996
65569W        W29326  38.991  12.621   1.310
65570W        W29327  38.052  41.529  14.979
65571W        W29328   0.796  42.910  10.543
65572W        W29329  25.016  26.156  13.038
65573W        W29330  14.820  40.869  13.521
65574W        W29331  31.564  13.797  14.409
65575W        W29332   5.757   3.865  14.497
65576W        W29333  32.494  16.316  13.449
65577W        W29334  36.373  41.423  11.077
65578W        W29335  11.363   0.911   3.686
65579W        W29336  13.236  43.415   3.719
65580W        W29337  19.653  18.054  11.495
65581W        W29338  17.240  30.140  14.846
65582W        W29339  26.653  37.870   2.270
65583W        W29340  35.421  34.563   1.713
65584W        W29341  44.848  38.449   1.719
65585W        W29342  31.029  43.511  12.972
65586W        W29343   2.853   7.401  14.411
65587W        W29344  20.533  31.423  14.786
65588W        W29345  37.435  40.882  13.500
65589W        W29346   0.799  32.083   2.375
65590W        W29347  10.815  18.729   1.352
65591W        W29348  39.532  31.550   0.820
65592W        W29349  37.946   1.736   3.806
65593W        W29350  29.529  27.086  11.878
65594W        W29351   0.322  22.237   1.217
65595W        W29352  26.045   1.939   0.843
65596W        W29353   0.369  35.865  13.509
65597W        W29354  43.789  12.156   2.251
65598W        W29355  37.887   3.828   2.385
65599W        W29356  29.616  32.572   1.795
65600W        W29357  42.510   9.660  14.873
65601W        W29358  37.927  42.863   3.787
65602W        W29359   8.208  19.749   3.811
65603W        W29360  24.148  40.489  12.914
65604W        W29361   0.311  42.434  11.397
65605W        W29362  39.357  40.420  14.452
65606W        W29363  42.468  19.280   1.283
65607W        W29364  28.542   9.244   1.290
65608W        W29365   8.821   3.952  10.505
65609W        W29366  22.599   4.313   2.783
65610W        W29367  20.557  25.685   1.358
65611W        W29368  36.876  31.472  13.863
65612W        W29369   7.197  30.590  13.330
65613W        W29370  34.059  40.987  13.511
65614W        W29371  23.598  18.754   4.718
65615W        W29372   3.870  38.414   0.329
65616W        W29373  21.531  30.957  10.592
65617W        W29374  26.556  40.891  13.489
65618W        W29375  24.153  26.673  14.914
65619W        W29376  31.154  13.702  10.147
65620W        W29377  20.641   3.787  13.916
65621W        W29378   3.836  38.325  14.841
65622W        W29379  39.915   6.828   1.889
65623W        W29380  38.446   4.289   3.830
65624W        W29381  12.309  25.033   2.311
65625W        W29382  13.159  25.659   2.218
65626W        W29383   2.286  43.878  10.517
65627W        W29384  15.805   9.661  14.417
65628W        W29385   4.921   3.401   0.264
65629W        W29386  20.066  25.526   4.740
65630W        W29387  12.624  15.250   2.192
65631W        W29388  19.283  37.368   0.319
65632W        W29389  15.242  43.766   2.898
65633W        W29390  12.237  38.947   0.416
65634W        W29391  40.829  32.910   2.701
65635W        W29392   0.280  20.143   3.818
65636W        W29393   1.737  11.830   3.788
65637W        W29394  34.945  26.561  10.900
65638W        W29395   3.942  16.175   4.700
65639W        W29396  12.851  30.033   3.836
65640W        W29397  38.502  22.079   3.381
65641W        W29398  20.748  27.568   0.473
65642W        W29399  21.651  27.658  12.971
65643W        W29400  26.207   9.857   3.863
65644W        W29401  17.187  40.926  11.389
65645W        W29402   7.355  13.804   3.178
65646W        W29403  28.056  12.125  13.513
65647W        W29404  26.499  43.453   3.305
65648W        W29405  26.619   0.251   0.246
65649W        W29406   5.282  17.667  11.439
65650W        W29407  39.051  41.967  11.897
65651W        W29408  38.985  38.918  13.370
65652W        W29409  23.620   1.375  14.944
65653W        W29410  28.625   5.793  13.357
65654W        W29411  16.160   0.922   0.378
65655W        W29412  10.311  42.466   3.868
65656W        W29413  21.170  23.732  10.482
65657W        W29414   0.874  23.170  11.882
65658W        W29415   1.431  25.110  13.877
65659W        W29416  14.170  44.423   1.735
65660W        W29417  17.742  15.802  11.535
65661W        W29418  21.159  37.442   0.832
65662W        W29419  31.983   5.739  11.578
65663W        W29420   1.972   5.834  12.519
65664W        W29421  15.271   8.373  12.070
65665W        W29422  13.632  44.488  12.979
65666W        W29423  44.907  33.120  11.004
65667W        W29424  21.140  35.985  12.346
65668W        W29425  14.615  42.885  12.514
65669W        W29426   2.874  29.644  13.997
65670W        W29427  11.721  40.812  12.095
65671W        W29428  23.620  23.727   1.232
65672W        W29429  12.279  29.010   4.317
65673W        W29430  34.409  39.028   1.393
65674W        W29431  23.203  29.041  14.392
65675W        W29432   2.909  44.847  10.565
65676W        W29433  39.050  30.010   3.823
65677W        W29434  24.616  17.783   4.709
65678W        W29435  17.291  26.042   3.847
65679W        W29436   1.975  32.926  14.426
65680W        W29437  32.909  24.102   3.366
65681W        W29438  33.979  19.275  12.906
65682W        W29439  10.171  30.047   2.387
65683W        W29440  12.793  33.066   1.352
65684W        W29441  39.833  25.704  13.510
65685W        W29442  43.839  30.153   4.167
65686W        W29443  20.643  40.887   0.325
65687W        W29444  38.966  41.921   5.133
65688W        W29445  11.346   2.926  13.920
65689W        W29446  32.985  27.945   2.894
65690W        W29447   1.877  29.030  13.828
65691W        W29448  12.832  15.612  11.442
65692W        W29449  13.147  21.209  12.833
65693W        W29450  43.428  29.938   0.863
65694W        W29451  26.536   2.299   3.807
65695W        W29452  33.520  32.944   2.798
65696W        W29453  34.577  44.438  11.110
65697W        W29454   4.830  20.126   3.770
65698W        W29455  43.012  18.166   0.959
65699W        W29456   2.925  10.661  11.026
65700W        W29457  21.741  36.939   2.769
65701W        W29458  42.859  27.048  11.455
65702W        W29459  31.453  20.667   0.283
65703W        W29460  11.365  34.912  13.916
65704W        W29461  34.597  32.618  10.630
65705W        W29462   5.879  33.939   3.329
65706W        W29463  12.708  33.905   3.280
65707W        W29464   2.826  34.988   4.611
65708W        W29465   8.684  33.007  10.553
65709W        W29466  16.276  34.098  12.065
65710W        W29467  16.763  32.131   1.403
65711W        W29468   6.786  17.624  13.405
65712W        W29469  40.407  41.867   1.699
65713W        W29470  13.161   2.335  12.830
65714W        W29471  12.640   1.736   2.243
65715W        W29472  24.566  34.472  11.050
65716W        W29473  35.020  43.345  12.097
65717W        W29474  10.667   7.674  13.935
65718W        W29475  24.018  38.570   3.170
65719W        W29476   9.838  32.965  14.817
65720W        W29477  43.374  13.837   2.278
65721W        W29478  34.540  31.131  13.052
65722W        W29479  42.882   2.764  14.917
65723W        W29480  25.106  31.085   4.244
65724W        W29481  11.849  37.042   3.243
65725W        W29482  14.617   6.207   2.294
65726W        W29483  24.697   8.675  11.117
65727W        W29484  37.995   9.842   4.797
65728W        W29485   8.799  10.262   1.840
65729W        W29486  32.410  35.936  12.580
65730W        W29487  21.739  23.573  14.468
65731W        W29488  28.583   3.837   1.839
65732W        W29489  15.279   3.409  13.354
65733W        W29490   5.769   8.870  12.093
65734W        W29491  29.657   7.669   4.601
65735W        W29492  19.705  17.625   1.298
65736W        W29493  37.849  13.653   2.861
65737W        W29494   3.873  16.613  13.953
65738W        W29495   0.756   2.842  13.503
65739W        W29496  21.645   8.301  12.408
65740W        W29497  35.444  21.682  14.810
65741W        W29498  24.554  27.654  10.593
65742W        W29499  25.520  10.810  11.934
65743W        W29500  25.989   0.901   3.849
65744W        W29501  19.582   6.315  12.454
65745W        W29502  35.862  10.858   2.325
65746W        W29503  35.853  34.035  10.415
65747W        W29504  20.055  43.467  13.354
65748W        W29505  18.721  31.018   0.733
65749W        W29506  12.763  12.324  13.308
65750W        W29507  23.634  39.984  10.594
65751W        W29508  43.274  43.377  11.523
65752W        W29509   3.955  39.401  13.440
65753W        W29510   4.826  26.489  13.363
65754W        W29511   4.312   5.728   3.695
65755W        W29512  14.147   7.820   1.219
65756W        W29513   9.738  42.432   3.178
65757W        W29514  41.810  41.362   5.162
65758W        W29515  25.564  35.392   0.354
65759W        W29516   8.279  10.260   0.242
65760W        W29517   0.382  36.550   3.678
65761W        W29518  37.373  32.963  11.949
65762W        W29519  11.126  32.079  10.083
65763W        W29520  16.106  22.637  13.009
65764W        W29521  29.650  33.470   3.723
65765W        W29522   8.332  13.205   0.842
65766W        W29523  25.048  37.545  11.104
65767W        W29524  29.011  25.610   1.854
65768W        W29525   0.919   5.910   1.217
65769W        W29526  44.927  22.601  14.874
65770W        W29527  15.788  12.357   4.701
65771W        W29528  15.649  28.066  14.508
65772W        W29529  32.116  15.708  10.913
65773W        W29530  24.533  26.702  11.473
65774W        W29531  31.940   6.834   1.235
65775W        W29532  15.748  33.130   0.948
65776W        W29533  19.547  39.035   3.338
65777W        W29534  36.064   2.394  10.432
65778W        W29535  28.956  44.293   0.796
65779W        W29536  14.611  34.068   4.264
65780W        W29537  28.142  24.975   0.769
65781W        W29538  35.947   0.385   4.204
65782W        W29539  14.724  11.365   0.752
65783W        W29540  19.181  10.737  14.403
65784W        W29541  43.389   1.284  12.490
65785W        W29542   7.785   0.271  14.436
65786W        W29543  14.795   1.326   4.248
65787W        W29544   5.258  37.506   3.692
65788W        W29545  26.536  19.272  10.927
65789W        W29546   4.761   8.824   9.954
65790W        W29547  14.198  40.823  11.586
65791W        W29548  22.093  27.123   2.787
65792W        W29549   0.943  28.004  11.101
65793W        W29550   5.839   1.244  14.364
65794W        W29551  36.046  40.000  11.516
65795W        W29552   0.325  37.418  12.874
65796W        W29553   8.813  42.008  13.022
65797W        W29554  40.357   8.304   3.641
65798W        W29555   8.338  31.578  12.031
65799W        W29556   5.760  38.020  14.879
65800W        W29557  15.639  26.190  13.994
65801W        W29558  39.053  39.826  14.284
65802W        W29559  40.373  35.542  14.859
65803W        W29560   7.333   0.926  12.960
65804W        W29561  27.541  21.077  14.774
65805W        W29562  25.666   0.866  13.546
65806W        W29563  13.626   5.267  10.934
65807W        W29564   6.193  14.217  12.932
65808W        W29565  40.038  14.647  11.992
65809W        W29566  36.508   5.864  14.910
65810W        W29567  43.881   6.897   0.415
65811W        W29568  24.037  13.199  12.553
65812W        W29569  22.172   4.877  12.578
65813W        W29570  17.100  20.152  11.002
65814W        W29571  29.546  36.941  10.490
65815W        W29572   7.868  40.396   2.407
65816W        W29573  25.130   9.257  13.965
65817W        W29574  18.562  34.519  13.017
65818W        W29575  12.653   7.704   2.202
65819W        W29576  14.107  12.240  12.980
65820W        W29577  39.922   0.343   4.617
65821W        W29578  10.766   1.741   4.116
65822W        W29579   6.310   8.301   2.280
65823W        W29580   9.857  33.045  11.066
65824W        W29581  22.677  27.140   4.752
65825W        W29582  15.107  31.095  12.363
65826W        W29583  37.506  33.501   0.789
65827W        W29584   1.782   1.269   2.217
65828W        W29585  37.485  18.219   4.674
65829W        W29586   2.825  24.663   1.404
65830W        W29587  18.656   5.416  12.463
65831W        W29588   2.408   6.235   1.315
65832W        W29589  10.204  12.748   0.393
65833W        W29590  41.350   9.220  14.275
65834W        W29591  17.795   9.155  10.450
65835W        W29592  23.533  22.006  14.933
65836W        W29593  41.917   3.921  13.420
65837W        W29594  22.208  42.819  14.449
65838W        W29595  17.163  20.634  14.426
65839W        W29596  34.042  42.779  11.554
65840W        W29597   2.866  44.954  12.078
65841W        W29598  30.071  25.677  11.101
65842W        W29599  38.878  10.253  10.899
65843W        W29600  17.250  11.687   2.778
65844W        W29601  42.830  41.895  12.044
65845W        W29602  25.136   6.706   1.243
65846W        W29603  43.437   7.277   0.351
65847W        W29604  34.065  29.560  14.441
65848W        W29605  30.531  31.587   0.728
65849W        W29606   7.317  37.510   4.661
65850W        W29607  19.135   9.299   1.323
65851W        W29608  35.482  31.531  10.580
65852W        W29609  39.376  33.975  12.524
65853W        W29610  39.532   6.411   1.695
65854W        W29611  11.320  31.497  13.819
65855W        W29612  10.345  43.911   5.238
65856W        W29613  40.903  28.525  12.854
65857W        W29614  14.146  19.546  12.435
65858W        W29615  35.068  42.883   0.919
65859W        W29616   8.383  44.982  14.335
65860W        W29617  16.606   2.769  11.505
65861W        W29618  16.221  35.461  12.391
65862W        W29619  42.483   1.731  13.401
65863W        W29620  21.246  42.438  12.493
65864W        W29621  43.497  33.927  10.489
65865W        W29622  21.189  14.815   2.253
65866W        W29623  44.449  13.117   2.343
65867W        W29624  21.103   9.374  13.325
65868W        W29625  24.030  35.536  11.959
65869W        W29626  43.387  21.719   3.155
65870W        W29627  42.806  27.158  14.859
65871W        W29628  41.999  22.615  13.826
65872W        W29629  17.654  10.224   0.303
65873W        W29630  37.035   6.831  13.309
65874W        W29631  15.087  28.972  14.777
65875W        W29632  20.699  10.648  12.092
65876W        W29633  20.726  29.111  13.870
65877W        W29634  36.044  33.485  11.966
65878W        W29635  29.564  27.485  11.483
65879W        W29636  43.369   2.924   1.231
65880W        W29637  31.639  18.061   2.207
65881W        W29638  32.589  16.574  14.830
65882W        W29639  22.579  17.749   0.772
65883W        W29640  37.047  11.719  11.399
65884W        W29641   9.378  21.753  10.984
65885W        W29642  32.514   5.344  13.918
65886W        W29643  28.556  28.136   4.335
65887W        W29644  22.240  28.466  13.383
65888W        W29645   6.252   8.397  13.005
65889W        W29646  28.668  42.892  10.904
65890W        W29647  33.890  43.833  13.801
65891W        W29648   0.849  29.591  14.446
65892W        W29649  43.443   6.351   4.622
65893W        W29650  24.993  37.439  10.520
65894W        W29651  11.744   5.365  13.897
65895W        W29652   2.956   7.198   2.210
65896W        W29653  38.357  20.271  13.315
65897W        W29654  17.682  34.074   2.700
65898W        W29655  16.729  31.611   3.789
65899W        W29656   3.787  38.532  13.847
65900W        W29657  22.594  31.619  10.564
65901W        W29658  17.797  10.840  14.914
65902W        W29659  32.113  24.989  13.489
65903W        W29660   1.263  38.032  11.596
65904W        W29661  27.549  18.135   5.200
65905W        W29662  17.734  12.143  11.454
65906W        W29663  34.115  41.985   1.893
65907W        W29664  38.991  44.405   1.267
65908W        W29665   0.845  44.835   2.802
65909W        W29666  35.079  18.749   4.187
65910W        W29667  39.023  19.092  10.450
65911W        W29668  34.399  15.724   0.431
65912W        W29669  42.458  42.321  14.990
65913W        W29670  13.285  18.660  12.990
65914W        W29671   1.441  32.527   0.439
65915W        W29672  32.441  17.683   0.340
65916W        W29673  19.732  28.183   0.450
65917W        W29674  29.517  21.117   4.119
65918W        W29675  43.959  27.031  12.385
65919W        W29676   5.334  32.939  13.831
65920W        W29677  38.959   5.428   3.249
65921W        W29678  32.597  38.402  14.282
65922W        W29679  42.309   5.734  11.921
65923W        W29680   1.372   2.740   1.874
65924W        W29681  40.884  38.887   2.276
65925W        W29682  12.130  24.560   3.817
65926W        W29683  14.601  39.858   4.302
65927W        W29684  25.153  31.463   1.322
65928W        W29685  32.936  42.885  13.500
65929W        W29686  29.069  37.847   4.610
65930W        W29687  25.682  40.521  13.541
65931W        W29688  16.222  19.047   2.183
65932W        W29689  38.494   6.319   3.258
65933W        W29690  18.705  12.838  12.827
65934W        W29691  15.621   1.899  11.960
65935W        W29692  17.566  34.976  10.511
65936W        W29693  31.476  38.854  12.083
65937W        W29694  19.599  16.132   2.365
65938W        W29695  34.885  21.530  11.902
65939W        W29696  12.808  30.607   4.278
65940W        W29697  27.008  31.419   2.879
65941W        W29698  31.585  42.965   1.799
65942W        W29699  44.309  10.310   2.685
65943W        W29700  22.657  19.727   4.130
65944W        W29701  37.012  13.185  11.600
65945W        W29702  42.859  11.241  11.999
65946W        W29703   9.185  39.510   2.352
65947W        W29704  40.530  11.190   0.362
65948W        W29705  43.343   9.377   0.922
65949W        W29706  17.578   2.470   3.230
65950W        W29707  27.566   1.425   4.813
65951W        W29708   1.443  10.292  14.944
65952W        W29709  43.394  33.386  12.461
65953W        W29710  13.731  43.325   4.161
65954W        W29711  44.992  28.990   2.300
65955W        W29712  36.387   2.744  14.767
65956W        W29713  15.765  22.083  12.518
65957W        W29714  33.491  18.074  12.947
65958W        W29715  28.492  25.145   2.710
65959W        W29716   2.261  18.207  13.340
65960W        W29717  40.349  34.046  14.854
65961W        W29718  37.526  38.513  14.942
65962W        W29719  20.271  13.790   9.933
65963W        W29720  40.412  15.794  10.458
65964W        W29721   4.934  12.300  13.944
65965W        W29722  18.590  31.069  12.355
65966W        W29723  40.037   8.766  12.923
65967W        W29724  21.585  38.004   4.302
65968W        W29725  29.951  26.574  10.946
65969W        W29726   9.387  38.920  14.914
65970W        W29727   8.231  22.082  11.014
65971W        W29728  28.049  28.116  14.830
65972W        W29729  18.103  19.741  13.494
65973W        W29730  20.552  32.430  10.596
65974W        W29731  39.431  22.716   3.832
65975W        W29732  41.855  30.104  12.003
65976W        W29733  27.060  33.104   4.679
65977W        W29734  39.007  44.009   0.450
65978W        W29735   3.383  32.088  10.477
65979W        W29736   0.825  22.240   0.795
65980W        W29737  30.096  24.218   1.917
65981W        W29738   7.248   7.893  10.888
65982W        W29739   4.894  18.280   4.143
65983W        W29740   8.213  30.486   4.604
65984W        W29741  29.925  26.506   0.933
65985W        W29742  22.246   1.879   2.843
65986W        W29743  24.976  31.499   4.716
65987W        W29744  21.027  40.494  13.811
65988W        W29745  22.742  31.605   1.240
65989W        W29746  35.577   5.327   3.790
65990W        W29747   2.785   2.808  13.972
65991W        W29748   3.761  10.709   1.331
65992W        W29749   0.841  17.209  10.576
65993W        W29750  40.816  11.687   1.215
65994W        W29751  13.330  29.557   0.249
65995W        W29752  43.004  22.036   0.276
65996W        W29753  42.474  14.802   3.859
65997W        W29754  30.009  44.970   0.349
65998W        W29755  23.687  29.940   1.897
65999W        W29756  30.419  29.143  12.844
66000W        W29757  28.027  32.622   3.759
66001W        W29758  13.618  10.153  10.979
66002W        W29759  37.441  31.077  12.942
66003W        W29760  44.946   0.395   2.329
66004W        W29761  31.413  26.996  14.505
66005W        W29762   2.861   1.832   1.827
66006W        W29763  14.642  36.475  13.332
66007W        W29764  37.072  28.644   2.717
66008W        W29765  18.151  30.115  13.437
66009W        W29766  13.604  33.609   1.380
66010W        W29767  19.699  26.184   0.246
66011W        W29768   4.808  23.005   3.351
66012W        W29769  40.443  24.078   3.171
66013W        W29770  19.644  25.570  13.048
66014W        W29771  32.509  19.194  13.857
66015W        W29772  15.174  18.061   3.839
66016W        W29773  19.636  38.521  10.998
66017W        W29774  17.197  37.444   9.976
66018W        W29775  18.218  34.535  11.454
66019W        W29776   7.274  34.557  11.488
66020W        W29777  18.235  19.747  13.058
66021W        W29778  27.641   6.723   1.355
66022W        W29779  10.165  44.408  12.417
66023W        W29780   1.329  30.487  10.903
66024W        W29781  31.120  27.984   4.639
66025W        W29782  17.275   1.959  14.978
66026W        W29783  25.126   8.859  13.890
66027W        W29784  23.104  32.090  13.904
66028W        W29785  33.614   3.225  12.467
66029W        W29786  33.094  26.582  10.057
66030W        W29787   4.720  13.214   0.265
66031W        W29788   8.200  25.512   3.843
66032W        W29789  39.451  26.701  12.459
66033W        W29790   2.783  43.812   0.260
66034W        W29791  42.017  39.860  13.930
66035W        W29792   1.977   1.731  12.967
66036W        W29793  14.121  36.850  14.399
66037W        W29794  31.908   9.807  10.479
66038W        W29795   2.744  38.491  13.545
66039W        W29796  28.616  10.708   2.740
66040W        W29797  41.352  22.596   3.714
66041W        W29798  34.108  30.615   3.174
66042W        W29799  35.968  44.930  12.470
66043W        W29800  40.040   1.364   5.266
66044W        W29801  41.872  41.432   9.976
66045W        W29802  28.075  31.022   1.826
66046W        W29803  20.662   9.154  12.994
66047W        W29804  37.513  30.133   1.249
66048W        W29805  28.965  23.506   2.817
66049W        W29806  36.423  26.660   3.638
66050W        W29807   0.768  15.263  13.539
66051W        W29808  24.207  38.491  10.523
66052W        W29809  44.463   2.829  13.978
66053W        W29810   3.452  34.610  12.955
66054W        W29811  18.658  19.197  13.519
66055W        W29812  15.780  27.656   3.778
66056W        W29813  36.061  11.669   5.130
66057W        W29814  25.028  12.289  10.470
66058W        W29815   5.734  15.197  13.882
66059W        W29816  34.974  31.466  14.289
66060W        W29817   4.810   6.214   2.272
66061W        W29818  32.004  10.666   4.673
66062W        W29819  34.453   2.894   4.149
66063W        W29820  35.378  31.079   2.259
66064W        W29821  25.617  13.334   0.392
66065W        W29822   6.745  39.065  13.896
66066W        W29823  29.980  13.747   2.883
66067W        W29824  17.275  33.440  11.097
66068W        W29825  27.070  36.010  11.127
66069W        W29826  32.942  38.545   1.781
66070W        W29827  18.181   1.871  10.968
66071W        W29828  41.411  31.595   2.778
66072W        W29829  14.813  42.950  12.842
66073W        W29830  34.496  17.231   0.455
66074W        W29831   6.692  23.733  10.952
66075W        W29832   7.902  17.286   3.300
66076W        W29833  23.569  18.680  13.810
66077W        W29834  37.015  23.554   1.816
66078W        W29835  18.611  28.675  14.762
66079W        W29836  14.716   6.793   1.808
66080W        W29837  16.145  12.650   2.817
66081W        W29838   7.679  32.122   0.965
66082W        W29839  30.971  40.382   2.186
66083W        W29840   7.745  44.418  13.889
66084W        W29841   6.866   2.363   1.316
66085W        W29842   2.374  31.536  14.466
66086W        W29843  26.517  37.855  10.582
66087W        W29844  29.483  43.829   2.828
66088W        W29845  34.610   2.907   2.893
66089W        W29846   0.954  24.110  10.574
66090W        W29847   4.757  30.092  10.572
66091W        W29848   4.814  11.256  10.645
66092W        W29849   8.232   2.315   2.343
66093W        W29850   7.382  34.584  14.800
66094W        W29851  22.092  19.114   1.409
66095W        W29852  42.961   6.380   3.747
66096W        W29853   0.971  24.165  11.611
66097W        W29854  29.936  39.057  10.928
66098W        W29855  29.558   5.777   3.677
66099W        W29856  25.601  41.508  12.491
66100W        W29857   1.858  10.704  12.936
66101W        W29858  24.006  26.126   4.632
66102W        W29859  36.523   9.364  12.470
66103W        W29860   1.424  44.274  12.846
66104W        W29861  34.025   0.438   2.290
66105W        W29862   3.902  21.582   1.314
66106W        W29863  29.000  13.317  12.372
66107W        W29864  29.096  31.450  14.772
66108W        W29865  38.403  31.910   2.867
66109W        W29866  40.499  44.863  14.389
66110W        W29867  28.666  32.018   2.182
66111W        W29868  40.321  23.090  10.537
66112W        W29869  18.668  29.531   3.825
66113W        W29870   4.334   5.793   4.306
66114W        W29871   3.319  18.235   0.401
66115W        W29872  41.470  38.848   4.230
66116W        W29873  42.778  38.889  12.935
66117W        W29874   8.843  38.000  10.946
66118W        W29875  38.948   0.817  12.851
66119W        W29876  28.945   7.825   0.738
66120W        W29877  32.477   0.941   4.645
66121W        W29878  17.100  18.744   2.853
66122W        W29879  11.805  26.676   0.825
66123W        W29880   5.691  41.484   1.890
66124W        W29881  24.514  37.514   0.789
66125W        W29882  30.152  30.493   4.636
66126W        W29883   3.385  22.243   4.335
66127W        W29884  35.358  24.054  12.043
66128W        W29885  42.975  26.672   3.832
66129W        W29886  29.066  26.656  10.629
66130W        W29887  12.360  22.206   3.749
66131W        W29888  29.665  42.906  10.488
66132W        W29889  11.650  16.668  10.938
66133W        W29890  19.746   0.410   3.856
66134W        W29891  36.485  44.009  13.357
66135W        W29892  16.752  17.218   0.727
66136W        W29893   9.704  14.632  10.538
66137W        W29894  32.027   8.900  12.550
66138W        W29895  26.193   7.230  13.936
66139W        W29896  30.529  17.788   0.939
66140W        W29897   6.923  11.702  14.302
66141W        W29898  16.665  20.122   4.157
66142W        W29899  10.813   1.288   0.483
66143W        W29900  24.083  26.075   0.258
66144W        W29901  33.962   7.342  12.556
66145W        W29902  13.164  28.080   4.225
66146W        W29903   0.267  25.549   0.913
66147W        W29904  16.310   6.218  10.630
66148W        W29905  13.788  33.437  14.492
66149W        W29906  36.418  41.420   1.742
66150W        W29907  38.030  16.206   1.238
66151W        W29908  14.269   3.447   1.748
66152W        W29909  37.555  40.421   1.338
66153W        W29910  20.614   8.735  12.367
66154W        W29911  17.703   1.304   4.653
66155W        W29912  19.215  10.709   1.933
66156W        W29913  32.024  16.600   3.681
66157W        W29914   8.771  38.435   1.809
66158W        W29915  28.155  40.541   0.461
66159W        W29916   0.816  38.841  13.332
66160W        W29917  26.612  12.123  11.889
66161W        W29918   7.342  33.515  14.932
66162W        W29919  14.146  22.698  14.775
66163W        W29920  16.245  34.069   0.836
66164W        W29921  34.878  28.087   4.310
66165W        W29922   7.682   8.656  13.895
66166W        W29923  10.766  36.974   4.226
66167W        W29924  22.576   3.797  12.345
66168W        W29925  36.960  22.523  14.291
66169W        W29926   2.874  40.801   4.180
66170W        W29927   2.908  28.655  14.310
66171W        W29928  12.662  27.455   0.847
66172W        W29929  40.989  17.763   2.302
66173W        W29930  38.535  41.346  11.115
66174W        W29931  17.076  24.019  11.084
66175W        W29932  18.105  19.599  14.765
66176W        W29933  11.772  23.602   2.398
66177W        W29934  17.095  40.054  12.012
66178W        W29935  38.492   4.317  12.528
66179W        W29936   4.736  14.690  14.964
66180W        W29937   8.730  35.073  12.857
66181W        W29938  28.574  28.539  13.874
66182W        W29939   6.336  44.848   3.225
66183W        W29940  16.671  30.557   4.244
66184W        W29941  18.725  10.244   2.382
66185W        W29942  17.668  14.781   3.199
66186W        W29943  10.297  23.988  14.483
66187W        W29944   9.301   3.937  12.579
66188W        W29945  26.085  15.762  10.944
66189W        W29946  29.003  18.610  11.971
66190W        W29947  31.640  19.620   0.799
66191W        W29948  21.610  12.809   4.183
66192W        W29949  44.387  32.119  14.011
66193W        W29950  35.920  11.207  10.535
66194W        W29951  37.990  28.016   3.186
66195W        W29952   8.315  18.631  13.916
66196W        W29953  10.331  15.183   3.670
66197W        W29954  39.352   2.426  12.402
66198W        W29955   4.380  38.553  10.452
66199W        W29956   1.898   5.730   0.325
66200W        W29957  32.932  14.704  13.488
66201W        W29958  15.276  24.629   0.735
66202W        W29959  31.149   5.243  10.594
66203W        W29960  36.432  24.093   4.824
66204W        W29961  39.387  36.350  14.872
66205W        W29962  22.512  11.238   1.220
66206W        W29963  15.149   6.278  11.602
66207W        W29964   9.690  37.977   4.643
66208W        W29965  18.269  35.598   3.346
66209W        W29966  30.580  18.122   0.891
66210W        W29967  34.433  19.139   3.803
66211W        W29968  28.051  35.487   1.707
66212W        W29969   7.316   5.858  10.633
66213W        W29970   0.309  13.332  10.518
66214W        W29971  37.510  44.875   4.148
66215W        W29972  33.576  20.675  12.881
66216W        W29973  24.529  42.032  10.981
66217W        W29974   5.776  37.011  12.962
66218W        W29975  41.434  14.626  11.584
66219W        W29976  41.317   8.244  11.894
66220W        W29977  16.229  29.630  13.538
66221W        W29978  42.865  35.917   1.909
66222W        W29979  33.927  44.375   4.330
66223W        W29980  13.751  41.958   2.313
66224W        W29981  21.656  39.315   3.251
66225W        W29982  23.156  26.700  12.069
66226W        W29983  27.615   5.813  12.026
66227W        W29984  33.417  36.028   3.189
66228W        W29985  21.546  26.650   3.196
66229W        W29986  37.036  20.573   4.299
66230W        W29987   0.457  15.281   1.716
66231W        W29988  14.250   7.761  13.898
66232W        W29989   9.754  42.022  13.949
66233W        W29990  42.459  36.919  10.591
66234W        W29991  37.013   9.814   4.797
66235W        W29992  10.717  23.102  12.859
66236W        W29993  11.165  39.370  12.882
66237W        W29994  35.383   3.886  11.028
66238W        W29995  34.388   9.710  12.982
66239W        W29996   7.783  11.717   4.795
66240W        W29997  26.629  25.657  13.454
66241W        W29998  10.258  41.345  12.388
66242W        W29999  21.040  11.127  13.315
66243W        W30000   2.720  22.561  11.460
66244W        W30001  10.270   5.714   2.225
66245W        W30002  17.723  41.395  10.992
66246W        W30003  31.497   9.202   2.221
66247W        W30004  30.955   7.754  11.899
66248W        W30005  41.485  27.586   3.653
66249W        W30006  18.619   3.902   0.263
66250W        W30007   1.779   6.376   2.787
66251W        W30008   8.320   4.287   0.408
66252W        W30009  21.120  32.074  10.448
66253W        W30010  26.178  34.525  13.905
66254W        W30011   4.269  25.542  11.028
66255W        W30012  26.103  33.051   2.797
66256W        W30013  13.278   9.279  12.403
66257W        W30014  39.930  13.336   4.825
66258W        W30015  17.716  13.655  12.984
66259W        W30016  14.743  38.024  14.892
66260W        W30017  27.597  33.533  10.495
66261W        W30018  43.464   2.409  10.596
66262W        W30019   1.907  35.580   1.824
66263W        W30020  40.825  36.093   4.598
66264W        W30021  29.962  39.050   4.646
66265W        W30022  41.484  30.110   2.851
66266W        W30023  31.006  17.141  13.994
66267W        W30024  37.952  25.476  11.538
66268W        W30025  43.456  16.257   0.783
66269W        W30026  37.955   9.192   4.143
66270W        W30027  10.670  33.025  14.869
66271W        W30028  25.541  30.957  14.941
66272W        W30029   8.230  24.217  10.918
66273W        W30030  20.211  37.540  13.006
66274W        W30031  37.055  24.519   4.155
66275W        W30032  41.493  12.323  11.428
66276W        W30033   0.405   2.457  12.002
66277W        W30034  16.267  21.685  13.799
66278W        W30035   3.760  25.649   0.313
66279W        W30036   0.266  21.055   3.262
66280W        W30037  13.714  10.164  14.495
66281W        W30038  42.985  40.900   4.762
66282W        W30039  24.149   5.842   3.355
66283W        W30040  37.888  40.355   2.223
66284W        W30041   7.871   8.299   2.362
66285W        W30042  31.499  18.146   3.644
66286W        W30043   0.292  19.583   0.933
66287W        W30044  39.324  39.057  13.793
66288W        W30045  30.923  21.654  11.582
66289W        W30046   9.305   8.690   2.863
66290W        W30047  27.468  19.665  12.019
66291W        W30048  31.976   4.777  14.851
66292W        W30049  12.311  11.165   0.389
66293W        W30050  15.298  26.097  14.432
66294W        W30051  36.509  43.906  11.095
66295W        W30052  20.710  24.079   3.858
66296W        W30053  10.663  33.542  13.808
66297W        W30054  42.929  10.362  10.967
66298W        W30055   0.485  39.496   0.378
66299W        W30056  29.075  42.314   1.724
66300W        W30057  19.689  39.406  11.490
66301W        W30058   0.844   7.805  14.832
66302W        W30059  40.416  34.541   3.753
66303W        W30060   0.833   3.409  14.483
66304W        W30061  22.084  21.169  10.007
66305W        W30062  15.323  19.276  14.335
66306W        W30063  28.642  30.163   0.273
66307W        W30064  19.181  42.837   4.244
66308W        W30065  41.483   3.302  12.484
66309W        W30066  39.830  23.214   3.705
66310W        W30067  32.575  40.849   2.665
66311W        W30068  22.049  31.493   1.417
66312W        W30069  23.104  42.392   0.371
66313W        W30070  26.019  30.513   0.804
66314W        W30071   4.847  23.230  14.506
66315W        W30072  27.191  24.224   1.421
66316W        W30073  10.812   5.739   3.383
66317W        W30074  35.924  13.144   0.325
66318W        W30075  41.370  21.658   4.618
66319W        W30076  26.683  19.551   0.328
66320W        W30077  18.665  29.515   2.180
66321W        W30078  21.570  26.108  12.051
66322W        W30079  42.307   4.424  13.376
66323W        W30080  21.545  37.503   9.642
66324W        W30081  27.087  21.699   5.118
66325W        W30082  42.819  12.703  11.072
66326W        W30083  37.939  20.036  11.970
66327W        W30084   9.163  32.000  14.331
66328W        W30085  39.482  23.135  12.929
66329W        W30086   7.842  40.945  12.366
66330W        W30087  31.407  13.781  12.953
66331W        W30088  26.015  26.181   1.313
66332W        W30089  27.037  38.838  14.787
66333W        W30090   6.906  39.057   4.761
66334W        W30091  11.354  21.229  11.600
66335W        W30092  14.167  25.482   2.846
66336W        W30093  18.176  14.313   1.440
66337W        W30094  24.213  36.989   2.683
66338W        W30095  12.313   0.475   0.837
66339W        W30096  29.668  31.043   1.294
66340W        W30097  32.395  12.221  14.012
66341W        W30098  27.474  19.546   1.286
66342W        W30099  35.874  14.310   3.649
66343W        W30100  37.401   1.855   0.363
66344W        W30101   7.379  42.308  14.340
66345W        W30102  11.237  10.267  12.083
66346W        W30103  26.139   6.233   4.174
66347W        W30104  17.570   9.171  11.578
66348W        W30105  38.872  39.466  10.124
66349W        W30106  38.995  34.998  13.513
66350W        W30107   8.818  36.484   2.301
66351W        W30108  21.054  19.270  12.509
66352W        W30109   4.742  13.838  13.949
66353W        W30110  11.636  31.625   4.629
66354W        W30111  26.570  22.184   4.226
66355W        W30112  20.645  32.393   4.157
66356W        W30113  13.251  34.977  12.374
66357W        W30114  39.010  22.147   2.679
66358W        W30115  24.133  20.730   3.698
66359W        W30116   3.780  42.438  14.480
66360W        W30117  17.153  24.520  14.955
66361W        W30118  20.687  23.066  11.556
66362W        W30119   4.699  25.081   1.862
66363W        W30120   1.303  28.628  13.456
66364W        W30121  20.155  28.534  13.382
66365W        W30122  32.477  43.834  13.993
66366W        W30123  34.884   9.775  11.596
66367W        W30124  35.496  21.565   1.398
66368W        W30125   0.880   6.852  10.942
66369W        W30126  44.947  23.647  13.476
66370W        W30127  25.629   7.249  12.404
66371W        W30128  40.480   2.442  14.833
66372W        W30129  42.910   7.332   0.835
66373W        W30130   1.808   2.929  10.590
66374W        W30131  42.351  43.933  11.549
66375W        W30132  44.883  33.895   0.919
66376W        W30133  30.019  10.678  10.946
66377W        W30134  16.266  41.428   3.669
66378W        W30135  17.741   4.390  14.457
66379W        W30136  25.545   2.949  13.470
66380W        W30137   5.919   9.216   4.339
66381W        W30138  28.000  22.064   4.149
66382W        W30139  14.819  28.111  13.444
66383W        W30140  14.172   9.294  13.316
66384W        W30141   1.330   5.319   0.767
66385W        W30142   6.702  39.536  13.043
66386W        W30143   3.912  39.505   0.923
66387W        W30144  33.085  38.395  10.537
66388W        W30145  43.999  12.785  11.428
66389W        W30146  24.498  24.033   1.722
66390W        W30147  25.165  44.945  12.833
66391W        W30148  31.079   1.920  12.503
66392W        W30149  20.607  16.593   0.462
66393W        W30150  12.353  33.598   0.399
66394W        W30151   4.274  30.059   1.889
66395W        W30152  41.841  41.324   1.832
66396W        W30153  17.218  38.325   4.230
66397W        W30154  32.001  14.625  13.846
66398W        W30155  31.121  37.553  11.424
66399W        W30156  33.593  41.922  11.028
66400W        W30157   3.866   1.962   2.876
66401W        W30158  31.568   2.733  13.026
66402W        W30159  43.889   3.940  13.879
66403W        W30160  17.235  31.641   2.259
66404W        W30161  10.687  20.623   3.697
66405W        W30162   2.755  27.572  12.366
66406W        W30163   8.703   0.421   1.811
66407W        W30164   6.290  39.817   1.222
66408W        W30165  40.937   7.854  12.074
66409W        W30166   9.189  30.469   4.690
66410W        W30167  41.348  30.993  12.011
66411W        W30168  34.494  28.465   5.768
66412W        W30169  33.609  36.907   1.360
66413W        W30170   6.269  33.957  11.497
66414W        W30171  42.386   2.250  13.055
66415W        W30172  42.029   9.289  11.398
66416W        W30173  37.076  43.814   0.733
66417W        W30174  23.114   7.339  14.382
66418W        W30175  23.096  33.952   4.640
66419W        W30176  33.404   8.195   4.168
66420W        W30177  23.690   2.264  13.963
66421W        W30178   4.317  37.004   1.317
66422W        W30179  14.635  17.079   2.222
66423W        W30180  10.257  36.580  13.913
66424W        W30181  10.199  38.461   0.358
66425W        W30182  25.993  28.463  10.557
66426W        W30183  21.224   3.721  14.936
66427W        W30184  44.006  40.925   3.807
66428W        W30185  38.545   6.730  14.895
66429W        W30186  34.509  29.531  13.477
66430W        W30187   6.216  25.027  14.919
66431W        W30188  42.837  20.535   0.853
66432W        W30189  32.117  13.326  14.975
66433W        W30190  24.114  42.780  11.579
66434W        W30191   4.305  26.069  14.358
66435W        W30192  34.402  20.161  14.301
66436W        W30193  36.959   8.660  12.406
66437W        W30194  20.633   2.818  11.584
66438W        W30195  25.469  20.229   2.788
66439W        W30196  25.146   4.211   0.762
66440W        W30197  35.437  31.136   1.709
66441W        W30198  12.238  25.522   4.797
66442W        W30199   2.349  33.555  12.968
66443W        W30200  40.899  23.176   4.279
66444W        W30201  37.943  13.174  11.426
66445W        W30202   5.703  12.299  14.957
66446W        W30203  15.715   0.302  14.816
66447W        W30204  14.755   3.881   2.667
66448W        W30205  39.865  35.546   2.695
66449W        W30206  25.564  42.442   2.408
66450W        W30207   7.738  44.289  13.352
66451W        W30208   1.855  29.989   4.134
66452W        W30209  33.131  21.181  14.515
66453W        W30210  27.105  20.137   0.360
66454W        W30211  44.915  11.197  14.378
66455W        W30212  29.167  15.711  13.047
66456W        W30213  39.515  36.445  11.408
66457W        W30214  19.707  16.621   0.879
66458W        W30215  24.678  22.130  14.399
66459W        W30216  25.510  23.699   2.841
66460W        W30217  20.603  10.804   1.338
66461W        W30218  39.446  33.945   1.362
66462W        W30219  38.450   7.266  11.519
66463W        W30220  24.658  34.041   4.213
66464W        W30221  30.110  32.115  10.533
66465W        W30222  18.110   0.270  13.805
66466W        W30223  32.611  44.946  11.418
66467W        W30224   3.271   2.351   3.182
66468W        W30225   5.414  27.594   1.253
66469W        W30226  23.585  19.766  12.361
66470W        W30227  15.301  15.328   1.721
66471W        W30228  25.531  16.293   1.716
66472W        W30229  27.106   7.370   4.786
66473W        W30230  43.381  23.105   0.830
66474W        W30231  17.670  42.521   0.749
66475W        W30232  16.568   8.730  11.065
66476W        W30233  17.205   5.347  12.339
66477W        W30234  29.944  23.656  11.948
66478W        W30235  30.030   8.323  13.466
66479W        W30236  44.332  22.688   4.271
66480W        W30237  13.621   6.710   3.162
66481W        W30238  30.962  34.417   3.766
66482W        W30239  20.679  28.068  12.940
66483W        W30240  34.072   1.286   3.176
66484W        W30241  26.584  43.888   1.327
66485W        W30242  40.542  43.350   3.383
66486W        W30243  30.082  30.156   3.791
66487W        W30244  29.971  37.872   4.134
66488W        W30245  24.585  37.489  12.048
66489W        W30246  32.576  28.154   3.765
66490W        W30247  43.446  29.079  12.523
66491W        W30248  12.204  17.260  13.419
66492W        W30249  32.394  25.659   4.740
66493W        W30250   7.309  29.009  11.397
66494W        W30251  29.600  14.106  13.958
66495W        W30252  43.999   0.471   2.872
66496W        W30253  28.059  19.543   1.884
66497W        W30254  35.860   0.289   0.954
66498W        W30255  17.202  43.283  13.062
66499W        W30256  24.993  33.606   4.299
66500W        W30257   3.441  44.502   2.343
66501W        W30258  17.180  18.168   0.774
66502W        W30259  10.693  40.019  14.999
66503W        W30260   3.418   5.301  14.472
66504W        W30261   7.812  23.492  14.812
66505W        W30262  12.616   9.670   1.404
66506W        W30263  19.057  19.741   1.301
66507W        W30264  19.246   1.477  12.880
66508W        W30265  43.893   9.887   2.767
66509W        W30266   3.302  19.755  10.490
66510W        W30267  22.586  44.477  13.026
66511W        W30268   5.770   6.361  12.416
66512W        W30269  10.823  12.842   3.357
66513W        W30270  13.172  18.131  13.469
66514W        W30271  39.832   9.817  14.344
66515W        W30272  15.759   8.351   4.816
66516W        W30273   7.329   9.267  12.974
66517W        W30274  39.314  17.797  13.486
66518W        W30275  31.076   4.401  11.588
66519W        W30276  43.797   6.754   0.928
66520W        W30277   7.233  34.384  13.401
66521W        W30278  38.854  16.086  13.483
66522W        W30279   8.699  14.235  10.937
66523W        W30280  24.500   4.818  14.385
66524W        W30281  21.723  41.354   4.225
66525W        W30282  20.764  19.766   3.797
66526W        W30283  28.677  13.628   3.833
66527W        W30284   7.280   4.323  12.839
66528W        W30285  17.764  32.502   2.208
66529W        W30286   1.343   0.288  10.497
66530W        W30287  28.627  23.532   2.829
66531W        W30288  39.432  38.516  13.370
66532W        W30289  16.307  29.944   4.786
66533W        W30290   8.891  13.615  12.433
66534W        W30291  42.872  44.463   4.254
66535W        W30292  31.603   2.251   4.799
66536W        W30293   6.410  14.682  13.481
66537W        W30294  40.460  38.422  11.074
66538W        W30295  13.841  36.969   4.619
66539W        W30296  35.564  39.045   4.802
66540W        W30297   6.219  14.147  11.932
66541W        W30298  31.999  21.645  13.894
66542W        W30299  40.899  34.605  10.464
66543W        W30300  15.236  10.278   4.141
66544W        W30301  44.417  39.391   2.710
66545W        W30302  31.498  41.355  10.974
66546W        W30303  43.866   3.772   4.625
66547W        W30304  21.216  18.289   5.201
66548W        W30305  12.263  20.108  11.387
66549W        W30306   5.752  27.160  11.384
66550W        W30307  40.928  11.664   0.298
66551W        W30308  35.059  28.668  12.941
66552W        W30309  25.041  14.105  10.594
66553W        W30310  22.603  40.908  13.468
66554W        W30311  40.308  26.057   3.831
66555W        W30312  31.409  34.970   4.808
66556W        W30313  35.457  42.012  12.899
66557W        W30314   1.970  22.568   3.745
66558W        W30315  21.195   0.765  12.096
66559W        W30316  39.034  10.179  11.997
66560W        W30317  19.183  30.553   1.826
66561W        W30318   9.266  34.863   4.693
66562W        W30319  31.551   1.763   3.166
66563W        W30320   6.265  27.449   4.342
66564W        W30321   5.725  43.798  11.537
66565W        W30322  38.875  12.829   2.316
66566W        W30323  18.100  34.095  11.389
66567W        W30324  25.539  31.459   2.270
66568W        W30325  26.523  20.569   1.258
66569W        W30326  22.651  21.678   4.263
66570W        W30327  44.761  11.760  10.605
66571W        W30328  24.481  38.444  10.410
66572W        W30329  29.531  12.320   1.815
66573W        W30330  14.293   3.810  14.317
66574W        W30331  14.761  30.515  14.296
66575W        W30332  17.073  36.443   4.627
66576W        W30333  42.865  14.269   4.286
66577W        W30334  11.316   0.415  11.526
66578W        W30335   1.416  17.634   2.734
66579W        W30336  19.039  35.032  11.113
66580W        W30337   0.262  20.650  11.401
66581W        W30338  10.820  31.510   1.836
66582W        W30339   4.246  38.363   2.700
66583W        W30340  43.988  38.528  10.532
66584W        W30341  24.186  21.539  13.895
66585W        W30342  22.667  32.434   3.255
66586W        W30343  19.748  15.083  11.986
66587W        W30344  27.474  14.254   3.754
66588W        W30345  13.611  27.053   0.917
66589W        W30346  12.646  43.839   4.688
66590W        W30347  42.775  24.991  10.090
66591W        W30348   2.800  43.867   4.224
66592W        W30349  35.934   2.906  12.451
66593W        W30350  39.459   4.422   4.315
66594W        W30351  17.232  36.992   2.272
66595W        W30352  19.712  21.641  12.033
66596W        W30353  37.012  33.488   2.384
66597W        W30354  26.484   3.727  10.531
66598W        W30355  17.795   3.939  12.545
66599W        W30356  33.613  39.372  14.904
66600W        W30357  10.829  12.130  14.940
66601W        W30358  19.743   5.747   4.220
66602W        W30359  21.149  43.980  12.448
66603W        W30360  40.998  25.090  14.835
66604W        W30361  19.620   3.221   1.348
66605W        W30362  23.528  42.308  13.896
66606W        W30363  11.727  27.620  13.357
66607W        W30364  33.882  12.707  14.495
66608W        W30365   1.865  19.746   1.853
66609W        W30366   9.706  31.486  14.432
66610W        W30367  37.934  20.650   1.408
66611W        W30368  13.324  33.483  11.967
66612W        W30369  40.354   5.268   2.290
66613W        W30370  14.751  36.388  14.831
66614W        W30371  21.017  35.090   0.367
66615W        W30372  20.204  30.562  11.916
66616W        W30373  34.426   5.306   2.259
66617W        W30374  37.557  23.666  13.894
66618W        W30375  37.917  28.594  14.402
66619W        W30376   3.951  16.587  13.469
66620W        W30377  35.058  20.079   2.189
66621W        W30378  40.837  13.634  14.294
66622W        W30379  34.005  19.538  14.796
66623W        W30380  43.815  35.999   3.756
66624W        W30381  17.124  35.921  13.334
66625W        W30382  22.735  43.473  13.011
66626W        W30383  22.080  10.247   2.196
66627W        W30384  32.409  29.649  10.583
66628W        W30385  25.616  44.284   1.393
66629W        W30386  41.806  10.290  13.477
66630W        W30387  20.593   7.741   2.307
66631W        W30388  44.812   1.254  10.959
66632W        W30389  11.746  20.696  12.841
66633W        W30390  21.682  10.770  12.401
66634W        W30391   2.740  15.732  14.294
66635W        W30392  39.957  22.245  12.890
66636W        W30393  15.741   4.373   3.769
66637W        W30394   3.242  17.243   1.226
66638W        W30395  24.194  19.590  11.863
66639W        W30396  26.976  40.544  14.296
66640W        W30397  23.605  23.008  12.442
66641W        W30398  23.178  28.037  10.637
66642W        W30399   7.757  25.470  13.426
66643W        W30400  42.388  20.655  12.902
66644W        W30401  37.985  23.673  10.412
66645W        W30402  33.983  30.442  11.010
66646W        W30403  39.908  30.554   0.887
66647W        W30404  18.547  23.587   4.791
66648W        W30405  43.823  10.738  11.076
66649W        W30406  25.048  37.832   1.718
66650W        W30407  30.987   1.377   0.853
66651W        W30408  12.812  25.571   4.283
66652W        W30409  24.978  17.565   2.251
66653W        W30410  20.058  14.189  13.359
66654W        W30411  11.623  25.011   3.815
66655W        W30412  23.638   4.789  11.414
66656W        W30413  13.821  10.352   9.945
66657W        W30414   2.315  12.696  12.382
66658W        W30415  32.482  12.326   3.732
66659W        W30416  33.617  19.775   3.706
66660W        W30417   8.753  41.022  14.858
66661W        W30418  11.342  26.207   0.921
66662W        W30419   2.919  29.590  13.483
66663W        W30420  36.093  10.335   1.312
66664W        W30421  19.546  43.769  14.453
66665W        W30422  29.572   3.442   3.787
66666W        W30423  34.566  11.259  11.093
66667W        W30424  18.119  16.740   2.387
66668W        W30425  37.934  25.188   5.242
66669W        W30426  20.539  37.472  10.055
66670W        W30427  16.649  16.281  11.984
66671W        W30428  19.665   3.792  11.058
66672W        W30429   2.774  36.867   2.419
66673W        W30430  38.396  40.958   0.749
66674W        W30431  39.414  17.173   0.380
66675W        W30432   6.220   1.355   0.930
66676W        W30433  30.597  44.899   1.266
66677W        W30434  17.218  16.758  13.387
66678W        W30435   6.687  38.024  11.882
66679W        W30436   1.397  31.436  11.063
66680W        W30437  18.101  29.529  11.577
66681W        W30438  16.708   5.758  11.538
66682W        W30439  16.570  39.888  14.369
66683W        W30440  32.592  40.417  12.014
66684W        W30441  27.970  11.663   4.287
66685W        W30442  21.520  14.699   0.325
66686W        W30443  35.025   9.211  11.528
66687W        W30444  44.451   2.403  11.523
66688W        W30445   7.797  29.058  14.885
66689W        W30446  38.896  41.914   1.878
66690W        W30447   3.382  28.608  11.595
66691W        W30448  15.596  12.175  13.415
66692W        W30449  22.006  31.458  14.315
66693W        W30450  18.682   7.867   3.208
66694W        W30451   5.883   8.795   1.235
66695W        W30452   0.859  39.852   3.262
66696W        W30453  12.739  43.014   3.180
66697W        W30454  33.046  32.981   4.165
66698W        W30455  21.724  12.136  13.061
66699W        W30456  30.537  20.590  12.964
66700W        W30457  34.995  15.741   1.723
66701W        W30458   0.327   7.413  14.787
66702W        W30459  18.652  15.107   2.712
66703W        W30460  17.114  27.514   3.176
66704W        W30461  36.025  24.488  13.967
66705W        W30462  23.564  15.580  14.277
66706W        W30463  36.383  41.534   1.390
66707W        W30464  11.818  15.158  13.811
66708W        W30465  11.374   4.925  12.887
66709W        W30466   9.692  35.557  14.294
66710W        W30467  37.073  32.136  10.510
66711W        W30468  29.464   8.365  12.949
66712W        W30469  12.348  23.522  11.122
66713W        W30470  21.580  15.302  14.452
66714W        W30471  37.414   2.424  11.857
66715W        W30472   7.826  16.758  11.536
66716W        W30473  17.231  42.318   0.376
66717W        W30474  14.728  27.951  12.920
66718W        W30475  10.865  28.961  10.414
66719W        W30476  36.382   9.701   2.897
66720W        W30477  44.879  39.808   3.834
66721W        W30478  41.475  11.196  10.589
66722W        W30479  35.015  34.493  12.503
66723W        W30480   0.298  21.636  11.538
66724W        W30481  42.997  40.541  12.563
66725W        W30482   9.665  35.028   0.909
66726W        W30483  22.209  17.127   2.374
66727W        W30484  28.603  38.990   0.752
66728W        W30485  32.100   3.774   0.966
66729W        W30486  25.585  13.114  13.460
66730W        W30487   2.330  43.397   4.241
66731W        W30488  27.014  29.447  12.503
66732W        W30489   1.388  20.618  12.940
66733W        W30490  23.216  27.115   1.321
66734W        W30491  41.882  25.209   3.336
66735W        W30492   8.168  38.333  11.073
66736W        W30493  25.118  38.836   4.626
66737W        W30494  30.421  36.563   4.690
66738W        W30495  19.147   6.875   0.750
66739W        W30496   6.749  32.894  11.538
66740W        W30497  19.646  40.961  14.497
66741W        W30498  28.149  42.872  10.013
66742W        W30499  16.698  31.941   3.780
66743W        W30500  21.159  18.689  12.366
66744W        W30501  24.135   8.160   0.385
66745W        W30502   9.779  21.742   3.238
66746W        W30503  31.923  23.015   1.431
66747W        W30504  24.094   0.377  12.935
66748W        W30505  30.050  17.286   1.752
66749W        W30506  10.382   4.762  14.462
66750W        W30507   7.353  22.512  10.574
66751W        W30508  19.199  14.168  14.305
66752W        W30509  14.806  36.027  11.010
66753W        W30510  25.072  17.121  13.834
66754W        W30511  25.207  41.407  13.870
66755W        W30512  38.486   5.318  11.398
66756W        W30513  22.569  41.929  14.926
66757W        W30514  26.093  39.929   0.475
66758W        W30515  25.503  39.942   4.652
66759W        W30516  29.533   8.235   1.365
66760W        W30517  34.472  44.867  13.536
66761W        W30518  25.026  15.192  11.548
66762W        W30519  38.334  42.916   1.843
66763W        W30520  23.092  13.613  11.957
66764W        W30521   6.695  37.543  10.095
66765W        W30522  31.957   0.876   0.359
66766W        W30523  27.460  30.974   1.331
66767W        W30524  43.270  27.002  14.943
66768W        W30525   0.296  43.894   3.285
66769W        W30526  21.023  34.059   1.237
66770W        W30527  30.586  13.728  11.856
66771W        W30528  31.622  19.642  12.910
66772W        W30529  11.763  26.663  12.378
66773W        W30530  40.046   3.325  10.940
66774W        W30531  40.496  40.528   3.742
66775W        W30532  36.391   8.788   3.829
66776W        W30533  30.958  22.589   3.360
66777W        W30534   2.460  37.493  10.627
66778W        W30535  13.758  42.808  14.874
66779W        W30536  37.916  41.949  14.416
66780W        W30537   4.722  18.103  10.127
66781W        W30538  15.115   3.926  12.079
66782W        W30539  15.091  34.055  12.403
66783W        W30540   6.363   4.222   2.853
66784W        W30541  35.870  26.204  10.502
66785W        W30542  19.637  19.707  14.408
66786W        W30543  40.944   0.798   2.670
66787W        W30544  34.402  41.293  13.435
66788W        W30545  30.656  12.351  11.896
66789W        W30546  38.005   5.300   0.472
66790W        W30547  19.180  41.933   2.327
66791W        W30548   4.393   0.793   0.903
66792W        W30549  36.496  35.903  14.396
66793W        W30550  22.542   8.338   2.280
66794W        W30551  41.022   4.278   2.828
66795W        W30552  31.934  36.081   1.767
66796W        W30553  37.441   2.917   2.672
66797W        W30554   0.901  40.852   4.171
66798W        W30555  36.589  22.093   1.348
66799W        W30556  10.174  26.650   2.232
66800W        W30557   4.339  21.550  11.395
66801W        W30558  23.629   9.195   1.881
66802W        W30559  44.375  12.758   3.295
66803W        W30560  32.904  21.180  10.535
66804W        W30561   8.290  42.938   0.346
66805W        W30562  14.248  31.918   4.704
66806W        W30563  19.735  23.629  12.442
66807W        W30564  24.183  28.957  11.595
66808W        W30565  42.482   1.758   1.728
66809W        W30566   2.258  39.058  10.002
66810W        W30567   3.919   4.736   3.207
66811W        W30568  41.414  20.650   4.238
66812W        W30569  10.857  20.561   2.849
66813W        W30570  44.984  34.462  11.128
66814W        W30571  24.690   8.344   3.288
66815W        W30572  39.851   5.723  10.454
66816W        W30573  44.492  37.020  14.443
66817W        W30574   1.752   9.368  14.396
66818W        W30575   8.361  36.489   3.241
66819W        W30576   5.384  36.070  10.472
66820W        W30577   4.726   9.662   3.769
66821W        W30578  20.694   7.707  11.905
66822W        W30579  20.270   2.956  14.305
66823W        W30580  12.252  10.739   3.294
66824W        W30581  43.833  34.065  10.917
66825W        W30582  36.592  40.991   3.171
66826W        W30583  33.494  10.377   5.172
66827W        W30584   0.820  34.098   1.770
66828W        W30585   4.752  37.536  12.511
66829W        W30586   7.899  12.851   3.749
66830W        W30587  33.875  22.149  13.337
66831W        W30588   0.979  22.623  13.544
66832W        W30589  20.185  24.166   3.860
66833W        W30590  36.998  24.212   3.187
66834W        W30591  35.458  43.415   2.382
66835W        W30592  33.088   6.870   1.866
66836W        W30593  11.844   6.789  14.760
66837W        W30594  20.637   4.942  14.952
66838W        W30595  35.982  17.727  12.052
66839W        W30596  45.000  24.673   4.697
66840W        W30597  36.044   3.752  12.875
66841W        W30598   1.902  16.082  11.529
66842W        W30599  19.175  44.284   2.671
66843W        W30600  11.797  16.273   3.384
66844W        W30601  29.138  38.489  11.011
66845W        W30602  34.940   5.776   4.275
66846W        W30603  22.740  43.830   4.818
66847W        W30604  27.068   4.906   3.334
66848W        W30605  26.700  23.658  12.561
66849W        W30606  15.697  26.101   0.319
66850W        W30607  29.647  23.645  12.404
66851W        W30608  29.670  25.646  12.018
66852W        W30609  12.685  41.297   4.710
66853W        W30610  20.129  27.547   3.685
66854W        W30611  15.668  24.087   0.877
66855W        W30612  26.978  44.921  11.034
66856W        W30613   9.222  17.272   3.630
66857W        W30614  36.472  16.313  12.906
66858W        W30615  30.048   4.402  13.876
66859W        W30616  27.501  39.386   1.810
66860W        W30617   4.929  42.520  14.472
66861W        W30618  14.182  18.632   0.290
66862W        W30619  38.540  27.587   0.833
66863W        W30620  38.901   3.265  11.898
66864W        W30621  22.654  39.314   1.213
66865W        W30622  33.953  34.963   1.445
66866W        W30623  22.152  30.520   2.702
66867W        W30624   7.784  35.368   0.422
66868W        W30625   3.831  15.630  12.913
66869W        W30626  13.676  43.287   4.786
66870W        W30627  38.894  36.477  12.069
66871W        W30628  33.442  40.434   4.157
66872W        W30629   2.882  25.561  12.340
66873W        W30630  31.139   3.786  11.518
66874W        W30631  40.865  37.409   4.157
66875W        W30632   5.732  12.338   1.238
66876W        W30633  13.776   4.265  10.439
66877W        W30634  39.535  23.589   0.365
66878W        W30635   0.884  31.626  14.897
66879W        W30636  31.959  31.071   4.689
66880W        W30637  30.453  38.968   1.416
66881W        W30638  21.593   4.304   3.673
66882W        W30639  41.963  19.167   2.767
66883W        W30640  31.147  40.421  10.428
66884W        W30641   1.377  11.864   1.761
66885W        W30642  38.520   6.815   4.216
66886W        W30643  14.667  40.046   2.765
66887W        W30644  18.270   8.342  12.991
66888W        W30645  33.114  26.530  11.605
66889W        W30646  43.388  15.634   1.742
66890W        W30647  12.621  16.696   2.865
66891W        W30648  25.491  11.790   4.244
66892W        W30649  39.551  14.179  14.276
66893W        W30650  33.111  23.545  14.435
66894W        W30651  15.116  25.705   0.374
66895W        W30652  36.424  38.537  14.865
66896W        W30653  15.755  15.287   5.083
66897W        W30654  38.900  28.977   2.196
66898W        W30655   8.191  35.937  12.896
66899W        W30656  21.599  36.460   5.223
66900W        W30657   9.371  28.096   3.768
66901W        W30658   3.413  43.799  12.852
66902W        W30659   6.215  31.514   2.236
66903W        W30660  40.449  28.639  12.518
66904W        W30661  28.676  37.907  14.766
66905W        W30662  13.172   9.294   2.747
66906W        W30663   4.248  18.663  11.086
66907W        W30664  41.909  19.615   1.390
66908W        W30665  40.468  39.508  10.976
66909W        W30666  28.160   2.858  11.896
66910W        W30667   7.310   8.228   4.201
66911W        W30668   2.870  20.077  13.982
66912W        W30669   9.219   6.403   2.738
66913W        W30670  33.083   5.711  12.023
66914W        W30671  14.819   7.281   1.784
66915W        W30672  33.540  41.293  12.053
66916W        W30673  42.317  41.536  11.098
66917W        W30674  10.731  43.908  13.374
66918W        W30675   1.262  15.219   3.344
66919W        W30676  21.029   3.286  13.828
66920W        W30677   4.330  26.644  12.092
66921W        W30678  12.652  35.404   4.134
66922W        W30679  19.149  26.134  11.602
66923W        W30680  36.413  32.044   3.253
66924W        W30681   6.742  32.017  12.577
66925W        W30682  20.073   6.308   2.742
66926W        W30683  13.711  24.517  14.488
66927W        W30684  14.708  32.133  13.916
66928W        W30685  29.547  38.938  11.610
66929W        W30686  34.924  17.188  13.031
66930W        W30687  37.478   6.219  13.854
66931W        W30688  16.257  23.564  14.813
66932W        W30689  13.799   6.848  11.011
66933W        W30690   7.816  34.436  10.602
66934W        W30691  20.028  26.685  14.432
66935W        W30692  30.074  15.108   4.207
66936W        W30693  18.258  30.947   1.327
66937W        W30694  33.563  18.759   1.754
66938W        W30695  36.951  41.386   3.302
66939W        W30696  23.493  36.469   4.684
66940W        W30697  35.093  15.109   0.755
66941W        W30698  34.448  13.693  10.431
66942W        W30699  20.663  23.698   1.843
66943W        W30700  40.390  29.027   0.917
66944W        W30701  15.176  25.536   1.790
66945W        W30702  43.471  41.364   5.286
66946W        W30703   7.282  33.937   1.408
66947W        W30704  22.685  23.649  10.495
66948W        W30705  15.708  26.172  13.439
66949W        W30706   2.741  36.589   3.807
66950W        W30707  14.192   5.878   4.639
66951W        W30708  12.705  43.939   0.394
66952W        W30709  25.580  28.091   3.691
66953W        W30710  24.507  10.284   3.154
66954W        W30711  41.927  42.920   0.385
66955W        W30712  36.467  36.412  10.898
66956W        W30713  25.177  44.285   4.258
66957W        W30714  44.490  29.505   0.478
66958W        W30715  40.432  16.294  12.024
66959W        W30716  27.039  14.155   0.291
66960W        W30717  32.926  43.289  13.056
66961W        W30718   7.871  28.583   2.886
66962W        W30719   0.903   9.150   1.789
66963W        W30720   8.730  15.590  12.555
66964W        W30721   6.292   4.741  11.033
66965W        W30722   9.271  23.664   0.949
66966W        W30723   6.291  39.018  10.472
66967W        W30724  16.605  43.817  14.867
66968W        W30725   4.276   4.331  12.865
66969W        W30726   9.681   3.800  13.349
66970W        W30727  14.302  32.976   2.841
66971W        W30728  19.109  28.076  10.467
66972W        W30729   2.390  18.161  11.391
66973W        W30730  42.946   2.949   1.316
66974W        W30731  37.896   5.386  10.581
66975W        W30732  21.649   4.898  10.992
66976W        W30733   9.277   5.771  14.488
66977W        W30734  21.537  11.352  13.951
66978W        W30735  11.847  33.536  11.609
66979W        W30736   9.733   2.470   4.664
66980W        W30737  14.131  37.989  10.575
66981W        W30738  28.667  27.048  14.497
66982W        W30739   7.349   2.802  11.504
66983W        W30740  14.190  38.897  12.060
66984W        W30741  43.495  25.644  12.548
66985W        W30742  22.591   3.732   0.467
66986W        W30743   5.382  37.997   1.718
66987W        W30744   6.718  19.610  10.468
66988W        W30745   0.877   5.275   1.796
66989W        W30746  29.510  14.673  12.526
66990W        W30747   0.296   3.715   1.365
66991W        W30748  29.607  42.513   2.670
66992W        W30749  27.452  20.222  11.590
66993W        W30750  19.091  32.101  12.566
66994W        W30751  44.940  10.720  14.011
66995W        W30752  35.860  24.616   1.872
66996W        W30753   9.245  35.479   4.194
66997W        W30754  25.682  27.680  11.073
66998W        W30755   2.845   0.854  14.281
66999W        W30756  22.155   7.722   2.837
67000W        W30757  40.924  23.232  12.405
67001W        W30758  19.748  21.583  13.977
67002W        W30759   0.385   8.748  14.930
67003W        W30760  10.873  32.941  10.589
67004W        W30761  25.713   6.895   3.673
67005W        W30762  27.450  31.620  12.459
67006W        W30763  35.094   7.780   4.682
67007W        W30764   8.169  10.753  12.871
67008W        W30765  14.204   7.751   3.752
67009W        W30766  30.014  17.277   4.219
67010W        W30767  41.923   7.880  11.048
67011W        W30768   9.677  40.818  13.455
67012W        W30769  15.173  15.312   4.799
67013W        W30770  25.008   3.824   3.380
67014W        W30771  37.480  20.206   5.307
67015W        W30772   7.195  16.768  12.443
67016W        W30773  24.105   5.932  10.915
67017W        W30774  21.239  41.511   2.311
67018W        W30775  12.834   3.878   1.373
67019W        W30776  25.196  34.414  12.962
67020W        W30777  42.882  44.503  13.852
67021W        W30778  42.281  41.322   0.948
67022W        W30779   6.841  17.609   1.323
67023W        W30780  31.932  13.718  12.568
67024W        W30781  10.334  40.815  14.003
67025W        W30782  37.045  18.682  12.341
67026W        W30783  29.059  30.441   0.482
67027W        W30784  12.729  32.592  12.043
67028W        W30785  36.930  41.976  10.914
67029W        W30786  16.688  32.061   3.358
67030W        W30787  35.070  23.651   0.772
67031W        W30788  42.777   1.812  12.839
67032W        W30789  36.096  41.844   0.358
67033W        W30790  11.797   0.462  14.419
67034W        W30791  12.649  14.762   4.307
67035W        W30792   5.229   8.870  14.341
67036W        W30793  24.149   7.366   0.852
67037W        W30794  21.686  28.579   1.879
67038W        W30795  25.132  33.924  11.409
67039W        W30796  23.993   7.227  13.916
67040W        W30797  29.646   3.772   1.875
67041W        W30798  44.758  19.750   0.740
67042W        W30799  24.167  26.184  10.904
67043W        W30800   0.878  22.563  12.511
67044W        W30801  11.327  14.341   4.691
67045W        W30802   8.289  44.853   3.862
67046W        W30803  14.137  17.249  12.090
67047W        W30804  27.490  36.563  14.290
67048W        W30805   2.236  34.937  12.884
67049W        W30806  29.465  41.901  13.428
67050W        W30807  34.876  36.476   4.133
67051W        W30808  17.062  14.104  11.553
67052W        W30809  28.679  18.770   4.616
67053W        W30810  28.147  25.639  12.343
67054W        W30811  25.610   3.929   1.435
67055W        W30812  39.475   7.771  14.313
67056W        W30813  13.262  17.135  13.823
67057W        W30814   8.280  33.518  10.497
67058W        W30815   6.361  24.660   0.880
67059W        W30816  17.117  36.509   0.902
67060W        W30817  22.660   7.393  13.931
67061W        W30818  30.973  10.305   3.794
67062W        W30819  31.977   0.858  14.831
67063W        W30820  33.525  19.767  11.877
67064W        W30821   9.371  16.236  11.393
67065W        W30822  44.945  26.071  11.375
67066W        W30823  12.813  41.481  10.971
67067W        W30824  31.428  28.614  10.114
67068W        W30825  22.503  18.271   3.743
67069W        W30826  21.734  23.519  12.366
67070W        W30827  23.128  19.634   2.244
67071W        W30828   2.806   5.831   0.475
67072W        W30829  29.648  41.991  12.946
67073W        W30830  44.306   0.881  12.481
67074W        W30831  36.026  35.990   1.759
67075W        W30832   6.808  20.128   1.797
67076W        W30833   7.746  14.660  12.487
67077W        W30834  17.648  23.637   4.829
67078W        W30835  12.856  42.387  14.843
67079W        W30836  35.448   8.886   4.285
67080W        W30837   3.324  30.501   2.210
67081W        W30838  16.189  14.608  13.873
67082W        W30839   9.817  39.380  10.932
67083W        W30840  25.214  44.312  14.473
67084W        W30841  33.413  21.199  13.975
67085W        W30842  30.004  16.632   0.443
67086W        W30843  21.044  17.091   1.445
67087W        W30844  10.325  30.061  13.823
67088W        W30845   2.365  43.355  12.886
67089W        W30846   3.791  20.636  11.894
67090W        W30847   9.208   5.340  12.057
67091W        W30848  37.043   6.296   1.392
67092W        W30849   5.839  37.499   2.359
67093W        W30850  31.069   5.352  13.434
67094W        W30851   0.966  21.063   2.322
67095W        W30852  35.442  14.787   0.745
67096W        W30853  22.669  30.506  10.020
67097W        W30854  30.592  14.833  10.024
67098W        W30855   0.462   1.430  10.992
67099W        W30856  37.982  21.649  12.408
67100W        W30857  36.439  37.837  14.004
67101W        W30858  23.195  30.579  10.485
67102W        W30859   4.361  43.951   3.776
67103W        W30860  32.933  40.959   0.401
67104W        W30861  20.524  28.030   3.758
67105W        W30862  27.673  18.606  11.047
67106W        W30863  44.479  36.476  11.527
67107W        W30864  12.857  14.288   0.872
67108W        W30865  11.865  37.059   2.292
67109W        W30866  20.035  12.719  11.555
67110W        W30867  24.716  40.387  14.779
67111W        W30868  19.161  25.576   0.903
67112W        W30869  39.048  22.505   2.309
67113W        W30870   4.832  33.383  12.576
67114W        W30871  30.081  44.414   1.212
67115W        W30872  44.286  33.962  10.963
67116W        W30873  41.415  28.011  13.396
67117W        W30874  27.157  23.029   3.323
67118W        W30875  26.687  44.304  14.816
67119W        W30876  36.377  19.238   0.428
67120W        W30877   9.822  12.303  14.979
67121W        W30878  39.015  13.644  14.327
67122W        W30879  42.470  13.664  11.043
67123W        W30880  42.871  20.656  12.374
67124W        W30881   1.850  32.996   2.192
67125W        W30882  22.173  44.843   2.843
67126W        W30883  34.544  13.683  13.441
67127W        W30884  44.767   8.815   5.256
67128W        W30885  29.022  25.470   3.369
67129W        W30886  38.499  31.059   4.605
67130W        W30887  41.487  21.677   0.864
67131W        W30888  27.122  36.956   4.323
67132W        W30889  13.806  29.523  12.907
67133W        W30890   0.468  11.204   2.709
67134W        W30891  36.376  24.176  10.931
67135W        W30892  30.487  42.018   1.367
67136W        W30893   4.810  30.603  11.899
67137W        W30894  36.974  44.878  13.883
67138W        W30895  33.399   4.862  14.513
67139W        W30896  35.026  22.533   4.311
67140W        W30897  35.071  30.623  10.910
67141W        W30898  39.919  39.451  12.925
67142W        W30899  41.854  35.093   3.758
67143W        W30900  31.952  11.259   4.181
67144W        W30901   0.891  42.416  14.316
67145W        W30902  16.180  36.502   3.204
67146W        W30903  27.107  26.145   3.725
67147W        W30904  31.541  33.380   0.411
67148W        W30905  32.481   1.914   2.386
67149W        W30906   4.415  39.921   4.721
67150W        W30907  20.243  37.492   0.803
67151W        W30908  30.572  40.509   2.803
67152W        W30909  40.021  15.269   1.245
67153W        W30910  44.977  22.512   2.304
67154W        W30911   4.921  32.425  13.320
67155W        W30912  25.534  29.633   0.251
67156W        W30913  17.243  26.977   4.288
67157W        W30914  24.688   1.288   2.230
67158W        W30915   3.332  25.179  13.371
67159W        W30916  14.741   0.373   3.270
67160W        W30917  16.225  11.665  11.538
67161W        W30918  23.225  23.582  12.545
67162W        W30919  14.756  31.551   3.679
67163W        W30920  10.256  35.492  11.486
67164W        W30921   5.829  30.118  11.110
67165W        W30922  17.712   8.755  14.298
67166W        W30923   0.865  17.696  11.446
67167W        W30924  39.459  19.696  14.801
67168W        W30925  39.403  14.148   1.289
67169W        W30926  32.910   4.943  12.452
67170W        W30927  10.159   8.294   3.829
67171W        W30928  26.671  27.625   2.387
67172W        W30929  44.321  16.733   1.904
67173W        W30930  22.699  29.550   4.747
67174W        W30931  19.200  13.227   5.742
67175W        W30932   4.790  36.591   4.197
67176W        W30933  13.151  23.532   0.798
67177W        W30934   2.283  27.521   1.433
67178W        W30935  28.933  41.797   4.138
67179W        W30936  10.370  16.668  14.347
67180W        W30937  25.498  24.496  13.055
67181W        W30938  15.237   5.876   4.148
67182W        W30939  24.020  34.477  12.492
67183W        W30940  20.105  10.187   4.268
67184W        W30941  17.651   6.275  10.996
67185W        W30942  20.198  36.020  14.800
67186W        W30943  31.997  38.406   2.349
67187W        W30944  17.688  34.477   2.291
67188W        W30945   9.241  39.968   1.718
67189W        W30946  10.228  11.733  10.467
67190W        W30947  42.524  13.627   0.442
67191W        W30948   8.216  44.753  12.967
67192W        W30949   2.798   3.426  14.933
67193W        W30950  35.995  17.163  14.277
67194W        W30951  15.600  16.799  12.377
67195W        W30952  20.256  44.395   4.628
67196W        W30953   5.860  18.758   5.094
67197W        W30954   5.204  34.412  11.425
67198W        W30955  14.207  22.568   2.322
67199W        W30956  40.309  27.523   1.230
67200W        W30957  33.460  36.074  13.899
67201W        W30958   8.663  21.128  10.904
67202W        W30959   6.343  26.592  13.343
67203W        W30960  15.161  30.028   2.343
67204W        W30961  20.182  35.940  10.978
67205W        W30962  16.301  17.742   2.832
67206W        W30963   1.406  29.091  11.380
67207W        W30964  41.799  20.273   2.860
67208W        W30965  35.894  27.016  13.993
67209W        W30966  10.274  44.417   9.952
67210W        W30967  29.586  44.448   4.137
67211W        W30968  12.708   1.788   2.678
67212W        W30969  31.571  32.462   0.408
67213W        W30970  32.551  23.708  12.380
67214W        W30971  27.148  39.056  10.965
67215W        W30972  31.504   5.279   2.838
67216W        W30973  32.126  42.919   2.203
67217W        W30974   1.358  15.152  13.883
67218W        W30975  20.588  29.972  11.458
67219W        W30976   3.918   6.259   0.440
67220W        W30977  30.453   1.467  10.023
67221W        W30978  38.333  11.785  10.617
67222W        W30979  32.545  19.087   0.967
67223W        W30980  21.705  35.489  11.494
67224W        W30981  20.738  17.692   4.685
67225W        W30982  35.957  30.050   2.372
67226W        W30983   8.333   8.733  11.891
67227W        W30984  22.008   4.906   4.734
67228W        W30985   9.214  33.969  10.622
67229W        W30986  42.526  14.288  10.534
67230W        W30987  41.857  44.307  11.503
67231W        W30988  25.630  14.590   4.619
67232W        W30989  16.620   4.726  12.035
67233W        W30990  38.015  12.152   4.598
67234W        W30991  12.134  27.641  13.843
67235W        W30992  19.661  21.022  10.629
67236W        W30993  28.023  28.475  14.441
67237W        W30994  20.264  31.923   0.866
67238W        W30995   4.758  19.763  13.025
67239W        W30996  43.462  10.354   3.198
67240W        W30997  34.928  31.600   4.660
67241W        W30998  23.575  12.343   2.729
67242W        W30999  17.643   0.294   2.724
67243W        W31000  29.961   3.328  14.000
67244W        W31001  34.892  25.103   4.813
67245W        W31002  35.428  42.322  13.886
67246W        W31003   1.954  12.119   4.158
67247W        W31004  39.929  22.623  13.353
67248W        W31005   3.305   9.321  10.593
67249W        W31006  10.636  19.583   0.400
67250W        W31007  16.725  39.428   3.214
67251W        W31008  43.481   4.254   2.341
67252W        W31009  42.483  25.474  14.900
67253W        W31010  38.049  34.559  12.086
67254W        W31011  38.024  24.488  14.301
67255W        W31012  24.520  15.797   1.311
67256W        W31013  42.995   7.853  10.628
67257W        W31014  18.549   5.306   0.459
67258W        W31015  28.604  41.962  12.895
67259W        W31016  37.909   4.259   3.381
67260W        W31017  12.315  32.002   2.405
67261W        W31018  22.070  25.589   4.838
67262W        W31019  19.648  32.916  10.485
67263W        W31020  34.594  22.208   2.317
67264W        W31021  37.067  17.293   1.750
67265W        W31022   7.829  18.070  11.552
67266W        W31023  39.954  24.192  13.523
67267W        W31024  28.057  30.656  10.427
67268W        W31025  24.500  25.532   2.889
67269W        W31026  30.633  29.095  11.590
67270W        W31027  37.926  44.433   2.665
67271W        W31028   8.779   1.352  12.910
67272W        W31029  37.027  40.520  12.059
67273W        W31030   4.311  39.825  14.789
67274W        W31031  42.953  36.592   2.329
67275W        W31032  23.229   4.842   9.998
67276W        W31033  40.422  41.515   3.777
67277W        W31034  37.460  26.996  13.932
67278W        W31035  13.717  23.047   1.215
67279W        W31036  14.674  19.111  14.918
67280W        W31037  39.927  34.572   1.724
67281W        W31038  41.345  41.808   4.735
67282W        W31039   5.244  24.678  12.065
67283W        W31040  26.481  38.018  13.923
67284W        W31041   7.221  22.070   1.919
67285W        W31042  40.826  28.560  10.412
67286W        W31043  11.311  13.774   1.222
67287W        W31044   4.900  21.536  12.980
67288W        W31045  28.950  20.624  12.048
67289W        W31046  14.122   2.872  10.584
67290W        W31047  23.133  14.687   0.364
67291W        W31048   0.885  32.979  11.962
67292W        W31049  43.355  24.667   4.740
67293W        W31050   6.793  17.711  14.447
67294W        W31051  40.441  33.562   4.314
67295W        W31052  22.203  24.553  11.120
67296W        W31053  30.609  15.144  14.969
67297W        W31054  19.196   5.695  11.923
67298W        W31055  25.965  14.178  14.856
67299W        W31056  44.495  10.670   2.752
67300W        W31057   9.305  12.157   2.671
67301W        W31058  15.146   6.187  14.395
67302W        W31059   9.212  28.676  14.371
67303W        W31060  22.560   0.348   3.711
67304W        W31061  30.461  34.501  14.990
67305W        W31062  18.706  29.568  14.994
67306W        W31063  22.505  12.712  10.461
67307W        W31064  44.422   4.922  10.580
67308W        W31065  18.180   0.968   3.866
67309W        W31066   7.731  38.983  12.963
67310W        W31067  29.171  31.940  11.023
67311W        W31068  24.630  25.205  11.607
67312W        W31069  42.513  35.391   3.168
67313W        W31070  42.983   9.697   1.397
67314W        W31071  38.368   5.252   5.122
67315W        W31072  32.057   2.784   2.393
67316W        W31073   7.689   6.408   4.696
67317W        W31074  37.416  43.774   0.902
67318W        W31075  33.577   4.336  10.572
67319W        W31076  12.643  18.728  10.618
67320W        W31077  19.553  21.597   3.660
67321W        W31078  38.398   7.301   3.264
67322W        W31079  43.850  29.426   1.274
67323W        W31080  16.743  30.140   1.429
67324W        W31081   2.834  41.022  14.504
67325W        W31082  11.154   8.199   4.154
67326W        W31083  23.716  33.429   1.231
67327W        W31084  30.073  25.141  14.332
67328W        W31085  34.065   8.223   3.826
67329W        W31086  31.574  31.091  12.870
67330W        W31087  35.981   1.850  11.472
67331W        W31088  28.157  34.569  14.289
67332W        W31089  37.422   6.366   2.370
67333W        W31090  24.587   0.890   1.313
67334W        W31091  41.908   1.826  14.806
67335W        W31092  11.748   4.258   2.355
67336W        W31093  35.961  22.066  12.067
67337W        W31094  16.763  27.037   3.369
67338W        W31095  10.254   0.423  10.956
67339W        W31096  42.872  20.532   2.866
67340W        W31097  37.032   1.791  11.479
67341W        W31098  33.022  16.273   1.388
67342W        W31099  33.970  26.487  12.863
67343W        W31100   8.205   8.785   5.300
67344W        W31101  16.220   2.906   3.187
67345W        W31102  19.183  29.654   2.235
67346W        W31103  27.680  35.458  10.623
67347W        W31104  30.494  11.330   1.332
67348W        W31105  17.770  24.200   3.768
67349W        W31106   8.816  12.324  12.970
67350W        W31107  15.159   9.200  10.527
67351W        W31108  25.195  10.311  14.975
67352W        W31109  22.227  20.607   1.853
67353W        W31110   2.368  24.554   2.185
67354W        W31111  28.588  24.649   2.719
67355W        W31112  21.157   3.311  14.443
67356W        W31113   9.832  10.316   4.622
67357W        W31114  11.229   1.921  14.434
67358W        W31115   5.206  44.400   1.308
67359W        W31116  13.290   6.317  13.957
67360W        W31117  16.258   1.325   0.890
67361W        W31118  37.455  41.443   2.738
67362W        W31119  34.027   3.900  11.552
67363W        W31120  32.465   5.897   3.726
67364W        W31121  42.515  23.619  13.935
67365W        W31122  38.383  20.691  14.337
67366W        W31123   5.864  35.883   4.196
67367W        W31124  38.825   6.226  11.487
67368W        W31125  28.560  32.490  11.882
67369W        W31126  37.413   9.712   3.804
67370W        W31127   3.792   4.717  12.075
67371W        W31128  12.306  43.918  13.059
67372W        W31129  37.977   0.282   4.805
67373W        W31130  35.088  34.942   0.839
67374W        W31131  31.472  17.280   0.947
67375W        W31132  43.446  15.186  10.459
67376W        W31133  38.384  34.578   1.773
67377W        W31134  33.598  22.601  12.568
67378W        W31135  11.764   0.248   9.461
67379W        W31136  15.222   8.343   4.126
67380W        W31137  13.713  21.585   0.312
67381W        W31138  35.455  26.119   1.927
67382W        W31139  32.425  23.125  14.985
67383W        W31140  40.011   4.828   1.340
67384W        W31141  22.635  40.408   2.234
67385W        W31142   0.951  33.089  12.847
67386W        W31143  19.087  32.574  11.916
67387W        W31144  27.522   2.454  11.596
67388W        W31145  13.791  22.098   1.365
67389W        W31146  20.235  34.524   3.666
67390W        W31147  44.409  19.105   0.796
67391W        W31148   0.744  31.081  11.478
67392W        W31149  39.008  37.362   3.758
67393W        W31150  42.327  43.471   3.766
67394W        W31151  18.165  35.891   3.837
67395W        W31152  20.721  26.987  14.810
67396W        W31153  33.592   2.846  10.539
67397W        W31154  22.201  41.532  14.759
67398W        W31155  39.990   1.343  12.452
67399W        W31156  36.010  16.700  14.836
67400W        W31157   9.671  28.152   3.360
67401W        W31158  33.569  21.246   4.350
67402W        W31159  40.370  13.680   0.907
67403W        W31160  43.966  24.480   2.323
67404W        W31161   8.351   2.959  14.495
67405W        W31162   6.892  31.004  13.479
67406W        W31163  22.655  13.319   4.684
67407W        W31164   2.932  34.580   1.737
67408W        W31165   3.287  14.249   1.232
67409W        W31166   6.208  10.362  12.852
67410W        W31167   1.943   0.485  11.000
67411W        W31168  13.830  15.213   0.926
67412W        W31169  41.413  43.330   4.140
67413W        W31170  23.032  19.749  11.521
67414W        W31171  13.192  42.866   2.360
67415W        W31172  36.046  12.769  12.557
67416W        W31173   9.855   1.768   1.378
67417W        W31174  22.675  43.497  12.010
67418W        W31175  17.624  23.702   0.746
67419W        W31176  11.849   4.231   0.310
67420W        W31177  42.397  24.019  11.561
67421W        W31178  34.553  25.031   1.757
67422W        W31179  23.147  10.138   4.796
67423W        W31180  13.223  30.128  13.431
67424W        W31181  33.994  17.289  10.633
67425W        W31182  28.621  23.165   3.820
67426W        W31183  23.219  25.469   4.114
67427W        W31184  34.566  29.508   4.125
67428W        W31185  43.911  17.156   3.853
67429W        W31186   2.456  20.117   4.130
67430W        W31187  34.936   2.829  10.511
67431W        W31188  40.517  22.214  12.995
67432W        W31189  19.570  35.009   0.271
67433W        W31190  15.743   8.303  10.549
67434W        W31191  26.465  40.898   0.810
67435W        W31192  14.279   1.871  12.471
67436W        W31193   5.378  41.989   0.361
67437W        W31194  34.995  28.559   4.214
67438W        W31195  27.618  40.344   4.604
67439W        W31196  41.309  27.488  11.033
67440W        W31197  10.695  20.573  12.957
67441W        W31198  37.956   8.779   3.327
67442W        W31199   5.402  41.866  12.391
67443W        W31200  17.785  21.673   4.144
67444W        W31201  36.397  15.760   2.265
67445W        W31202  13.834  11.716   4.764
67446W        W31203  26.104  28.045   1.248
67447W        W31204  40.901  35.409  11.476
67448W        W31205  37.867   8.748   2.219
67449W        W31206   9.181  39.546   1.340
67450W        W31207   2.301  23.570   4.680
67451W        W31208  30.124  30.581   0.966
67452W        W31209  34.936   4.930  10.093
67453W        W31210  38.060   1.376  12.357
67454W        W31211  44.390  44.462   5.251
67455W        W31212  19.572  13.826  14.358
67456W        W31213   0.765  26.483   3.867
67457W        W31214  28.652  10.255   5.248
67458W        W31215  16.799  21.660  13.536
67459W        W31216  28.555  39.439  14.898
67460W        W31217   9.390  18.753  14.983
67461W        W31218  34.878  29.989  14.302
67462W        W31219  43.312   1.432   3.796
67463W        W31220   4.347   5.696  12.911
67464W        W31221  11.256   1.266  13.049
67465W        W31222   1.836  33.496  12.417
67466W        W31223  35.550   0.976   0.862
67467W        W31224  20.210   4.285  12.933
67468W        W31225  38.858   5.887   2.866
67469W        W31226  20.572  39.346  13.926
67470W        W31227  18.709  17.684  12.975
67471W        W31228  24.014  11.814   3.634
67472W        W31229  16.303  36.026  10.998
67473W        W31230  21.241  15.199  12.558
67474W        W31231  37.557  11.768   2.880
67475W        W31232  23.237  21.659  12.371
67476W        W31233  17.072  13.324   3.718
67477W        W31234  28.083  38.547   9.946
67478W        W31235  27.115  12.290   2.827
67479W        W31236  11.847   6.321  11.049
67480W        W31237  17.787  14.213  11.999
67481W        W31238   2.337  19.231   4.672
67482W        W31239  26.987   6.323  10.628
67483W        W31240  32.013  14.242  13.865
67484W        W31241  29.523  17.792   1.346
67485W        W31242  40.907   6.324   3.792
67486W        W31243   0.288  24.129   1.352
67487W        W31244  24.206  38.411   1.836
67488W        W31245  34.878  30.993   4.315
67489W        W31246  21.045   2.294  11.014
67490W        W31247  20.747  43.792   0.428
67491W        W31248   4.932  42.844   3.818
67492W        W31249   6.801  39.043   4.149
67493W        W31250   1.912  15.306  13.417
67494W        W31251  12.766  28.049   3.864
67495W        W31252  26.688   3.875  13.973
67496W        W31253  31.129  10.864  11.427
67497W        W31254  36.939  36.520  13.462
67498W        W31255  34.373  14.797  12.490
67499W        W31256  20.175  26.028  12.458
67500W        W31257   1.844   8.666  14.930
67501W        W31258  17.557  13.106  13.529
67502W        W31259  18.659  43.285   3.313
67503W        W31260  18.559  22.580  11.501
67504W        W31261  27.539  28.178  10.514
67505W        W31262  23.532  20.060   3.201
67506W        W31263  34.477   1.338  10.641
67507W        W31264   4.862  28.097   0.806
67508W        W31265  27.634   9.811   0.350
67509W        W31266  44.354  22.999  11.518
67510W        W31267  36.397  31.526  13.537
67511W        W31268  15.626  32.041  13.998
67512W        W31269  43.888  17.195   0.806
67513W        W31270  41.397  32.420  10.942
67514W        W31271  10.378  31.147  11.453
67515W        W31272  11.721  23.630   4.635
67516W        W31273  34.997  10.851  14.367
67517W        W31274  25.986   0.915  11.449
67518W        W31275  15.227  17.199  10.571
67519W        W31276  40.051  35.066   4.809
67520W        W31277   7.323  43.000  14.445
67521W        W31278  23.226  17.258  13.500
67522W        W31279   0.401   7.811  13.353
67523W        W31280  14.739  12.129   1.866
67524W        W31281   0.748  12.786   4.627
67525W        W31282  29.986  16.247  12.952
67526W        W31283   4.333  10.222   4.303
67527W        W31284  17.751   4.276   4.294
67528W        W31285  29.123  35.499   3.724
67529W        W31286  40.855  16.310  11.475
67530W        W31287  33.910   7.699   2.673
67531W        W31288   9.827   9.312  14.425
67532W        W31289   9.198   2.351  11.097
67533W        W31290  31.517  20.033   3.737
67534W        W31291  14.246   8.305   4.750
67535W        W31292  24.513  26.964   4.774
67536W        W31293  29.054  13.682   2.213
67537W        W31294  32.014  28.106   0.926
67538W        W31295  21.707   0.417  12.042
67539W        W31296  24.172  15.172  12.054
67540W        W31297  32.577  27.550   1.431
67541W        W31298  23.241  34.553   2.418
67542W        W31299   6.357  30.063   1.905
67543W        W31300  13.638  18.262   0.369
67544W        W31301  21.601   3.245   0.774
67545W        W31302  43.321  35.503   3.690
67546W        W31303  25.979  30.555  14.877
67547W        W31304  38.558  43.439  14.816
67548W        W31305  22.085   1.278   4.659
67549W        W31306  11.664  17.094   1.417
67550W        W31307  38.874  27.057  13.864
67551W        W31308  28.659  10.380   4.687
67552W        W31309  18.775  15.106   0.272
67553W        W31310  38.504   2.315   4.604
67554W        W31311  19.242   1.481   0.433
67555W        W31312  11.280  26.107  11.546
67556W        W31313  44.399  20.762  11.457
67557W        W31314  36.994  35.108  13.971
67558W        W31315   9.384  28.085   4.308
67559W        W31316  13.815  34.965   2.838
67560W        W31317  44.949  38.041   0.285
67561W        W31318  22.141  25.978   1.395
67562W        W31319  32.436  35.468   4.617
67563W        W31320  27.008   4.326   2.366
67564W        W31321   6.696  10.142  13.831
67565W        W31322  21.748  13.790  11.464
67566W        W31323  12.199  12.347   2.253
67567W        W31324  25.153  40.021   2.274
67568W        W31325  25.613   1.848  12.504
67569W        W31326  41.858  30.561  10.516
67570W        W31327  11.639   2.371  11.892
67571W        W31328  44.958  43.000   3.825
67572W        W31329   1.371  14.099   3.194
67573W        W31330  24.624   9.389  12.865
67574W        W31331  19.646  18.216   0.756
67575W        W31332  41.944  21.624   0.457
67576W        W31333  27.102  28.138  11.411
67577W        W31334  41.336  10.671  14.901
67578W        W31335  41.529   4.428  14.029
67579W        W31336  35.870  18.634  13.538
67580W        W31337  25.482   8.818   2.722
67581W        W31338  19.046  20.087  12.927
67582W        W31339  12.830  37.973   2.367
67583W        W31340   0.439  23.507   3.338
67584W        W31341   4.843  20.110  11.558
67585W        W31342   3.287   2.807   4.267
67586W        W31343  28.956   9.742   3.326
67587W        W31344  37.072  33.028  13.435
67588W        W31345  12.640  23.698  12.050
67589W        W31346  31.073   3.939   3.199
67590W        W31347  32.950   7.864   3.658
67591W        W31348   5.895   3.310  10.972
67592W        W31349   8.164   2.294  14.293
67593W        W31350  14.229  28.141   2.712
67594W        W31351  22.743  31.471  10.956
67595W        W31352  28.630   5.257  12.877
67596W        W31353  20.659  41.787  11.586
67597W        W31354  10.171  24.987   1.393
67598W        W31355   8.192  35.915  13.938
67599W        W31356   4.888  20.261  12.995
67600W        W31357  25.597  39.367  10.567
67601W        W31358  31.922   2.727  12.474
67602W        W31359   2.768  20.174  12.427
67603W        W31360  33.877   8.235   1.328
67604W        W31361   3.795   3.734   0.844
67605W        W31362  39.864  43.011  12.881
67606W        W31363   6.903  35.106   4.708
67607W        W31364  17.095   2.322  10.990
67608W        W31365   6.809  24.530   3.666
67609W        W31366  37.362  31.109  11.499
67610W        W31367  39.976   7.750   1.374
67611W        W31368  22.148  22.745   0.298
67612W        W31369   5.720  33.592   4.213
67613W        W31370   4.409   9.174  10.587
67614W        W31371  13.337  37.362  11.563
67615W        W31372   3.926  30.099   1.696
67616W        W31373  35.080   0.879   1.919
67617W        W31374   4.846   9.663   1.325
67618W        W31375  19.049  21.169  12.891
67619W        W31376  36.859  34.020   2.360
67620W        W31377  24.067  27.530   3.702
67621W        W31378  31.466  32.594  12.086
67622W        W31379  19.758  39.532  13.049
67623W        W31380  24.510  25.685   4.319
67624W        W31381  18.680  32.934   0.738
67625W        W31382  30.442  34.453   2.723
67626W        W31383  33.087  11.337   0.896
67627W        W31384  11.170   6.824  11.385
67628W        W31385   2.806  39.474   3.695
67629W        W31386  24.006  11.284  12.081
67630W        W31387  38.534  27.450  13.320
67631W        W31388  32.099  23.705  14.798
67632W        W31389  31.430  23.719  12.532
67633W        W31390   4.753  29.638  14.902
67634W        W31391  24.017  16.287   3.256
67635W        W31392  40.966   8.766  10.901
67636W        W31393  24.557   8.372  14.413
67637W        W31394   5.359  40.969  10.975
67638W        W31395  15.726   5.828   1.925
67639W        W31396  18.716  43.774  10.929
67640W        W31397  10.373  35.442  14.997
67641W        W31398  18.762   2.257   1.785
67642W        W31399  19.052  28.503  10.556
67643W        W31400  14.832  29.006  11.392
67644W        W31401  23.545  28.070  10.909
67645W        W31402  27.048  42.336   3.750
67646W        W31403   6.328  10.661  12.046
67647W        W31404   0.275  26.482   3.210
67648W        W31405  13.750  22.083   0.901
67649W        W31406  22.642  14.649  14.836
67650W        W31407  39.378  17.640  13.030
67651W        W31408  31.553   0.417  14.345
67652W        W31409  22.578  28.971  14.893
67653W        W31410  43.306  35.596   4.728
67654W        W31411   1.262  17.611   1.377
67655W        W31412  39.875  42.876  13.820
67656W        W31413  11.672  43.916   1.401
67657W        W31414  44.433  24.214  11.055
67658W        W31415   9.808  26.695  12.872
67659W        W31416  43.855  43.778  11.420
67660W        W31417  44.986  18.242   3.281
67661W        W31418  43.446  10.249  14.279
67662W        W31419  40.053  13.743  14.331
67663W        W31420  17.214   5.349   2.277
67664W        W31421  16.179  28.086   1.881
67665W        W31422  25.187  37.509   1.297
67666W        W31423   5.279  12.195   1.764
67667W        W31424  12.288   1.833   3.276
67668W        W31425   4.234  12.117  11.915
67669W        W31426   5.723  32.626   2.684
67670W        W31427  16.587  10.781  14.846
67671W        W31428   5.716  41.907  13.392
67672W        W31429   3.226  17.255  13.945
67673W        W31430  20.088   9.244  13.918
67674W        W31431  33.584  42.856   3.230
67675W        W31432  16.171   6.763   3.290
67676W        W31433  28.163  17.197  12.438
67677W        W31434  10.329  27.567  13.489
67678W        W31435  16.682  12.759  11.942
67679W        W31436  19.772   0.459   0.795
67680W        W31437   3.943  28.933   3.283
67681W        W31438  25.629  22.164  12.405
67682W        W31439  35.091   2.430  13.013
67683W        W31440  35.895  17.791   3.249
67684W        W31441   2.292  24.541  11.902
67685W        W31442  31.577  27.152  11.963
67686W        W31443  43.413  34.593   0.464
67687W        W31444  29.953  22.236   1.343
67688W        W31445  41.028  34.535  14.774
67689W        W31446   6.342  16.779   0.811
67690W        W31447  20.253  19.612  12.457
67691W        W31448  39.896  37.908  10.891
67692W        W31449  27.002  20.159  10.481
67693W        W31450  16.794  22.698   3.228
67694W        W31451  27.042  32.025  11.933
67695W        W31452  24.687  30.149   1.740
67696W        W31453  18.651   0.327   2.803
67697W        W31454  10.686  40.368   4.257
67698W        W31455  29.099  12.279  10.998
67699W        W31456   4.233   3.719  13.328
67700W        W31457  10.196  26.579  13.449
67701W        W31458   3.347  13.840  12.348
67702W        W31459  23.614  35.065   0.935
67703W        W31460  25.553  20.132   3.772
67704W        W31461  21.186   4.261   1.414
67705W        W31462  18.139  16.171   4.787
67706W        W31463  27.035  33.997  13.489
67707W        W31464  12.132  26.077   2.718
67708W        W31465   3.385  44.994  10.516
67709W        W31466  42.901  43.823  11.445
67710W        W31467  22.731  12.265  12.401
67711W        W31468  23.681  26.204   4.649
67712W        W31469  33.464  26.109  12.553
67713W        W31470  34.952  42.357  13.412
67714W        W31471  34.042  31.435  11.087
67715W        W31472  16.254  24.590  12.469
67716W        W31473  31.548   6.692   1.331
67717W        W31474  26.096  12.626  13.959
67718W        W31475  24.020  38.892   1.317
67719W        W31476  19.744  15.189  14.351
67720W        W31477  17.097  12.272   3.272
67721W        W31478  32.054  10.873  11.421
67722W        W31479  36.418  39.918  13.883
67723W        W31480  19.055  11.729  12.346
67724W        W31481  24.059  17.620   0.426
67725W        W31482  13.820  39.839   0.841
67726W        W31483  26.627   5.396  12.387
67727W        W31484  31.982   2.293   2.295
67728W        W31485   8.320  11.697  11.930
67729W        W31486  25.578  39.452   4.266
67730W        W31487  19.196  19.635  10.958
67731W        W31488  31.577  21.605   1.725
67732W        W31489  34.592  23.007  11.857
67733W        W31490   7.179  24.621  14.507
67734W        W31491  42.421   5.309   2.315
67735W        W31492  41.399  36.983   4.651
67736W        W31493  30.548  31.459   3.251
67737W        W31494  26.071  11.758   3.717
67738W        W31495  27.507  13.225  13.443
67739W        W31496  20.272  38.000  13.952
67740W        W31497   2.415   4.270  14.975
67741W        W31498   5.705  25.219  13.458
67742W        W31499  24.646  27.993  14.768
67743W        W31500  27.950  14.195   2.874
67744W        W31501  16.285  36.077  14.306
67745W        W31502  35.030  30.117   0.833
67746W        W31503  35.595  12.329   4.727
67747W        W31504  27.669  15.663  13.406
67748W        W31505  16.752  26.698  13.511
67749W        W31506  13.184  12.651  11.398
67750W        W31507  13.187  36.939  10.995
67751W        W31508  26.989  16.306  11.939
67752W        W31509  15.267  39.035   3.245
67753W        W31510  43.793   2.813   4.655
67754W        W31511  18.567  29.924  11.025
67755W        W31512  30.058  25.693   0.799
67756W        W31513  27.452  19.147   3.264
67757W        W31514  26.983  25.479   3.244
67758W        W31515  18.131  34.493  11.881
67759W        W31516   1.423  12.149  10.476
67760W        W31517  22.616  36.861   3.355
67761W        W31518  27.481  29.577   1.293
67762W        W31519  16.293   8.735  10.638
67763W        W31520  28.628   5.724   0.958
67764W        W31521  35.005  30.091  10.404
67765W        W31522  12.168  41.789  13.799
67766W        W31523  11.832   4.267  14.855
67767W        W31524  24.024  27.624  13.851
67768W        W31525  22.615  39.858   2.789
67769W        W31526   9.644   3.760  13.053
67770W        W31527  23.072  29.016   0.298
67771W        W31528   8.303  42.859  12.843
67772W        W31529  42.524   6.761   1.404
67773W        W31530  41.949   0.413  10.940
67774W        W31531  22.690   2.469   2.385
67775W        W31532  20.264  35.591   3.192
67776W        W31533  24.671  16.118   3.200
67777W        W31534  33.949   3.454   9.675
67778W        W31535  30.039   4.705   1.730
67779W        W31536  23.666   1.906  14.978
67780W        W31537  35.878  19.744  14.835
67781W        W31538  37.427  34.448  12.925
67782W        W31539  42.885  30.600   4.622
67783W        W31540   5.281  40.546  11.121
67784W        W31541  29.605  38.926  10.980
67785W        W31542   5.856  31.917  10.428
67786W        W31543  32.082  18.189   3.203
67787W        W31544  37.902  31.578   3.334
67788W        W31545  19.270  21.721   1.763
67789W        W31546   4.325   2.838   0.945
67790W        W31547   2.443   8.794   9.930
67791W        W31548   9.196   8.320  13.807
67792W        W31549  19.190  34.999   2.193
67793W        W31550  32.000  40.895  13.955
67794W        W31551   4.269  27.500  11.996
67795W        W31552  44.318  34.386   4.227
67796W        W31553  39.502  40.404  12.076
67797W        W31554  36.480  41.298  12.996
67798W        W31555  24.181  41.938   3.385
67799W        W31556  23.225  22.139  10.405
67800W        W31557  16.624  31.996  12.376
67801W        W31558  37.067  44.290   0.729
67802W        W31559  31.448   7.369  13.828
67803W        W31560   4.255  22.186   4.767
67804W        W31561  38.944  31.611  14.328
67805W        W31562  14.159  34.574   0.738
67806W        W31563  17.241  33.956   0.948
67807W        W31564  16.758  40.020   2.808
67808W        W31565   5.318  40.320   5.175
67809W        W31566  11.144   0.442   0.462
67810W        W31567   2.789   7.187  12.529
67811W        W31568  35.004  14.201  11.551
67812W        W31569  43.481  22.663  12.371
67813W        W31570  33.571  29.553   0.309
67814W        W31571  23.023  36.850   5.249
67815W        W31572   8.280  42.969  14.414
67816W        W31573  29.042   3.920   1.302
67817W        W31574  44.276  43.799  12.540
67818W        W31575  34.120  26.997   1.931
67819W        W31576  40.810  24.085  10.548
67820W        W31577  25.189  28.992  11.535
67821W        W31578  13.173  38.458  12.457
67822W        W31579  34.095  41.942  13.864
67823W        W31580  21.743  23.081  12.409
67824W        W31581  25.664  37.830  11.586
67825W        W31582   3.324  40.799  10.902
67826W        W31583  27.021  23.511  10.079
67827W        W31584  19.683  22.998   3.287
67828W        W31585  29.074  11.224   4.159
67829W        W31586  14.331  27.586   3.664
67830W        W31587  34.422  43.317  12.941
67831W        W31588  17.083  11.273   4.144
67832W        W31589  28.021  25.570  14.411
67833W        W31590  36.542  24.500  14.989
67834W        W31591  44.957   7.375   2.868
67835W        W31592  15.744  36.043  11.384
67836W        W31593  11.637  27.145  13.512
67837W        W31594  12.638  36.041  13.898
67838W        W31595  43.424  37.034  14.866
67839W        W31596   4.418  33.527  13.376
67840W        W31597  32.085  19.674  13.805
67841W        W31598  23.055   3.408  12.909
67842W        W31599  19.582   5.394   4.623
67843W        W31600   0.357  21.593   4.642
67844W        W31601  11.170  38.457  13.522
67845W        W31602  23.128  17.137   3.182
67846W        W31603  13.150  26.017  14.007
67847W        W31604  14.313  14.824   2.672
67848W        W31605   8.836  39.421   1.734
67849W        W31606   2.306  40.360  13.981
67850W        W31607  41.838  12.353   2.184
67851W        W31608  31.550  11.863   1.285
67852W        W31609  20.086  30.152   0.291
67853W        W31610  41.372  25.512  12.424
67854W        W31611  32.530  20.702   4.717
67855W        W31612  20.140  19.168  11.893
67856W        W31613   1.447  39.519  13.524
67857W        W31614  31.507  44.265  14.964
67858W        W31615  32.007  11.216  11.561
67859W        W31616   1.254  35.543   3.307
67860W        W31617   5.360  33.106   2.848
67861W        W31618  29.481   1.932  10.910
67862W        W31619  11.210   5.902   1.825
67863W        W31620   2.723  38.396   3.156
67864W        W31621  16.134   7.830  13.496
67865W        W31622  26.474  27.576  12.348
67866W        W31623   1.792  21.747   1.867
67867W        W31624   1.926  17.142   1.810
67868W        W31625  36.382  12.227  11.893
67869W        W31626   5.723  42.391  12.490
67870W        W31627  16.637  20.153  14.301
67871W        W31628  44.278   4.868  11.500
67872W        W31629  35.558  29.981  12.921
67873W        W31630  36.439  25.606   4.330
67874W        W31631  37.915   0.466   3.226
67875W        W31632  15.629  37.076   1.368
67876W        W31633   1.260  40.030   1.761
67877W        W31634   8.841  30.128   4.830
67878W        W31635   0.979   1.437  13.906
67879W        W31636  18.177   0.907  14.931
67880W        W31637   2.934  16.116   3.761
67881W        W31638   5.387   4.447   1.703
67882W        W31639   3.944  28.579  14.468
67883W        W31640  42.394   9.391  11.611
67884W        W31641  18.555  39.330  11.101
67885W        W31642  23.985  14.292  11.967
67886W        W31643   5.276   9.301   4.268
67887W        W31644   6.391  20.271  14.499
67888W        W31645  37.839  25.090   0.907
67889W        W31646  39.958  28.644   2.320
67890W        W31647  20.043  29.128   2.831
67891W        W31648  36.593  25.000  10.088
67892W        W31649   0.847  41.457  11.913
67893W        W31650  29.990  43.373  11.576
67894W        W31651  30.497  24.700  11.064
67895W        W31652  12.192  10.243   2.773
67896W        W31653  25.106  11.151  14.769
67897W        W31654  37.961  21.085   2.333
67898W        W31655  32.568  20.744  11.425
67899W        W31656  15.271   6.327  10.628
67900W        W31657   7.245  16.634  14.917
67901W        W31658  25.000   5.915   2.773
67902W        W31659  36.906   3.447   3.793
67903W        W31660  44.870  11.733  14.775
67904W        W31661  39.556   4.428  14.430
67905W        W31662   5.871  44.832  12.451
67906W        W31663  44.969  29.072  12.014
67907W        W31664   5.290  15.715   3.822
67908W        W31665  35.028   4.204  12.344
67909W        W31666  23.011  16.618   2.260
67910W        W31667  29.507  12.314   0.399
67911W        W31668  31.526  24.685   3.649
67912W        W31669  31.919  29.970  13.358
67913W        W31670  35.077  44.276  14.991
67914W        W31671  25.524  22.124   1.248
67915W        W31672   6.197  36.904  11.536
67916W        W31673  38.940  12.168   1.265
67917W        W31674  44.814  12.151   3.215
67918W        W31675  16.228  43.870   1.245
67919W        W31676   0.892  21.576  14.811
67920W        W31677   8.324   1.765   0.279
67921W        W31678  41.490  43.473  12.486
67922W        W31679  15.640  36.053  14.030
67923W        W31680  41.459  31.141   1.713
67924W        W31681  18.687  40.983  11.997
67925W        W31682  19.096   7.761  12.885
67926W        W31683   0.944  15.582  14.304
67927W        W31684   1.811  19.157   3.732
67928W        W31685  44.350  14.651  11.006
67929W        W31686  25.962   7.292   3.158
67930W        W31687  35.480  41.951   0.771
67931W        W31688  43.277  19.044  10.607
67932W        W31689   4.715  44.978  14.419
67933W        W31690  37.402   0.309   0.920
67934W        W31691  30.565  10.237  11.087
67935W        W31692  23.601  34.074   5.595
67936W        W31693  34.982  20.567  14.861
67937W        W31694  21.565  11.623   0.803
67938W        W31695   0.299  13.246   4.655
67939W        W31696   2.746  25.089   5.093
67940W        W31697   6.276  12.701   0.763
67941W        W31698   8.714  13.609   2.871
67942W        W31699  35.596  15.326  11.042
67943W        W31700  12.248  14.167  14.855
67944W        W31701  18.642  42.921  12.980
67945W        W31702  18.788   5.319   3.336
67946W        W31703   9.269   0.864   3.265
67947W        W31704   9.661   3.930   3.771
67948W        W31705  31.564  18.281  11.965
67949W        W31706  41.903  10.638  13.461
67950W        W31707  41.504  24.485  11.874
67951W        W31708   3.871  12.845   1.695
67952W        W31709  34.605  32.117   1.929
67953W        W31710   1.441  41.406   2.325
67954W        W31711   6.315   7.689  11.000
67955W        W31712  20.235   1.764   3.840
67956W        W31713   2.783  30.108  13.519
67957W        W31714   7.864  32.398  14.342
67958W        W31715  15.168  23.624  14.419
67959W        W31716  32.039  15.296  13.829
67960W        W31717  29.605  21.078  14.908
67961W        W31718  12.275   8.307   4.758
67962W        W31719  21.578  36.885  10.126
67963W        W31720  40.361  24.154   3.773
67964W        W31721   8.291  23.015   4.253
67965W        W31722  12.707  41.027   3.688
67966W        W31723  42.418  14.147  11.953
67967W        W31724  10.307  32.100  14.397
67968W        W31725  26.596  41.821  12.928
67969W        W31726  44.969  26.630   5.184
67970W        W31727  40.502  28.010   4.716
67971W        W31728  31.403  17.588  14.349
67972W        W31729  37.555  11.795  12.388
67973W        W31730  16.667  42.975  14.820
67974W        W31731  40.036  13.300  12.047
67975W        W31732  34.599  27.159  14.904
67976W        W31733  36.591  12.704  10.080
67977W        W31734   5.709  39.858  11.951
67978W        W31735  37.505  42.908  12.480
67979W        W31736  28.575  41.861   2.400
67980W        W31737  11.798  25.185  10.139
67981W        W31738  22.646  41.840  12.081
67982W        W31739  30.001   0.430   0.934
67983W        W31740  35.003  17.769  11.560
67984W        W31741   5.295  10.294  12.349
67985W        W31742  11.676  14.315   2.399
67986W        W31743  29.147   7.852   1.259
67987W        W31744  37.346  42.501   3.334
67988W        W31745  26.004  33.479   4.720
67989W        W31746   2.320  18.569   0.781
67990W        W31747  32.461  31.983   4.193
67991W        W31748  29.120  13.184  14.004
67992W        W31749  16.130  11.300   3.310
67993W        W31750  29.127  40.484  14.326
67994W        W31751  26.465  31.994  11.531
67995W        W31752  44.373  29.985  10.935
67996W        W31753   7.207  22.605   1.722
67997W        W31754  20.690  20.079  13.533
67998W        W31755  25.688  35.877   0.432
67999W        W31756  31.005  30.908  13.320
68000W        W31757  42.026  42.997  12.428
68001W        W31758  39.443  33.457   0.444
68002W        W31759  34.973   8.307  13.977
68003W        W31760  37.889  14.198   1.752
68004W        W31761   4.376  31.506  11.528
68005W        W31762  27.504  18.552   2.759
68006W        W31763  18.139  10.834   2.339
68007W        W31764  24.524   8.796   4.217
68008W        W31765  28.064  34.897  12.367
68009W        W31766  28.460  40.350  10.565
68010W        W31767  28.969  40.958  14.422
68011W        W31768  14.775  43.426   0.289
68012W        W31769  25.167   3.282   0.432
68013W        W31770   3.403  29.616   1.724
68014W        W31771  30.035  38.979  13.808
68015W        W31772  13.161  24.660   3.358
68016W        W31773  43.793  30.038   3.766
68017W        W31774   4.223  27.068   1.287
68018W        W31775  40.883  23.052  12.897
68019W        W31776  23.502  36.872   4.610
68020W        W31777  33.493  13.657   1.294
68021W        W31778  42.871  34.932  10.994
68022W        W31779  11.138  21.071  12.964
68023W        W31780  39.559  14.202   4.634
68024W        W31781   5.931  39.831   1.279
68025W        W31782   9.675  35.864   0.939
68026W        W31783  31.405   3.376   4.120
68027W        W31784  29.586   4.735   0.292
68028W        W31785  41.820  32.466  14.316
68029W        W31786  33.506  25.493   0.283
68030W        W31787   8.252  28.102  10.613
68031W        W31788  40.959  26.616   2.706
68032W        W31789  15.666  39.509   4.825
68033W        W31790  19.204  38.056  10.889
68034W        W31791  44.854  13.730  14.763
68035W        W31792   0.745  20.585  12.064
68036W        W31793  28.079  24.612   3.702
68037W        W31794  33.043   1.257  11.056
68038W        W31795  44.843  23.176   1.881
68039W        W31796   1.843  25.529  14.285
68040W        W31797  33.884  12.222  11.959
68041W        W31798   4.926  21.521  11.502
68042W        W31799  28.533  23.694  11.969
68043W        W31800  13.153  18.235   1.725
68044W        W31801  44.443  27.992  13.514
68045W        W31802  13.840  19.592  10.912
68046W        W31803  30.046  24.634  12.981
68047W        W31804   8.324  11.164   3.216
68048W        W31805  42.998  40.935  12.030
68049W        W31806   0.418  39.559  12.983
68050W        W31807   0.791  43.454  12.542
68051W        W31808  24.696  37.492  14.959
68052W        W31809  29.112   8.240  13.493
68053W        W31810  30.959   0.493  10.998
68054W        W31811   6.894   7.893   1.336
68055W        W31812   8.697   1.335   0.341
68056W        W31813  21.758  18.120  13.330
68057W        W31814  24.200  17.677  10.478
68058W        W31815  38.513  26.545  11.412
68059W        W31816   7.856  38.382  13.478
68060W        W31817  17.743  22.638   0.433
68061W        W31818   5.738  41.039   1.774
68062W        W31819  36.579  21.215  12.941
68063W        W31820  16.717  19.604  10.641
68064W        W31821  24.057  27.485   2.851
68065W        W31822  12.637  42.932   2.839
68066W        W31823  43.808  38.832  10.546
68067W        W31824   6.408  23.647   0.429
68068W        W31825   8.727  27.679  14.868
68069W        W31826  24.548  22.244   3.796
68070W        W31827  39.065  20.107  13.923
68071W        W31828  12.799   5.340  14.001
68072W        W31829  44.821   1.288  13.428
68073W        W31830  44.502  21.062  11.552
68074W        W31831   6.844  38.997   1.729
68075W        W31832  42.433   9.830  12.535
68076W        W31833  38.418  37.893   3.374
68077W        W31834  12.671  39.458   4.233
68078W        W31835  33.395  14.815   4.277
68079W        W31836  24.492  24.026   2.882
68080W        W31837   6.354  16.613   1.766
68081W        W31838  43.886  12.660   4.230
68082W        W31839  41.360   0.429   0.880
68083W        W31840   9.676  25.090   2.234
68084W        W31841  28.127  23.025   3.258
68085W        W31842  38.544  12.714  12.343
68086W        W31843  42.408  14.198   4.717
68087W        W31844   9.648  31.898   2.288
68088W        W31845  32.506  23.710  11.964
68089W        W31846  19.555  26.494   0.433
68090W        W31847  19.541   6.196  12.968
68091W        W31848   5.702   7.679  13.495
68092W        W31849  42.923  35.385  13.939
68093W        W31850  33.484  12.331   4.822
68094W        W31851  39.523  10.225   4.349
68095W        W31852   0.462  14.691  11.407
68096W        W31853   9.324  21.218   0.851
68097W        W31854  26.075   8.674  11.462
68098W        W31855  17.266   2.357  12.438
68099W        W31856  12.145   3.411   4.239
68100W        W31857  14.826  24.513  13.973
68101W        W31858  20.193   2.734   2.243
68102W        W31859  33.478  31.405  10.950
68103W        W31860   4.352   2.243  12.573
68104W        W31861  32.887  30.530  14.352
68105W        W31862  23.215   0.978  14.496
68106W        W31863   5.908  33.621  13.842
68107W        W31864  40.898  19.081   2.225
68108W        W31865  32.414  39.354  12.858
68109W        W31866  25.481  11.643   1.726
68110W        W31867  37.456  34.570   0.820
68111W        W31868  42.983   2.867  13.474
68112W        W31869  31.569  22.030  13.952
68113W        W31870  40.801  33.572  10.908
68114W        W31871  22.596  28.093  14.477
68115W        W31872  44.901  36.362   0.880
68116W        W31873   1.937  20.158   0.732
68117W        W31874  32.090  43.437  14.012
68118W        W31875  11.727  16.735  14.424
68119W        W31876  43.276  40.926  12.515
68120W        W31877  39.490  39.477   4.143
68121W        W31878  32.904   6.205  14.776
68122W        W31879   8.824  42.025  13.512
68123W        W31880  23.547  44.497   1.725
68124W        W31881  30.529  11.185  10.544
68125W        W31882   4.850  39.379   2.413
68126W        W31883   5.794  32.009   0.449
68127W        W31884  22.129   6.404   2.724
68128W        W31885  17.718   3.861   4.213
68129W        W31886  41.999  10.280  12.041
68130W        W31887  40.522  36.931   4.830
68131W        W31888   9.722  15.668   1.907
68132W        W31889  37.412  37.072   2.816
68133W        W31890  13.234  31.456   1.783
68134W        W31891  13.307  19.243   3.246
68135W        W31892  35.472  41.423   1.264
68136W        W31893  30.644  13.301   2.291
68137W        W31894   0.951   3.366   1.929
68138W        W31895  41.836   1.314  10.429
68139W        W31896  38.373  43.915   3.742
68140W        W31897  22.512  28.112   4.136
68141W        W31898  35.387   9.239   2.836
68142W        W31899  43.857  21.621   4.172
68143W        W31900   9.658  10.249  13.455
68144W        W31901  20.092   6.339   4.266
68145W        W31902  42.975  23.190  13.311
68146W        W31903  33.392   8.368   4.724
68147W        W31904  41.480   3.843   0.268
68148W        W31905   5.713   9.725   0.928
68149W        W31906  28.484  44.476   0.830
68150W        W31907  37.960  14.170  11.872
68151W        W31908   8.737   0.822  12.404
68152W        W31909  25.599  34.870  10.561
68153W        W31910  30.437  35.428  13.381
68154W        W31911  17.768  36.955  10.413
68155W        W31912  17.154   4.226   1.396
68156W        W31913  19.574  34.051   0.911
68157W        W31914   7.239  44.868  12.888
68158W        W31915  23.627  13.217   1.411
68159W        W31916   8.738  32.925   3.740
68160W        W31917  39.929  19.542   4.272
68161W        W31918  37.901  16.159  11.027
68162W        W31919   6.302   3.737  12.511
68163W        W31920   2.758  31.916  14.313
68164W        W31921  13.689   1.954   2.361
68165W        W31922   4.389  19.071   4.706
68166W        W31923  40.438  14.108   3.664
68167W        W31924  38.407  25.680  12.506
68168W        W31925  39.901   8.317   0.905
68169W        W31926  11.299  38.863   2.730
68170W        W31927  21.657  32.563  11.592
68171W        W31928   1.913   6.354   0.455
68172W        W31929  18.110  30.962   4.660
68173W        W31930  14.717  14.146   1.799
68174W        W31931  44.901   5.900  11.088
68175W        W31932  25.625  32.034   0.803
68176W        W31933  33.435  19.598  11.021
68177W        W31934  24.661  42.807  14.825
68178W        W31935  20.553  42.454   2.754
68179W        W31936  13.644  42.400   4.170
68180W        W31937  26.976  22.141  12.345
68181W        W31938  36.855   1.459  13.452
68182W        W31939  23.213  33.588  10.611
68183W        W31940  31.453  29.575  12.981
68184W        W31941  40.972  31.567  10.602
68185W        W31942   4.326  16.744  12.949
68186W        W31943  33.457  21.691  13.339
68187W        W31944  27.579  16.573  14.986
68188W        W31945  29.478  11.837  10.573
68189W        W31946   5.277  13.253  14.908
68190W        W31947  34.932  34.424   0.261
68191W        W31948  31.607  36.056  12.086
68192W        W31949  41.007   1.738   0.393
68193W        W31950  27.486  40.327   2.876
68194W        W31951  40.349  22.689   4.607
68195W        W31952  14.726  36.884  13.464
68196W        W31953  14.187  21.116  13.415
68197W        W31954  35.490  21.154  10.602
68198W        W31955  12.833  37.847  13.349
68199W        W31956  20.221  17.193  10.890
68200W        W31957  30.554  39.405   1.862
68201W        W31958  42.516  16.578   2.234
68202W        W31959  14.609  10.199  12.509
68203W        W31960   0.362  15.580   0.902
68204W        W31961  17.790  43.470   1.437
68205W        W31962  21.657  26.151  10.421
68206W        W31963  36.426  18.758   0.332
68207W        W31964  17.727  25.984   0.946
68208W        W31965  20.731  14.269  14.417
68209W        W31966   2.299  44.470   4.792
68210W        W31967  39.818   2.389  11.072
68211W        W31968  15.294  39.512   3.722
68212W        W31969  33.908   2.440  12.416
68213W        W31970  42.780  10.745  13.934
68214W        W31971  32.921  42.403   1.815
68215W        W31972  25.130  37.447   2.204
68216W        W31973  43.853  20.608   1.722
68217W        W31974  15.796  37.931   4.640
68218W        W31975  44.845   8.196  14.859
68219W        W31976  22.184  21.526   1.734
68220W        W31977  33.897  33.908   2.679
68221W        W31978   5.411  11.204  13.059
68222W        W31979   8.273   0.804  13.394
68223W        W31980  34.057  18.788  11.068
68224W        W31981  41.838   3.827   4.769
68225W        W31982  31.593   0.895   2.736
68226W        W31983  40.923  29.465   3.645
68227W        W31984  34.009  16.085   0.311
68228W        W31985  20.131  14.787  12.570
68229W        W31986  34.428  34.009   1.268
68230W        W31987  14.829  37.883   0.345
68231W        W31988  44.993   0.803   3.162
68232W        W31989  10.234   7.347   1.237
68233W        W31990   4.277  19.063  14.500
68234W        W31991  27.978  21.561  11.607
68235W        W31992  34.938   0.870   1.229
68236W        W31993  23.614   1.863   4.260
68237W        W31994  30.485  24.519  13.802
68238W        W31995  18.584  26.156   4.606
68239W        W31996  16.803  19.647   1.813
68240W        W31997  32.417  25.154   2.822
68241W        W31998  20.216  43.354   1.404
68242W        W31999  41.401  30.014   4.173
68243W        W32000  15.177   1.465   3.788
68244W        W32001  19.074  40.335   0.889
68245W        W32002   1.884  14.153   0.916
68246W        W32003  13.318   7.208   1.416
68247W        W32004  42.482  37.977   3.305
68248W        W32005  24.984  18.103   9.929
68249W        W32006  25.697  20.740  10.932
68250W        W32007  37.965  34.069  12.378
68251W        W32008  38.537  40.410   3.654
68252W        W32009  31.412  30.013   4.311
68253W        W32010  12.193  35.554   1.722
68254W        W32011   0.338  23.587   3.801
68255W        W32012  29.996   0.280   3.642
68256W        W32013   0.828   4.261  12.491
68257W        W32014   4.920  14.675   0.271
68258W        W32015  32.943   0.365  14.318
68259W        W32016   4.854  20.685  11.560
68260W        W32017  41.335  13.116   0.453
68261W        W32018   2.441  12.334  14.369
68262W        W32019  28.959   3.912   3.768
68263W        W32020   6.322  24.177  11.483
68264W        W32021   5.883  24.198   1.709
68265W        W32022  27.030  31.998  13.830
68266W        W32023  43.868  21.039   3.798
68267W        W32024  35.542  18.564   4.767
68268W        W32025  22.546  32.050  13.414
68269W        W32026  10.379   1.792   2.760
68270W        W32027  41.526  29.549   2.362
68271W        W32028  34.428   5.717  11.943
68272W        W32029  22.229  40.802   1.239
68273W        W32030  38.449   7.365  13.794
68274W        W32031  29.921   6.797  10.951
68275W        W32032  43.463  18.551   1.706
68276W        W32033  14.774  31.010  13.334
68277W        W32034  42.359  37.567   0.899
68278W        W32035   0.930  21.730  14.292
68279W        W32036  18.065  17.271   1.337
68280W        W32037  17.103   3.365   4.185
68281W        W32038  26.033  10.340   3.642
68282W        W32039  15.681  18.595   4.232
68283W        W32040  31.919   6.822   4.795
68284W        W32041  20.574  12.701  11.490
68285W        W32042  36.475  18.254  10.930
68286W        W32043  11.648  21.639  10.926
68287W        W32044  29.665   3.404  12.978
68288W        W32045  32.069  21.602  12.344
68289W        W32046   6.740  39.982  14.291
68290W        W32047  18.582  33.458   4.333
68291W        W32048  18.096  26.645   4.828
68292W        W32049   9.775  31.558   1.874
68293W        W32050  28.646   1.945   3.226
68294W        W32051   6.865  35.407   3.802
68295W        W32052  24.509   8.729   3.799
68296W        W32053  27.080   7.318  11.607
68297W        W32054  20.132  29.048  10.926
68298W        W32055  34.872  31.612  13.475
68299W        W32056  31.117   0.977  12.458
68300W        W32057  18.282  44.828   1.929
68301W        W32058  23.567  18.291   3.825
68302W        W32059  25.993  35.074   0.818
68303W        W32060  12.700   6.750   2.379
68304W        W32061  29.150  35.065   1.321
68305W        W32062  31.075  40.802   2.688
68306W        W32063  29.994  31.977  12.544
68307W        W32064  29.465   7.695   1.845
68308W        W32065  12.352  39.509   0.922
68309W        W32066  20.181  22.105   1.228
68310W        W32067  23.609  31.402  10.438
68311W        W32068  38.839  31.544   1.880
68312W        W32069   0.481   6.340   2.777
68313W        W32070  43.274  38.555   0.751
68314W        W32071   1.375  15.153  11.441
68315W        W32072  19.079  29.555  13.025
68316W        W32073  44.373  29.452  10.934
68317W        W32074   5.280  44.855  11.974
68318W        W32075   1.778  14.324  11.517
68319W        W32076  42.010   2.808  11.863
68320W        W32077  42.382  33.131  14.405
68321W        W32078  34.465  19.193   2.816
68322W        W32079  11.246  16.156  10.583
68323W        W32080   9.797  42.433  11.572
68324W        W32081  11.684  26.495  11.412
68325W        W32082  21.073  24.201   5.182
68326W        W32083  39.036   9.761  11.060
68327W        W32084  12.119  23.633  10.552
68328W        W32085  30.119  21.655  13.470
68329W        W32086  14.161   5.434  13.445
68330W        W32087  35.009  16.759   3.677
68331W        W32088  17.608   1.831  13.448
68332W        W32089  30.651  42.337  12.456
68333W        W32090  38.417   5.243   0.782
68334W        W32091  36.009  31.011   0.469
68335W        W32092  38.847   9.806  12.425
68336W        W32093  33.941  44.411   0.929
68337W        W32094  11.749  19.597  13.831
68338W        W32095  24.574  19.631  11.892
68339W        W32096  42.915  21.514   4.285
68340W        W32097   6.240  17.125  11.436
68341W        W32098  26.200  35.547  11.006
68342W        W32099  24.099  44.818   1.791
68343W        W32100  17.720   5.884  12.004
68344W        W32101  39.812  19.080  10.895
68345W        W32102  12.239  21.107   3.285
68346W        W32103  12.245   3.933   3.338
68347W        W32104   3.738  36.419   3.282
68348W        W32105  23.986   6.823  13.924
68349W        W32106   1.286  42.430  12.916
68350W        W32107   1.333  16.265  10.425
68351W        W32108  39.524  38.537  11.587
68352W        W32109  17.644  26.199   0.434
68353W        W32110  31.446  44.828   2.851
68354W        W32111  10.652   6.804   2.808
68355W        W32112   5.292  16.797   1.380
68356W        W32113  35.949  13.821   2.321
68357W        W32114  34.107  34.953   0.459
68358W        W32115  30.596  27.590  11.941
68359W        W32116  31.574  40.481   2.418
68360W        W32117  12.787  18.655   1.278
68361W        W32118  12.196  28.164   2.838
68362W        W32119  34.560   3.305  10.630
68363W        W32120  28.017   7.800   4.698
68364W        W32121  37.981  29.481   2.887
68365W        W32122  13.703  43.999   0.759
68366W        W32123  20.234  10.741  11.877
68367W        W32124  24.027  11.730   2.700
68368W        W32125  39.029  27.100   4.323
68369W        W32126  42.968  23.039  10.493
68370W        W32127  42.514  32.395  11.490
68371W        W32128  22.012  20.526  10.432
68372W        W32129   0.260  15.195   0.262
68373W        W32130  41.830  20.062  13.920
68374W        W32131  28.160  33.619  14.013
68375W        W32132  26.078  43.839   0.844
68376W        W32133   4.237  17.728   0.911
68377W        W32134  23.552  10.684  12.559
68378W        W32135  40.472  21.238  13.409
68379W        W32136  32.090  13.705   0.892
68380W        W32137   2.936   5.397   4.768
68381W        W32138  29.463  20.047  12.087
68382W        W32139  15.709   5.934   3.685
68383W        W32140  42.017  29.574  13.436
68384W        W32141  33.422  31.594   5.188
68385W        W32142  33.476  35.855  10.891
68386W        W32143  23.193  43.467   3.387
68387W        W32144  27.561  15.273   1.779
68388W        W32145  27.460  38.031  10.473
68389W        W32146   3.883  26.626   4.690
68390W        W32147   8.160  19.684   2.205
68391W        W32148  26.154   1.776  11.906
68392W        W32149  37.948  17.133  11.520
68393W        W32150  33.397  42.810   1.286
68394W        W32151   2.903  39.926   0.829
68395W        W32152   1.341  11.148   4.808
68396W        W32153  14.266  33.088   0.933
68397W        W32154  33.025  16.121  13.945
68398W        W32155   6.750  36.054  12.060
68399W        W32156  11.148  19.076  12.073
68400W        W32157  28.516  33.490   2.836
68401W        W32158  26.139   4.770  12.939
68402W        W32159   1.296   4.371   0.362
68403W        W32160  43.769  10.174   1.308
68404W        W32161   3.239  12.178   3.367
68405W        W32162  16.591  34.604   2.211
68406W        W32163   7.784  19.582  10.904
68407W        W32164  37.550  25.023   0.727
68408W        W32165  33.060   5.852  11.048
68409W        W32166  39.324  38.932  12.436
68410W        W32167  36.878  22.606  12.442
68411W        W32168   4.862  16.810   3.361
68412W        W32169   8.267  30.550  13.020
68413W        W32170  32.469  18.548  11.591
68414W        W32171   9.804  35.880   4.653
68415W        W32172   9.298  32.530  13.547
68416W        W32173  39.932  19.178  12.859
68417W        W32174  19.199  20.545  14.296
68418W        W32175   9.385  31.572  10.912
68419W        W32176  34.037  15.112   3.299
68420W        W32177  42.322  37.999   1.804
68421W        W32178  34.044   0.832   2.199
68422W        W32179  32.003   2.353   0.439
68423W        W32180   7.876   3.785  13.979
68424W        W32181  42.468  16.306   3.371
68425W        W32182  24.573  21.656   9.970
68426W        W32183  35.513   3.270  13.520
68427W        W32184  37.344  16.148  12.415
68428W        W32185   1.780  31.958  12.053
68429W        W32186   6.795  39.428  10.925
68430W        W32187  11.802  17.584   1.243
68431W        W32188  33.891   5.346   3.150
68432W        W32189   3.255  28.481   4.644
68433W        W32190   1.358  33.907   2.709
68434W        W32191  36.866  10.251   4.600
68435W        W32192   0.788  16.266  14.449
68436W        W32193  18.065   9.385  14.011
68437W        W32194  39.937   0.312  12.486
68438W        W32195  22.525   3.836  14.297
68439W        W32196  44.336  28.969  11.476
68440W        W32197  36.025  19.249   4.286
68441W        W32198   5.728  33.992  14.295
68442W        W32199  42.850  31.906  11.010
68443W        W32200  11.363   1.282  11.451
68444W        W32201  33.612   4.310   3.789
68445W        W32202  41.455  25.669   2.695
68446W        W32203  30.571  43.938  13.964
68447W        W32204  43.346  32.999   3.823
68448W        W32205  26.595  28.022   5.293
68449W        W32206  21.660  43.893  11.417
68450W        W32207  32.898  17.685   3.205
68451W        W32208  22.137   5.320  10.578
68452W        W32209  14.185   6.679   0.845
68453W        W32210   3.285   9.858   1.915
68454W        W32211  31.504  31.489   4.199
68455W        W32212  39.945  23.014  11.425
68456W        W32213  36.432  25.167   0.847
68457W        W32214   1.732  42.424  13.522
68458W        W32215  41.892  18.283  12.910
68459W        W32216  43.939  12.722   3.276
68460W        W32217  44.360  41.969  14.985
68461W        W32218   5.886   3.878  10.471
68462W        W32219  37.040  16.743   0.837
68463W        W32220  40.534   9.768  12.956
68464W        W32221  28.640  18.181  11.878
68465W        W32222  23.532  15.116   4.120
68466W        W32223   9.206  13.297   1.894
68467W        W32224   5.788  26.129  13.838
68468W        W32225  19.267   9.761  13.447
68469W        W32226  18.787  38.944  12.458
68470W        W32227   0.777  44.471   3.854
68471W        W32228  31.636  13.200  11.019
68472W        W32229  35.487  44.761   2.824
68473W        W32230  34.987  28.185  12.377
68474W        W32231  24.017  29.505   3.345
68475W        W32232  43.797  35.089  11.407
68476W        W32233  15.802  20.079  14.476
68477W        W32234  22.096  25.148   0.355
68478W        W32235  18.650   5.833   2.755
68479W        W32236  21.516  38.046   3.668
68480W        W32237  14.191   5.920  10.908
68481W        W32238  25.206   5.210   3.260
68482W        W32239  36.875  39.863  14.011
68483W        W32240  37.544   3.459  14.297
68484W        W32241  28.005  18.150   3.750
68485W        W32242  13.189  13.807  14.462
68486W        W32243  36.880  17.286  13.832
68487W        W32244  44.330  26.700  13.983
68488W        W32245  27.669  20.544  11.021
68489W        W32246   5.927  15.772   2.705
68490W        W32247   3.946   4.751  10.629
68491W        W32248   3.818  29.042  11.924
68492W        W32249   8.892  42.936   1.425
68493W        W32250   4.703  26.462  13.853
68494W        W32251   1.406   0.798   1.426
68495W        W32252  15.205  15.767   2.315
68496W        W32253   4.764  44.768   3.340
68497W        W32254  33.540  35.080   0.272
68498W        W32255  12.244  16.230   1.449
68499W        W32256  28.441  39.352   2.379
68500W        W32257  31.972  13.200  10.562
68501W        W32258  26.182  15.767  11.540
68502W        W32259  20.229  13.769  11.496
68503W        W32260  29.169  42.936   2.406
68504W        W32261  12.781  26.993   1.305
68505W        W32262  34.101  25.498   3.251
68506W        W32263  25.974  29.121  14.793
68507W        W32264  28.598  44.825   3.381
68508W        W32265  12.118  16.134  10.405
68509W        W32266   5.410  23.066   2.360
68510W        W32267  23.501  38.857   4.628
68511W        W32268  42.916  32.067   1.386
68512W        W32269  39.808  42.902  12.384
68513W        W32270  29.467  11.664   3.799
68514W        W32271   8.308  30.954  13.964
68515W        W32272  19.576  25.630   1.749
68516W        W32273  14.214  31.417  12.892
68517W        W32274  42.926  40.912  14.825
68518W        W32275  37.931  10.661  13.826
68519W        W32276   7.856  37.580  12.465
68520W        W32277  33.954   0.954   4.674
68521W        W32278  16.208  44.836   3.189
68522W        W32279   9.838  17.628  14.966
68523W        W32280   9.675  40.390   0.400
68524W        W32281  17.220  27.608   0.368
68525W        W32282  11.154   4.379   3.158
68526W        W32283  36.015  22.097   0.375
68527W        W32284  26.007  29.457  11.048
68528W        W32285  30.539  35.057   2.776
68529W        W32286   0.292  17.716  12.556
68530W        W32287  38.068  19.593   2.803
68531W        W32288  35.456  12.261  14.805
68532W        W32289  28.967  35.448   4.115
68533W        W32290   0.376   7.763   0.263
68534W        W32291  27.964  15.316   4.669
68535W        W32292   4.296  32.965  14.427
68536W        W32293  41.377  36.581  14.288
68537W        W32294  35.586  42.493   4.348
68538W        W32295  30.986  29.012   0.887
68539W        W32296  31.450  36.468   0.420
68540W        W32297  40.405  43.411  12.446
68541W        W32298  33.980  39.872   3.666
68542W        W32299  21.029  42.826   1.880
68543W        W32300  40.399  33.071  10.569
68544W        W32301  20.055  21.596  13.886
68545W        W32302  14.685   5.709   3.661
68546W        W32303   6.826  23.633   1.242
68547W        W32304  15.795   0.266  11.931
68548W        W32305  36.510  14.637   4.347
68549W        W32306  11.759   7.186  11.990
68550W        W32307  16.675  39.333   4.147
68551W        W32308  23.713  21.191  14.867
68552W        W32309  43.939  42.440   3.840
68553W        W32310  27.040  34.119   1.891
68554W        W32311  44.917  40.874  10.622
68555W        W32312  27.136  37.558   4.195
68556W        W32313  22.059  10.302   1.903
68557W        W32314  33.573  29.168  10.916
68558W        W32315   3.787  17.229  13.479
68559W        W32316  36.960  24.083  11.027
68560W        W32317  38.428  16.134  13.975
68561W        W32318  34.084  44.297   2.275
68562W        W32319  18.061  31.962  14.836
68563W        W32320  37.501  31.498  11.544
68564W        W32321  41.449  21.148   4.779
68565W        W32322  33.976  38.005  11.439
68566W        W32323  10.864  43.394   4.136
68567W        W32324  14.268   4.399   2.296
68568W        W32325  37.397  37.528   2.319
68569W        W32326  13.640  27.526  11.062
68570W        W32327  43.343  20.540   3.186
68571W        W32328   7.846  34.099  14.921
68572W        W32329  41.845   5.198  11.875
68573W        W32330   4.865   4.221   2.407
68574W        W32331  44.896   3.285   4.669
68575W        W32332  26.609  29.919   2.195
68576W        W32333   5.882  23.658  10.584
68577W        W32334  35.443  40.302   4.263
68578W        W32335  24.583   6.415  13.501
68579W        W32336  27.148  34.380   4.129
68580W        W32337   4.449   3.423   3.191
68581W        W32338  15.179  17.222   4.123
68582W        W32339  35.078  18.219  10.432
68583W        W32340   0.441  32.942  12.501
68584W        W32341  36.976  43.274  10.998
68585W        W32342  29.144   0.280  10.945
68586W        W32343   0.821   9.271  13.924
68587W        W32344  28.034  26.203   4.657
68588W        W32345   4.300  16.772   1.892
68589W        W32346   2.450  30.485   0.347
68590W        W32347  30.621  26.174  11.538
68591W        W32348  21.627   5.291  10.914
68592W        W32349  22.655  22.210   4.837
68593W        W32350  30.923  18.091  14.308
68594W        W32351  25.687  37.848   4.751
68595W        W32352   2.762  11.692  14.947
68596W        W32353  44.780   9.247  14.972
68597W        W32354  40.506   1.847  14.925
68598W        W32355  29.550  22.010   4.724
68599W        W32356  32.513  15.210  11.477
68600W        W32357  17.710  39.022   3.211
68601W        W32358  25.055   0.303   1.835
68602W        W32359  41.998   9.709   0.785
68603W        W32360   2.800   1.874  13.444
68604W        W32361  14.828  18.786   2.848
68605W        W32362   4.852  17.692   2.231
68606W        W32363  16.806  18.285  14.397
68607W        W32364   1.776  30.086   3.166
68608W        W32365   6.848   5.357  12.502
68609W        W32366  23.139  36.922  13.849
68610W        W32367  15.241  37.034  12.556
68611W        W32368  31.083  40.923  11.557
68612W        W32369  29.535  15.308   2.376
68613W        W32370   9.872  31.582   3.181
68614W        W32371   0.491  34.868  14.789
68615W        W32372  10.733  34.476   3.349
68616W        W32373  31.461   6.898   4.134
68617W        W32374  19.778  24.996  11.102
68618W        W32375  16.693   3.373   1.762
68619W        W32376  40.873  21.524  13.814
68620W        W32377  29.495  17.203  12.562
68621W        W32378   2.247  22.106   0.440
68622W        W32379   8.294  29.529   0.936
68623W        W32380  26.530   6.708   1.399
68624W        W32381   5.712   3.863  12.420
68625W        W32382  25.203  35.569  11.480
68626W        W32383  35.104   7.744   3.695
68627W        W32384  25.056  26.561   9.984
68628W        W32385  40.305   2.943  13.381
68629W        W32386  12.151  11.739   4.768
68630W        W32387  33.877  23.167  12.839
68631W        W32388   2.385  19.582   0.759
68632W        W32389  25.089   3.295  11.533
68633W        W32390   2.423   4.773  12.029
68634W        W32391  19.239  26.513   3.207
68635W        W32392   5.238   9.833  10.517
68636W        W32393  22.736  12.811   4.242
68637W        W32394  22.650  41.448   3.342
68638W        W32395  11.332   3.878  13.327
68639W        W32396  27.192  42.337  11.074
68640W        W32397  37.085  15.272   1.905
68641W        W32398  32.954  29.920   0.754
68642W        W32399  35.976  33.012  12.570
68643W        W32400  23.612  23.079   2.745
68644W        W32401  38.975  32.468  11.925
68645W        W32402  27.656  12.710  11.072
68646W        W32403   7.678  38.860   2.224
68647W        W32404   7.781  13.317   3.817
68648W        W32405   2.415  44.795  14.364
68649W        W32406   2.821  34.097   0.821
68650W        W32407  39.828  10.166  13.372
68651W        W32408  21.722  23.688   5.136
68652W        W32409  13.106  43.330  10.423
68653W        W32410   3.257  22.558  13.969
68654W        W32411  21.551   3.814   2.777
68655W        W32412  26.514   6.229  10.507
68656W        W32413  18.790   0.915  14.318
68657W        W32414  34.932  14.284  14.832
68658W        W32415  11.822  25.062   1.283
68659W        W32416  23.670  11.331   1.213
68660W        W32417  31.487   1.399   2.241
68661W        W32418  35.927  34.870  10.426
68662W        W32419  38.436   3.259  12.850
68663W        W32420   8.245   8.216  13.839
68664W        W32421   8.687  15.753   3.277
68665W        W32422  30.583  44.923   2.792
68666W        W32423   8.710  39.545  12.887
68667W        W32424  36.445  28.454  10.627
68668W        W32425  16.235  11.255   4.743
68669W        W32426  38.951   4.230   5.097
68670W        W32427  10.673  44.905  13.364
68671W        W32428  12.295  12.847  14.879
68672W        W32429  43.828  25.645   3.192
68673W        W32430  36.881  25.643  11.472
68674W        W32431  38.371   8.767  14.312
68675W        W32432   5.888  36.453  11.999
68676W        W32433  31.982  22.123  11.030
68677W        W32434  13.207   0.851   0.459
68678W        W32435  15.224  41.352   0.828
68679W        W32436  25.173  43.958  13.449
68680W        W32437  17.160  16.652   4.654
68681W        W32438  18.560  10.199  11.571
68682W        W32439  39.054  33.601  14.415
68683W        W32440   3.370  32.522  10.502
68684W        W32441   6.355  29.941   0.426
68685W        W32442   0.494   8.385  13.806
68686W        W32443  17.086  32.560  10.435
68687W        W32444  42.982  17.761   2.399
68688W        W32445  17.601   2.380   0.851
68689W        W32446  16.220  15.604  14.929
68690W        W32447  30.656  21.157   1.881
68691W        W32448  24.612  42.427   1.800
68692W        W32449  13.212  28.591  13.927
68693W        W32450  19.720  23.148  14.290
68694W        W32451  18.574  43.781   0.826
68695W        W32452  25.149   6.721   0.280
68696W        W32453  42.020  36.553  14.492
68697W        W32454  38.948  38.485  13.389
68698W        W32455  26.567  26.510  13.981
68699W        W32456  18.673  26.666  13.986
68700W        W32457   3.793   7.727   0.792
68701W        W32458  37.850  40.921   1.735
68702W        W32459  25.084  23.115  14.353
68703W        W32460   0.434  29.995  10.536
68704W        W32461   8.733   6.824   4.129
68705W        W32462  20.056   1.427   4.271
68706W        W32463  35.601  30.926  10.556
68707W        W32464   0.417   2.262   3.650
68708W        W32465  44.323  23.723  14.501
68709W        W32466  17.695  17.143  11.492
68710W        W32467  32.577  15.221  11.103
68711W        W32468   7.761  11.817   2.745
68712W        W32469  20.225  22.622  14.485
68713W        W32470  22.659  32.079  11.477
68714W        W32471   1.402  39.424  11.084
68715W        W32472   1.885   3.289  11.580
68716W        W32473  26.658  41.038   1.833
68717W        W32474  36.875  35.449   3.283
68718W        W32475  31.918  17.123  13.423
68719W        W32476  26.974  17.656   3.729
68720W        W32477  42.450   3.834   3.764
68721W        W32478  11.861  12.721  10.472
68722W        W32479  43.801  11.192   1.888
68723W        W32480   6.206  16.106  10.965
68724W        W32481  16.703  16.139  13.320
68725W        W32482  17.738  16.737   3.363
68726W        W32483   8.400  15.091   3.858
68727W        W32484  22.639  24.612  10.572
68728W        W32485  30.956  23.991  10.559
68729W        W32486  16.804  13.260   0.942
68730W        W32487   6.346  43.468  11.447
68731W        W32488  31.465  19.053   2.258
68732W        W32489   9.683  18.591  13.389
68733W        W32490  26.654  44.379   5.154
68734W        W32491   6.724  21.021   1.325
68735W        W32492  16.623  11.752  11.991
68736W        W32493  28.056  20.272  13.321
68737W        W32494  37.847  25.506  13.378
68738W        W32495   9.743   7.820  14.312
68739W        W32496  16.611   7.369  13.378
68740W        W32497  40.502  24.693   4.747
68741W        W32498  14.772   4.261   1.806
68742W        W32499  30.482  40.478   3.380
68743W        W32500  21.528  13.769  12.518
68744W        W32501  21.147  29.668  13.496
68745W        W32502   1.843  36.384   4.195
68746W        W32503  37.984  35.506  11.123
68747W        W32504  32.928  27.467  11.487
68748W        W32505  23.526   2.734  11.034
68749W        W32506  29.110  37.389  13.529
68750W        W32507   7.296  29.119   3.373
68751W        W32508   0.893  40.521   2.353
68752W        W32509   9.320  42.335  14.849
68753W        W32510  11.166  25.483   1.380
68754W        W32511  26.694  12.734   3.782
68755W        W32512  35.540   8.797  12.347
68756W        W32513  23.120  36.392  12.091
68757W        W32514   4.883  37.950  13.971
68758W        W32515   5.876  13.693   3.644
68759W        W32516   3.752  14.642   0.264
68760W        W32517  43.930  23.695   1.296
68761W        W32518  36.383   1.287   0.302
68762W        W32519  34.982  16.578  11.587
68763W        W32520  24.039   4.734   4.673
68764W        W32521   9.254  33.009  11.068
68765W        W32522   2.830  28.637   2.836
68766W        W32523  27.507  40.368   1.790
68767W        W32524   1.864  20.198   3.777
68768W        W32525   4.352  22.565   3.268
68769W        W32526   7.802  22.193  13.441
68770W        W32527  10.716  22.073  10.543
68771W        W32528  26.163  14.174  12.905
68772W        W32529  22.055  29.658  12.404
68773W        W32530  14.760  42.442  13.369
68774W        W32531  16.179  33.126   4.811
68775W        W32532   9.666  10.865  10.410
68776W        W32533  15.229  14.795   4.791
68777W        W32534  18.070  41.982  13.367
68778W        W32535   0.830   4.232  13.448
68779W        W32536   6.384  44.910   4.284
68780W        W32537  27.620  15.281   2.239
68781W        W32538  41.503  25.090   0.915
68782W        W32539   1.472  15.728   0.248
68783W        W32540  41.366   3.748   4.665
68784W        W32541  12.640   7.718   1.770
68785W        W32542   5.901  13.837   1.782
68786W        W32543   8.723  27.021  14.988
68787W        W32544  24.686  42.520  12.006
68788W        W32545  41.402  20.160   4.237
68789W        W32546  42.923  30.014  14.943
68790W        W32547  44.002   9.876  12.041
68791W        W32548  22.599  40.524   0.435
68792W        W32549  17.681  22.016   1.859
68793W        W32550  28.076  14.148   3.823
68794W        W32551   4.285  13.273   1.332
68795W        W32552  15.302  39.997  14.441
68796W        W32553   7.251  38.961   5.216
68797W        W32554   0.451   4.917  11.006
68798W        W32555  10.314  24.990   0.904
68799W        W32556  37.835  43.844   4.666
68800W        W32557  34.397   2.720   3.824
68801W        W32558  37.987   5.840  14.460
68802W        W32559  23.069  13.657   2.389
68803W        W32560  15.805  24.562   1.426
68804W        W32561   7.253   9.346  14.027
68805W        W32562  23.629  10.284   1.407
68806W        W32563  13.602  12.126  10.515
68807W        W32564  14.689  20.675   0.336
68808W        W32565  44.438  32.551   3.840
68809W        W32566   2.798  11.844   1.747
68810W        W32567  15.751   2.339  13.441
68811W        W32568   7.877  14.747   5.591
68812W        W32569  37.935  20.083  13.509
68813W        W32570   2.430  24.075   1.880
68814W        W32571  27.183   2.884   1.332
68815W        W32572  24.481  13.749  14.994
68816W        W32573   7.180  19.091   3.282
68817W        W32574  22.189  44.444   4.804
68818W        W32575  38.837  22.511   4.264
68819W        W32576   9.717  19.577   2.770
68820W        W32577  13.845  40.345  14.315
68821W        W32578  30.489  41.932  14.805
68822W        W32579  35.102   4.801   2.788
68823W        W32580  27.608   0.392   0.247
68824W        W32581  24.601   9.890  14.863
68825W        W32582  27.683  40.493   3.274
68826W        W32583   9.813  29.567  12.354
68827W        W32584  43.772   1.742   4.213
68828W        W32585  26.056  44.870   2.800
68829W        W32586  23.586  22.512  12.956
68830W        W32587  44.259   5.842  12.443
68831W        W32588   8.237  35.488  11.891
68832W        W32589  42.402  43.000  10.971
68833W        W32590  16.765  27.563   3.860
68834W        W32591  17.122  40.964   0.291
68835W        W32592  23.091   6.386  11.928
68836W        W32593  10.335  10.720   0.306
68837W        W32594  18.276  19.603  13.830
68838W        W32595  31.938   4.805   3.867
68839W        W32596  31.484  42.308  14.918
68840W        W32597  20.249   9.209   3.777
68841W        W32598  12.136   1.462   1.397
68842W        W32599  27.952   1.772  10.512
68843W        W32600  22.540  35.369  13.951
68844W        W32601  26.681  17.639  10.914
68845W        W32602  33.127  29.119  12.882
68846W        W32603  28.648  17.685  10.106
68847W        W32604  25.023   6.319  10.594
68848W        W32605   3.833  22.638  14.799
68849W        W32606  38.046  36.368  10.566
68850W        W32607  21.138  22.615  12.440
68851W        W32608  11.289  37.448  14.845
68852W        W32609   9.165  27.473   1.756
68853W        W32610  28.102  28.586  10.106
68854W        W32611  30.063  26.584   1.415
68855W        W32612  27.193  12.266  13.317
68856W        W32613  35.105   1.793  11.980
68857W        W32614  41.312  18.158  14.300
68858W        W32615  10.310  41.869  11.013
68859W        W32616   7.320  17.599  12.389
68860W        W32617  32.439  26.033   1.826
68861W        W32618  25.546  26.046  11.433
68862W        W32619  39.005  33.103  11.002
68863W        W32620  13.127  17.262  12.893
68864W        W32621   4.422  35.006  12.081
68865W        W32622  30.647   9.295  12.573
68866W        W32623  15.632  42.488   2.776
68867W        W32624  19.688  44.504  11.509
68868W        W32625  37.369   0.414   0.341
68869W        W32626   9.262  40.459   4.311
68870W        W32627   6.394  22.181  13.879
68871W        W32628  24.184  17.224  14.956
68872W        W32629  36.990  18.605  12.864
68873W        W32630   9.692   7.855  11.513
68874W        W32631   7.676  12.266   0.939
68875W        W32632   5.870  36.917  11.566
68876W        W32633  30.056  22.526  10.900
68877W        W32634   6.719  38.908  14.409
68878W        W32635   8.663  38.991  12.875
68879W        W32636  32.600  38.863  14.842
68880W        W32637   9.218  40.895  11.981
68881W        W32638  28.015  16.665  13.443
68882W        W32639  35.402  12.678   2.726
68883W        W32640   1.826  16.637   1.343
68884W        W32641  43.001  22.651  11.994
68885W        W32642   1.961  24.218  11.068
68886W        W32643  25.608  11.230   3.709
68887W        W32644  11.311  16.269   9.978
68888W        W32645  27.635  20.544   4.788
68889W        W32646  34.386  35.554   1.376
68890W        W32647  35.483  28.591   4.196
68891W        W32648  21.224  27.462  10.978
68892W        W32649  11.248   6.242  12.483
68893W        W32650  21.262  41.825   1.451
68894W        W32651  19.757   9.727   1.883
68895W        W32652   6.698  19.604   2.333
68896W        W32653  13.661  27.062  12.558
68897W        W32654  10.659  32.920   4.699
68898W        W32655   4.830  33.508   3.664
68899W        W32656  21.585   6.299   1.406
68900W        W32657  10.304  29.639  12.567
68901W        W32658   1.742  40.423  13.031
68902W        W32659   3.317  37.545   4.712
68903W        W32660  35.056  44.987   4.686
68904W        W32661  20.188  31.573  10.582
68905W        W32662  10.204   7.911  11.064
68906W        W32663  23.607  31.497   3.821
68907W        W32664  16.613  24.076  12.392
68908W        W32665  26.071  43.925   1.790
68909W        W32666  20.245  23.611   5.162
68910W        W32667  39.358  23.731  10.435
68911W        W32668  10.175   0.358   4.338
68912W        W32669  36.446  23.673  13.887
68913W        W32670   5.252   4.762  10.901
68914W        W32671  19.066  14.134  10.988
68915W        W32672  25.671  12.638   0.353
68916W        W32673  43.785  16.581  12.029
68917W        W32674  42.334   7.256  11.599
68918W        W32675  28.621  37.038  14.381
68919W        W32676  27.552  26.985   3.738
68920W        W32677  43.304  31.475  10.462
68921W        W32678  37.363  29.625  13.346
68922W        W32679  37.506  43.349  14.808
68923W        W32680  21.064  25.984   4.737
68924W        W32681   5.275  16.620   2.344
68925W        W32682  43.311  37.385   4.200
68926W        W32683  11.734   6.386   4.191
68927W        W32684  34.394  31.538  11.404
68928W        W32685   7.749  16.724  10.997
68929W        W32686   8.744  19.665   2.787
68930W        W32687  22.200  24.230  11.568
68931W        W32688  40.494  38.414  10.549
68932W        W32689  17.274   0.780   2.664
68933W        W32690  19.563   2.310  13.006
68934W        W32691  20.210  23.984   0.887
68935W        W32692  20.672  30.938  11.469
68936W        W32693   2.338  16.205   4.290
68937W        W32694  29.044   1.963  10.971
68938W        W32695   0.834  16.742   2.348
68939W        W32696  42.286  24.663  14.483
68940W        W32697  23.618  27.647   1.818
68941W        W32698  10.312  34.981   2.726
68942W        W32699  36.017  25.592  10.635
68943W        W32700  24.169   7.375  10.573
68944W        W32701  19.197  30.003  12.547
68945W        W32702  32.993  18.669   0.733
68946W        W32703   6.884  23.118  14.839
68947W        W32704   7.239   4.278  12.054
68948W        W32705  19.566  31.985   1.258
68949W        W32706  27.459  16.682   2.804
68950W        W32707  23.510   9.811  11.505
68951W        W32708  22.656   8.182  10.515
68952W        W32709  17.767  10.227   3.354
68953W        W32710   7.288   4.209   4.667
68954W        W32711  15.816  36.358  11.431
68955W        W32712   8.886  27.569   2.348
68956W        W32713  17.269   4.807   2.322
68957W        W32714   3.374   2.961  13.933
68958W        W32715  43.804   3.721  12.853
68959W        W32716  23.517  10.252   0.909
68960W        W32717   0.306  27.535  11.047
68961W        W32718  11.129   0.889   5.227
68962W        W32719  39.430  28.510   4.823
68963W        W32720  18.054  35.044  13.889
68964W        W32721   8.244  23.547  14.899
68965W        W32722  41.426  16.666  10.903
68966W        W32723  19.552  30.421   2.668
68967W        W32724  42.846  41.426   4.300
68968W        W32725  18.591  14.797  12.401
68969W        W32726  28.104   9.883  10.031
68970W        W32727  18.577  27.630   4.701
68971W        W32728  44.765  18.103  11.880
68972W        W32729  23.704  31.568  12.400
68973W        W32730  43.302   4.925   3.239
68974W        W32731  32.038  40.049  14.824
68975W        W32732  17.099  17.156   0.829
68976W        W32733   8.247  34.905   1.763
68977W        W32734  31.642  40.904  11.931
68978W        W32735  10.878  17.778  10.097
68979W        W32736   4.324  11.285   0.914
68980W        W32737  16.774   1.752  14.311
68981W        W32738  22.722  31.534   2.830
68982W        W32739  13.274  35.523   4.290
68983W        W32740  40.345  28.658  11.452
68984W        W32741  42.339   1.297   0.336
68985W        W32742  34.406   4.287   4.625
68986W        W32743  23.229  38.050  14.408
68987W        W32744  14.827   6.699   2.719
68988W        W32745  42.917   7.893   5.087
68989W        W32746  22.724  29.162   4.629
68990W        W32747  36.546  17.634   2.258
68991W        W32748   4.943  30.612   4.216
68992W        W32749  40.898  41.911   0.897
68993W        W32750  24.616   5.716   3.861
68994W        W32751  13.764  38.844  14.500
68995W        W32752  23.711  19.206  11.920
68996W        W32753   8.184  44.803  14.796
68997W        W32754  38.470  25.508  14.791
68998W        W32755  31.070  38.844   2.877
68999W        W32756  12.706  12.834   3.162
69000W        W32757  12.200   4.347   3.657
69001W        W32758  27.510  15.104   4.253
69002W        W32759   1.803  36.528   2.277
69003W        W32760  18.118  17.074   2.831
69004W        W32761   0.416  10.184   4.652
69005W        W32762  17.585  21.095  11.071
69006W        W32763  28.942  20.066  14.840
69007W        W32764  27.529   7.187  12.409
69008W        W32765  22.662  15.324   2.347
69009W        W32766  14.616  23.639   3.783
69010W        W32767   4.420  36.014   2.286
69011W        W32768  32.517  19.535   1.813
69012W        W32769  27.553  27.459   1.368
69013W        W32770   2.346  34.560  10.121
69014W        W32771  18.184   6.914  10.508
69015W        W32772  16.178  35.906  13.495
69016W        W32773  30.617  40.395  14.858
69017W        W32774  38.358  33.874   0.787
69018W        W32775  23.535  38.348   4.281
69019W        W32776  43.927  33.007  10.636
69020W        W32777  16.281   0.954  11.073
69021W        W32778  31.960  38.387  13.402
69022W        W32779  27.180  10.843  11.092
69023W        W32780  43.951  13.164  12.029
69024W        W32781  17.620  24.159  13.011
69025W        W32782   3.926   9.736  14.436
69026W        W32783  10.659  36.456  13.361
69027W        W32784  31.602  11.201   1.235
69028W        W32785  18.152   7.772  10.945
69029W        W32786  41.523  26.063   3.253
69030W        W32787  13.198  22.632  11.975
69031W        W32788  32.938  19.091   3.670
69032W        W32789  40.541  17.579  10.558
69033W        W32790   5.312   6.378  13.997
69034W        W32791  25.135  38.966  14.874
69035W        W32792  11.303  30.103  12.951
69036W        W32793  15.689  43.435  13.469
69037W        W32794  43.800  39.883  12.936
69038W        W32795   4.238  16.610   2.853
69039W        W32796  23.688   6.825   2.179
69040W        W32797  44.408  24.159   1.369
69041W        W32798  23.587   2.848   0.385
69042W        W32799  37.029  15.586  10.159
69043W        W32800   7.404  27.961  13.946
69044W        W32801   6.742  10.687   1.813
69045W        W32802   3.416  34.111  14.976
69046W        W32803  10.224  15.226   0.327
69047W        W32804  11.840   5.354   1.840
69048W        W32805  30.536   6.229   2.811
69049W        W32806  32.043  39.950  13.509
69050W        W32807  26.598  33.582  11.521
69051W        W32808   7.366  13.251  14.824
69052W        W32809   8.848  42.495   3.276
69053W        W32810   6.896  26.986   4.729
69054W        W32811  38.343   4.814   1.749
69055W        W32812  24.540   7.748  14.805
69056W        W32813  11.812  38.567  14.781
69057W        W32814  43.394  11.644  12.032
69058W        W32815  40.969  35.057  14.420
69059W        W32816  16.585  26.012  13.444
69060W        W32817  38.509  23.179  11.036
69061W        W32818  18.681  39.871   3.206
69062W        W32819  40.494   3.829  10.108
69063W        W32820   8.193  42.780  11.867
69064W        W32821   3.384  10.716  12.077
69065W        W32822   1.925   1.738   0.259
69066W        W32823   3.722  14.825   3.708
69067W        W32824  14.175  11.759   4.782
69068W        W32825  38.929   2.439  14.464
69069W        W32826   3.734  29.597  10.446
69070W        W32827  16.655  19.659   4.334
69071W        W32828  41.925  19.178  14.284
69072W        W32829  28.626  16.571  10.139
69073W        W32830  15.106  40.502   3.705
69074W        W32831   1.789  44.487   4.786
69075W        W32832  18.212  32.121  11.459
69076W        W32833  26.653  27.114  12.416
69077W        W32834  24.062  26.602   2.190
69078W        W32835  10.670  27.971  11.457
69079W        W32836  34.969  39.475  12.901
69080W        W32837  13.262  42.298  14.398
69081W        W32838  24.106   2.235  14.793
69082W        W32839   4.846  35.955  12.395
69083W        W32840  11.816  21.062   2.410
69084W        W32841   0.971  26.591  13.374
69085W        W32842  26.993  14.203   5.273
69086W        W32843  18.607   5.732  12.562
69087W        W32844  41.024  40.028   0.904
69088W        W32845   7.751   4.933   0.306
69089W        W32846  10.729  34.440   2.375
69090W        W32847  15.181  34.905  10.438
69091W        W32848  28.510  28.932   0.866
69092W        W32849  34.026  13.332  14.959
69093W        W32850  17.168   6.328   1.902
69094W        W32851   3.947  39.013  11.903
69095W        W32852  20.547   3.797   2.755
69096W        W32853   0.464  22.182   4.225
69097W        W32854  17.196  38.915  13.858
69098W        W32855  33.476  30.572   3.644
69099W        W32856   1.943  36.443   0.276
69100W        W32857  19.261   0.320   4.782
69101W        W32858  27.507  28.038   3.824
69102W        W32859  30.539  19.047   4.678
69103W        W32860  10.864   4.757  13.491
69104W        W32861   6.406  16.609   3.384
69105W        W32862   7.374   5.696   2.678
69106W        W32863  41.480  16.239  14.301
69107W        W32864  34.381  17.669   3.198
69108W        W32865   3.874   3.259   4.672
69109W        W32866  40.998  16.700   3.835
69110W        W32867  11.236  41.401   3.772
69111W        W32868  22.238  25.006  11.022
69112W        W32869  33.547  32.068   0.768
69113W        W32870   2.436  30.076   4.718
69114W        W32871  24.598  43.313   4.352
69115W        W32872  44.347  31.039   4.602
69116W        W32873  40.824  21.744   4.763
69117W        W32874  15.184  38.040  14.024
69118W        W32875  42.914  28.971   0.336
69119W        W32876  19.676  41.535  10.407
69120W        W32877  25.656  35.536   0.728
69121W        W32878  28.929   0.270   2.795
69122W        W32879  15.632  11.258  11.973
69123W        W32880  32.905   1.400  13.971
69124W        W32881  36.947   0.853  11.111
69125W        W32882  34.477  14.318  13.816
69126W        W32883   7.233  13.731  14.386
69127W        W32884  16.571  32.610   2.802
69128W        W32885  23.129  42.475   4.752
69129W        W32886   2.758   3.894   4.343
69130W        W32887   7.855  23.148  11.120
69131W        W32888  30.946  43.443  14.765
69132W        W32889  36.496   4.888  14.421
69133W        W32890  28.623   6.187  11.403
69134W        W32891  44.465  14.730  12.028
69135W        W32892  35.021  16.317   1.781
69136W        W32893  38.469  17.170  10.930
69137W        W32894  35.386  14.624  10.943
69138W        W32895  30.988   4.700   5.651
69139W        W32896  32.512  25.056  13.883
69140W        W32897  33.575  31.490   1.776
69141W        W32898   1.339  23.010  10.946
69142W        W32899  31.438  42.920  14.921
69143W        W32900   3.402   6.209   3.754
69144W        W32901  15.133  43.423  13.418
69145W        W32902  33.031  34.881  11.526
69146W        W32903  15.783  11.339   3.154
69147W        W32904  30.001  26.150  14.337
69148W        W32905  29.494  11.308   2.242
69149W        W32906   9.795  38.533   3.742
69150W        W32907  29.084  41.409  12.870
69151W        W32908  20.623   1.407   0.322
69152W        W32909   4.936   0.281  14.901
69153W        W32910  13.236   7.296   2.188
69154W        W32911  14.683  43.462   2.891
69155W        W32912  11.255   8.742   0.805
69156W        W32913  16.654  40.909   2.244
69157W        W32914  25.000   7.796   1.718
69158W        W32915   5.874  18.184  13.517
69159W        W32916  13.795  24.577  13.444
69160W        W32917  34.064  14.816  10.993
69161W        W32918  33.099  20.530  14.475
69162W        W32919  12.810  39.821  12.481
69163W        W32920  27.101  33.874  14.886
69164W        W32921   9.220  43.986   1.855
69165W        W32922  11.316  44.857  10.998
69166W        W32923  35.891  16.612   3.294
69167W        W32924  24.063  39.022  13.032
69168W        W32925  35.021  43.509  14.915
69169W        W32926  34.898  20.738  13.834
69170W        W32927  41.025  41.412   4.742
69171W        W32928  32.058  40.380   1.281
69172W        W32929  26.505  30.575   2.888
69173W        W32930  26.457   1.414   4.675
69174W        W32931  15.672  33.971  12.827
69175W        W32932   6.792  36.931   4.315
69176W        W32933  19.747   4.246  10.416
69177W        W32934  24.674  14.279  13.331
69178W        W32935  34.438  18.242   4.677
69179W        W32936  40.823  22.220   1.364
69180W        W32937  12.258  28.017  14.893
69181W        W32938  37.495  33.932   0.794
69182W        W32939  33.462   5.439   1.442
69183W        W32940  17.720  30.055   1.310
69184W        W32941  44.816   6.922  14.801
69185W        W32942   2.896  18.297   4.202
69186W        W32943  30.909  16.279   2.791
69187W        W32944  21.212  29.574   1.363
69188W        W32945  17.142  22.561  11.951
69189W        W32946  15.631  19.047  10.913
69190W        W32947  39.336   7.895  13.514
69191W        W32948   6.771  24.087  10.950
69192W        W32949  27.680  30.589  11.427
69193W        W32950   4.404  24.710  12.373
69194W        W32951   3.294  35.860   9.994
69195W        W32952  15.769  29.984   1.729
69196W        W32953  43.980  21.108  11.429
69197W        W32954   9.230  21.134   2.237
69198W        W32955  25.059  44.909  12.547
69199W        W32956  36.563  23.634  13.467
69200W        W32957  41.471   9.662  13.024
69201W        W32958  12.117  20.523  12.030
69202W        W32959  44.935  35.028   2.760
69203W        W32960   3.886  40.002   0.879
69204W        W32961  42.420  25.582  12.039
69205W        W32962  42.329   7.853   3.829
69206W        W32963   4.277   4.737   0.754
69207W        W32964   2.911  11.851   4.685
69208W        W32965  11.231  10.311   0.742
69209W        W32966  21.263  14.104  10.132
69210W        W32967  16.624   4.779  13.547
69211W        W32968  11.850  34.470  14.801
69212W        W32969  27.073   6.718   3.316
69213W        W32970  34.010  44.345  13.989
69214W        W32971  36.513  31.083   3.666
69215W        W32972  18.217  19.654  11.487
69216W        W32973  28.993   9.246  11.029
69217W        W32974  21.098  26.487  11.973
69218W        W32975  12.824  28.487   1.739
69219W        W32976  20.638  12.814  12.866
69220W        W32977  43.279  35.519  14.923
69221W        W32978  29.999  15.284   1.220
69222W        W32979  42.946  17.634   4.349
69223W        W32980  13.786   0.471   0.317
69224W        W32981  36.507  12.828   5.212
69225W        W32982  42.515   8.755   0.820
69226W        W32983  24.158  26.195   2.187
69227W        W32984  36.523  39.455  12.876
69228W        W32985  11.828  40.380  13.379
69229W        W32986  14.775   2.886  13.911
69230W        W32987  23.608  27.188  14.790
69231W        W32988  29.463   6.879   2.351
69232W        W32989  17.253  12.290  14.470
69233W        W32990  16.152  33.998   0.474
69234W        W32991  41.900  20.120  11.499
69235W        W32992  22.672   3.443  10.999
69236W        W32993  27.996  12.353   3.707
69237W        W32994   4.292  10.748  10.445
69238W        W32995  12.629  17.260   1.413
69239W        W32996  10.856  31.448  14.761
69240W        W32997  25.044  27.062   2.367
69241W        W32998  30.044   3.801   2.690
69242W        W32999   8.187  18.692  14.482
69243W        W33000  23.047  14.292   0.791
69244W        W33001  31.606  28.590  12.481
69245W        W33002   5.822  44.983  13.480
69246W        W33003  24.648  38.475  13.385
69247W        W33004  23.082  29.154  11.525
69248W        W33005  34.474   9.274  14.849
69249W        W33006  44.501  29.930  11.489
69250W        W33007   1.322  34.907   2.858
69251W        W33008  11.244  16.617  10.517
69252W        W33009  43.989  23.619  12.045
69253W        W33010  26.107  39.838   0.848
69254W        W33011  34.420  28.945   1.915
69255W        W33012  17.699   3.382   0.801
69256W        W33013  37.882  13.666   1.869
69257W        W33014   4.878  13.333  14.029
69258W        W33015  20.137  36.464   3.277
69259W        W33016  23.702  19.282   1.271
69260W        W33017  13.106  15.607   4.639
69261W        W33018  11.230  30.929  10.428
69262W        W33019  39.041  33.887   0.354
69263W        W33020  42.967   5.804   4.649
69264W        W33021  42.026  34.874   0.771
69265W        W33022  38.527   4.737  12.896
69266W        W33023   7.337  29.995   4.706
69267W        W33024  34.097   0.774  13.915
69268W        W33025  27.006  43.345  14.845
69269W        W33026  24.162  38.970  12.074
69270W        W33027   2.230   1.891  12.481
69271W        W33028   3.222  23.642   2.411
69272W        W33029  42.329  31.427  12.954
69273W        W33030   0.427  19.198  11.072
69274W        W33031  31.134  19.136  12.030
69275W        W33032  39.481  22.148   4.345
69276W        W33033  10.746  24.181   4.704
69277W        W33034  30.460  37.886  13.543
69278W        W33035   3.424   7.808   4.319
69279W        W33036  30.987  35.889   1.904
69280W        W33037  44.812   5.745  14.852
69281W        W33038  17.288  22.617   0.754
69282W        W33039  17.073  22.612   4.142
69283W        W33040  18.694  26.699  10.003
69284W        W33041  20.633  15.303   9.519
69285W        W33042  30.590  24.068   2.399
69286W        W33043  18.682  32.542  11.011
69287W        W33044  28.964  38.539   0.740
69288W        W33045  39.910  37.931  12.384
69289W        W33046  25.587  26.489  11.056
69290W        W33047  43.836  20.619   0.319
69291W        W33048  11.345  25.984  11.042
69292W        W33049  44.983   2.423   2.856
69293W        W33050  25.567  13.769   2.680
69294W        W33051  10.204  25.207  12.485
69295W        W33052  22.079  11.160   4.753
69296W        W33053  24.227   8.875   5.208
69297W        W33054  21.195  26.981  13.417
69298W        W33055  28.160  14.728   1.805
69299W        W33056  23.031  27.111   3.341
69300W        W33057   6.753  34.881   2.816
69301W        W33058  19.770  38.833   1.813
69302W        W33059  43.498  37.838  13.820
69303W        W33060  14.736  37.427  14.836
69304W        W33061   4.846  12.161   1.782
69305W        W33062  35.104  14.610   3.228
69306W        W33063   1.858  16.763   0.823
69307W        W33064  23.627  29.968  14.497
69308W        W33065   3.393  18.640  11.986
69309W        W33066  20.725  14.633   1.919
69310W        W33067  16.693  36.400  11.071
69311W        W33068  43.509  26.613   0.805
69312W        W33069  21.086  33.583   5.747
69313W        W33070  10.225  37.992  11.980
69314W        W33071   2.965   4.809   4.706
69315W        W33072  18.056  23.009   2.333
69316W        W33073  30.534  36.358  14.333
69317W        W33074   9.807   8.176   3.212
69318W        W33075   8.343  27.127  11.541
69319W        W33076   8.821   1.265  13.517
69320W        W33077  27.499  43.973  14.326
69321W        W33078   2.260   4.238   1.260
69322W        W33079  19.147  27.496   1.741
69323W        W33080  40.436   1.859   3.245
69324W        W33081   8.732  39.388   3.349
69325W        W33082  34.573  20.223   2.368
69326W        W33083  40.901  31.630   4.327
69327W        W33084  10.836   9.821   0.834
69328W        W33085  14.645  24.028  14.496
69329W        W33086  25.663   3.749   1.801
69330W        W33087   3.946   5.897   4.619
69331W        W33088  30.444  14.148  13.824
69332W        W33089   7.808  36.374  13.908
69333W        W33090  22.039  35.031   1.807
69334W        W33091  36.973  34.411   4.204
69335W        W33092   6.877  34.582   4.207
69336W        W33093   4.300  30.027  10.449
69337W        W33094  42.371  30.075  13.887
69338W        W33095  42.358   1.781   1.445
69339W        W33096  35.579  43.777  14.953
69340W        W33097  11.721   9.736   4.622
69341W        W33098   6.867  27.966  13.411
69342W        W33099  20.084  31.057   2.738
69343W        W33100  41.461  22.050  10.615
69344W        W33101  35.461  37.455   2.263
69345W        W33102  27.194   3.807  13.018
69346W        W33103  25.186   9.203   1.430
69347W        W33104  34.896  36.462   1.422
69348W        W33105   8.269  16.146  13.431
69349W        W33106   9.758  21.596  12.580
69350W        W33107  25.991   2.889  13.867
69351W        W33108  16.665  32.630  11.985
69352W        W33109  22.621  27.100   2.747
69353W        W33110  32.951  29.966  14.468
69354W        W33111  41.345  30.549  13.395
69355W        W33112  15.242  27.022   4.684
69356W        W33113  26.650   8.819   4.174
69357W        W33114  30.989  18.684   1.442
69358W        W33115   7.832   7.279  10.097
69359W        W33116   0.357  29.605  11.416
69360W        W33117   1.783  23.203   4.682
69361W        W33118  27.599  44.321  11.455
69362W        W33119  23.681  16.792   0.822
69363W        W33120  16.796   6.220  11.598
69364W        W33121   5.893   5.831  14.817
69365W        W33122   7.803  10.290  12.899
69366W        W33123   8.307  44.461  10.439
69367W        W33124  21.692   0.386  14.370
69368W        W33125  23.990   2.289   0.790
69369W        W33126  27.685  24.600   4.300
69370W        W33127   0.276  10.149   3.266
69371W        W33128  43.961  26.489   2.788
69372W        W33129  31.552  37.946  13.461
69373W        W33130   1.824  42.955   3.369
69374W        W33131  19.118  10.209   0.426
69375W        W33132  40.353   0.866   1.265
69376W        W33133   1.263  19.177  10.415
69377W        W33134  43.959  38.911   3.336
69378W        W33135  16.748  12.826  14.890
69379W        W33136  44.502   3.833   0.255
69380W        W33137   2.417  19.142   0.731
69381W        W33138  20.104   7.667   3.696
69382W        W33139   3.748  43.830  10.999
69383W        W33140  11.276  21.017  11.978
69384W        W33141  22.049  15.194  12.045
69385W        W33142  37.475  44.402   1.804
69386W        W33143  38.069  35.980  14.514
69387W        W33144   3.218   0.888  12.889
69388W        W33145  21.732   5.763  11.980
69389W        W33146   4.787  22.223   1.822
69390W        W33147  21.718  18.073  11.574
69391W        W33148  39.867   1.401   2.808
69392W        W33149  38.407  43.820   1.851
69393W        W33150  38.952  24.052   0.282
69394W        W33151   8.848  19.238   1.821
69395W        W33152  18.289  34.566   0.773
69396W        W33153  26.587  22.696   4.128
69397W        W33154  41.988  32.930  13.806
69398W        W33155  43.506   7.897   4.121
69399W        W33156   5.397  33.400  11.978
69400W        W33157  31.462  21.196   2.680
69401W        W33158  20.157  37.944  14.448
69402W        W33159  19.105  20.684  13.843
69403W        W33160  22.567  17.644   3.284
69404W        W33161  31.618   6.287   0.760
69405W        W33162  12.340  43.491  10.442
69406W        W33163  40.499  21.569  11.011
69407W        W33164   5.870  25.124  13.910
69408W        W33165  42.499   5.712  11.574
69409W        W33166   7.769  13.131   1.242
69410W        W33167   4.326  29.425  13.903
69411W        W33168  24.013  15.209   3.846
69412W        W33169  27.555   0.846   4.213
69413W        W33170  39.873  42.000  14.842
69414W        W33171   0.976  10.373   3.279
69415W        W33172  42.952  13.713   0.903
69416W        W33173  11.626  33.036  10.479
69417W        W33174  35.976  14.761   0.887
69418W        W33175  36.873  37.527   4.625
69419W        W33176  40.418   0.405   1.845
69420W        W33177  41.425  17.573   4.298
69421W        W33178   3.759   8.357  10.955
69422W        W33179  41.897  41.523   3.661
69423W        W33180  31.497  32.984   0.788
69424W        W33181  25.581  37.411   5.192
69425W        W33182  18.272   3.780   1.361
69426W        W33183  19.606  33.533   2.419
69427W        W33184  20.085  42.503   3.179
69428W        W33185  18.752  16.588  12.546
69429W        W33186  26.532  33.115  10.947
69430W        W33187   7.375  23.064   0.465
69431W        W33188  23.994   9.856  10.424
69432W        W33189  40.018  20.597   1.810
69433W        W33190  18.154  33.418   3.337
69434W        W33191  20.584  42.883  13.952
69435W        W33192  29.608  44.371  11.020
69436W        W33193  39.975   9.366  11.877
69437W        W33194   3.956   5.308   0.903
69438W        W33195  11.288  34.501   3.221
69439W        W33196  10.654  28.971   1.848
69440W        W33197  38.839  44.007  11.872
69441W        W33198  33.421  11.835  14.019
69442W        W33199  15.092  21.193   4.256
69443W        W33200  17.234  36.471  12.904
69444W        W33201  25.555   5.211   0.469
69445W        W33202   5.899  42.350   2.318
69446W        W33203  37.469   3.859   3.244
69447W        W33204  25.497   2.276  13.375
69448W        W33205  44.930   5.695   1.900
69449W        W33206  32.481  32.000   3.809
69450W        W33207   7.805  13.129   4.739
69451W        W33208  37.377  13.712  11.093
69452W        W33209  31.520  39.059   4.836
69453W        W33210  10.775   1.947  10.994
69454W        W33211   0.276  21.515  13.944
69455W        W33212  44.296  29.621  12.487
69456W        W33213  35.588   6.266   1.236
69457W        W33214   1.476  43.778   3.219
69458W        W33215  41.348  18.696  11.425
69459W        W33216  42.778  32.553  11.465
69460W        W33217  22.570  12.752  14.971
69461W        W33218   1.965  10.250  13.014
69462W        W33219  10.266  36.555  14.428
69463W        W33220  19.081  33.060   3.315
69464W        W33221   7.843  19.187  11.426
69465W        W33222   3.726   6.353  14.907
69466W        W33223   6.829  11.301   1.892
69467W        W33224   2.830  26.488   3.650
69468W        W33225   8.199   0.913   1.841
69469W        W33226  36.464  29.503   9.971
69470W        W33227  22.146  33.592  12.849
69471W        W33228  19.561  40.459  13.466
69472W        W33229  10.174   3.732  10.461
69473W        W33230  21.242  35.921   2.311
69474W        W33231  37.522   6.776   3.192
69475W        W33232  37.985  19.226  14.429
69476W        W33233  34.589  37.848   0.922
69477W        W33234  35.538  24.073   3.363
69478W        W33235  20.203  23.051  14.314
69479W        W33236  18.184  23.610  10.923
69480W        W33237  32.629  40.824   3.696
69481W        W33238  21.116  11.779   4.234
69482W        W33239  20.161  13.632   2.352
69483W        W33240   2.790   1.424   1.250
69484W        W33241  33.473  23.132  14.467
69485W        W33242  32.919  42.360   4.611
69486W        W33243  37.916  20.648  13.453
69487W        W33244  13.804  38.484   4.692
69488W        W33245  38.845  24.104  10.565
69489W        W33246   7.848  36.534   2.194
69490W        W33247   6.367  13.615   4.634
69491W        W33248  39.343  24.638  11.489
69492W        W33249   7.183  39.058  13.941
69493W        W33250  36.359  31.648   3.706
69494W        W33251  37.011  14.197   1.834
69495W        W33252  34.061  25.688  14.495
69496W        W33253   7.219  41.986   0.766
69497W        W33254  16.253  30.971   1.352
69498W        W33255  36.018  20.206  11.868
69499W        W33256  21.183  44.953  12.005
69500W        W33257  24.526  21.131   2.670
69501W        W33258  40.001  31.485  11.859
69502W        W33259  38.375   3.895   0.935
69503W        W33260  18.733   5.210  11.448
69504W        W33261  35.105  10.674  13.861
69505W        W33262  35.458  40.433   4.764
69506W        W33263  24.219  14.306   3.672
69507W        W33264  16.163   5.871  12.094
69508W        W33265  12.742   2.287  13.821
69509W        W33266  34.060  43.980  11.587
69510W        W33267  38.874  23.012   2.684
69511W        W33268   0.874   1.873   1.911
69512W        W33269   1.953  35.072  12.988
69513W        W33270  31.536  34.953   0.761
69514W        W33271  17.561  11.207   9.941
69515W        W33272   1.320  11.663  14.503
69516W        W33273   8.289  38.409  12.852
69517W        W33274  43.931  24.489  11.421
69518W        W33275   5.712  10.865   3.268
69519W        W33276  34.998   9.222   1.724
69520W        W33277  19.241  36.375  11.413
69521W        W33278   2.259  28.175   0.311
69522W        W33279  13.270  14.601   1.714
69523W        W33280  43.965   6.385   3.696
69524W        W33281  10.173   2.461  12.570
69525W        W33282   6.258  19.134   3.745
69526W        W33283  15.674  18.090  14.789
69527W        W33284  19.752   8.728   4.618
69528W        W33285  23.720   7.876   0.820
69529W        W33286  12.155  39.996  12.036
69530W        W33287  41.452  41.935   0.876
69531W        W33288   0.494  22.084  10.536
69532W        W33289  31.082  24.092  12.026
69533W        W33290  36.548  22.543   0.458
69534W        W33291  31.939   6.236  10.448
69535W        W33292  15.325  10.792   1.334
69536W        W33293  36.940  21.162   0.791
69537W        W33294  35.362  28.123  13.841
69538W        W33295  17.733  30.018  11.595
69539W        W33296  10.839  17.795   3.790
69540W        W33297  16.209  31.608  11.955
69541W        W33298  31.552  33.039  14.333
69542W        W33299  44.406  38.950   2.212
69543W        W33300  27.616  14.683   1.431
69544W        W33301  27.060  22.245   2.331
69545W        W33302  16.694  44.002   2.841
69546W        W33303  16.802  40.317  14.450
69547W        W33304  10.317  36.546  14.908
69548W        W33305  42.514   1.453   3.773
69549W        W33306  37.428   2.911   2.244
69550W        W33307  13.305  10.376   1.375
69551W        W33308  42.468  21.110  13.020
69552W        W33309  17.784   6.747  12.997
69553W        W33310   2.752  36.509  12.057
69554W        W33311  15.264  39.453   0.830
69555W        W33312  42.507  26.683   1.763
69556W        W33313  14.717  39.488  14.387
69557W        W33314  36.096  23.998   0.904
69558W        W33315  22.060   4.908   2.252
69559W        W33316  40.828   1.760  12.094
69560W        W33317  28.044   1.436   3.211
69561W        W33318  10.142   3.346   1.214
69562W        W33319  28.437  20.677  13.468
69563W        W33320  28.575  16.745   3.212
69564W        W33321  40.862  27.056   3.157
69565W        W33322  14.202  44.843   3.828
69566W        W33323  20.269  15.213  10.584
69567W        W33324  37.063  10.338   3.724
69568W        W33325  26.177  35.880   1.754
69569W        W33326  23.591  29.156   4.666
69570W        W33327  41.357   0.325  14.316
69571W        W33328  10.857   1.270  14.387
69572W        W33329  39.434  39.993   0.460
69573W        W33330  13.343  14.775   0.317
69574W        W33331  44.946  31.618  14.940
69575W        W33332  29.643   4.900  11.414
69576W        W33333  15.226  18.245  13.918
69577W        W33334  19.270  34.547  12.394
69578W        W33335  41.317  28.044   2.663
69579W        W33336  41.840  26.057   0.428
69580W        W33337  40.327  36.581  11.108
69581W        W33338   7.299  14.680   0.836
69582W        W33339   5.364  36.449  14.936
69583W        W33340  13.726   9.838   3.294
69584W        W33341  10.796  14.628  12.982
69585W        W33342  11.731   4.761   5.111
69586W        W33343  36.021  25.027   3.660
69587W        W33344  38.984  38.983   0.738
69588W        W33345  18.622  16.567   4.154
69589W        W33346  30.624  38.546  13.499
69590W        W33347  37.008  22.106   4.773
69591W        W33348  39.534  28.096   0.767
69592W        W33349  12.777  38.060   4.141
69593W        W33350   2.828  27.637   1.850
69594W        W33351  34.016  30.046  11.912
69595W        W33352  42.878  20.149   2.665
69596W        W33353  24.521  21.724   2.836
69597W        W33354   0.491   7.390  12.049
69598W        W33355   0.953  23.504  11.117
69599W        W33356   5.771  17.170  13.891
69600W        W33357  44.001  20.189  11.607
69601W        W33358  40.392  11.810  11.555
69602W        W33359  18.200  35.891   2.734
69603W        W33360  22.672  32.950  10.028
69604W        W33361  26.096   1.481  14.505
69605W        W33362  18.269  12.695  11.114
69606W        W33363  35.057  35.421  11.525
69607W        W33364   4.227  28.635  12.033
69608W        W33365  25.686  17.159   4.796
69609W        W33366  20.557   6.900   0.882
69610W        W33367  29.107  30.518   1.861
69611W        W33368  34.889  37.909  10.518
69612W        W33369  41.036  28.461   3.723
69613W        W33370  42.435  25.046   4.318
69614W        W33371  38.027   3.289  12.506
69615W        W33372   7.226  11.693   0.281
69616W        W33373  24.570   1.954   2.243
69617W        W33374   9.675   5.843  14.849
69618W        W33375  23.191   2.832  11.118
69619W        W33376  14.208  19.769  10.975
69620W        W33377  28.930  14.317   0.794
69621W        W33378   4.902  40.983   4.153
69622W        W33379   3.270  41.955   0.267
69623W        W33380  10.861  35.055  14.929
69624W        W33381   2.421  36.843  14.286
69625W        W33382  13.739  30.914   2.366
69626W        W33383  29.150  35.430  14.834
69627W        W33384  14.597   9.818   0.736
69628W        W33385  20.766   6.184  10.538
69629W        W33386  10.679  22.540  12.015
69630W        W33387  34.050  39.961  14.492
69631W        W33388  26.540  28.160  10.500
69632W        W33389  35.054  34.013  12.397
69633W        W33390  20.713  41.486  13.374
69634W        W33391   0.793  15.772   5.167
69635W        W33392   6.230   8.705   4.195
69636W        W33393  16.722  28.008  10.454
69637W        W33394  42.450  43.968  11.973
69638W        W33395  32.040  30.643   1.388
69639W        W33396  29.978  32.538  14.901
69640W        W33397   5.928  30.924  14.407
69641W        W33398  22.241  24.560   3.797
69642W        W33399  24.589  37.846  10.972
69643W        W33400   1.302  13.337  14.466
69644W        W33401  15.751  21.737  11.947
69645W        W33402   7.863  24.665   2.687
69646W        W33403  17.203  43.298   3.733
69647W        W33404  34.538  43.930   0.323
69648W        W33405  10.874   5.849  14.811
69649W        W33406  35.014  24.585  13.321
69650W        W33407  28.474  41.836   0.281
69651W        W33408  13.622   2.465   1.827
69652W        W33409   8.690  11.202   4.261
69653W        W33410  29.448  35.486   2.253
69654W        W33411  17.735  12.288   1.699
69655W        W33412  44.504  19.184  11.386
69656W        W33413  24.710   2.912  13.312
69657W        W33414  30.001  28.931   2.882
69658W        W33415  28.464  18.101  10.070
69659W        W33416  21.037   0.870  11.492
69660W        W33417  18.215  33.612  12.435
69661W        W33418   6.248   3.461  11.860
69662W        W33419  20.229  12.817   1.402
69663W        W33420   3.782  23.999  13.928
69664W        W33421  39.422  25.067  13.948
69665W        W33422  30.104  35.957  11.470
69666W        W33423  16.716   5.438  13.359
69667W        W33424   6.855  17.770  14.013
69668W        W33425  35.055  36.879  12.053
69669W        W33426  20.040  29.560  11.963
69670W        W33427  24.715  29.932   0.856
69671W        W33428  40.532   2.297  10.903
69672W        W33429  30.909  15.732  14.500
69673W        W33430  15.697  20.223  12.013
69674W        W33431  21.145  21.147   3.180
69675W        W33432  44.948  32.629  11.046
69676W        W33433  32.566  12.707  14.855
69677W        W33434  25.964  12.748   1.322
69678W        W33435   9.197  24.661  14.282
69679W        W33436  15.797  26.457  13.053
69680W        W33437  19.062  38.949  13.492
69681W        W33438  12.670  23.027  12.451
69682W        W33439  13.760  35.550   3.250
69683W        W33440  27.121  36.947   1.450
69684W        W33441  34.887  15.608   4.232
69685W        W33442  16.644  39.878  14.948
69686W        W33443  22.121  19.678  12.389
69687W        W33444  44.377  27.666  13.377
69688W        W33445   0.864  24.633  12.550
69689W        W33446   0.845  12.839   4.304
69690W        W33447   6.263   4.416   1.393
69691W        W33448   2.793  43.780   1.828
69692W        W33449  23.102  44.769  13.996
69693W        W33450  37.414  15.693  12.998
69694W        W33451  31.425  29.948   9.500
69695W        W33452  33.407  44.384  12.387
69696W        W33453  22.538  36.520  14.319
69697W        W33454   3.368  15.260  14.990
69698W        W33455  42.997   1.444   0.374
69699W        W33456  10.786   9.190  10.512
69700W        W33457  22.108  23.518  11.985
69701W        W33458   2.368  33.899  11.947
69702W        W33459   2.419   9.359  10.530
69703W        W33460   6.714  15.328   0.835
69704W        W33461   8.845  44.913   3.212
69705W        W33462   5.920  11.317   0.739
69706W        W33463  32.602  12.290  14.805
69707W        W33464   4.916  21.716   1.931
69708W        W33465  34.925  15.807   2.398
69709W        W33466   7.804  11.702   1.353
69710W        W33467  35.974  41.353  13.825
69711W        W33468  18.653  38.527   4.622
69712W        W33469  31.557  36.585   4.674
69713W        W33470  16.121   8.288  13.384
69714W        W33471  37.918  26.083   0.272
69715W        W33472  16.799   5.371   1.759
69716W        W33473  17.253  17.274   2.785
69717W        W33474  34.878  27.004  11.593
69718W        W33475  30.490  30.627   3.372
69719W        W33476  37.902  32.004  12.969
69720W        W33477  34.877  35.936  12.462
69721W        W33478  42.484   6.773  10.456
69722W        W33479  27.084  12.789  10.643
69723W        W33480  23.654  26.560   2.751
69724W        W33481  43.941  32.087  11.501
69725W        W33482   4.287   2.334  11.529
69726W        W33483  34.407  23.097   2.828
69727W        W33484  33.412   4.901   4.825
69728W        W33485  39.479  10.744   4.703
69729W        W33486  10.253  32.529  14.786
69730W        W33487  32.911  29.457  11.092
69731W        W33488   7.907   4.392  13.998
69732W        W33489  44.359  34.606  12.941
69733W        W33490   9.395  40.303   1.281
69734W        W33491   3.805  11.368   2.339
69735W        W33492  19.065  11.333  11.439
69736W        W33493  24.007  10.711  14.839
69737W        W33494  21.082  11.788   1.365
69738W        W33495  22.249  11.637   3.385
69739W        W33496   5.786  38.948   3.643
69740W        W33497   6.204  18.736   4.716
69741W        W33498   8.195  22.614  14.917
69742W        W33499  21.184   3.865  14.347
69743W        W33500  42.442  41.370  13.362
69744W        W33501  29.475  13.603   4.180
69745W        W33502  17.758  22.607  10.486
69746W        W33503  21.594  22.589  13.861
69747W        W33504   8.384  26.973  12.380
69748W        W33505   1.348   0.798   4.205
69749W        W33506  26.568  18.779   1.889
69750W        W33507   2.297  21.066   4.120
69751W        W33508  24.032  19.228   1.246
69752W        W33509  31.914  30.117   4.151
69753W        W33510  20.695  23.698  10.410
69754W        W33511  38.036  27.554   2.717
69755W        W33512  37.839   8.862   2.846
69756W        W33513  37.038  32.120  11.861
69757W        W33514   8.805  24.646   2.713
69758W        W33515  34.507  16.593   1.273
69759W        W33516  38.424  18.234  13.526
69760W        W33517   8.242  11.669  10.989
69761W        W33518  24.542  25.050   4.134
69762W        W33519  40.427  40.965   4.640
69763W        W33520  11.298  35.980  11.893
69764W        W33521   1.352  24.096   1.372
69765W        W33522  26.038  38.819   1.856
69766W        W33523  42.418  30.133  10.484
69767W        W33524  30.028  20.166  12.079
69768W        W33525  37.499  21.046   1.331
69769W        W33526  22.584   0.352  11.433
69770W        W33527   9.672  22.133  14.776
69771W        W33528  10.234  29.530  14.317
69772W        W33529  10.331  17.739   1.702
69773W        W33530  32.577  35.015  13.465
69774W        W33531  29.493  16.174  14.889
69775W        W33532  16.226   6.388  14.285
69776W        W33533  21.601  15.787   3.663
69777W        W33534  41.394  41.461  12.345
69778W        W33535  39.047  44.454  14.298
69779W        W33536   1.910  21.227   2.809
69780W        W33537  28.533  42.875  14.360
69781W        W33538  28.556  31.140  11.885
69782W        W33539  36.848  43.901  11.406
69783W        W33540  11.667  39.814  13.315
69784W        W33541  35.360  42.816  11.053
69785W        W33542  23.659   9.247  12.406
69786W        W33543  21.652  34.429   2.873
69787W        W33544  34.544  34.008  13.338
69788W        W33545  11.238  32.067  13.457
69789W        W33546   8.687  18.695   0.755
69790W        W33547   7.236  44.499   4.221
69791W        W33548  22.151  14.094   4.735
69792W        W33549  18.600  34.989  12.046
69793W        W33550  15.114  30.002   2.715
69794W        W33551  12.790  24.206   3.634
69795W        W33552  40.879  42.933  10.419
69796W        W33553  14.677  44.383  14.309
69797W        W33554  37.386  22.551  11.072
69798W        W33555  35.598   1.443  10.012
69799W        W33556   3.756  44.884  10.969
69800W        W33557  19.724  35.050  12.373
69801W        W33558  12.301  30.121  13.837
69802W        W33559   2.321   0.922  13.350
69803W        W33560  24.631  39.437   2.843
69804W        W33561  26.648  11.175   1.338
69805W        W33562  39.548   2.453   2.307
69806W        W33563  13.822  28.046  14.511
69807W        W33564  44.852  30.489  14.864
69808W        W33565  28.661   7.850   0.964
69809W        W33566  17.289  32.107   4.747
69810W        W33567  34.501  37.492   3.833
69811W        W33568  44.774  42.806  14.500
69812W        W33569  30.956  25.211  10.145
69813W        W33570   9.308  39.360   3.294
69814W        W33571  29.949  28.552  10.411
69815W        W33572  14.190  35.986  12.527
69816W        W33573  24.629  15.791  12.849
69817W        W33574  29.663  30.159  14.417
69818W        W33575  18.615  40.038   9.962
69819W        W33576   1.838  41.392   0.736
69820W        W33577  30.052  19.201  11.942
69821W        W33578   7.762  32.010   4.728
69822W        W33579  25.583  29.542  14.507
69823W        W33580  35.894  26.023  12.019
69824W        W33581   4.448  13.801   1.306
69825W        W33582  23.531  11.335   0.872
69826W        W33583  42.007   4.899  10.043
69827W        W33584  24.067   7.254  12.491
69828W        W33585  25.582  32.104  11.541
69829W        W33586  42.515  30.603  10.494
69830W        W33587  11.130  12.764   1.327
69831W        W33588  13.118  41.859  12.421
69832W        W33589  15.757  40.376  13.814
69833W        W33590  24.087   4.909   3.836
69834W        W33591  43.906  15.640  10.590
69835W        W33592   0.784  37.006   0.765
69836W        W33593  21.521  25.156   0.776
69837W        W33594  31.115  16.687  11.025
69838W        W33595   7.779  21.588   3.767
69839W        W33596   7.847  40.837   0.476
69840W        W33597  29.500  29.660   3.145
69841W        W33598  35.910  36.387   4.355
69842W        W33599   8.165  20.043   4.610
69843W        W33600   5.931  17.572  10.003
69844W        W33601  22.643  29.123  12.528
69845W        W33602  38.361  29.010   4.830
69846W        W33603  38.433  32.494   1.749
69847W        W33604  20.738  43.321  14.793
69848W        W33605  21.697   6.418  11.387
69849W        W33606  11.168  21.737   4.708
69850W        W33607   4.365  35.980   0.910
69851W        W33608  43.994   3.282   3.166
69852W        W33609   7.333  20.112  10.430
69853W        W33610  20.644  29.587  10.430
69854W        W33611  43.866  29.998   1.815
69855W        W33612  25.477  19.669  13.845
69856W        W33613  22.201   8.724  11.124
69857W        W33614  38.830   1.903   2.239
69858W        W33615  24.093  39.962   1.231
69859W        W33616  16.300  43.853   0.297
69860W        W33617  35.083  15.303  13.827
69861W        W33618  31.904  25.534  13.009
69862W        W33619  12.783  11.640   1.872
69863W        W33620   8.290  28.631   2.685
69864W        W33621  39.451  36.422   2.886
69865W        W33622  27.093  35.447   4.272
69866W        W33623  16.231  30.931   0.861
69867W        W33624  29.944  34.104   1.357
69868W        W33625  17.585  37.857   3.710
69869W        W33626   8.692   7.220   4.796
69870W        W33627   5.859  16.195  12.049
69871W        W33628   8.724  35.048  10.631
69872W        W33629  31.037  18.601  12.373
69873W        W33630   5.833  38.853  11.007
69874W        W33631  12.710  21.154  12.969
69875W        W33632  15.139  15.271  12.890
69876W        W33633  22.517  40.876  10.965
69877W        W33634  22.236  20.689   0.384
69878W        W33635   6.767  29.154  14.032
69879W        W33636  27.112  17.069  11.991
69880W        W33637  20.652   6.262  13.888
69881W        W33638  41.787  12.833  10.468
69882W        W33639  43.316  39.458  14.014
69883W        W33640  26.109  24.630  10.898
69884W        W33641  30.561  14.831   9.603
69885W        W33642  30.058  31.533   3.769
69886W        W33643   0.876  27.161   4.279
69887W        W33644  37.032   7.699  11.906
69888W        W33645  16.633  19.210  10.980
69889W        W33646   4.384  17.269   2.400
69890W        W33647  11.713   1.237   3.286
69891W        W33648  42.786   7.358  11.569
69892W        W33649   6.187  22.687  12.460
69893W        W33650  37.971   1.314   3.778
69894W        W33651   4.356  44.366  12.076
69895W        W33652   6.266  16.780   2.800
69896W        W33653  18.710   1.750  10.451
69897W        W33654  32.489   3.399   2.789
69898W        W33655  43.493  32.621  12.481
69899W        W33656   5.725   1.314   1.240
69900W        W33657   9.832  17.092  12.484
69901W        W33658  35.902  39.043  14.833
69902W        W33659  37.580  41.020   0.737
69903W        W33660  22.652  14.628   4.701
69904W        W33661  26.111  22.057   2.741
69905W        W33662  16.713   2.934  11.058
69906W        W33663   4.224   5.389  11.920
69907W        W33664  10.847  29.567  13.382
69908W        W33665  20.673  40.007   0.250
69909W        W33666  28.146  14.297  14.822
69910W        W33667  39.912  32.438   2.692
69911W        W33668  34.892  21.719  13.022
69912W        W33669  16.236   0.344  14.760
69913W        W33670  17.224  37.552  14.007
69914W        W33671   8.243  43.278   0.742
69915W        W33672  21.590  15.308  13.911
69916W        W33673  13.273  43.327   1.748
69917W        W33674  32.482   9.383  14.369
69918W        W33675  11.311   7.752   1.225
69919W        W33676   5.425   1.731   0.926
69920W        W33677  10.349   8.280  13.021
69921W        W33678  38.494  26.082   1.449
69922W        W33679  37.920  13.124  12.549
69923W        W33680   9.827  26.574  14.311
69924W        W33681   7.808  14.725   0.339
69925W        W33682  17.130   2.418  10.608
69926W        W33683   3.404  39.970  12.863
69927W        W33684  29.531   4.767   3.246
69928W        W33685  39.836   5.218   1.816
69929W        W33686  25.631  36.044   4.728
69930W        W33687  25.138  17.096  10.889
69931W        W33688  18.790  10.854   0.267
69932W        W33689  43.400   8.203  12.093
69933W        W33690  22.114  32.005   2.791
69934W        W33691  28.656  36.444  12.516
69935W        W33692  19.765  37.488  10.606
69936W        W33693   7.219  40.406   4.189
69937W        W33694  23.573  38.418   3.664
69938W        W33695  42.444  26.148  13.478
69939W        W33696   4.415   9.334  12.994
69940W        W33697  24.666  15.698   1.770
69941W        W33698  32.083  35.421  10.955
69942W        W33699  16.236  20.651  11.074
69943W        W33700  39.996   4.788  13.314
69944W        W33701  42.472  42.351  14.433
69945W        W33702  40.329   4.922   1.372
69946W        W33703   6.319   9.174   3.177
69947W        W33704  17.558   9.856   0.804
69948W        W33705   2.872  10.314  14.295
69949W        W33706  44.459   8.717   2.351
69950W        W33707  34.609  23.605   0.331
69951W        W33708  19.560  23.056  11.600
69952W        W33709   0.384  22.544  11.993
69953W        W33710  17.094  35.090   4.305
69954W        W33711   0.811  17.099   3.374
69955W        W33712   3.877  35.967  11.995
69956W        W33713  15.303  12.271  13.439
69957W        W33714  13.680  10.752   0.372
69958W        W33715   5.690  26.055  12.087
69959W        W33716   7.778  16.303   1.824
69960W        W33717  25.009   0.293  10.571
69961W        W33718  43.859  27.172   3.633
69962W        W33719  33.026  25.122  11.090
69963W        W33720  31.561  16.642  11.861
69964W        W33721  34.922  42.304   1.713
69965W        W33722  43.773  38.475   0.882
69966W        W33723  32.443  41.903  12.486
69967W        W33724  17.265  38.477   1.295
69968W        W33725  11.229  41.426  10.449
69969W        W33726   5.811  32.453  10.605
69970W        W33727  42.974  16.643  10.026
69971W        W33728   0.438  12.179   2.231
69972W        W33729  28.661  40.486   2.367
69973W        W33730  44.916  14.744   3.713
69974W        W33731  21.684  43.498   2.871
69975W        W33732  16.174  42.894   2.207
69976W        W33733  29.495  21.173   1.843
69977W        W33734  17.128  30.478  12.365
69978W        W33735  22.736  39.912   1.332
69979W        W33736  26.149  32.626  14.295
69980W        W33737   8.213  43.795   0.482
69981W        W33738  17.170  16.091   4.246
69982W        W33739   7.281  20.241   4.345
69983W        W33740  38.474   9.749  12.445
69984W        W33741  41.808  22.100  14.384
69985W        W33742  19.254   3.270  11.389
69986W        W33743  31.031  25.970  14.789
69987W        W33744   2.755  36.550  14.303
69988W        W33745  31.465  15.823  12.027
69989W        W33746  34.521   0.972  12.491
69990W        W33747  23.067  34.426  11.907
69991W        W33748   6.742  39.976  13.949
69992W        W33749  23.234   1.400  13.489
69993W        W33750  14.279  27.682  14.320
69994W        W33751  20.754  41.817   2.304
69995W        W33752  19.580   6.850  13.485
69996W        W33753  30.024  16.195  14.862
69997W        W33754  31.487   1.479   3.717
69998W        W33755  12.326   5.719  11.477
69999W        W33756  31.576  35.578  10.549
70000W        W33757  14.236  43.439  10.448
70001W        W33758  36.994  26.690  10.478
70002W        W33759  12.788  37.360  12.563
70003W        W33760   4.756  33.980  12.383
70004W        W33761   7.405  43.281   2.365
70005W        W33762  35.069  36.025   1.866
70006W        W33763  19.067  39.496   4.147
70007W        W33764  18.549  20.624   3.847
70008W        W33765  14.131  13.623  14.820
70009W        W33766  24.199  37.560   4.597
70010W        W33767   9.775  15.216  11.403
70011W        W33768  12.175  26.137   4.676
70012W        W33769  19.101  24.507  13.473
70013W        W33770  23.176  34.418   1.405
70014W        W33771  28.177  36.958  13.987
70015W        W33772  16.197   2.809   3.831
70016W        W33773  40.972  36.372   1.854
70017W        W33774  14.759  32.526  10.961
70018W        W33775  36.457   7.319  12.901
70019W        W33776  13.297  42.858   2.760
70020W        W33777  20.158  15.236  12.833
70021W        W33778  10.196  27.968   0.386
70022W        W33779   8.866  33.092   4.628
70023W        W33780  37.341  37.571  13.870
70024W        W33781  12.788   5.797  13.015
70025W        W33782   8.289   9.206  11.900
70026W        W33783  40.843  39.989   2.379
70027W        W33784  24.102  24.607  12.416
70028W        W33785  23.037  25.647   1.361
70029W        W33786   5.832  21.134  10.476
70030W        W33787  21.718  14.726  13.859
70031W        W33788  39.974  16.223  12.965
70032W        W33789  30.436  43.338   1.430
70033W        W33790  43.410   5.429  14.498
70034W        W33791   4.702   7.193   9.983
70035W        W33792  17.301  11.623  10.548
70036W        W33793  21.046   1.915   4.770
70037W        W33794  13.699  22.522   2.384
70038W        W33795  11.786  22.599   2.350
70039W        W33796  20.732   9.871  11.521
70040W        W33797  36.932   6.304   2.337
70041W        W33798   4.809  25.507  12.443
70042W        W33799   1.825  12.625  11.120
70043W        W33800  44.472  15.177  11.978
70044W        W33801   2.958  14.169  11.032
70045W        W33802   6.201   1.816  10.500
70046W        W33803  43.863   2.472  13.924
70047W        W33804  44.291  33.557  13.846
70048W        W33805  21.028  16.717   1.724
70049W        W33806   6.891   8.175   4.808
70050W        W33807  34.976  33.489  10.138
70051W        W33808   9.788  21.049   1.391
70052W        W33809  38.390  41.406  12.948
70053W        W33810  25.625  44.975  13.410
70054W        W33811  16.225  33.898   1.743
70055W        W33812  30.043  31.903   2.835
70056W        W33813  19.616   3.766   4.615
70057W        W33814  20.583  19.630   4.771
70058W        W33815  33.085  30.519   1.314
70059W        W33816   5.879  44.295   2.665
70060W        W33817  13.214  39.952  10.942
70061W        W33818  32.935  44.905   1.260
70062W        W33819  20.730  19.619   1.824
70063W        W33820   0.884  24.159  12.938
70064W        W33821  10.230   4.222  11.899
70065W        W33822  14.146  13.286  13.914
70066W        W33823  24.977  11.349   0.918
70067W        W33824  14.290  24.093  14.315
70068W        W33825  17.563  28.593   2.787
70069W        W33826   0.938  37.424   3.676
70070W        W33827  11.234  22.680   0.272
70071W        W33828   8.307  13.778  12.395
70072W        W33829  36.380  34.583   1.350
70073W        W33830  12.352  10.873   1.331
70074W        W33831  22.673  10.296  14.932
70075W        W33832   8.846  27.140   4.726
70076W        W33833  39.465   9.865  11.892
70077W        W33834  20.081  36.919  11.110
70078W        W33835  34.029  14.744  14.347
70079W        W33836   7.897  19.211   3.182
70080W        W33837  36.956   8.689   4.209
70081W        W33838  43.482   6.268  13.320
70082W        W33839  23.615  12.664  10.467
70083W        W33840  40.334  38.466   4.232
70084W        W33841  10.238  15.106   2.889
70085W        W33842  38.916  38.398   4.597
70086W        W33843  28.521  11.802   3.180
70087W        W33844  23.028  22.691  13.438
70088W        W33845  29.656   4.245   2.736
70089W        W33846   9.765  30.607  13.869
70090W        W33847  37.496  15.614   1.219
70091W        W33848  16.155  21.552  14.488
70092W        W33849  19.055  15.198  13.940
70093W        W33850   5.691  23.567   0.436
70094W        W33851  12.727  27.088   2.334
70095W        W33852  32.466  38.564  12.019
70096W        W33853  40.870   3.828   0.830
70097W        W33854  37.373  22.043   4.129
70098W        W33855  43.454  11.188  12.986
70099W        W33856  40.435  39.497  11.881
70100W        W33857  19.145   7.860  13.530
70101W        W33858  12.769  28.579  14.430
70102W        W33859  33.916  21.758   4.792
70103W        W33860  21.039  11.753  14.864
70104W        W33861  22.573   9.185   4.130
70105W        W33862   9.171  23.079   1.348
70106W        W33863  13.827  29.496  11.469
70107W        W33864   8.742   5.365  10.910
70108W        W33865  35.923  38.011  14.378
70109W        W33866  30.550  43.302   2.256
70110W        W33867  18.626  32.525  12.410
70111W        W33868   6.697  19.210   3.213
70112W        W33869  13.691  37.018   2.273
70113W        W33870  10.215   1.954  11.021
70114W        W33871  22.665  18.689   0.840
70115W        W33872  15.251  32.115   1.256
70116W        W33873  14.780   9.888  12.827
70117W        W33874  28.465  27.552   3.773
70118W        W33875  17.298  38.074   0.869
70119W        W33876   5.850  36.901   3.256
70120W        W33877  39.543  24.158  11.404
70121W        W33878  20.235  13.755   2.738
70122W        W33879  14.189  25.981  14.902
70123W        W33880  17.243  44.321   0.382
70124W        W33881  44.850  22.588   4.197
70125W        W33882  42.860  32.042  13.341
70126W        W33883  28.633  42.975  12.827
70127W        W33884   9.755   0.377  10.428
70128W        W33885  35.934  19.611   0.319
70129W        W33886  12.243  37.854  13.928
70130W        W33887  13.290  35.050   4.705
70131W        W33888  28.515  37.371  14.843
70132W        W33889  32.035  20.549  13.822
70133W        W33890   2.256  22.167  13.508
70134W        W33891   8.310  20.138  10.109
70135W        W33892  15.111  14.159   0.308
70136W        W33893   3.727  25.180   4.353
70137W        W33894  21.098  10.158   0.831
70138W        W33895  25.971   9.811  11.434
70139W        W33896  28.664   6.917  13.435
70140W        W33897  44.356   0.792  12.823
70141W        W33898   5.722   7.674  12.549
70142W        W33899   5.209   3.836  11.436
70143W        W33900  25.166   5.283  12.949
70144W        W33901  37.947  32.011   3.169
70145W        W33902  16.308  10.774   4.798
70146W        W33903  15.118  23.730   3.276
70147W        W33904  11.647  15.134   4.624
70148W        W33905  42.947  34.958   3.849
70149W        W33906   3.287  31.115   4.624
70150W        W33907   2.426   0.369  12.482
70151W        W33908  19.688  43.964   1.784
70152W        W33909  10.767  11.671  13.862
70153W        W33910  15.617  27.657   9.931
70154W        W33911  26.002  21.209  14.002
70155W        W33912  27.183  33.493   1.928
70156W        W33913  21.638   7.774   1.413
70157W        W33914  37.081   1.948   5.289
70158W        W33915  35.968   2.914   0.833
70159W        W33916  21.590   6.719  12.988
70160W        W33917   9.880  31.089   0.902
70161W        W33918  43.770   1.426  10.931
70162W        W33919  32.466  29.424   0.796
70163W        W33920  23.723  18.213  10.575
70164W        W33921  14.625  23.504   2.866
70165W        W33922  26.598  18.159  11.433
70166W        W33923  26.055  13.134   1.922
70167W        W33924  11.768  13.667  10.024
70168W        W33925  11.633  43.385   4.731
70169W        W33926  28.180  21.533  14.947
70170W        W33927  21.564  13.767  13.932
70171W        W33928  39.536  16.198   3.280
70172W        W33929  34.453   1.326  14.358
70173W        W33930  19.659   8.345   4.674
70174W        W33931  23.105   6.906  11.469
70175W        W33932  16.756   5.899   1.308
70176W        W33933  18.772  11.343  10.993
70177W        W33934   6.846  36.059  13.837
70178W        W33935   7.822  35.856  11.939
70179W        W33936   2.310  18.230   3.693
70180W        W33937  25.060   1.366  14.480
70181W        W33938  37.907  26.545   1.324
70182W        W33939  24.034  15.231   0.481
70183W        W33940   3.378  41.503  13.882
70184W        W33941   6.244   6.744  10.571
70185W        W33942  22.640  39.854  12.517
70186W        W33943  35.951  13.746  13.407
70187W        W33944  10.168   6.756   2.310
70188W        W33945  21.680   4.866  14.412
70189W        W33946  44.779   1.349   0.749
70190W        W33947  26.056   8.819  13.542
70191W        W33948  27.586  19.199  13.342
70192W        W33949   3.756  26.143   3.682
70193W        W33950  39.395  16.270  14.368
70194W        W33951  42.289  14.156  14.993
70195W        W33952  23.201   0.340  14.403
70196W        W33953  25.004  33.433  13.346
70197W        W33954  18.258  11.268  13.802
70198W        W33955  42.988  16.135   3.307
70199W        W33956   5.825  11.629   2.262
70200W        W33957  35.387  12.810  14.427
70201W        W33958  19.680   8.277   1.819
70202W        W33959  15.170  19.199  10.944
70203W        W33960  35.599  44.871  11.910
70204W        W33961  19.622  36.491  13.035
70205W        W33962  23.164  17.221   0.780
70206W        W33963  37.931  37.993   0.759
70207W        W33964   3.724  34.896   4.202
70208W        W33965  24.994   5.756  11.006
70209W        W33966   3.379  28.535  11.125
70210W        W33967  43.365  10.329   1.304
70211W        W33968  11.778  29.046   3.684
70212W        W33969  32.110  31.448   0.483
70213W        W33970  15.310   9.210  13.006
70214W        W33971  43.507  24.167  11.081
70215W        W33972  34.064  26.187   3.863
70216W        W33973  14.185  44.767  13.835
70217W        W33974  25.581  25.535  10.928
70218W        W33975   9.738   1.934   4.160
70219W        W33976  20.586  37.992   0.882
70220W        W33977  19.171  12.701   1.768
70221W        W33978   7.391  35.601   0.336
70222W        W33979   7.831  20.754  14.801
70223W        W33980  29.967   5.369   0.378
70224W        W33981  31.100   3.742  11.073
70225W        W33982  32.945  33.908   4.244
70226W        W33983  44.274  25.087   3.699
70227W        W33984  11.151  37.893   3.287
70228W        W33985  40.547  24.131   4.689
70229W        W33986  39.921  23.672   4.233
70230W        W33987  26.515  22.035  14.416
70231W        W33988  35.481  37.340   4.306
70232W        W33989  36.949   1.388  11.380
70233W        W33990  37.547  17.267  14.926
70234W        W33991  22.560  38.512  10.971
70235W        W33992  27.571  40.825   2.860
70236W        W33993  29.024  25.040   3.233
70237W        W33994   2.383  22.148   1.349
70238W        W33995  29.537  14.207  10.616
70239W        W33996  44.980  21.236  13.976
70240W        W33997  26.086  12.683   2.671
70241W        W33998  22.056  37.967  14.489
70242W        W33999  34.606  22.549   4.192
70243W        W34000  27.967   8.688  14.995
70244W        W34001  40.963  32.083   3.813
70245W        W34002  24.572  16.269   0.388
70246W        W34003  25.179  34.892   4.316
70247W        W34004   8.692   7.848   5.086
70248W        W34005  35.937  27.523  14.380
70249W        W34006  36.033  31.025  14.372
70250W        W34007  38.451  11.178  14.831
70251W        W34008   7.842  24.703  12.876
70252W        W34009  17.256   7.366   3.354
70253W        W34010  41.443  34.592   1.281
70254W        W34011  41.976  33.490  14.311
70255W        W34012  25.162   6.397  12.982
70256W        W34013  43.460  10.725   4.742
70257W        W34014  37.547  43.321  11.580
70258W        W34015  30.508  31.632  12.931
70259W        W34016  25.698  15.305   2.873
70260W        W34017  44.454  40.428  10.490
70261W        W34018  16.595  40.456  13.935
70262W        W34019  26.639  43.777  12.048
70263W        W34020  44.980  28.477   1.829
70264W        W34021   4.411  13.810   3.328
70265W        W34022  17.696  21.250  13.406
70266W        W34023  11.197   1.392   1.424
70267W        W34024  31.973  23.125   0.394
70268W        W34025  26.188  25.199  10.625
70269W        W34026   1.936  14.179   4.656
70270W        W34027   8.719   9.302   4.123
70271W        W34028  14.756  44.297   2.681
70272W        W34029  40.508   3.334  11.398
70273W        W34030  23.237  36.926   1.842
70274W        W34031  37.943  26.041  14.421
70275W        W34032   6.721  25.213   5.111
70276W        W34033  16.085  28.464  12.086
70277W        W34034  19.739  35.408   0.261
70278W        W34035  28.568   3.329  10.475
70279W        W34036  33.942  15.592   4.761
70280W        W34037  23.118  39.465  11.023
70281W        W34038  33.977   3.759   9.641
70282W        W34039  35.390  18.603  14.337
70283W        W34040   3.354  35.570  12.997
70284W        W34041  20.761   3.839  12.831
70285W        W34042   4.855  33.951   0.256
70286W        W34043   1.889  22.190   1.930
70287W        W34044  39.546  14.710   1.778
70288W        W34045  27.173   9.209   3.148
70289W        W34046   4.346  20.175  14.923
70290W        W34047  18.130  18.267   0.411
70291W        W34048  19.069  27.663  13.968
70292W        W34049  38.948  42.853   4.653
70293W        W34050   5.882  21.607  13.944
70294W        W34051  37.899  39.523  12.936
70295W        W34052   7.828   5.717  11.522
70296W        W34053   8.311  17.181  14.986
70297W        W34054  23.633  38.071  13.382
70298W        W34055  14.601   6.224  13.437
70299W        W34056  27.517  10.286  11.097
70300W        W34057  15.324  27.185   1.356
70301W        W34058  33.106  34.040   1.417
70302W        W34059  21.715   4.336  10.545
70303W        W34060   1.363  11.701   0.331
70304W        W34061  25.593  37.550  12.402
70305W        W34062  18.592   6.246  11.461
70306W        W34063  12.204  27.061   2.761
70307W        W34064  41.955  32.562  13.039
70308W        W34065  17.791  12.681   1.293
70309W        W34066  24.113  41.999   4.310
70310W        W34067   2.316   1.959   0.277
70311W        W34068  33.065  44.425   4.838
70312W        W34069  38.046  22.034  14.917
70313W        W34070   8.732  34.525   2.398
70314W        W34071   3.437   3.258  11.123
70315W        W34072  15.741  20.092  13.827
70316W        W34073  31.015  16.750  12.089
70317W        W34074  27.456  39.478   3.186
70318W        W34075   8.318  32.078   3.864
70319W        W34076  39.998  25.515  11.032
70320W        W34077  10.677   0.816   1.761
70321W        W34078  44.860  42.010  14.977
70322W        W34079  26.585  44.369  11.924
70323W        W34080  22.010   1.752  10.579
70324W        W34081  37.037  44.308   2.764
70325W        W34082  15.743  44.407   4.238
70326W        W34083  10.783   7.372  12.968
70327W        W34084   2.743  14.286  14.011
70328W        W34085  11.194  29.447   4.675
70329W        W34086  24.209   8.211  14.401
70330W        W34087  29.532  37.056   1.911
70331W        W34088   0.950  41.528   2.712
70332W        W34089  24.135  21.217   9.997
70333W        W34090  24.529  14.590  11.377
70334W        W34091  41.803  22.240  14.973
70335W        W34092  23.129  43.990  10.466
70336W        W34093   3.436  10.311   1.274
70337W        W34094  14.334  41.400  14.300
70338W        W34095   2.913  10.792  11.472
70339W        W34096   6.899  15.775  11.553
70340W        W34097  35.506   7.273  10.462
70341W        W34098   8.849   5.715   4.781
70342W        W34099  26.108   8.263   1.432
70343W        W34100  20.263  26.688   2.697
70344W        W34101  31.141  30.523  10.530
70345W        W34102  43.508  43.418  12.994
70346W        W34103  14.826  39.371   3.257
70347W        W34104  21.710  27.987  13.352
70348W        W34105  19.219  28.444  12.013
70349W        W34106   0.371  18.273  11.856
70350W        W34107   6.407  29.091   4.300
70351W        W34108  31.617  27.076   0.925
70352W        W34109  31.463  18.545  14.446
70353W        W34110  20.155  18.188   3.307
70354W        W34111  28.086  42.303  13.856
70355W        W34112  22.675   9.814  12.565
70356W        W34113   7.279   2.386  13.509
70357W        W34114  21.542  41.942  11.030
70358W        W34115  38.881  15.117   1.838
70359W        W34116  13.288   1.872  14.960
70360W        W34117  44.832  20.706  14.850
70361W        W34118   5.793  19.608   5.161
70362W        W34119  29.966  26.502   1.908
70363W        W34120  30.642   7.359  13.354
70364W        W34121  17.285  13.232   0.308
70365W        W34122  32.020  10.164  13.944
70366W        W34123   1.799  27.164   1.866
70367W        W34124  43.802  26.535  13.839
70368W        W34125  28.435   1.827  11.382
70369W        W34126   8.718   6.402   0.870
70370W        W34127  21.699  25.994  13.522
70371W        W34128  37.480   6.211  11.127
70372W        W34129  44.331  36.991   1.784
70373W        W34130  43.401  26.511   2.750
70374W        W34131  27.027  37.368   2.384
70375W        W34132  42.513  22.130  13.962
70376W        W34133  36.501  34.948   3.302
70377W        W34134  18.707   7.174  12.435
70378W        W34135  17.732  28.489  14.409
70379W        W34136  30.157  12.659   1.262
70380W        W34137  33.899  33.061   1.893
70381W        W34138   6.712  43.349   2.893
70382W        W34139  16.594  29.529  13.547
70383W        W34140  44.907  29.668  11.877
70384W        W34141  44.415  10.667   2.309
70385W        W34142  31.962  38.018   0.369
70386W        W34143  10.157  30.938  12.879
70387W        W34144  38.368  29.067  13.024
70388W        W34145  29.129  38.824   1.303
70389W        W34146  32.579  34.965  12.557
70390W        W34147  27.954  16.630   0.758
70391W        W34148  32.536  20.636  10.416
70392W        W34149  13.662  38.410   0.959
70393W        W34150  13.184  26.029  12.085
70394W        W34151   3.841  44.785  13.495
70395W        W34152  26.957   7.893   2.798
70396W        W34153  11.352  18.679   2.817
70397W        W34154  37.960   0.826   1.428
70398W        W34155  11.194   0.312  14.951
70399W        W34156  37.380  11.323   1.832
70400W        W34157   5.370  31.435  12.421
70401W        W34158   5.894  14.154   0.822
70402W        W34159   6.365  34.590  11.539
70403W        W34160  19.169  32.585  12.848
70404W        W34161  27.652   0.945   0.806
70405W        W34162  23.716  43.282  13.057
70406W        W34163   3.284   9.243   5.134
70407W        W34164  39.952  24.692  10.893
70408W        W34165  26.568   7.732   0.889
70409W        W34166  21.565   3.735   0.472
70410W        W34167  23.076   2.344   1.832
70411W        W34168  38.047   6.200  12.927
70412W        W34169   0.464  22.579   1.793
70413W        W34170  35.067  40.929   2.695
70414W        W34171   8.830  22.128  11.574
70415W        W34172  36.070  40.993  13.494
70416W        W34173  22.745   1.971  11.511
70417W        W34174  22.055  20.608  11.582
70418W        W34175  12.278  26.124   2.278
70419W        W34176  37.847  29.525   0.323
70420W        W34177  27.482  39.956  13.385
70421W        W34178  24.515  40.983  13.535
70422W        W34179  36.550  39.392   0.884
70423W        W34180   2.858  23.720  12.826
70424W        W34181  20.042  21.718  12.404
70425W        W34182  41.391   3.741  13.474
70426W        W34183  24.570   6.291  13.936
70427W        W34184  33.021   3.257   0.327
70428W        W34185  38.910  31.122   4.126
70429W        W34186   5.754   0.301  14.991
70430W        W34187  16.583  21.680   4.804
70431W        W34188  42.388   7.197   4.658
70432W        W34189  12.237  19.268   0.955
70433W        W34190  28.008  43.922   1.756
70434W        W34191  17.173  14.827  12.988
70435W        W34192  41.800  32.424  11.994
70436W        W34193  26.607   0.837   2.718
70437W        W34194  31.909   7.703  11.532
70438W        W34195  23.082  41.795   3.843
70439W        W34196  43.404  25.488  11.396
70440W        W34197  43.954  30.605  12.912
70441W        W34198  42.357  16.104   4.264
70442W        W34199  17.734  39.983   4.346
70443W        W34200  25.209  14.801  10.143
70444W        W34201  36.501   3.415   2.815
70445W        W34202   7.359  42.014   1.422
70446W        W34203  22.173  38.565   0.764
70447W        W34204  26.990  38.452   0.409
70448W        W34205  17.714  33.965   3.337
70449W        W34206  43.410   1.812  12.535
70450W        W34207  13.240   5.724   1.911
70451W        W34208  14.766  37.067   4.205
70452W        W34209  38.849  11.272  13.920
70453W        W34210   5.733   2.274   4.693
70454W        W34211  22.053  27.104  14.930
70455W        W34212  23.056   4.721   3.193
70456W        W34213  32.471  10.746   3.803
70457W        W34214  40.047  15.786  12.847
70458W        W34215  14.265  40.849  14.482
70459W        W34216  17.569  12.756   0.243
70460W        W34217  44.921  30.019   1.426
70461W        W34218   8.325  13.796   4.330
70462W        W34219  12.726  38.519  14.985
70463W        W34220  15.607  35.472   4.250
70464W        W34221  27.995  44.984  13.352
70465W        W34222  21.206   6.294   2.215
70466W        W34223   4.897  28.981  13.507
70467W        W34224  42.945  21.695   3.235
70468W        W34225   5.248  19.231   0.790
70469W        W34226  23.641  35.386  11.990
70470W        W34227  36.098  19.222   2.771
70471W        W34228  18.270   6.214  12.950
70472W        W34229  29.506  20.130  13.466
70473W        W34230  11.648  30.561  14.493
70474W        W34231   0.792  21.025  11.946
70475W        W34232  16.202  25.502  11.048
70476W        W34233  32.095  33.381   3.285
70477W        W34234  28.081  17.741   2.747
70478W        W34235  40.017  25.630  14.342
70479W        W34236  18.769   7.908  11.862
70480W        W34237   3.847  31.528   4.754
70481W        W34238  39.834  42.965  10.626
70482W        W34239  32.476  31.093  11.965
70483W        W34240  15.747  38.970   5.083
70484W        W34241   6.760  12.282  14.853
70485W        W34242  18.577  20.639   1.313
70486W        W34243  35.566  24.984   3.213
70487W        W34244  41.025  31.509   0.280
70488W        W34245  38.445  31.007  10.960
70489W        W34246  25.080  14.156   1.750
70490W        W34247  28.451  20.150   1.768
70491W        W34248  27.447  42.972  13.476
70492W        W34249  29.427  24.586   2.300
70493W        W34250  27.060  23.503  13.514
70494W        W34251  15.212   6.308  13.383
70495W        W34252  17.607   9.654   3.173
70496W        W34253   9.849  13.348  14.947
70497W        W34254  29.129  29.058   3.680
70498W        W34255  41.985  28.539   4.256
70499W        W34256  40.392  26.159  13.927
70500W        W34257  40.321  33.951   0.731
70501W        W34258  25.633  23.597   3.696
70502W        W34259  26.582  27.573   0.952
70503W        W34260   6.851   5.733   3.746
70504W        W34261   6.787  15.658   0.250
70505W        W34262   9.160  34.572   4.117
70506W        W34263   6.302   9.766   0.755
70507W        W34264  27.550  44.942  14.858
70508W        W34265  25.473  14.759  13.917
70509W        W34266   8.179  35.066  12.397
70510W        W34267  15.754  43.779   9.671
70511W        W34268   5.770  11.774   1.413
70512W        W34269  10.296   3.774   1.819
70513W        W34270  41.508  13.813   0.889
70514W        W34271  15.277  37.581   3.383
70515W        W34272  42.872  16.686  12.555
70516W        W34273  32.543   3.804   3.178
70517W        W34274  44.892   6.820  13.435
70518W        W34275  10.869  38.862  14.002
70519W        W34276  41.450  25.165  10.540
70520W        W34277   4.387  22.166  12.957
70521W        W34278   9.222  37.568   4.249
70522W        W34279   7.682   0.893   2.667
70523W        W34280  11.350   2.778   2.749
70524W        W34281  35.408   4.711   1.834
70525W        W34282  26.155  16.594   4.124
70526W        W34283  39.998  18.740  10.932
70527W        W34284   7.818  41.020   2.665
70528W        W34285   0.443  15.232   2.804
70529W        W34286  38.431   9.733   1.868
70530W        W34287  32.416  15.584  11.059
70531W        W34288  33.976  15.229   2.407
70532W        W34289  19.185  44.493   0.278
70533W        W34290  12.657  28.661  10.887
70534W        W34291   5.241   2.853  10.494
70535W        W34292   6.911  29.427  14.763
70536W        W34293  24.134   8.783   0.274
70537W        W34294  41.317  19.081  11.021
70538W        W34295  31.998  32.045  10.440
70539W        W34296  38.379  17.557   2.849
70540W        W34297   1.354  40.500   4.812
70541W        W34298   6.406  12.814  13.932
70542W        W34299  15.181  44.260   2.695
70543W        W34300  19.712  39.869   4.804
70544W        W34301  20.723  33.054   5.787
70545W        W34302  37.053   9.737  12.828
70546W        W34303  15.761  22.054   3.818
70547W        W34304   2.417  11.234   1.875
70548W        W34305  19.199   2.300   4.126
70549W        W34306  34.990  43.871   3.323
70550W        W34307  35.897  37.969   1.780
70551W        W34308  25.658  38.890  13.046
70552W        W34309  38.851  28.603  12.989
70553W        W34310  12.829   1.280  13.826
70554W        W34311  14.654  16.234   2.218
70555W        W34312  25.620  13.109  10.908
70556W        W34313  11.256  10.763  14.397
70557W        W34314  10.764  13.703  12.033
70558W        W34315   2.430   7.746   4.160
70559W        W34316  24.168  19.152   1.785
70560W        W34317   8.812  43.935  10.623
70561W        W34318  29.631  39.978  11.957
70562W        W34319  22.052  40.021  14.384
70563W        W34320  22.229   4.265   1.271
70564W        W34321  29.429  42.939   1.347
70565W        W34322  14.201  25.018   2.780
70566W        W34323  40.382   0.892   4.141
70567W        W34324   0.805  21.677   1.214
70568W        W34325  26.594  37.557   2.666
70569W        W34326  12.322  28.496  11.578
70570W        W34327   9.167  22.571  12.476
70571W        W34328  24.490  26.970  13.018
70572W        W34329  33.931   3.920  10.904
70573W        W34330  22.569  32.433  14.417
70574W        W34331  12.645   7.766  11.528
70575W        W34332  44.796  33.618   4.792
70576W        W34333  14.158  41.809   2.837
70577W        W34334  13.707  30.039   0.944
70578W        W34335  41.463  30.159  13.881
70579W        W34336   7.768  31.586   4.676
70580W        W34337  41.365  41.937   5.307
70581W        W34338  27.055  15.583   1.920
70582W        W34339  29.634  17.213  13.013
70583W        W34340   2.452  15.230   3.225
70584W        W34341  21.733  41.465   1.438
70585W        W34342  30.956  29.158   2.698
70586W        W34343   5.714  20.177   4.126
70587W        W34344  35.885  23.593  13.527
70588W        W34345  31.023  28.070   0.319
70589W        W34346  36.960   6.789   0.933
70590W        W34347  39.013  19.653  12.410
70591W        W34348  43.393  14.716  14.399
70592W        W34349  35.943  17.600  13.362
70593W        W34350   3.794  17.721   4.769
70594W        W34351  42.023  22.090  13.345
70595W        W34352  10.853  41.309  13.388
70596W        W34353  10.802  21.597   1.923
70597W        W34354  17.784  36.927   4.324
70598W        W34355  35.997  38.897   5.096
70599W        W34356  19.050  27.976   0.792
70600W        W34357  14.131  44.441   2.773
70601W        W34358  39.858  39.369   2.674
70602W        W34359   9.389  41.379   3.788
70603W        W34360  37.059  36.054   0.797
70604W        W34361   1.319  16.735  14.498
70605W        W34362  13.172  35.970  11.420
70606W        W34363  18.764  16.613  12.007
70607W        W34364  34.893  23.055  13.326
70608W        W34365  24.141  29.146   2.853
70609W        W34366  30.949  34.541   4.164
70610W        W34367  17.583  16.588   5.176
70611W        W34368  37.456  13.719  11.967
70612W        W34369   1.767  16.216   4.638
70613W        W34370   4.727  15.226  12.565
70614W        W34371  17.615  25.710   1.431
70615W        W34372  14.749  23.062  14.822
70616W        W34373  42.337  31.943  12.987
70617W        W34374   0.433  44.273  11.934
70618W        W34375  31.968   6.861  14.976
70619W        W34376  33.561   3.814   0.262
70620W        W34377  42.985  41.335  11.885
70621W        W34378  35.404   3.900   2.697
70622W        W34379  32.527  24.479  13.898
70623W        W34380  35.885   6.697  12.961
70624W        W34381   8.680  29.148   4.198
70625W        W34382  15.155  41.943  14.951
70626W        W34383  19.285  15.285   2.414
70627W        W34384  40.331  13.321   4.263
70628W        W34385   4.368   5.197   1.897
70629W        W34386  13.221  15.614   3.741
70630W        W34387  34.558   3.731  12.570
70631W        W34388  12.306  24.084   0.817
70632W        W34389  10.659  39.494   2.226
70633W        W34390  25.978  16.108   1.818
70634W        W34391  14.261  22.096  11.011
70635W        W34392  42.292  40.442   1.750
70636W        W34393  34.957  40.356   3.246
70637W        W34394  15.094  22.171  10.996
70638W        W34395   3.768  39.949   3.163
70639W        W34396   8.346  31.140   2.711
70640W        W34397  36.041  33.950   0.907
70641W        W34398   1.922  16.086   0.415
70642W        W34399  16.279  26.016  12.853
70643W        W34400  20.567  21.163  14.799
70644W        W34401   3.230  20.714  13.375
70645W        W34402  40.411  33.107  13.454
70646W        W34403  42.395  21.731  10.419
70647W        W34404  21.614  20.256  11.886
70648W        W34405  42.864  25.085  12.942
70649W        W34406  22.236  31.024  13.328
70650W        W34407  13.298  32.076  12.557
70651W        W34408  27.123  21.583   0.249
70652W        W34409  27.671  14.328   0.936
70653W        W34410  14.811  15.178   0.914
70654W        W34411  42.984   2.730  10.439
70655W        W34412  28.478  40.866  14.864
70656W        W34413  20.743  23.646  14.827
70657W        W34414  27.043  32.944  10.588
70658W        W34415   8.840  18.138   4.268
70659W        W34416  20.577  13.124   1.730
70660W        W34417  35.957  17.573  14.936
70661W        W34418  26.491   7.188   2.380
70662W        W34419  25.550  18.222   4.720
70663W        W34420  18.184  30.507   0.286
70664W        W34421  24.096   5.771   0.823
70665W        W34422  12.708  12.263  13.795
70666W        W34423   1.464  14.642   1.419
70667W        W34424  42.842  42.008  14.929
70668W        W34425  15.720  37.033  14.338
70669W        W34426  43.864  19.606  12.458
70670W        W34427  21.245   7.247  13.368
70671W        W34428   2.771  37.535   4.180
70672W        W34429  28.640   2.231  10.623
70673W        W34430   3.863  41.533   4.204
70674W        W34431  40.013  36.963   1.716
70675W        W34432   8.683   0.305  12.458
70676W        W34433   4.220  29.598  11.072
70677W        W34434   7.249  11.718  11.382
70678W        W34435  10.262   7.843   3.323
70679W        W34436   4.942  27.544  10.641
70680W        W34437  44.972  13.226  13.837
70681W        W34438  30.956  42.393   0.745
70682W        W34439  13.819  13.749  12.868
70683W        W34440   8.705  15.779   5.291
70684W        W34441  37.510  24.075   3.177
70685W        W34442  35.078  15.592  11.057
70686W        W34443   4.276  11.287   0.300
70687W        W34444  26.561  15.653   3.262
70688W        W34445  15.818  19.179   3.149
70689W        W34446  26.192  39.315  14.412
70690W        W34447   6.730   1.975  11.396
70691W        W34448  16.710  19.057  12.925
70692W        W34449  12.767  33.426   0.827
70693W        W34450   1.262  42.421  10.469
70694W        W34451  17.214  23.195   4.345
70695W        W34452   9.218  31.640  11.413
70696W        W34453  41.367  12.197   1.765
70697W        W34454  15.716   2.384  11.514
70698W        W34455  33.616   8.324  13.847
70699W        W34456  10.382  34.372   3.152
70700W        W34457  24.064   2.283   0.425
70701W        W34458   1.882  34.950  13.377
70702W        W34459  28.185  36.457   3.854
70703W        W34460  37.402   2.753  14.012
70704W        W34461  21.663  44.941   3.699
70705W        W34462  31.491  15.262  10.995
70706W        W34463  19.602  25.977  14.963
70707W        W34464   9.154  44.442   1.316
70708W        W34465  40.449   1.973  13.028
70709W        W34466  43.338  24.572   2.311
70710W        W34467  43.820  37.031  12.047
70711W        W34468  42.388  14.204   1.730
70712W        W34469  10.147  13.212  12.426
70713W        W34470   8.776  39.874  13.365
70714W        W34471  11.803  27.479  12.082
70715W        W34472  36.437  28.146   4.134
70716W        W34473  13.237  19.702   4.779
70717W        W34474  25.997  40.827  10.515
70718W        W34475  22.045   6.785  12.382
70719W        W34476  34.084   4.745   9.487
70720W        W34477   9.841   0.775   1.218
70721W        W34478  26.541  39.474   1.779
70722W        W34479  27.053  37.965  14.764
70723W        W34480  14.200  31.922  13.477
70724W        W34481  19.660  11.335  11.086
70725W        W34482  41.963  21.230  14.772
70726W        W34483   3.260  40.391   1.355
70727W        W34484   6.381  28.519   0.843
70728W        W34485  34.404  15.205   1.328
70729W        W34486  38.481   5.331  13.450
70730W        W34487  34.982  14.226   0.760
70731W        W34488  20.233  22.728   3.297
70732W        W34489  31.562  16.254   9.443
70733W        W34490  20.053  31.527  13.981
70734W        W34491   1.794  13.298  10.892
70735W        W34492  44.259  16.649  13.811
70736W        W34493  31.418  20.737  12.029
70737W        W34494  18.115   0.750   4.271
70738W        W34495  26.087  33.911  14.987
70739W        W34496  33.462  40.928  14.350
70740W        W34497  17.615   1.884  11.117
70741W        W34498  18.063  31.078   3.732
70742W        W34499  27.590  33.916   1.305
70743W        W34500  25.091  25.169  13.048
70744W        W34501  40.340  35.580  11.102
70745W        W34502  39.928   4.295   1.368
70746W        W34503   1.244  13.317  13.545
70747W        W34504  19.571   3.740   3.629
70748W        W34505  31.994  39.486  10.528
70749W        W34506  37.395  10.238  14.394
70750W        W34507  35.532  33.945   1.850
70751W        W34508  14.161  18.110  14.448
70752W        W34509   1.368  11.199  12.090
70753W        W34510  33.054  33.464  12.463
70754W        W34511   3.877  31.927   1.756
70755W        W34512  24.572  11.860   3.308
70756W        W34513  29.034   5.358  14.862
70757W        W34514  20.706  33.625  13.979
70758W        W34515  15.791   1.916   3.708
70759W        W34516  24.215  33.501  10.029
70760W        W34517  11.651  28.009  11.555
70761W        W34518  13.709  13.303  13.465
70762W        W34519  33.926  11.200   4.642
70763W        W34520  10.745  12.240   0.246
70764W        W34521  26.616  28.956  14.938
70765W        W34522  14.202   6.360  13.365
70766W        W34523  35.555  16.748  13.906
70767W        W34524  14.769  29.496  11.549
70768W        W34525  32.908   1.965   2.291
70769W        W34526  36.097   4.756  11.383
70770W        W34527   0.818  14.250  12.849
70771W        W34528  32.501   3.278   3.774
70772W        W34529  31.025  28.638   0.352
70773W        W34530   0.457  21.129  12.417
70774W        W34531  33.124  13.767  13.536
70775W        W34532  26.203  35.086   3.229
70776W        W34533  10.318  43.924   3.831
70777W        W34534  13.708  36.528   4.707
70778W        W34535  22.719  26.530  10.440
70779W        W34536  35.398   5.801   2.870
70780W        W34537  14.602  18.735  12.095
70781W        W34538  11.244  36.360   0.785
70782W        W34539   0.857  11.634  13.440
70783W        W34540  27.023  36.863  10.415
70784W        W34541  15.705   6.821   4.731
70785W        W34542  20.165  11.138   0.800
70786W        W34543  21.723  13.782   0.841
70787W        W34544  39.427  35.089  11.058
70788W        W34545   7.741  40.549  12.957
70789W        W34546   8.367  13.194   4.162
70790W        W34547  44.838  11.167  10.493
70791W        W34548  36.385  41.909  14.297
70792W        W34549  26.074  40.955  11.587
70793W        W34550  42.381  28.151  13.058
70794W        W34551  43.974  11.366  13.461
70795W        W34552  26.105   3.345  12.572
70796W        W34553  17.195   7.212   1.276
70797W        W34554  43.347   3.219  12.517
70798W        W34555  30.105  15.198   0.940
70799W        W34556  20.616  27.094  11.510
70800W        W34557  10.753  35.497   1.700
70801W        W34558  40.444  44.875   0.785
70802W        W34559  29.961  19.046  10.998
70803W        W34560   5.807  43.774  14.292
70804W        W34561  36.952  33.112  11.963
70805W        W34562  21.019   7.676   4.668
70806W        W34563  22.137  33.476  11.555
70807W        W34564  19.081  44.851   4.209
70808W        W34565  23.054  42.399  13.818
70809W        W34566   3.364   2.804   2.744
70810W        W34567  26.541  34.597  12.528
70811W        W34568  30.485   9.869  13.991
70812W        W34569  36.900  36.360  11.546
70813W        W34570  29.630   8.349  12.537
70814W        W34571  38.525  38.868  13.951
70815W        W34572  29.626   9.700   0.346
70816W        W34573  34.069  38.551   2.380
70817W        W34574  37.845  32.071  11.048
70818W        W34575  14.772  17.716   2.315
70819W        W34576  23.534  29.078   2.822
70820W        W34577  44.990   3.350  14.458
70821W        W34578  43.449  34.552  12.939
70822W        W34579   3.823  28.659  12.559
70823W        W34580   8.708  33.945   4.803
70824W        W34581  17.769   6.881   0.389
70825W        W34582   0.804  26.621   2.814
70826W        W34583  33.027  33.476  10.453
70827W        W34584  43.978  35.574  12.960
70828W        W34585  41.393  21.714  13.904
70829W        W34586  28.164  38.910   3.250
70830W        W34587   5.821  43.917   1.856
70831W        W34588  17.215  41.320  11.447
70832W        W34589  12.171  20.768   1.323
70833W        W34590  28.490  43.463  13.441
70834W        W34591  26.487   7.171  14.806
70835W        W34592  33.490  17.770  11.112
70836W        W34593   3.376  19.720   1.922
70837W        W34594   6.704  36.871  13.502
70838W        W34595  15.117  41.461  12.533
70839W        W34596  35.999  22.192   1.824
70840W        W34597  29.940  28.937  13.002
70841W        W34598  26.602  20.522  13.049
70842W        W34599  18.670   5.762   3.796
70843W        W34600  34.409  43.445   4.258
70844W        W34601  35.981   4.908  10.115
70845W        W34602  25.028  32.472   2.201
70846W        W34603  24.153  37.858  12.536
70847W        W34604  12.243  23.081  10.629
70848W        W34605  25.033  29.545  12.062
70849W        W34606  21.525  38.974  10.621
70850W        W34607   2.365  25.990   0.900
70851W        W34608  13.169   4.923  12.969
70852W        W34609   6.195  28.162   4.215
70853W        W34610  10.298  43.449   3.837
70854W        W34611  10.270  38.940  14.387
70855W        W34612  28.038  18.752  13.474
70856W        W34613  39.465   3.254   2.883
70857W        W34614  41.316  23.049  10.606
70858W        W34615   3.786  31.116  13.885
70859W        W34616  23.004  30.655  11.558
70860W        W34617  11.790  13.218  14.943
70861W        W34618  12.685  21.618  12.484
70862W        W34619  27.987  17.742  11.912
70863W        W34620   9.310  21.536  14.820
70864W        W34621  30.434  19.278  12.862
70865W        W34622  44.825  21.544  13.537
70866W        W34623  29.980  22.099  11.568
70867W        W34624  44.474  17.074  14.407
70868W        W34625  16.113   0.749  13.468
70869W        W34626   6.755  43.355   4.304
70870W        W34627  44.459  29.463  14.023
70871W        W34628  21.138  38.529   4.751
70872W        W34629   9.338   8.271  12.509
70873W        W34630  14.279   7.899   0.281
70874W        W34631  16.714   6.361  14.509
70875W        W34632  34.989  21.233  13.391
70876W        W34633  41.419  21.152  12.921
70877W        W34634   8.835  25.104  13.836
70878W        W34635  33.624   7.196   3.351
70879W        W34636  24.210   5.855  14.976
70880W        W34637  13.804   5.370  14.949
70881W        W34638  35.881  41.916   3.721
70882W        W34639  36.020  15.748  13.017
70883W        W34640  33.615  17.270  12.563
70884W        W34641  36.891  35.601  12.455
70885W        W34642  42.000  28.033   3.301
70886W        W34643  18.660  32.564   0.856
70887W        W34644   1.971   5.388   0.962
70888W        W34645   5.402  24.547   4.334
70889W        W34646  20.134   2.759  13.368
70890W        W34647  43.493   4.887  10.482
70891W        W34648  17.775  12.170   4.737
70892W        W34649   9.825   4.311  10.929
70893W        W34650  17.670   6.248   2.771
70894W        W34651  21.533  12.355   0.785
70895W        W34652  17.703  37.952  13.824
70896W        W34653   5.863  21.711  13.036
70897W        W34654   6.895  11.146  12.456
70898W        W34655   0.877  41.397  13.966
70899W        W34656  19.586   1.321  12.454
70900W        W34657  33.596  38.555  12.006
70901W        W34658   2.352  34.889   4.155
70902W        W34659  26.466  36.521  11.430
70903W        W34660  41.974   3.439   1.376
70904W        W34661  44.974  35.051  13.007
70905W        W34662  27.983   9.208  10.468
70906W        W34663   1.841   7.714   1.276
70907W        W34664  36.894  15.711  13.330
70908W        W34665  26.670  25.584   1.406
70909W        W34666   6.338  22.180   1.913
70910W        W34667   7.703   4.447  11.023
70911W        W34668   0.814   1.422   1.914
70912W        W34669  43.412  19.705   9.923
70913W        W34670  29.669  21.200  13.455
70914W        W34671  13.652  21.631   2.701
70915W        W34672  35.881  14.805  11.374
70916W        W34673  12.801   8.680  12.577
70917W        W34674  23.002  20.693   3.830
70918W        W34675  33.448  17.701   2.311
70919W        W34676  26.087  34.519  11.067
70920W        W34677   2.902  42.782   3.247
70921W        W34678  42.283  18.130   0.899
70922W        W34679  11.656   3.849   4.771
70923W        W34680   3.780  13.213   0.914
70924W        W34681  34.553  15.776  10.433
70925W        W34682  29.977  20.629   0.789
70926W        W34683   7.720  18.071   1.412
70927W        W34684   0.913  43.846   1.425
70928W        W34685  11.670  44.946   1.435
70929W        W34686  37.887  34.068  14.797
70930W        W34687  29.551  42.823   3.762
70931W        W34688  12.712  24.607   2.855
70932W        W34689   1.914  10.218   1.802
70933W        W34690   7.846  11.342  10.975
70934W        W34691  16.625   4.342   0.245
70935W        W34692  17.066  26.660   3.338
70936W        W34693  41.881  43.848  11.000
70937W        W34694  10.674  17.726  13.984
70938W        W34695  18.612  31.956   2.774
70939W        W34696  32.045  22.080   1.722
70940W        W34697  10.822  43.340   2.350
70941W        W34698  12.699  12.751  10.450
70942W        W34699  11.362  26.681  13.443
70943W        W34700  35.874  29.657  12.425
70944W        W34701  39.500  37.087   2.861
70945W        W34702   8.731  30.649   3.236
70946W        W34703   4.773  12.835   2.849
70947W        W34704   6.297  25.655   4.196
70948W        W34705  29.451  26.457  11.584
70949W        W34706  44.480  10.226  10.432
70950W        W34707  23.643  36.941   4.279
70951W        W34708  11.674  28.128   4.799
70952W        W34709   4.443  35.474  13.330
70953W        W34710   5.433  26.966  10.490
70954W        W34711  10.734   7.667  13.032
70955W        W34712   8.847   7.330   3.670
70956W        W34713   7.217  40.311  12.017
70957W        W34714   4.446  37.084   0.349
70958W        W34715  42.332  29.530  13.454
70959W        W34716  30.073  22.505  14.484
70960W        W34717   0.816  30.477  12.509
70961W        W34718   5.920  26.179   0.900
70962W        W34719  39.518  29.490   4.813
70963W        W34720  10.169  12.806   4.748
70964W        W34721   6.830  23.018  11.101
70965W        W34722   9.831  23.691  12.980
70966W        W34723  16.582  39.464  13.873
70967W        W34724  11.671  40.343   1.774
70968W        W34725  27.982   1.428  10.419
70969W        W34726   4.264  31.138  11.943
70970W        W34727  30.053  29.457   0.337
70971W        W34728  20.607  43.849   2.782
70972W        W34729  10.180  43.302   2.864
70973W        W34730   0.323   5.390  10.614
70974W        W34731   5.824  44.464  14.769
70975W        W34732   8.293  10.865  11.882
70976W        W34733  34.460  26.021  14.878
70977W        W34734  29.507   7.880  14.989
70978W        W34735  27.065  20.038  11.115
70979W        W34736  14.208  31.425  12.080
70980W        W34737  23.709   6.369  13.313
70981W        W34738  34.897  40.933  12.997
70982W        W34739   1.976  24.061   0.814
70983W        W34740  10.692  20.092  11.099
70984W        W34741  28.103   8.750  11.591
70985W        W34742  23.099  40.425   1.902
70986W        W34743   6.881  17.727  11.476
70987W        W34744   1.765  30.009   2.753
70988W        W34745  38.564  29.432   4.748
70989W        W34746  17.603  44.268   4.650
70990W        W34747  29.468   8.255  10.447
70991W        W34748  39.844  34.596   3.686
70992W        W34749  35.961  14.323  11.868
70993W        W34750  16.143   4.699  14.292
70994W        W34751  15.123  15.212  13.342
70995W        W34752  31.622  20.227  10.496
70996W        W34753  40.503  20.629   3.865
70997W        W34754   8.384   4.337  12.082
70998W        W34755   9.873   3.837   3.224
70999W        W34756   5.848  24.083  11.992
71000W        W34757  10.769   2.277   1.823
71001W        W34758  44.821  31.403  13.976
71002W        W34759  16.109   3.850   3.319
71003W        W34760  11.750   0.262  13.327
71004W        W34761  32.073   0.968  12.546
71005W        W34762  24.133  38.938   5.319
71006W        W34763  42.325  29.614  12.910
71007W        W34764   9.702  44.277  10.499
71008W        W34765  13.681  22.063  13.538
71009W        W34766  24.611   6.418   2.774
71010W        W34767  27.968  25.664   1.738
71011W        W34768  35.895  17.200   2.886
71012W        W34769  30.591   8.732   1.285
71013W        W34770   9.725  22.160   3.362
71014W        W34771   6.347   6.683  12.418
71015W        W34772   1.341  42.386  10.955
71016W        W34773  29.545  13.301   0.910
71017W        W34774  19.660  43.004   0.421
71018W        W34775  16.747   8.738  12.503
71019W        W34776  42.525  37.867  12.085
71020W        W34777  28.111  13.246  13.987
71021W        W34778   3.388  22.090   0.260
71022W        W34779  44.845   6.887   1.311
71023W        W34780   3.935  43.875   0.767
71024W        W34781  33.506  10.670  14.014
71025W        W34782  39.411  18.102  11.416
71026W        W34783   6.750  14.335  14.790
71027W        W34784  35.600  38.840   2.217
71028W        W34785  30.112  37.999  14.482
71029W        W34786   9.738  40.411  12.372
71030W        W34787  34.590  19.078   3.221
71031W        W34788   7.893   6.217  11.890
71032W        W34789  34.532  32.122  11.438
71033W        W34790   8.670  15.246   3.709
71034W        W34791  32.459   9.825  12.956
71035W        W34792  29.622   8.720   4.800
71036W        W34793  15.152  26.590   0.293
71037W        W34794  17.581  16.744  11.916
71038W        W34795  30.427   7.773  11.454
71039W        W34796   5.198  18.177   4.157
71040W        W34797  18.728  13.168  11.411
71041W        W34798  26.064  39.493   3.856
71042W        W34799  10.740  19.724   2.177
71043W        W34800   7.316   1.746  11.999
71044W        W34801   5.305  16.579   0.746
71045W        W34802  32.094  26.166   3.797
71046W        W34803  27.037   9.243  12.447
71047W        W34804  30.002  11.793  13.033
71048W        W34805   1.473   9.836  11.470
71049W        W34806  34.899  32.046  12.403
71050W        W34807  19.165   3.768   1.896
71051W        W34808  20.067  34.916   2.766
71052W        W34809  15.217  10.794   0.323
71053W        W34810   2.897  17.690  13.917
71054W        W34811  25.068   2.940   4.750
71055W        W34812  19.177  12.212  13.979
71056W        W34813  11.656   2.361   4.835
71057W        W34814  40.005  25.616   4.261
71058W        W34815   0.798   6.285  14.004
71059W        W34816  41.460   1.376  10.583
71060W        W34817  39.817  15.271   0.774
71061W        W34818  13.247  21.520  14.370
71062W        W34819   3.866  18.065  14.503
71063W        W34820  24.618  22.213  10.544
71064W        W34821  20.128  11.345  12.841
71065W        W34822   5.384  21.521  14.883
71066W        W34823  16.263  27.045   1.400
71067W        W34824   0.868   5.739  13.973
71068W        W34825  32.887  32.428   2.786
71069W        W34826  27.485  42.466  10.452
71070W        W34827  42.455  27.151  11.569
71071W        W34828  22.739   7.392   1.885
71072W        W34829  34.381  26.529  14.943
71073W        W34830  39.828   6.231  10.414
71074W        W34831  19.083   2.762  14.995
71075W        W34832   7.675  38.970  14.848
71076W        W34833  34.073   8.276  12.949
71077W        W34834   5.294  10.358   3.224
71078W        W34835  36.049  30.554   4.784
71079W        W34836  40.885  22.629   1.270
71080W        W34837  23.133   7.841   3.741
71081W        W34838   8.843   0.829   0.912
71082W        W34839  32.532  22.231  14.312
71083W        W34840  33.465  36.477  10.946
71084W        W34841  34.532  23.611   0.946
71085W        W34842  18.258  39.465  12.828
71086W        W34843  38.401   0.889  10.489
71087W        W34844  11.671  23.160  12.488
71088W        W34845  31.506  24.515   4.805
71089W        W34846  23.136  10.279  10.627
71090W        W34847  28.591  23.701  12.859
71091W        W34848  39.365  43.804   2.715
71092W        W34849   5.837  34.516   4.291
71093W        W34850  27.680  12.268  12.344
71094W        W34851  25.506  23.608   3.315
71095W        W34852  29.094   5.701  11.963
71096W        W34853  12.149   0.859   4.655
71097W        W34854   4.253  28.166   1.284
71098W        W34855   3.332  17.257   0.769
71099W        W34856  28.681  18.187   3.227
71100W        W34857  21.573   5.721  10.542
71101W        W34858  11.191  23.196   4.698
71102W        W34859  38.017  10.809  14.512
71103W        W34860  34.983   3.893   2.694
71104W        W34861  30.974  33.496   3.270
71105W        W34862  27.098  41.508  14.515
71106W        W34863   9.830  34.032  12.431
71107W        W34864  21.118  17.725  10.945
71108W        W34865  18.686   7.853   0.386
71109W        W34866  23.154  34.386   5.678
71110W        W34867  16.265  23.062  13.348
71111W        W34868  41.917  10.160   1.784
71112W        W34869  17.798  27.008   4.678
71113W        W34870  39.044  41.922  10.015
71114W        W34871  25.685  39.434  14.501
71115W        W34872  35.942  38.475   4.820
71116W        W34873   9.729   8.732   3.165
71117W        W34874   0.298  43.321   3.851
71118W        W34875  29.992  15.766  12.577
71119W        W34876   8.730  11.642   3.793
71120W        W34877  44.425  13.208   3.679
71121W        W34878  40.344  27.169   3.756
71122W        W34879   1.354  16.273  11.476
71123W        W34880  31.629  35.098  12.422
71124W        W34881  42.793   5.413  13.380
71125W        W34882  15.593  34.906  14.430
71126W        W34883  28.558  10.757  11.914
71127W        W34884  34.880  22.637  12.887
71128W        W34885   9.154  19.166  11.423
71129W        W34886  30.508   2.456   0.856
71130W        W34887  35.020  31.062   0.952
71131W        W34888  30.090  42.838  11.885
71132W        W34889   5.805   5.925   3.188
71133W        W34890  27.539  19.699  14.331
71134W        W34891   0.372  21.627   4.274
71135W        W34892   2.791  32.015  11.887
71136W        W34893  21.616  17.605  14.435
71137W        W34894   7.272  12.277  12.084
71138W        W34895  22.716  31.413  12.086
71139W        W34896   0.299  33.109  11.564
71140W        W34897   9.329  26.680   2.340
71141W        W34898  17.575  18.707  12.553
71142W        W34899   5.314   7.227   4.701
71143W        W34900  36.870  20.554   2.758
71144W        W34901  22.643   9.690   3.694
71145W        W34902  25.651   1.385  12.417
71146W        W34903  35.082  27.142   5.294
71147W        W34904  17.274  17.565   2.879
71148W        W34905  31.501  37.495   1.872
71149W        W34906  31.640  20.533  10.534
71150W        W34907   7.862  38.955   2.830
71151W        W34908   9.278  24.094  11.922
71152W        W34909  42.418  41.793  11.985
71153W        W34910   9.154   1.371   4.225
71154W        W34911   9.839  16.615   2.409
71155W        W34912  33.047  12.173   3.733
71156W        W34913  15.628  42.936  14.414
71157W        W34914  41.971  38.363   1.251
71158W        W34915   0.475  15.188  11.900
71159W        W34916   5.726  35.398  12.068
71160W        W34917  20.694  30.602  11.523
71161W        W34918   4.943  17.603   0.896
71162W        W34919   1.932  31.461  11.372
71163W        W34920  26.164  43.929   4.709
71164W        W34921  36.984  25.211   4.684
71165W        W34922  25.067  36.947  14.776
71166W        W34923   0.866  20.523   4.243
71167W        W34924  37.461  29.598  11.018
71168W        W34925  30.539  27.561   1.867
71169W        W34926  21.112  33.468  12.076
71170W        W34927  22.087  28.140  14.944
71171W        W34928  42.833  29.017  10.914
71172W        W34929  21.712  21.632  12.485
71173W        W34930  34.919   5.749  12.566
71174W        W34931   6.825   4.847  12.937
71175W        W34932  12.615  13.219   4.287
71176W        W34933  36.083  35.053  13.015
71177W        W34934   5.873  32.525  12.920
71178W        W34935  14.141  34.034  11.895
71179W        W34936   8.849  14.290   0.760
71180W        W34937   6.891  28.066  13.976
71181W        W34938  25.074  23.687   0.919
71182W        W34939  12.288   0.291   2.744
71183W        W34940  26.466  23.490  11.088
71184W        W34941  30.011  17.707   1.235
71185W        W34942  25.105  29.107  13.947
71186W        W34943  44.800  33.515   3.787
71187W        W34944  28.681  14.103  12.041
71188W        W34945  13.834  40.424   2.284
71189W        W34946  19.682  36.467  12.408
71190W        W34947  39.314  36.468   1.772
71191W        W34948   6.304  15.757   5.107
71192W        W34949   9.154  43.494   2.236
71193W        W34950  26.479  16.248   4.650
71194W        W34951   8.896   5.762   0.410
71195W        W34952   3.258   7.874  14.504
71196W        W34953  31.031  25.964  11.436
71197W        W34954  15.297  32.932   0.437
71198W        W34955  12.321   0.461  14.340
71199W        W34956  21.554  31.132   0.892
71200W        W34957  43.949  16.133  11.505
71201W        W34958   2.468  26.191  14.924
71202W        W34959  31.099  30.004   1.816
71203W        W34960   8.783  13.793   1.840
71204W        W34961  13.122   7.771  11.012
71205W        W34962  22.065  18.120  14.932
71206W        W34963   6.256  17.709  13.339
71207W        W34964  24.656  24.116   4.179
71208W        W34965  26.471   8.242  12.383
71209W        W34966  37.530  15.315  12.861
71210W        W34967   0.907  24.198  12.051
71211W        W34968  20.742   6.231   0.397
71212W        W34969  31.537  37.580  14.305
71213W        W34970  13.672  27.070  14.288
71214W        W34971  40.919  15.219   3.841
71215W        W34972  13.827  23.188  11.579
71216W        W34973  22.692   6.184   2.356
71217W        W34974  25.603   8.892  14.873
71218W        W34975  27.450  18.272   2.345
71219W        W34976  37.510   2.436   1.296
71220W        W34977   6.785   5.833   3.317
71221W        W34978  41.476  41.402  11.943
71222W        W34979  40.405  17.648   2.288
71223W        W34980  14.102  11.850  14.324
71224W        W34981  21.723  35.005  13.050
71225W        W34982   9.720   6.307   4.204
71226W        W34983  22.551  26.608   2.902
71227W        W34984  20.226  29.107  12.043
71228W        W34985  24.021  15.722  12.030
71229W        W34986  42.007  38.947  14.772
71230W        W34987  42.822  25.570  11.465
71231W        W34988  16.626  38.011  14.416
71232W        W34989  32.612   1.337   1.301
71233W        W34990  35.431  19.576  14.295
71234W        W34991  41.878  29.549  12.966
71235W        W34992   2.873   3.218  11.473
71236W        W34993  22.593   5.845  11.951
71237W        W34994   9.358  21.558   4.156
71238W        W34995  18.770  31.624  14.805
71239W        W34996  39.954  37.504   2.676
71240W        W34997  18.549  40.967  11.086
71241W        W34998   1.414  27.066  12.552
71242W        W34999  13.693   0.410   9.580
71243W        W35000   8.389  20.066   1.702
71244W        W35001   0.844  27.484   3.285
71245W        W35002   1.852   6.858  14.890
71246W        W35003  37.566  10.357   3.788
71247W        W35004   8.832  20.192   1.379
71248W        W35005  30.042  19.638  14.494
71249W        W35006  36.848  10.666  14.806
71250W        W35007   5.195  39.929  11.060
71251W        W35008  24.021   1.256  14.496
71252W        W35009  20.209  33.907   2.386
71253W        W35010   9.721   8.369  11.965
71254W        W35011  44.367  24.652   2.185
71255W        W35012  19.641  12.689   4.811
71256W        W35013  28.142   7.371   2.898
71257W        W35014  34.378  24.134  12.388
71258W        W35015  10.877   4.932   1.755
71259W        W35016  32.618  22.007  10.415
71260W        W35017  13.159  17.209   0.384
71261W        W35018  10.853  23.599   3.870
71262W        W35019  23.500   1.873  12.981
71263W        W35020  13.674  32.542   2.716
71264W        W35021  40.000   7.679  14.312
71265W        W35022  37.893  34.442   3.333
71266W        W35023   2.323  10.287  13.033
71267W        W35024  42.918  39.361   3.765
71268W        W35025  29.450  11.160  13.899
71269W        W35026   3.891  15.121  11.099
71270W        W35027  12.666  40.478   0.921
71271W        W35028  42.323  11.634  12.446
71272W        W35029   6.757  42.896  13.860
71273W        W35030  42.428   0.796   4.754
71274W        W35031  35.545  28.440   2.713
71275W        W35032   4.295  41.378  12.581
71276W        W35033  44.502   9.224   3.692
71277W        W35034  41.831  32.413   1.737
71278W        W35035  20.159   2.271  11.533
71279W        W35036  26.640  11.152  14.951
71280W        W35037  15.308  42.464  11.971
71281W        W35038   7.695   9.659  13.469
71282W        W35039  11.849  13.163   4.114
71283W        W35040  24.056  44.401   4.341
71284W        W35041  16.279  13.820  13.854
71285W        W35042   2.810   3.379  11.953
71286W        W35043  40.506  12.224   1.368
71287W        W35044  15.105  28.453  10.999
71288W        W35045  26.037  30.058  11.863
71289W        W35046  36.425   9.223  12.094
71290W        W35047  14.215  39.456   4.300
71291W        W35048  16.242  25.652  13.437
71292W        W35049  36.576   3.791  14.400
71293W        W35050  32.981  18.649  11.944
71294W        W35051  10.740  38.832   2.333
71295W        W35052  35.450  21.596   3.346
71296W        W35053  30.009  10.362   4.178
71297W        W35054  31.433  36.472   4.346
71298W        W35055   5.251   6.910  14.375
71299W        W35056  12.730  19.671  10.527
71300W        W35057  18.287  15.601   4.641
71301W        W35058  36.934  42.780  11.040
71302W        W35059  24.037   9.785   1.826
71303W        W35060  17.114   9.698  12.892
71304W        W35061   3.235  43.489  13.948
71305W        W35062   6.286  21.723   0.768
71306W        W35063  30.656   1.297  14.417
71307W        W35064  13.812  33.063  10.559
71308W        W35065  14.188  14.276   0.447
71309W        W35066  24.138  34.419  14.515
71310W        W35067   4.774  39.364   4.334
71311W        W35068   5.215   8.879  11.948
71312W        W35069  26.206  44.937   4.322
71313W        W35070  24.019  14.690   0.731
71314W        W35071  16.729  26.171  10.907
71315W        W35072  30.945  31.127   2.687
71316W        W35073  43.959  10.747  12.874
71317W        W35074  30.613  12.653  11.111
71318W        W35075  42.973  22.124   9.978
71319W        W35076  11.322  38.895  12.949
71320W        W35077   6.895  27.628  11.116
71321W        W35078  31.482  29.591  14.899
71322W        W35079  12.767  43.937  11.994
71323W        W35080  26.108  36.072  14.995
71324W        W35081  36.412  17.722   0.844
71325W        W35082   9.830  31.050  13.844
71326W        W35083  35.590   5.428   0.832
71327W        W35084  21.018  18.690   4.250
71328W        W35085   5.221  24.125   2.819
71329W        W35086  44.801  39.044  14.842
71330W        W35087  20.719  43.369  13.966
71331W        W35088   5.388  38.965  13.409
71332W        W35089   4.916  34.998  11.423
71333W        W35090  30.998  23.235   3.298
71334W        W35091   6.853   3.885  10.959
71335W        W35092  10.142  39.345   4.317
71336W        W35093  25.550   4.786  12.958
71337W        W35094   1.479   7.831   0.926
71338W        W35095  26.568  14.270  11.583
71339W        W35096  28.074  28.109   0.931
71340W        W35097  12.635   0.792  11.545
71341W        W35098  25.155  37.423   0.955
71342W        W35099  15.240   9.169   2.680
71343W        W35100  30.484   8.331   0.289
71344W        W35101  14.235  25.625  13.803
71345W        W35102  34.095  32.018  12.341
71346W        W35103  21.625  10.779  10.599
71347W        W35104  37.997  32.586  13.930
71348W        W35105  17.077  33.550  11.557
71349W        W35106  10.140   4.437  13.902
71350W        W35107  21.581  32.493   2.685
71351W        W35108  28.940  40.368   3.328
71352W        W35109  27.686  20.254   1.306
71353W        W35110  12.735  19.758   2.239
71354W        W35111  25.018  25.696   1.326
71355W        W35112  18.736   8.341   3.850
71356W        W35113  38.364  10.275  14.793
71357W        W35114  17.070  34.927   2.781
71358W        W35115  26.091  30.532   3.338
71359W        W35116  31.009  19.551  12.059
71360W        W35117   7.298  39.430   1.267
71361W        W35118  25.578  33.595  14.337
71362W        W35119  18.174  23.677  10.473
71363W        W35120  32.919  11.828  11.463
71364W        W35121  24.082   7.668  13.450
71365W        W35122  29.170  35.908   1.313
71366W        W35123  31.441  18.243   1.438
71367W        W35124   3.763  31.027   1.313
71368W        W35125  37.001  10.368   2.751
71369W        W35126  14.650  19.198   4.260
71370W        W35127   4.409  43.402   4.229
71371W        W35128  44.943  42.798   0.855
71372W        W35129  34.894  27.994  14.972
71373W        W35130  42.793  38.381  11.433
71374W        W35131   8.810  43.507   9.962
71375W        W35132  24.174  41.407   2.354
71376W        W35133  22.506  27.453  11.511
71377W        W35134  38.031  41.923   2.328
71378W        W35135  14.147  14.257   2.341
71379W        W35136  20.556  42.970  14.416
71380W        W35137  12.785  16.621  12.945
71381W        W35138  12.121  31.038   2.753
71382W        W35139   2.296  14.200   1.284
71383W        W35140  35.364   5.927   3.640
71384W        W35141  17.076  14.633  13.792
71385W        W35142  43.835   5.255  10.518
71386W        W35143  23.713  40.324   0.413
71387W        W35144  42.344   7.774   2.392
71388W        W35145  44.373  14.790   4.759
71389W        W35146   3.289  43.380  13.525
71390W        W35147  37.466  14.820  11.929
71391W        W35148  10.836  26.167   1.419
71392W        W35149  33.550  13.649  10.958
71393W        W35150  42.997  11.248   2.741
71394W        W35151  37.025   8.306  13.792
71395W        W35152  19.735  31.599   0.733
71396W        W35153  34.037  28.543   0.381
71397W        W35154  41.400  35.900  13.012
71398W        W35155  42.364  38.999   0.730
71399W        W35156  21.550  30.491   4.208
71400W        W35157  40.979  16.316  11.096
71401W        W35158  22.705  35.429   4.610
71402W        W35159  41.296  31.960   3.743
71403W        W35160  44.401  43.846   2.771
71404W        W35161  34.560  13.193   1.777
71405W        W35162   7.743  26.658  13.352
71406W        W35163  19.566  42.937  14.464
71407W        W35164  28.501   7.285  10.889
71408W        W35165  32.978  27.574   2.268
71409W        W35166   7.832  28.952  10.573
71410W        W35167   7.278  12.647  13.315
71411W        W35168  43.774  39.860  10.908
71412W        W35169  14.816  20.253   2.394
71413W        W35170  22.566  38.032   0.860
71414W        W35171  11.208   1.939  12.863
71415W        W35172  40.941  28.123   0.473
71416W        W35173  30.151  14.715  13.937
71417W        W35174   0.864   8.227  13.025
71418W        W35175  11.840  39.062  11.946
71419W        W35176   9.239  31.981   3.722
71420W        W35177  35.558  22.210   3.728
71421W        W35178  15.657   4.881  13.795
71422W        W35179   7.717  18.291   2.399
71423W        W35180  41.355   4.358   3.270
71424W        W35181  12.735  36.537   0.954
71425W        W35182   4.798  43.356  13.947
71426W        W35183  15.109  32.075  12.071
71427W        W35184   0.748  23.648   0.746
71428W        W35185  41.020  35.445  13.335
71429W        W35186  15.709  29.937  10.438
71430W        W35187   8.268   6.698  11.430
71431W        W35188  41.980  43.328  12.081
71432W        W35189  19.555  17.200  12.500
71433W        W35190  31.535  32.505  10.524
71434W        W35191  19.762   7.769   3.718
71435W        W35192  18.128  13.260  13.960
71436W        W35193   5.702   8.399  11.950
71437W        W35194  36.861  25.081   1.308
71438W        W35195  32.464  39.949   0.386
71439W        W35196  30.091  13.678   1.333
71440W        W35197   0.791  15.781   0.382
71441W        W35198  30.054  44.312   2.738
71442W        W35199  36.949   1.841   3.688
71443W        W35200  36.053   7.217  13.906
71444W        W35201  31.104  14.132   0.437
71445W        W35202   9.202  43.476   4.328
71446W        W35203  34.985  35.455   1.343
71447W        W35204   6.264  21.735   3.773
71448W        W35205  26.201  32.138   1.215
71449W        W35206  35.908   1.841   5.141
71450W        W35207   4.259   4.800  13.449
71451W        W35208  12.319  14.326   0.445
71452W        W35209  38.835  14.275  14.418
71453W        W35210   9.809  38.843   9.999
71454W        W35211  23.228  33.460  11.079
71455W        W35212  37.446   1.265  12.407
71456W        W35213  26.477  36.041   3.780
71457W        W35214  38.062  32.120  10.540
71458W        W35215  23.541   3.286   4.299
71459W        W35216  28.498  10.826  14.960
71460W        W35217  37.073  43.808   0.325
71461W        W35218  21.594  24.037  12.503
71462W        W35219  28.609  31.095   0.849
71463W        W35220   5.723  18.786  12.578
71464W        W35221   3.895  17.728  13.442
71465W        W35222  43.512  10.370   3.716
71466W        W35223  20.257  28.580   1.335
71467W        W35224   0.853  15.733  14.877
71468W        W35225  16.311  20.269  11.601
71469W        W35226  19.570  33.942   1.853
71470W        W35227  29.068   0.823   4.804
71471W        W35228  21.578  35.084  10.993
71472W        W35229  16.659  40.873   4.151
71473W        W35230  26.532  15.277   3.725
71474W        W35231  36.034  36.953  11.587
71475W        W35232   6.426  29.013   2.197
71476W        W35233  42.031  10.186   4.598
71477W        W35234  22.718   9.253  13.031
71478W        W35235  39.352  11.259  14.425
71479W        W35236  12.320  29.944  10.959
71480W        W35237  28.676  35.383   2.239
71481W        W35238  41.960  25.140  11.922
71482W        W35239  10.855   7.738   3.352
71483W        W35240  13.236  14.756  12.483
71484W        W35241   3.275  20.156  11.454
71485W        W35242  24.713  36.921  12.511
71486W        W35243  25.105  40.979  11.520
71487W        W35244  42.405   5.359   4.183
71488W        W35245  40.897  24.539  13.860
71489W        W35246   2.785  30.158   3.849
71490W        W35247  19.651  12.318  12.525
71491W        W35248  25.628  14.833   5.764
71492W        W35249  33.544   7.716   2.859
71493W        W35250   5.826  24.489   0.445
71494W        W35251  19.157  12.730  12.004
71495W        W35252  14.680  24.087   4.242
71496W        W35253  20.739  44.382   3.371
71497W        W35254  13.830  10.275  11.495
71498W        W35255   5.900  20.258  13.332
71499W        W35256  44.816  12.838   4.774
71500W        W35257  42.842  22.240  14.849
71501W        W35258  12.853  33.531  11.053
71502W        W35259  41.386   1.925   0.451
71503W        W35260  34.461  17.228   4.610
71504W        W35261  12.699  43.282  14.957
71505W        W35262  24.678   1.380   3.643
71506W        W35263  31.574   6.384  13.386
71507W        W35264  29.170  14.746  11.992
71508W        W35265   4.875  21.064  13.862
71509W        W35266  34.376  33.581   3.707
71510W        W35267   1.338  42.369   0.468
71511W        W35268  14.743  36.081   5.226
71512W        W35269  39.965  42.879  14.513
71513W        W35270  33.585  16.183  14.308
71514W        W35271  39.022  10.816  12.508
71515W        W35272  28.476  22.658   9.962
71516W        W35273  42.483  24.665  13.387
71517W        W35274  16.807  34.994   3.260
71518W        W35275   5.394  13.759  10.904
71519W        W35276  19.188  14.270  13.506
71520W        W35277   8.779  18.107   2.248
71521W        W35278  23.081   5.795  14.278
71522W        W35279   1.834   9.726   3.733
71523W        W35280  36.020  19.736   4.120
71524W        W35281   7.315  25.974   2.866
71525W        W35282  18.187   2.791  11.390
71526W        W35283  32.570  11.707  10.625
71527W        W35284  39.352   7.282   4.118
71528W        W35285  25.518   7.683   3.867
71529W        W35286  38.386  19.069   3.736
71530W        W35287  19.650   2.731   0.275
71531W        W35288  10.805   8.347  14.991
71532W        W35289  17.281  11.357  11.588
71533W        W35290  28.449   0.338  13.968
71534W        W35291  27.094   1.855   1.840
71535W        W35292  30.039  30.057  10.420
71536W        W35293  44.993   3.262  12.911
71537W        W35294  37.505  40.305  13.061
71538W        W35295  23.079   0.404   1.332
71539W        W35296  21.630  30.513   3.274
71540W        W35297  35.454  15.752  14.478
71541W        W35298  10.367  34.063   4.691
71542W        W35299  19.738  32.554  12.002
71543W        W35300   2.425  16.709   2.362
71544W        W35301  29.979  24.219   0.394
71545W        W35302  18.607  20.619   2.897
71546W        W35303   1.269  20.137  13.419
71547W        W35304   4.406  28.675  10.550
71548W        W35305   8.682  21.083   4.796
71549W        W35306  38.333   0.871   5.275
71550W        W35307  41.365  17.197   4.635
71551W        W35308  14.234  24.129  10.941
71552W        W35309  43.812   3.814   4.240
71553W        W35310   1.861  43.885   2.699
71554W        W35311  38.343   2.429   1.809
71555W        W35312  22.048   6.321  12.460
71556W        W35313  19.053  33.535   5.195
71557W        W35314   8.340  39.456   3.350
71558W        W35315  11.150  43.939   1.433
71559W        W35316  15.182  33.041  13.459
71560W        W35317  19.748  19.715   4.274
71561W        W35318  15.268  39.506   2.786
71562W        W35319  17.630  10.150  12.872
71563W        W35320   0.382  23.701  11.861
71564W        W35321  13.625  26.676  11.023
71565W        W35322  31.622  17.218  11.424
71566W        W35323  38.883  21.672  10.921
71567W        W35324   8.309  12.758   4.148
71568W        W35325  18.681  24.990  12.941
71569W        W35326  14.599  29.935  11.602
71570W        W35327  29.140  22.585  10.571
71571W        W35328  11.206   5.795  13.307
71572W        W35329  25.017  43.920   2.747
71573W        W35330  18.707  29.548  10.474
71574W        W35331  31.920  19.614   3.297
71575W        W35332  33.124  11.866   3.268
71576W        W35333  43.274  26.052   0.772
71577W        W35334   8.267  12.298   4.180
71578W        W35335  42.283   7.371  10.944
71579W        W35336  31.967  44.894   1.773
71580W        W35337  16.748  23.177   2.899
71581W        W35338  17.228  29.993   0.476
71582W        W35339   1.829  36.071  10.472
71583W        W35340  27.685   3.408   1.740
71584W        W35341  27.566  23.715  11.986
71585W        W35342  28.493  34.103   4.600
71586W        W35343  44.997  33.128   2.861
71587W        W35344  33.452  44.831  12.373
71588W        W35345  37.901   7.893   1.398
71589W        W35346  22.142  22.671   4.126
71590W        W35347  43.442  40.499   2.189
71591W        W35348  27.141  25.609   3.773
71592W        W35349  42.982  33.043   0.467
71593W        W35350  29.171  11.364   4.755
71594W        W35351   6.786  16.236   9.503
71595W        W35352  24.104  16.162   3.703
71596W        W35353  23.496  31.615  13.894
71597W        W35354  28.611  34.919  11.430
71598W        W35355  33.446  34.885   3.754
71599W        W35356  39.870   3.410   3.359
71600W        W35357  21.672  32.471  12.852
71601W        W35358  14.199  38.860   2.309
71602W        W35359  36.879  28.042   2.243
71603W        W35360  21.022  18.071  14.990
71604W        W35361  44.370  19.748   2.408
71605W        W35362   8.794  33.911   3.661
71606W        W35363   5.282  35.437  10.637
71607W        W35364  21.157   4.714  13.798
71608W        W35365  11.265  14.748  14.506
71609W        W35366  43.827  30.471   1.306
71610W        W35367  40.453   3.913  10.485
71611W        W35368  42.939  34.907  14.873
71612W        W35369  33.878  36.427   0.439
71613W        W35370  44.433  25.155  10.944
71614W        W35371  15.329  13.307   3.331
71615W        W35372  44.320   3.273   4.716
71616W        W35373  36.019   7.370   2.725
71617W        W35374   5.875  17.555   4.608
71618W        W35375  11.261  23.144  10.919
71619W        W35376  16.722   3.296   2.258
71620W        W35377   4.397  42.458  13.820
71621W        W35378  22.515  14.186  11.099
71622W        W35379  13.748  14.107  14.443
71623W        W35380  23.673  40.991   4.347
71624W        W35381  11.170  12.200   2.781
71625W        W35382  37.524  11.355  13.323
71626W        W35383  28.186   0.985   3.199
71627W        W35384  26.960   8.360   1.317
71628W        W35385  16.754  44.495   3.663
71629W        W35386   0.880  31.468   3.259
71630W        W35387   1.406  40.921   3.253
71631W        W35388  39.061  28.015   1.773
71632W        W35389  21.674  41.917   2.414
71633W        W35390  32.035  24.502  11.919
71634W        W35391  14.109  44.265  14.794
71635W        W35392  36.067   7.249   0.347
71636W        W35393   8.338  39.440  11.491
71637W        W35394  22.613  23.045  11.984
71638W        W35395   9.160  27.687  13.320
71639W        W35396  32.038  31.478  12.910
71640W        W35397  26.543  11.371   4.212
71641W        W35398   1.408  36.422  11.580
71642W        W35399  24.034   9.692  14.374
71643W        W35400  39.548  11.318   1.778
71644W        W35401  10.262  23.048  12.396
71645W        W35402  18.733  18.252  13.937
71646W        W35403  18.559  30.589  14.938
71647W        W35404  37.914  20.688  14.493
71648W        W35405  14.326  30.044  13.390
71649W        W35406  20.743  19.244  11.123
71650W        W35407  18.760  15.295   3.311
71651W        W35408   8.848  30.441   0.479
71652W        W35409  34.972  31.959  10.999
71653W        W35410  12.184  16.143   3.207
71654W        W35411  26.955  25.587   5.568
71655W        W35412  18.665  12.690   0.771
71656W        W35413  15.784  30.119   0.774
71657W        W35414  30.543  10.310  13.814
71658W        W35415  28.169   4.839  13.005
71659W        W35416  30.056  33.605  11.881
71660W        W35417  33.515   4.887   5.161
71661W        W35418  29.646  30.922   4.684
71662W        W35419   1.333  37.910  12.087
71663W        W35420  14.322  35.928  14.868
71664W        W35421  40.546  27.507  14.429
71665W        W35422  39.971  23.170   0.450
71666W        W35423  10.141   6.795   4.128
71667W        W35424  36.879   2.314   0.907
71668W        W35425  24.055   7.820   3.260
71669W        W35426  36.049  28.135   4.258
71670W        W35427  12.830   3.880   0.788
71671W        W35428  25.500  21.036  10.625
71672W        W35429  33.092   6.727   2.759
71673W        W35430  13.205  44.407  11.901
71674W        W35431  13.311   5.403   4.172
71675W        W35432  26.174  36.969  13.869
71676W        W35433   3.893  31.120  12.396
71677W        W35434  43.863  43.001  13.802
71678W        W35435  19.729  28.074   1.396
71679W        W35436  38.047  15.231  12.910
71680W        W35437  31.934  39.557  14.996
71681W        W35438  12.301  28.943  13.856
71682W        W35439  37.358   5.433  12.994
71683W        W35440  22.696  19.183  14.438
71684W        W35441  18.210  27.965  14.934
71685W        W35442  19.565  22.206  11.883
71686W        W35443  44.373  41.331  14.478
71687W        W35444  42.321  41.474  12.554
71688W        W35445  28.554  29.494   0.897
71689W        W35446  20.679   2.762   0.873
71690W        W35447  32.591  27.081   4.340
71691W        W35448  31.483  42.473   4.812
71692W        W35449  15.216   9.166   0.775
71693W        W35450  44.334  34.610  11.962
71694W        W35451   9.241  24.555   4.302
71695W        W35452  39.014  15.133   2.223
71696W        W35453  10.776  23.496   1.758
71697W        W35454  27.628  40.312   1.290
71698W        W35455  23.696  23.049  14.031
71699W        W35456  29.934  31.611  13.369
71700W        W35457   9.312  35.984  10.538
71701W        W35458  23.114   4.891   0.375
71702W        W35459  27.109  37.459  10.948
71703W        W35460  26.163  38.916  11.861
71704W        W35461   0.315   4.237  12.833
71705W        W35462  16.208  26.601   3.847
71706W        W35463   3.939  21.751  11.406
71707W        W35464   8.763  17.131   2.350
71708W        W35465  38.824  43.365  10.074
71709W        W35466  16.810  14.594   1.249
71710W        W35467  13.191  13.173   0.958
71711W        W35468  18.229  13.605   4.687
71712W        W35469  13.208   3.354   4.202
71713W        W35470   2.381  37.395   5.167
71714W        W35471   2.755   6.317   2.393
71715W        W35472  40.493  28.167   0.800
71716W        W35473  43.768  39.363   2.395
71717W        W35474   7.862  23.125   2.262
71718W        W35475  12.116  28.120  12.868
71719W        W35476   3.398  17.698  12.996
71720W        W35477  38.429  40.911  11.884
71721W        W35478  26.504  32.495   4.758
71722W        W35479   3.879  16.706  12.415
71723W        W35480   4.879  19.062  14.015
71724W        W35481   1.775   2.229   2.737
71725W        W35482   5.827  44.901  13.992
71726W        W35483   2.282  17.290  14.839
71727W        W35484  32.490  10.820  11.028
71728W        W35485  34.001  20.029   4.724
71729W        W35486   8.773  42.784  10.041
71730W        W35487  28.653  42.997   5.225
71731W        W35488  20.200  22.102   3.348
71732W        W35489  20.188   3.824   0.293
71733W        W35490  18.251  15.120  14.995
71734W        W35491  10.878   5.261  12.836
71735W        W35492  40.053  30.079   1.832
71736W        W35493   4.402  44.932  12.342
71737W        W35494  20.538  30.945   4.834
71738W        W35495   5.219  39.035   3.220
71739W        W35496   7.790  24.011   4.656
71740W        W35497  38.528  33.064  12.827
71741W        W35498   0.809  14.275   1.225
71742W        W35499  40.861  22.635  13.009
71743W        W35500  41.853  15.735  13.903
71744W        W35501   7.790  33.512  13.952
71745W        W35502  41.794  32.042   3.317
71746W        W35503  38.441  12.816  11.578
71747W        W35504  10.792  16.779   0.897
71748W        W35505   4.432  33.899   1.387
71749W        W35506  11.282   5.401  12.494
71750W        W35507  27.599  33.603   0.257
71751W        W35508  17.185  41.976  14.504
71752W        W35509  14.216  31.406   2.316
71753W        W35510  41.935  18.275   5.322
71754W        W35511  41.813  18.649   1.297
71755W        W35512  18.215  33.410  11.971
71756W        W35513  20.716  17.783  13.990
71757W        W35514  32.002  10.228   0.899
71758W        W35515  38.924  11.328  13.403
71759W        W35516  18.637  41.951   1.885
71760W        W35517  44.973  20.077  13.512
71761W        W35518   4.926  26.519   1.872
71762W        W35519  40.959  37.362   3.818
71763W        W35520  21.563  11.683   2.200
71764W        W35521  38.364  21.663   3.212
71765W        W35522  15.807  17.557   2.884
71766W        W35523  31.933  36.982   0.311
71767W        W35524   0.258   1.747  14.893
71768W        W35525  29.152  23.724   9.494
71769W        W35526   0.952  43.973  14.940
71770W        W35527  42.470  16.798  14.306
71771W        W35528  17.215  43.425  11.020
71772W        W35529  25.042  35.023   1.256
71773W        W35530  32.135  14.282   4.235
71774W        W35531   2.954  21.638  13.521
71775W        W35532  12.318  44.829   3.839
71776W        W35533  15.243  21.726  11.508
71777W        W35534  40.826   1.340  13.433
71778W        W35535  27.059  42.973  13.887
71779W        W35536  44.280   8.855   0.245
71780W        W35537  40.520  23.557   4.281
71781W        W35538  44.346  19.597  11.471
71782W        W35539   5.785  32.482  11.917
71783W        W35540  37.889  29.551  10.919
71784W        W35541  33.121  25.616   3.697
71785W        W35542  14.820  17.295  13.322
71786W        W35543  34.951  25.120  11.538
71787W        W35544  15.261  14.797  11.480
71788W        W35545   7.820  37.569  10.075
71789W        W35546  11.673  30.609   2.710
71790W        W35547  30.493   2.410  13.836
71791W        W35548  37.398  40.505  11.098
71792W        W35549  11.257  30.465  13.880
71793W        W35550  23.647  27.514   3.303
71794W        W35551  38.326  34.104   0.262
71795W        W35552  27.557   1.882   3.846
71796W        W35553  20.072  41.855   1.743
71797W        W35554  10.747  23.561  13.828
71798W        W35555   6.259  43.349  14.836
71799W        W35556  21.208  20.196   0.280
71800W        W35557  41.923  23.534  11.493
71801W        W35558  12.747  21.072   2.888
71802W        W35559  30.008  23.609  14.279
71803W        W35560  24.074  35.858   1.799
71804W        W35561  36.390  42.337  14.501
71805W        W35562  41.376  17.647   3.280
71806W        W35563  25.086  12.219  14.484
71807W        W35564  30.045  21.565  13.798
71808W        W35565  24.673  38.367  12.476
71809W        W35566  18.068  44.979  12.397
71810W        W35567  10.219  26.974   0.787
71811W        W35568   9.709  14.314   0.244
71812W        W35569  44.852  36.543   0.483
71813W        W35570  10.715  32.045   1.901
71814W        W35571  32.911  34.116  10.490
71815W        W35572  40.966  37.397   1.869
71816W        W35573  14.101  20.549  12.847
71817W        W35574   0.357  31.511   2.697
71818W        W35575  35.526   1.743   1.927
71819W        W35576  32.573  19.110  11.081
71820W        W35577  39.393  15.670  13.850
71821W        W35578  21.537  33.386  14.819
71822W        W35579  29.990  38.332  13.518
71823W        W35580  31.938   1.478  13.960
71824W        W35581  20.656  34.984  11.598
71825W        W35582  44.895  43.516  12.564
71826W        W35583  34.010   9.870   1.883
71827W        W35584  31.542   0.401  10.475
71828W        W35585  38.468  31.516   4.722
71829W        W35586  20.064  21.238  13.401
71830W        W35587   6.254   7.800   4.740
71831W        W35588  20.137  21.076   0.784
71832W        W35589  18.125  41.367  11.924
71833W        W35590  31.092  19.234   4.723
71834W        W35591   1.428  36.377  13.834
71835W        W35592  32.559   2.382   4.314
71836W        W35593  31.996  32.488   4.161
71837W        W35594  19.546  29.520  14.383
71838W        W35595  21.258  33.910   2.296
71839W        W35596   5.725  28.611  13.498
71840W        W35597   0.320  42.913   1.253
71841W        W35598  12.627   3.815   2.367
71842W        W35599  31.008  33.510  14.423
71843W        W35600  22.656  18.258  14.849
71844W        W35601  43.356  24.985   3.637
71845W        W35602  16.231  37.975  14.352
71846W        W35603  17.088  11.267  13.841
71847W        W35604  44.951  14.693  11.899
71848W        W35605  14.121  35.365   0.357
71849W        W35606  33.558  25.571   1.342
71850W        W35607  35.511  19.267   0.768
71851W        W35608  18.245  23.073   4.336
71852W        W35609  17.299  22.661  14.378
71853W        W35610  30.926  44.776   4.269
71854W        W35611  39.383   7.246  12.902
71855W        W35612  32.132  26.497   0.393
71856W        W35613   4.787   7.855  10.981
71857W        W35614  37.968  32.534  14.996
71858W        W35615  10.354  16.613   3.177
71859W        W35616  40.484   1.968   3.633
71860W        W35617   7.299  18.281  12.037
71861W        W35618  27.678  13.806  11.427
71862W        W35619  32.494  42.979  10.509
71863W        W35620  12.262  16.732   0.364
71864W        W35621   5.254  11.680   9.977
71865W        W35622  39.398  31.540   3.351
71866W        W35623  14.785  31.041   1.728
71867W        W35624  10.196  11.834  11.113
71868W        W35625   1.857  41.021  13.931
71869W        W35626  27.486  17.071  13.910
71870W        W35627  38.038  35.424   0.939
71871W        W35628   2.928  12.714  12.925
71872W        W35629  29.453   8.252  14.836
71873W        W35630  38.411  10.379  12.066
71874W        W35631  25.092  28.164   3.319
71875W        W35632  40.527  11.666  10.058
71876W        W35633  26.501  10.340  12.951
71877W        W35634  13.161  43.341  13.367
71878W        W35635   2.254  19.040   1.838
71879W        W35636  34.963  27.515   0.757
71880W        W35637  32.063  31.469  14.283
71881W        W35638  41.840   8.183  10.630
71882W        W35639  44.440  42.880  12.039
71883W        W35640  27.594  40.458  13.979
71884W        W35641  28.494  40.855   4.626
71885W        W35642  32.046  28.561  12.976
71886W        W35643  30.490  12.843  13.372
71887W        W35644  11.180  25.644  10.586
71888W        W35645  33.428  28.662  14.513
71889W        W35646  10.302  42.008   1.930
71890W        W35647  41.881   4.768  11.991
71891W        W35648  17.794  27.458   1.868
71892W        W35649   2.941  42.300  12.486
71893W        W35650   4.778  12.779  14.504
71894W        W35651  28.976   5.862   1.244
71895W        W35652  26.953  12.631   4.161
71896W        W35653  11.654   8.734   9.990
71897W        W35654  18.615  31.563  14.289
71898W        W35655  13.278   1.953  13.908
71899W        W35656  31.091  33.957  11.079
71900W        W35657  29.575  11.688  13.059
71901W        W35658  14.767  36.046   0.903
71902W        W35659  26.469  23.514  13.813
71903W        W35660  43.375  31.124  10.547
71904W        W35661   7.257  40.997   3.670
71905W        W35662  40.001  24.221   1.271
71906W        W35663  41.315  34.001   0.962
71907W        W35664  41.311   2.356  13.513
71908W        W35665  17.731  16.123  11.934
71909W        W35666  19.541  18.135   2.698
71910W        W35667  23.026  14.204  14.934
71911W        W35668  17.080   6.193  11.002
71912W        W35669  23.004  18.177   1.372
71913W        W35670  26.078   7.908   3.387
71914W        W35671   2.858   1.253  12.995
71915W        W35672   1.409  17.570  14.319
71916W        W35673  37.404  19.545   4.640
71917W        W35674  36.916  24.591  13.411
71918W        W35675  15.703   1.301   0.411
71919W        W35676  26.162  17.061  13.948
71920W        W35677  44.323  20.208   1.313
71921W        W35678  34.118  20.583   3.658
71922W        W35679  22.080  14.171  12.000
71923W        W35680  25.656  40.539  13.795
71924W        W35681  37.508  29.012   1.317
71925W        W35682  27.648  41.386  11.867
71926W        W35683  37.856  20.273  14.466
71927W        W35684  37.948   2.846   1.755
71928W        W35685   2.390  28.645   1.806
71929W        W35686  12.318  38.370   2.790
71930W        W35687  36.009  42.807  12.445
71931W        W35688  31.024  17.148   0.252
71932W        W35689  25.160   3.335   2.757
71933W        W35690   1.296  20.556   3.789
71934W        W35691   6.867   9.257   4.159
71935W        W35692  41.509  26.640   4.307
71936W        W35693   2.782  39.018   1.236
71937W        W35694  16.286  25.036  11.955
71938W        W35695   7.274  16.708  12.859
71939W        W35696  27.494  12.778   5.170
71940W        W35697  39.391  10.326   5.218
71941W        W35698  35.563  17.789   3.663
71942W        W35699  25.619  39.492   3.652
71943W        W35700  40.823   1.946  13.523
71944W        W35701  43.972  29.475   3.174
71945W        W35702  12.154   1.270  12.898
71946W        W35703  22.585  17.259  14.288
71947W        W35704   9.380  24.671   4.720
71948W        W35705  32.940  28.584   2.676
71949W        W35706   5.209   8.711  10.546
71950W        W35707  38.366   0.273   3.291
71951W        W35708  22.657  37.929  10.601
71952W        W35709  35.591  33.921   2.392
71953W        W35710  29.474  23.713  10.441
71954W        W35711  21.193  29.452  10.505
71955W        W35712  33.918   9.294  11.405
71956W        W35713  14.701   6.842  11.894
71957W        W35714  20.180  18.735  12.395
71958W        W35715  14.632  21.749   4.336
71959W        W35716  13.706  17.154   4.779
71960W        W35717   3.390  26.987  11.060
71961W        W35718  14.803  32.548   3.198
71962W        W35719  17.689  33.559  13.858
71963W        W35720  43.469  41.880  14.302
71964W        W35721  24.614  30.946   4.328
71965W        W35722  10.194  23.715  12.957
71966W        W35723  35.516  25.471  14.027
71967W        W35724  33.554  20.237  11.917
71968W        W35725  25.987  41.378  11.580
71969W        W35726  13.230  22.032  12.462
71970W        W35727  17.688  28.047  14.009
71971W        W35728  29.622   4.788   0.858
71972W        W35729  28.541   3.945  13.378
71973W        W35730   6.793  25.067   2.701
71974W        W35731  18.546  31.452  12.509
71975W        W35732  27.067   2.895   4.185
71976W        W35733  24.094  11.863  10.423
71977W        W35734   1.417  31.547  11.875
71978W        W35735   5.756  33.061   2.226
71979W        W35736  23.218  11.230  12.365
71980W        W35737   1.415  15.314   4.609
71981W        W35738  10.140  29.977   4.727
71982W        W35739  12.612  19.682  13.377
71983W        W35740  23.208  14.758  12.478
71984W        W35741  20.270   7.342  10.902
71985W        W35742  16.795  38.355  12.539
71986W        W35743  32.600  13.268   3.682
71987W        W35744  27.535  29.159   0.309
71988W        W35745  13.611  39.936  14.415
71989W        W35746  35.888  35.007   0.411
71990W        W35747  44.465  31.134  14.760
71991W        W35748  35.857  12.286  14.340
71992W        W35749  30.517   3.229  13.434
71993W        W35750  33.932  36.940  14.024
71994W        W35751   2.824  34.383  14.331
71995W        W35752  25.021  13.282   3.668
71996W        W35753   5.202   6.349   4.211
71997W        W35754  34.961  37.906  12.387
71998W        W35755  22.106   7.763  12.944
71999W        W35756  10.300   3.773   0.908
72000W        W35757  39.942  32.099  13.546
72001W        W35758  11.262  41.390   1.775
72002W        W35759  34.417  39.832   0.387
72003W        W35760  13.243  44.287   0.317
72004W        W35761  35.042   9.189  12.953
72005W        W35762   4.340  31.988  13.351
72006W        W35763   8.298  44.348  13.494
72007W        W35764  24.113  21.058   3.772
72008W        W35765  39.034  15.186   2.884
72009W        W35766  17.239  22.642   3.260
72010W        W35767  14.200  37.904  14.893
72011W        W35768  41.412  23.639   2.198
72012W        W35769  24.588  30.081  12.483
72013W        W35770   0.899  37.380   5.319
72014W        W35771  37.933   1.376   5.587
72015W        W35772  10.660  22.630   4.727
72016W        W35773  29.935   2.744   0.284
72017W        W35774   2.846   7.763  14.894
72018W        W35775  37.375  24.101  10.636
72019W        W35776  30.929  13.612  14.851
72020W        W35777  23.681  34.055   9.938
72021W        W35778   8.386  23.583   4.731
72022W        W35779  32.928  12.665  12.006
72023W        W35780  33.987   7.223  13.441
72024W        W35781  13.226  12.255   1.922
72025W        W35782  33.908   3.349   0.816
72026W        W35783  20.082  19.205   4.652
72027W        W35784  25.131  21.226   1.394
72028W        W35785  17.748  18.762   1.700
72029W        W35786  13.735  28.566   3.837
72030W        W35787  31.584  10.347  10.955
72031W        W35788  33.912  22.021  12.516
72032W        W35789   7.826   9.257   4.179
72033W        W35790  29.538  12.665  10.966
72034W        W35791  29.957   2.346   3.380
72035W        W35792  31.472  11.836   0.391
72036W        W35793   5.771   8.307  13.804
72037W        W35794  34.872  23.617   1.243
72038W        W35795  22.699  21.618  11.410
72039W        W35796  35.518  26.465   3.682
72040W        W35797  43.864   8.270   1.905
72041W        W35798  19.205  32.564  13.508
72042W        W35799  42.829  36.557  12.392
72043W        W35800  21.574  44.983   2.322
72044W        W35801   0.927  12.147   4.646
72045W        W35802  26.596   2.816   1.796
72046W        W35803  20.696  33.439  14.351
72047W        W35804  36.850  15.762  13.020
72048W        W35805   6.301  22.111   1.221
72049W        W35806   2.453   2.259   2.386
72050W        W35807  30.481   9.238  10.915
72051W        W35808   0.827   6.803  14.945
72052W        W35809   1.749  10.353  14.404
72053W        W35810   3.763  11.826  13.340
72054W        W35811  14.167  22.213   2.850
72055W        W35812  24.506   3.842  10.580
72056W        W35813  43.894  14.115  11.046
72057W        W35814  41.301  14.795   4.163
72058W        W35815  15.326   5.401   2.769
72059W        W35816  22.648   1.325  11.590
72060W        W35817  25.964  13.111   2.826
72061W        W35818   3.360  21.021  14.942
72062W        W35819  37.551   2.383   1.913
72063W        W35820  42.344  30.551  12.009
72064W        W35821  35.588  22.682  12.978
72065W        W35822  38.950  37.035  13.064
72066W        W35823  11.628  20.571  14.843
72067W        W35824  10.832  41.364   2.320
72068W        W35825   8.769  39.540   0.347
72069W        W35826   7.877  10.786   2.757
72070W        W35827  41.038  24.725  11.991
72071W        W35828  22.164  14.715  10.893
72072W        W35829  23.676   3.224  10.619
72073W        W35830  39.398   0.987   2.736
72074W        W35831  34.614  37.926   4.783
72075W        W35832  27.674  27.527   2.746
72076W        W35833  16.643  21.081  14.833
72077W        W35834   3.910  18.620   4.753
72078W        W35835   4.756  19.053   0.432
72079W        W35836  20.134  23.647  14.437
72080W        W35837  25.680  24.658   2.777
72081W        W35838   8.268   9.232   3.250
72082W        W35839  33.429  25.070  14.000
72083W        W35840  31.493  30.950  11.999
72084W        W35841   2.774   9.240  13.839
72085W        W35842  32.520  42.403  12.957
72086W        W35843  17.279  30.976   1.726
72087W        W35844   5.348  14.759  13.034
72088W        W35845   7.748  20.077  14.364
72089W        W35846   0.448  11.355   1.369
72090W        W35847  19.644  32.024   0.396
72091W        W35848  18.701   4.770   2.388
72092W        W35849   2.409  43.446  14.005
72093W        W35850  35.919   9.810   0.420
72094W        W35851  12.176  33.424   1.249
72095W        W35852  43.482  10.179   0.929
72096W        W35853  43.280  12.761  11.586
72097W        W35854  23.232  25.648  11.009
72098W        W35855  27.616  43.772  13.500
72099W        W35856  42.454  37.065   4.823
72100W        W35857  28.042  43.309   2.314
72101W        W35858  26.518  39.036   4.627
72102W        W35859  37.996  37.830   3.638
72103W        W35860  10.680   8.880  12.505
72104W        W35861  39.904  38.945   4.830
72105W        W35862  41.391  40.007   1.443
72106W        W35863  24.702  44.403   2.262
72107W        W35864  25.482  40.405   2.191
72108W        W35865  30.428  35.079  13.810
72109W        W35866  14.594  12.334  14.848
72110W        W35867   4.330  43.956  10.549
72111W        W35868  11.741  35.923  13.908
72112W        W35869  20.151  18.720   1.420
72113W        W35870  17.567  22.115   0.731
72114W        W35871  35.560  37.524  11.392
72115W        W35872  17.254  27.673  13.317
72116W        W35873  24.213  41.955   1.394
72117W        W35874  30.578  27.490   4.289
72118W        W35875  22.038  23.224   0.846
72119W        W35876   0.371   0.346   1.874
72120W        W35877  43.515   5.231  12.981
72121W        W35878  44.408  23.496   0.906
72122W        W35879  30.080   2.283  11.538
72123W        W35880  21.698  42.438   1.383
72124W        W35881  40.006  20.638   4.155
72125W        W35882  40.951  30.054  12.851
72126W        W35883   5.326  28.057   0.320
72127W        W35884  28.673   2.951  13.917
72128W        W35885  41.320  36.465  13.522
72129W        W35886  33.604  23.728  13.413
72130W        W35887  25.215  27.007   1.826
72131W        W35888   0.800  27.464   2.296
72132W        W35889  22.190  10.639  12.493
72133W        W35890  20.675  44.859  10.518
72134W        W35891  39.886  23.640  13.024
72135W        W35892  25.521  44.471  12.060
72136W        W35893  24.135  33.924  10.073
72137W        W35894  10.187   6.287   5.321
72138W        W35895   7.688  13.749  13.795
72139W        W35896   4.767  44.450  10.006
72140W        W35897   8.723   5.736   2.373
72141W        W35898  39.530  13.716   2.769
72142W        W35899  25.528   1.328  13.475
72143W        W35900  30.442  40.476   0.324
72144W        W35901  44.933  28.995  13.320
72145W        W35902  20.699  31.980   4.239
72146W        W35903  33.421  33.950  14.866
72147W        W35904  15.292  14.110   4.760
72148W        W35905  13.219  10.171   9.935
72149W        W35906  20.582  27.972   0.287
72150W        W35907  26.613  38.830  10.513
72151W        W35908  13.107  42.860   4.614
72152W        W35909  15.724   7.713  14.463
72153W        W35910   5.230  36.050   0.798
72154W        W35911  24.160  11.856   4.652
72155W        W35912  22.678  12.161   3.270
72156W        W35913  23.631  38.387   0.246
72157W        W35914   1.942  13.143   4.283
72158W        W35915  31.500  41.847  14.775
72159W        W35916  29.030  21.646  14.766
72160W        W35917  14.165   2.844   0.776
72161W        W35918  21.597  29.050   1.449
72162W        W35919  37.910  17.710   4.249
72163W        W35920  30.965   6.241  10.540
72164W        W35921  20.563   5.841   4.291
72165W        W35922   3.884  21.653  10.629
72166W        W35923  24.658   5.883   0.433
72167W        W35924  44.856   9.824   2.209
72168W        W35925   3.847  21.085  14.343
72169W        W35926  38.393  15.794   4.730
72170W        W35927  29.543   1.359   2.903
72171W        W35928  29.114  31.915   3.189
72172W        W35929  42.814  34.872   0.264
72173W        W35930  36.010   1.376   1.305
72174W        W35931  30.644  36.585  11.046
72175W        W35932  30.432   0.330   0.755
72176W        W35933   5.211  38.846  12.895
72177W        W35934   3.760   5.896   3.146
72178W        W35935   1.278  35.941   4.620
72179W        W35936  12.806  10.163   3.656
72180W        W35937  19.203  37.411   0.884
72181W        W35938  36.551  27.021   2.875
72182W        W35939  31.126   3.714  12.411
72183W        W35940  42.903  43.010  13.895
72184W        W35941  35.406  21.697   2.709
72185W        W35942   2.242  41.847   4.220
72186W        W35943  15.789  21.721  11.507
72187W        W35944   4.207  33.564   0.901
72188W        W35945  26.560  40.527  11.865
72189W        W35946  39.414   1.319  10.048
72190W        W35947  26.525  25.522  12.865
72191W        W35948  13.689  31.614   4.118
72192W        W35949   0.420  16.664   0.398
72193W        W35950  27.529  18.774  13.487
72194W        W35951   3.287  41.945   1.735
72195W        W35952  27.543   2.952  14.453
72196W        W35953  23.048  35.056   5.163
72197W        W35954  17.737  29.635  10.995
72198W        W35955   0.989  18.671  12.061
72199W        W35956   5.751  30.908   4.826
72200W        W35957  41.483  44.815  12.412
72201W        W35958   0.347  10.231  13.056
72202W        W35959  36.364  40.413  12.368
72203W        W35960   6.243  32.503   3.801
72204W        W35961  14.746  37.419  13.053
72205W        W35962  20.716   6.802   1.892
72206W        W35963  10.746  29.938  10.534
72207W        W35964  36.889  14.737   4.291
72208W        W35965  29.609  15.703  13.813
72209W        W35966  12.740  27.187   0.918
72210W        W35967   3.342   4.837   0.425
72211W        W35968  16.292  38.974  10.576
72212W        W35969  35.431  18.578  13.499
72213W        W35970  32.073  43.916  12.485
72214W        W35971  32.391  25.076  13.327
72215W        W35972   0.785   7.729  14.332
72216W        W35973  35.868  32.974  13.909
72217W        W35974  36.919  19.064   3.658
72218W        W35975  22.589  17.799   2.295
72219W        W35976   6.833  35.388   4.322
72220W        W35977  24.125  12.770   4.285
72221W        W35978   8.284   8.884   1.213
72222W        W35979  30.634  26.544   1.405
72223W        W35980  18.290   2.320   2.760
72224W        W35981  17.728   7.701  10.457
72225W        W35982   0.469  20.731   3.364
72226W        W35983  18.058  18.197   3.202
72227W        W35984  42.301  20.682   3.232
72228W        W35985   9.268  18.244  10.953
72229W        W35986  18.194  14.636  13.851
72230W        W35987  13.133  20.257  10.627
72231W        W35988  44.769  34.480   4.226
72232W        W35989  42.786  29.488  14.889
72233W        W35990  14.143  25.505   5.094
72234W        W35991  32.892  41.018   2.287
72235W        W35992  24.174   6.770   1.241
72236W        W35993  10.835  14.246   1.444
72237W        W35994  22.183   0.910   3.692
72238W        W35995  32.397   5.319   4.336
72239W        W35996  37.888  20.077  14.878
72240W        W35997   7.407  10.687  12.461
72241W        W35998  18.786  42.885   5.137
72242W        W35999   9.831  13.255  11.040
72243W        W36000  37.905  14.808  12.452
72244W        W36001   7.792  22.149   2.785
72245W        W36002  11.760  38.970  10.891
72246W        W36003  31.133  17.757   2.685
72247W        W36004  20.099  12.180   0.841
72248W        W36005   7.882  27.984  10.475
72249W        W36006  37.476  32.029  12.864
72250W        W36007  12.130   7.870  11.386
72251W        W36008   9.857  24.063  14.492
72252W        W36009  40.830   5.207  12.461
72253W        W36010  20.190   8.285  12.561
72254W        W36011   3.452  36.930  14.419
72255W        W36012  24.975  16.657   1.806
72256W        W36013  36.359  40.023  12.450
72257W        W36014  31.515  33.094  14.003
72258W        W36015  13.660  22.724  14.972
72259W        W36016  27.994  17.797   4.703
72260W        W36017  13.634  18.245   4.772
72261W        W36018   6.305  24.493   1.756
72262W        W36019  40.053  38.363  12.072
72263W        W36020  27.064  22.735   1.362
72264W        W36021  12.276  14.693  13.976
72265W        W36022  42.435  32.466  10.566
72266W        W36023  36.970  20.184   3.336
72267W        W36024   1.780  35.515   3.359
72268W        W36025  26.703  29.952  10.572
72269W        W36026   6.395  32.440  13.924
72270W        W36027  22.529  36.589   4.652
72271W        W36028   7.358   5.323  12.469
72272W        W36029  18.555  26.565  11.899
72273W        W36030  37.900  43.843   1.703
72274W        W36031  20.722  26.645  10.528
72275W        W36032  44.755  39.464  10.623
72276W        W36033  39.560  44.400  13.026
72277W        W36034   9.389  35.406   0.746
72278W        W36035  38.858  22.162   3.155
72279W        W36036  14.232   8.724  12.869
72280W        W36037  25.635   6.202  12.361
72281W        W36038  29.474  32.603   0.866
72282W        W36039  38.022  36.545   4.657
72283W        W36040   3.757  36.379  12.950
72284W        W36041   4.336  14.113  13.808
72285W        W36042  15.657  20.250   3.354
72286W        W36043  40.037  28.669  13.406
72287W        W36044  27.531   7.792   0.931
72288W        W36045  17.746  19.710   1.894
72289W        W36046  12.741  34.437  10.645
72290W        W36047  27.640   8.381   4.249
72291W        W36048  23.584  29.043   0.869
72292W        W36049  42.838  23.667  10.020
72293W        W36050  36.488  21.551  10.438
72294W        W36051  13.676  25.047   3.869
72295W        W36052   3.248   6.240  13.038
72296W        W36053  24.994  29.968   0.457
72297W        W36054  39.978  16.705   0.821
72298W        W36055   6.297  17.089   4.204
72299W        W36056   6.797   0.436   4.623
72300W        W36057  39.920   2.244  13.896
72301W        W36058  10.817  26.981  12.896
72302W        W36059  23.658  25.477  11.448
72303W        W36060  44.390   1.790  12.476
72304W        W36061  16.089  25.130   3.187
72305W        W36062  28.148  15.718  14.275
72306W        W36063  42.814  23.169   1.310
72307W        W36064  40.502  23.545   2.770
72308W        W36065  36.441  18.195  11.543
72309W        W36066   7.900  33.090  10.417
72310W        W36067  30.429  19.099   1.862
72311W        W36068  32.602  30.940   2.714
72312W        W36069  44.897  15.135  10.979
72313W        W36070  15.659  26.565   1.397
72314W        W36071  10.377  10.186  11.378
72315W        W36072  38.392  32.932  10.522
72316W        W36073   0.824   6.347  14.844
72317W        W36074  15.797  39.831  13.867
72318W        W36075  25.050   5.911   1.376
72319W        W36076  34.397  18.604  14.786
72320W        W36077  15.628  33.501  14.952
72321W        W36078   4.875  22.204   3.273
72322W        W36079  24.115  20.108   2.816
72323W        W36080  16.126  31.602  13.957
72324W        W36081  39.509  40.903  13.793
72325W        W36082  41.462  16.113  11.512
72326W        W36083   0.952   2.454   1.771
72327W        W36084  42.478  12.641  13.819
72328W        W36085  42.284  27.689  14.853
72329W        W36086  21.147  33.607   2.393
72330W        W36087  42.383  25.088  14.460
72331W        W36088  29.096  14.275  11.087
72332W        W36089  21.137   6.393   5.131
72333W        W36090  38.928  33.570   4.836
72334W        W36091  26.512  22.120  13.980
72335W        W36092  20.129  30.634  10.991
72336W        W36093  15.279   5.734  12.478
72337W        W36094   5.219  13.191   3.827
72338W        W36095   8.404  37.404   0.299
72339W        W36096  39.827  32.106  13.999
72340W        W36097  44.346  40.404   4.326
72341W        W36098  21.574  10.319   2.317
72342W        W36099  35.601  38.926  12.988
72343W        W36100  36.982  22.064  11.126
72344W        W36101  41.480  34.387  10.421
72345W        W36102  31.455  15.641   2.837
72346W        W36103  19.128   4.760   1.411
72347W        W36104  20.540   7.249  13.518
72348W        W36105  40.379  39.521  12.359
72349W        W36106  30.922  17.226  10.997
72350W        W36107   9.393  36.847   4.133
72351W        W36108  11.753   8.791  14.348
72352W        W36109  23.676  15.302  12.888
72353W        W36110  21.180  23.144  13.005
72354W        W36111  18.782  26.082  14.387
72355W        W36112  22.212  21.583   2.386
72356W        W36113   5.859  18.121  10.026
72357W        W36114  25.167   0.397  12.018
72358W        W36115   6.922  29.122   1.723
72359W        W36116  34.948  30.919   3.206
72360W        W36117  21.643   4.248   0.866
72361W        W36118  37.016  39.873  13.458
72362W        W36119  12.351   1.342   3.783
72363W        W36120   9.377  39.939   2.736
72364W        W36121  43.270  16.801   2.268
72365W        W36122  11.697   1.300   4.243
72366W        W36123  16.715   6.810   2.848
72367W        W36124  25.618  29.516   4.633
72368W        W36125  38.845   0.865  10.912
72369W        W36126  17.666  19.583  14.455
72370W        W36127  19.647  42.381   1.223
72371W        W36128   2.943  22.500   0.926
72372W        W36129  37.350  39.047  13.878
72373W        W36130  43.388  25.146   0.413
72374W        W36131  30.520  44.365   1.694
72375W        W36132   2.740  21.082  10.489
72376W        W36133  16.581  18.580   3.311
72377W        W36134  21.239  27.453  12.548
72378W        W36135  42.868  33.529  12.373
72379W        W36136  35.504  41.383   3.369
72380W        W36137  39.948  41.907   3.779
72381W        W36138  11.278  17.768   1.762
72382W        W36139  20.219   1.393   2.679
72383W        W36140  44.771  14.692   0.855
72384W        W36141   6.346   2.957   2.792
72385W        W36142  12.172   8.806  11.002
72386W        W36143   4.299  23.146   2.712
72387W        W36144  38.007  15.278  14.386
72388W        W36145  27.588  26.556   4.679
72389W        W36146  10.312  17.775  11.004
72390W        W36147  35.544  42.916  14.495
72391W        W36148  14.336  43.793   2.322
72392W        W36149  25.175  10.200  10.989
72393W        W36150   9.865  20.556   1.860
72394W        W36151   2.234  24.052   0.891
72395W        W36152   6.227   1.790   1.889
72396W        W36153  33.032  29.641   1.238
72397W        W36154  15.322  15.112  14.499
72398W        W36155  39.347  43.321   1.334
72399W        W36156  18.745  24.690  13.497
72400W        W36157  24.623   2.259  12.391
72401W        W36158  31.481  24.164  11.017
72402W        W36159   3.354  14.141  13.473
72403W        W36160   8.762  44.369   3.773
72404W        W36161   2.802   3.746   4.771
72405W        W36162  36.486  21.701   0.421
72406W        W36163  25.570  43.346  13.391
72407W        W36164  25.211  13.612  12.939
72408W        W36165  42.363  23.028  11.984
72409W        W36166  28.969  38.331   3.327
72410W        W36167  36.472  36.053  11.952
72411W        W36168  31.092  41.447   2.673
72412W        W36169  42.502   9.165  10.496
72413W        W36170  23.493   4.391  13.973
72414W        W36171  11.326  32.013  13.049
72415W        W36172  12.297  38.009  14.513
72416W        W36173  28.493  37.970  11.599
72417W        W36174  12.149  37.408  10.906
72418W        W36175  44.790  39.816   4.346
72419W        W36176  27.021   2.916  14.992
72420W        W36177  17.241  40.029   0.830
72421W        W36178  43.364   2.945   1.887
72422W        W36179   0.277   5.269  10.891
72423W        W36180  14.163  42.902   1.390
72424W        W36181  15.323  36.861  11.122
72425W        W36182  32.519  41.937   1.306
72426W        W36183  36.959   6.276  10.972
72427W        W36184  40.834   7.708   2.890
72428W        W36185  14.164  44.777  14.859
72429W        W36186  15.220  24.618  11.537
72430W        W36187  17.641  26.554  12.432
72431W        W36188  42.338  17.170  14.896
72432W        W36189  25.706  33.105   4.186
72433W        W36190  23.572  11.831  11.026
72434W        W36191  40.925  35.493   0.396
72435W        W36192  43.783  34.415   0.727
72436W        W36193  17.256  14.598   3.361
72437W        W36194  12.139  44.298   0.275
72438W        W36195  14.140   9.357  13.950
72439W        W36196  16.698  18.734  14.932
72440W        W36197   6.233  16.765   1.218
72441W        W36198   7.285   5.238  14.781
72442W        W36199  10.694   3.852  10.425
72443W        W36200  35.996  15.091   3.753
72444W        W36201  17.651  11.844  12.060
72445W        W36202  44.958  26.166   4.267
72446W        W36203   7.778  40.407  12.351
72447W        W36204  44.291  17.614  12.911
72448W        W36205   6.220  40.852  10.473
72449W        W36206  18.233  18.719   0.930
72450W        W36207  26.951  36.593   2.834
72451W        W36208  43.405  27.066  12.474
72452W        W36209   9.245  34.595  10.524
72453W        W36210  15.163  18.159  14.326
72454W        W36211  16.688  32.594  14.003
72455W        W36212  23.698   3.253   4.754
72456W        W36213  23.103  32.509  11.458
72457W        W36214  38.928  24.515   4.620
72458W        W36215  25.632   0.360  11.003
72459W        W36216   0.454   5.289   3.788
72460W        W36217  42.968   8.732  12.538
72461W        W36218   2.388   7.320  11.483
72462W        W36219   3.426  42.857  12.032
72463W        W36220  14.156  14.605  10.454
72464W        W36221   8.798   0.980   5.261
72465W        W36222  38.920  21.226   4.748
72466W        W36223   3.381  35.398  11.878
72467W        W36224  14.130  42.446   2.189
72468W        W36225  35.477  29.633   5.302
72469W        W36226  20.599  41.030   2.735
72470W        W36227  34.906  31.457   3.817
72471W        W36228  32.540  41.354   3.737
72472W        W36229  31.585  39.416   3.318
72473W        W36230   9.218  15.672  12.993
72474W        W36231  40.945  34.435   4.712
72475W        W36232  44.326  16.095   1.792
72476W        W36233  29.501   5.885   0.469
72477W        W36234  21.722  26.621   4.176
72478W        W36235   3.937   2.244   3.373
72479W        W36236  32.030  18.641  11.871
72480W        W36237   2.860  17.704   1.300
72481W        W36238  25.678  16.131  11.928
72482W        W36239  26.189  18.668   2.732
72483W        W36240  11.853  23.152  14.857
72484W        W36241  14.627  16.810   3.666
72485W        W36242   1.901  32.967   1.697
72486W        W36243  22.007   4.286  12.047
72487W        W36244  30.426  11.750  12.512
72488W        W36245  27.512  41.486   1.257
72489W        W36246  28.514  24.033  10.585
72490W        W36247  11.708  42.853  11.372
72491W        W36248   4.229  23.159  11.509
72492W        W36249  39.364  40.459   0.798
72493W        W36250  18.097  39.391   4.607
72494W        W36251  22.138  42.398  11.520
72495W        W36252  10.285   8.867  13.850
72496W        W36253  33.481  11.780  10.621
72497W        W36254  28.980  40.313  10.898
72498W        W36255  33.424  21.145   2.837
72499W        W36256  12.837  36.363   1.934
72500W        W36257  29.151  17.227  11.096
72501W        W36258  33.958  19.234  10.633
72502W        W36259  21.714  39.346   1.716
72503W        W36260  39.522  22.028  13.451
72504W        W36261  25.985  10.813   4.643
72505W        W36262  41.016  12.779   4.649
72506W        W36263  44.400  33.519  11.091
72507W        W36264  33.997  24.599   0.965
72508W        W36265  33.999  12.328   2.333
72509W        W36266   5.757   5.244  12.887
72510W        W36267   9.286  23.167   3.869
72511W        W36268   0.854  32.037   4.727
72512W        W36269   4.851  25.667   0.819
72513W        W36270  42.822  39.037   1.694
72514W        W36271  36.559  31.906   0.347
72515W        W36272  41.447   7.740   4.658
72516W        W36273  26.488  44.969   3.192
72517W        W36274   5.889   2.436   4.287
72518W        W36275  20.148  14.116  13.950
72519W        W36276  10.260  36.009   2.308
72520W        W36277   9.290   7.802   1.781
72521W        W36278  24.203   3.252  11.888
72522W        W36279  36.371  43.893   2.668
72523W        W36280   5.221  34.488   2.306
72524W        W36281  36.895  18.142   2.752
72525W        W36282   2.457  34.599  14.474
72526W        W36283   7.256   0.484  14.876
72527W        W36284  17.162   2.835   9.943
72528W        W36285   9.804  31.448   0.243
72529W        W36286  25.063   9.807   1.898
72530W        W36287   3.303  39.456   1.778
72531W        W36288   2.829  23.695  11.554
72532W        W36289  37.455  32.983   3.865
72533W        W36290   6.223  29.948  13.917
72534W        W36291  25.996   6.823   2.255
72535W        W36292  17.261   0.833  12.873
72536W        W36293   6.260   3.385   5.084
72537W        W36294  38.896   8.685  10.626
72538W        W36295  27.017  12.640  13.415
72539W        W36296  12.175  11.660  13.399
72540W        W36297  32.002  19.575   0.765
72541W        W36298  43.384  39.440   3.191
72542W        W36299  17.288  24.481   3.850
72543W        W36300  40.454   2.453   1.903
72544W        W36301   0.418   4.411   4.312
72545W        W36302  31.139  27.159   0.245
72546W        W36303   7.822  38.834  11.940
72547W        W36304  35.602  42.889  14.980
72548W        W36305  35.957  40.821   2.355
72549W        W36306   6.874  23.537  11.961
72550W        W36307  44.385   1.248  14.395
72551W        W36308   6.314  21.256   1.871
72552W        W36309  34.080  42.393   2.897
72553W        W36310  41.529  10.699   4.687
72554W        W36311  43.379  34.879  11.523
72555W        W36312  27.481  18.698  13.967
72556W        W36313   6.271   1.347  13.895
72557W        W36314  24.057  33.047  11.994
72558W        W36315  18.193  28.617  13.044
72559W        W36316  10.166  24.520  12.966
72560W        W36317  40.329  34.473   2.843
72561W        W36318   8.708   2.756   2.690
72562W        W36319   5.692  22.533   0.352
72563W        W36320  11.803  12.833   2.335
72564W        W36321  41.870  29.532   0.323
72565W        W36322  30.611  34.052  14.470
72566W        W36323  24.633  20.551  12.047
72567W        W36324  15.644  23.621  13.493
72568W        W36325  16.626  18.267  10.541
72569W        W36326  33.594  27.020  11.964
72570W        W36327  32.000  30.155  13.059
72571W        W36328  29.095  31.489   3.861
72572W        W36329  37.922   7.336  11.050
72573W        W36330  19.177   7.411   3.629
72574W        W36331  11.802  10.673   2.757
72575W        W36332  14.255  31.896  13.831
72576W        W36333  13.322  23.651  10.479
72577W        W36334   7.317   1.436   1.246
72578W        W36335  24.094  10.697  11.956
72579W        W36336   7.353  39.440  11.936
72580W        W36337   4.397  40.357   2.372
72581W        W36338  38.475  29.007   4.217
72582W        W36339   3.800  36.065   5.140
72583W        W36340  33.395   3.722  14.428
72584W        W36341  28.529  26.176   4.811
72585W        W36342   4.716   8.261   5.238
72586W        W36343   3.227  39.816   1.431
72587W        W36344  11.803  22.251   0.891
72588W        W36345  15.712  27.681   1.840
72589W        W36346  15.583  33.892  14.439
72590W        W36347  37.064  17.606   3.168
72591W        W36348  20.758  44.762  14.295
72592W        W36349  30.627  36.980  13.513
72593W        W36350  29.556  10.196  13.430
72594W        W36351  27.655  35.437   3.720
72595W        W36352  12.834  22.132   0.464
72596W        W36353  14.218  32.086  14.916
72597W        W36354  35.947   1.866  13.453
72598W        W36355  28.949  15.715  13.413
72599W        W36356  19.243   1.941  10.589
72600W        W36357  32.962   8.209   1.408
72601W        W36358  20.730   3.257  11.023
72602W        W36359   6.353  36.936  12.844
72603W        W36360  37.006   5.786  10.541
72604W        W36361  31.948   6.827  11.384
72605W        W36362  18.152  42.310  12.433
72606W        W36363  10.372  25.545   1.231
72607W        W36364  32.016  21.020   0.331
72608W        W36365  43.447   4.223  12.949
72609W        W36366   9.792  33.066   1.267
72610W        W36367  27.185  20.603   9.609
72611W        W36368   2.733  33.959   2.838
72612W        W36369  37.510  27.478  13.999
72613W        W36370  38.396  10.313  12.501
72614W        W36371   7.810  39.820  10.930
72615W        W36372  37.944   0.933   4.283
72616W        W36373  43.895  26.155   2.412
72617W        W36374  16.742  25.551  14.319
72618W        W36375  18.669  36.504  14.785
72619W        W36376  43.336   7.765  10.549
72620W        W36377  30.992  24.540   1.798
72621W        W36378  31.437  15.128   1.268
72622W        W36379  20.245   9.732  11.411
72623W        W36380   8.900  25.517  13.866
72624W        W36381  30.023  22.731   2.672
72625W        W36382  16.649   9.671   1.767
72626W        W36383  10.295  32.418   1.742
72627W        W36384  12.834  40.809   4.644
72628W        W36385  15.230  37.536   0.847
72629W        W36386  18.112   4.423   2.850
72630W        W36387  32.540  34.015  14.455
72631W        W36388  28.471   6.762  11.550
72632W        W36389   0.776  34.932   0.826
72633W        W36390  32.597   2.436  12.933
72634W        W36391  41.530   2.454  13.014
72635W        W36392  10.222   3.322  14.009
72636W        W36393  42.372  26.134   2.212
72637W        W36394  32.576   2.465   1.916
72638W        W36395   0.491   6.213  14.945
72639W        W36396  30.017  18.556   2.297
72640W        W36397  16.721  10.330  13.361
72641W        W36398  19.279  31.992   4.327
72642W        W36399  27.469  30.652  10.435
72643W        W36400  28.116  18.614   3.671
72644W        W36401  23.634  24.546  14.963
72645W        W36402  27.604  33.925   4.118
72646W        W36403   6.775  30.542   1.369
72647W        W36404  12.206  30.915   3.192
72648W        W36405  33.480   5.320  10.981
72649W        W36406   1.914  11.784  11.048
72650W        W36407  41.469  42.367   1.263
72651W        W36408  34.960  39.863   4.166
72652W        W36409  25.644  26.149  11.006
72653W        W36410  20.574  14.630   3.632
72654W        W36411   7.843  11.357   4.268
72655W        W36412  32.919  15.656   1.883
72656W        W36413  25.638  21.031  14.288
72657W        W36414  32.391  11.745   3.217
72658W        W36415  35.002  40.957   1.839
72659W        W36416   5.688  37.837  13.032
72660W        W36417  24.694  34.093   4.733
72661W        W36418   1.970  38.533   0.963
72662W        W36419  27.098  25.469   0.335
72663W        W36420   9.284  43.794  13.937
72664W        W36421  44.828  35.902  10.633
72665W        W36422  29.653  20.728   2.333
72666W        W36423  21.691  31.542  14.342
72667W        W36424  11.660  34.540  14.336
72668W        W36425  38.346  40.312   1.418
72669W        W36426  19.639  16.789   1.899
72670W        W36427  11.640  33.624   1.899
72671W        W36428  30.501   9.721   1.328
72672W        W36429  30.557  28.503   0.958
72673W        W36430  23.139  37.074  11.495
72674W        W36431  11.374  25.507   2.844
72675W        W36432  41.495  32.963  12.341
72676W        W36433   9.290  19.086  12.499
72677W        W36434  21.037  21.610  12.873
72678W        W36435   4.813  33.035   3.168
72679W        W36436   7.351   1.240  13.868
72680W        W36437  25.493  30.518   1.839
72681W        W36438  42.496  44.869   0.337
72682W        W36439  41.404  24.565   4.134
72683W        W36440   5.882  23.077   0.766
72684W        W36441   2.809  33.409   0.398
72685W        W36442  25.487  22.742  13.944
72686W        W36443   9.793  21.511   1.842
72687W        W36444  36.067  33.115  11.915
72688W        W36445  34.415  30.922   1.380
72689W        W36446  18.669  16.274   2.257
72690W        W36447   4.265  35.560   0.902
72691W        W36448  41.813  12.741   1.743
72692W        W36449  29.595   9.233   2.327
72693W        W36450  18.599  35.390   2.886
72694W        W36451  36.072  14.175  12.435
72695W        W36452  28.061  37.358  11.929
72696W        W36453  36.432  21.736  11.109
72697W        W36454  42.418  43.375  12.924
72698W        W36455  27.961  29.123   0.807
72699W        W36456   4.358   8.186  13.410
72700W        W36457  32.609   9.831  14.769
72701W        W36458  13.829  30.506   0.872
72702W        W36459   0.307  14.147   1.354
72703W        W36460   5.324  13.208   4.642
72704W        W36461   6.903  29.996   3.777
72705W        W36462  27.490  32.921  11.563
72706W        W36463   1.872  40.914   3.760
72707W        W36464   8.222  10.753  13.506
72708W        W36465  15.161  35.530   0.965
72709W        W36466  21.534  30.139   2.828
72710W        W36467  22.561  42.346  13.826
72711W        W36468  19.691  37.371   3.339
72712W        W36469  43.913  40.462   2.703
72713W        W36470  13.192  42.483   5.250
72714W        W36471   2.912  25.475   3.379
72715W        W36472  11.200  41.808  12.063
72716W        W36473   9.726  16.638  11.922
72717W        W36474  22.578  18.615  14.352
72718W        W36475  35.956  20.096  14.327
72719W        W36476  42.931  12.768  11.590
72720W        W36477   3.306  14.645   5.149
72721W        W36478  43.285  26.536  11.524
72722W        W36479  28.070  32.958  13.505
72723W        W36480  41.826   9.753   2.857
72724W        W36481  28.002   9.228   1.881
72725W        W36482  25.539  11.307   4.756
72726W        W36483  12.823  19.240  10.887
72727W        W36484  10.347  13.839  13.548
72728W        W36485  39.377  21.073  13.534
72729W        W36486  31.470  10.793   0.475
72730W        W36487   5.374  11.304   4.122
72731W        W36488  41.532  17.635  10.908
72732W        W36489   9.780  40.037   3.208
72733W        W36490   2.251  12.350   2.318
72734W        W36491  36.088  18.760   4.130
72735W        W36492  30.912  14.609  10.031
72736W        W36493  29.986  15.807   5.741
72737W        W36494  38.981  18.268  10.061
72738W        W36495   2.253  24.121   1.345
72739W        W36496  24.694  14.612   4.641
72740W        W36497   2.726   8.184   0.830
72741W        W36498   3.856  42.968   2.698
72742W        W36499   2.401   7.368   1.427
72743W        W36500  35.948  44.398   1.699
72744W        W36501  36.476  36.968   0.799
72745W        W36502  28.985  43.992  12.990
72746W        W36503   7.850  42.502  11.914
72747W        W36504  18.604  28.003  11.442
72748W        W36505  18.224  27.152  13.483
72749W        W36506  43.454   0.899  13.047
72750W        W36507  17.166  12.288   5.154
72751W        W36508  30.555  35.590  10.977
72752W        W36509  10.194  15.104   1.295
72753W        W36510  30.907  13.124   4.294
72754W        W36511   9.702  23.031   1.786
72755W        W36512   3.915   6.409   1.390
72756W        W36513   2.773  20.642   3.170
72757W        W36514   9.786  13.619  13.393
72758W        W36515  22.147  32.898  14.788
72759W        W36516  23.542  29.461  14.862
72760W        W36517  35.396  20.147  10.544
72761W        W36518  44.259  20.674  13.062
72762W        W36519  19.780   1.854   3.385
72763W        W36520  21.542   2.919   1.384
72764W        W36521  14.671  25.216  10.973
72765W        W36522  37.523  42.957   5.227
72766W        W36523  17.721   5.843   1.265
72767W        W36524  11.777  17.675   3.339
72768W        W36525  34.492  12.243  10.505
72769W        W36526  40.942  18.778  12.431
72770W        W36527  14.801   6.690  11.597
72771W        W36528   7.846   3.399  13.020
72772W        W36529  29.652  26.616   2.822
72773W        W36530  28.960  35.566  13.023
72774W        W36531  12.810   0.257  12.035
72775W        W36532  38.351  18.097   3.146
72776W        W36533   1.327  43.978  12.424
72777W        W36534  33.132  26.524   1.231
72778W        W36535   1.828  34.609  13.431
72779W        W36536  27.528  20.721  12.547
72780W        W36537  41.868  20.743   2.780
72781W        W36538  22.621  16.810  12.422
72782W        W36539  29.521  33.879  13.404
72783W        W36540  41.901  26.570  13.026
72784W        W36541   7.681  10.263  13.344
72785W        W36542  41.532  34.510  14.017
72786W        W36543  41.959  39.058   0.266
72787W        W36544  38.873  34.917   0.837
72788W        W36545  34.978   5.385  13.888
72789W        W36546  23.660  42.355   4.835
72790W        W36547  24.535  32.568   0.787
72791W        W36548  10.313  18.736   3.322
72792W        W36549   2.369  14.154   5.172
72793W        W36550  20.647  44.914   0.443
72794W        W36551  40.466   2.744   3.153
72795W        W36552  38.049  17.560   4.788
72796W        W36553  33.044  33.522   3.717
72797W        W36554   2.422  16.572   2.843
72798W        W36555   4.870  30.946  12.559
72799W        W36556  32.514   1.306   3.307
72800W        W36557  26.669  42.026  11.926
72801W        W36558  32.897  42.393   2.900
72802W        W36559  40.819  10.835   0.416
72803W        W36560  26.570   2.299   0.882
72804W        W36561  43.432  11.131  10.991
72805W        W36562  42.933   9.231  11.585
72806W        W36563  27.448   4.308   0.769
72807W        W36564   0.884  23.551  11.857
72808W        W36565  29.536  26.082   3.321
72809W        W36566  34.938  35.375  11.908
72810W        W36567  19.169  18.757  10.962
72811W        W36568   8.855  17.063  12.498
72812W        W36569  15.653  18.124   9.971
72813W        W36570  17.560  24.554   0.405
72814W        W36571  10.156   9.186   0.754
72815W        W36572  40.936  10.351  11.920
72816W        W36573  40.812   5.429  10.437
72817W        W36574  17.253  38.984  11.509
72818W        W36575  31.034  19.638  14.393
72819W        W36576  42.991  18.258   1.712
72820W        W36577  43.775  33.528   2.356
72821W        W36578  33.080  39.454   3.691
72822W        W36579  44.378   0.954  14.867
72823W        W36580  16.662  36.459  13.957
72824W        W36581   4.839  12.164   0.960
72825W        W36582  29.970  12.834  12.950
72826W        W36583  40.946  19.278   0.879
72827W        W36584  41.389   5.426   4.217
72828W        W36585  40.972  21.580  12.990
72829W        W36586  24.658  15.684   2.381
72830W        W36587  18.664  16.175   3.768
72831W        W36588   7.396   7.311   0.249
72832W        W36589   8.768  25.173  13.434
72833W        W36590   4.311  33.965  11.482
72834W        W36591   9.307   7.694   0.427
72835W        W36592   5.726  30.600   4.760
72836W        W36593  42.775  30.052   4.732
72837W        W36594  23.663  21.251   0.767
72838W        W36595  23.213  15.692   0.870
72839W        W36596  30.487   6.354   3.849
72840W        W36597  34.558   0.492   2.737
72841W        W36598  38.977  37.544   4.804
72842W        W36599   2.413  33.397  13.993
72843W        W36600  43.786   7.721  14.774
72844W        W36601   1.306  36.502   2.857
72845W        W36602   7.788   2.933   3.816
72846W        W36603  40.424  19.068   1.870
72847W        W36604  17.293   3.835   1.286
72848W        W36605  19.670   5.384  11.109
72849W        W36606  25.198  27.150   3.783
72850W        W36607  22.643  25.149  13.802
72851W        W36608  31.580  28.930  13.961
72852W        W36609  38.832  28.675  14.341
72853W        W36610  24.705   1.751   3.753
72854W        W36611  15.580  17.746  13.321
72855W        W36612  23.551   9.765   2.897
72856W        W36613  34.461  37.376  11.487
72857W        W36614   1.974  32.141   1.396
72858W        W36615  21.213  22.024  13.993
72859W        W36616  25.559  43.865  12.880
72860W        W36617  16.684  22.512  10.463
72861W        W36618  37.375  33.098   9.932
72862W        W36619  33.553  11.707  11.515
72863W        W36620  27.120  28.443   3.214
72864W        W36621  26.161  10.640  12.069
72865W        W36622  36.457  40.951  14.027
72866W        W36623  10.666  31.581  14.383
72867W        W36624  29.475  42.834   4.343
72868W        W36625  13.732  33.877   4.177
72869W        W36626  27.586  31.501  14.792
72870W        W36627  14.618  19.590   5.314
72871W        W36628  28.531  35.539   2.896
72872W        W36629   4.396   7.318  13.939
72873W        W36630  37.545  23.528   4.725
72874W        W36631  20.541   0.962   3.178
72875W        W36632  12.282   9.368  13.829
72876W        W36633  29.161  22.607   1.924
72877W        W36634  38.829  27.945  12.569
72878W        W36635  23.542   7.685   1.299
72879W        W36636   3.272   5.927   1.326
72880W        W36637  31.068  19.179   2.191
72881W        W36638  15.328   0.759  14.962
72882W        W36639  39.398   5.302   3.284
72883W        W36640  14.647   5.367  12.562
72884W        W36641  36.086  31.142   0.955
72885W        W36642  39.037  23.491  12.855
72886W        W36643  21.060  40.837  12.532
72887W        W36644  22.631  29.514  11.969
72888W        W36645  19.611  23.007   0.839
72889W        W36646  14.275  15.619   4.646
72890W        W36647  39.472   6.707   3.264
72891W        W36648  31.933  23.039   0.870
72892W        W36649  25.062  34.587   0.767
72893W        W36650  41.904  16.684  10.940
72894W        W36651   7.684   3.378   0.445
72895W        W36652  32.885  34.956  12.991
72896W        W36653  42.472   6.744  12.540
72897W        W36654  31.908   8.311  11.877
72898W        W36655  30.446  19.555  12.950
72899W        W36656  38.341  35.414  13.824
72900W        W36657  37.844  28.518   3.634
72901W        W36658  16.576  44.295   3.169
72902W        W36659  20.650   2.232   1.920
72903W        W36660  25.691  31.644   3.254
72904W        W36661  11.815  23.043   3.723
72905W        W36662  23.505  29.609   2.370
72906W        W36663  15.139  25.628   3.659
72907W        W36664  44.443  37.947  12.883
72908W        W36665  37.362   5.288  10.545
72909W        W36666  13.828   7.415   1.211
72910W        W36667   7.361  26.087   4.782
72911W        W36668  44.268  10.168   5.133
72912W        W36669  20.523  33.085  13.523
72913W        W36670  21.211  17.585   3.844
72914W        W36671  20.197  10.875   0.479
72915W        W36672  11.156  37.375   1.326
72916W        W36673  32.110   9.881   1.295
72917W        W36674  40.521  14.824   3.310
72918W        W36675   0.258  44.386   3.209
72919W        W36676  19.575   1.863  12.833
72920W        W36677   9.207   7.293  12.487
72921W        W36678  44.772  11.333   3.864
72922W        W36679   5.406  24.665   2.739
72923W        W36680   4.760  37.563  11.023
72924W        W36681   1.790   3.375  13.523
72925W        W36682  31.954  12.196   2.385
72926W        W36683  16.088   1.878   3.254
72927W        W36684  12.762  14.325   2.829
72928W        W36685   9.379  37.470  12.367
72929W        W36686  37.836  41.433   4.751
72930W        W36687  14.673  16.315   0.921
72931W        W36688  41.421  21.692  12.963
72932W        W36689   8.874   4.815   0.320
72933W        W36690  15.112   1.755  13.900
72934W        W36691  15.201   2.381  10.134
72935W        W36692   1.971  27.652  13.846
72936W        W36693  41.848  28.670  12.920
72937W        W36694   3.376  38.558  11.512
72938W        W36695  24.648   9.353   0.298
72939W        W36696  33.537  25.685  13.545
72940W        W36697   9.651  36.484   4.737
72941W        W36698  40.402  38.986  13.798
72942W        W36699  38.473  24.992   4.764
72943W        W36700   0.444   3.746   2.371
72944W        W36701  12.212  43.816   4.250
72945W        W36702  33.515  16.085  11.076
72946W        W36703  44.974  19.195  12.040
72947W        W36704   2.356  32.973   1.916
72948W        W36705   1.480  17.169   4.669
72949W        W36706  39.491  13.188   4.349
72950W        W36707  42.982  43.797  14.297
72951W        W36708  42.425  43.300   4.793
72952W        W36709   4.354  34.591   3.772
72953W        W36710  40.945  29.929   3.273
72954W        W36711  22.243   9.709   1.715
72955W        W36712   6.220  13.136   1.425
72956W        W36713  30.429   0.488  10.529
72957W        W36714  31.476   9.388  14.288
72958W        W36715   6.225  10.308   0.412
72959W        W36716  41.324   6.231   5.293
72960W        W36717   6.871   3.787  13.526
72961W        W36718  17.290  37.994  12.961
72962W        W36719  34.979   5.421   4.823
72963W        W36720  14.325  30.598  11.085
72964W        W36721  31.969  41.009   2.743
72965W        W36722   4.268  25.004   1.245
72966W        W36723  20.250   5.235  10.938
72967W        W36724   8.205  14.629   1.415
72968W        W36725  14.747  36.079   2.790
72969W        W36726  22.600  40.428   4.234
72970W        W36727  19.604   5.379   0.759
72971W        W36728  37.925  42.798  10.491
72972W        W36729  11.648  42.300   2.205
72973W        W36730  25.994  22.608   1.731
72974W        W36731  37.953  17.250  13.519
72975W        W36732  13.761  18.067  11.505
72976W        W36733  39.026  14.763  14.902
72977W        W36734  39.881  23.072   2.831
72978W        W36735  21.238  18.161  12.470
72979W        W36736  16.234   7.907   4.333
72980W        W36737  21.628  41.400   3.169
72981W        W36738  33.564  44.388   1.249
72982W        W36739   1.298  23.172  12.547
72983W        W36740   5.319  40.411   9.956
72984W        W36741  36.023  22.067   2.874
72985W        W36742  43.000   8.675   3.835
72986W        W36743  13.302  40.431  13.453
72987W        W36744  24.707   6.799   1.217
72988W        W36745  13.176   1.354  13.811
72989W        W36746   0.407  35.504   3.311
72990W        W36747  40.313   0.983  12.082
72991W        W36748  44.371  26.157  12.401
72992W        W36749  42.838  36.445   2.722
72993W        W36750   5.689  26.544  13.330
72994W        W36751  29.079  23.577   9.976
72995W        W36752   1.960  43.433   0.778
72996W        W36753  20.735   4.815  11.066
72997W        W36754  10.245  16.622   0.465
72998W        W36755  17.561  35.916   2.397
72999W        W36756  42.924  41.841   3.238
73000W        W36757  37.555   8.391  12.088
73001W        W36758  14.253   2.379   4.698
73002W        W36759   9.790   9.388  13.952
73003W        W36760  34.586   9.234   0.314
73004W        W36761  19.733  36.460   4.598
73005W        W36762  16.085  26.191  14.472
73006W        W36763  17.688   4.927   4.708
73007W        W36764  23.125   2.740   1.215
73008W        W36765  14.649  21.064  10.097
73009W        W36766  31.003  40.326   0.471
73010W        W36767   4.751   6.415  14.006
73011W        W36768  11.316  20.048  11.588
73012W        W36769   6.901  22.199  11.508
73013W        W36770  35.085  11.225   0.410
73014W        W36771  29.431  33.466   1.837
73015W        W36772  16.767  22.229  12.540
73016W        W36773  25.975  25.077  10.887
73017W        W36774  40.935  26.082   1.408
73018W        W36775   1.311  41.799   1.363
73019W        W36776  38.034   6.417   3.703
73020W        W36777  21.665  40.869   3.686
73021W        W36778  17.284  12.186   0.367
73022W        W36779   6.253   2.742  14.317
73023W        W36780  29.174  43.395   3.341
73024W        W36781  14.252  30.949   2.860
73025W        W36782   3.452  12.242   2.881
73026W        W36783  34.904  36.929   0.423
73027W        W36784  16.147  31.127  13.345
73028W        W36785   5.414   0.401   2.787
73029W        W36786  27.660  30.928  10.479
73030W        W36787  24.604  42.383   0.908
73031W        W36788   5.930  19.125  11.126
73032W        W36789   7.334  40.834  13.822
73033W        W36790  11.666  33.527  10.445
73034W        W36791  28.118   9.335  14.515
73035W        W36792   6.306  35.869  14.883
73036W        W36793  33.486  23.224   0.476
73037W        W36794  31.103  36.509  10.642
73038W        W36795  30.117  11.176  14.010
73039W        W36796   6.732   5.688  11.918
73040W        W36797  23.111  17.730   3.171
73041W        W36798  31.923  27.942  14.425
73042W        W36799  42.379   9.368  13.527
73043W        W36800  10.335   5.425  12.065
73044W        W36801  33.484  15.586  12.471
73045W        W36802  20.076  26.488  11.045
73046W        W36803  38.897  11.663   2.829
73047W        W36804   3.393  12.796   0.862
73048W        W36805  29.009   9.879  10.500
73049W        W36806  39.434  17.709  12.390
73050W        W36807  25.195  42.906   4.730
73051W        W36808   9.737  29.464   1.416
73052W        W36809  10.762  25.602  13.542
73053W        W36810   0.887  21.017  14.465
73054W        W36811  15.089  32.459   4.344
73055W        W36812  44.837  25.552   0.778
73056W        W36813   2.813  24.718  14.900
73057W        W36814   9.330   9.888  11.104
73058W        W36815  40.334  13.233   1.282
73059W        W36816  34.431   9.737   4.251
73060W        W36817  22.202  33.539  11.969
73061W        W36818  35.530  24.182  10.468
73062W        W36819  39.878  18.227   4.233
73063W        W36820  23.569  18.585   4.346
73064W        W36821   6.854  34.028  10.918
73065W        W36822  33.398  32.443   3.154
73066W        W36823  32.572  30.961  13.444
73067W        W36824  12.217  22.117  12.894
73068W        W36825  37.071   6.399  13.482
73069W        W36826   3.219   7.748   0.862
73070W        W36827  37.847  27.948   2.733
73071W        W36828  41.852  28.998   4.782
73072W        W36829  23.022  43.837  10.914
73073W        W36830  37.415   0.275   4.120
73074W        W36831   5.934  21.651  11.889
73075W        W36832  34.567  30.972  13.453
73076W        W36833   1.329  38.438   0.832
73077W        W36834  11.822  11.726   2.233
73078W        W36835   1.268  35.997   1.319
73079W        W36836  43.368  40.989  11.410
73080W        W36837   4.276  15.089  14.449
73081W        W36838  39.950  41.031  14.466
73082W        W36839  22.212  40.461   2.697
73083W        W36840  27.158  13.814  14.794
73084W        W36841  28.993   4.877   2.732
73085W        W36842  23.572   8.770   3.767
73086W        W36843   1.414  37.419   1.768
73087W        W36844   7.833  18.182   1.804
73088W        W36845  24.216  29.587   0.838
73089W        W36846  18.713  36.935  12.418
73090W        W36847   2.344  44.436  12.511
73091W        W36848  31.065   7.848   0.259
73092W        W36849   0.302   6.780  12.518
73093W        W36850  12.845  24.976  13.006
73094W        W36851   1.271  28.497   0.964
73095W        W36852  20.534   5.432  10.467
73096W        W36853  44.775   4.774  13.482
73097W        W36854  33.387  31.960  12.446
73098W        W36855  18.288  25.086  13.014
73099W        W36856  24.639  25.969  13.914
73100W        W36857  25.044  44.268   0.967
73101W        W36858  43.277  39.466   4.337
73102W        W36859  16.674  15.090  11.416
73103W        W36860  27.545  25.107  12.851
73104W        W36861  14.740  43.849  11.127
73105W        W36862  16.238  35.074   0.284
73106W        W36863  44.820  10.239   4.809
73107W        W36864  41.453  25.508  11.551
73108W        W36865  32.630  23.615  10.606
73109W        W36866  17.619  11.253   2.413
73110W        W36867  38.065  34.507  11.596
73111W        W36868  25.564   0.410   0.378
73112W        W36869  28.550  24.159  14.008
73113W        W36870   8.294  16.087   2.857
73114W        W36871  34.954  17.556   3.289
73115W        W36872  25.999  26.465   2.371
73116W        W36873  41.298  20.084  13.043
73117W        W36874  18.292   0.418  13.386
73118W        W36875  42.328  35.562   1.238
73119W        W36876  32.494  18.620  13.370
73120W        W36877  41.321  43.876   0.281
73121W        W36878  28.533  42.324  12.402
73122W        W36879  26.557  25.515   0.804
73123W        W36880  43.414  22.542  13.803
73124W        W36881  11.865  18.680   4.127
73125W        W36882  23.999   5.289  11.107
73126W        W36883  31.080  27.167  13.051
73127W        W36884  13.809  39.812   0.246
73128W        W36885  14.749   3.755  14.511
73129W        W36886  35.064   1.860   5.214
73130W        W36887   1.282  39.376  12.867
73131W        W36888   1.264  34.031  13.363
73132W        W36889  34.010  15.112  11.054
73133W        W36890  26.686  42.363   1.295
73134W        W36891   4.431   4.446   3.250
73135W        W36892  30.511  30.497   2.770
73136W        W36893  14.334  33.038  12.465
73137W        W36894   9.677   8.167  13.843
73138W        W36895  37.348  23.236   2.720
73139W        W36896  27.955   4.827  13.877
73140W        W36897  33.010   1.800   3.783
73141W        W36898  33.609  29.669   1.822
73142W        W36899  23.608   8.402  12.906
73143W        W36900   8.231   7.315  12.490
73144W        W36901   8.280  17.761   4.303
73145W        W36902   6.766  39.558   3.367
73146W        W36903  32.582  20.685   0.740
73147W        W36904   7.772  40.501  11.602
73148W        W36905  18.126  14.208   2.733
73149W        W36906  42.799  30.912  10.545
73150W        W36907  39.357  33.911   0.727
73151W        W36908  26.473  35.906  13.350
73152W        W36909  25.517  13.708   1.775
73153W        W36910  27.120  38.368   3.709
73154W        W36911   4.744  28.131  13.991
73155W        W36912  11.867   2.319  12.493
73156W        W36913  34.414  30.604  14.976
73157W        W36914  30.986   4.707   4.214
73158W        W36915  40.909  39.541   2.819
73159W        W36916  27.466   0.759  10.547
73160W        W36917  37.538   4.216   2.418
73161W        W36918  33.927  36.909   3.385
73162W        W36919  18.739  36.553   1.331
73163W        W36920  23.201  19.055   3.719
73164W        W36921  14.681   1.798   0.478
73165W        W36922  36.471  12.626   0.297
73166W        W36923  32.624  21.673   3.862
73167W        W36924  29.627  26.157   4.725
73168W        W36925  30.975   1.237   4.662
73169W        W36926  44.405  15.756   4.265
73170W        W36927  37.565  41.435   4.347
73171W        W36928   9.217  40.973  11.372
73172W        W36929  40.867   4.846  12.869
73173W        W36930  15.133  12.290   1.368
73174W        W36931   0.850  20.153  10.976
73175W        W36932   2.328   0.492  14.448
73176W        W36933   1.810  35.439   4.186
73177W        W36934   2.908  35.882   3.819
73178W        W36935  36.364  18.124  11.862
73179W        W36936  12.717  39.362  11.547
73180W        W36937  25.176  22.505   3.337
73181W        W36938  11.867  18.185  10.514
73182W        W36939  32.991  12.327  10.452
73183W        W36940  25.712  33.890   2.412
73184W        W36941   6.330  26.590   1.450
73185W        W36942  11.177  44.858  12.464
73186W        W36943  10.855  30.563   0.942
73187W        W36944  35.977  31.590  14.309
73188W        W36945  21.238   1.914   4.223
73189W        W36946  12.252  38.889  11.042
73190W        W36947  15.627  18.242  10.622
73191W        W36948  11.681   0.486  11.035
73192W        W36949  26.611   5.783   4.152
73193W        W36950  30.976  27.506   0.916
73194W        W36951  34.597  10.656   0.908
73195W        W36952   7.904   8.757  12.369
73196W        W36953  20.705  20.197   4.737
73197W        W36954  42.914  19.582  12.560
73198W        W36955  11.687  40.427  14.923
73199W        W36956  21.517  33.109   4.671
73200W        W36957  32.958  22.118   3.652
73201W        W36958  16.735   1.873   2.283
73202W        W36959   6.228  41.489  11.000
73203W        W36960  27.640  41.496   4.181
73204W        W36961  14.291  28.149   4.832
73205W        W36962  40.808   4.270   4.285
73206W        W36963  44.284   4.897  14.829
73207W        W36964  29.066  22.032   4.153
73208W        W36965  14.658  24.551  11.374
73209W        W36966   7.880   7.412   3.869
73210W        W36967   0.881  31.097  10.484
73211W        W36968  26.699  34.426  10.027
73212W        W36969  14.140  43.413  10.889
73213W        W36970  16.122  20.229   1.286
73214W        W36971   5.809  41.532  11.539
73215W        W36972   0.905  42.873  12.991
73216W        W36973  34.870  12.208  11.563
73217W        W36974  42.011  36.512   2.284
73218W        W36975  15.615   3.220  13.832
73219W        W36976   5.385   4.775   4.702
73220W        W36977  34.593  22.625   0.759
73221W        W36978  37.037  31.966   2.229
73222W        W36979   7.869  25.152   3.856
73223W        W36980   0.491  22.699   0.730
73224W        W36981  35.507  27.454   3.310
73225W        W36982  27.955  26.511  11.519
73226W        W36983  18.172  16.111   1.845
73227W        W36984  24.538  24.221  12.408
73228W        W36985  36.593   6.763  11.007
73229W        W36986  32.131   7.276   1.921
73230W        W36987   3.327  23.231  14.475
73231W        W36988  41.394  33.127  11.053
73232W        W36989   6.348  40.980   4.174
73233W        W36990  41.968   7.702  13.965
73234W        W36991  37.498  41.960   3.640
73235W        W36992  33.413  18.587  14.984
73236W        W36993  21.037  38.363   0.754
73237W        W36994  41.528  32.078   2.376
73238W        W36995  23.600   8.267   0.472
73239W        W36996  33.053  10.384   2.887
73240W        W36997  33.585   8.306  14.385
73241W        W36998  17.306  10.371   4.810
73242W        W36999  43.865   5.918   4.144
73243W        W37000  42.834  15.770  12.344
73244W        W37001  14.778   6.730  14.001
73245W        W37002  37.064  14.831   3.660
73246W        W37003  18.192   9.331  10.614
73247W        W37004  39.391  40.934   2.399
73248W        W37005   8.813  28.591  13.400
73249W        W37006  27.941   6.691   3.222
73250W        W37007   7.230  23.555  11.921
73251W        W37008   4.747  36.009   4.655
73252W        W37009   2.858   7.333   1.273
73253W        W37010  16.188   7.405   1.866
73254W        W37011   0.309   3.285  14.417
73255W        W37012  12.172  30.965  11.502
73256W        W37013  33.125  33.120  13.416
73257W        W37014   9.255   9.733  12.063
73258W        W37015   7.909  39.927  12.047
73259W        W37016  38.470   1.410   3.198
73260W        W37017  39.870  21.549   2.229
73261W        W37018  19.533  42.022  12.961
73262W        W37019  41.500  35.484   1.356
73263W        W37020  21.639   3.456   3.790
73264W        W37021  27.025  29.482   2.895
73265W        W37022  35.533  44.938   4.623
73266W        W37023  35.481  31.580   2.371
73267W        W37024  11.335  24.701   3.258
73268W        W37025  24.218  26.538   3.859
73269W        W37026  24.198  14.196   2.376
73270W        W37027  43.311  32.393   2.770
73271W        W37028  17.206  44.373  14.274
73272W        W37029   2.962  18.188  14.514
73273W        W37030  22.554  27.017   1.261
73274W        W37031  37.571   8.342  14.873
73275W        W37032   3.769   4.812  14.453
73276W        W37033  43.927  24.112   0.408
73277W        W37034  29.562   0.488  11.088
73278W        W37035  42.006   8.338  12.528
73279W        W37036  23.620  30.018   0.284
73280W        W37037  10.327  20.195  12.456
73281W        W37038  11.710  36.992  11.074
73282W        W37039  44.288   7.739  11.397
73283W        W37040  28.509   8.760   2.402
73284W        W37041  32.468  15.615   0.843
73285W        W37042  36.455  44.312   4.732
73286W        W37043  35.576  31.591  13.548
73287W        W37044  29.061  25.044  11.066
73288W        W37045  19.080  29.161   0.442
73289W        W37046   6.813  24.482  13.461
73290W        W37047  31.422   8.302  14.351
73291W        W37048   9.300  19.172   4.331
73292W        W37049  23.229   9.267   1.436
73293W        W37050  41.376   1.350   1.301
73294W        W37051  13.322  27.448   1.704
73295W        W37052  24.656  42.454   4.164
73296W        W37053   0.337  23.047  10.433
73297W        W37054  15.188  25.990   4.183
73298W        W37055  18.698  34.882   4.230
73299W        W37056  27.111  41.479  11.399
73300W        W37057  13.612   2.833  12.384
73301W        W37058  26.495  10.818   2.763
73302W        W37059  10.221  37.924  10.950
73303W        W37060  44.889  14.270   4.232
73304W        W37061   0.461  24.095  13.944
73305W        W37062  24.618   4.380   3.741
73306W        W37063  44.886  16.255   3.298
73307W        W37064  24.025   0.393  12.076
73308W        W37065  39.471  20.723   0.843
73309W        W37066  10.741  26.957  13.996
73310W        W37067  37.580  16.180  14.353
73311W        W37068  33.000  21.019  13.387
73312W        W37069   2.253  37.519  14.298
73313W        W37070   5.377  35.565   4.650
73314W        W37071  34.950  13.829  12.096
73315W        W37072  28.026   5.410   3.649
73316W        W37073  13.122  22.518  12.481
73317W        W37074  21.748  27.531  11.025
73318W        W37075  41.019  11.838  14.824
73319W        W37076  18.742  43.017   2.669
73320W        W37077  27.027  37.443  11.436
73321W        W37078  29.991  31.124  10.922
73322W        W37079   2.906  16.777   3.370
73323W        W37080  37.387  39.497   3.645
73324W        W37081  35.442  27.488   0.842
73325W        W37082  44.953  41.897   4.318
73326W        W37083  44.371   9.239   4.285
73327W        W37084  10.239  29.663   3.151
73328W        W37085  22.031  25.628  10.568
73329W        W37086  28.070  35.107   3.172
73330W        W37087  41.339  34.506   4.137
73331W        W37088   8.209   2.396   0.835
73332W        W37089  24.587  17.165  13.512
73333W        W37090  16.096   9.346   0.357
73334W        W37091  42.418   2.963   2.278
73335W        W37092  39.514  23.139   4.801
73336W        W37093  20.760  13.330   2.802
73337W        W37094  10.374  11.242  14.839
73338W        W37095  14.639  42.473   1.824
73339W        W37096   6.228  41.024   2.730
73340W        W37097  18.062  11.663   1.226
73341W        W37098  20.759  22.633  11.568
73342W        W37099  31.647  36.871  12.366
73343W        W37100  21.695  23.130  13.352
73344W        W37101  23.696  41.504   1.837
73345W        W37102  42.507  39.412  11.599
73346W        W37103   7.249  43.287   0.444
73347W        W37104  43.899  43.808  10.448
73348W        W37105   7.266  32.091   2.857
73349W        W37106  34.008  11.304  13.355
73350W        W37107  41.952  29.941   3.253
73351W        W37108  29.963  16.809   3.694
73352W        W37109   9.332  34.515  13.910
73353W        W37110  44.853  43.463  10.937
73354W        W37111  10.148  34.539  14.496
73355W        W37112  39.854   3.900   3.840
73356W        W37113  32.124   0.768  10.535
73357W        W37114  39.316  39.422   3.807
73358W        W37115  40.420  36.530  14.930
73359W        W37116  31.119  29.443  13.923
73360W        W37117  19.110  14.123  11.982
73361W        W37118  13.320  11.303   2.352
73362W        W37119  31.026  31.462  10.633
73363W        W37120  11.677  34.491   3.262
73364W        W37121  29.164  19.724   2.346
73365W        W37122   9.152  40.415   4.773
73366W        W37123  20.219  14.796  14.960
73367W        W37124  29.106   3.908   0.257
73368W        W37125  33.394   6.294  14.395
73369W        W37126  30.920  22.730   0.335
73370W        W37127  37.369  18.560   5.221
73371W        W37128  40.993   2.387  14.490
73372W        W37129  13.118  36.847  11.518
73373W        W37130  15.124   7.317   3.771
73374W        W37131  25.658   8.666   4.272
73375W        W37132  23.166  33.127  13.480
73376W        W37133  21.205  28.543  14.316
73377W        W37134  40.007  31.524   3.758
73378W        W37135  19.166  16.760  12.041
73379W        W37136  27.046  12.750  11.931
73380W        W37137  28.982  30.534   3.805
73381W        W37138   0.375   9.209  14.398
73382W        W37139  31.443  39.917  14.332
73383W        W37140  19.674   8.336  10.587
73384W        W37141  43.935  36.560   4.176
73385W        W37142  37.564  17.091  10.973
73386W        W37143   2.440  29.165  11.858
73387W        W37144   2.856  27.499   4.742
73388W        W37145  18.072  38.008   0.394
73389W        W37146   6.888  43.459  10.891
73390W        W37147   9.329  41.428  10.049
73391W        W37148  15.094  26.029  13.469
73392W        W37149  27.512   8.182   1.444
73393W        W37150  13.750  21.042  12.830
73394W        W37151  41.854  18.084   4.688
73395W        W37152  44.894  10.645   1.785
73396W        W37153  29.138  37.522   1.217
73397W        W37154  41.402  20.645   2.901
73398W        W37155  19.659   2.878  10.633
73399W        W37156  23.992  42.336   2.277
73400W        W37157  23.095   8.263   0.769
73401W        W37158   4.421  39.027   3.717
73402W        W37159  43.492   7.409  11.446
73403W        W37160   8.802   9.150   0.902
73404W        W37161  22.239  29.083  13.888
73405W        W37162  18.666  29.502  14.420
73406W        W37163   3.451  17.650   3.652
73407W        W37164  26.574  16.106   2.264
73408W        W37165   7.726   6.328  13.391
73409W        W37166  10.652  35.988   1.903
73410W        W37167  28.979  12.287  12.001
73411W        W37168  25.572   9.227  13.358
73412W        W37169  44.334  43.787  13.374
73413W        W37170   9.190  14.661   1.404
73414W        W37171  36.461  39.819   2.191
73415W        W37172  10.784   4.747   4.324
73416W        W37173  37.940  22.525   4.234
73417W        W37174   0.378  32.421   2.315
73418W        W37175  41.393  37.377  12.077
73419W        W37176   9.777  18.684   3.223
73420W        W37177  29.022  26.588  13.504
73421W        W37178  41.486   1.754   0.837
73422W        W37179  32.610   1.333  14.409
73423W        W37180  20.158  26.700  11.983
73424W        W37181   8.704  10.637   2.226
73425W        W37182  24.042  35.082  13.515
73426W        W37183  30.130  22.179   2.715
73427W        W37184   3.761  43.424  11.061
73428W        W37185  20.592   5.385   2.734
73429W        W37186  36.492  40.025   4.170
73430W        W37187  26.658  11.649  13.336
73431W        W37188   6.425  19.266  13.343
73432W        W37189  28.618  16.616  10.511
73433W        W37190  16.204  17.705  13.414
73434W        W37191  43.764   8.696  11.584
73435W        W37192  36.400  41.897  14.940
73436W        W37193  18.282  24.485  14.451
73437W        W37194  12.217  33.010  10.938
73438W        W37195  20.548  22.102   0.401
73439W        W37196  27.635  41.413  14.344
73440W        W37197   8.873  33.391  10.628
73441W        W37198  35.460  36.889   2.738
73442W        W37199  30.017  20.197   1.331
73443W        W37200  29.602  25.705  12.959
73444W        W37201  25.130   5.343  12.374
73445W        W37202  35.905   2.724  14.921
73446W        W37203   2.904  41.300   1.876
73447W        W37204   8.874  34.556  13.026
73448W        W37205  43.334   2.361   0.923
73449W        W37206  25.995   9.184  13.426
73450W        W37207  28.137  10.801   2.336
73451W        W37208  40.446   0.980  14.477
73452W        W37209  43.293   1.963  12.827
73453W        W37210  10.156  11.732   1.357
73454W        W37211  10.732  43.979  14.913
73455W        W37212  38.824  38.840  13.999
73456W        W37213  39.015  18.060  11.056
73457W        W37214  40.508   1.798  14.434
73458W        W37215  18.155  35.384  14.929
73459W        W37216  20.096  13.644   1.924
73460W        W37217  31.427  23.565   0.964
73461W        W37218  11.339  39.065  14.784
73462W        W37219  21.600  23.696   0.781
73463W        W37220   0.850  11.697   1.796
73464W        W37221   6.351  44.275   4.147
73465W        W37222  39.811  24.229   0.426
73466W        W37223  15.697  14.782   0.283
73467W        W37224  22.108   4.764   3.221
73468W        W37225  14.761  30.498  11.451
73469W        W37226  14.800  27.131  14.410
73470W        W37227   9.303  34.462   9.945
73471W        W37228  34.034  37.497  12.841
73472W        W37229   7.401  33.102  14.310
73473W        W37230   4.733  36.475   1.420
73474W        W37231  23.561   3.825  10.894
73475W        W37232  10.759  15.221  14.447
73476W        W37233  18.604   1.279   1.272
73477W        W37234  16.145   6.860   0.794
73478W        W37235  35.054  26.035   3.279
73479W        W37236   7.367  34.948  11.058
73480W        W37237  16.117   5.842  11.085
73481W        W37238  27.470  23.178  11.127
73482W        W37239   6.709  21.067   3.335
73483W        W37240  10.793  39.348   1.350
73484W        W37241   7.343   4.769  11.526
73485W        W37242  39.425  20.114  12.523
73486W        W37243  21.220  30.100  12.848
73487W        W37244  40.869  30.614  14.007
73488W        W37245  29.998  36.949   3.322
73489W        W37246   8.241   2.443  10.579
73490W        W37247  13.667  14.167   0.844
73491W        W37248  16.705  15.290   4.794
73492W        W37249  21.223  14.264   0.338
73493W        W37250  27.446   4.430   4.713
73494W        W37251  11.806  21.090   2.675
73495W        W37252  11.730  39.505   2.842
73496W        W37253  27.690  33.090  10.528
73497W        W37254  19.636  28.550  14.906
73498W        W37255   1.843  28.107   4.150
73499W        W37256  12.689  23.698  13.981
73500W        W37257  25.215  37.385  12.493
73501W        W37258  10.280  36.356   4.690
73502W        W37259   5.283  37.898   0.758
73503W        W37260  36.869  20.148  14.801
73504W        W37261   5.369  34.910  14.938
73505W        W37262  20.704  16.292   4.723
73506W        W37263  31.983  34.470   9.980
73507W        W37264   3.333  23.600  11.063
73508W        W37265  44.396  15.222   4.145
73509W        W37266  18.737   3.369  13.981
73510W        W37267  19.754  18.589   3.185
73511W        W37268   6.291  32.971   3.155
73512W        W37269  27.075  31.024  13.832
73513W        W37270  36.037  42.372  11.507
73514W        W37271  14.248  30.115  13.880
73515W        W37272  40.013  20.067  10.892
73516W        W37273   2.364  39.036  11.874
73517W        W37274  24.200   9.337  13.824
73518W        W37275  35.936  36.984   4.199
73519W        W37276  41.864  11.129  10.497
73520W        W37277  33.940  14.315   2.798
73521W        W37278   5.355  23.129  12.824
73522W        W37279  31.446  39.415   4.253
73523W        W37280  24.137  30.111  11.013
73524W        W37281  22.661  34.102   4.152
73525W        W37282  16.213   8.378  11.585
73526W        W37283  37.073  23.673  13.435
73527W        W37284  21.096  43.999   0.244
73528W        W37285   4.240  33.964  12.374
73529W        W37286  30.657   9.291  10.537
73530W        W37287  10.847  34.417  14.914
73531W        W37288  22.525  43.018   3.860
73532W        W37289   2.795  19.251  13.398
73533W        W37290   2.275   0.744  10.571
73534W        W37291  30.601  17.111   3.318
73535W        W37292  42.313  28.039  13.414
73536W        W37293   9.366  19.710   0.726
73537W        W37294  34.890  32.933  10.500
73538W        W37295  12.730   7.229   4.189
73539W        W37296  12.208  35.565   2.228
73540W        W37297   2.360  11.321   3.360
73541W        W37298  29.054  10.855  13.320
73542W        W37299  36.943   3.806  11.067
73543W        W37300  15.313  12.253  11.880
73544W        W37301  24.178  38.831  13.494
73545W        W37302  35.456   2.458   4.124
73546W        W37303   5.255  41.844  11.431
73547W        W37304  22.668   7.666  12.016
73548W        W37305   8.383  38.432  11.572
73549W        W37306   8.722  15.150   0.879
73550W        W37307  22.608  35.092   3.769
73551W        W37308   0.776  18.621   3.382
73552W        W37309   2.832   7.847  14.350
73553W        W37310  41.852  16.667  12.401
73554W        W37311  10.829  10.750   3.205
73555W        W37312  27.590  43.866  10.638
73556W        W37313   4.252  36.066   3.303
73557W        W37314  28.597   7.671  11.934
73558W        W37315   2.372  40.940  13.064
73559W        W37316  25.654  42.512  14.789
73560W        W37317  30.965  29.439   2.773
73561W        W37318   5.430  20.641   4.650
73562W        W37319  39.859  37.498  13.359
73563W        W37320  27.010  13.846   1.828
73564W        W37321  27.162  13.807   3.344
73565W        W37322  32.119  37.016  10.958
73566W        W37323  30.149  42.799  14.458
73567W        W37324   6.367  17.771  14.787
73568W        W37325   7.872  39.496   2.773
73569W        W37326   5.755   1.956  11.122
73570W        W37327  31.922  34.918  13.801
73571W        W37328  35.401  40.337  13.893
73572W        W37329  32.522   2.735   1.926
73573W        W37330   0.312  20.031  14.513
73574W        W37331  13.755   1.473  10.889
73575W        W37332   5.362  22.033  13.003
73576W        W37333   1.733  19.045  12.374
73577W        W37334  14.687   0.758   9.509
73578W        W37335  11.682  25.144  13.519
73579W        W37336  40.501  38.353   2.376
73580W        W37337   8.273  42.437  13.386
73581W        W37338  40.028  14.668   1.891
73582W        W37339  25.005  33.907  12.051
73583W        W37340  42.796  14.192  13.336
73584W        W37341  44.763   5.351  13.931
73585W        W37342  40.021  41.912   1.748
73586W        W37343  19.662  29.009  13.438
73587W        W37344  20.249  15.135   3.271
73588W        W37345  40.450  14.103   4.178
73589W        W37346  38.398  36.948  11.913
73590W        W37347  29.631  18.089   4.638
73591W        W37348   8.400   1.380  11.066
73592W        W37349  12.809  13.792   2.662
73593W        W37350   9.812  38.918   3.176
73594W        W37351  42.982  40.973   1.384
73595W        W37352  17.748  21.544   0.950
73596W        W37353  40.904  19.242   1.272
73597W        W37354  24.167  14.254   1.887
73598W        W37355  44.826  19.204  10.547
73599W        W37356  27.572  39.939   1.708
73600W        W37357  34.462  28.992   3.351
73601W        W37358  23.030  17.750   0.918
73602W        W37359  20.065  20.248  12.077
73603W        W37360  12.775  20.158   3.648
73604W        W37361  15.199  31.062   0.925
73605W        W37362   4.938  17.734   4.204
73606W        W37363  41.443  12.824  13.901
73607W        W37364  26.671   7.206   1.216
73608W        W37365  38.436  30.625  13.047
73609W        W37366   0.890   8.846   4.308
73610W        W37367   8.765  16.790   0.759
73611W        W37368  26.083   4.724   3.381
73612W        W37369  25.044   4.701   1.398
73613W        W37370  44.490  16.081   3.725
73614W        W37371   2.761  28.967   4.259
73615W        W37372   6.359  23.534  13.422
73616W        W37373   0.465  14.190   2.389
73617W        W37374  22.560  31.099  10.151
73618W        W37375   1.821  32.055  12.927
73619W        W37376  31.627  44.996   2.224
73620W        W37377  36.855  22.030   0.474
73621W        W37378   7.755  31.927  10.113
73622W        W37379  30.035   2.385   4.723
73623W        W37380  31.573  40.415   3.326
73624W        W37381  29.956  23.513   1.748
73625W        W37382  12.619  44.434  12.993
73626W        W37383   3.284   1.868   2.260
73627W        W37384  19.730  44.789  13.466
73628W        W37385  40.909  19.197   0.483
73629W        W37386  30.090   4.706  10.044
73630W        W37387  40.979  19.673   4.324
73631W        W37388  27.994  16.217  14.948
73632W        W37389  42.343  11.161  11.463
73633W        W37390   7.789  32.560  12.359
73634W        W37391  30.085  26.128   0.836
73635W        W37392  11.862  41.883  12.919
73636W        W37393  39.558   0.454   5.202
73637W        W37394  34.459  44.490   4.775
73638W        W37395   6.379   5.221  10.638
73639W        W37396  27.511  28.092  11.550
73640W        W37397   3.245   3.419  13.352
73641W        W37398  38.458   1.378  14.946
73642W        W37399  15.253  41.407   3.674
73643W        W37400  42.300  22.716   4.339
73644W        W37401  21.737   5.355   4.745
73645W        W37402  27.655  17.735  12.477
73646W        W37403  33.440  38.064   2.299
73647W        W37404  29.098  23.549   0.275
73648W        W37405   3.229   5.285  10.577
73649W        W37406  29.926  40.344  14.887
73650W        W37407  19.757  28.127   0.787
73651W        W37408  28.071  25.663  10.443
73652W        W37409  34.579  30.991  11.966
73653W        W37410  33.109   5.364   4.229
73654W        W37411  28.476  41.434  14.275
73655W        W37412  41.409  35.994   1.765
73656W        W37413  17.136  26.038   0.742
73657W        W37414  18.749   0.274  11.587
73658W        W37415  16.718  43.906  14.342
73659W        W37416  27.031  31.120  11.560
73660W        W37417  18.577  27.982  12.028
73661W        W37418  28.522   4.929   4.236
73662W        W37419  42.314  19.254   1.889
73663W        W37420  25.197  12.783  13.408
73664W        W37421   8.813   8.879   2.863
73665W        W37422  44.989  44.849  14.296
73666W        W37423  29.505  12.334  10.502
73667W        W37424  15.678  14.625  14.762
73668W        W37425  11.362   1.451  14.867
73669W        W37426  13.815  16.572   0.325
73670W        W37427  28.966  11.802   4.819
73671W        W37428  37.501  22.064  14.790
73672W        W37429  21.735  15.583  12.521
73673W        W37430  40.428  35.582  12.960
73674W        W37431  26.982   8.836   4.149
73675W        W37432  18.052  32.637   4.142
73676W        W37433   7.761  35.443  12.378
73677W        W37434   5.382   3.442  13.928
73678W        W37435  20.164  15.142   1.349
73679W        W37436  40.360   9.732   1.389
73680W        W37437   4.287  34.378  13.370
73681W        W37438   6.735  12.226   0.445
73682W        W37439  34.459  39.052  13.954
73683W        W37440  12.836  43.822   2.276
73684W        W37441   1.818   2.407   3.730
73685W        W37442   5.279  22.626   1.279
73686W        W37443  20.130   7.272  11.481
73687W        W37444  11.233   5.344  10.993
73688W        W37445  18.650  23.095   3.837
73689W        W37446  41.030  41.305  14.401
73690W        W37447   8.858  14.682   0.410
73691W        W37448  18.196  20.593  14.513
73692W        W37449  43.851  19.756  13.315
73693W        W37450  39.979   5.289   2.392
73694W        W37451   3.895  29.166  12.355
73695W        W37452  12.640  37.389   1.264
73696W        W37453  12.708   1.823  11.975
73697W        W37454  38.985  31.447  14.947
73698W        W37455  38.546  15.306   0.870
73699W        W37456  38.552  26.134   4.324
73700W        W37457  28.082  10.647  13.490
73701W        W37458  38.384  43.010   3.270
73702W        W37459  37.067  35.983  10.471
73703W        W37460  22.057  17.136  12.441
73704W        W37461  40.480  41.808   3.232
73705W        W37462  20.134  34.453  14.779
73706W        W37463  14.658  18.206   0.368
73707W        W37464  27.685  21.152  11.875
73708W        W37465  29.472  41.037  12.844
73709W        W37466  32.514  34.106   1.418
73710W        W37467  30.077   0.758   1.835
73711W        W37468  33.969  31.428   2.719
73712W        W37469   4.843  26.678   2.332
73713W        W37470  39.520  44.933   2.276
73714W        W37471  32.081  27.004  13.367
73715W        W37472  42.318  11.305  12.067
73716W        W37473  25.970  38.988  14.767
73717W        W37474  17.711  15.156   0.873
73718W        W37475  23.221  19.164   4.135
73719W        W37476  44.344  23.195   2.277
73720W        W37477   7.372  22.511  13.531
73721W        W37478  27.625  33.993  13.935
73722W        W37479  18.189  12.646   4.610
73723W        W37480  17.230  28.002   1.275
73724W        W37481  21.017  26.162  12.449
73725W        W37482   5.766  22.180  11.038
73726W        W37483  29.115  35.438  14.333
73727W        W37484  40.983  25.525  12.096
73728W        W37485  11.713  35.039   4.716
73729W        W37486  42.343   1.856   0.280
73730W        W37487  40.808  44.503   1.380
73731W        W37488  13.606  32.982  12.949
73732W        W37489  27.551   4.363   0.396
73733W        W37490  40.470  23.044  12.344
73734W        W37491  26.562  41.307   1.694
73735W        W37492  35.564  34.116  14.510
73736W        W37493   1.861   3.888   3.376
73737W        W37494  21.059  10.874   3.802
73738W        W37495  31.553  25.700  13.057
73739W        W37496  18.090  28.973   4.130
73740W        W37497  40.000  10.857  12.360
73741W        W37498  10.379   9.751  10.568
73742W        W37499  34.505  29.571   2.891
73743W        W37500  20.614  31.508  11.462
73744W        W37501  44.307  14.253   4.303
73745W        W37502  39.413  44.852   0.855
73746W        W37503  19.616  41.862  12.480
73747W        W37504  27.039  43.371   4.741
73748W        W37505  18.243  33.472  13.968
73749W        W37506  17.062  26.197  13.828
73750W        W37507   0.936  14.192  10.106
73751W        W37508  33.428  30.100   3.772
73752W        W37509   8.280   4.324   2.393
73753W        W37510  10.327  22.565   5.301
73754W        W37511  14.109  10.682   3.205
73755W        W37512  31.971   5.202   5.199
73756W        W37513  17.630   0.915  14.457
73757W        W37514  30.475   3.729  13.982
73758W        W37515  40.422  39.410   1.807
73759W        W37516   3.916  40.020   9.521
73760W        W37517  27.102  44.329   0.445
73761W        W37518  25.034  15.211  10.448
73762W        W37519  15.241  18.602  14.989
73763W        W37520  41.537  17.744  14.357
73764W        W37521  37.576   2.288   3.299
73765W        W37522  31.132  27.086   4.331
73766W        W37523   0.806  38.833  12.973
73767W        W37524  42.914   8.744   1.365
73768W        W37525   0.486  17.075   4.813
73769W        W37526  19.113  12.162   1.839
73770W        W37527  17.288  19.761   4.167
73771W        W37528   2.838  21.253   4.674
73772W        W37529  44.344   3.273   1.430
73773W        W37530  31.970  33.435   1.889
73774W        W37531  44.849  24.571   1.366
73775W        W37532  20.584  10.643  13.981
73776W        W37533  29.463  37.435  14.413
73777W        W37534  20.756  18.144  14.497
73778W        W37535  26.978  30.519  13.350
73779W        W37536  10.783   5.729   0.261
73780W        W37537   6.783  13.319   2.406
73781W        W37538  27.169  10.743  13.895
73782W        W37539  11.763  10.338  12.384
73783W        W37540   1.440  40.506   1.849
73784W        W37541  20.708   2.927  12.403
73785W        W37542   2.297  21.582   2.863
73786W        W37543  20.227  30.598   3.303
73787W        W37544   7.692  25.196  10.942
73788W        W37545  30.522   6.328   2.314
73789W        W37546  40.027  17.295   4.184
73790W        W37547   7.873  16.104  12.423
73791W        W37548  32.484   7.887   1.423
73792W        W37549  44.287   3.388  10.014
73793W        W37550  16.079  12.236   1.358
73794W        W37551  29.148   4.710   4.283
73795W        W37552  15.242  25.003   1.777
73796W        W37553  42.936  24.225   3.377
73797W        W37554  30.000   6.239   3.356
73798W        W37555  21.647  10.676   3.852
73799W        W37556   0.840  29.018   4.148
73800W        W37557   8.777  42.419  12.965
73801W        W37558  38.525  12.839   3.703
73802W        W37559  27.488   4.324  12.078
73803W        W37560   7.738  42.011   3.357
73804W        W37561   9.269  21.109  14.972
73805W        W37562   1.338  14.303   0.446
73806W        W37563   2.735  13.312  11.960
73807W        W37564  18.129  26.607  12.539
73808W        W37565  34.006  36.918   2.321
73809W        W37566  26.969  20.743  11.899
73810W        W37567  32.620  38.523   0.390
73811W        W37568   7.386   8.846   1.350
73812W        W37569  15.206  39.467   4.712
73813W        W37570  30.541  24.607   2.848
73814W        W37571  15.646  38.822  14.828
73815W        W37572  14.336  17.205  10.526
73816W        W37573  23.525  23.514  14.290
73817W        W37574  22.689  15.226  15.000
73818W        W37575   4.942   1.332  11.482
73819W        W37576  29.559  17.257  11.568
73820W        W37577  14.101  17.194   5.156
73821W        W37578   3.845   6.408  11.012
73822W        W37579  39.964   6.287  11.119
73823W        W37580  30.521  30.585   2.318
73824W        W37581  23.499  24.639   2.332
73825W        W37582  10.791   5.266  13.364
73826W        W37583  20.166  23.495  13.356
73827W        W37584  16.729  40.339   1.720
73828W        W37585  30.078   0.288  14.798
73829W        W37586  38.484  29.427   1.841
73830W        W37587  12.179   8.846  12.575
73831W        W37588  36.528  32.495   3.861
73832W        W37589   6.270  29.460  13.436
73833W        W37590  37.926  23.041   4.713
73834W        W37591  35.592  28.524   0.946
73835W        W37592  27.588  24.020  14.896
73836W        W37593  16.570   3.725   3.311
73837W        W37594  39.401   9.374   1.759
73838W        W37595  15.195  12.792  12.956
73839W        W37596  36.387   4.748   1.390
73840W        W37597  42.944  13.785  10.913
73841W        W37598  11.163  42.506  13.903
73842W        W37599   6.271  28.953   1.863
73843W        W37600  12.230  16.754   3.253
73844W        W37601  13.226  37.581  11.910
73845W        W37602  34.457   0.955   2.285
73846W        W37603   5.352  37.907   3.172
73847W        W37604  14.337  21.708   2.818
73848W        W37605   9.806   4.311   2.902
73849W        W37606  26.620   4.228  13.355
73850W        W37607   1.367   2.927  14.324
73851W        W37608  30.102  16.227  12.390
73852W        W37609  33.943  35.542   3.204
73853W        W37610  21.715  22.533   0.948
73854W        W37611   7.701  34.594  12.043
73855W        W37612  42.911  17.111  13.937
73856W        W37613  14.767   3.454   4.233
73857W        W37614  15.756  10.384   2.260
73858W        W37615  43.340  20.602  11.497
73859W        W37616   6.742  12.814  10.554
73860W        W37617   1.932  35.885  12.421
73861W        W37618  34.543  43.271   3.311
73862W        W37619  12.618  28.124   0.305
73863W        W37620  23.077  20.664  10.502
73864W        W37621  32.043   3.365  14.801
73865W        W37622  40.322  16.216  14.432
73866W        W37623  38.852  13.215  11.570
73867W        W37624  15.789  44.345  13.489
73868W        W37625  18.111  30.931  13.416
73869W        W37626   2.376   8.182   4.194
73870W        W37627  40.540  23.172   0.831
73871W        W37628  13.349  17.599   0.945
73872W        W37629  21.029  15.270   4.213
73873W        W37630   4.773  12.259  12.957
73874W        W37631   4.420  13.832   0.355
73875W        W37632  29.987  24.495  11.077
73876W        W37633  36.957  25.688  14.347
73877W        W37634  40.987  36.862  14.886
73878W        W37635  44.490  37.062  10.997
73879W        W37636  32.569  25.563  12.517
73880W        W37637  20.244  44.387   1.430
73881W        W37638  14.244   2.459  14.887
73882W        W37639  20.205  20.760   3.637
73883W        W37640  21.152  31.615   1.894
73884W        W37641  22.714  39.469  12.576
73885W        W37642  29.658   5.821  10.474
73886W        W37643  11.623  42.419  14.820
73887W        W37644   8.174  26.121  12.982
73888W        W37645  20.720  42.424   3.220
73889W        W37646  39.472  27.072   3.289
73890W        W37647  24.994  41.950   3.187
73891W        W37648   0.280  42.959   1.874
73892W        W37649  44.391  34.050   2.368
73893W        W37650  40.881  28.124  11.389
73894W        W37651  44.996   2.963   1.332
73895W        W37652  27.107   6.912  13.486
73896W        W37653  35.369  24.128   1.272
73897W        W37654  27.456  13.251   4.150
73898W        W37655   9.353  40.972   2.697
73899W        W37656  13.318  43.875  12.925
73900W        W37657  10.186  31.039  10.548
73901W        W37658   8.261   8.276  11.127
73902W        W37659  40.324   7.758   1.421
73903W        W37660  18.146  28.616  13.829
73904W        W37661  20.565  23.009  14.437
73905W        W37662   7.278  44.476   5.167
73906W        W37663  21.209  13.685   4.835
73907W        W37664   3.294  14.253   2.377
73908W        W37665   1.427  35.104   3.794
73909W        W37666  36.937  35.883   1.299
73910W        W37667  16.209   8.177  10.950
73911W        W37668  34.419  37.422   1.225
73912W        W37669  16.618  11.341  12.527
73913W        W37670  19.136  21.045  11.510
73914W        W37671  18.239   8.714   0.411
73915W        W37672  27.684  39.371   1.277
73916W        W37673  35.907  43.363   4.660
73917W        W37674  36.393  42.779   0.444
73918W        W37675  14.332  12.842  11.121
73919W        W37676  17.209  17.656  11.452
73920W        W37677  38.867   1.398   5.294
73921W        W37678  19.118   0.468   2.801
73922W        W37679  35.073   9.344   3.810
73923W        W37680  39.006  13.216  10.497
73924W        W37681  36.008  28.975   1.417
73925W        W37682  24.214   8.341   1.752
73926W        W37683  24.553  30.153  13.023
73927W        W37684  15.793   5.194  13.920
73928W        W37685  44.468  17.579  10.953
73929W        W37686  14.612  31.023   3.270
73930W        W37687  28.146   4.812  10.588
73931W        W37688  35.357  18.156   1.230
73932W        W37689  28.535  12.641   2.401
73933W        W37690   1.868  26.109  12.939
73934W        W37691  11.275  14.740  13.533
73935W        W37692  41.950  35.515  12.994
73936W        W37693  23.027  31.070  10.999
73937W        W37694  15.234  40.996  11.590
73938W        W37695  28.152  17.178   0.918
73939W        W37696  35.899  36.541   2.683
73940W        W37697  40.823  10.212  12.395
73941W        W37698  39.365  21.626  12.565
73942W        W37699   3.273   6.920  10.442
73943W        W37700  28.033  41.478   5.090
73944W        W37701  15.807  43.345   1.426
73945W        W37702   7.310  34.528   0.383
73946W        W37703  13.210  25.079  14.891
73947W        W37704  16.796  43.917   5.101
73948W        W37705  31.917   6.409  11.551
73949W        W37706   2.901   6.414   0.823
73950W        W37707  26.587  23.666   2.282
73951W        W37708  42.412  34.442  11.866
73952W        W37709  31.924  30.157   4.698
73953W        W37710  12.122   8.241  10.488
73954W        W37711  15.623  33.965   2.715
73955W        W37712   0.400  12.726   0.757
73956W        W37713  29.540   6.873  14.344
73957W        W37714  39.353  10.653   4.288
73958W        W37715  36.860  30.534   4.706
73959W        W37716  10.712  40.354   3.788
73960W        W37717  11.240   0.929   1.397
73961W        W37718  43.925  30.056   3.286
73962W        W37719  34.989  21.630  14.819
73963W        W37720  37.538  29.433   3.173
73964W        W37721   4.432  31.008   4.688
73965W        W37722  41.322  34.902   3.331
73966W        W37723  32.497  38.934   3.653
73967W        W37724  42.341  42.419   1.214
73968W        W37725  14.790   3.755  11.459
73969W        W37726  31.487  26.114  11.966
73970W        W37727  30.068  37.058  13.424
73971W        W37728  18.702  10.730   1.418
73972W        W37729   9.728  12.628  12.576
73973W        W37730   2.745  43.505  14.850
73974W        W37731  22.567  39.997   3.766
73975W        W37732   4.902  10.637   2.198
73976W        W37733  40.862   6.409  13.437
73977W        W37734   3.270  20.613   3.775
73978W        W37735  15.712  29.946  11.456
73979W        W37736   1.865  41.911   2.856
73980W        W37737  23.103  43.998  13.947
73981W        W37738  20.591  24.099   1.398
73982W        W37739  34.996  32.436   0.343
73983W        W37740  35.406  23.117  14.970
73984W        W37741  26.539  17.101  12.000
73985W        W37742  13.292  44.980  12.487
73986W        W37743  27.121   7.724  14.341
73987W        W37744  26.084  37.860  13.833
73988W        W37745   2.373  24.999  12.546
73989W        W37746  24.982  25.083  11.116
73990W        W37747  38.026  12.695   2.366
73991W        W37748  20.239  36.953   2.343
73992W        W37749   2.896  28.554   4.138
73993W        W37750  21.202  35.903  13.873
73994W        W37751  21.738  25.654   4.793
73995W        W37752  18.161  21.062  11.447
73996W        W37753  29.632  37.386  12.913
73997W        W37754   4.407  18.549  11.891
73998W        W37755   0.492  40.349  11.565
73999W        W37756   8.751  24.040   1.837
74000W        W37757  24.657  15.242  13.996
74001W        W37758  42.003  30.583  13.943
74002W        W37759  28.554   0.305  12.513
74003W        W37760  23.053   5.412   0.286
74004W        W37761  22.181  14.248   1.213
74005W        W37762  41.882  22.596  13.441
74006W        W37763  22.172  29.565   4.758
74007W        W37764  26.157  28.114  12.930
74008W        W37765  10.704  14.592   0.401
74009W        W37766  34.405  41.519  11.391
74010W        W37767  14.152  21.569   0.482
74011W        W37768  41.853  37.393  10.068
74012W        W37769  23.578  24.702  12.007
74013W        W37770   0.872  40.030   2.814
74014W        W37771  10.866  16.169   5.251
74015W        W37772  30.958  39.327  13.529
74016W        W37773  33.122  15.108  13.053
74017W        W37774  41.974  12.233   1.363
74018W        W37775  42.019  40.956  13.926
74019W        W37776  27.689  19.116   1.717
74020W        W37777  40.356   9.713  11.868
74021W        W37778  23.659   6.246  11.564
74022W        W37779  40.327  33.980   4.337
74023W        W37780  17.777   4.881   3.693
74024W        W37781   0.830  37.556   4.281
74025W        W37782  21.200   5.839  10.079
74026W        W37783  18.107  39.392  11.115
74027W        W37784  12.332  25.979  11.523
74028W        W37785  20.235  29.614  12.389
74029W        W37786  26.467  29.129   2.861
74030W        W37787  31.043   3.440   2.730
74031W        W37788   3.859   8.355  11.528
74032W        W37789  15.309  36.552  10.451
74033W        W37790  42.505  17.564  10.456
74034W        W37791   7.290  11.294   1.846
74035W        W37792   2.731  14.653  14.499
74036W        W37793  38.993   4.317   4.148
74037W        W37794  28.164   1.257   0.832
74038W        W37795  23.181  39.964   2.270
74039W        W37796  24.611  41.519   0.763
74040W        W37797  26.039  14.282  13.447
74041W        W37798   5.875  30.650  11.066
74042W        W37799  15.667  40.315  10.465
74043W        W37800  33.108  12.296   4.695
74044W        W37801  38.906  44.486  11.064
74045W        W37802  23.192  34.115  12.900
74046W        W37803  11.742  32.964   0.346
74047W        W37804  33.881  38.475   0.365
74048W        W37805  23.148  20.134   4.643
74049W        W37806  22.747  10.223   4.787
74050W        W37807  33.526   7.247   2.733
74051W        W37808  27.154  16.173  13.963
74052W        W37809  40.403  19.179  12.491
74053W        W37810  37.920  30.506  10.997
74054W        W37811  32.130  21.178   5.196
74055W        W37812  41.972  30.143   0.302
74056W        W37813  30.575   9.314  14.863
74057W        W37814  35.897  44.387  12.401
74058W        W37815  17.759  27.171   2.251
74059W        W37816  43.876   2.273  10.431
74060W        W37817  10.188  21.631  10.416
74061W        W37818  16.143  19.576   4.709
74062W        W37819   8.222  33.884  11.095
74063W        W37820  27.530  15.261   1.366
74064W        W37821  29.560   1.343   4.815
74065W        W37822  40.800  29.078   1.291
74066W        W37823  30.616  37.039  11.449
74067W        W37824  36.495   0.274   5.676
74068W        W37825   5.287  40.947   0.886
74069W        W37826   6.220  24.177   1.289
74070W        W37827  22.693  19.272   2.374
74071W        W37828   2.760  28.938   2.213
74072W        W37829  26.569  27.680  10.445
74073W        W37830  21.061  21.116   3.698
74074W        W37831   1.913   8.254   2.235
74075W        W37832  30.163  31.969   4.617
74076W        W37833  22.661  11.159  11.082
74077W        W37834  17.143  43.877  11.494
74078W        W37835  32.503  30.477  11.920
74079W        W37836  22.063  35.571   3.237
74080W        W37837  22.246   5.765  12.874
74081W        W37838  15.677   5.302   0.483
74082W        W37839  43.397   1.745   3.845
74083W        W37840  10.201  15.220  11.583
74084W        W37841  24.109  24.032   1.392
74085W        W37842  17.121  31.956   3.363
74086W        W37843  24.173  24.491   1.810
74087W        W37844  21.533  36.982   1.417
74088W        W37845  44.805  41.003  10.922
74089W        W37846  33.466  25.472  14.957
74090W        W37847  26.073  19.085   3.330
74091W        W37848  12.152   6.872   3.351
74092W        W37849  38.344  23.016   3.860
74093W        W37850   3.926  18.653   4.180
74094W        W37851   9.169  43.476  10.975
74095W        W37852   6.798  36.354  12.464
74096W        W37853   9.797   3.401   2.750
74097W        W37854  44.929   0.762  14.415
74098W        W37855  16.589  25.080   0.472
74099W        W37856  34.029   6.830  13.794
74100W        W37857  22.615  11.748  10.602
74101W        W37858  44.878   1.733   2.376
74102W        W37859  14.696   2.836  11.995
74103W        W37860  31.143  19.172   3.833
74104W        W37861   8.753   8.291  12.066
74105W        W37862   3.307  12.682  11.433
74106W        W37863  29.482   0.941   9.961
74107W        W37864  10.317  18.734  11.123
74108W        W37865  30.104   1.421  14.996
74109W        W37866  24.480  25.500   1.850
74110W        W37867   0.287  13.295  13.865
74111W        W37868  38.351  30.972  13.921
74112W        W37869  41.947  43.506  11.427
74113W        W37870   3.381  39.506  10.429
74114W        W37871   6.814  20.736  11.015
74115W        W37872   4.412  29.611  14.832
74116W        W37873  23.187  27.471  13.312
74117W        W37874   3.282  38.328  12.382
74118W        W37875  36.057   1.848   2.308
74119W        W37876  15.606  29.019   2.392
74120W        W37877  14.184  32.635  14.001
74121W        W37878  36.518  39.488   1.748
74122W        W37879  42.404   2.312  14.422
74123W        W37880  16.210  26.967   1.733
74124W        W37881  26.560  38.056   4.155
74125W        W37882  39.457  24.561  10.424
74126W        W37883  23.237  35.035  12.893
74127W        W37884  22.071  13.326   3.318
74128W        W37885  28.053  24.637  11.862
74129W        W37886   8.805  24.979   3.758
74130W        W37887   6.332  27.629  11.422
74131W        W37888  15.625  15.219   4.770
74132W        W37889  35.878  44.831  11.992
74133W        W37890  10.213  15.210  10.555
74134W        W37891  30.431  41.841   2.233
74135W        W37892  32.010  16.809   0.299
74136W        W37893  18.655  44.909  12.994
74137W        W37894   5.931  36.028   0.310
74138W        W37895  37.571  14.143  13.976
74139W        W37896   4.329  23.669   1.880
74140W        W37897   8.892  24.013  11.609
74141W        W37898   2.785  36.991  10.406
74142W        W37899  22.669  35.393  10.520
74143W        W37900  43.841  12.810   1.905
74144W        W37901  43.861  28.587  10.888
74145W        W37902  27.967  22.543  11.585
74146W        W37903   9.819  17.573   4.152
74147W        W37904  42.846  40.303   0.738
74148W        W37905  33.496  44.821   0.296
74149W        W37906  25.127  37.352  13.026
74150W        W37907  38.345  26.691  10.541
74151W        W37908   1.358  32.527  13.034
74152W        W37909  26.595  15.098  12.495
74153W        W37910  40.016  20.590   3.194
74154W        W37911   6.313  24.128  10.450
74155W        W37912   1.908  26.655   3.271
74156W        W37913   6.352  41.009  14.965
74157W        W37914   9.259  11.368  12.081
74158W        W37915  12.205   3.817   4.226
74159W        W37916  31.436   3.790   1.849
74160W        W37917   6.902  44.837  11.565
74161W        W37918   8.697  22.613   1.741
74162W        W37919  34.539  42.357  12.567
74163W        W37920  20.029  37.831   2.728
74164W        W37921   8.178  42.287   2.223
74165W        W37922  29.981  35.014  14.974
74166W        W37923  40.306   4.942  10.456
74167W        W37924  39.336  12.313  11.921
74168W        W37925   3.403  20.553   1.307
74169W        W37926  40.401  31.113   0.346
74170W        W37927  28.107  18.148  10.003
74171W        W37928  21.525  40.427  10.579
74172W        W37929  14.176   5.785  11.866
74173W        W37930  27.523  35.492  13.310
74174W        W37931   8.735  18.257   5.712
74175W        W37932  19.612  44.296   3.238
74176W        W37933  27.544  13.181  10.466
74177W        W37934   7.762  30.460  14.805
74178W        W37935  35.096  41.016   0.402
74179W        W37936  21.586  27.596   3.652
74180W        W37937  18.742  34.885  12.926
74181W        W37938   4.254  20.198   1.423
74182W        W37939  20.184  14.306  14.855
74183W        W37940   3.344  30.419  10.526
74184W        W37941  23.011  33.943  14.414
74185W        W37942  12.258  44.409  13.535
74186W        W37943   6.853  31.479  13.344
74187W        W37944  34.455  41.002   2.672
74188W        W37945   2.927  17.189   4.646
74189W        W37946  34.988  23.598  12.889
74190W        W37947  34.080   6.404   3.769
74191W        W37948  17.086   0.487   3.793
74192W        W37949   5.723  24.558   3.747
74193W        W37950   1.283  34.375  13.830
74194W        W37951   3.732  43.820  12.358
74195W        W37952   0.320  38.431  14.983
74196W        W37953   7.766  40.900  11.613
74197W        W37954  25.185  30.966   0.866
74198W        W37955   0.401  12.821   4.167
74199W        W37956  19.127  23.555   3.701
74200W        W37957  31.520  10.674   4.715
74201W        W37958  44.498   0.316  13.385
74202W        W37959   3.287   7.374  12.022
74203W        W37960  21.740  13.193  12.029
74204W        W37961   8.884  42.970  12.485
74205W        W37962  34.574   4.323   0.483
74206W        W37963  36.887   2.825   0.448
74207W        W37964   5.212  13.708  13.448
74208W        W37965  32.061   4.779   0.338
74209W        W37966  26.461  37.368   5.173
74210W        W37967   9.697   4.322  11.942
74211W        W37968  27.987  25.131   2.713
74212W        W37969  33.611   2.910   3.731
74213W        W37970  14.139  30.502   3.333
74214W        W37971  17.588  41.886   0.360
74215W        W37972  31.503  30.995   1.362
74216W        W37973  22.046  38.890   3.201
74217W        W37974   5.718  22.703   1.817
74218W        W37975  25.476  13.155   3.340
74219W        W37976   2.398  36.008   2.830
74220W        W37977  40.407  35.505  14.465
74221W        W37978  15.668   2.345  13.861
74222W        W37979  21.204   7.201   1.757
74223W        W37980  25.188  29.018   4.113
74224W        W37981  32.429  26.147  10.936
74225W        W37982  43.924  14.325  10.641
74226W        W37983   1.398  12.139   4.186
74227W        W37984   3.382  30.981  14.435
74228W        W37985  19.757   8.835  14.931
74229W        W37986  43.867   8.718  13.028
74230W        W37987  19.539  43.330   3.314
74231W        W37988  29.637   9.269  10.965
74232W        W37989  30.438  43.350  13.408
74233W        W37990  44.793  25.001   3.255
74234W        W37991  31.054  34.377  11.863
74235W        W37992  24.603  19.164  12.489
74236W        W37993  20.243  24.203   2.367
74237W        W37994   1.393  42.812  10.513
74238W        W37995  41.798  28.979  14.833
74239W        W37996  25.185  40.307   0.867
74240W        W37997  28.632   2.763  11.107
74241W        W37998  15.818  11.763  12.823
74242W        W37999   1.330  25.969  12.832
74243W        W38000  38.076  17.306  14.468
74244W        W38001  44.417   0.285   2.270
74245W        W38002  19.616  32.919  11.479
74246W        W38003   7.882  34.964  11.564
74247W        W38004  23.128  12.287   4.335
74248W        W38005  29.434  27.646   1.822
74249W        W38006  19.099  22.519   0.732
74250W        W38007  16.307  35.030  10.617
74251W        W38008  25.173  30.034   4.609
74252W        W38009  14.204  10.675   4.710
74253W        W38010   3.267  42.447  14.378
74254W        W38011  16.658  36.996  11.009
74255W        W38012  42.509  19.281   3.745
74256W        W38013  29.961   4.762  13.353
74257W        W38014  31.615  16.261  11.871
74258W        W38015  39.865   1.824   0.305
74259W        W38016  43.311  27.447  12.442
74260W        W38017  31.055  36.481  14.833
74261W        W38018  33.555  14.705  11.559
74262W        W38019  18.175  35.014   1.820
74263W        W38020  17.218  32.028  11.530
74264W        W38021  39.873   1.369   0.325
74265W        W38022   8.360  26.691  10.588
74266W        W38023  29.998  21.153  13.335
74267W        W38024   3.422   8.224   2.257
74268W        W38025  14.734   1.946   5.093
74269W        W38026   3.234  37.540  14.496
74270W        W38027  29.537   4.424  11.461
74271W        W38028  26.059  42.472   3.292
74272W        W38029   3.938  24.184   2.223
74273W        W38030   9.848  32.101   0.329
74274W        W38031  41.476  18.282  11.393
74275W        W38032  31.025   4.876   3.356
74276W        W38033  24.137   6.860  14.892
74277W        W38034  21.664  21.150   0.771
74278W        W38035  24.196  29.646  12.842
74279W        W38036  26.506  13.821   0.747
74280W        W38037   5.876  26.561   4.261
74281W        W38038  21.632  41.967  10.527
74282W        W38039  30.561  37.387   4.178
74283W        W38040  13.781   0.309  12.383
74284W        W38041  42.951  24.584  12.393
74285W        W38042  30.079  36.567  13.905
74286W        W38043  21.101  16.144  13.842
74287W        W38044  27.632   0.896  12.518
74288W        W38045  12.208  28.469  12.431
74289W        W38046  29.527  13.127  14.438
74290W        W38047   4.749   0.859   1.759
74291W        W38048   5.270  33.513  13.797
74292W        W38049  24.042   1.770   5.151
74293W        W38050  26.147  13.713   0.455
74294W        W38051  35.026  16.650   1.829
74295W        W38052  37.870  44.766   0.908
74296W        W38053  30.061  34.012   4.184
74297W        W38054  20.245  24.720   3.811
74298W        W38055  26.962  41.324  10.625
74299W        W38056  16.568  17.705   2.831
74300W        W38057   8.694  32.922  14.829
74301W        W38058  39.464  10.698   0.431
74302W        W38059  20.260   6.888   2.264
74303W        W38060  30.108  21.104  14.951
74304W        W38061  35.890  38.498   2.326
74305W        W38062  31.922  40.011  12.557
74306W        W38063  28.929  32.571   2.418
74307W        W38064   6.791  21.224  11.963
74308W        W38065  13.634  32.131  12.545
74309W        W38066  28.048  16.801   2.766
74310W        W38067   0.878  17.584  13.530
74311W        W38068  30.606  22.212   3.858
74312W        W38069  11.262  24.172   4.146
74313W        W38070  18.232   8.378  11.924
74314W        W38071   5.764  30.977   1.446
74315W        W38072  30.106  10.702   0.956
74316W        W38073   0.413  38.464   0.806
74317W        W38074  29.626  25.103   4.115
74318W        W38075   0.763  31.031   3.861
74319W        W38076  29.468  10.367   4.732
74320W        W38077  29.426  38.034  14.935
74321W        W38078  18.646   7.869   3.848
74322W        W38079  26.199   8.668   3.208
74323W        W38080  38.860  19.761   4.253
74324W        W38081  36.520  12.620   2.865
74325W        W38082   6.421   3.426   4.206
74326W        W38083   7.829  40.050   0.906
74327W        W38084  44.009  29.937  12.464
74328W        W38085  35.428  36.007  11.934
74329W        W38086  41.320  43.789  14.013
74330W        W38087   0.827  32.457  12.373
74331W        W38088  25.656  30.439  13.365
74332W        W38089  24.228  13.693   1.801
74333W        W38090  18.649  25.090  14.011
74334W        W38091   4.827  44.267   3.208
74335W        W38092   6.413   8.880   2.815
74336W        W38093  37.836  13.215  14.869
74337W        W38094  13.161  33.097   1.928
74338W        W38095  25.713  15.162  14.418
74339W        W38096  15.153  24.139   3.681
74340W        W38097   1.916  26.554   3.775
74341W        W38098   9.690  40.414  14.307
74342W        W38099   2.262  13.347   1.370
74343W        W38100  31.473  21.594   3.690
74344W        W38101  19.768  16.305   2.842
74345W        W38102  44.461  33.949   2.772
74346W        W38103   1.479   4.214   2.740
74347W        W38104   1.814  32.534  14.936
74348W        W38105   1.347  21.597   2.286
74349W        W38106  18.214  18.177  13.350
74350W        W38107  16.255  40.973  14.504
74351W        W38108   3.332   3.449  12.535
74352W        W38109  44.374   8.726   2.760
74353W        W38110  23.506  43.960  14.359
74354W        W38111   7.729  36.941   2.727
74355W        W38112  36.574  12.217  12.988
74356W        W38113  13.666  19.667   1.871
74357W        W38114  31.109  14.166  10.467
74358W        W38115  15.815  38.547  12.575
74359W        W38116   1.796  26.669   2.369
74360W        W38117  36.044   9.217   0.275
74361W        W38118  30.907  37.069   0.848
74362W        W38119   1.319  16.118  13.998
74363W        W38120  42.007  15.134   0.760
74364W        W38121  10.820   2.305  12.444
74365W        W38122  29.506  22.620  10.975
74366W        W38123   0.865   3.244   2.263
74367W        W38124   2.325  41.007  13.369
74368W        W38125  28.119  39.942   3.703
74369W        W38126   1.401  26.608   0.283
74370W        W38127  44.422   9.647   4.661
74371W        W38128  29.051  35.877  10.901
74372W        W38129   2.843   6.722   0.251
74373W        W38130  17.558  11.719   0.808
74374W        W38131  22.595  23.553   4.181
74375W        W38132  12.263  43.317   2.223
74376W        W38133   7.417  19.115  11.389
74377W        W38134  30.538   0.861  12.991
74378W        W38135   3.357  25.570   3.701
74379W        W38136  32.399  30.085  13.539
74380W        W38137  23.996  42.308   1.239
74381W        W38138  18.584  37.063  14.427
74382W        W38139  44.273  11.200   2.271
74383W        W38140  44.379  18.075   0.463
74384W        W38141  23.720   8.689   4.168
74385W        W38142  22.219  33.522   9.629
74386W        W38143  42.851  29.493   1.879
74387W        W38144  31.132   6.798   1.249
74388W        W38145   7.344  33.103   0.294
74389W        W38146  35.435  17.221  10.413
74390W        W38147  11.166  33.104  10.627
74391W        W38148  32.006  38.008   4.118
74392W        W38149  22.028  22.082  10.931
74393W        W38150  38.351  39.376   0.958
74394W        W38151   8.697  19.187  13.534
74395W        W38152   2.848   3.946  12.458
74396W        W38153  27.606  13.707   3.849
74397W        W38154  42.868  19.198   0.444
74398W        W38155   5.220  38.378  12.539
74399W        W38156   4.252  25.534   0.286
74400W        W38157  36.371   8.865   5.103
74401W        W38158  27.132  39.490   1.367
74402W        W38159   8.703   5.248   1.732
74403W        W38160  15.218  41.317  14.457
74404W        W38161  10.267  17.709  14.410
74405W        W38162  41.333  40.939   0.879
74406W        W38163  31.031  42.947   0.344
74407W        W38164  39.915  22.586   4.616
74408W        W38165  19.152  23.528  14.804
74409W        W38166  36.450  12.753  12.537
74410W        W38167   8.387   1.351   4.166
74411W        W38168  36.573   9.232   3.203
74412W        W38169  26.972  44.895  11.864
74413W        W38170  25.121   2.395  10.575
74414W        W38171  20.678  36.483  11.126
74415W        W38172  33.941  10.734  13.034
74416W        W38173  30.002  29.961  13.358
74417W        W38174  24.124  10.251   2.843
74418W        W38175  44.931  11.179  11.963
74419W        W38176  29.668  39.961   3.852
74420W        W38177   1.978  26.038  11.095
74421W        W38178  22.093  15.783  14.516
74422W        W38179  21.590  33.978  12.057
74423W        W38180  12.198  19.723  14.957
74424W        W38181   7.844  15.606   3.765
74425W        W38182  30.593  10.285   0.280
74426W        W38183  27.622  43.320   3.736
74427W        W38184  21.572  20.145   0.376
74428W        W38185  37.569   8.836   2.245
74429W        W38186   3.849  31.031  11.947
74430W        W38187  25.156   2.965   2.715
74431W        W38188  17.265  29.573  14.015
74432W        W38189  14.180   8.398  12.406
74433W        W38190  19.268  29.113  10.891
74434W        W38191  20.074  20.599  11.549
74435W        W38192  29.051  44.774   4.123
74436W        W38193   8.855  14.132  13.395
74437W        W38194  17.775   9.223   2.823
74438W        W38195  15.098  22.033   4.135
74439W        W38196  11.846  17.285   4.734
74440W        W38197  42.371   0.842   3.763
74441W        W38198  35.987  30.102  12.006
74442W        W38199   7.336  21.665   1.874
74443W        W38200   2.815  40.926  11.886
74444W        W38201  11.259  27.944   1.785
74445W        W38202   8.659  16.106   1.761
74446W        W38203  36.505  24.009  13.016
74447W        W38204  29.438  30.609  11.612
74448W        W38205  19.533  17.243  10.897
74449W        W38206  34.864  14.129  12.360
74450W        W38207  37.913  17.708   2.728
74451W        W38208  31.429  25.539  10.503
74452W        W38209  16.784  41.377   3.823
74453W        W38210  44.330  28.564  12.054
74454W        W38211  38.526  42.354   3.227
74455W        W38212  39.982   9.376  10.961
74456W        W38213  27.627  37.897   2.719
74457W        W38214  36.395  30.082  11.947
74458W        W38215  15.700  13.154  10.581
74459W        W38216  39.406  28.677   4.227
74460W        W38217  38.074  44.435  10.581
74461W        W38218  10.235   1.969   1.325
74462W        W38219  13.320   1.960  11.515
74463W        W38220  36.936  29.134   0.928
74464W        W38221  29.654  29.942   3.221
74465W        W38222  25.161   2.335  14.488
74466W        W38223   7.885  10.715   3.248
74467W        W38224  30.996   5.886   1.892
74468W        W38225  18.085  16.701  11.081
74469W        W38226  24.684  21.225  11.002
74470W        W38227  36.429  40.839   0.365
74471W        W38228  28.063  11.836   0.459
74472W        W38229   3.413  28.610  12.895
74473W        W38230  14.789  38.819   3.237
74474W        W38231  24.677  43.299   1.316
74475W        W38232  30.994  38.909  13.961
74476W        W38233  14.779   3.326   2.329
74477W        W38234  16.793   8.681   0.243
74478W        W38235  25.032   7.805  14.026
74479W        W38236  41.999   8.329  14.478
74480W        W38237  35.539   3.827   0.943
74481W        W38238   0.441  18.146  14.322
74482W        W38239   6.388  10.751   0.930
74483W        W38240  28.559   8.232   3.247
74484W        W38241  16.769  32.054  11.557
74485W        W38242  42.850  21.744  12.824
74486W        W38243  30.916  16.175  10.546
74487W        W38244  18.782  40.997   1.292
74488W        W38245   4.255  39.321   0.316
74489W        W38246  26.118   5.195  12.893
74490W        W38247  25.534  41.462   0.360
74491W        W38248  29.992  44.877  10.494
74492W        W38249  19.554  38.404  13.503
74493W        W38250  14.637  39.360   1.275
74494W        W38251  42.909  34.065   2.216
74495W        W38252  21.096  23.006   4.289
74496W        W38253  35.438   6.808  12.049
74497W        W38254   7.371  38.559  10.551
74498W        W38255  34.477  28.546   3.381
74499W        W38256  28.052  30.957   0.801
74500W        W38257  22.063  36.867   2.709
74501W        W38258   4.817   5.398  11.891
74502W        W38259  28.482  34.104  12.069
74503W        W38260   2.331  26.165  12.052
74504W        W38261  17.746  31.153   4.335
74505W        W38262  30.491  39.349   2.784
74506W        W38263   8.665  31.554  14.942
74507W        W38264   6.216  12.743   2.736
74508W        W38265  44.429  19.771   1.430
74509W        W38266  12.731  29.137  14.809
74510W        W38267  22.546  33.075  13.401
74511W        W38268  44.918  35.942  12.419
74512W        W38269  37.530  39.017  11.910
74513W        W38270  17.743   7.794   4.824
74514W        W38271  16.673  29.439   1.343
74515W        W38272   8.370  31.151  10.968
74516W        W38273  13.692  26.081   3.239
74517W        W38274  43.989   9.761  13.451
74518W        W38275   2.766  28.643   3.190
74519W        W38276  11.633   8.706   0.425
74520W        W38277   3.928   8.216  13.326
74521W        W38278  35.913   1.400  10.430
74522W        W38279  34.538  22.147  11.596
74523W        W38280  10.702  44.414  12.418
74524W        W38281  28.024  27.651  13.941
74525W        W38282  43.414  40.852  11.966
74526W        W38283  30.611  23.653  13.503
74527W        W38284   0.412  30.005   0.965
74528W        W38285  28.491  44.480  12.469
74529W        W38286  13.185  23.726  11.379
74530W        W38287  33.574  41.848  12.440
74531W        W38288  15.760   9.240  12.951
74532W        W38289  15.797  17.753   1.301
74533W        W38290  40.828   5.196  13.500
74534W        W38291  38.333  20.096  11.573
74535W        W38292  20.607  18.769  14.960
74536W        W38293   4.917  37.532   1.768
74537W        W38294  22.551  24.553   2.322
74538W        W38295  15.738  13.344  13.523
74539W        W38296   2.817  36.871   0.333
74540W        W38297   1.840  10.796  14.966
74541W        W38298  34.377  23.040  11.539
74542W        W38299  17.582  28.600   0.812
74543W        W38300  32.426   8.884  14.364
74544W        W38301  35.365  40.532   3.286
74545W        W38302  21.146  37.558   4.635
74546W        W38303  26.192   1.315   2.326
74547W        W38304   5.758  27.008  14.300
74548W        W38305  31.947  33.007  13.830
74549W        W38306   1.280  20.180  11.038
74550W        W38307  25.606   7.268  13.403
74551W        W38308  29.493  15.232   2.864
74552W        W38309  16.796  26.595  11.565
74553W        W38310   3.301  34.567   3.633
74554W        W38311  44.006  15.135   4.646
74555W        W38312   4.800  21.257   1.819
74556W        W38313  12.346   0.984   0.243
74557W        W38314  30.147  14.796   0.761
74558W        W38315  39.862  36.477   2.810
74559W        W38316  41.839  28.448  11.038
74560W        W38317  25.637  15.244  10.574
74561W        W38318  26.688  12.187   3.817
74562W        W38319  34.387  42.420   3.847
74563W        W38320  32.561  43.322  11.523
74564W        W38321   0.871   4.278  12.887
74565W        W38322  43.019  38.474  14.341
74566W        W38323  27.005  28.668   0.726
74567W        W38324   1.252  44.382  12.016
74568W        W38325  21.160  37.386   1.771
74569W        W38326  24.722  24.643  13.810
74570W        W38327  17.620   3.906  13.424
74571W        W38328  28.929  43.774  11.983
74572W        W38329  22.620  22.558   0.386
74573W        W38330  33.882   1.436  12.511
74574W        W38331  21.571  33.441   2.745
74575W        W38332  41.354   1.896  13.507
74576W        W38333   3.429   7.911  13.012
74577W        W38334  12.194  15.788  13.395
74578W        W38335   2.762   5.378   0.942
74579W        W38336  29.656  30.923  11.983
74580W        W38337  32.074  41.413  13.309
74581W        W38338  11.168  39.055  13.515
74582W        W38339   4.879  44.355  13.889
74583W        W38340   2.285  37.978   3.772
74584W        W38341  12.660   1.883   1.716
74585W        W38342   7.407  42.029   0.473
74586W        W38343  40.346  10.805   4.154
74587W        W38344  31.130   8.871  11.508
74588W        W38345   1.965  18.694   2.785
74589W        W38346  11.676  15.604   4.723
74590W        W38347   1.382   1.478   3.220
74591W        W38348  44.004  16.725   4.222
74592W        W38349  10.219   8.351  11.457
74593W        W38350  31.983  43.015   1.434
74594W        W38351  22.530  12.640   4.819
74595W        W38352   5.241   6.238   4.626
74596W        W38353   2.424  33.999  11.415
74597W        W38354  19.042  44.767   4.719
74598W        W38355  21.571  26.614  13.399
74599W        W38356   8.270  36.067  13.363
74600W        W38357  37.581  34.492  14.877
74601W        W38358  39.381  34.409  14.971
74602W        W38359   5.774  11.293   0.372
74603W        W38360  36.908  42.019   3.269
74604W        W38361  37.010   5.918   3.869
74605W        W38362  12.631  30.479   3.250
74606W        W38363  33.886   8.220  11.053
74607W        W38364  42.813  20.768   3.326
74608W        W38365  25.195  36.854  10.415
74609W        W38366  12.755  32.044  14.877
74610W        W38367  29.565  16.074  12.986
74611W        W38368   8.771  30.459   2.707
74612W        W38369   4.220  33.903   3.340
74613W        W38370   9.230   1.302  13.342
74614W        W38371  18.657   4.703  13.314
74615W        W38372  40.798  10.830   4.154
74616W        W38373   2.737  25.076  12.999
74617W        W38374  18.572  36.421  11.928
74618W        W38375  30.987  16.269   9.474
74619W        W38376   5.918  28.576  10.469
74620W        W38377  25.212  37.012  13.532
74621W        W38378  39.555  23.533  14.948
74622W        W38379   4.282  12.807   4.780
74623W        W38380   2.956  29.051  13.499
74624W        W38381  34.370  37.082   1.776
74625W        W38382  43.955  13.342  12.424
74626W        W38383  20.107  19.283   0.364
74627W        W38384  40.482  10.285  10.031
74628W        W38385   1.964  13.621  11.504
74629W        W38386  36.571  11.676  11.532
74630W        W38387  19.202  25.216  12.017
74631W        W38388  34.898  34.587  13.877
74632W        W38389  12.763  33.515   2.722
74633W        W38390  31.589  36.553   2.374
74634W        W38391  41.294  42.466  11.610
74635W        W38392  40.400   7.867   3.285
74636W        W38393   6.416  24.582   1.308
74637W        W38394  23.113  22.221   0.306
74638W        W38395  30.562  20.556   4.129
74639W        W38396  19.063  20.195  11.482
74640W        W38397  22.124  35.892   1.441
74641W        W38398  17.698  34.087   1.295
74642W        W38399  14.624   3.924   0.360
74643W        W38400   8.169   1.483  14.331
74644W        W38401  26.967  21.214  13.887
74645W        W38402   3.933  36.483   3.683
74646W        W38403  36.862  39.991   1.447
74647W        W38404  32.597  25.658  10.914
74648W        W38405  24.485  19.705  11.061
74649W        W38406  31.918  29.161   3.340
74650W        W38407  37.065   3.340  12.473
74651W        W38408  32.914  30.985  10.107
74652W        W38409  21.203   2.822   0.966
74653W        W38410  37.897   6.265   3.262
74654W        W38411  12.783   3.896  10.536
74655W        W38412   2.458  38.401   3.155
74656W        W38413  11.277   7.779   3.670
74657W        W38414   4.387   0.278  12.095
74658W        W38415  34.012   6.368  13.871
74659W        W38416  14.613   6.421  11.393
74660W        W38417  19.051  38.985   4.625
74661W        W38418  41.354   9.385  11.384
74662W        W38419  10.782  35.042  11.560
74663W        W38420  22.724  27.691  12.856
74664W        W38421   1.474   0.447   3.240
74665W        W38422  28.097  43.443   1.282
74666W        W38423  23.598  29.578  13.944
74667W        W38424  37.843  16.175  14.329
74668W        W38425   4.235   6.911  11.075
74669W        W38426  31.432   3.386  12.379
74670W        W38427  31.013  27.652   3.318
74671W        W38428  35.480   9.649  14.019
74672W        W38429  40.399  22.023   3.730
74673W        W38430  29.169  38.379  12.413
74674W        W38431  35.398  22.133   2.385
74675W        W38432  44.414   2.907  14.415
74676W        W38433  35.866   3.762   0.892
74677W        W38434  39.876   9.715   3.847
74678W        W38435   9.645  19.754   0.306
74679W        W38436  24.050   1.413   3.196
74680W        W38437  30.054  28.664  12.462
74681W        W38438  11.251  19.208  10.530
74682W        W38439  12.772   6.377  12.962
74683W        W38440  10.657  41.309   3.847
74684W        W38441  44.949  36.375   4.177
74685W        W38442   4.402   7.342   0.270
74686W        W38443   8.272  24.703  13.911
74687W        W38444  14.819  31.512  10.533
74688W        W38445  25.696  18.158   2.364
74689W        W38446  31.465   8.722   0.480
74690W        W38447  38.461  27.497   1.410
74691W        W38448  21.199  12.340  13.999
74692W        W38449  10.819  35.110  12.484
74693W        W38450  40.968  28.494   1.360
74694W        W38451   8.705  43.843  14.026
74695W        W38452  41.538  44.864   4.786
74696W        W38453  16.313   1.244  11.993
74697W        W38454  44.940   8.890  14.831
74698W        W38455  42.477  11.759   3.798
74699W        W38456  27.545  44.910   3.169
74700W        W38457  32.989  43.000   3.864
74701W        W38458  26.503  31.540  12.343
74702W        W38459   5.289  29.969   4.197
74703W        W38460   4.384  40.378  14.884
74704W        W38461  26.046  30.084   1.741
74705W        W38462  34.559  44.483  13.509
74706W        W38463  28.556   7.381   2.884
74707W        W38464  35.417  11.672  13.924
74708W        W38465  13.679  21.132   3.869
74709W        W38466   9.779  43.925   4.151
74710W        W38467   5.267  11.640   3.754
74711W        W38468  43.352   4.933   4.681
74712W        W38469  44.419  38.058  11.952
74713W        W38470  38.918   2.864   0.469
74714W        W38471  34.101  28.564   1.910
74715W        W38472  37.450  14.202   3.766
74716W        W38473   6.873  10.380   3.857
74717W        W38474  44.948  14.789   4.277
74718W        W38475  12.705  13.783  13.983
74719W        W38476  39.320  23.625   0.835
74720W        W38477  44.915  31.559  12.848
74721W        W38478  18.684  43.513  11.397
74722W        W38479  25.027  37.899  12.873
74723W        W38480  17.159  12.350   3.642
74724W        W38481  33.100  41.517   4.697
74725W        W38482  25.631  35.471   3.387
74726W        W38483  37.582   0.387   1.876
74727W        W38484  24.154  42.931   4.672
74728W        W38485  29.492  43.393   2.327
74729W        W38486  33.455  28.573  12.994
74730W        W38487  16.079  28.680  12.849
74731W        W38488  41.021  31.107   2.326
74732W        W38489  19.188   6.418   1.347
74733W        W38490   8.384  23.183   4.716
74734W        W38491  41.404  18.130  13.855
74735W        W38492  19.197  36.402   4.185
74736W        W38493  27.656  39.814   2.212
74737W        W38494  26.549  27.043   3.382
74738W        W38495  10.227  37.835   1.753
74739W        W38496  38.339  12.798  13.377
74740W        W38497  35.360  44.467   4.701
74741W        W38498  39.531   0.849  13.051
74742W        W38499  28.576  17.673   3.845
74743W        W38500  40.350  17.773  11.034
74744W        W38501  30.116  42.504   4.828
74745W        W38502  16.737  31.008  13.483
74746W        W38503  11.269  10.352  13.507
74747W        W38504   5.861  10.142   1.401
74748W        W38505  20.566  42.013  10.563
74749W        W38506   7.270  36.484   3.650
74750W        W38507  17.213   7.224   0.868
74751W        W38508  16.573  36.093  14.461
74752W        W38509  18.643   3.364   3.345
74753W        W38510   5.328   4.910   0.771
74754W        W38511  19.533   2.433  12.563
74755W        W38512  43.861   8.805   0.912
74756W        W38513  18.241  19.648   1.920
74757W        W38514   1.347   6.801   1.322
74758W        W38515   4.701  41.870   4.114
74759W        W38516  15.667  29.651  13.016
74760W        W38517  15.682  19.282   2.251
74761W        W38518   3.416  18.654  12.388
74762W        W38519  27.980   1.259  11.064
74763W        W38520  21.247  41.998  12.093
74764W        W38521  11.801  32.060   1.415
74765W        W38522  17.190   8.718  14.429
74766W        W38523   0.781  15.754   1.931
74767W        W38524  31.908  32.406   3.667
74768W        W38525  16.795  39.505  12.489
74769W        W38526  11.838  31.080  11.903
74770W        W38527  43.861  13.302  11.491
74771W        W38528  32.549  25.643   0.792
74772W        W38529   2.390  11.703  13.912
74773W        W38530  19.543  40.975  14.029
74774W        W38531   4.922  12.812   1.235
74775W        W38532  28.511  10.222   1.749
74776W        W38533   4.331  16.647   3.172
74777W        W38534  35.369   7.848   2.805
74778W        W38535  11.360   9.388  11.597
74779W        W38536  32.142  42.777  10.604
74780W        W38537  34.376  21.189  12.831
74781W        W38538  33.035  23.024   1.899
74782W        W38539  20.138  18.220  12.960
74783W        W38540  41.355  34.510  13.047
74784W        W38541   6.215  36.542  13.890
74785W        W38542  30.921  36.850  11.556
74786W        W38543  31.151  13.253   2.411
74787W        W38544   4.739  17.694  14.486
74788W        W38545   8.230  19.595   3.224
74789W        W38546  34.475  43.381  10.616
74790W        W38547  39.874  44.438  10.564
74791W        W38548  22.633  13.167   4.229
74792W        W38549  41.035  23.008  13.950
74793W        W38550  44.855   0.265  14.972
74794W        W38551   2.953  35.456   1.890
74795W        W38552   0.765  34.010  11.500
74796W        W38553  43.884   2.409   3.789
74797W        W38554  30.506  17.764  12.390
74798W        W38555  34.947  13.176  13.829
74799W        W38556  30.427  43.913   4.234
74800W        W38557   4.819   2.378  14.823
74801W        W38558   2.314  16.636   3.355
74802W        W38559   4.441  42.317  14.925
74803W        W38560  38.035   2.908   3.738
74804W        W38561   5.861  40.394   9.577
74805W        W38562  33.531  35.456   3.368
74806W        W38563  12.810   8.730   0.344
74807W        W38564  37.374  27.588  12.535
74808W        W38565  43.284   2.923   4.802
74809W        W38566  19.155   3.260   2.769
74810W        W38567  14.646  36.352   4.773
74811W        W38568  14.686  15.227   4.324
74812W        W38569   9.191  36.057  14.878
74813W        W38570  13.814  25.589   0.348
74814W        W38571  16.179  10.637  12.022
74815W        W38572  22.145   8.242   3.630
74816W        W38573  23.706  16.317   3.202
74817W        W38574   6.758  42.790  11.392
74818W        W38575  14.334  18.708   1.700
74819W        W38576  20.746  22.132   1.291
74820W        W38577   8.832  31.931   3.704
74821W        W38578  28.477   5.294   2.391
74822W        W38579  26.004   5.884  13.871
74823W        W38580  40.804  40.006  11.569
74824W        W38581  11.806  26.117   0.836
74825W        W38582  37.564  16.103   1.928
74826W        W38583  31.435   2.320   0.727
74827W        W38584  13.689  20.271   4.710
74828W        W38585  35.371   0.306  12.381
74829W        W38586  25.200  18.642   2.709
74830W        W38587  41.005  29.595   4.237
74831W        W38588  10.768  34.021  11.098
74832W        W38589  33.989  24.105   4.677
74833W        W38590  22.187  25.211  14.460
74834W        W38591  15.210   7.284  12.472
74835W        W38592  34.374  30.649   4.217
74836W        W38593  28.658  32.138  14.840
74837W        W38594  20.131  37.547  14.814
74838W        W38595  23.714  44.386  12.990
74839W        W38596  19.110   8.279  11.989
74840W        W38597   4.432  14.777   2.300
74841W        W38598  11.741  32.412  11.929
74842W        W38599  14.607   3.248   0.894
74843W        W38600  18.580  19.609   5.317
74844W        W38601  24.143  37.342  11.927
74845W        W38602  44.272  11.678   1.774
74846W        W38603  31.527   7.734   1.273
74847W        W38604  38.824  36.965  14.765
74848W        W38605  37.861   6.718  10.572
74849W        W38606  24.172  44.283  13.800
74850W        W38607   4.864  29.072   3.795
74851W        W38608  30.658  36.896  11.045
74852W        W38609  22.105  18.551   3.302
74853W        W38610   5.270  29.580   1.336
74854W        W38611  18.624  32.056  14.009
74855W        W38612  38.965  33.384  12.525
74856W        W38613  43.493  40.364  14.308
74857W        W38614  26.672  13.121  11.057
74858W        W38615  36.390  35.577   0.829
74859W        W38616   1.345  40.514   0.280
74860W        W38617  26.667  39.853  10.955
74861W        W38618  10.749  43.389   2.732
74862W        W38619  18.121  30.623   4.174
74863W        W38620  21.584  26.994  13.855
74864W        W38621   4.385  29.525  14.367
74865W        W38622  44.898  16.084   2.849
74866W        W38623  24.703   8.809   0.959
74867W        W38624  39.042  34.554   2.305
74868W        W38625  40.980  34.019   1.213
74869W        W38626   9.212  42.296  12.543
74870W        W38627  35.904   8.234  14.770
74871W        W38628  38.338  27.457  11.004
74872W        W38629  20.677  37.978   4.343
74873W        W38630  30.053  42.393  13.940
74874W        W38631  41.955  35.948   0.794
74875W        W38632  12.745  30.128  11.899
74876W        W38633  15.756  17.712   3.310
74877W        W38634  26.487  15.250   2.828
74878W        W38635  11.188  43.863   4.716
74879W        W38636  23.235  24.157   2.221
74880W        W38637  17.274  25.071  12.439
74881W        W38638  28.457  20.189  11.398
74882W        W38639   6.376  44.356   9.946
74883W        W38640  29.132  10.714  11.031
74884W        W38641   6.787  16.150   0.336
74885W        W38642   2.750  13.616   0.382
74886W        W38643  11.755   0.818   5.180
74887W        W38644  30.096   1.377  11.049
74888W        W38645  42.931  25.078   4.740
74889W        W38646  25.489  20.683   4.697
74890W        W38647   8.247  38.376   1.417
74891W        W38648  34.083  20.707   2.699
74892W        W38649  32.486  31.642  14.362
74893W        W38650  41.912  24.074   1.240
74894W        W38651  15.250  18.719   3.359
74895W        W38652  18.089  28.540   3.213
74896W        W38653  22.172  13.661   4.240
74897W        W38654  14.139  44.753   3.360
74898W        W38655  25.687  44.343  13.383
74899W        W38656  31.120  18.641  13.477
74900W        W38657  26.676  13.217   4.142
74901W        W38658   4.910  38.022  10.425
74902W        W38659  26.579  16.812   1.296
74903W        W38660  38.055  27.084  12.412
74904W        W38661  31.446  24.558  13.439
74905W        W38662  40.361   1.816  13.517
74906W        W38663  28.064   0.810  11.587
74907W        W38664   1.759  34.556   1.220
74908W        W38665  29.591  19.207   0.958
74909W        W38666  26.648  20.540   0.769
74910W        W38667  37.415  39.459   4.355
74911W        W38668  30.919  17.275  14.793
74912W        W38669  31.966   2.381  14.388
74913W        W38670  37.437  37.855  14.504
74914W        W38671  40.318  38.496  11.441
74915W        W38672  23.134  29.092   2.206
74916W        W38673  28.586  15.655   0.407
74917W        W38674  37.977  44.878  13.829
74918W        W38675  42.292   6.352   0.312
74919W        W38676   9.748  24.506   1.242
74920W        W38677  24.209  18.610   2.190
74921W        W38678  40.914  10.673  13.539
74922W        W38679  25.056   9.802  14.968
74923W        W38680  11.653  13.268   0.889
74924W        W38681  22.680  35.440   3.344
74925W        W38682  24.119  23.714  10.465
74926W        W38683   3.273  23.082  13.312
74927W        W38684  42.788  29.520  11.017
74928W        W38685   8.315  34.062  14.985
74929W        W38686  11.360  31.066  13.436
74930W        W38687  36.065  33.432  13.992
74931W        W38688  24.193  40.983  14.819
74932W        W38689  37.926  26.126  14.011
74933W        W38690  28.496  31.104  11.110
74934W        W38691  26.999  12.638   1.933
74935W        W38692  23.601  32.629  14.276
74936W        W38693  23.127  21.572   2.824
74937W        W38694   7.253  29.610  14.965
74938W        W38695   5.200  42.910  12.398
74939W        W38696  35.060  13.144   2.730
74940W        W38697  42.432  16.225   0.332
74941W        W38698  25.141  16.567  12.530
74942W        W38699  26.983  26.198  10.561
74943W        W38700  17.193  29.517  12.575
74944W        W38701  31.044  33.910   2.745
74945W        W38702  35.473  32.466  13.534
74946W        W38703  31.908  40.935   3.147
74947W        W38704  38.895   6.263  13.333
74948W        W38705  15.147  33.522  13.311
74949W        W38706  10.362   8.364   0.864
74950W        W38707  27.155  10.197  14.397
74951W        W38708   3.304   6.420   2.249
74952W        W38709  15.152   2.767   1.348
74953W        W38710   5.734  16.585  13.474
74954W        W38711  38.901  40.882  14.370
74955W        W38712   0.895   2.463  13.451
74956W        W38713  29.489  39.850   2.814
74957W        W38714  21.642  10.146   0.421
74958W        W38715  40.935   2.763   2.196
74959W        W38716  27.474   2.912   1.349
74960W        W38717   1.295  23.602   0.259
74961W        W38718   5.241  28.950  13.472
74962W        W38719  41.021  44.359  12.929
74963W        W38720  20.752  36.361   3.652
74964W        W38721  43.815  15.636  10.891
74965W        W38722  16.144  33.388  13.016
74966W        W38723   4.764  14.290   2.865
74967W        W38724  12.271  14.205   3.377
74968W        W38725  13.290  15.092  10.535
74969W        W38726  19.627  11.719  13.867
74970W        W38727   7.281   0.307  12.929
74971W        W38728  40.455  11.280  12.022
74972W        W38729   6.363  42.479  13.894
74973W        W38730  31.112  13.273  11.608
74974W        W38731   7.193   6.285  11.557
74975W        W38732  41.403  41.508  13.523
74976W        W38733   1.419  30.496   0.407
74977W        W38734  29.531  27.691   0.262
74978W        W38735  21.150  13.810  10.433
74979W        W38736  23.649  39.507  11.083
74980W        W38737  19.777   2.451   4.707
74981W        W38738  12.814   7.181  14.492
74982W        W38739  15.258  42.359  14.847
74983W        W38740  23.209  28.614  14.514
74984W        W38741  34.052  25.102   2.883
74985W        W38742  18.575  42.511   2.237
74986W        W38743  20.111  33.918   1.294
74987W        W38744  11.154  35.905   4.655
74988W        W38745  43.426  42.928   0.868
74989W        W38746  21.119  11.817  13.894
74990W        W38747  28.558  36.907  12.033
74991W        W38748  25.092   6.231   3.657
74992W        W38749  28.531   5.279  10.139
74993W        W38750  35.008  41.821  13.841
74994W        W38751  15.680   9.276  12.087
74995W        W38752  17.076  32.977  14.931
74996W        W38753  43.353  21.235   0.250
74997W        W38754  29.143  28.935   4.787
74998W        W38755   3.251  43.929   4.344
74999W        W38756  31.999  43.795   3.851
75000W        W38757   1.761  31.135   4.225
75001W        W38758  20.028  18.718   4.777
75002W        W38759   2.295   5.350   3.743
75003W        W38760  33.568  34.468   4.151
75004W        W38761  40.434  29.980   4.236
75005W        W38762  24.572  16.115   2.689
75006W        W38763  20.237   5.688   4.119
75007W        W38764  21.600  25.172  13.454
75008W        W38765  28.989  34.544   0.349
75009W        W38766  31.436  14.779  11.390
75010W        W38767  11.270  30.089  12.458
75011W        W38768  26.506   6.334  10.980
75012W        W38769  31.482   1.345  10.538
75013W        W38770  31.986  35.504   4.164
75014W        W38771  11.283  23.500   4.691
75015W        W38772  33.535  14.139   4.795
75016W        W38773  10.748  42.454   1.770
75017W        W38774  31.547  30.051   1.335
75018W        W38775  28.085   7.266  10.161
75019W        W38776   6.387  31.523  10.591
75020W        W38777  10.383  21.687   1.822
75021W        W38778  17.568  20.729  10.479
75022W        W38779  38.900  31.986  14.436
75023W        W38780  20.073   2.232  13.459
75024W        W38781  26.202  34.369   0.262
75025W        W38782  37.843  27.649   3.249
75026W        W38783  14.165  29.488  13.838
75027W        W38784   6.702   6.874   3.293
75028W        W38785  27.659  28.953  11.599
75029W        W38786  25.972  40.450   2.784
75030W        W38787  10.279  26.693   4.346
75031W        W38788  42.024  27.564   1.422
75032W        W38789  37.071   0.353  12.424
75033W        W38790  13.181  42.999  14.370
75034W        W38791  36.860   2.741  14.988
75035W        W38792  32.505  12.776   3.222
75036W        W38793  17.789  42.938   1.771
75037W        W38794  13.812  15.759   4.648
75038W        W38795   0.883   0.343   4.799
75039W        W38796  19.575  39.958  11.009
75040W        W38797  34.104   7.303   4.739
75041W        W38798  43.483  29.011  11.443
75042W        W38799   7.900   4.338  13.538
75043W        W38800   5.272  23.569   2.223
75044W        W38801   5.433  14.335   4.120
75045W        W38802  37.507  43.925  14.776
75046W        W38803  23.639  17.235  13.528
75047W        W38804  32.418  42.003  10.912
75048W        W38805  33.955  38.466  12.018
75049W        W38806  24.212  25.031  14.913
75050W        W38807  25.682  44.860   4.778
75051W        W38808  25.974  32.529  10.588
75052W        W38809  22.147  20.688   2.864
75053W        W38810  16.675  18.592  12.473
75054W        W38811  29.533  24.505  12.043
75055W        W38812  25.061   5.269  10.572
75056W        W38813  40.979   5.919   3.812
75057W        W38814  14.653  20.067   0.346
75058W        W38815  34.889  18.213   4.227
75059W        W38816  38.870  44.398   4.243
75060W        W38817   8.370  13.599  10.960
75061W        W38818  32.418  41.918   2.328
75062W        W38819   4.328   9.775  13.937
75063W        W38820  44.359  28.467   2.330
75064W        W38821   4.811  41.462   2.311
75065W        W38822  14.802  24.028   2.243
75066W        W38823  33.455  25.118  14.480
75067W        W38824  39.351  32.928   1.756
75068W        W38825  18.604   7.201  10.495
75069W        W38826  18.251  13.303  11.998
75070W        W38827  32.614  24.168  13.482
75071W        W38828  12.173  29.168  11.088
75072W        W38829  20.076  30.997  13.487
75073W        W38830  36.882  17.231  12.457
75074W        W38831  30.431  43.432  14.989
75075W        W38832   3.280  36.946  12.341
75076W        W38833  11.249  30.154  14.445
75077W        W38834   3.862  17.211   1.704
75078W        W38835  25.494  43.270   3.233
75079W        W38836  40.481   2.828  14.865
75080W        W38837  40.459  21.118  10.423
75081W        W38838  18.248  10.686   4.783
75082W        W38839  32.500   2.303  14.809
75083W        W38840  27.560  13.234  14.305
75084W        W38841  26.546  31.553  13.036
75085W        W38842   1.483  26.563  13.477
75086W        W38843   7.816   4.945   4.163
75087W        W38844  10.642  28.001   2.386
75088W        W38845  17.567   1.826   3.723
75089W        W38846  24.524  23.031  14.969
75090W        W38847  30.148  26.079   3.704
75091W        W38848  20.164   5.923   1.391
75092W        W38849  13.308  39.057   4.345
75093W        W38850  12.285  14.693   1.282
75094W        W38851  12.802  36.020  14.404
75095W        W38852  40.442  30.523   5.274
75096W        W38853  44.915   8.180   1.333
75097W        W38854  31.630  16.259   2.697
75098W        W38855  38.545  31.949   3.360
75099W        W38856  24.641   0.338  11.116
75100W        W38857  17.110  30.107   2.344
75101W        W38858  13.144   0.804   2.681
75102W        W38859  40.327  24.691  12.057
75103W        W38860  37.552  28.586   0.778
75104W        W38861  31.438  41.927  12.504
75105W        W38862  16.645  10.875   0.904
75106W        W38863   0.476   0.820   4.221
75107W        W38864   3.712   6.747  10.967
75108W        W38865  30.578   3.942   0.769
75109W        W38866  29.025  27.940   2.182
75110W        W38867   9.838   4.931   3.271
75111W        W38868  11.227  26.500   0.772
75112W        W38869  41.962  40.513  13.500
75113W        W38870  19.578  23.525  10.582
75114W        W38871  35.887  24.152  13.520
75115W        W38872  22.127  37.489  14.018
75116W        W38873   8.163  29.426  10.953
75117W        W38874  40.326  42.282   2.323
75118W        W38875  36.509  35.944   0.361
75119W        W38876  24.080  32.111  14.765
75120W        W38877  13.638  43.478  11.070
75121W        W38878  20.272  41.502   2.727
75122W        W38879  35.542  44.291  12.921
75123W        W38880  18.660  30.441   2.825
75124W        W38881  30.446  28.545  13.521
75125W        W38882  24.226   0.451   4.145
75126W        W38883  30.489   9.873   4.262
75127W        W38884  21.663  17.566   2.851
75128W        W38885  13.629   1.952  14.389
75129W        W38886  26.073  31.091   0.842
75130W        W38887  35.433   1.737   2.864
75131W        W38888  12.785  42.472   4.837
75132W        W38889  25.576  40.851  14.017
75133W        W38890  17.094   7.826  13.884
75134W        W38891  43.803   7.306   1.883
75135W        W38892  15.667  34.953   3.365
75136W        W38893  39.531  29.473   3.726
75137W        W38894   5.251  15.788   3.281
75138W        W38895   0.455  14.643   4.329
75139W        W38896   0.249  40.982   2.399
75140W        W38897   8.891   2.467  14.295
75141W        W38898   0.850  36.376   0.960
75142W        W38899   2.345  34.581   3.376
75143W        W38900  38.000  12.166   2.402
75144W        W38901   2.229   9.821  11.500
75145W        W38902  39.545  14.226   3.161
75146W        W38903  19.656  29.122  14.814
75147W        W38904  24.656  21.699   4.707
75148W        W38905   1.344   2.367   0.952
75149W        W38906  36.923  35.566   1.439
75150W        W38907   6.229  15.268  12.034
75151W        W38908   7.780  39.912  14.832
75152W        W38909   4.765  32.424   4.741
75153W        W38910  32.062  32.568   0.896
75154W        W38911  14.125  24.152  11.582
75155W        W38912  30.654  27.602  13.978
75156W        W38913  42.443  29.516  14.491
75157W        W38914  27.146   0.463  11.068
75158W        W38915  19.602  15.615   0.267
75159W        W38916   0.297  14.289  14.855
75160W        W38917  30.014  36.481   3.713
75161W        W38918   3.338  30.617   1.354
75162W        W38919  36.936  18.545  11.523
75163W        W38920   7.386   5.296   2.388
75164W        W38921  37.508  44.888   3.339
75165W        W38922  31.019   2.438   4.662
75166W        W38923  33.408   3.952  13.874
75167W        W38924  33.555   3.778  11.500
75168W        W38925  19.563  38.042   2.311
75169W        W38926   1.811  27.498  11.944
75170W        W38927  13.241  27.038   1.719
75171W        W38928  31.551   5.794   1.808
75172W        W38929  39.879  44.846  14.944
75173W        W38930  28.523  20.607   3.338
75174W        W38931  36.347  11.340   4.251
75175W        W38932   7.670  35.937  14.436
75176W        W38933  13.173  16.575   4.186
75177W        W38934  19.718  28.953  12.837
75178W        W38935  17.160   6.373  14.968
75179W        W38936  17.598   9.269   2.241
75180W        W38937  18.136  29.000   3.328
75181W        W38938  26.475  29.628   1.790
75182W        W38939  22.526  20.682   3.758
75183W        W38940  30.051   3.877  11.547
75184W        W38941   1.732  15.281  14.843
75185W        W38942  44.851  37.989   0.802
75186W        W38943  15.220  29.498   0.935
75187W        W38944  39.920   5.819  14.499
75188W        W38945  16.202   9.201  14.379
75189W        W38946  44.429  39.049  12.512
75190W        W38947  44.771  23.195  14.955
75191W        W38948  35.536  34.377   3.789
75192W        W38949  27.610  11.670   4.650
75193W        W38950  32.574  32.467  13.309
75194W        W38951   8.811  29.002   1.303
75195W        W38952  25.512  36.506  14.281
75196W        W38953  25.104  17.143   4.603
75197W        W38954  26.114  42.948   9.925
75198W        W38955  31.491   7.681  11.860
75199W        W38956   5.429  19.673   2.742
75200W        W38957  36.089   6.730   3.203
75201W        W38958   3.446  18.289  11.109
75202W        W38959  43.927  30.503  10.590
75203W        W38960  14.122  15.169   1.342
75204W        W38961  29.426  24.209   4.335
75205W        W38962  24.156  13.250   4.265
75206W        W38963  32.516  11.749  14.326
75207W        W38964  35.430  19.712  13.548
75208W        W38965  33.073  22.043  11.574
75209W        W38966  25.982  14.737   1.901
75210W        W38967  31.127   9.682   4.239
75211W        W38968  23.598  30.968  12.373
75212W        W38969  23.011  22.136  10.951
75213W        W38970  19.266  22.021   0.809
75214W        W38971  33.385  39.404   0.398
75215W        W38972  29.107  40.306   0.807
75216W        W38973  11.231  14.340   5.138
75217W        W38974  36.560  10.827   4.122
75218W        W38975   8.163  40.827   1.332
75219W        W38976  34.418  10.165  10.443
75220W        W38977  33.570  22.675  13.446
75221W        W38978  22.025  38.377  14.019
75222W        W38979   7.689   5.688   1.228
75223W        W38980  13.127   9.655  13.437
75224W        W38981  35.861  25.186   0.338
75225W        W38982   5.911  17.697  13.898
75226W        W38983   1.440   7.876   1.344
75227W        W38984  13.609   3.827  13.878
75228W        W38985  26.102   7.372  14.363
75229W        W38986   2.336  24.645  10.623
75230W        W38987  33.071  31.100   4.275
75231W        W38988  23.601  19.239  11.507
75232W        W38989  26.605  24.177  12.539
75233W        W38990   7.231  31.095  10.558
75234W        W38991   1.745   1.817   2.400
75235W        W38992   4.295   1.758  14.870
75236W        W38993  18.135  11.318   4.250
75237W        W38994  29.618  18.738  14.901
75238W        W38995   9.228  29.965  11.951
75239W        W38996  36.913   6.768   3.248
75240W        W38997  39.000  33.880   1.347
75241W        W38998  18.099  10.797   1.384
75242W        W38999   6.329   7.702  14.395
75243W        W39000   0.817  11.813  12.491
75244W        W39001   3.803  19.254   0.327
75245W        W39002  17.145  17.595  12.355
75246W        W39003  39.042  27.157  12.993
75247W        W39004   0.313  28.006  11.539
75248W        W39005   5.322  33.513  13.376
75249W        W39006  15.107  18.652   4.168
75250W        W39007  38.057  18.070   4.625
75251W        W39008  38.404   9.868   2.335
75252W        W39009   2.952  36.016  14.342
75253W        W39010  27.631  31.923  14.489
75254W        W39011   7.291  21.537   2.289
75255W        W39012  15.308   7.405  13.848
75256W        W39013   4.907  16.316   1.861
75257W        W39014  19.147  31.433  13.863
75258W        W39015  35.991   0.793   3.740
75259W        W39016  37.526  17.769  10.531
75260W        W39017   5.227   1.361   2.758
75261W        W39018   1.277  31.896  14.285
75262W        W39019  44.852  41.798   3.687
75263W        W39020   8.169   6.823   3.340
75264W        W39021   2.315  38.552  14.780
75265W        W39022  18.227  15.265   0.404
75266W        W39023   5.885  19.259   3.851
75267W        W39024  30.476  35.908   2.398
75268W        W39025  15.103  23.129   3.808
75269W        W39026  40.038  24.624   0.964
75270W        W39027   5.918  35.513  10.421
75271W        W39028  18.610   0.334   0.832
75272W        W39029  33.048  24.085   0.345
75273W        W39030  35.449  26.477   4.715
75274W        W39031  35.075   9.773   1.847
75275W        W39032  13.782  32.556   4.612
75276W        W39033  18.729  28.582  12.385
75277W        W39034  23.106  40.503   4.160
75278W        W39035  33.121  44.988   1.772
75279W        W39036  18.622  15.665   0.816
75280W        W39037  13.146  21.543  14.866
75281W        W39038   1.866   1.379   4.797
75282W        W39039  37.006  31.938  14.301
75283W        W39040  40.414  36.506  13.895
75284W        W39041   4.378  34.597  14.953
75285W        W39042  15.696  28.516  11.103
75286W        W39043  18.739   7.744   2.287
75287W        W39044   3.277   4.436   0.895
75288W        W39045  42.421   6.191  14.406
75289W        W39046  33.431  13.121  10.060
75290W        W39047  30.044   4.360   1.298
75291W        W39048  37.567   4.385   2.736
75292W        W39049  34.987  36.015   3.175
75293W        W39050  34.500  43.815  13.824
75294W        W39051  11.143  44.342   5.244
75295W        W39052   1.912  13.186   2.368
75296W        W39053   8.818  21.146   0.846
75297W        W39054  13.310   4.850   2.810
75298W        W39055  32.070  41.919   0.319
75299W        W39056  26.956  13.666   0.326
75300W        W39057  36.537  30.599   0.249
75301W        W39058  14.200  34.107  11.522
75302W        W39059  40.455  25.628   3.222
75303W        W39060  30.004  40.881  14.428
75304W        W39061  31.462  13.723   4.598
75305W        W39062  14.749   2.794   1.889
75306W        W39063  28.487  19.540  13.330
75307W        W39064  28.989  40.981   3.679
75308W        W39065   0.786   8.826   3.842
75309W        W39066  28.477  15.728  13.061
75310W        W39067  42.415  32.903   3.304
75311W        W39068  40.408   9.284   4.734
75312W        W39069  15.197  35.029   3.363
75313W        W39070  12.633  35.939   1.295
75314W        W39071  22.076   4.872   4.158
75315W        W39072   8.301  35.926   3.776
75316W        W39073  10.669  35.981   5.286
75317W        W39074   0.452  36.400  14.953
75318W        W39075  24.098  20.259   1.772
75319W        W39076  37.847  27.040  13.354
75320W        W39077  36.883  35.410  14.436
75321W        W39078  32.430   8.178  14.507
75322W        W39079  43.940   9.726   3.293
75323W        W39080  29.085  42.987   4.598
75324W        W39081  33.880  25.210  12.094
75325W        W39082  26.150  38.005  10.519
75326W        W39083   9.690  17.794  10.484
75327W        W39084  43.327   9.216   1.774
75328W        W39085   3.441  25.701  14.415
75329W        W39086  33.459  26.622  12.531
75330W        W39087  22.544  35.486   0.314
75331W        W39088  38.917  27.116   3.670
75332W        W39089  32.900  44.845   3.803
75333W        W39090   7.246  21.687  13.021
75334W        W39091  40.533  31.530   4.288
75335W        W39092  26.184  27.542  13.921
75336W        W39093  11.304  33.472  10.409
75337W        W39094  39.471  42.378   4.246
75338W        W39095  16.257  13.748  12.555
75339W        W39096   7.875  38.362  13.979
75340W        W39097  21.245  30.551  14.300
75341W        W39098  28.522   1.441  14.369
75342W        W39099  37.924  28.622   0.768
75343W        W39100  12.200  13.707   4.714
75344W        W39101  19.176   8.890  10.484
75345W        W39102  10.664  19.685  12.004
75346W        W39103  38.855  11.820   1.741
75347W        W39104  44.370   6.228  12.456
75348W        W39105   5.744  28.162   3.666
75349W        W39106  37.863  10.233  13.541
75350W        W39107  32.414   8.402   1.313
75351W        W39108  16.255  31.430   4.210
75352W        W39109  14.330  36.371   1.821
75353W        W39110  21.587  25.062  14.879
75354W        W39111   3.881  33.545   4.775
75355W        W39112   6.310   3.925   3.344
75356W        W39113  23.535   5.795  13.967
75357W        W39114  38.514  25.082   1.385
75358W        W39115  15.588   2.787   1.340
75359W        W39116  31.476  30.990  14.963
75360W        W39117   7.715   5.899  14.860
75361W        W39118  20.216   6.383  11.397
75362W        W39119  13.657  16.770   2.743
75363W        W39120   6.246   4.924   4.835
75364W        W39121  19.687  41.367   4.164
75365W        W39122   2.779  32.517   0.788
75366W        W39123  16.201  16.746  14.464
75367W        W39124   5.248  23.585  14.340
75368W        W39125  29.535  38.341  10.589
75369W        W39126  28.477  25.620  11.129
75370W        W39127  14.748   7.902  10.639
75371W        W39128  35.048  33.440  11.611
75372W        W39129  35.094   3.244  10.462
75373W        W39130   6.707   7.729  14.411
75374W        W39131  28.448   3.221   0.944
75375W        W39132  18.209  21.619   4.683
75376W        W39133   1.251  27.517   4.210
75377W        W39134  10.192  10.834   2.381
75378W        W39135   5.841  43.418   2.785
75379W        W39136  12.175  41.797   1.429
75380W        W39137  39.990  13.775  11.466
75381W        W39138  24.030   7.264   1.451
75382W        W39139  38.936  12.284  13.057
75383W        W39140  12.748  22.568  13.446
75384W        W39141   2.332  13.159  12.406
75385W        W39142  30.616   0.379  13.442
75386W        W39143   5.741  32.552  11.394
75387W        W39144  38.525  37.406   0.371
75388W        W39145  28.497   3.219  10.095
75389W        W39146  44.290  37.548   1.398
75390W        W39147  41.913  13.218  13.481
75391W        W39148  32.613  36.562   4.630
75392W        W39149  14.652   3.954  13.366
75393W        W39150   7.295  21.161  13.377
75394W        W39151  41.325  10.719  11.005
75395W        W39152  16.812   3.443  11.439
75396W        W39153  44.386  34.468  13.914
75397W        W39154   5.243  34.525  13.977
75398W        W39155  29.098  20.599   2.189
75399W        W39156  40.987  29.949  14.955
75400W        W39157  15.243  34.927   2.703
75401W        W39158  18.755  22.046   1.701
75402W        W39159  20.708  15.722  11.052
75403W        W39160  26.502   5.209   3.276
75404W        W39161  20.654  28.959   2.204
75405W        W39162  28.972   7.344   0.309
75406W        W39163  41.010   5.749   2.708
75407W        W39164  33.032  29.150   1.885
75408W        W39165  27.459   0.411   1.334
75409W        W39166  41.968   9.352   2.257
75410W        W39167   1.432  21.077   3.368
75411W        W39168  20.708   8.716  13.918
75412W        W39169   0.408  33.046   4.814
75413W        W39170  24.133  16.789   3.200
75414W        W39171  39.037  38.073   4.317
75415W        W39172  27.102  36.537  14.903
75416W        W39173  26.141  35.893  10.932
75417W        W39174  42.361  33.499  12.437
75418W        W39175   0.802  18.189   0.435
75419W        W39176   5.814  33.497  13.528
75420W        W39177  21.596   6.211  10.130
75421W        W39178  11.263  35.396  11.061
75422W        W39179  16.763  41.869   2.772
75423W        W39180   9.814   2.861  12.413
75424W        W39181  32.542  42.822   5.167
75425W        W39182  30.969  36.094  14.441
75426W        W39183  25.032   3.770  10.441
75427W        W39184  11.637  10.226   9.984
75428W        W39185   9.737  15.720   1.349
75429W        W39186  41.305  26.999  14.832
75430W        W39187  22.995   9.829  10.451
75431W        W39188  24.230  24.998  12.496
75432W        W39189  28.138   0.747  12.552
75433W        W39190   7.874  34.942   3.650
75434W        W39191  29.469  19.146  12.974
75435W        W39192  38.383  43.806  10.569
75436W        W39193  43.309  42.435  12.863
75437W        W39194   4.362  15.690   2.343
75438W        W39195  40.429  32.025  13.417
75439W        W39196  17.167  32.537   3.858
75440W        W39197  34.522   9.380  11.936
75441W        W39198  44.769  30.112  14.887
75442W        W39199  15.663  21.215  12.355
75443W        W39200  20.709  38.327   2.754
75444W        W39201  20.060   1.450  13.904
75445W        W39202   9.838   1.943   3.848
75446W        W39203   8.802  14.712   0.806
75447W        W39204  40.497  17.737   3.251
75448W        W39205  42.892  28.044   1.404
75449W        W39206  31.135  25.037   4.815
75450W        W39207   7.699  29.481   4.672
75451W        W39208  33.592  11.231  14.963
75452W        W39209   5.821  39.367   2.209
75453W        W39210  30.555  22.248  12.069
75454W        W39211  33.590  27.492  14.947
75455W        W39212  19.179   6.718  13.881
75456W        W39213  35.932  39.337  14.489
75457W        W39214  18.598  36.048   1.376
75458W        W39215   6.794  17.748  14.902
75459W        W39216   8.262  36.957   0.424
75460W        W39217  16.275  26.164  14.836
75461W        W39218  36.556  33.475  14.887
75462W        W39219  38.486  39.552  13.947
75463W        W39220  42.363  38.005  13.861
75464W        W39221  23.568  15.285  10.534
75465W        W39222  41.817  32.049  14.503
75466W        W39223   7.893  43.331   4.723
75467W        W39224  22.585  16.081   2.892
75468W        W39225  11.649  19.579  13.544
75469W        W39226   0.372  33.397   0.287
75470W        W39227   1.320  40.898  10.434
75471W        W39228  39.392  20.114   1.215
75472W        W39229  42.419  25.076  13.867
75473W        W39230   0.325  41.976   4.826
75474W        W39231  27.632   3.838   2.215
75475W        W39232  19.553  19.244  14.991
75476W        W39233  43.016   9.777  11.117
75477W        W39234  12.362  25.651  11.581
75478W        W39235  24.132  18.182   4.790
75479W        W39236  19.564  10.745   3.809
75480W        W39237  16.285  25.653  12.522
75481W        W39238   5.884  43.388   2.347
75482W        W39239  19.275  30.604   4.831
75483W        W39240  20.734  16.573  13.521
75484W        W39241   9.200  39.508  11.605
75485W        W39242   0.279   6.693   4.807
75486W        W39243   5.239   4.871  11.590
75487W        W39244  21.739  19.248   1.750
75488W        W39245   1.317  28.009  13.881
75489W        W39246  13.329  32.040   2.235
75490W        W39247  35.520   3.346   4.346
75491W        W39248  37.009  21.195   2.697
75492W        W39249  16.093   7.223   0.481
75493W        W39250  10.242   1.337  11.562
75494W        W39251  22.582   0.870   0.360
75495W        W39252  20.531  15.152  10.054
75496W        W39253   2.746   9.868   3.226
75497W        W39254   3.448  38.453  10.577
75498W        W39255  38.859  26.641  14.430
75499W        W39256  36.365  36.852   4.120
75500W        W39257  44.813  40.525  12.993
75501W        W39258  19.627  22.613   2.339
75502W        W39259  26.645   0.780  11.571
75503W        W39260  25.202  26.990  10.633
75504W        W39261  40.349  30.942  10.898
75505W        W39262   3.955  16.574  11.530
75506W        W39263  26.662  37.506  10.982
75507W        W39264  28.133  44.501  10.535
75508W        W39265  15.093  42.944  10.923
75509W        W39266  20.139  27.971   0.772
75510W        W39267   0.477  32.403   3.311
75511W        W39268  39.048   1.448  12.401
75512W        W39269  22.730   5.195   3.206
75513W        W39270  28.136  22.209   2.371
75514W        W39271  11.233   8.272   1.396
75515W        W39272  42.891  23.136  14.319
75516W        W39273   0.893  27.962  11.419
75517W        W39274  27.451  11.667  10.625
75518W        W39275  16.668  12.801  10.005
75519W        W39276  11.686  20.761  13.820
75520W        W39277  26.691   5.390   1.289
75521W        W39278  27.165  36.578   1.214
75522W        W39279  38.934  23.491  10.549
75523W        W39280  27.653   8.232   2.824
75524W        W39281   1.328  40.995  14.818
75525W        W39282   7.912   5.355   0.770
75526W        W39283   6.281  39.517   4.139
75527W        W39284  18.081  12.684   4.201
75528W        W39285  25.091  42.327  14.944
75529W        W39286   2.948  10.346  11.905
75530W        W39287   3.792  34.119  14.332
75531W        W39288   4.710   2.447   2.286
75532W        W39289   4.416  39.983  12.373
75533W        W39290   0.432  44.278  13.408
75534W        W39291  32.910  26.173  13.994
75535W        W39292  25.971   7.359   4.755
75536W        W39293  11.163  13.264  11.574
75537W        W39294  29.558  43.992   3.302
75538W        W39295  12.257   7.415   1.836
75539W        W39296  17.295  26.134   4.235
75540W        W39297  12.255   2.796   0.392
75541W        W39298   5.786  19.767  10.563
75542W        W39299  34.059   8.715  11.041
75543W        W39300  41.840  22.007   0.905
75544W        W39301  37.449  19.264   1.749
75545W        W39302   0.943  11.707   4.626
75546W        W39303  34.443  38.825  12.380
75547W        W39304  43.453  44.800  14.324
75548W        W39305   2.234  10.871   4.619
75549W        W39306  18.549  38.460  11.934
75550W        W39307  42.790  15.797   5.166
75551W        W39308  42.310  20.734   1.219
75552W        W39309  38.421  19.548  12.006
75553W        W39310  20.231  21.676  14.448
75554W        W39311  36.940   6.233  12.993
75555W        W39312   7.692  27.470  13.062
75556W        W39313  34.443  19.252  10.891
75557W        W39314  11.778  29.060   1.821
75558W        W39315  19.081  43.924  14.813
75559W        W39316  31.938  43.836  14.817
75560W        W39317   8.716  38.943   5.106
75561W        W39318  22.168  30.152  12.939
75562W        W39319  16.252  18.790  11.116
75563W        W39320  34.944  30.499   5.173
75564W        W39321  10.353   0.311   3.354
75565W        W39322  19.253  42.437  11.016
75566W        W39323  39.385  27.690   3.350
75567W        W39324  32.021  31.407   1.907
75568W        W39325  32.938  26.121   4.167
75569W        W39326  34.526   1.238   4.806
75570W        W39327  37.063  38.861  13.527
75571W        W39328  40.427  36.506   4.333
75572W        W39329  32.128   8.337   0.379
75573W        W39330  30.093  31.562  14.515
75574W        W39331   3.736  35.079   3.838
75575W        W39332  24.056  25.693  13.812
75576W        W39333  27.040  25.220   4.746
75577W        W39334  36.091   7.836   3.254
75578W        W39335   8.695  24.976  14.480
75579W        W39336  17.222  10.184  14.002
75580W        W39337  30.436   2.887  13.022
75581W        W39338  32.578   5.878  10.592
75582W        W39339  41.992  16.661  11.585
75583W        W39340  42.495  33.393  11.447
75584W        W39341  15.593  21.120   3.726
75585W        W39342  44.879  14.272   1.350
75586W        W39343  23.642   7.733   4.724
75587W        W39344  17.725  33.916  14.760
75588W        W39345  28.164   8.810  11.909
75589W        W39346  20.541   1.304  13.384
75590W        W39347  25.131  16.644   4.602
75591W        W39348  44.759  40.362   3.668
75592W        W39349   0.816  25.467   0.907
75593W        W39350  38.485  21.065  14.435
75594W        W39351  22.156  13.789  14.512
75595W        W39352  34.590  34.482   3.832
75596W        W39353  22.602  12.737   1.841
75597W        W39354  13.741   8.287  11.129
75598W        W39355  34.506  42.394   4.630
75599W        W39356  16.777  18.596   2.747
75600W        W39357  23.189  36.031   0.952
75601W        W39358  42.447  41.798  14.349
75602W        W39359  13.261  30.420  10.999
75603W        W39360  10.792  21.155   4.636
75604W        W39361   0.437  36.889  12.539
75605W        W39362  21.666  37.001   3.641
75606W        W39363  16.793  35.601   1.302
75607W        W39364  19.606  36.587  13.325
75608W        W39365  31.080   9.848   0.771
75609W        W39366  22.647  22.555  13.445
75610W        W39367   4.369  16.155  12.953
75611W        W39368  14.160  11.283   2.799
75612W        W39369  26.055  13.637  14.398
75613W        W39370  19.250  17.255  11.030
75614W        W39371  17.610  42.373   2.327
75615W        W39372  38.556  43.282   0.411
75616W        W39373   6.259  37.988   4.820
75617W        W39374  30.447  33.553   1.337
75618W        W39375   3.363  29.459   4.642
75619W        W39376  25.157  31.071  11.040
75620W        W39377  36.849   2.758  12.977
75621W        W39378  32.074  28.954  14.930
75622W        W39379   0.863  32.937   4.235
75623W        W39380  40.943  12.708  11.491
75624W        W39381   5.752  22.206   3.292
75625W        W39382  24.571   3.819  11.925
75626W        W39383   9.678   8.382   4.267
75627W        W39384  39.454  10.865  12.377
75628W        W39385  31.153  28.478  14.476
75629W        W39386  34.905  26.991   2.381
75630W        W39387  11.249   6.305  13.885
75631W        W39388  21.261  16.733   1.342
75632W        W39389  37.067   2.360  13.806
75633W        W39390  37.447  35.373  14.310
75634W        W39391  44.440  16.205   0.784
75635W        W39392   9.704  31.413  12.866
75636W        W39393  32.539   2.739  10.905
75637W        W39394  44.389  38.548   0.782
75638W        W39395  26.164  12.139  10.529
75639W        W39396  10.776  38.913   3.381
75640W        W39397  16.738   4.895   2.232
75641W        W39398  42.812  40.344  14.392
75642W        W39399  40.873   8.691  11.966
75643W        W39400  28.929  18.191   3.369
75644W        W39401  43.305  39.974  12.908
75645W        W39402  31.945   9.858  11.444
75646W        W39403  44.935  27.022   1.802
75647W        W39404  16.296   5.241  13.004
75648W        W39405  42.469  10.363  12.972
75649W        W39406   0.765  35.938   0.859
75650W        W39407   3.814  18.272   4.250
75651W        W39408  10.360  14.151  10.461
75652W        W39409  26.102  13.844  12.963
75653W        W39410  35.961  29.170   3.311
75654W        W39411  33.912  21.691   4.285
75655W        W39412  33.126  28.966  10.552
75656W        W39413  28.131  28.664  10.631
75657W        W39414   5.715  23.216   4.761
75658W        W39415  42.834   5.798   3.772
75659W        W39416  15.167  23.089   4.124
75660W        W39417  43.927  39.958   1.831
75661W        W39418  42.503  38.427  11.539
75662W        W39419  33.878  20.722  14.328
75663W        W39420   5.364  35.553  12.464
75664W        W39421   0.775  37.395   1.819
75665W        W39422  13.699  32.096   2.363
75666W        W39423   0.924  19.256   3.652
75667W        W39424  19.640  22.508  13.359
75668W        W39425   9.714  22.208  11.597
75669W        W39426  19.267  35.442  10.475
75670W        W39427  29.161  40.863  10.534
75671W        W39428  33.538  19.199   1.386
75672W        W39429  21.169  27.600   0.737
75673W        W39430  32.601  39.058  13.805
75674W        W39431  10.243  13.272   2.672
75675W        W39432  44.901  15.143   3.336
75676W        W39433  31.608   9.665   4.729
75677W        W39434  23.623  43.450  10.932
75678W        W39435   5.207  19.772  12.894
75679W        W39436  18.767   8.243  11.980
75680W        W39437  25.090  23.237  13.804
75681W        W39438  32.610  41.377   1.301
75682W        W39439  34.374   8.217  14.840
75683W        W39440   7.187  39.026  14.801
75684W        W39441  26.643   5.876  13.983
75685W        W39442  30.578  24.151   1.436
75686W        W39443  22.038  30.116  11.032
75687W        W39444  30.482   1.309   3.342
75688W        W39445  15.803  32.027  11.456
75689W        W39446   9.275  18.261   3.312
75690W        W39447   9.806  38.326  13.533
75691W        W39448   6.243  40.910  13.894
75692W        W39449  36.498  14.337   0.403
75693W        W39450  34.597  26.044  11.556
75694W        W39451  39.461  42.787  13.877
75695W        W39452  35.596  20.138   1.288
75696W        W39453   9.354   4.412   4.651
75697W        W39454  14.602  22.101  13.988
75698W        W39455  42.491   0.449  13.850
75699W        W39456  44.390  13.714   0.305
75700W        W39457   7.808  37.995  13.882
75701W        W39458  20.218  13.291  10.434
75702W        W39459  38.436   4.404   2.796
75703W        W39460  13.838  26.954  12.950
75704W        W39461  35.035  41.976  14.281
75705W        W39462  24.087  30.581  14.795
75706W        W39463  18.119  15.743   1.219
75707W        W39464   7.791  13.634  10.645
75708W        W39465  24.131  10.188   2.196
75709W        W39466  31.584   1.965   2.868
75710W        W39467  28.988  43.414  12.387
75711W        W39468  24.066   6.424   2.391
75712W        W39469   6.331   4.246   3.227
75713W        W39470  22.013  16.615  11.899
75714W        W39471  36.574  42.416   0.472
75715W        W39472  44.393  29.633   0.737
75716W        W39473   9.889  44.480   0.366
75717W        W39474   9.353  26.004  12.960
75718W        W39475   6.211  16.156   2.237
75719W        W39476  19.228   2.773  10.438
75720W        W39477  40.005  21.519  11.999
75721W        W39478  11.242  25.648   1.852
75722W        W39479  43.463   1.385   0.891
75723W        W39480  14.277   9.220   5.102
75724W        W39481   2.291  21.556  12.952
75725W        W39482   5.876  26.630   0.794
75726W        W39483  43.791   2.861  11.901
75727W        W39484   7.336  38.849   1.398
75728W        W39485  41.363  42.946   3.189
75729W        W39486  19.159  19.243   1.819
75730W        W39487   6.844  12.634   0.948
75731W        W39488  40.396  33.569   2.413
75732W        W39489  17.613  22.504   4.263
75733W        W39490  25.008  30.978  14.008
75734W        W39491  21.115  16.809  12.013
75735W        W39492  42.516  15.718  11.938
75736W        W39493  13.240  20.271  11.078
75737W        W39494  15.196  43.395  12.580
75738W        W39495  30.505   3.780  13.010
75739W        W39496  18.661  26.161  14.766
75740W        W39497  12.830  15.665   0.359
75741W        W39498  16.102  14.098   4.285
75742W        W39499  10.642  24.173  13.324
75743W        W39500  36.487  12.168  10.925
75744W        W39501  31.607  33.009   3.179
75745W        W39502   3.233  37.368  12.491
75746W        W39503  22.041  22.649  13.942
75747W        W39504   9.238   6.848  13.379
75748W        W39505  37.474  25.044  14.962
75749W        W39506  38.481  35.978   0.740
75750W        W39507   9.722   4.444   3.335
75751W        W39508  13.154  41.854   3.145
75752W        W39509   3.254  21.682   2.319
75753W        W39510  14.134  31.959   4.352
75754W        W39511   8.711  24.226   2.880
75755W        W39512  29.161  32.619   1.346
75756W        W39513   4.867   7.218  12.414
75757W        W39514  42.878  13.222  14.900
75758W        W39515   8.788  36.021  14.973
75759W        W39516  26.120  13.680   1.234
75760W        W39517   8.218  30.480  13.521
75761W        W39518  26.987  21.565  11.534
75762W        W39519   7.744  25.627   4.305
75763W        W39520   2.241  42.898   5.140
75764W        W39521   9.795  40.530   2.665
75765W        W39522   3.309   6.343   5.281
75766W        W39523  14.624  43.502  14.911
75767W        W39524  32.410  19.577   4.748
75768W        W39525   0.768  25.591   4.242
75769W        W39526  25.672   9.335  14.880
75770W        W39527   6.880  44.389   0.310
75771W        W39528   9.186  11.692   3.194
75772W        W39529  11.355  24.567   1.805
75773W        W39530  14.804  20.556   3.722
75774W        W39531  26.106  32.392  12.995
75775W        W39532  21.695  36.914  10.499
75776W        W39533  44.370  38.907   1.417
75777W        W39534  20.544   1.389   2.324
75778W        W39535  40.444  41.018  13.940
75779W        W39536  11.788   4.333  12.470
75780W        W39537  31.926  36.919  13.943
75781W        W39538  28.523  15.327   4.227
75782W        W39539  14.148  40.841  12.833
75783W        W39540  43.319  26.457  12.500
75784W        W39541  25.038  20.045  11.412
75785W        W39542  22.625   6.827  13.882
75786W        W39543  43.951  16.139   4.177
75787W        W39544  10.653  44.969  13.963
75788W        W39545  20.247  25.177   3.791
75789W        W39546  34.912  11.712   0.458
75790W        W39547   4.756  16.598   2.368
75791W        W39548   7.300  32.944   3.309
75792W        W39549   2.227  14.253  10.525
75793W        W39550  38.376   0.404  13.863
75794W        W39551  37.082   3.233  14.802
75795W        W39552   3.757  35.403  14.813
75796W        W39553  10.726   9.281  11.538
75797W        W39554  36.475  10.193  11.546
75798W        W39555  38.934  10.789  10.608
75799W        W39556  40.034  31.130   0.767
75800W        W39557   1.243  44.980   3.667
75801W        W39558  15.646  12.222   2.830
75802W        W39559   6.328  16.574   9.658
75803W        W39560   5.241  32.093   2.793
75804W        W39561  20.706  27.685   1.934
75805W        W39562  42.363  32.470   3.249
75806W        W39563  22.712  21.641  12.912
75807W        W39564  44.420  34.030   0.933
75808W        W39565   3.383  19.110   3.683
75809W        W39566  31.567  34.610  14.003
75810W        W39567   2.765  38.003  14.902
75811W        W39568  17.199  20.210   0.824
75812W        W39569  19.672  32.051   3.728
75813W        W39570  15.218  27.658   0.345
75814W        W39571   2.771  13.780  12.459
75815W        W39572  36.372  11.642  14.884
75816W        W39573  15.321   8.187  11.037
75817W        W39574  38.933  34.119  12.443
75818W        W39575   5.777  41.338  13.505
75819W        W39576   4.348  16.572  11.443
75820W        W39577  19.283  31.458  12.087
75821W        W39578  37.929  23.495  13.514
75822W        W39579  23.088  17.603  14.807
75823W        W39580   2.956  37.982  11.944
75824W        W39581   1.304  28.587   2.374
75825W        W39582  25.048  19.216  11.394
75826W        W39583  28.985  12.655   4.293
75827W        W39584  20.260  16.167   3.251
75828W        W39585  28.445  42.396  14.344
75829W        W39586  15.646   3.383  12.052
75830W        W39587  11.281  22.102   4.649
75831W        W39588   0.752  27.505   4.340
75832W        W39589  21.522   5.300   2.228
75833W        W39590  34.117  17.588  13.933
75834W        W39591  14.150  23.035  10.604
75835W        W39592  11.321  17.559   2.754
75836W        W39593  18.785  17.239   0.798
75837W        W39594   7.292   9.387  11.117
75838W        W39595  36.016   2.228  13.315
75839W        W39596   1.945  24.008   0.280
75840W        W39597   3.935  31.009   1.806
75841W        W39598   5.720   2.435  13.536
75842W        W39599   0.758  12.654  12.933
75843W        W39600  24.193   0.456  13.355
75844W        W39601  19.675   5.892  10.940
75845W        W39602  15.636  41.911  12.976
75846W        W39603  20.138   9.747  13.835
75847W        W39604  10.660   9.352  13.408
75848W        W39605  11.240  12.234  12.097
75849W        W39606  29.539  12.672  13.824
75850W        W39607   8.667   8.294  13.037
75851W        W39608  30.594  36.467  13.494
75852W        W39609   8.242  38.452  14.482
75853W        W39610   0.844   0.983   4.198
75854W        W39611  38.487  15.228   4.802
75855W        W39612  44.887  41.486  11.371
75856W        W39613  34.904  36.585   3.636
75857W        W39614  16.202   6.207   4.203
75858W        W39615  35.881   5.786  13.376
75859W        W39616  20.757  20.592   1.783
75860W        W39617  33.465  21.700   2.377
75861W        W39618  18.744  20.090   3.312
75862W        W39619   9.861   6.895   1.837
75863W        W39620  37.378  12.675   4.142
75864W        W39621  10.869  34.447  11.005
75865W        W39622  10.768  43.270  11.988
75866W        W39623  39.028  22.020  11.987
75867W        W39624  12.843  43.934  12.366
75868W        W39625  14.808  38.903   2.250
75869W        W39626  10.846  40.450  14.401
75870W        W39627  17.237  14.280   3.245
75871W        W39628   0.906   4.236  11.039
75872W        W39629  34.907  13.131   4.793
75873W        W39630   1.380  13.211   3.194
75874W        W39631   8.760  28.990  12.877
75875W        W39632   4.420  44.874   2.687
75876W        W39633  33.986   3.902  10.640
75877W        W39634  28.978  28.071  14.458
75878W        W39635  38.444  34.116  14.378
75879W        W39636  18.256   6.896  11.607
75880W        W39637  40.815  32.465   2.850
75881W        W39638  30.555  26.136   2.201
75882W        W39639   2.963  34.988   0.956
75883W        W39640  32.902  32.103   1.223
75884W        W39641  26.047  10.787  12.846
75885W        W39642  44.457  31.033   3.183
75886W        W39643  20.252   6.286  13.435
75887W        W39644  29.537  25.705  13.546
75888W        W39645  28.634  22.152   2.208
75889W        W39646  22.215  19.068   0.289
75890W        W39647  16.710  27.182  12.011
75891W        W39648  39.429  33.104   3.715
75892W        W39649  13.756  43.848  10.998
75893W        W39650  31.084  43.293  11.900
75894W        W39651  19.051  26.674  13.395
75895W        W39652  40.467  20.223  13.920
75896W        W39653  28.612  19.274  13.316
75897W        W39654   4.323  44.409  14.501
75898W        W39655   8.760  39.488  14.000
75899W        W39656  43.281  22.179  14.815
75900W        W39657  12.630  14.291   2.361
75901W        W39658  34.493  28.088   3.679
75902W        W39659  31.535  16.261   1.415
75903W        W39660  32.631   8.283  11.061
75904W        W39661  41.972  19.567   3.683
75905W        W39662  36.401  40.518  14.777
75906W        W39663  20.193  38.024  12.527
75907W        W39664  25.485  16.227   9.632
75908W        W39665  27.943  29.500  13.022
75909W        W39666  19.072  35.503   5.223
75910W        W39667  15.213  26.969   1.800
75911W        W39668  38.821  15.623   5.127
75912W        W39669  12.822  37.425   4.342
75913W        W39670   4.265   8.266   1.329
75914W        W39671  39.967  13.814   1.784
75915W        W39672  17.082  22.154   1.379
75916W        W39673  42.842  37.445  12.573
75917W        W39674  12.170  24.679   0.756
75918W        W39675  35.947   6.857   4.205
75919W        W39676  14.338  20.130  12.952
75920W        W39677  26.031  14.647   0.771
75921W        W39678  16.258  41.406   3.220
75922W        W39679  14.322  30.980  13.486
75923W        W39680  27.468  43.972  13.890
75924W        W39681  28.465   4.303  14.908
75925W        W39682  30.621  14.737  10.928
75926W        W39683  43.280  28.080  10.941
75927W        W39684  38.494  38.935  12.830
75928W        W39685  23.105  40.035  12.450
75929W        W39686   7.889  26.952   3.856
75930W        W39687   5.878  35.506   2.360
75931W        W39688   2.761   6.757   3.651
75932W        W39689  26.197  14.766  12.050
75933W        W39690   9.187   0.921  11.920
75934W        W39691  31.066  31.977   3.360
75935W        W39692  44.858   3.255   0.966
75936W        W39693  27.146   6.753   0.277
75937W        W39694  12.757  40.341  13.521
75938W        W39695  25.644  41.425   4.782
75939W        W39696  15.323  19.768  14.380
75940W        W39697  17.578  39.856  14.395
75941W        W39698  29.424   8.710  12.072
75942W        W39699   9.245  24.604  11.125
75943W        W39700  43.307  18.631  11.039
75944W        W39701  29.155  38.027  14.967
75945W        W39702  42.795  15.818  12.974
75946W        W39703  23.160  10.653   4.151
75947W        W39704   5.316  33.443  10.524
75948W        W39705   8.830  30.506  11.594
75949W        W39706  10.169  22.676   2.677
75950W        W39707  31.131  13.722   1.362
75951W        W39708  42.935  34.949  12.534
75952W        W39709  34.396   5.280   5.626
75953W        W39710  39.449  16.318   2.738
75954W        W39711  23.136   8.786   4.129
75955W        W39712  30.517  10.282  11.917
75956W        W39713   3.814   9.890   1.771
75957W        W39714  12.751  22.098   3.235
75958W        W39715   8.772  44.830  11.977
75959W        W39716  14.750  30.615   0.876
75960W        W39717  36.844  41.888   3.710
75961W        W39718  37.501  19.073  11.899
75962W        W39719  24.097  44.771  13.390
75963W        W39720  32.015  27.627   1.762
75964W        W39721  44.814  16.114  12.397
75965W        W39722  17.144   9.216  12.831
75966W        W39723  26.462  35.945   1.361
75967W        W39724  25.204   0.382   3.657
75968W        W39725  35.942  27.504  13.420
75969W        W39726  41.948   9.295  13.418
75970W        W39727   3.921  13.781  12.091
75971W        W39728  10.823  40.975  13.316
75972W        W39729   2.352   6.810  12.450
75973W        W39730  17.559  29.167   3.232
75974W        W39731   8.852   5.751  11.608
75975W        W39732  37.488  27.480   2.813
75976W        W39733  10.145  36.969  13.041
75977W        W39734  23.541   0.942   1.329
75978W        W39735  31.064  31.548  11.911
75979W        W39736  11.770   3.372  11.592
75980W        W39737  17.715  37.438   4.287
75981W        W39738  35.060  19.040   0.831
75982W        W39739  23.158   5.841   2.345
75983W        W39740  22.524  29.605  13.905
75984W        W39741  36.407  14.156  14.350
75985W        W39742  39.000  37.406  12.996
75986W        W39743  39.506  18.197  10.981
75987W        W39744  11.330   7.810  11.588
75988W        W39745  39.992  36.067   3.867
75989W        W39746  10.855   3.725  11.049
75990W        W39747   3.321  31.470   0.252
75991W        W39748  25.105  20.609  13.812
75992W        W39749  22.716  34.864  11.870
75993W        W39750  25.527  39.025   3.382
75994W        W39751  15.614   4.395  10.069
75995W        W39752  17.156  33.981   3.831
75996W        W39753  27.499  40.333  12.551
75997W        W39754  14.238  39.517  12.368
75998W        W39755  43.011  43.844  12.449
75999W        W39756   9.866  41.458  13.831
76000W        W39757  28.119  21.218   0.341
76001W        W39758  15.722  19.228  14.948
76002W        W39759  23.026   4.217   3.166
76003W        W39760  31.920   1.750   4.267
76004W        W39761  28.638  16.614   4.127
76005W        W39762  27.169  12.612  11.391
76006W        W39763  27.155  30.481  10.619
76007W        W39764  11.730  13.161   2.773
76008W        W39765  10.873   8.723   3.354
76009W        W39766   8.355   7.847   0.799
76010W        W39767   6.893  15.642  10.550
76011W        W39768  35.945  26.551   2.810
76012W        W39769  13.275   3.876   4.319
76013W        W39770  13.185   9.845  11.116
76014W        W39771  22.671  18.265  10.444
76015W        W39772  37.863   9.265  11.113
76016W        W39773  15.774  25.041   3.182
76017W        W39774  15.601  11.204   1.336
76018W        W39775  31.451  42.916  12.496
76019W        W39776  28.983   3.265   4.211
76020W        W39777   2.752  42.001  14.915
76021W        W39778  33.483  20.046   1.828
76022W        W39779  24.180   2.887   4.243
76023W        W39780   7.860  39.979   4.258
76024W        W39781  28.656   7.807   1.284
76025W        W39782  11.865  26.182   1.398
76026W        W39783   8.774  23.542   4.149
76027W        W39784   5.872  21.154   3.711
76028W        W39785  29.604  25.552  10.444
76029W        W39786  10.664  32.479   1.239
76030W        W39787   2.958  42.321   3.232
76031W        W39788  39.455   8.888   0.248
76032W        W39789  19.777  33.413  12.998
76033W        W39790  38.329  17.673   1.919
76034W        W39791  13.184  23.222  10.947
76035W        W39792  34.987  37.851   3.695
76036W        W39793  34.096  18.260  11.929
76037W        W39794  22.554  41.308   2.702
76038W        W39795  42.361  18.545   3.668
76039W        W39796  27.491  33.459  11.581
76040W        W39797   4.431   1.890   1.355
76041W        W39798   3.218  35.860  11.545
76042W        W39799  16.312  22.534  10.961
76043W        W39800  15.155  34.398   3.346
76044W        W39801   4.407  23.508  14.759
76045W        W39802  20.615   1.798   1.902
76046W        W39803  23.222  44.842  11.013
76047W        W39804   9.364  22.626  10.139
76048W        W39805  12.612  38.838  12.900
76049W        W39806  43.797   7.700  13.451
76050W        W39807  30.165  25.645  11.551
76051W        W39808  41.510  36.886   3.238
76052W        W39809   1.259  17.572  14.815
76053W        W39810  30.430  25.100  14.378
76054W        W39811   8.368   0.471  14.970
76055W        W39812  38.056  11.775  13.369
76056W        W39813  37.424  18.765  13.989
76057W        W39814  18.091  24.104   4.165
76058W        W39815  28.026   6.808   2.227
76059W        W39816  10.781   8.817   2.707
76060W        W39817  35.386  42.487   1.356
76061W        W39818  20.595  22.038  10.480
76062W        W39819   9.286  35.036  11.061
76063W        W39820   7.879  30.431  13.943
76064W        W39821  42.874  29.464  13.341
76065W        W39822  13.626  21.062   4.278
76066W        W39823   3.939  36.937   4.775
76067W        W39824  25.197   9.821   3.788
76068W        W39825  12.841  21.186   4.699
76069W        W39826  18.607  44.821  14.941
76070W        W39827  37.360  32.057   3.378
76071W        W39828  14.675  38.901  10.410
76072W        W39829  28.584  39.511   4.289
76073W        W39830   7.199  24.127  11.579
76074W        W39831   5.361  31.914   3.225
76075W        W39832  35.380  17.185  14.003
76076W        W39833  33.614  34.891  10.603
76077W        W39834  27.503  30.963   4.623
76078W        W39835  39.402  33.877   4.786
76079W        W39836  16.099  26.613  10.901
76080W        W39837  28.479  37.916  10.614
76081W        W39838  40.520  20.631   4.714
76082W        W39839  24.186   6.259   4.298
76083W        W39840  10.773  21.720   0.766
76084W        W39841  27.471  26.176  13.819
76085W        W39842   7.171  19.742  13.338
76086W        W39843   5.730  31.122  14.952
76087W        W39844  41.921  28.525   3.275
76088W        W39845   8.882  38.054  12.531
76089W        W39846   1.908  43.979   0.251
76090W        W39847  14.174  35.551   3.235
76091W        W39848  12.358   6.369  12.856
76092W        W39849   7.216  30.950  11.124
76093W        W39850  18.678  23.197  13.006
76094W        W39851  21.562  30.128   3.680
76095W        W39852  44.005  38.075   3.832
76096W        W39853  23.109  12.813  11.450
76097W        W39854  22.071  19.249   2.902
76098W        W39855  34.866  24.650   3.857
76099W        W39856  25.134   6.206   3.189
76100W        W39857  13.711  42.355   9.512
76101W        W39858  13.334  21.601  12.383
76102W        W39859   4.860  31.913  11.042
76103W        W39860  30.570  24.173   3.225
76104W        W39861  26.481  31.067   4.318
76105W        W39862  11.809  44.802   1.765
76106W        W39863  28.559  26.183   0.889
76107W        W39864   6.721  24.566   2.844
76108W        W39865  27.632  24.195  14.366
76109W        W39866   5.331   1.310  12.988
76110W        W39867  17.262   4.325   1.700
76111W        W39868  39.350   4.746  12.982
76112W        W39869  39.528   6.787   2.219
76113W        W39870   7.335  21.111  12.017
76114W        W39871  23.158   6.192   4.834
76115W        W39872  21.149  41.802  10.573
76116W        W39873   3.847  37.010  12.348
76117W        W39874  14.625  10.685  12.052
76118W        W39875  10.730  22.144  11.976
76119W        W39876  36.920  20.104   3.661
76120W        W39877   3.818  18.778  10.454
76121W        W39878  20.135   8.678   1.867
76122W        W39879  20.591   7.688  14.309
76123W        W39880   3.762  33.041   2.279
76124W        W39881  38.834  37.519  13.824
76125W        W39882  25.705  40.541   9.948
76126W        W39883  38.545  28.581   1.809
76127W        W39884  40.887  34.489   0.842
76128W        W39885  10.648   3.855  14.337
76129W        W39886   5.761  44.856  10.556
76130W        W39887  26.608  16.691  11.113
76131W        W39888  21.241   8.272  14.894
76132W        W39889  16.799  39.528   0.838
76133W        W39890  20.207   8.235  14.817
76134W        W39891   7.817  42.823   9.980
76135W        W39892  22.128  14.675   1.257
76136W        W39893  41.451  17.178  14.917
76137W        W39894  19.174  29.640  14.362
76138W        W39895   8.176  27.953   0.295
76139W        W39896  28.058   1.913   9.933
76140W        W39897  29.548  40.425  10.055
76141W        W39898  27.526   2.293  14.512
76142W        W39899  37.872  41.873   1.222
76143W        W39900  25.639  19.757  14.486
76144W        W39901  31.482  11.143  13.310
76145W        W39902   5.752  32.142   4.650
76146W        W39903  28.942  11.791  11.513
76147W        W39904  36.549   8.247   0.822
76148W        W39905  29.013  10.759  12.451
76149W        W39906  31.928  15.175  12.020
76150W        W39907  30.114  42.421   0.377
76151W        W39908  24.078  20.059  11.556
76152W        W39909   0.917   1.825  14.363
76153W        W39910   0.954  16.087  13.904
76154W        W39911   1.421  22.099   0.273
76155W        W39912  28.979  44.999   2.870
76156W        W39913  39.820  30.599  13.330
76157W        W39914  41.443  44.010  11.077
76158W        W39915  33.484  19.188  10.456
76159W        W39916  35.928  41.000   1.842
76160W        W39917  37.879  15.801   4.721
76161W        W39918  38.360  17.094   2.742
76162W        W39919  35.104  34.090  10.996
76163W        W39920  14.812   5.408  14.014
76164W        W39921  13.688  30.464  14.316
76165W        W39922  22.087  23.139  13.973
76166W        W39923  10.852  10.316   1.918
76167W        W39924  16.213   5.436   2.665
76168W        W39925  10.840  39.336  13.325
76169W        W39926  16.238  39.887  13.936
76170W        W39927  37.965   1.411  10.152
76171W        W39928  43.931  12.716   2.777
76172W        W39929   9.663   8.302   2.249
76173W        W39930   1.278  41.459   4.224
76174W        W39931   9.695  40.040  14.833
76175W        W39932  23.604  17.120   4.221
76176W        W39933  42.790  26.014   2.734
76177W        W39934  26.657  31.987   3.326
76178W        W39935  34.536  29.485  13.867
76179W        W39936  22.592   2.325  13.043
76180W        W39937  33.914  15.769   1.255
76181W        W39938  31.977  26.532  11.004
76182W        W39939   6.336  11.801   2.328
76183W        W39940  23.538  11.154   0.376
76184W        W39941   7.294  43.873  12.095
76185W        W39942  18.761  24.534   2.747
76186W        W39943   7.413  30.630  13.807
76187W        W39944  29.153  36.038   3.854
76188W        W39945   0.390  39.983   4.624
76189W        W39946   7.395  34.530  13.922
76190W        W39947  34.573   4.826  11.009
76191W        W39948   7.198   5.776   4.756
76192W        W39949  36.409  15.300  11.010
76193W        W39950  29.097  25.637  11.552
76194W        W39951   0.256  17.661   4.728
76195W        W39952  35.464  29.452  11.604
76196W        W39953  29.626   9.822   2.857
76197W        W39954  14.664  29.644  13.341
76198W        W39955  34.448   9.205   2.350
76199W        W39956  42.918   5.854  13.542
76200W        W39957  37.342  20.666   4.256
76201W        W39958   6.226   4.418   2.244
76202W        W39959  44.909  37.491   1.840
76203W        W39960  35.361  16.813  11.461
76204W        W39961  12.778  40.475  12.891
76205W        W39962  37.888   8.816   4.232
76206W        W39963  35.994  39.930  13.990
76207W        W39964  26.468   0.882  14.354
76208W        W39965  37.571  12.815   4.835
76209W        W39966  18.753  42.893   4.324
76210W        W39967  10.211   9.340  13.023
76211W        W39968  37.058  10.304  14.876
76212W        W39969  20.050  20.089   0.277
76213W        W39970  22.073  38.894  14.878
76214W        W39971   7.266  35.006  10.480
76215W        W39972  42.493   4.706   3.748
76216W        W39973  23.649  44.788  11.119
76217W        W39974  22.518  19.561  13.440
76218W        W39975   8.726  40.307  11.992
76219W        W39976   2.429  33.913  10.632
76220W        W39977  35.961  14.791  14.371
76221W        W39978  15.231  42.988  14.369
76222W        W39979   5.418   3.956   3.789
76223W        W39980  12.790   3.412   3.817
76224W        W39981  15.762   9.211   5.320
76225W        W39982   4.275   9.330  14.489
76226W        W39983  10.325  20.687   0.406
76227W        W39984  39.847  41.530  12.392
76228W        W39985  16.241   2.783   0.754
76229W        W39986  31.026   7.238  14.857
76230W        W39987  11.813  22.032  10.539
76231W        W39988   0.862  31.932   3.695
76232W        W39989   2.804  18.722   0.840
76233W        W39990  26.144   9.178   1.734
76234W        W39991  23.114  32.914  11.559
76235W        W39992  24.502  44.963  10.554
76236W        W39993  44.266  18.073   2.886
76237W        W39994  22.673  28.658   3.276
76238W        W39995  22.115  35.090  14.317
76239W        W39996  42.444  16.679  12.564
76240W        W39997   5.786  44.332   0.729
76241W        W39998   9.219  36.070  12.034
76242W        W39999  42.900   1.447   4.766
76243W        W40000   5.781   7.803   3.310
76244W        W40001  23.579  27.535   3.867
76245W        W40002  26.475  22.552  14.334
76246W        W40003  11.780   1.421  14.789
76247W        W40004  16.570  24.200   2.256
76248W        W40005   8.793  32.605   1.760
76249W        W40006  32.559  15.648  14.992
76250W        W40007  37.426  18.737   2.364
76251W        W40008   5.288  19.258   1.847
76252W        W40009  10.799  27.630   1.413
76253W        W40010  23.076  31.109  10.602
76254W        W40011  14.235  37.459  14.022
76255W        W40012   7.770  41.018   1.704
76256W        W40013  21.063   8.770   0.361
76257W        W40014   2.952  43.297  12.871
76258W        W40015   1.291  17.278  14.289
76259W        W40016  39.006  24.108  13.986
76260W        W40017  30.110  42.794   2.803
76261W        W40018  43.356  11.234  13.446
76262W        W40019   9.650  16.289   0.339
76263W        W40020  42.284  21.215   9.942
76264W        W40021  15.589   1.822   4.198
76265W        W40022  38.930  12.316  14.935
76266W        W40023  12.228   2.727  12.954
76267W        W40024  27.640  35.023  10.595
76268W        W40025  24.499   3.266   1.281
76269W        W40026  27.958   4.387  14.397
76270W        W40027  15.693  26.016   0.820
76271W        W40028   0.897  12.857   1.930
76272W        W40029  40.916  13.304  13.892
76273W        W40030   5.330  33.623  12.858
76274W        W40031   2.876  10.373  12.547
76275W        W40032  15.681  29.059  11.959
76276W        W40033  42.853   9.770   4.755
76277W        W40034  42.322   0.957   3.163
76278W        W40035  16.653  24.033   1.274
76279W        W40036  27.476   6.717   3.330
76280W        W40037  24.202  18.072  10.567
76281W        W40038   3.437   9.808  10.011
76282W        W40039   5.769  16.174  13.963
76283W        W40040  32.113  21.670   3.782
76284W        W40041  11.337  12.278   1.377
76285W        W40042  31.615  24.581  10.521
76286W        W40043   1.410  32.925  12.904
76287W        W40044  12.213  28.667   3.848
76288W        W40045  35.937  29.985   0.917
76289W        W40046  17.664  18.643  10.486
76290W        W40047  18.677   0.294   4.236
76291W        W40048  24.063  36.579   0.938
76292W        W40049  24.677  40.385  11.504
76293W        W40050  27.093  25.575  11.581
76294W        W40051  37.940  32.613   3.861
76295W        W40052   9.283  27.625   0.879
76296W        W40053   8.293  18.081   1.394
76297W        W40054  30.042  20.768  10.615
76298W        W40055   2.301  25.493  10.993
76299W        W40056  26.147   1.735  12.926
76300W        W40057  38.987  13.643  10.968
76301W        W40058  20.756   3.444  14.298
76302W        W40059  30.656  42.479  12.084
76303W        W40060  35.580  34.498   4.788
76304W        W40061  15.308   5.798  11.982
76305W        W40062  22.227   8.244  12.907
76306W        W40063  28.446  26.678  13.919
76307W        W40064   4.277  13.303  12.475
76308W        W40065  37.038  36.870  12.407
76309W        W40066  26.588  33.512  12.528
76310W        W40067  44.379  39.510   4.341
76311W        W40068  17.719   9.348   0.784
76312W        W40069  14.297  18.175   0.829
76313W        W40070  32.412   5.868   3.152
76314W        W40071   8.403  28.526  14.994
76315W        W40072  33.053  12.144   0.444
76316W        W40073   4.428  30.623  11.390
76317W        W40074  16.721   8.366   1.722
76318W        W40075  32.482  25.582   1.427
76319W        W40076  22.565  33.968  11.974
76320W        W40077  35.902  39.053   0.426
76321W        W40078  36.481  22.566   1.263
76322W        W40079  12.222  44.963   4.793
76323W        W40080  38.567  23.525  10.478
76324W        W40081  14.167   5.238  11.982
76325W        W40082  21.072  44.834  12.926
76326W        W40083  43.872  11.686  13.823
76327W        W40084  38.517  31.013  11.860
76328W        W40085  34.387  29.063   0.333
76329W        W40086  34.483   5.275  10.630
76330W        W40087   3.886  39.523   1.922
76331W        W40088  33.576   1.892   4.226
76332W        W40089   9.324  35.987   2.376
76333W        W40090   5.421  24.086  13.512
76334W        W40091  18.244  23.076  11.380
76335W        W40092   0.961   5.243  11.920
76336W        W40093   4.426  29.102  12.052
76337W        W40094  22.089  34.987   2.244
76338W        W40095  40.464  12.683  10.908
76339W        W40096  26.199  16.141  14.824
76340W        W40097   1.433  18.694  13.501
76341W        W40098  43.017  38.048  13.448
76342W        W40099  34.563  33.928  13.824
76343W        W40100  33.926  10.855   2.344
76344W        W40101   6.830  41.931   9.515
76345W        W40102  35.415  32.443  10.888
76346W        W40103  31.024  36.049   2.332
76347W        W40104  43.939   2.893  13.964
76348W        W40105  43.489  15.328   1.726
76349W        W40106  35.878  42.884  13.489
76350W        W40107  36.890  11.311  13.352
76351W        W40108  19.233  42.781  12.894
76352W        W40109  36.959  25.063  12.931
76353W        W40110   8.234   8.354   1.302
76354W        W40111  17.566  28.612  13.494
76355W        W40112  38.490  37.563  10.458
76356W        W40113  36.517  16.219   2.367
76357W        W40114   7.813  14.211   2.389
76358W        W40115  18.176  35.069   0.956
76359W        W40116   3.731  35.056   0.772
76360W        W40117   7.391  32.094   0.772
76361W        W40118  34.969  24.139  11.081
76362W        W40119  20.246  18.575  14.467
76363W        W40120  32.094   4.326  12.537
76364W        W40121  34.119  23.704   3.757
76365W        W40122  21.723  36.543  11.383
76366W        W40123  42.989  15.602   3.743
76367W        W40124  44.757   8.383   3.297
76368W        W40125  17.711  14.246   2.825
76369W        W40126  36.442  14.735  10.570
76370W        W40127  16.590  24.075   1.875
76371W        W40128  29.130   6.737  12.382
76372W        W40129  28.034  27.464   3.756
76373W        W40130   0.273   0.930   1.347
76374W        W40131  28.664  33.089  12.514
76375W        W40132  26.649  20.605  13.318
76376W        W40133  19.142  10.180  12.037
76377W        W40134  22.095  28.672  14.441
76378W        W40135  20.730  20.055   2.338
76379W        W40136  35.956  15.712  14.470
76380W        W40137  28.673   5.893   1.247
76381W        W40138   9.349  35.072   4.156
76382W        W40139  24.715  36.994  11.568
76383W        W40140  18.286  40.950   2.325
76384W        W40141  20.040  11.127   1.865
76385W        W40142  31.955   0.385   5.161
76386W        W40143  34.886   6.223  13.951
76387W        W40144  41.792   8.776   1.901
76388W        W40145  12.167  10.714  12.375
76389W        W40146   2.862  40.862   4.762
76390W        W40147  22.191  22.142   4.678
76391W        W40148  31.072  19.686  13.858
76392W        W40149  40.489   3.461  12.567
76393W        W40150  13.106  22.595  12.961
76394W        W40151  19.727  36.396  11.931
76395W        W40152  31.597  34.013  13.398
76396W        W40153  36.478  17.774  13.482
76397W        W40154  33.088   8.666   1.321
76398W        W40155  25.633   5.410   1.771
76399W        W40156   8.729  21.738   2.262
76400W        W40157  37.846  22.996   2.698
76401W        W40158  42.493  37.045  14.300
76402W        W40159  10.194  43.359  12.853
76403W        W40160  35.887   5.771  14.804
76404W        W40161  32.391   3.252   1.362
76405W        W40162   2.227   1.339   1.743
76406W        W40163  36.564  13.214   3.192
76407W        W40164  38.881  42.994  10.151
76408W        W40165  23.683  36.393  10.629
76409W        W40166  11.807  14.692   0.850
76410W        W40167  13.621  41.335   3.168
76411W        W40168  12.258   0.386  11.400
76412W        W40169   8.201  40.448   2.758
76413W        W40170  44.903  31.550  14.285
76414W        W40171  42.897  16.638   0.271
76415W        W40172  33.905  24.678   1.813
76416W        W40173  25.145  11.229   1.446
76417W        W40174   3.282  44.436  13.374
76418W        W40175  25.638  16.574   0.728
76419W        W40176  33.442  28.514   3.298
76420W        W40177   1.936  11.164  14.900
76421W        W40178  35.371  38.020  12.996
76422W        W40179  24.604  28.060   4.297
76423W        W40180   7.741  14.150  10.891
76424W        W40181  33.522   7.325  10.609
76425W        W40182   5.694  31.953   1.807
76426W        W40183  29.938  16.640  14.470
76427W        W40184  35.961  19.744  11.003
76428W        W40185   8.183  42.435  10.420
76429W        W40186  19.748  22.137  11.609
76430W        W40187  37.966  31.098   2.312
76431W        W40188  40.387  40.049   3.636
76432W        W40189   3.735  43.339  11.901
76433W        W40190  39.890  41.902   0.256
76434W        W40191  10.360  34.035   4.143
76435W        W40192  44.385   3.278  13.916
76436W        W40193  18.756  33.406  13.921
76437W        W40194  34.429  23.509  10.597
76438W        W40195  32.066  17.208   2.717
76439W        W40196  41.336  31.588   1.293
76440W        W40197  35.560   1.925   9.650
76441W        W40198   0.474  37.977   3.735
76442W        W40199   5.906  21.743   4.282
76443NA+    NA+40200   9.775  24.713   3.254
76444NA+    NA+40201  20.546  17.698  10.943
76445NA+    NA+40202   2.278   1.262  13.883
76446NA+    NA+40203  40.951  11.211   2.311
76447NA+    NA+40204   9.354  25.695   1.342
76448NA+    NA+40205   5.886  22.649  10.951
76449NA+    NA+40206  35.108   7.232   1.796
76450NA+    NA+40207  34.864  29.074  11.072
76451NA+    NA+40208  33.123  20.651   1.264
76452NA+    NA+40209  15.775  24.036  11.494
76453NA+    NA+40210  22.649  31.022  10.959
76454NA+    NA+40211  25.711  41.336  14.015
76455NA+    NA+40212   8.723   8.732   0.960
76456NA+    NA+40213  20.715   5.708  14.400
76457NA+    NA+40214  31.131  27.945   4.274
76458NA+    NA+40215  37.855   7.321   2.201
76459NA+    NA+40216  22.670   4.447  11.868
76460NA+    NA+40217  22.673  41.967   2.371
76461NA+    NA+40218   5.903  39.327   4.156
76462NA+    NA+40219  44.954  18.650  12.839
76463NA+    NA+40220   6.240  28.010  11.989
76464NA+    NA+40221  14.608  24.108  13.453
76465NA+    NA+40222  13.327   6.779   2.698
76466NA+    NA+40223  40.929   7.722   4.237
76467NA+    NA+40224   8.200  24.041  13.441
76468NA+    NA+40225  24.230   6.249   1.787
76469NA+    NA+40226   1.317   6.418  10.435
76470NA+    NA+40227  26.173  30.916  12.346
76471NA+    NA+40228  33.439  40.327  12.070
76472NA+    NA+40229  35.492  32.597  11.533
76473NA+    NA+40230  31.092  19.088  11.406
76474NA+    NA+40231   6.279  41.041   1.273
76475NA+    NA+40232  41.426  39.052  12.366
76476NA+    NA+40233  26.667   5.840  13.404
76477NA+    NA+40234  30.973  18.644   2.328
76478NA+    NA+40235  30.928   2.765  13.422
76479NA+    NA+40236   0.486   7.687  13.819
76480NA+    NA+40237  35.414  21.758  13.886
76481NA+    NA+40238  14.620  30.105  10.922
76482NA+    NA+40239  10.209  16.221   9.994
76483NA+    NA+40240  24.019  30.962  14.796
76484NA+    NA+40241   5.425  43.881   1.309
76485NA+    NA+40242  21.513  41.809  13.881
76486NA+    NA+40243  32.121   7.721  14.934
76487NA+    NA+40244   3.455   7.879   0.465
76488NA+    NA+40245   9.765  28.617   0.246
76489NA+    NA+40246   0.370  24.605   4.292
76490NA+    NA+40247  37.576  31.078   1.428
76491NA+    NA+40248  20.619  43.461  10.469
76492NA+    NA+40249  33.936  23.161   4.183
76493NA+    NA+40250  37.450  31.140   4.637
76494NA+    NA+40251  13.635  24.641   2.726
76495NA+    NA+40252  35.417   7.178   2.377
76496NA+    NA+40253  35.097  17.121  14.384
76497NA+    NA+40254   8.871  15.699  10.027
76498NA+    NA+40255   5.859  40.445   2.179
76499NA+    NA+40256   4.362  38.402  11.546
76500NA+    NA+40257   9.675   2.319   1.793
76501NA+    NA+40258   3.313  22.537  10.990
76502NA+    NA+40259  31.498  34.614  13.316
76503NA+    NA+40260  12.305  36.371   1.896
76504NA+    NA+40261   4.764   1.330  13.978
76505NA+    NA+40262  26.001  18.122  11.986
76506NA+    NA+40263   2.962   6.407   4.775
76507NA+    NA+40264  13.661  26.560  13.397
76508NA+    NA+40265  40.479   6.235  14.409
76509NA+    NA+40266  37.950  14.284  12.894
76510NA+    NA+40267  22.725  34.390  14.301
76511NA+    NA+40268  35.886   5.916  11.007
76512NA+    NA+40269  12.811  23.567   1.241
76513NA+    NA+40270  32.094  18.078  10.080
76514NA+    NA+40271  31.615  19.067  14.370
76515NA+    NA+40272  25.164  24.163   0.320
76516NA+    NA+40273  22.069  43.978   4.223
76517NA+    NA+40274  31.545  27.095  14.805
76518NA+    NA+40275  26.069  22.170  13.523
76519NA+    NA+40276   0.342   8.806   1.363
76520NA+    NA+40277  23.064  20.149   3.660
76521NA+    NA+40278   7.408  28.158   4.823
76522NA+    NA+40279   2.780   2.836   1.323
76523NA+    NA+40280  13.755  17.223   2.293
76524NA+    NA+40281  17.795   7.909  13.061
76525NA+    NA+40282   6.373  22.207  10.518
76526NA+    NA+40283  14.171   5.395  14.883
76527NA+    NA+40284  43.904  43.383  13.524
76528NA+    NA+40285  31.602  31.066   2.730
76529NA+    NA+40286  27.173  26.568  11.029
76530NA+    NA+40287  11.203  31.626  11.600
76531NA+    NA+40288  35.035  34.561  13.533
76532NA+    NA+40289  13.186  19.066   0.937
76533NA+    NA+40290  27.486  34.948  14.325
76534NA+    NA+40291  42.840   7.183  13.357
76535NA+    NA+40292  38.419  34.914  12.012
76536NA+    NA+40293   9.196  31.947  13.893
76537NA+    NA+40294  28.026  36.877  10.921
76538NA+    NA+40295  41.429  27.061  13.887
76539NA+    NA+40296  40.416   7.818  10.457
76540NA+    NA+40297  19.608  15.190  14.871
76541NA+    NA+40298  37.408   5.375   4.614
76542NA+    NA+40299  40.040  13.828  10.586
76543NA+    NA+40300  25.680  33.579  10.913
76544NA+    NA+40301   6.735  39.937  14.770
76545NA+    NA+40302   9.664  27.978   3.772
76546NA+    NA+40303  10.764  40.932  10.962
76547NA+    NA+40304  16.161  40.037   2.286
76548NA+    NA+40305  27.669  41.029  12.574
76549NA+    NA+40306   4.208  21.149  12.381
76550NA+    NA+40307   7.340   1.436  12.519
76551NA+    NA+40308  11.159  12.634  13.911
76552NA+    NA+40309  42.873  39.044  14.030
76553NA+    NA+40310  26.468   2.937   2.214
76554NA+    NA+40311  40.414  25.048  11.965
76555NA+    NA+40312  26.658  22.164   0.356
76556NA+    NA+40313   5.290  17.625   4.150
76557NA+    NA+40314  11.204  43.012  14.853
76558NA+    NA+40315  31.499  24.115  12.889
76559NA+    NA+40316  34.471   7.737  11.507
76560NA+    NA+40317  44.480  27.598  11.068
76561NA+    NA+40318   3.773  38.367  12.359
76562NA+    NA+40319   2.419  35.483  13.962
76563NA+    NA+40320  22.736  28.983   3.645
76564NA+    NA+40321   4.762  31.622  11.467
76565NA+    NA+40322   9.686  30.435   2.745
76566NA+    NA+40323  11.857  18.130  14.998
76567NA+    NA+40324  42.421   5.859   2.844
76568NA+    NA+40325  21.173  29.592   1.902
76569NA+    NA+40326  33.455   5.331   0.762
76570NA+    NA+40327  17.160  36.044   3.738
76571NA+    NA+40328  24.647  38.959  11.918
76572NA+    NA+40329  25.681  28.058   0.760
76573NA+    NA+40330  32.422  28.452   1.433
76574NA+    NA+40331   6.221  32.106  13.540
76575NA+    NA+40332   1.877  29.652   3.765
76576NA+    NA+40333  11.751  38.394   0.452
76577NA+    NA+40334  28.487  13.830   9.583
76578NA+    NA+40335  33.087  20.570   0.864
76579NA+    NA+40336  10.306  16.698   0.959
76580NA+    NA+40337  25.538  28.045   1.830
76581NA+    NA+40338  20.662  22.531  13.530
76582NA+    NA+40339  12.816  18.132   0.332
76583NA+    NA+40340  29.491  38.842   0.312
76584NA+    NA+40341  31.614  17.283  10.404
76585NA+    NA+40342  38.951   8.323   0.291
76586NA+    NA+40343  24.065  22.076   1.298
76587NA+    NA+40344  37.906  18.644   0.312
76588NA+    NA+40345  26.673  44.883   4.295
76589NA+    NA+40346  39.492  32.543   0.800
76590NA+    NA+40347  10.655   7.790   0.831
76591NA+    NA+40348   1.774  36.948  11.121
76592NA+    NA+40349  33.420  29.088   4.599
76593NA+    NA+40350  26.158   0.976  10.907
76594NA+    NA+40351   3.857  17.658  10.925
76595NA+    NA+40352  15.606  39.040   0.744
76596NA+    NA+40353  13.194  27.532  10.602
76597NA+    NA+40354  10.862  44.407  13.045
76598NA+    NA+40355   0.481  13.240   0.299
76599NA+    NA+40356  44.918  31.463  10.620
76600NA+    NA+40357  24.643  22.232  11.913
76601NA+    NA+40358  31.900  16.094  14.467
76602NA+    NA+40359   4.743  20.680  11.033
76603NA+    NA+40360  32.569  31.454  13.491
76604NA+    NA+40361  41.486  43.305  14.291
76605NA+    NA+40362   2.269  18.250   0.244
76606NA+    NA+40363  24.554  35.880  12.441
76607NA+    NA+40364   8.887  34.898  13.855
76608NA+    NA+40365   4.247  26.613   3.372
76609NA+    NA+40366   8.697  22.607   4.259
76610NA+    NA+40367  28.162   9.680  14.430
76611NA+    NA+40368   6.773  38.973   3.798
76612NA+    NA+40369  35.486  32.506   4.209
76613NA+    NA+40370   6.882  40.467   4.313
76614NA+    NA+40371  14.662  32.938   4.240
76615NA+    NA+40372  25.057  26.617  11.938
76616NA+    NA+40373  33.003  14.717   3.747
76617NA+    NA+40374   5.809  11.148   1.351
76618NA+    NA+40375   0.801  14.833   1.242
76619NA+    NA+40376   6.889   1.305   3.633
76620NA+    NA+40377  43.296   0.479   9.995
76621NA+    NA+40378  25.186   3.855  12.035
76622NA+    NA+40379  22.505  21.095  12.992
76623NA+    NA+40380  25.658  18.730  11.580
76624NA+    NA+40381  29.596  17.147  13.492
76625NA+    NA+40382  30.462  38.345  13.974
76626NA+    NA+40383  20.564  33.932   1.914
76627NA+    NA+40384   7.406   1.409   4.689
76628NA+    NA+40385  17.605  15.621  11.974
76629NA+    NA+40386  14.659  14.803   3.836
76630NA+    NA+40387  31.129  24.484   2.307
76631NA+    NA+40388  34.387   0.410   0.776
76632NA+    NA+40389   9.255  41.479   4.682
76633NA+    NA+40390  27.140   8.243   0.269
76634NA+    NA+40391  33.432  40.823  11.897
76635NA+    NA+40392  34.120  42.900  12.405
76636NA+    NA+40393  33.380  28.575   4.255
76637NA+    NA+40394  32.079   1.268   0.303
76638NA+    NA+40395  25.603  12.722   2.205
76639NA+    NA+40396  20.662  32.569   2.668
76640NA+    NA+40397   5.341  20.661   3.640
76641NA+    NA+40398  30.484  23.721   1.331
76642NA+    NA+40399  42.337  31.586  10.567
76643NA+    NA+40400  42.931  44.869  14.827
76644NA+    NA+40401  16.126   0.758  12.895
76645NA+    NA+40402  42.461  35.002  11.608
76646NA+    NA+40403  26.062  27.568   3.704
76647NA+    NA+40404   3.434  28.617   3.827
76648NA+    NA+40405   2.845  18.634   0.412
76649NA+    NA+40406  18.550  21.556  11.128
76650NA+    NA+40407  32.431  29.512   1.812
76651NA+    NA+40408   0.850  29.591   1.845
76652NA+    NA+40409  25.514   1.481   3.236
76653NA+    NA+40410   7.779   7.353   4.746
76654NA+    NA+40411   6.359   2.242  12.355
76655NA+    NA+40412  17.708  36.456   0.323
76656NA+    NA+40413  21.662  12.128  12.095
76657NA+    NA+40414  31.019  32.917  13.953
76658NA+    NA+40415   0.823  10.195  11.516
76659NA+    NA+40416  26.625  44.795  10.599
76660NA+    NA+40417  30.052   6.919   4.705
76661NA+    NA+40418  13.305  37.375   4.722
76662NA+    NA+40419  21.546  23.023   1.279
76663NA+    NA+40420  30.541  27.004  12.028
76664NA+    NA+40421  18.640  27.091  14.011
76665NA+    NA+40422  27.632   8.822   4.151
76666NA+    NA+40423  37.344  24.714  10.579
76667NA+    NA+40424   0.480  37.012  14.296
76668NA+    NA+40425  38.422  17.116  11.518
76669NA+    NA+40426  19.218  34.393  13.315
76670NA+    NA+40427   9.847  20.123  14.002
76671NA+    NA+40428  32.019  34.958  11.502
76672NA+    NA+40429  36.059   2.315   3.807
76673NA+    NA+40430  23.005   3.381   4.750
76674NA+    NA+40431  44.330  29.974   4.700
76675NA+    NA+40432  10.138  19.753   0.924
76676NA+    NA+40433  28.176   4.437   1.864
76677NA+    NA+40434  31.090  28.112   9.928
76678NA+    NA+40435  18.664  26.997   2.356
76679NA+    NA+40436  37.369  23.127  14.432
76680NA+    NA+40437  44.499  41.896   2.391
76681NA+    NA+40438   2.941   7.785  12.536
76682NA+    NA+40439  19.218  44.790  13.026
76683NA+    NA+40440  34.099  19.555   2.723
76684NA+    NA+40441  32.533  40.021   2.282
76685NA+    NA+40442  19.224   1.455  11.075
76686NA+    NA+40443  20.632  25.660   4.625
76687NA+    NA+40444  13.648  28.102   1.307
76688NA+    NA+40445  12.745  35.943  13.360
76689NA+    NA+40446  29.608  32.445   2.339
76690NA+    NA+40447  19.724  39.448   2.184
76691NA+    NA+40448  38.466  41.040  13.538
76692NA+    NA+40449  36.430  31.508   4.620
76693NA+    NA+40450  14.250   4.789  13.827
76694NA+    NA+40451  43.428  19.195  11.526
76695NA+    NA+40452  13.830  44.917  14.340
76696NA+    NA+40453  13.169  25.995   1.802
76697NA+    NA+40454  28.464   5.198   3.240
76698NA+    NA+40455  16.610  40.931  11.382
76699NA+    NA+40456  27.035  42.505   0.848
76700NA+    NA+40457   6.903  16.682  11.017
76701NA+    NA+40458  35.417  10.835   4.129
76702NA+    NA+40459   9.714  38.962  11.949
76703NA+    NA+40460  12.130  32.927   2.664
76704NA+    NA+40461   1.932  44.343   3.189
76705NA+    NA+40462  39.436  38.492  12.556
76706NA+    NA+40463  44.864  35.099   1.774
76707NA+    NA+40464  12.322  13.694  12.846
76708NA+    NA+40465   8.278  40.436  10.555
76709NA+    NA+40466  25.021  24.187  12.391
76710NA+    NA+40467  18.618  25.680  11.515
76711NA+    NA+40468  37.976  21.636  11.057
76712NA+    NA+40469  40.524  39.363   3.377
76713NA+    NA+40470  15.085   1.410   1.431
76714NA+    NA+40471  21.156   5.800   4.747
76715NA+    NA+40472  37.065  15.666  11.044
76716NA+    NA+40473  32.502  22.218  14.791
76717NA+    NA+40474  43.963  23.582  12.365
76718NA+    NA+40475   4.325  16.072   1.244
76719NA+    NA+40476  37.525  42.826   1.357
76720NA+    NA+40477  13.767  31.017  11.900
76721NA+    NA+40478  30.624  19.728   2.363
76722NA+    NA+40479  17.666  32.070  11.895
76723NA+    NA+40480   9.647  28.971  14.769
76724NA+    NA+40481  10.634   8.299   0.962
76725NA+    NA+40482   2.249  44.857  12.422
76726NA+    NA+40483  21.606  33.892   1.694
76727NA+    NA+40484  38.038   3.742  13.425
76728NA+    NA+40485  35.076  38.506   2.685
76729NA+    NA+40486  24.213  24.510   2.867
76730NA+    NA+40487   2.366  28.637  13.987
76731NA+    NA+40488  43.310  42.500  13.998
76732NA+    NA+40489  20.721  26.617  11.462
76733NA+    NA+40490   1.423  32.511  11.040
76734NA+    NA+40491  30.584  32.472  13.430
76735NA+    NA+40492   5.297  21.143  11.436
76736NA+    NA+40493  13.279   4.363  12.851
76737NA+    NA+40494  41.020  10.319  10.939
76738NA+    NA+40495  19.578  13.728   3.186
76739NA+    NA+40496  31.544  42.308  14.339
76740NA+    NA+40497  44.789   6.210   4.222
76741NA+    NA+40498  15.656  40.960  14.303
76742NA+    NA+40499  14.338  39.002  11.417
76743NA+    NA+40500  19.254   4.220   1.409
76744NA+    NA+40501  31.646   2.307   2.255
76745NA+    NA+40502  29.621  37.896   1.804
76746NA+    NA+40503  22.747   6.698   2.201
76747NA+    NA+40504  21.534  23.650  13.880
76748NA+    NA+40505  39.845  40.963  11.999
76749NA+    NA+40506  16.792  35.597   3.668
76750NA+    NA+40507  11.242   9.728   4.802
76751NA+    NA+40508  37.075  33.972   1.339
76752NA+    NA+40509  11.663  32.397  13.019
76753NA+    NA+40510  22.025  19.140  14.853
76754NA+    NA+40511  41.931  41.359  10.995
76755NA+    NA+40512  37.391  36.381   1.870
76756NA+    NA+40513   1.279  21.172   1.407
76757NA+    NA+40514  29.937  10.776  11.869
76758NA+    NA+40515  37.843   1.421   2.296
76759NA+    NA+40516  38.939   0.336  13.321
76760NA+    NA+40517   1.442   0.839  14.284
76761NA+    NA+40518  37.893  35.460   3.703
76762NA+    NA+40519  35.381  33.079   1.300
76763NA+    NA+40520  27.463  34.503  12.916
76764NA+    NA+40521   3.922  16.226  13.450
76765NA+    NA+40522  17.734  20.087   2.178
76766NA+    NA+40523   1.968  34.063  11.559
76767NA+    NA+40524  29.960  38.915   0.409
76768NA+    NA+40525   0.950  22.167  11.401
76769NA+    NA+40526  11.734  36.035  10.950
76770NA+    NA+40527  18.647   8.900  14.515
76771NA+    NA+40528  34.414  18.258   3.699
76772NA+    NA+40529  29.487  25.096   0.798
76773NA+    NA+40530  31.080  14.592  14.408
76774NA+    NA+40531   5.823  23.701   4.807
76775NA+    NA+40532  12.614  26.067   1.329
76776NA+    NA+40533  19.085  39.828  11.440
76777NA+    NA+40534   0.380   6.852  11.988
76778NA+    NA+40535  26.004  22.089   1.414
76779NA+    NA+40536  35.537  12.172   2.867
76780NA+    NA+40537   9.650  33.523   0.809
76781NA+    NA+40538  38.908  29.535   1.905
76782NA+    NA+40539   6.279  11.275  13.914
76783NA+    NA+40540  23.229  11.315  13.919
76784NA+    NA+40541  39.984  32.532   1.839
76785NA+    NA+40542  22.221  44.345   0.264
76786NA+    NA+40543  39.451  14.149   3.859
76787NA+    NA+40544  14.260  35.464   2.403
76788NA+    NA+40545  13.192  26.631   4.257
76789NA+    NA+40546  44.776  11.156  14.841
76790NA+    NA+40547  27.449  23.168   0.862
76791NA+    NA+40548  19.101   6.775   4.613
76792NA+    NA+40549  30.439  13.611  13.512
76793NA+    NA+40550  41.304   9.319  14.883
76794NA+    NA+40551  23.646   5.756  10.576
76795NA+    NA+40552  14.182   9.241   0.762
76796NA+    NA+40553  36.548   2.406   2.724
76797NA+    NA+40554  43.469  35.090   1.926
76798NA+    NA+40555  42.395  31.556   3.302
76799NA+    NA+40556  37.436  15.127   4.690
76800NA+    NA+40557  18.585  34.538   2.274
76801NA+    NA+40558  22.702  36.523  11.563
76802NA+    NA+40559  24.041  11.687   0.252
76803NA+    NA+40560  33.523  42.946  14.000
76804NA+    NA+40561  34.461   7.223  13.474
76805NA+    NA+40562  27.168   2.776   3.729
76806NA+    NA+40563  22.740  30.920  12.460
76807NA+    NA+40564  22.143  31.470  14.976
76808NA+    NA+40565  25.587  18.170   0.881
76809NA+    NA+40566  19.131  18.780  14.805
76810NA+    NA+40567  25.617  24.995  12.927
76811NA+    NA+40568  43.991  14.642  13.992
76812NA+    NA+40569  38.050  11.803  10.150
76813NA+    NA+40570  37.905  31.584  12.571
76814NA+    NA+40571  20.638  14.636  12.000
76815NA+    NA+40572  19.086  14.621  14.441
76816NA+    NA+40573   7.195  40.997   1.765
76817NA+    NA+40574  13.766  30.969   4.796
76818NA+    NA+40575   4.739  10.269   1.744
76819NA+    NA+40576  23.526  33.001  11.389
76820NA+    NA+40577  14.673  14.759  11.589
76821NA+    NA+40578  42.000  18.782  13.825
76822NA+    NA+40579  14.752  39.914   0.478
76823NA+    NA+40580   2.410  27.577  11.885
76824NA+    NA+40581  28.487   5.820   3.776
76825NA+    NA+40582  13.680  37.846   0.310
76826NA+    NA+40583  13.279   9.740   0.342
76827NA+    NA+40584  37.424  39.535  13.879
76828NA+    NA+40585  35.367  37.913   4.838
76829NA+    NA+40586  21.124  20.147   2.838
76830NA+    NA+40587   1.960  22.562  14.840
76831NA+    NA+40588  41.896  36.428  10.587
76832NA+    NA+40589  29.440  23.592   3.192
76833NA+    NA+40590  40.972   1.846  14.345
76834NA+    NA+40591  42.013  27.050   0.418
76835NA+    NA+40592  29.074  40.836   4.696
76836NA+    NA+40593   3.442  13.804   2.724
76837NA+    NA+40594   4.207  44.944   2.372
76838NA+    NA+40595   5.814  15.634  10.483
76839NA+    NA+40596   8.803   9.263   2.728
76840NA+    NA+40597  13.142  33.094  10.557
76841NA+    NA+40598   3.295  20.155  12.935
76842NA+    NA+40599   8.849  27.459   1.727
76843NA+    NA+40600   6.786  31.912   3.192
76844NA+    NA+40601  42.359  13.252  10.480
76845NA+    NA+40602  34.384  12.752   2.762
76846NA+    NA+40603  43.922  30.559  13.456
76847NA+    NA+40604   6.786  35.960  11.510
76848NA+    NA+40605  16.744  23.613   1.795
76849NA+    NA+40606  41.987  43.323  12.892
76850NA+    NA+40607  37.382   3.857   1.738
76851NA+    NA+40608  16.083  42.292  13.821
76852NA+    NA+40609   6.248  30.448   3.743
76853NA+    NA+40610   1.255  41.021  11.043
76854NA+    NA+40611  26.495  32.114   4.780
76855NA+    NA+40612  23.052   2.816   0.302
76856NA+    NA+40613   5.428  14.324  11.910
76857NA+    NA+40614  12.816  26.674   0.429
76858NA+    NA+40615  25.594  12.683  11.411
76859NA+    NA+40616  37.503  28.053  10.511
76860NA+    NA+40617  16.717  19.574   0.297
76861NA+    NA+40618   3.844  19.231  12.958
76862NA+    NA+40619  15.748  15.695  11.485
76863NA+    NA+40620  40.322   6.730  11.579
76864NA+    NA+40621  16.208  26.964   0.456
76865NA+    NA+40622   9.676   4.885  14.824
76866NA+    NA+40623   5.808  16.283   3.169
76867NA+    NA+40624  18.779  19.049   1.715
76868NA+    NA+40625   6.395  32.490  10.975
76869NA+    NA+40626   8.678  16.139  11.515
76870NA+    NA+40627   4.343  10.153  12.865
76871NA+    NA+40628  12.270  17.566   2.868
76872NA+    NA+40629  39.837  15.119  14.312
76873NA+    NA+40630  43.781   7.870   2.776
76874NA+    NA+40631  12.795  11.679   0.829
76875NA+    NA+40632  38.475  27.459  14.404
76876NA+    NA+40633   9.245  24.584   1.255
76877NA+    NA+40634  14.228  11.656  12.418
76878NA+    NA+40635  34.921  11.826   5.296
76879NA+    NA+40636   6.837   4.355  14.500
76880NA+    NA+40637   7.363  23.228   4.670
76881NA+    NA+40638  18.145  12.214   5.245
76882NA+    NA+40639  37.379  27.589   0.464
76883NA+    NA+40640   3.755   8.880   4.327
76884NA+    NA+40641  15.790  32.135  10.128
76885NA+    NA+40642   0.376  44.911  13.900
76886NA+    NA+40643  28.454  37.003   4.353
76887NA+    NA+40644   3.355   2.831   0.271
76888NA+    NA+40645  15.108  38.887  11.875
76889NA+    NA+40646  44.419  10.735  10.632
76890NA+    NA+40647   9.275  13.289  11.887
76891NA+    NA+40648  43.867  35.540  12.095
76892NA+    NA+40649  22.162  32.060   3.748
76893NA+    NA+40650  39.361  19.717   2.181
76894NA+    NA+40651   7.340   3.849   3.209
76895NA+    NA+40652  33.106  32.891  10.408
76896NA+    NA+40653  15.169  41.491  10.137
76897NA+    NA+40654  41.513  35.549  13.052
76898NA+    NA+40655   1.951  38.427  13.950
76899NA+    NA+40656  43.928  40.546  13.412
76900NA+    NA+40657   7.710  38.500   2.180
76901NA+    NA+40658  26.594  43.433   2.355
76902NA+    NA+40659   4.851  31.916   3.832
76903NA+    NA+40660  30.954  19.168   0.410
76904NA+    NA+40661  26.114  26.164  13.500
76905NA+    NA+40662  18.680   1.934  12.495
76906NA+    NA+40663  42.464   9.364   1.702
76907NA+    NA+40664  25.707  20.523   4.348
76908NA+    NA+40665  15.265  37.907   3.744
76909NA+    NA+40666  11.213  23.028  13.381
76910NA+    NA+40667  23.094  16.315   2.375
76911NA+    NA+40668  17.588  25.989  11.384
76912NA+    NA+40669  20.121  13.723  13.046
76913NA+    NA+40670  19.039  15.801  10.900
76914NA+    NA+40671  38.821   5.824   1.285
76915NA+    NA+40672  41.844  28.010  11.377
76916NA+    NA+40673  12.301  24.072   2.698
76917NA+    NA+40674  23.629  28.168  11.549
76918NA+    NA+40675   4.776  20.262   2.202
76919NA+    NA+40676  22.538   9.771   0.479
76920NA+    NA+40677   9.268   2.765  10.962
76921NA+    NA+40678  43.879   2.320  12.028
76922NA+    NA+40679  44.344   5.720  13.440
76923NA+    NA+40680  22.172  25.090  14.797
76924NA+    NA+40681  21.603  28.677   3.649
76925NA+    NA+40682  11.852   7.181  11.512
76926NA+    NA+40683  41.890  11.235   2.709
76927NA+    NA+40684  29.477  30.577  10.404
76928NA+    NA+40685  23.009  29.071   1.860
76929NA+    NA+40686   0.257  31.105  10.539
76930NA+    NA+40687  13.697  20.634  11.085
76931NA+    NA+40688  43.434  15.236  12.474
76932NA+    NA+40689  29.133  28.103  11.484
76933NA+    NA+40690  14.315  16.580  14.996
76934NA+    NA+40691  36.997  32.071   1.381
76935NA+    NA+40692  41.501  37.415  12.972
76936NA+    NA+40693  36.591  20.676   4.753
76937NA+    NA+40694  41.476  14.236   3.159
76938NA+    NA+40695   7.840  18.108   3.692
76939NA+    NA+40696  10.785  21.723   2.260
76940NA+    NA+40697  44.988  21.120  11.385
76941NA+    NA+40698  16.132  21.569  13.039
76942NA+    NA+40699  18.631  18.662   4.143
76943NA+    NA+40700  41.523  32.092  10.548
76944NA+    NA+40701  14.165   7.772  14.507
76945NA+    NA+40702  18.110  38.048   4.299
76946NA+    NA+40703  15.713  32.000   0.733
76947NA+    NA+40704  27.173  10.874   4.286
76948NA+    NA+40705   4.815  11.696  11.427
76949NA+    NA+40706  24.066   8.260  13.394
76950NA+    NA+40707  24.221  14.215  10.117
76951NA+    NA+40708  11.185  19.561   3.753
76952NA+    NA+40709  14.675  13.235  14.988
76953NA+    NA+40710   9.815  32.577  11.080
76954NA+    NA+40711  18.177   0.378  11.920
76955NA+    NA+40712  10.733  39.413  11.890
76956NA+    NA+40713  18.088  31.899   4.257
76957NA+    NA+40714  14.110  11.145  12.856
76958NA+    NA+40715  25.971  39.013  12.825
76959NA+    NA+40716  22.640  42.928  12.865
76960NA+    NA+40717  22.714   8.794   3.792
76961NA+    NA+40718   9.283  15.106  12.088
76962NA+    NA+40719  33.095  11.621   2.298
76963NA+    NA+40720  32.114  26.047   3.273
76964NA+    NA+40721  17.578  32.950  14.506
76965NA+    NA+40722  39.325  43.450  11.122
76966NA+    NA+40723  44.286   7.185  12.402
76967NA+    NA+40724  38.067  14.719   1.802
76968NA+    NA+40725  16.177   3.904  12.066
76969NA+    NA+40726  40.532  35.891  12.951
76970NA+    NA+40727  37.501  20.118  14.415
76971NA+    NA+40728  42.504  39.050  14.440
76972NA+    NA+40729  34.004  37.845   1.853
76973NA+    NA+40730  37.868   3.791  12.442
76974NA+    NA+40731   4.740   8.779  13.940
76975NA+    NA+40732  44.842  25.144  12.383
76976NA+    NA+40733  23.234   8.272  13.311
76977NA+    NA+40734  36.550  44.396   5.298
76978NA+    NA+40735  38.984  27.593   1.246
76979NA+    NA+40736  11.348  31.116  12.497
76980NA+    NA+40737   5.743  37.009   4.665
76981NA+    NA+40738   2.834  34.959   1.740
76982NA+    NA+40739  18.245  19.180  14.478
76983NA+    NA+40740  26.578   3.818   4.719
76984NA+    NA+40741  42.891  31.015  13.024
76985NA+    NA+40742  18.132  41.353  10.931
76986NA+    NA+40743  32.443  23.491  12.831
76987NA+    NA+40744  23.534   0.319   0.365
76988NA+    NA+40745  40.332   3.952   0.277
76989NA+    NA+40746   1.263  17.232  11.413
76990NA+    NA+40747  13.698   7.868  12.568
76991NA+    NA+40748   9.186   1.955  10.613
76992NA+    NA+40749  21.632  30.572  14.010
76993NA+    NA+40750  21.144  43.436  10.993
76994NA+    NA+40751  34.482  21.529   0.878
76995NA+    NA+40752  33.540  23.075  10.427
76996NA+    NA+40753  22.102  16.734  14.000
76997NA+    NA+40754  41.328  16.666  12.894
76998NA+    NA+40755  35.418  42.406  10.635
76999NA+    NA+40756   4.271  42.875  14.491
77000NA+    NA+40757  18.092  20.646   1.757
77001NA+    NA+40758  38.401  26.626  11.860
77002NA+    NA+40759  31.505  20.064  11.402
77003NA+    NA+40760  37.019   0.433  11.050
77004NA+    NA+40761  29.030  43.273  14.810
77005NA+    NA+40762   3.455  22.245   2.386
77006NA+    NA+40763  28.670  30.648   0.925
77007NA+    NA+40764  15.802  16.578   2.339
77008NA+    NA+40765   3.921  43.885  10.092
77009NA+    NA+40766  34.387  14.155   0.904
77010NA+    NA+40767  27.684  24.026  11.584
77011NA+    NA+40768  23.635  32.523   2.749
77012NA+    NA+40769  26.142   5.390   4.187
77013NA+    NA+40770  30.420  33.893   1.925
77014NA+    NA+40771  24.675  44.399   0.339
77015NA+    NA+40772  23.529   2.748   4.683
77016NA+    NA+40773  43.457  35.917   1.233
77017NA+    NA+40774  15.602   5.213  11.478
77018NA+    NA+40775  35.002   7.816  14.773
77019NA+    NA+40776  44.272  41.415   3.779
77020NA+    NA+40777  13.615  15.323  12.522
77021NA+    NA+40778  29.567  27.131   1.746
77022NA+    NA+40779  35.884  43.933   1.784
77023NA+    NA+40780   1.761  25.984  10.444
77024NA+    NA+40781  32.551   0.791  11.516
77025NA+    NA+40782  12.302  34.902  10.489
77026NA+    NA+40783   0.427  22.014  14.450
77027NA+    NA+40784  14.630   8.382  12.496
77028NA+    NA+40785   8.400  24.039  11.459
77029NA+    NA+40786   5.227  31.507   4.334
77030NA+    NA+40787   9.664  12.677   1.278
77031NA+    NA+40788   8.732  22.681  14.993
77032NA+    NA+40789  43.823  23.198   4.828
77033NA+    NA+40790  14.162  36.090   2.825
77034NA+    NA+40791   0.944  10.662   2.361
77035NA+    NA+40792   2.767  23.572   0.803
77036NA+    NA+40793   2.771  33.067   3.781
77037NA+    NA+40794  14.730  13.778   3.237
77038NA+    NA+40795  11.655   5.928  14.363
77039NA+    NA+40796   2.901  31.000   4.813
77040NA+    NA+40797   8.726  37.034  14.791
77041NA+    NA+40798  39.054  23.694   3.768
77042NA+    NA+40799   7.223  20.109   3.698
77043NA+    NA+40800  13.844  22.069  14.380
77044NA+    NA+40801  12.236   1.912  14.305
77045NA+    NA+40802   9.674  31.531   4.633
77046NA+    NA+40803  13.113  13.664   1.214
77047NA+    NA+40804   2.387  42.913   0.292
77048NA+    NA+40805  12.611  29.477   2.208
77049NA+    NA+40806  41.497  11.206   3.198
77050NA+    NA+40807   3.848  28.106   4.159
77051NA+    NA+40808  33.416  44.313  10.406
77052NA+    NA+40809  41.309  22.666   1.309
77053NA+    NA+40810   3.215  18.132   0.802
77054NA+    NA+40811  43.464  29.556   0.760
77055NA+    NA+40812  28.052  20.142   1.743
77056NA+    NA+40813  38.464  27.148   2.286
77057NA+    NA+40814   9.728  27.518  11.092
77058NA+    NA+40815  35.417  22.605  13.366
77059NA+    NA+40816  34.904  42.281   2.881
77060NA+    NA+40817  34.394  11.142  14.968
77061NA+    NA+40818   7.683  37.840  10.939
77062NA+    NA+40819   4.769  41.032  14.400
77063NA+    NA+40820  29.474  11.242   4.193
77064NA+    NA+40821  39.413  36.083   4.790
77065NA+    NA+40822  34.484  13.705   1.274
77066NA+    NA+40823  29.154  28.131   3.271
77067NA+    NA+40824  28.060  15.254  14.865
77068NA+    NA+40825  26.017  20.190   0.935
77069NA+    NA+40826   1.375  13.172   1.433
77070NA+    NA+40827  42.863  19.143   4.319
77071NA+    NA+40828  41.019  20.092   1.410
77072NA+    NA+40829  44.301  24.523  10.068
77073NA+    NA+40830  15.122  42.400  11.491
77074NA+    NA+40831  14.690  18.226   0.757
77075NA+    NA+40832   0.398  35.070   3.830
77076NA+    NA+40833  38.341   8.684  14.883
77077NA+    NA+40834  26.139  25.123  11.955
77078NA+    NA+40835  30.444   3.821   1.241
77079NA+    NA+40836  43.356  25.664  10.968
77080NA+    NA+40837  26.666  38.994  13.439
77081NA+    NA+40838   8.188   4.227  11.415
77082NA+    NA+40839  10.230  21.715   4.295
77083NA+    NA+40840  14.687  33.906  11.058
77084NA+    NA+40841  10.675  22.654  14.316
77085NA+    NA+40842  14.107  23.632  11.401
77086NA+    NA+40843  42.992  16.787   2.669
77087NA+    NA+40844  33.441  27.999   0.738
77088NA+    NA+40845  21.025   1.245   2.714
77089NA+    NA+40846   1.888   6.916   1.699
77090NA+    NA+40847  30.969  15.646  13.004
77091NA+    NA+40848  32.519  44.846   2.264
77092NA+    NA+40849   3.840  16.280  11.447
77093NA+    NA+40850  20.177  38.373  12.529
77094NA+    NA+40851  32.627  41.977  13.934
77095NA+    NA+40852  38.495  27.649  11.873
77096NA+    NA+40853   7.364  35.032   2.194
77097NA+    NA+40854  39.060  18.583   3.387
77098NA+    NA+40855  30.091  28.135  11.065
77099NA+    NA+40856   0.762  22.058  10.009
77100NA+    NA+40857   8.843  23.506   1.309
77101NA+    NA+40858  23.556  42.025   1.329
77102NA+    NA+40859  12.647  39.433  14.954
77103NA+    NA+40860  14.775  41.343  13.956
77104NA+    NA+40861  18.682   8.862   4.127
77105NA+    NA+40862  21.127   5.855  11.517
77106NA+    NA+40863   5.304  30.918   3.844
77107NA+    NA+40864  23.006  44.950   0.391
77108NA+    NA+40865  14.731   0.332   4.329
77109NA+    NA+40866  22.511  43.873   1.796
77110NA+    NA+40867  31.500  11.190  12.381
77111NA+    NA+40868  36.036  32.562   2.809
77112NA+    NA+40869  44.960  12.357   2.698
77113NA+    NA+40870  27.603  42.916  14.895
77114NA+    NA+40871  12.320  41.827   4.765
77115NA+    NA+40872  33.882  44.917   1.255
77116NA+    NA+40873  33.105  21.047   9.943
77117NA+    NA+40874  20.604  37.015   3.739
77118NA+    NA+40875  34.075   5.888  10.050
77119NA+    NA+40876   6.770  32.048  14.358
77120NA+    NA+40877  22.149   2.963  13.382
77121NA+    NA+40878  16.212  10.649   4.160
77122NA+    NA+40879   9.208  11.344  10.528
77123NA+    NA+40880  21.554  15.274   0.390
77124NA+    NA+40881  31.134   5.281   0.321
77125NA+    NA+40882   2.355  22.580  10.491
77126NA+    NA+40883   4.886  15.246  12.924
77127NA+    NA+40884  11.719  34.928   4.142
77128NA+    NA+40885  32.406  43.332   2.380
77129NA+    NA+40886  19.652  31.105  13.943
77130NA+    NA+40887  26.191  19.592  11.439
77131NA+    NA+40888   2.889  33.599   2.873
77132NA+    NA+40889   2.886   3.878  10.577
77133NA+    NA+40890  28.465   2.826   9.449
77134NA+    NA+40891   0.898  19.063  10.934
77135NA+    NA+40892   0.397   3.369   1.235
77136NA+    NA+40893  18.705  35.888  12.012
77137NA+    NA+40894  41.509   9.198   1.424
77138NA+    NA+40895  19.712   1.854  10.084
77139NA+    NA+40896   7.189  36.536  13.345
77140NA+    NA+40897  15.670  11.833   2.288
77141NA+    NA+40898   5.803  37.858   0.438
77142NA+    NA+40899  28.593  31.546   3.818
77143NA+    NA+40900  36.017  12.680  14.980
77144NA+    NA+40901  43.954  32.004  13.493
77145NA+    NA+40902  31.910  38.330  11.054
77146NA+    NA+40903  22.037  14.689  13.062
77147NA+    NA+40904  12.756  10.337  14.321
77148NA+    NA+40905   5.716   0.855   4.725
77149NA+    NA+40906  42.950  27.156  13.796
77150NA+    NA+40907  10.199  34.606   3.864
77151NA+    NA+40908  29.450  12.783   4.180
77152NA+    NA+40909  28.643  17.189  13.834
77153NA+    NA+40910  39.057  34.405   4.707
77154NA+    NA+40911   1.875  27.690  13.019
77155NA+    NA+40912  44.373  36.017   4.216
77156NA+    NA+40913  37.900  20.598   3.257
77157NA+    NA+40914  37.507   9.768   0.419
77158NA+    NA+40915  41.519  21.565   3.824
77159NA+    NA+40916  38.930  14.698  14.490
77160NA+    NA+40917  33.395  38.340  12.962
77161NA+    NA+40918  42.800  18.561  12.558
77162NA+    NA+40919   5.301  23.067   1.911
77163NA+    NA+40920  19.550  17.679  14.349
77164NA+    NA+40921  30.591  19.666   1.700
77165NA+    NA+40922  28.509  23.153  14.017
77166NA+    NA+40923  43.876  26.611   2.353
77167NA+    NA+40924   8.359   6.282  11.542
77168NA+    NA+40925  19.623  19.178   4.742
77169NA+    NA+40926  29.546   6.905   0.745
77170NA+    NA+40927   1.291  37.969  12.898
77171NA+    NA+40928  16.220   1.315  11.122
77172NA+    NA+40929  40.808  31.925  10.925
77173NA+    NA+40930  18.641  34.388  13.904
77174NA+    NA+40931  41.506   4.335   1.380
77175NA+    NA+40932  44.438  15.617  13.028
77176NA+    NA+40933  33.114  36.536   1.866
77177NA+    NA+40934   3.329  39.031   0.803
77178NA+    NA+40935  22.194   7.747   4.254
77179NA+    NA+40936  41.852  17.227   2.232
77180NA+    NA+40937   3.891  24.607   3.776
77181NA+    NA+40938  40.421  30.646   2.348
77182NA+    NA+40939   0.386  35.864   0.818
77183NA+    NA+40940  15.137   5.196  11.393
77184NA+    NA+40941  34.942  15.166  14.383
77185NA+    NA+40942   4.763  26.679  13.064
77186NA+    NA+40943  43.914  23.668   0.869
77187NA+    NA+40944   6.850   6.721  14.327
77188NA+    NA+40945   6.346  42.473  14.395
77189NA+    NA+40946  39.029  22.507  10.159
77190NA+    NA+40947  43.005  13.265  11.028
77191NA+    NA+40948  39.951  11.815  13.807
77192NA+    NA+40949   7.846  32.908   4.269
77193NA+    NA+40950  29.082   1.738  11.918
77194NA+    NA+40951   1.237  31.126   1.395
77195NA+    NA+40952  15.181   2.804   5.243
77196NA+    NA+40953  32.005  29.175  11.529
77197NA+    NA+40954  32.488  30.023  10.511
77198NA+    NA+40955   6.230   5.369  12.873
77199NA+    NA+40956  39.812  11.645   2.674
77200NA+    NA+40957  31.470  10.146   2.377
77201NA+    NA+40958  18.773  37.944  12.920
77202NA+    NA+40959   5.848  12.656  11.497
77203NA+    NA+40960  17.736   4.283  13.523
77204NA+    NA+40961  23.694   5.428  11.124
77205NA+    NA+40962   5.315  15.239  12.416
77206NA+    NA+40963  12.195  13.782   2.796
77207NA+    NA+40964  38.512  31.964   1.905
77208NA+    NA+40965  12.705  41.368   0.961
77209NA+    NA+40966  33.562   2.904   4.297
77210NA+    NA+40967   5.433  19.236  10.619
77211NA+    NA+40968  37.015  29.451   3.658
77212NA+    NA+40969   8.673  21.057  12.080
77213NA+    NA+40970   5.341  31.152   4.159
77214NA+    NA+40971   0.889   8.298   2.404
77215NA+    NA+40972  22.202  21.675  10.608
77216NA+    NA+40973   2.840   9.753   1.358
77217NA+    NA+40974  26.561  28.119  11.409
77218NA+    NA+40975  17.256  14.626   3.671
77219NA+    NA+40976   4.886  35.991   4.271
77220NA+    NA+40977  26.536  16.297   3.184
77221NA+    NA+40978  23.988  35.963  13.031
77222NA+    NA+40979  10.140  28.041   2.326
77223NA+    NA+40980  14.263  28.930  12.903
77224NA+    NA+40981  24.086  34.608  14.942
77225NA+    NA+40982  17.148  20.097   1.237
77226NA+    NA+40983  28.995  28.049   1.332
77227NA+    NA+40984  42.023  33.478  12.999
77228NA+    NA+40985  18.100  42.476   3.640
77229NA+    NA+40986  28.143  11.821  13.344
77230NA+    NA+40987  34.940  31.959   1.393
77231NA+    NA+40988   3.917  19.569  14.766
77232NA+    NA+40989   6.208  18.136   0.839
77233NA+    NA+40990  44.447  36.928   4.351
77234NA+    NA+40991  33.559  43.274   4.664
77235NA+    NA+40992  18.128  11.303  10.955
77236NA+    NA+40993   5.897  40.881  12.918
77237NA+    NA+40994  15.272  42.005  11.944
77238NA+    NA+40995  14.610  21.542   3.327
77239NA+    NA+40996  14.785  11.842  14.438
77240NA+    NA+40997   4.434   9.763   1.308
77241NA+    NA+40998  38.936  13.203   5.290
77242NA+    NA+40999   2.726  18.724   3.200
77243NA+    NA+41000  14.211  26.106  12.834
77244NA+    NA+41001  29.446  24.125   0.826
77245NA+    NA+41002   6.398  35.369  10.484
77246NA+    NA+41003  38.037   7.906   3.282
77247NA+    NA+41004   8.754   7.729  14.436
77248NA+    NA+41005   3.907  28.624  11.126
77249NA+    NA+41006  28.628  31.960  10.064
77250NA+    NA+41007  13.778  28.169  10.970
77251NA+    NA+41008  39.914  22.122   0.463
77252NA+    NA+41009  16.751  23.531  14.912
77253NA+    NA+41010  19.071  28.003   1.385
77254NA+    NA+41011   0.806  11.841  11.112
77255NA+    NA+41012  35.994   0.801  12.052
77256NA+    NA+41013  12.814  17.231  12.485
77257NA+    NA+41014  33.481  32.121   0.450
77258NA+    NA+41015   5.925  33.400  14.505
77259NA+    NA+41016  12.361  35.892  10.576
77260NA+    NA+41017  34.413  14.618  13.418
77261NA+    NA+41018   7.773  34.890  14.514
77262NA+    NA+41019  31.123  26.185  12.014
77263NA+    NA+41020  35.973  40.851   4.115
77264NA+    NA+41021  42.460   6.184  13.325
77265NA+    NA+41022  40.504   5.870   3.193
77266NA+    NA+41023  38.902  25.608  13.964
77267NA+    NA+41024  33.919   5.751   3.661
77268NA+    NA+41025  44.434  16.216  12.526
77269NA+    NA+41026  18.679   8.343   3.202
77270NA+    NA+41027  25.640  13.735   3.373
77271NA+    NA+41028  44.912   6.715   3.349
77272NA+    NA+41029   4.313   6.251  13.418
77273NA+    NA+41030   6.185  21.242   9.926
77274NA+    NA+41031  10.862  12.345  14.392
77275NA+    NA+41032  22.558  44.857   1.767
77276NA+    NA+41033  15.127  31.067  10.922
77277NA+    NA+41034  33.114  24.180  11.448
77278NA+    NA+41035  39.317  17.687  11.040
77279NA+    NA+41036  12.743   5.416  14.997
77280NA+    NA+41037   7.398  36.411  14.381
77281NA+    NA+41038  33.967  17.176  13.538
77282NA+    NA+41039  32.929  25.169   3.849
77283NA+    NA+41040  22.120  41.986  10.509
77284NA+    NA+41041   0.337  43.412  11.395
77285NA+    NA+41042  17.713  11.241  10.500
77286NA+    NA+41043   3.420  12.698  12.524
77287NA+    NA+41044   6.394  23.520   2.675
77288NA+    NA+41045   6.726  11.785  12.886
77289NA+    NA+41046  44.484  30.915  11.899
77290NA+    NA+41047   7.876   9.698  14.003
77291NA+    NA+41048  14.198  35.424   3.864
77292NA+    NA+41049  14.732  23.045   3.362
77293NA+    NA+41050  41.379  15.753  11.877
77294NA+    NA+41051  30.038  13.654  14.472
77295NA+    NA+41052   4.807  24.654   2.354
77296NA+    NA+41053  42.833  30.579   0.928
77297NA+    NA+41054  43.954  13.236   0.413
77298NA+    NA+41055   3.799  16.214  11.085
77299NA+    NA+41056  26.547  13.605  13.822
77300NA+    NA+41057  43.464   3.245   4.302
77301NA+    NA+41058  27.547  24.016   1.767
77302NA+    NA+41059  18.777  33.910  11.506
77303NA+    NA+41060  24.655  13.306   4.301
77304NA+    NA+41061  14.663  17.609  12.908
77305NA+    NA+41062   7.360   7.805   3.763
77306NA+    NA+41063  37.921   9.151  14.450
77307NA+    NA+41064   2.415  25.068   5.097
77308NA+    NA+41065  15.737  10.232   3.708
77309NA+    NA+41066  33.887   0.299  14.372
77310NA+    NA+41067  16.193  10.804  11.492
77311NA+    NA+41068  17.711  14.237   3.334
77312NA+    NA+41069  42.813  36.502   4.233
77313NA+    NA+41070   6.860   2.429  13.824
77314NA+    NA+41071  10.268   2.747   1.297
77315NA+    NA+41072  44.432   4.821  11.002
77316NA+    NA+41073   9.343   5.898  11.949
77317NA+    NA+41074  11.303  32.043   2.242
77318NA+    NA+41075   9.722  31.044   4.600
77319NA+    NA+41076  43.840   0.450   0.385
77320NA+    NA+41077  29.962   8.715   4.672
77321NA+    NA+41078  32.940   9.256  10.410
77322NA+    NA+41079  11.210   6.337   3.380
77323NA+    NA+41080   4.722  40.488  13.974
77324NA+    NA+41081  27.688   1.750  13.032
77325NA+    NA+41082   5.429  43.828  11.441
77326NA+    NA+41083   8.208   3.225  12.471
77327NA+    NA+41084   7.212   4.851   2.416
77328NA+    NA+41085  21.024   3.951   2.673
77329NA+    NA+41086  11.657  33.415  11.054
77330NA+    NA+41087  22.185   8.872   3.795
77331NA+    NA+41088  35.901  15.154  10.999
77332NA+    NA+41089  29.032  32.943   2.231
77333NA+    NA+41090  20.734  12.633  10.444
77334NA+    NA+41091  32.511  11.302  14.377
77335NA+    NA+41092  21.684  19.701  13.522
77336NA+    NA+41093  39.920  13.117  12.888
77337NA+    NA+41094  33.472  11.863  10.983
77338NA+    NA+41095  13.283  13.315  12.949
77339NA+    NA+41096   6.341  44.923  14.425
77340NA+    NA+41097   1.843  22.562  13.931
77341NA+    NA+41098  37.868   6.307   2.783
77342NA+    NA+41099  32.391  28.586  13.369
77343NA+    NA+41100  31.968  11.807   0.775
77344NA+    NA+41101   4.705  42.873   0.836
77345NA+    NA+41102  36.005  31.144  13.945
77346NA+    NA+41103  42.933  10.186   2.874
77347NA+    NA+41104  12.249  31.946  14.388
77348NA+    NA+41105   4.776   8.319   0.781
77349NA+    NA+41106   0.988  39.870  14.940
77350NA+    NA+41107  14.275  13.665   1.374
77351NA+    NA+41108  31.911  16.680   0.778
77352NA+    NA+41109  34.480  42.504   1.920
77353NA+    NA+41110   1.457   3.728   3.184
77354NA+    NA+41111  12.117  32.967  10.570
77355NA+    NA+41112  26.968  18.265   1.229
77356NA+    NA+41113  35.056  39.988  11.396
77357NA+    NA+41114   7.262   8.675  12.990
77358NA+    NA+41115  17.174  27.076  11.492
77359NA+    NA+41116  28.566  43.403  10.464
77360NA+    NA+41117  16.573  24.499  14.913
77361NA+    NA+41118  21.083  38.819   2.360
77362NA+    NA+41119  37.565  42.022  12.069
77363NA+    NA+41120  20.575  37.344  12.835
77364NA+    NA+41121  36.945  35.047   4.802
77365NA+    NA+41122  32.140  42.780  12.440
77366NA+    NA+41123  29.164  12.310   1.810
77367NA+    NA+41124  11.731  21.645   3.723
77368NA+    NA+41125  23.087  33.588  12.536
77369NA+    NA+41126   7.354  21.718   2.831
77370NA+    NA+41127  28.102  14.690  14.992
77371NA+    NA+41128  44.922  39.546  12.340
77372NA+    NA+41129   8.174  19.539   1.317
77373NA+    NA+41130  20.232   2.313  10.591
77374NA+    NA+41131  14.222  25.964  13.946
77375NA+    NA+41132  26.093   1.351  11.020
77376NA+    NA+41133  10.226  38.387  10.415
77377NA+    NA+41134  44.281  42.965   1.744
77378NA+    NA+41135   5.761  41.391  12.965
77379NA+    NA+41136  31.021  23.683  11.597
77380NA+    NA+41137  33.918  27.610   1.729
77381NA+    NA+41138   9.670  32.143  14.857
77382NA+    NA+41139  18.683  23.987  12.959
77383NA+    NA+41140  15.235  19.248  12.550
77384NA+    NA+41141  43.771  38.935   1.246
77385NA+    NA+41142  23.226  35.059   2.336
77386NA+    NA+41143  35.549  25.593   0.414
77387NA+    NA+41144  34.554  21.536   2.289
77388NA+    NA+41145  33.990  23.623  13.960
77389NA+    NA+41146  33.090  33.003  12.010
77390NA+    NA+41147  23.496  34.517   4.820
77391NA+    NA+41148  24.507  40.019  14.315
77392NA+    NA+41149  30.022  12.665   3.830
77393NA+    NA+41150  34.049  44.328  11.514
77394NA+    NA+41151  42.892  12.357  12.418
77395NA+    NA+41152  12.287   6.677   0.847
77396NA+    NA+41153  21.163  19.098   1.353
77397NA+    NA+41154  25.029  24.688  14.888
77398NA+    NA+41155   3.232  19.576  13.867
77399NA+    NA+41156  14.295  21.588   3.210
77400NA+    NA+41157  16.762  17.093   2.317
77401NA+    NA+41158  28.023  24.687   4.137
77402NA+    NA+41159  34.908  38.417   4.655
77403NA+    NA+41160  38.041  26.540  14.307
77404NA+    NA+41161  30.559   4.385  13.515
77405NA+    NA+41162  35.098  24.695  10.410
77406NA+    NA+41163  22.643   2.940  10.954
77407NA+    NA+41164  26.012  35.086  10.517
77408NA+    NA+41165  17.063  15.284  12.477
77409NA+    NA+41166  31.564   7.779   2.391
77410NA+    NA+41167  43.420  26.043  14.799
77411NA+    NA+41168  32.573  37.844   0.433
77412NA+    NA+41169   4.336   9.248   1.440
77413NA+    NA+41170  33.477  23.171   3.741
77414NA+    NA+41171  38.044  22.718  14.453
77415NA+    NA+41172  35.568   4.803  10.426
77416NA+    NA+41173  33.924  17.801   3.815
77417NA+    NA+41174  28.484  12.735  11.060
77418NA+    NA+41175  40.040  29.087  11.108
77419NA+    NA+41176   4.858  41.795  12.073
77420NA+    NA+41177  38.953   7.247  10.916
77421NA+    NA+41178   7.776  38.866  10.513
77422NA+    NA+41179  15.633  17.234   2.824
77423NA+    NA+41180   8.328   8.357   4.664
77424NA+    NA+41181  23.183   9.390   0.944
77425NA+    NA+41182  16.689   0.275  13.474
77426NA+    NA+41183   3.805  14.186  10.992
77427NA+    NA+41184  21.050  42.816  13.852
77428NA+    NA+41185  30.519  36.034  11.471
77429NA+    NA+41186   4.368  19.639  13.396
77430NA+    NA+41187  40.858  10.743  12.879
77431NA+    NA+41188  20.235  13.719   3.753
77432NA+    NA+41189  34.000  31.972   5.165
77433NA+    NA+41190   8.214  27.652   0.842
77434NA+    NA+41191  43.839  22.569  14.398
77435NA+    NA+41192  40.529  39.853   1.361
77436NA+    NA+41193  44.926  31.121   0.263
77437NA+    NA+41194  21.243  35.535   4.145
77438NA+    NA+41195   7.311   7.344  11.895
77439NA+    NA+41196  10.765  20.240   2.325
77440NA+    NA+41197  12.237   6.841  11.408
77441NA+    NA+41198  44.440   8.330   0.769
77442NA+    NA+41199  17.611   8.732   4.601
77443NA+    NA+41200  29.946  33.874  12.087
77444NA+    NA+41201  19.581  12.195  14.786
77445NA+    NA+41202  15.608  22.567   3.224
77446NA+    NA+41203  23.682  36.869  14.434
77447NA+    NA+41204  28.591  25.473   4.150
77448NA+    NA+41205  34.571  25.517  13.912
77449NA+    NA+41206  17.096  17.637  11.959
77450NA+    NA+41207  27.992  37.530  14.854
77451NA+    NA+41208   4.206  16.298   3.750
77452NA+    NA+41209   9.211  34.913  12.349
77453NA+    NA+41210  30.954  17.743  12.495
77454NA+    NA+41211  41.435  36.569  14.767
77455NA+    NA+41212  32.943  27.093   2.218
77456NA+    NA+41213  41.369  12.625   3.206
77457NA+    NA+41214  19.070  31.599   1.336
77458NA+    NA+41215  28.581  28.174   4.681
77459NA+    NA+41216   3.741   4.341  12.533
77460NA+    NA+41217   3.855  13.828   0.755
77461NA+    NA+41218  15.614  29.101   0.917
77462NA+    NA+41219  37.085  43.312   3.234
77463NA+    NA+41220  29.936  25.615   1.295
77464NA+    NA+41221  17.089  34.875   3.849
77465NA+    NA+41222  20.743   1.938  11.055
77466NA+    NA+41223  37.354  23.644   3.358
77467NA+    NA+41224  31.557   9.807   0.765
77468NA+    NA+41225  10.804  28.004  10.961
77469NA+    NA+41226  24.063  42.330   1.739
77470NA+    NA+41227  17.249  29.434  12.919
77471NA+    NA+41228  12.137  25.155  13.381
77472NA+    NA+41229  37.420  25.021  10.501
77473NA+    NA+41230  39.009  13.740  13.363
77474NA+    NA+41231  28.029  37.391   4.225
77475NA+    NA+41232  23.060  21.594   3.852
77476NA+    NA+41233  18.247   8.771  13.312
77477NA+    NA+41234  33.888  40.430  13.843
77478NA+    NA+41235  33.503  22.144   3.385
77479NA+    NA+41236  25.975  44.284  14.834
77480NA+    NA+41237  11.159   0.285   9.611
77481NA+    NA+41238  33.920  21.687  12.900
77482NA+    NA+41239  15.659   4.796   4.653
77483NA+    NA+41240  36.953  34.906   2.187
77484NA+    NA+41241   7.850  19.719  13.518
77485NA+    NA+41242  38.381  26.681  13.346
77486NA+    NA+41243   3.416  27.999  10.970
77487NA+    NA+41244   6.388   8.853   4.600
77488NA+    NA+41245  33.464  35.378  10.491
77489NA+    NA+41246  38.526   3.786  11.883
77490NA+    NA+41247  40.484  17.228   3.207
77491NA+    NA+41248   7.770   8.164   2.839
77492NA+    NA+41249  36.925   6.257   3.267
77493NA+    NA+41250  40.986  37.069   2.348
77494NA+    NA+41251  40.400  42.004  14.375
77495NA+    NA+41252  16.205  38.045  10.435
77496NA+    NA+41253   1.793  37.390   2.293
77497NA+    NA+41254   1.322  12.828  13.316
77498NA+    NA+41255   3.282   2.383   4.805
77499NA+    NA+41256  26.087   2.408   3.747
77500NA+    NA+41257  31.503  34.890  13.989
77501NA+    NA+41258  18.561  26.510  11.022
77502NA+    NA+41259   1.454  22.162  12.416
77503NA+    NA+41260  12.617  16.262   2.877
77504NA+    NA+41261  34.544  36.567   2.868
77505NA+    NA+41262  14.786  29.116   4.748
77506NA+    NA+41263   7.324  13.336   0.810
77507NA+    NA+41264  18.662   7.260   0.396
77508NA+    NA+41265  35.884   8.725  12.050
77509NA+    NA+41266   5.713  44.876   1.933
77510NA+    NA+41267  31.433   9.867  14.492
77511NA+    NA+41268   6.185   4.901   0.376
77512NA+    NA+41269   4.890   0.297  13.024
77513NA+    NA+41270  25.542  26.492   1.725
77514NA+    NA+41271   0.925  39.870   2.399
77515NA+    NA+41272  19.041  40.952   0.454
77516NA+    NA+41273  42.941  11.253  12.579
77517NA+    NA+41274  41.376  29.548  13.909
77518NA+    NA+41275  36.571  23.734  10.504
77519NA+    NA+41276   8.293  31.057   2.272
77520NA+    NA+41277  13.214  40.341  13.905
77521NA+    NA+41278   5.312  17.243   3.307
77522NA+    NA+41279  29.956   6.748   3.166
77523NA+    NA+41280  27.486   1.741  14.344
77524NA+    NA+41281  23.535  38.908  10.590
77525NA+    NA+41282  43.496   5.336  11.059
77526NA+    NA+41283  30.007   2.756   4.170
77527NA+    NA+41284  29.057  28.552  11.382
77528NA+    NA+41285  38.554  12.195   0.438
77529NA+    NA+41286   6.299   7.720   2.235
77530NA+    NA+41287  42.828  13.229   0.758
77531NA+    NA+41288  28.517  30.473  14.446
77532NA+    NA+41289  29.019  36.539  13.355
77533NA+    NA+41290  11.733  35.385   4.194
77534NA+    NA+41291  14.324  33.060  12.888
77535NA+    NA+41292   3.889   0.405  11.079
77536NA+    NA+41293  40.001   0.296   3.327
77537NA+    NA+41294  33.432  14.670   2.235
77538NA+    NA+41295  35.494  33.962   0.896
77539NA+    NA+41296  42.945  17.660  12.851
77540NA+    NA+41297   1.962  31.464   3.251
77541NA+    NA+41298  16.806  11.145  14.835
77542NA+    NA+41299   4.881  27.132  12.433
77543NA+    NA+41300  23.016   4.331   2.714
77544NA+    NA+41301  33.953  23.566  11.056
77545NA+    NA+41302   1.791  40.906  12.980
77546NA+    NA+41303   2.420  39.923   1.227
77547NA+    NA+41304   6.816   7.723   0.841
77548NA+    NA+41305  30.101  42.870  13.379
77549NA+    NA+41306  33.582   2.269   1.854
77550NA+    NA+41307   5.865  17.091   1.337
77551NA+    NA+41308  26.130  14.686   3.829
77552NA+    NA+41309   5.350  36.456   2.886
77553NA+    NA+41310  26.477  43.831   4.749
77554NA+    NA+41311  25.691  36.925  13.055
77555NA+    NA+41312  32.066  26.703   2.810
77556NA+    NA+41313  35.929  32.609   1.424
77557NA+    NA+41314  17.687  40.491   0.944
77558NA+    NA+41315   7.359  32.620   3.225
77559NA+    NA+41316  25.674  28.111  11.596
77560NA+    NA+41317   3.399  24.644   4.634
77561NA+    NA+41318  31.004  39.979   2.666
77562NA+    NA+41319  28.547  13.260   4.646
77563NA+    NA+41320  31.648  41.413  11.963
77564NA+    NA+41321  35.032  44.985   4.303
77565NA+    NA+41322  26.051  19.211   3.722
77566NA+    NA+41323  43.980  19.163  14.392
77567NA+    NA+41324  20.568  40.478  14.283
77568NA+    NA+41325  18.625  32.135   0.902
77569NA+    NA+41326  24.026  17.721  12.380
77570NA+    NA+41327  27.481  23.072  14.988
77571NA+    NA+41328   4.786   7.413   0.303
77572NA+    NA+41329  31.589  36.366  14.461
77573NA+    NA+41330  29.107  17.142   0.836
77574NA+    NA+41331  10.329  29.496   9.936
77575NA+    NA+41332   3.888  37.383  13.343
77576NA+    NA+41333  26.666  17.183  11.122
77577NA+    NA+41334  12.305   4.374  12.902
77578NA+    NA+41335  43.392  40.510  11.502
77579NA+    NA+41336  14.805  22.670   4.155
77580NA+    NA+41337  17.747  41.023  10.953
77581NA+    NA+41338  25.653   4.421  14.861
77582NA+    NA+41339  17.145   8.743   3.631
77583NA+    NA+41340  15.149   4.800  11.952
77584NA+    NA+41341  27.451  20.219   3.217
77585NA+    NA+41342  15.733  24.534  11.580
77586NA+    NA+41343  38.409  31.540   2.887
77587NA+    NA+41344  10.846  11.215  13.891
77588NA+    NA+41345  35.006  38.888   3.712
77589NA+    NA+41346  32.122  44.868   3.770
77590NA+    NA+41347  16.809  36.894   1.217
77591NA+    NA+41348  26.985  40.515  14.911
77592NA+    NA+41349  15.207  22.167  14.948
77593NA+    NA+41350   6.234  29.624   3.345
77594NA+    NA+41351  39.997  17.780   3.644
77595NA+    NA+41352  24.118  25.127   0.300
77596NA+    NA+41353  22.043  42.474   3.652
77597NA+    NA+41354  14.313  31.564   2.695
77598NA+    NA+41355  39.535  21.712   0.473
77599NA+    NA+41356  29.464  42.372   4.178
77600NA+    NA+41357   2.944  31.480   2.691
77601NA+    NA+41358  20.116  19.737   4.785
77602NA+    NA+41359  29.496  11.187  11.537
77603NA+    NA+41360  11.205   0.410  10.413
77604NA+    NA+41361  30.457  33.016   3.169
77605NA+    NA+41362  44.858  22.688  10.488
77606NA+    NA+41363   0.398  26.638  12.081
77607NA+    NA+41364  40.955   1.342   1.232
77608NA+    NA+41365   5.855  17.768  13.415
77609NA+    NA+41366   1.434  30.431   1.767
77610NA+    NA+41367  22.711  26.019   1.271
77611NA+    NA+41368  22.682  30.593  10.615
77612NA+    NA+41369  15.198   4.846  14.365
77613NA+    NA+41370  38.526  17.199  13.001
77614NA+    NA+41371  32.637  41.913  10.596
77615NA+    NA+41372  17.780  21.107   2.761
77616NA+    NA+41373  32.096  11.146   1.882
77617NA+    NA+41374  27.082  31.921  14.759
77618NA+    NA+41375  34.932  14.113   5.260
77619NA+    NA+41376  41.505  18.775   0.373
77620NA+    NA+41377  43.975  14.605   2.395
77621NA+    NA+41378  36.371   3.445   4.823
77622NA+    NA+41379  11.851   4.822  14.785
77623NA+    NA+41380  26.615  39.543   4.641
77624NA+    NA+41381  18.213   8.789   2.417
77625NA+    NA+41382  17.583  29.637   2.778
77626NA+    NA+41383  15.119  28.674   2.286
77627NA+    NA+41384  36.982  23.080   0.312
77628NA+    NA+41385   1.384  34.906  10.630
77629NA+    NA+41386  15.242   4.778   2.675
77630NA+    NA+41387  23.092  12.804  12.936
77631NA+    NA+41388  27.474  44.963  11.068
77632NA+    NA+41389  28.121  29.464   0.372
77633NA+    NA+41390   5.812  19.572   3.818
77634NA+    NA+41391  29.548  33.591   2.715
77635NA+    NA+41392  38.390   9.384  13.511
77636NA+    NA+41393  12.231   8.689  12.990
77637NA+    NA+41394   8.760  30.022   0.451
77638NA+    NA+41395  27.603  32.993  14.793
77639NA+    NA+41396  28.529  12.629  10.088
77640NA+    NA+41397  32.402  37.865  14.397
77641NA+    NA+41398  44.993  29.504  11.009
77642NA+    NA+41399  19.144  12.331  14.941
77643NA+    NA+41400  21.729  17.244  12.949
77644NA+    NA+41401  36.963  37.409   4.245
77645NA+    NA+41402   2.863  11.234  10.960
77646NA+    NA+41403  10.298  10.294   5.216
77647NA+    NA+41404  40.915  27.015   2.328
77648NA+    NA+41405   5.758  14.815  14.908
77649NA+    NA+41406  31.536   3.773  12.847
77650NA+    NA+41407  14.641  42.877  10.028
77651NA+    NA+41408  43.914  40.801  12.075
77652NA+    NA+41409  44.939  27.687   3.756
77653NA+    NA+41410   4.703   2.730   5.120
77654NA+    NA+41411  25.517  23.124  11.869
77655NA+    NA+41412   4.870  30.523  13.452
77656NA+    NA+41413  37.971   7.690  12.520
77657NA+    NA+41414  28.043  15.203   1.874
77658NA+    NA+41415   1.907  29.158  10.531
77659NA+    NA+41416   9.244  17.102   1.874
77660NA+    NA+41417   1.857  19.062  14.429
77661NA+    NA+41418   9.387  11.765   1.294
77662NA+    NA+41419   9.726  30.128  11.388
77663NA+    NA+41420  14.333  42.502  11.479
77664NA+    NA+41421  15.729   6.835  11.057
77665NA+    NA+41422  28.498  43.830   2.680
77666NA+    NA+41423   9.319  20.253   3.811
77667NA+    NA+41424  26.973  22.654   0.286
77668NA+    NA+41425  37.830   1.393   2.901
77669NA+    NA+41426  17.648   5.318  14.284
77670NA+    NA+41427  16.580  36.029   1.878
77671NA+    NA+41428  30.499  29.067  13.544
77672NA+    NA+41429  27.492  38.936  14.846
77673NA+    NA+41430   1.777  12.799   4.773
77674NA+    NA+41431  34.462  29.140   5.250
77675NA+    NA+41432  33.517  27.474  11.955
77676NA+    NA+41433  44.464   1.464  13.926
77677NA+    NA+41434  14.759  37.505   1.258
77678NA+    NA+41435  24.044  21.619  14.906
77679NA+    NA+41436  35.001   6.422  14.927
77680NA+    NA+41437  19.672  11.695  14.860
77681NA+    NA+41438  29.969  43.439  11.088
77682NA+    NA+41439  39.061  35.861  12.086
77683NA+    NA+41440  42.895  16.222  13.947
77684NA+    NA+41441   1.445  38.502  14.497
77685NA+    NA+41442  43.510  26.015  12.878
77686NA+    NA+41443  14.662  37.434  10.984
77687NA+    NA+41444  15.696  43.408  10.467
77688NA+    NA+41445   0.773  32.551   0.417
77689NA+    NA+41446  36.559  29.918   2.788
77690NA+    NA+41447  17.568  29.993  13.032
77691NA+    NA+41448  17.563  35.478   3.210
77692NA+    NA+41449  33.610  19.673   2.276
77693NA+    NA+41450   8.256  27.075   2.724
77694NA+    NA+41451  19.669  33.882  11.118
77695NA+    NA+41452  28.620  38.857  14.382
77696NA+    NA+41453  23.234  18.173  12.476
77697NA+    NA+41454   9.371  31.010  12.526
77698NA+    NA+41455  25.970  15.096   4.291
77699NA+    NA+41456   2.428   8.338   0.471
77700NA+    NA+41457   3.427  40.978  10.014
77701NA+    NA+41458   9.280  40.966   1.720
77702NA+    NA+41459   4.867  31.056   3.745
77703NA+    NA+41460   6.864  39.860   2.696
77704NA+    NA+41461  40.924  32.500  10.477
77705NA+    NA+41462  12.713   2.749   3.713
77706NA+    NA+41463  36.533   3.444   3.703
77707NA+    NA+41464  33.390  17.771   4.348
77708NA+    NA+41465  24.037  17.748   1.794
77709NA+    NA+41466  18.619   1.800   2.279
77710NA+    NA+41467  34.035  40.409  13.388
77711NA+    NA+41468  25.657  22.228   4.811
77712NA+    NA+41469  10.705  13.316  10.635
77713NA+    NA+41470  34.605   3.314   0.775
77714NA+    NA+41471  41.874  29.981  13.972
77715NA+    NA+41472  17.183  19.700  10.914
77716NA+    NA+41473   3.931   7.282   4.655
77717NA+    NA+41474   6.399  22.100  11.403
77718NA+    NA+41475  16.278  27.601   2.767
77719NA+    NA+41476   3.330  19.242   1.304
77720NA+    NA+41477  36.871   9.741  13.923
77721NA+    NA+41478  10.704  32.610   4.234
77722NA+    NA+41479  21.684  32.489   1.211
77723NA+    NA+41480   1.415  27.496   0.312
77724NA+    NA+41481  12.689  40.950   4.301
77725NA+    NA+41482  13.808   4.736   1.780
77726NA+    NA+41483  19.756   8.280  14.894
77727NA+    NA+41484  15.579  32.429  11.025
77728NA+    NA+41485  11.315  38.878   0.261
77729NA+    NA+41486  16.592  42.460  10.597
77730NA+    NA+41487  17.670  33.489  12.838
77731NA+    NA+41488   3.260  30.424   4.298
77732NA+    NA+41489   9.881  17.115   3.855
77733NA+    NA+41490   3.825  15.634   9.936
77734NA+    NA+41491  40.319  41.956   1.268
77735NA+    NA+41492  25.088   6.403  14.854
77736NA+    NA+41493   8.881  24.001  10.982
77737NA+    NA+41494  17.258  21.107  13.476
77738NA+    NA+41495  14.594  21.671  13.362
77739NA+    NA+41496  38.543   1.757   1.257
77740NA+    NA+41497   9.206  22.537  14.868
77741NA+    NA+41498  21.187  34.491   0.307
77742NA+    NA+41499  33.008   8.217   1.925
77743NA+    NA+41500  44.384  12.252   0.335
77744NA+    NA+41501  22.043  31.611   1.878
77745NA+    NA+41502   1.850  17.120   3.698
77746NA+    NA+41503  22.701   0.269   2.737
77747NA+    NA+41504  35.090  23.702   9.986
77748NA+    NA+41505  15.791  33.397  14.507
77749NA+    NA+41506  34.586   0.942   1.761
77750NA+    NA+41507   3.396  33.115  12.915
77751NA+    NA+41508  21.657   1.304  10.571
77752NA+    NA+41509   7.750   4.909   1.862
77753NA+    NA+41510  19.686  23.568   4.307
77754NA+    NA+41511  43.321  41.446   3.321
77755NA+    NA+41512  23.100  20.700   1.826
77756NA+    NA+41513  44.329  18.253   3.167
77757NA+    NA+41514   4.925  26.052   0.778
77758NA+    NA+41515  21.565   4.432   2.804
77759NA+    NA+41516  18.110   5.768   3.757
77760NA+    NA+41517  13.620  34.003   1.809
77761NA+    NA+41518   8.707  26.598  10.951
77762NA+    NA+41519  11.132   2.276  14.004
77763NA+    NA+41520  12.712  13.797  14.510
77764NA+    NA+41521  43.989  17.760   0.246
77765NA+    NA+41522   2.425  42.495   3.345
77766NA+    NA+41523  40.439  37.482   2.833
77767NA+    NA+41524  27.657  42.787  10.505
77768NA+    NA+41525   6.240  40.369   9.944
77769NA+    NA+41526  30.607  31.976  12.848
77770NA+    NA+41527   2.829   3.879   1.310
77771NA+    NA+41528   3.431  32.142  11.061
77772NA+    NA+41529  30.572  34.433   0.813
77773NA+    NA+41530  14.795  12.753   1.241
77774NA+    NA+41531  22.704  36.994   4.620
77775NA+    NA+41532   9.755  24.684  12.872
77776NA+    NA+41533  43.369  14.285  13.519
77777NA+    NA+41534   2.466  37.940   2.293
77778NA+    NA+41535  24.712  35.006  10.462
77779NA+    NA+41536  16.731  35.501  12.827
77780NA+    NA+41537  32.117  28.656   4.634
77781NA+    NA+41538  36.973  16.664   4.174
77782NA+    NA+41539  14.620  19.540  14.813
77783NA+    NA+41540  33.488   2.314  14.774
77784NA+    NA+41541  38.906  16.691  14.773
77785NA+    NA+41542  44.260   5.224   3.750
77786NA+    NA+41543  29.076  37.571  14.770
77787NA+    NA+41544   5.743   6.394  14.293
77788NA+    NA+41545  18.214  36.955  13.350
77789NA+    NA+41546  35.976  39.545   2.401
77790NA+    NA+41547  27.152  43.404  11.896
77791NA+    NA+41548   2.921  15.685   4.749
77792NA+    NA+41549  28.460   1.928   3.827
77793NA+    NA+41550  18.789  40.006   2.306
77794NA+    NA+41551  13.314  24.109   1.253
77795NA+    NA+41552  21.260   4.449   2.851
77796NA+    NA+41553  21.536  11.741  10.987
77797NA+    NA+41554  31.628  19.618  11.979
77798NA+    NA+41555  28.567  25.509   2.795
77799NA+    NA+41556  38.559  35.897  11.426
77800NA+    NA+41557  15.109   3.739  13.985
77801NA+    NA+41558  27.479   1.801   2.818
77802NA+    NA+41559  15.673  19.579   2.713
77803NA+    NA+41560  38.403   1.356  11.050
77804NA+    NA+41561  33.458  13.269   2.818
77805NA+    NA+41562   2.885  14.166  14.813
77806NA+    NA+41563  31.979   5.307   5.588
77807NA+    NA+41564  34.080  24.163   1.783
77808NA+    NA+41565  14.269  40.336   2.793
77809NA+    NA+41566  10.843  43.477   3.643
77810NA+    NA+41567  40.363  17.294  12.826
77811NA+    NA+41568  35.952  15.780   2.185
77812NA+    NA+41569  32.450  12.159   4.727
77813NA+    NA+41570   3.400  36.411   4.642
77814NA+    NA+41571  11.193  16.312  12.915
77815NA+    NA+41572  21.198  31.921  14.792
77816NA+    NA+41573  25.554   3.248   1.768
77817NA+    NA+41574   0.477  27.477   4.215
77818NA+    NA+41575  35.025   5.250   3.679
77819NA+    NA+41576   9.699  15.671  12.509
77820NA+    NA+41577  34.389  38.492   1.253
77821NA+    NA+41578  38.012  33.940   1.292
77822NA+    NA+41579  22.204   5.345   0.431
77823NA+    NA+41580  21.086  15.148   3.691
77824NA+    NA+41581  43.413   7.181  10.417
77825NA+    NA+41582  21.715  11.632  14.866
77826NA+    NA+41583  19.746   6.256   0.815
77827NA+    NA+41584   3.216   6.410  13.490
77828NA+    NA+41585   5.201  17.752   3.359
77829NA+    NA+41586  30.136  11.308  13.540
77830NA+    NA+41587   5.347  23.141   0.477
77831NA+    NA+41588   4.706  23.988  10.467
77832NA+    NA+41589  42.392  30.475  14.985
77833NA+    NA+41590  44.992  36.991   1.896
77834NA+    NA+41591  38.865   6.856   1.711
77835NA+    NA+41592  19.536  18.132   3.243
77836NA+    NA+41593   0.263   3.294   2.825
77837NA+    NA+41594  18.174  11.175  12.358
77838NA+    NA+41595  31.046  37.382  14.024
77839NA+    NA+41596  33.923  30.531   2.361
77840NA+    NA+41597  10.349  20.573  11.574
77841NA+    NA+41598  27.180  40.312   0.888
77842NA+    NA+41599  29.174   7.888  11.440
77843NA+    NA+41600  16.303   9.887  10.486
77844NA+    NA+41601  15.580  27.013   4.698
77845NA+    NA+41602  12.352  16.189   1.866
77846NA+    NA+41603   1.357  35.412   0.769
77847NA+    NA+41604  12.179   4.229   2.687
77848NA+    NA+41605  20.255  29.476  13.496
77849NA+    NA+41606   3.287  17.165   3.320
77850NA+    NA+41607  39.411   0.935   3.214
77851NA+    NA+41608   3.793   9.841  13.427
77852NA+    NA+41609  38.056  22.647  14.841
77853NA+    NA+41610   3.783  17.205   0.249
77854NA+    NA+41611  20.532  15.266   5.619
77855NA+    NA+41612  17.669  20.724   2.306
77856NA+    NA+41613  24.013  42.939   3.366
77857NA+    NA+41614  11.250  39.883  11.129
77858NA+    NA+41615  38.412  39.958   4.600
77859NA+    NA+41616  44.790  29.172   2.855
77860NA+    NA+41617  25.094  22.743   1.870
77861NA+    NA+41618  39.424  22.572   4.765
77862NA+    NA+41619   2.371   1.258   0.872
77863NA+    NA+41620  26.521  28.481   3.169
77864NA+    NA+41621  41.303  26.026   3.739
77865NA+    NA+41622  24.097  38.424  11.927
77866NA+    NA+41623  30.973   0.296   0.403
77867NA+    NA+41624   2.939  40.532  11.450
77868NA+    NA+41625  11.269  41.440  14.508
77869NA+    NA+41626  11.787  30.048   3.355
77870NA+    NA+41627  21.163   0.867  10.467
77871NA+    NA+41628  42.797  16.230   2.245
77872NA+    NA+41629  16.794  33.438  11.568
77873NA+    NA+41630   3.883   8.369  12.045
77874NA+    NA+41631  23.203   8.403   4.787
77875NA+    NA+41632  33.449  32.595  10.986
77876NA+    NA+41633  36.057   2.454   3.149
77877NA+    NA+41634  33.525   7.381  14.403
77878NA+    NA+41635  33.903  21.223   1.920
77879NA+    NA+41636  19.245  24.982  13.016
77880NA+    NA+41637   9.887  37.046   1.792
77881NA+    NA+41638   9.829  21.106   2.867
77882NA+    NA+41639  15.139  37.371   2.827
77883NA+    NA+41640   4.861  42.473  12.047
77884NA+    NA+41641   3.848   4.403  12.930
77885NA+    NA+41642  36.006   7.401  12.078
77886NA+    NA+41643  12.805   8.283  11.417
77887NA+    NA+41644  27.149  32.948  13.341
77888NA+    NA+41645  38.328  36.943   3.786
77889NA+    NA+41646  14.751  44.806  10.604
77890NA+    NA+41647   9.759   9.182  11.073
77891NA+    NA+41648  17.670  12.195   3.705
77892NA+    NA+41649  21.097  13.177  13.358
77893NA+    NA+41650  16.118  19.098   3.363
77894NA+    NA+41651  36.938  28.044  13.401
77895NA+    NA+41652  22.172  38.973   0.928
77896NA+    NA+41653  21.595  33.474   1.915
77897NA+    NA+41654  41.964  22.646  11.067
77898NA+    NA+41655   3.748   7.797  10.418
77899NA+    NA+41656  26.651  23.182  11.426
77900NA+    NA+41657  17.712   9.655  11.559
77901NA+    NA+41658  19.768  33.003   3.869
77902NA+    NA+41659   9.368  41.914  12.365
77903NA+    NA+41660  11.734  14.180  11.959
77904NA+    NA+41661  42.891   8.300  11.444
77905NA+    NA+41662  36.029   1.414  12.430
77906NA+    NA+41663  39.380  13.114  11.880
77907NA+    NA+41664   6.208  31.537  14.398
77908NA+    NA+41665  19.059  24.203   0.413
77909NA+    NA+41666  11.284  28.180  13.835
77910NA+    NA+41667  24.102   9.712   2.764
77911NA+    NA+41668  18.777  21.128   3.714
77912NA+    NA+41669  41.892  24.539  11.501
77913NA+    NA+41670  17.232   5.305  14.384
77914NA+    NA+41671  20.047  12.666  13.009
77915NA+    NA+41672  11.741  29.937  10.419
77916NA+    NA+41673  30.485  32.973   4.195
77917NA+    NA+41674  43.510   9.644   0.808
77918NA+    NA+41675  38.830   4.277  13.841
77919NA+    NA+41676  25.692  26.565   5.102
77920NA+    NA+41677  41.805  40.873  11.380
77921NA+    NA+41678   7.685   3.229   3.755
77922NA+    NA+41679   7.861  32.589  14.807
77923NA+    NA+41680  16.283  37.570   0.362
77924NA+    NA+41681  35.414  29.424   0.925
77925NA+    NA+41682  22.033   8.783  12.503
77926NA+    NA+41683  31.572  32.440   2.197
77927NA+    NA+41684  34.528  40.950  14.997
77928NA+    NA+41685  12.819   6.252   3.224
77929NA+    NA+41686   7.685   4.849  14.013
77930NA+    NA+41687  31.056  21.070   1.816
77931NA+    NA+41688  16.691  13.698  13.474
77932NA+    NA+41689   1.770  19.267   0.257
77933NA+    NA+41690  31.521   1.255  12.929
77934NA+    NA+41691  18.750  16.727  14.910
77935NA+    NA+41692  42.397   8.369  10.423
77936NA+    NA+41693  44.459   5.429  11.547
77937NA+    NA+41694  43.980  34.042   3.725
77938NA+    NA+41695   9.852  26.538  13.529
77939NA+    NA+41696  12.181  27.051   1.242
77940NA+    NA+41697  10.330  26.648  14.419
77941NA+    NA+41698   6.858  22.028   4.598
77942NA+    NA+41699  44.485  26.044  12.992
77943NA+    NA+41700   4.381  30.129  11.093
77944NA+    NA+41701   1.892  37.997   1.852
77945NA+    NA+41702   8.315  29.174   4.145
77946NA+    NA+41703  42.406  39.945  13.932
77947NA+    NA+41704  21.176   1.461  13.507
77948NA+    NA+41705   3.874  35.433  11.499
77949NA+    NA+41706  43.967  22.027   4.127
77950NA+    NA+41707  29.164  21.738   2.236
77951NA+    NA+41708   5.824  27.637   4.160
77952NA+    NA+41709  21.570  38.019  14.354
77953NA+    NA+41710  34.513  26.177  12.371
77954NA+    NA+41711  29.553   3.365   4.208
77955NA+    NA+41712  39.907  34.503   0.731
77956NA+    NA+41713  34.007   9.151  10.462
77957NA+    NA+41714  17.251   2.910  12.846
77958NA+    NA+41715  31.545  41.855   2.684
77959NA+    NA+41716  18.612  22.160  12.040
77960NA+    NA+41717   0.891  33.077  14.786
77961NA+    NA+41718  30.065   4.830  14.339
77962NA+    NA+41719  24.604  14.339   2.326
77963NA+    NA+41720  28.641  19.600  12.928
77964NA+    NA+41721  42.408  39.361   0.290
77965NA+    NA+41722  12.691  25.570  11.087
77966NA+    NA+41723   1.964   8.732   4.814
77967NA+    NA+41724  14.176  15.686  10.547
77968NA+    NA+41725   2.928   1.929   4.737
77969NA+    NA+41726  33.100  31.144   3.861
77970NA+    NA+41727   5.772  10.200  10.140
77971NA+    NA+41728   9.155   6.917   1.756
77972NA+    NA+41729  43.992  17.088   4.743
77973NA+    NA+41730  37.921  35.997   1.738
77974NA+    NA+41731  41.977  18.191   0.852
77975NA+    NA+41732  30.611  24.075  13.010
77976NA+    NA+41733  20.693   3.859  13.322
77977NA+    NA+41734  29.015  27.586   3.668
77978NA+    NA+41735  35.550  27.946  10.481
77979NA+    NA+41736  30.659  11.151   3.242
77980NA+    NA+41737  42.830  14.771   3.673
77981NA+    NA+41738   8.279   9.174  14.821
77982NA+    NA+41739   8.859   2.720  12.397
77983NA+    NA+41740  38.548  43.020   0.265
77984NA+    NA+41741  31.108   9.221   2.827
77985NA+    NA+41742  22.151   8.342   0.412
77986NA+    NA+41743   4.238  22.058   3.633
77987NA+    NA+41744  33.462  31.932   2.268
77988NA+    NA+41745   7.856  31.112   1.879
77989NA+    NA+41746  35.604  39.999   2.740
77990NA+    NA+41747  28.154  42.371  14.388
77991NA+    NA+41748  22.048  29.133   3.348
77992NA+    NA+41749  32.983  15.756   1.284
77993NA+    NA+41750  12.824  22.034  12.422
77994NA+    NA+41751  25.633  24.185  14.408
77995NA+    NA+41752  23.696  37.561  13.436
77996NA+    NA+41753  20.542  23.218  12.548
77997NA+    NA+41754   9.866  21.525   3.713
77998NA+    NA+41755  36.475  12.649  11.555
77999NA+    NA+41756  28.072  18.277   1.817
78000NA+    NA+41757  29.472  16.074   1.811
78001NA+    NA+41758   4.869  42.515   2.311
78002NA+    NA+41759  26.642  35.916  12.958
78003NA+    NA+41760  10.381  43.358  11.444
78004NA+    NA+41761  11.136  17.591   2.387
78005NA+    NA+41762  37.431   4.226  13.463
78006NA+    NA+41763  28.179  22.045  13.498
78007NA+    NA+41764  28.529   8.824   0.470
78008NA+    NA+41765   2.878  17.556  10.996
78009NA+    NA+41766  30.647  16.770  12.075
78010NA+    NA+41767  31.519   6.895  14.448
78011NA+    NA+41768  19.214  12.331  13.354
78012NA+    NA+41769  22.664  33.506  10.576
78013NA+    NA+41770  22.517  13.225  11.445
78014NA+    NA+41771  39.449  16.217   1.782
78015NA+    NA+41772  10.311  37.579  11.501
78016NA+    NA+41773   2.899   8.790  13.820
78017NA+    NA+41774  37.344  32.001  12.030
78018NA+    NA+41775  23.541  12.211   4.777
78019NA+    NA+41776  22.045  39.375  13.928
78020NA+    NA+41777   1.805  28.973  14.776
78021NA+    NA+41778  34.369  27.000  14.384
78022NA+    NA+41779  33.483  38.992  14.903
78023NA+    NA+41780  32.950  17.186   0.838
78024NA+    NA+41781  29.523   6.421  14.474
78025NA+    NA+41782  20.242  15.705   0.424
78026NA+    NA+41783  36.036  18.679  10.926
78027NA+    NA+41784  39.854   1.859   5.304
78028NA+    NA+41785  43.765  13.251  13.000
78029NA+    NA+41786  17.174  43.809   5.597
78030NA+    NA+41787  43.960  10.769   2.739
78031NA+    NA+41788  17.301  42.351   3.322
78032NA+    NA+41789  20.085  42.292   4.809
78033NA+    NA+41790   9.736  25.019   1.731
78034NA+    NA+41791  33.435  44.882  13.940
78035NA+    NA+41792  41.998  27.654  10.982
78036NA+    NA+41793   2.884  42.978  12.361
78037NA+    NA+41794  35.054  16.277   3.357
78038NA+    NA+41795  21.070  18.109   1.798
78039NA+    NA+41796   2.918   7.709  12.827
78040NA+    NA+41797  32.430   3.789  14.004
78041NA+    NA+41798  14.613  13.335  10.486
78042NA+    NA+41799  41.840  22.628  11.463
78043NA+    NA+41800  32.635   5.370  11.445
78044NA+    NA+41801  21.106  11.665  10.611
78045NA+    NA+41802  32.599  41.959   3.375
78046NA+    NA+41803  43.954   6.335  10.935
78047NA+    NA+41804  11.714  30.059   0.772
78048NA+    NA+41805   2.375  11.214   0.420
78049NA+    NA+41806  41.533  41.374  12.989
78050NA+    NA+41807   1.871  15.768   3.836
78051NA+    NA+41808  16.811   2.792  14.897
78052NA+    NA+41809  38.932  21.070   3.183
78053NA+    NA+41810  40.323  10.281  11.030
78054NA+    NA+41811   0.358  12.768   3.846
78055NA+    NA+41812  35.461  30.609   1.419
78056NA+    NA+41813  44.850  28.091  11.084
78057NA+    NA+41814  31.107  12.727  10.454
78058NA+    NA+41815  28.971   2.403  12.936
78059NA+    NA+41816  43.918  44.900  11.568
78060NA+    NA+41817  22.713  19.566  13.063
78061NA+    NA+41818  27.678  15.678  11.998
78062NA+    NA+41819  21.694  34.416  11.459
78063NA+    NA+41820   8.896  25.652   0.345
78064NA+    NA+41821  33.395  42.503   4.817
78065NA+    NA+41822  37.388   9.230  13.957
78066NA+    NA+41823  40.861   7.708  13.928
78067NA+    NA+41824  36.860   3.237  13.816
78068NA+    NA+41825  11.826  20.730  14.416
78069NA+    NA+41826  30.559  17.637  12.026
78070NA+    NA+41827  33.398  37.476  10.123
78071NA+    NA+41828  17.177  24.179  10.478
78072NA+    NA+41829  41.824   4.211  11.451
78073NA+    NA+41830  31.940   2.923  13.856
78074NA+    NA+41831  40.425   9.819  11.414
78075NA+    NA+41832  13.608   9.185  12.066
78076NA+    NA+41833  43.777  32.546  13.061
78077NA+    NA+41834  14.718  31.958  10.043
78078NA+    NA+41835  28.965  10.760  14.406
78079NA+    NA+41836   9.806  13.331   2.722
78080NA+    NA+41837  39.009  16.141  10.114
78081NA+    NA+41838  38.032  20.704   4.677
78082NA+    NA+41839  29.953  28.660  12.866
78083NA+    NA+41840   6.796  33.613   4.314
78084NA+    NA+41841  25.103  12.208   2.797
78085NA+    NA+41842  35.601  34.531  13.919
78086NA+    NA+41843  24.478  10.285  13.541
78087NA+    NA+41844  34.476   1.264  13.365
78088NA+    NA+41845  21.026  13.157  12.000
78089NA+    NA+41846  24.609   4.702  13.454
78090NA+    NA+41847  22.573  11.621   3.261
78091NA+    NA+41848   8.355  38.841  12.396
78092NA+    NA+41849  41.522   0.895  11.110
78093NA+    NA+41850  19.625  11.657   3.272
78094NA+    NA+41851   8.748  12.255  12.084
78095NA+    NA+41852  21.074  14.673  13.836
78096NA+    NA+41853  27.491  43.935   3.675
78097NA+    NA+41854  28.570  10.855   3.804
78098NA+    NA+41855  11.317  44.833  12.021
78099NA+    NA+41856  44.982   2.375  14.868
78100NA+    NA+41857  35.525   6.417   0.325
78101NA+    NA+41858  43.395   9.341   4.836
78102NA+    NA+41859  20.114   5.856  13.993
78103NA+    NA+41860  37.063  43.395   2.832
78104NA+    NA+41861   8.175  30.432   0.779
78105NA+    NA+41862   5.304   4.805   2.733
78106NA+    NA+41863   0.823  13.161   3.740
78107NA+    NA+41864  18.154  33.610   4.247
78108NA+    NA+41865  37.517  23.170  12.857
78109NA+    NA+41866   7.825  10.751  14.399
78110NA+    NA+41867  27.678  27.638  10.895
78111NA+    NA+41868  31.913  38.373  11.963
78112NA+    NA+41869  20.620  32.584   2.377
78113NA+    NA+41870  35.387  22.655  11.125
78114NA+    NA+41871   5.829  10.313   3.730
78115NA+    NA+41872  30.930  35.576  13.960
78116NA+    NA+41873  29.081  24.532  10.030
78117NA+    NA+41874   4.927  11.676  10.640
78118NA+    NA+41875   6.714  25.969   0.753
78119NA+    NA+41876  31.073  34.476  10.612
78120NA+    NA+41877  22.566  15.259  11.492
78121NA+    NA+41878   1.739  32.000   5.322
78122NA+    NA+41879  39.540  17.233  11.101
78123NA+    NA+41880  19.186  43.390  14.018
78124NA+    NA+41881  11.276   8.869  14.403
78125NA+    NA+41882  16.151  16.085  11.907
78126NA+    NA+41883  32.012  34.085   2.182
78127NA+    NA+41884  34.011  32.899   0.255
78128NA+    NA+41885   1.973   6.294   5.266
78129NA+    NA+41886   9.857  17.265  13.494
78130NA+    NA+41887   1.905  30.615   1.417
78131NA+    NA+41888  17.675  33.911   2.387
78132NA+    NA+41889  19.549  36.887  12.087
78133NA+    NA+41890   4.442  39.064  13.867
78134NA+    NA+41891  12.123  13.196   0.893
78135NA+    NA+41892  35.103  22.046   3.739
78136NA+    NA+41893  35.440  12.626   2.229
78137NA+    NA+41894  25.154  10.642  10.529
78138NA+    NA+41895  37.907  19.624  12.472
78139NA+    NA+41896  14.722   1.294  14.934
78140NA+    NA+41897   2.764  21.690   0.259
78141NA+    NA+41898  44.420  42.032  11.884
78142NA+    NA+41899   6.685  21.631  13.535
78143NA+    NA+41900   3.815  34.931  10.477
78144NA+    NA+41901  17.801   7.281   2.890
78145NA+    NA+41902  35.989  23.113  13.929
78146NA+    NA+41903   2.776  12.321   0.403
78147NA+    NA+41904  19.266  35.891  14.982
78148NA+    NA+41905   7.189  24.683   4.767
78149NA+    NA+41906   2.357  15.188  11.441
78150NA+    NA+41907   3.749  29.996   0.367
78151NA+    NA+41908  22.250  10.722  10.927
78152NA+    NA+41909  11.787  33.582   5.176
78153NA+    NA+41910  44.848  35.466  10.900
78154NA+    NA+41911  20.267  19.057  14.013
78155NA+    NA+41912  16.750  40.331   2.291
78156NA+    NA+41913  42.909  28.559   4.314
78157NA+    NA+41914  12.181   4.215   0.829
78158NA+    NA+41915  41.822  13.229   4.190
78159NA+    NA+41916  40.901   9.187   4.642
78160NA+    NA+41917  30.635  15.625  14.780
78161NA+    NA+41918  39.004  13.722  13.807
78162NA+    NA+41919   3.836  26.569  13.324
78163NA+    NA+41920   5.420   2.817  11.868
78164NA+    NA+41921   4.347  40.856  10.468
78165NA+    NA+41922  33.944  15.823  13.492
78166NA+    NA+41923  43.768  24.101  11.556
78167NA+    NA+41924  34.075  32.611   4.262
78168NA+    NA+41925  25.056  41.403   0.950
78169NA+    NA+41926  26.106  32.935  14.788
78170NA+    NA+41927   0.829  40.932  10.611
78171NA+    NA+41928   7.348  28.124   3.351
78172NA+    NA+41929  24.162  24.551   2.356
78173NA+    NA+41930  17.306  11.677  13.944
78174NA+    NA+41931   4.226   7.833  12.367
78175NA+    NA+41932   9.279   9.693   3.237
78176NA+    NA+41933  16.243   8.856   1.284
78177NA+    NA+41934  37.998  15.749   5.081
78178NA+    NA+41935  42.952  13.821  11.965
78179NA+    NA+41936  34.408  31.481   2.296
78180NA+    NA+41937  11.318  25.186   2.733
78181NA+    NA+41938  33.896   9.184   1.309
78182NA+    NA+41939   0.852  13.161   0.861
78183NA+    NA+41940  33.069  33.417  12.882
78184NA+    NA+41941  17.061  33.118  12.986
78185NA+    NA+41942   8.368  22.172   0.749
78186NA+    NA+41943  16.231  18.672  13.047
78187NA+    NA+41944  10.834  12.633   4.129
78188NA+    NA+41945  34.947  12.622   2.686
78189NA+    NA+41946  24.176  11.288   3.221
78190NA+    NA+41947  16.293  10.837   2.312
78191NA+    NA+41948  27.152  44.956  13.979
78192NA+    NA+41949  12.234   2.355  11.592
78193NA+    NA+41950  30.497  16.313  10.161
78194NA+    NA+41951  14.155  22.647  13.339
78195NA+    NA+41952  36.885  41.437  12.843
78196NA+    NA+41953  41.800  25.515  14.389
78197NA+    NA+41954  14.223  36.907   2.212
78198NA+    NA+41955  20.594  16.229  10.934
78199NA+    NA+41956  34.021  32.982  14.360
78200NA+    NA+41957  29.486  11.214  13.353
78201NA+    NA+41958  43.997   1.401   0.359
78202NA+    NA+41959  13.621  17.802  10.964
78203NA+    NA+41960  10.187  16.280  12.005
78204NA+    NA+41961  18.567   3.901  12.021
78205NA+    NA+41962  26.477  34.924   2.817
78206NA+    NA+41963  29.577  14.228   2.748
78207NA+    NA+41964  42.461  43.326  10.582
78208NA+    NA+41965  35.016   8.765   1.390
78209NA+    NA+41966  34.093  17.224   0.943
78210NA+    NA+41967  32.134   0.987  10.974
78211NA+    NA+41968  40.542  15.582   3.836
78212NA+    NA+41969  25.532  10.244   5.304
78213NA+    NA+41970  43.938  37.494   3.301
78214NA+    NA+41971  40.376   1.466   0.377
78215NA+    NA+41972  12.284   4.715   0.831
78216NA+    NA+41973  32.546   5.930  10.907
78217NA+    NA+41974   9.181   5.193  11.489
78218NA+    NA+41975  18.078   9.695   0.346
78219NA+    NA+41976   6.216  18.561  11.441
78220NA+    NA+41977   7.846  33.079   3.705
78221NA+    NA+41978   6.356  21.072  12.078
78222NA+    NA+41979  28.541  22.034  10.055
78223NA+    NA+41980  38.326  29.454  11.084
78224NA+    NA+41981   5.703  22.161  12.439
78225NA+    NA+41982  22.635   4.400   1.859
78226NA+    NA+41983  27.005  13.277   2.237
78227NA+    NA+41984  28.468  13.206  11.430
78228NA+    NA+41985  22.112  32.038  12.540
78229NA+    NA+41986  30.629  32.468   2.280
78230NA+    NA+41987  20.655  30.159  13.463
78231NA+    NA+41988  42.924  24.520  12.847
78232NA+    NA+41989  44.904  18.186  12.839
78233NA+    NA+41990  35.392  38.854  11.454
78234NA+    NA+41991  43.780  19.702  11.401
78235NA+    NA+41992  39.822   3.763   3.159
78236NA+    NA+41993   7.670  26.011   3.228
78237NA+    NA+41994   9.692   4.874   2.340
78238NA+    NA+41995   9.821  15.755  12.092
78239NA+    NA+41996  26.618  10.236  13.986
78240NA+    NA+41997  31.542  28.568   0.918
78241NA+    NA+41998  16.709  43.273   1.348
78242NA+    NA+41999  12.672  37.034  11.511
78243NA+    NA+42000  38.459   2.755   2.853
78244NA+    NA+42001  32.544  41.902   0.414
78245NA+    NA+42002   5.740  23.651   4.160
78246NA+    NA+42003  21.195   2.732  10.519
78247NA+    NA+42004  41.817  10.368   3.150
78248NA+    NA+42005  42.942  33.609   4.307
78249NA+    NA+42006  20.250   7.236  12.007
78250NA+    NA+42007  13.250  34.028  13.796
78251NA+    NA+42008   5.389  12.788   4.323
78252NA+    NA+42009  21.527  16.300  10.888
78253NA+    NA+42010  10.345  31.973  12.929
78254NA+    NA+42011  15.087  36.038  11.605
78255NA+    NA+42012  34.370   4.427   3.298
78256NA+    NA+42013  25.152   7.367  14.452
78257NA+    NA+42014  18.683  23.083   1.369
78258NA+    NA+42015  10.151  11.255   1.725
78259NA+    NA+42016  43.298  27.583   4.675
78260NA+    NA+42017   5.311  43.291   1.872
78261NA+    NA+42018   0.795  39.469  13.385
78262NA+    NA+42019  31.441  43.384  13.038
78263NA+    NA+42020  20.084   9.291   2.268
78264NA+    NA+42021  13.272  27.998  14.929
78265NA+    NA+42022  30.442  10.348  14.780
78266NA+    NA+42023  27.659  38.982   2.706
78267NA+    NA+42024  40.876  35.889  12.940
78268NA+    NA+42025  11.719  28.615  11.016
78269NA+    NA+42026  13.215  18.280  11.421
78270NA+    NA+42027  15.228  30.553   2.327
78271NA+    NA+42028  12.839   8.878  14.783
78272CL-    CL-42029  24.997   4.321   3.794
78273CL-    CL-42030  37.031  26.531   0.265
78274CL-    CL-42031  32.438  36.051   0.296
78275CL-    CL-42032  16.259   3.787   1.909
78276CL-    CL-42033   6.197  24.046  14.798
78277CL-    CL-42034  33.121  19.726   0.314
78278CL-    CL-42035  24.139  30.106   1.849
78279CL-    CL-42036   3.760  32.082   4.624
78280CL-    CL-42037  25.096  34.551  10.553
78281CL-    CL-42038  28.543  22.038   2.752
78282CL-    CL-42039  27.486  32.124   1.393
78283CL-    CL-42040  32.620   1.946   4.275
78284CL-    CL-42041   6.401  31.942   4.608
78285CL-    CL-42042   3.312  16.164  11.912
78286CL-    CL-42043  44.346  11.773   2.759
78287CL-    CL-42044  40.448  44.288   4.324
78288CL-    CL-42045   1.257  11.252   0.326
78289CL-    CL-42046  29.575  30.478  13.059
78290CL-    CL-42047   3.738  12.627  14.343
78291CL-    CL-42048  11.293  39.460   0.846
78292CL-    CL-42049   2.446  40.544  14.294
78293CL-    CL-42050  11.746  20.549   2.760
78294CL-    CL-42051  14.596  11.799   2.899
78295CL-    CL-42052  15.190  25.469  11.897
78296CL-    CL-42053  13.346  26.970  10.891
78297CL-    CL-42054  27.487   0.378  14.777
78298CL-    CL-42055  28.565  11.171  14.383
78299CL-    CL-42056  27.469  31.629  11.518
78300CL-    CL-42057  21.090  16.247  11.412
78301CL-    CL-42058  13.685  31.976  13.317
78302CL-    CL-42059  32.939  38.858   2.381
78303CL-    CL-42060   5.914   0.985   1.325
78304CL-    CL-42061  33.421  24.652   4.323
78305CL-    CL-42062  17.197  41.867  12.888
78306CL-    CL-42063  38.832  38.875   3.263
78307CL-    CL-42064  35.480  13.762  13.039
78308CL-    CL-42065  27.144  30.516   0.439
78309CL-    CL-42066  23.135  23.593  11.958
78310CL-    CL-42067  26.533  12.212   5.154
78311CL-    CL-42068  34.872  11.723  12.002
78312CL-    CL-42069  21.066  42.429  12.911
78313CL-    CL-42070   4.210   6.845  11.521
78314CL-    CL-42071  34.968   4.844   3.748
78315CL-    CL-42072  30.129  11.363  14.842
78316CL-    CL-42073  28.991   1.827   4.709
78317CL-    CL-42074  26.468  35.051   3.147
78318CL-    CL-42075   2.892  31.561  11.021
78319CL-    CL-42076  33.465  31.611   3.746
78320CL-    CL-42077  29.997  33.555  12.484
78321CL-    CL-42078  19.774  21.598   2.867
78322CL-    CL-42079  17.714  22.718  13.345
78323CL-    CL-42080  43.289  32.939   3.371
78324CL-    CL-42081   9.263  14.775  12.009
78325CL-    CL-42082  26.463  39.923  10.535
78326CL-    CL-42083  13.276  41.483  12.080
78327CL-    CL-42084  26.501  16.169  11.883
78328CL-    CL-42085  19.582   2.262  13.822
78329CL-    CL-42086  27.622   7.829   4.736
78330CL-    CL-42087  23.139  33.037  11.940
78331CL-    CL-42088  20.657   0.755  11.936
78332CL-    CL-42089  34.501  25.142   2.857
78333CL-    CL-42090  12.234  32.892   4.677
78334CL-    CL-42091  25.603  18.050   1.903
78335CL-    CL-42092  26.105  16.664   3.332
78336CL-    CL-42093  29.112  17.723  10.639
78337CL-    CL-42094  19.194  22.066  13.842
78338CL-    CL-42095  22.702  31.898   4.184
78339CL-    CL-42096   0.769  38.057  14.934
78340CL-    CL-42097  29.650  20.197  10.467
78341CL-    CL-42098  30.611  31.036  10.900
78342CL-    CL-42099  36.915  35.438  14.855
78343CL-    CL-42100  20.074   9.304  11.032
78344CL-    CL-42101  32.974  10.854   4.331
78345CL-    CL-42102  23.489  29.918  10.953
78346CL-    CL-42103  17.778  10.258   5.226
78347CL-    CL-42104   0.269  43.903  12.991
78348CL-    CL-42105  30.594  32.026   4.819
78349CL-    CL-42106  28.653   8.723  12.881
78350CL-    CL-42107  41.947  44.323  13.451
78351CL-    CL-42108  40.037   0.893   2.282
78352CL-    CL-42109  22.243  36.024   3.241
78353CL-    CL-42110  35.096  41.325  11.460
78354CL-    CL-42111  15.287  27.183  11.100
78355CL-    CL-42112  39.048  26.554   0.823
78356CL-    CL-42113  24.013   3.424  13.310
78357CL-    CL-42114  20.269  28.134   2.677
78358CL-    CL-42115  32.986   7.732   0.926
78359CL-    CL-42116   0.980   1.958  12.445
78360CL-    CL-42117  27.943  27.555   1.441
78361CL-    CL-42118  22.618  31.945   4.764
78362CL-    CL-42119  22.562  17.634  14.469
78363CL-    CL-42120  30.958  42.478  12.905
78364CL-    CL-42121  10.756  26.962   0.447
78365CL-    CL-42122   8.733   2.926   0.896
78366CL-    CL-42123   6.696  24.172  13.957
78367CL-    CL-42124  30.491  42.325   4.208
78368CL-    CL-42125  27.998  26.017   1.727
78369CL-    CL-42126  42.853  43.764   1.762
78370CL-    CL-42127  26.665  35.395  13.837
78371CL-    CL-42128  28.041  43.858  14.007
78372CL-    CL-42129   1.759  32.604   2.884
78373CL-    CL-42130   3.757  26.677   0.432
78374CL-    CL-42131   4.304  26.963   0.332
78375CL-    CL-42132  44.493  25.087   0.318
78376CL-    CL-42133   1.889  39.494  14.830
78377CL-    CL-42134   3.780   2.419   0.278
78378CL-    CL-42135   9.843  28.081   4.199
78379CL-    CL-42136  22.094  27.125  11.899
78380CL-    CL-42137   1.770   7.380   2.725
78381CL-    CL-42138   3.295  36.476   5.185
78382CL-    CL-42139  34.010  11.761  10.598
78383CL-    CL-42140   4.304  21.743   0.839
78384CL-    CL-42141  17.232  13.670  13.977
78385CL-    CL-42142  37.961  30.101   1.364
78386CL-    CL-42143  18.060  38.850   0.270
78387CL-    CL-42144  13.788  39.552   2.901
78388CL-    CL-42145  12.238  29.425  10.492
78389CL-    CL-42146   4.353  36.955  13.944
78390CL-    CL-42147  24.518  36.871   3.266
78391CL-    CL-42148  28.028  44.443   0.891
78392CL-    CL-42149  40.539  15.260  14.425
78393CL-    CL-42150   9.376  31.996   1.400
78394CL-    CL-42151  40.448  42.831  11.506
78395CL-    CL-42152  39.047   9.820  11.518
78396CL-    CL-42153  10.788   1.397  14.929
78397CL-    CL-42154   1.901  42.399  10.964
78398CL-    CL-42155   8.815  33.463   3.303
78399CL-    CL-42156  29.476   9.291   3.324
78400CL-    CL-42157  27.686  21.232  14.338
78401CL-    CL-42158  24.542  18.621  13.848
78402CL-    CL-42159  34.004  12.818  13.488
78403CL-    CL-42160  28.158  32.950  12.438
78404CL-    CL-42161  21.034  24.543  11.037
78405CL-    CL-42162  37.411   8.307   2.811
78406CL-    CL-42163  10.197  25.028  13.850
78407CL-    CL-42164  15.627  41.826   4.768
78408CL-    CL-42165   1.738  35.102  14.304
78409CL-    CL-42166  35.479  16.632   4.731
78410CL-    CL-42167  33.476  25.126  10.638
78411CL-    CL-42168  11.217  26.988  10.436
78412CL-    CL-42169  35.062  27.605   3.189
78413CL-    CL-42170   0.883  31.006   0.309
78414CL-    CL-42171   1.342   6.812  10.434
78415CL-    CL-42172  18.570  38.503  13.509
78416CL-    CL-42173  10.193   2.806   4.778
78417CL-    CL-42174  35.109  15.189   2.391
78418CL-    CL-42175  44.428  21.113   5.087
78419CL-    CL-42176  17.580  25.046   3.273
78420CL-    CL-42177  22.581  37.481  14.899
78421CL-    CL-42178  23.492  11.855   0.409
78422CL-    CL-42179  40.001  22.578  13.033
78423CL-    CL-42180  33.593  43.933   0.910
78424CL-    CL-42181   2.957  38.850   3.219
78425CL-    CL-42182  33.594  36.925   0.258
78426CL-    CL-42183  37.574   2.419   3.800
78427CL-    CL-42184   6.815  11.816   1.218
78428CL-    CL-42185   4.807  16.212  11.399
78429CL-    CL-42186  18.694  22.638  13.863
78430CL-    CL-42187  39.933  21.073   2.728
78431CL-    CL-42188  43.469   8.829  10.069
78432CL-    CL-42189  24.010  12.217   4.752
78433CL-    CL-42190  33.899  19.263   2.213
78434CL-    CL-42191   2.294  18.131   2.871
78435CL-    CL-42192  26.667   0.770  11.106
78436CL-    CL-42193  22.198  22.131  14.471
78437CL-    CL-42194  28.982  43.292   2.200
78438CL-    CL-42195  11.654  24.721  14.347
78439CL-    CL-42196  32.942  27.561  14.443
78440CL-    CL-42197   6.345   2.390   1.698
78441CL-    CL-42198  23.497   7.778   2.297
78442CL-    CL-42199  35.998   0.472   2.731
78443CL-    CL-42200  28.939  12.218  11.478
78444CL-    CL-42201  17.168  12.796   5.209
78445CL-    CL-42202  10.239  31.935  12.506
78446CL-    CL-42203  38.870  27.534  11.958
78447CL-    CL-42204  39.325  35.909   1.342
78448CL-    CL-42205  18.086  23.580   3.189
78449CL-    CL-42206  30.936   5.245  10.924
78450CL-    CL-42207  33.953  14.717   3.827
78451CL-    CL-42208  18.271  19.652   3.304
78452CL-    CL-42209  35.921  34.429  11.869
78453CL-    CL-42210  39.391  29.666   0.456
78454CL-    CL-42211  13.723   3.300  14.898
78455CL-    CL-42212  10.796  34.893   3.281
78456CL-    CL-42213   6.428  11.357  11.476
78457CL-    CL-42214  13.271  20.639  10.972
78458CL-    CL-42215  36.070   5.836   4.245
78459CL-    CL-42216  33.031   6.269  13.494
78460CL-    CL-42217  19.209  11.227   4.208
78461CL-    CL-42218   8.348  25.208  12.495
78462CL-    CL-42219  31.578   5.720   2.827
78463CL-    CL-42220   7.248  44.363   4.679
78464CL-    CL-42221  11.190  44.940   2.294
78465CL-    CL-42222  44.435  42.287   2.193
78466CL-    CL-42223  27.634   7.827   1.281
78467CL-    CL-42224  31.003  36.524   4.279
78468CL-    CL-42225  19.682  43.889  12.932
78469CL-    CL-42226  11.692  14.271   1.868
78470CL-    CL-42227  13.285  11.683   4.795
78471CL-    CL-42228  38.402   1.306   5.089
78472CL-    CL-42229  33.912   6.340   1.352
78473CL-    CL-42230  20.206  43.906  14.438
78474CL-    CL-42231  21.589  32.489   9.956
78475CL-    CL-42232  29.486  14.599   3.174
78476CL-    CL-42233  33.575  11.252  13.495
78477CL-    CL-42234  19.669  23.578   0.885
78478CL-    CL-42235   5.850  32.554  13.941
78479CL-    CL-42236  28.679  33.893  13.791
78480CL-    CL-42237  24.072  40.458  14.399
78481CL-    CL-42238  15.254  12.287   2.191
78482CL-    CL-42239  10.248  40.034  13.940
78483CL-    CL-42240  33.063  22.125   2.703
78484CL-    CL-42241  34.965  43.838   3.835
78485CL-    CL-42242   8.373   8.719  12.377
78486CL-    CL-42243  44.806  44.346   4.351
78487CL-    CL-42244  30.957   5.205   4.336
78488CL-    CL-42245  10.298   1.859   1.736
78489CL-    CL-42246  11.737   2.382   2.276
78490CL-    CL-42247  37.369  14.639  10.422
78491CL-    CL-42248   6.816  24.557   1.309
78492CL-    CL-42249  26.592  34.369   1.721
78493CL-    CL-42250  16.764  20.220   4.825
78494CL-    CL-42251  14.114  36.586  13.909
78495CL-    CL-42252   2.740  40.040  12.479
78496CL-    CL-42253  44.320  25.616   1.886
78497CL-    CL-42254   6.337  10.250   1.767
78498CL-    CL-42255  14.694   2.256   4.748
78499CL-    CL-42256  42.390  19.707  12.421
78500CL-    CL-42257   3.239  21.680   3.231
78501CL-    CL-42258  42.457  35.526   4.782
78502CL-    CL-42259  27.061  21.633  13.888
78503CL-    CL-42260  11.642   8.697  11.019
78504CL-    CL-42261  34.993   1.805   1.234
78505CL-    CL-42262   8.681  42.416   1.759
78506CL-    CL-42263  38.479  37.445   1.295
78507CL-    CL-42264  36.953  36.426  11.924
78508CL-    CL-42265  29.648  30.098  13.811
78509CL-    CL-42266  24.216  38.464  13.033
78510CL-    CL-42267  24.023  36.007   0.248
78511CL-    CL-42268  35.395  42.994   3.838
78512CL-    CL-42269  21.191  22.131   4.652
78513CL-    CL-42270  13.759   1.260   3.365
78514CL-    CL-42271  34.541   2.315  10.553
78515CL-    CL-42272  11.660  34.602   2.394
78516CL-    CL-42273  43.981  10.205  11.443
78517CL-    CL-42274  23.109   7.292   4.247
78518CL-    CL-42275  23.118  37.527   4.669
78519CL-    CL-42276  43.943  41.458  14.006
78520CL-    CL-42277  20.523  26.117   4.677
78521CL-    CL-42278   1.402  31.512   2.241
78522CL-    CL-42279  18.648  28.075  14.477
78523CL-    CL-42280   0.935  37.940  12.997
78524CL-    CL-42281   2.306   7.213   3.867
78525CL-    CL-42282  21.154  36.014  10.535
78526CL-    CL-42283  29.024  37.388  10.432
78527CL-    CL-42284  13.634   9.161   3.332
78528CL-    CL-42285  31.521  28.182  12.891
78529CL-    CL-42286  38.409  10.739   4.235
78530CL-    CL-42287   2.388  42.932   2.706
78531CL-    CL-42288   9.806   1.789   4.803
78532CL-    CL-42289  16.140  12.266  13.381
78533CL-    CL-42290   5.855  18.734  14.762
78534CL-    CL-42291   2.425  35.519  12.398
78535CL-    CL-42292  22.106  20.194   3.375
78536CL-    CL-42293   3.300  32.970  10.999
78537CL-    CL-42294  29.996  32.632  13.536
78538CL-    CL-42295  36.922  31.071   3.735
78539CL-    CL-42296  14.181  27.075  10.485
78540CL-    CL-42297  37.579  31.977   0.265
78541CL-    CL-42298  28.105  34.561  11.433
78542CL-    CL-42299   6.763  13.686   0.891
78543CL-    CL-42300  44.300  28.640   4.317
78544CL-    CL-42301   8.868  27.520  12.048
78545CL-    CL-42302  16.745   6.816  11.494
78546CL-    CL-42303  24.515  22.597   4.700
78547CL-    CL-42304  36.996  16.075  14.774
78548CL-    CL-42305  18.694  33.062   4.810
78549CL-    CL-42306  37.514  40.353  13.521
78550CL-    CL-42307  33.461  20.181  13.498
78551CL-    CL-42308  12.217   2.429  13.937
78552CL-    CL-42309   5.745  14.237  13.445
78553CL-    CL-42310  42.484  37.934   4.662
78554CL-    CL-42311  27.655  17.774  12.951
78555CL-    CL-42312   1.410  12.270   1.857
78556CL-    CL-42313  42.307   9.176   3.805
78557CL-    CL-42314  17.304  11.247   3.823
78558CL-    CL-42315  25.989  19.135   1.751
78559CL-    CL-42316  20.635  25.175   3.750
78560CL-    CL-42317  42.843   1.755  12.480
78561CL-    CL-42318   8.788  23.634  10.595
78562CL-    CL-42319  10.200  40.019   0.364
78563CL-    CL-42320   6.766  21.577  10.538
78564CL-    CL-42321  41.339  14.249  13.454
78565CL-    CL-42322  24.697  40.939   4.603
78566CL-    CL-42323  23.701  26.957   4.177
78567CL-    CL-42324  24.018  26.487  10.540
78568CL-    CL-42325  29.661  21.046   2.819
78569CL-    CL-42326  27.518  32.557   1.851
78570CL-    CL-42327  32.454  41.806  13.016
78571CL-    CL-42328  43.454  28.615  14.988
78572CL-    CL-42329   0.432   2.766   0.753
78573CL-    CL-42330   1.343  15.088  14.974
78574CL-    CL-42331   7.355  41.789  12.084
78575CL-    CL-42332  29.989  12.299   3.173
78576CL-    CL-42333   3.266   7.350   0.961
78577CL-    CL-42334  10.173  26.086   4.673
78578CL-    CL-42335  20.563  32.119   2.327
78579CL-    CL-42336  37.384  32.547  14.314
78580CL-    CL-42337  30.060  17.240  14.799
78581CL-    CL-42338  16.612  13.709   4.170
78582CL-    CL-42339  40.307  29.427  11.540
78583CL-    CL-42340   8.262  34.608  11.028
78584CL-    CL-42341  35.092  26.995   0.885
78585CL-    CL-42342  25.494  32.036   4.713
78586CL-    CL-42343   1.900  40.904   4.823
78587CL-    CL-42344   9.650   7.703  12.918
78588CL-    CL-42345  42.794  23.987   5.288
78589CL-    CL-42346  40.429  44.938  10.474
78590CL-    CL-42347   1.858  36.861   4.782
78591CL-    CL-42348  16.182  16.318  13.355
78592CL-    CL-42349  33.100  11.189   1.825
78593CL-    CL-42350  21.033  43.827   2.705
78594CL-    CL-42351  24.170  26.570   3.276
78595CL-    CL-42352   6.329  43.409   5.203
78596CL-    CL-42353   1.790  28.965  10.952
78597CL-    CL-42354  39.841   9.379   0.945
78598CL-    CL-42355  31.929  37.579   4.716
78599CL-    CL-42356   4.328  32.430  14.883
78600CL-    CL-42357  34.026  16.655  11.029
78601CL-    CL-42358   6.802   9.248   2.276
78602CL-    CL-42359  13.131  20.031   0.902
78603CL-    CL-42360  22.243  31.983  13.017
78604CL-    CL-42361  20.260  23.223   0.470
78605CL-    CL-42362  21.726  18.223   3.277
78606CL-    CL-42363   5.212  38.417   0.858
78607CL-    CL-42364  31.492  44.364  11.467
78608CL-    CL-42365  14.129  34.487   3.662
78609CL-    CL-42366  32.571  30.067  14.440
78610CL-    CL-42367   1.254   5.259  13.376
78611CL-    CL-42368   8.693   2.760   4.674
78612CL-    CL-42369  26.952  15.774   3.820
78613CL-    CL-42370  39.026  19.570  11.944
78614CL-    CL-42371   0.428   7.700  14.869
78615CL-    CL-42372   5.276  20.163  12.422
78616CL-    CL-42373  41.293  17.566  14.863
78617CL-    CL-42374   5.351  32.094   2.232
78618CL-    CL-42375  16.287   8.782   2.386
78619CL-    CL-42376  13.672   6.400   2.217
78620CL-    CL-42377  24.559  26.576   9.948
78621CL-    CL-42378  21.617   9.859  10.988
78622CL-    CL-42379  17.172  35.872  11.399
78623CL-    CL-42380  24.491  33.911  11.120
78624CL-    CL-42381  33.960   2.778   2.402
78625CL-    CL-42382  31.940  12.649  13.792
78626CL-    CL-42383  13.799  21.735   0.957
78627CL-    CL-42384  42.917  39.408  10.626
78628CL-    CL-42385   2.304   5.235   4.666
78629CL-    CL-42386  19.106  40.050  14.386
78630CL-    CL-42387  12.133  23.670  11.978
78631CL-    CL-42388   1.876  39.956   3.332
78632CL-    CL-42389  31.458  16.206  12.501
78633CL-    CL-42390  14.319  32.932  14.973
78634CL-    CL-42391  41.941  21.248  13.543
78635CL-    CL-42392  18.276  27.084   0.395
78636CL-    CL-42393  30.526  35.074   5.304
78637CL-    CL-42394  36.941   8.176  11.571
78638CL-    CL-42395   9.859  22.247  13.462
78639CL-    CL-42396  14.781  22.092  14.970
78640CL-    CL-42397  14.155  10.204   5.194
78641CL-    CL-42398   8.261  23.078   3.870
78642CL-    CL-42399  11.843  44.776  13.454
78643CL-    CL-42400  15.763  21.521   0.841
78644CL-    CL-42401  15.289   4.858   0.893
78645CL-    CL-42402   0.912  30.640   0.466
78646CL-    CL-42403  27.599  10.643   3.345
78647CL-    CL-42404  27.463  37.047   4.280
78648CL-    CL-42405   8.180  17.152   3.792
78649CL-    CL-42406   5.688  10.677  14.776
78650CL-    CL-42407  16.771  44.382  12.380
78651CL-    CL-42408   3.745  41.006   1.293
78652CL-    CL-42409  25.546  20.566   0.944
78653CL-    CL-42410  18.068  13.769   4.176
78654CL-    CL-42411  38.049  26.092  11.931
78655CL-    CL-42412   2.860   2.721  12.460
78656CL-    CL-42413  26.476  13.188  12.936
78657CL-    CL-42414  25.684  41.860  14.804
78658CL-    CL-42415  36.093  29.608   2.772
78659CL-    CL-42416   2.368  12.678   0.407
78660CL-    CL-42417  14.176  30.490   4.717
78661CL-    CL-42418  38.437  16.203   1.819
78662CL-    CL-42419  42.817  20.263   3.818
78663CL-    CL-42420  37.875  40.365   1.875
78664CL-    CL-42421  37.056  39.397  13.459
78665CL-    CL-42422   8.671  29.921   1.350
78666CL-    CL-42423  42.976  12.776  13.955
78667CL-    CL-42424  13.773  19.142  12.422
78668CL-    CL-42425  10.273   3.850  10.976
78669CL-    CL-42426  20.660  19.644  12.041
78670CL-    CL-42427   7.697  15.145   4.765
78671CL-    CL-42428  18.271  40.985  14.788
78672CL-    CL-42429  25.976  16.183  13.359
78673CL-    CL-42430  39.384   1.341  11.394
78674CL-    CL-42431  38.561   8.378   2.666
78675CL-    CL-42432   0.918  15.159   2.871
78676CL-    CL-42433   0.316  19.062   3.802
78677CL-    CL-42434  15.789  32.061  12.022
78678CL-    CL-42435   9.229  30.943   3.849
78679CL-    CL-42436  33.543  31.505  13.947
78680CL-    CL-42437  38.851  10.642  14.475
78681CL-    CL-42438  24.120  41.371  11.592
78682CL-    CL-42439  37.534   0.350   2.245
78683CL-    CL-42440   5.778  13.148   3.862
78684CL-    CL-42441  22.745  30.133   2.798
78685CL-    CL-42442   7.262  43.858   3.842
78686CL-    CL-42443  27.459  11.144  10.983
78687CL-    CL-42444   4.808  33.987  14.289
78688CL-    CL-42445  44.955  27.973  12.058
78689CL-    CL-42446  34.936  32.392  13.432
78690CL-    CL-42447  26.040  15.594   5.304
78691CL-    CL-42448  37.887  26.663  10.127
78692CL-    CL-42449  29.151  34.910   4.816
78693CL-    CL-42450   9.728  27.688  13.505
78694CL-    CL-42451  39.926  43.508  14.393
78695CL-    CL-42452  27.111  13.335   4.174
78696CL-    CL-42453  39.393  18.652   4.253
78697CL-    CL-42454  44.467  41.015  11.101
78698CL-    CL-42455  30.955   8.376  13.873
78699CL-    CL-42456  23.659  32.094  11.384
78700CL-    CL-42457  34.471  12.817  12.440
78701CL-    CL-42458  40.490  20.124  10.992
78702CL-    CL-42459  18.151  44.352   1.372
78703CL-    CL-42460  32.459  37.542   4.828
78704CL-    CL-42461  31.640  30.015  12.858
78705CL-    CL-42462  37.867   1.327  12.901
78706CL-    CL-42463   7.688  13.732   4.233
78707CL-    CL-42464  10.799  17.775   1.443
78708CL-    CL-42465  44.905  30.149  11.027
78709CL-    CL-42466  41.352   7.681   2.893
78710CL-    CL-42467  44.963  40.927   3.863
78711CL-    CL-42468   1.801  38.856  11.533
78712CL-    CL-42469  26.558  26.653   3.742
78713CL-    CL-42470   0.910  20.712   3.702
78714CL-    CL-42471  40.402  23.688   2.213
78715CL-    CL-42472  34.937  35.067  11.477
78716CL-    CL-42473  44.954  10.676   4.280
78717CL-    CL-42474   9.334  12.139   1.443
78718CL-    CL-42475   9.273  16.099  13.048
78719CL-    CL-42476   5.233  27.986  12.470
78720CL-    CL-42477  20.607   9.250  10.507
78721CL-    CL-42478  30.036  27.068  11.465
78722CL-    CL-42479   0.882  29.085   0.387
78723CL-    CL-42480  17.137  41.509   2.681
78724CL-    CL-42481  30.479  10.653   3.187
78725CL-    CL-42482   1.915  23.189   3.370
78726CL-    CL-42483  34.541  23.694  13.822
78727CL-    CL-42484  43.479   7.845   4.818
78728CL-    CL-42485  19.550  25.964  14.006
78729CL-    CL-42486  39.464  24.184   0.370
78730CL-    CL-42487   4.727  40.904  11.951
78731CL-    CL-42488  24.987  31.109  11.426
78732CL-    CL-42489  34.019  36.428   2.668
78733CL-    CL-42490  42.985  29.993   0.389
78734CL-    CL-42491   5.785  42.446  14.456
78735CL-    CL-42492  19.585  28.162  11.040
78736CL-    CL-42493  22.685  18.553  12.042
78737CL-    CL-42494  33.532  12.788   3.829
78738CL-    CL-42495   3.290  41.894  12.984
78739CL-    CL-42496  19.678   6.291   0.441
78740CL-    CL-42497  36.050  39.486   4.183
78741CL-    CL-42498  22.037  21.511  11.448
78742CL-    CL-42499  34.931  14.778   0.297
78743CL-    CL-42500  41.951  31.434   2.379
78744CL-    CL-42501  11.128   7.784  10.639
78745CL-    CL-42502  11.657  20.154  10.505
78746CL-    CL-42503  27.660  17.719  10.450
78747CL-    CL-42504  26.971   9.751  11.975
78748CL-    CL-42505  38.055  40.399  14.866
78749CL-    CL-42506  40.832  30.514  10.594
78750CL-    CL-42507   7.362  35.985  14.972
78751CL-    CL-42508  16.677  35.582  14.024
78752CL-    CL-42509  31.625  25.533   2.856
78753CL-    CL-42510  41.530  24.176   4.687
78754CL-    CL-42511  33.547   4.746   0.742
78755CL-    CL-42512  14.299   1.880   2.817
78756CL-    CL-42513  12.693  39.369   3.372
78757CL-    CL-42514  37.013  18.764  14.939
78758CL-    CL-42515  13.333  30.656  13.834
78759CL-    CL-42516   1.410  40.844   2.866
78760CL-    CL-42517  14.601  21.607  12.988
78761CL-    CL-42518  22.564  19.578  14.443
78762CL-    CL-42519  43.499   7.844   2.861
78763CL-    CL-42520  20.682   0.321  14.487
78764CL-    CL-42521  44.431  39.556  11.391
78765CL-    CL-42522  12.308  27.560   4.701
78766CL-    CL-42523   2.726  32.596  13.344
78767CL-    CL-42524  14.334  17.170  14.012
78768CL-    CL-42525   1.366   7.358  11.494
78769CL-    CL-42526  25.488  42.299  11.055
78770CL-    CL-42527  14.161  17.777   1.404
78771CL-    CL-42528  44.005   8.852  13.394
78772CL-    CL-42529   6.861  37.568   3.695
78773CL-    CL-42530  31.646   2.820  10.617
78774CL-    CL-42531   4.802  18.747   4.613
78775CL-    CL-42532  13.666   2.366   2.733
78776CL-    CL-42533  38.948  20.243   2.738
78777CL-    CL-42534  38.490  23.513   4.644
78778CL-    CL-42535  35.385   1.399   4.742
78779CL-    CL-42536  22.008   1.918  11.029
78780CL-    CL-42537   2.309  23.601  14.509
78781CL-    CL-42538  41.347  13.281  12.898
78782CL-    CL-42539  31.051   1.248   3.326
78783CL-    CL-42540  38.534  43.817   3.318
78784CL-    CL-42541  44.346  27.136   1.279
78785CL-    CL-42542   7.884  15.769   1.724
78786CL-    CL-42543  33.526   6.346   2.371
78787CL-    CL-42544   0.968  29.559   2.205
78788CL-    CL-42545  37.902   4.386  10.567
78789CL-    CL-42546  11.665  37.029  13.509
78790CL-    CL-42547  44.320  29.098   0.893
78791CL-    CL-42548  34.563   9.792   1.337
78792CL-    CL-42549   4.418  22.163   1.407
78793CL-    CL-42550  30.621   6.210   4.344
78794CL-    CL-42551   0.390   3.932  14.006
78795CL-    CL-42552  13.195  17.243  13.353
78796CL-    CL-42553   2.451  39.870  14.506
78797CL-    CL-42554  34.564   8.188  12.885
78798CL-    CL-42555  20.169  40.799   0.865
78799CL-    CL-42556   6.894  24.025  12.035
78800CL-    CL-42557   6.231  44.886  12.891
78801CL-    CL-42558   2.847   0.767  11.958
78802CL-    CL-42559  13.110  44.935  14.849
78803CL-    CL-42560   3.830   2.946  14.293
78804CL-    CL-42561  26.682  33.454  14.513
78805CL-    CL-42562  37.428  40.503  11.545
78806CL-    CL-42563  42.421  30.149   3.276
78807CL-    CL-42564  18.167  32.610   3.772
78808CL-    CL-42565   2.405  44.448  11.008
78809CL-    CL-42566  26.062  18.616  11.052
78810CL-    CL-42567  44.405  38.350   4.647
78811CL-    CL-42568  29.559   1.346  10.508
78812CL-    CL-42569  31.090  38.494  12.388
78813CL-    CL-42570  37.375  43.902  13.366
78814CL-    CL-42571   8.705  41.315  11.484
78815CL-    CL-42572  31.940  12.716  14.941
78816CL-    CL-42573  41.820   5.844  14.427
78817CL-    CL-42574  37.450   6.310   2.738
78818CL-    CL-42575  35.950  11.757   4.712
78819CL-    CL-42576   7.223   7.699   3.231
78820CL-    CL-42577  42.015  30.030  14.766
78821CL-    CL-42578  14.271  33.974   2.722
78822CL-    CL-42579  32.459  13.183  12.484
78823CL-    CL-42580  24.723  32.409  10.432
78824CL-    CL-42581  24.164  12.287  14.456
78825CL-    CL-42582  12.621  44.963   3.228
78826CL-    CL-42583  30.516  36.367  14.778
78827CL-    CL-42584  43.929  38.537   1.790
78828CL-    CL-42585  35.418  14.299  14.445
78829CL-    CL-42586  40.506  12.644  13.538
78830CL-    CL-42587  36.069  31.990  12.063
78831CL-    CL-42588  38.474  33.106   2.179
78832CL-    CL-42589  24.213  23.558   3.841
78833CL-    CL-42590   0.799  33.932   1.434
78834CL-    CL-42591  35.574   7.341  13.895
78835CL-    CL-42592   9.188   2.375   1.437
78836CL-    CL-42593   2.943  22.032   3.193
78837CL-    CL-42594  30.559  24.523   3.823
78838CL-    CL-42595  17.176  15.253   1.934
78839CL-    CL-42596  33.381   3.363   0.894
78840CL-    CL-42597  32.575  29.088   4.176
78841CL-    CL-42598  18.743  26.574   3.273
78842CL-    CL-42599  36.987   3.277  11.454
78843CL-    CL-42600  29.119  30.505   4.743
78844CL-    CL-42601  27.597   2.314   0.925
78845CL-    CL-42602   4.891  35.540   1.343
78846CL-    CL-42603  42.824  30.026   1.260
78847CL-    CL-42604  12.813  28.946  10.484
78848CL-    CL-42605  20.594  12.139  12.998
78849CL-    CL-42606  31.409  17.621   2.217
78850CL-    CL-42607  41.810  39.487   2.184
78851CL-    CL-42608  12.124  22.169  11.123
78852CL-    CL-42609  26.065   5.195   3.743
78853CL-    CL-42610  27.074  40.483  13.402
78854CL-    CL-42611  22.186  18.166   1.833
78855CL-    CL-42612  14.147  24.099  12.940
78856CL-    CL-42613  19.082  32.938   0.813
78857CL-    CL-42614  23.104  32.910  12.405
78858CL-    CL-42615  37.401  30.473  10.562
78859CL-    CL-42616  41.928   5.697   1.277
78860CL-    CL-42617   2.890  13.312  12.486
78861CL-    CL-42618  42.919   9.669  14.982
78862CL-    CL-42619  43.832  17.560  13.394
78863CL-    CL-42620   0.837   4.827  13.872
78864CL-    CL-42621  17.250  17.606   4.181
78865CL-    CL-42622   8.762  21.157  13.998
78866CL-    CL-42623  20.694  26.665   0.429
78867CL-    CL-42624  11.270  31.081  12.983
78868CL-    CL-42625  28.067   9.215  10.039
78869CL-    CL-42626  24.490  40.847  11.397
78870CL-    CL-42627   8.264  12.244   3.219
78871CL-    CL-42628  27.527  10.379  14.373
78872CL-    CL-42629  11.732   4.296  13.887
78873CL-    CL-42630  38.873  35.413   1.823
78874CL-    CL-42631  10.176  31.985   4.611
78875CL-    CL-42632  43.311  12.137   4.315
78876CL-    CL-42633  15.695   0.788   3.793
78877CL-    CL-42634  36.066  26.979  13.042
78878CL-    CL-42635  38.003  36.023   4.748
78879CL-    CL-42636  31.426  31.982  11.070
78880CL-    CL-42637  33.028   8.326   0.252
78881CL-    CL-42638  42.472   5.911  14.393
78882CL-    CL-42639  18.279   2.304   0.785
78883CL-    CL-42640  39.432  22.700   1.438
78884CL-    CL-42641  11.826  41.365   4.269
78885CL-    CL-42642   7.903  23.224  12.385
78886CL-    CL-42643  33.918   3.341  12.013
78887CL-    CL-42644  36.029  38.916  11.102
78888CL-    CL-42645  24.655  14.694  13.478
78889CL-    CL-42646  24.038  39.545  11.047
78890CL-    CL-42647  31.523   8.726  13.326
78891CL-    CL-42648  34.021   9.272  13.050
78892CL-    CL-42649  22.580  36.549   0.385
78893CL-    CL-42650  40.826   5.278   4.238
78894CL-    CL-42651  25.674  35.020  10.984
78895CL-    CL-42652   0.804  30.467  11.563
78896CL-    CL-42653  34.575   9.188  14.359
78897CL-    CL-42654  22.015  26.202  10.973
78898CL-    CL-42655  34.923  31.520   1.230
78899CL-    CL-42656  26.627  36.458   4.136
78900CL-    CL-42657  26.137  41.537  12.828
78901CL-    CL-42658  33.890  10.683  13.408
78902CL-    CL-42659  36.388   0.746   5.260
78903CL-    CL-42660  44.964   5.200   0.776
78904CL-    CL-42661  30.919  29.128  13.347
78905CL-    CL-42662  34.533  14.821  10.903
78906CL-    CL-42663  14.267  35.590  14.448
78907CL-    CL-42664  31.012  21.616   0.344
78908CL-    CL-42665  13.811   6.883  10.439
78909CL-    CL-42666  25.204  10.673   4.340
78910CL-    CL-42667   6.877   2.303   0.948
78911CL-    CL-42668   6.288  44.861  10.636
78912CL-    CL-42669   3.458  28.625   0.859
78913CL-    CL-42670  14.273  22.087  13.853
78914CL-    CL-42671  24.151  29.939   2.254
78915CL-    CL-42672  18.175  28.081  13.019
78916CL-    CL-42673  19.069  40.540  11.062
78917CL-    CL-42674  24.618   9.232  14.794
78918CL-    CL-42675  11.784   1.479   0.423
78919CL-    CL-42676  19.584   1.851   0.887
78920CL-    CL-42677  20.087  16.765   2.875
78921CL-    CL-42678  35.953  23.113   1.923
78922CL-    CL-42679  11.229  36.379   4.167
78923CL-    CL-42680   5.382   0.896  13.055
78924CL-    CL-42681  31.441  43.788   2.356
78925CL-    CL-42682  11.809   2.911  13.797
78926CL-    CL-42683  32.569  34.972   0.731
78927CL-    CL-42684   7.412   2.929  13.999
78928CL-    CL-42685  33.935   5.304  12.445
78929CL-    CL-42686  31.006  38.420  11.000
78930CL-    CL-42687   7.855   1.788  12.987
78931CL-    CL-42688  17.124  25.497   1.858
78932CL-    CL-42689  31.956  44.873   3.254
78933CL-    CL-42690  13.826  11.236   1.908
78934CL-    CL-42691  32.588  44.270   2.727
78935CL-    CL-42692  40.419  18.632   5.096
78936CL-    CL-42693  18.712  33.458   3.826
78937CL-    CL-42694  21.036  26.465   3.245
78938CL-    CL-42695  17.306  30.095   2.883
78939CL-    CL-42696  19.622  40.490   3.155
78940CL-    CL-42697   5.226   2.456  14.339
78941CL-    CL-42698   1.905  17.141  12.342
78942CL-    CL-42699  28.030  35.492   2.350
78943CL-    CL-42700  43.500  25.093  14.362
78944CL-    CL-42701  37.959   6.768   3.793
78945CL-    CL-42702  34.988   4.829   3.264
78946CL-    CL-42703  37.978  14.618   4.836
78947CL-    CL-42704  34.403  10.359  11.505
78948CL-    CL-42705   8.173   5.266   2.351
78949CL-    CL-42706  43.921  24.482  12.422
78950CL-    CL-42707   4.361  29.947   2.842
78951CL-    CL-42708  27.154  10.794   4.774
78952CL-    CL-42709  24.512  39.542  14.779
78953CL-    CL-42710  26.204  43.811   1.447
78954CL-    CL-42711  17.606  38.461   4.137
78955CL-    CL-42712   9.259   4.783  10.436
78956CL-    CL-42713  11.373  30.414  14.822
78957CL-    CL-42714  41.966  10.241   2.810
78958CL-    CL-42715  32.546  11.684  10.066
78959CL-    CL-42716  15.600  21.190   1.295
78960CL-    CL-42717  19.637   8.253  11.911
78961CL-    CL-42718   1.869  41.868  11.088
78962CL-    CL-42719  22.608  35.397  13.039
78963CL-    CL-42720   2.807  33.054   4.643
78964CL-    CL-42721  26.519  18.291  12.570
78965CL-    CL-42722   3.910   1.748  11.895
78966CL-    CL-42723  13.234   5.416   0.249
78967CL-    CL-42724  19.089  15.110   3.820
78968CL-    CL-42725   2.425  34.599  12.904
78969CL-    CL-42726   7.712  44.884   1.816
78970CL-    CL-42727  34.033  30.142   0.320
78971CL-    CL-42728  31.110  20.713   2.763
78972CL-    CL-42729  19.699  42.021   4.295
78973CL-    CL-42730  30.483  32.092  11.970
78974CL-    CL-42731  31.633   5.836  11.083
78975CL-    CL-42732  14.113  18.590   3.869
78976CL-    CL-42733  17.100   2.854   4.144
78977CL-    CL-42734  40.925  12.628  13.806
78978CL-    CL-42735  17.235  22.652   2.821
78979CL-    CL-42736  22.078   0.825  12.998
78980CL-    CL-42737  42.328  38.510  13.969
78981CL-    CL-42738  18.162  26.609  11.610
78982CL-    CL-42739  16.160  32.461   3.647
78983CL-    CL-42740  24.095   8.670   4.198
78984CL-    CL-42741  11.202  21.217   4.632
78985CL-    CL-42742  43.372   9.643  14.424
78986CL-    CL-42743  42.796  10.232  12.399
78987CL-    CL-42744  29.037  34.372   2.215
78988CL-    CL-42745   4.310   9.863   0.751
78989CL-    CL-42746   5.197  31.005  13.978
78990CL-    CL-42747  29.482  20.735   2.828
78991CL-    CL-42748  21.581  19.058   4.790
78992CL-    CL-42749  44.814  37.561  11.548
78993CL-    CL-42750  14.770  28.106  11.920
78994CL-    CL-42751  44.298  12.731   0.314
78995CL-    CL-42752  33.054  13.773   2.299
78996CL-    CL-42753   6.227   8.347   2.794
78997CL-    CL-42754  31.938  12.756  12.986
78998CL-    CL-42755  26.131  43.398   1.758
78999CL-    CL-42756  34.036  15.692  12.418
79000CL-    CL-42757  13.796  22.032  14.964
79001CL-    CL-42758   2.275  42.813   1.265
79002CL-    CL-42759   1.316  42.385   3.378
79003CL-    CL-42760  13.117  39.815  10.638
79004CL-    CL-42761   8.323  33.883  13.389
79005CL-    CL-42762  14.736  13.631  11.495
79006CL-    CL-42763   2.366   3.302  10.409
79007CL-    CL-42764  23.564  25.078   9.567
79008CL-    CL-42765  32.074   6.679   2.245
79009CL-    CL-42766  38.055  19.047   4.702
79010CL-    CL-42767  31.441  14.724   4.176
79011CL-    CL-42768  25.095  39.006   3.631
79012CL-    CL-42769   7.806  42.285  11.513
79013CL-    CL-42770  14.158  40.471   1.370
79014CL-    CL-42771  19.545  41.463  10.012
79015CL-    CL-42772  37.500   4.933   1.333
79016CL-    CL-42773  36.540  26.590  12.826
79017CL-    CL-42774  25.061  23.564   1.906
79018CL-    CL-42775  14.287  12.207   3.284
79019CL-    CL-42776  14.758  41.940  13.376
79020CL-    CL-42777  31.635   0.434   2.897
79021CL-    CL-42778  15.669  32.552   0.406
79022CL-    CL-42779  28.514  21.653   3.667
79023CL-    CL-42780  23.640   9.863  13.832
79024CL-    CL-42781   8.688  33.968   0.757
79025CL-    CL-42782  32.528  14.793   4.320
79026CL-    CL-42783  26.132   4.772   0.262
79027CL-    CL-42784  25.589  25.163   4.810
79028CL-    CL-42785  20.546  24.230   3.207
79029CL-    CL-42786   7.812  22.030  11.997
79030CL-    CL-42787  26.605  12.344   2.823
79031CL-    CL-42788  10.157  32.506   0.859
79032CL-    CL-42789  12.847  20.075  10.550
79033CL-    CL-42790  26.575  23.048   0.362
79034CL-    CL-42791  19.046  41.901   0.891
79035CL-    CL-42792  34.608  28.162  14.412
79036CL-    CL-42793   0.332  43.298  11.053
79037CL-    CL-42794  38.056  40.894   2.383
79038CL-    CL-42795  39.326  22.207   2.762
79039CL-    CL-42796  15.808  15.169   2.882
79040CL-    CL-42797  14.243   3.416   4.310
79041CL-    CL-42798  33.448   7.333   4.309
79042CL-    CL-42799  32.577   6.825   5.760
79043CL-    CL-42800  28.489   0.772  13.427
79044CL-    CL-42801   1.869  11.692   2.771
79045CL-    CL-42802   8.286  16.738  10.975
79046CL-    CL-42803   1.938   9.186  14.001
79047CL-    CL-42804  29.111   4.823  11.945
79048CL-    CL-42805  24.156   3.269   0.788
79049CL-    CL-42806  35.364  34.491   1.301
79050CL-    CL-42807  12.185  20.174   0.791
79051CL-    CL-42808  17.180  27.964  14.799
79052CL-    CL-42809  38.923  25.109   1.232
79053CL-    CL-42810  19.756  35.508   5.229
79054CL-    CL-42811  14.659  29.454  13.064
79055CL-    CL-42812   7.784  28.479   0.463
79056CL-    CL-42813  16.567  11.248  14.315
79057CL-    CL-42814   5.929  39.977   0.316
79058CL-    CL-42815  10.689  17.647  14.763
79059CL-    CL-42816  12.337  44.277  11.889
79060CL-    CL-42817  41.013  13.637  10.622
79061CL-    CL-42818  37.980  41.034   2.690
79062CL-    CL-42819  25.211   3.849   1.907
79063CL-    CL-42820  26.004  16.678   3.796
79064CL-    CL-42821  27.986   7.844   0.346
79065CL-    CL-42822  25.047   5.770   1.734
79066CL-    CL-42823  43.790  23.990  14.774
79067CL-    CL-42824  10.378  29.129  13.026
79068CL-    CL-42825  36.079  39.819   2.300
79069CL-    CL-42826  35.910  20.551   1.852
79070CL-    CL-42827  23.676  19.281   1.790
79071CL-    CL-42828  44.386  14.110  12.401
79072CL-    CL-42829  17.664   1.462  10.907
79073CL-    CL-42830   8.869   3.354  14.413
79074CL-    CL-42831  10.248  17.243   2.747
79075CL-    CL-42832  37.401   9.278  10.614
79076CL-    CL-42833  43.820  34.007   0.875
79077CL-    CL-42834  40.518  18.263   0.459
79078CL-    CL-42835  37.576  15.778   2.179
79079CL-    CL-42836  12.132  37.881  11.525
79080CL-    CL-42837  21.672  33.008  12.374
79081CL-    CL-42838  17.606  32.562   1.904
79082CL-    CL-42839  30.957   0.453  13.792
79083CL-    CL-42840  39.871   6.252   4.233
79084CL-    CL-42841   6.826   5.361   3.798
79085CL-    CL-42842  28.479   7.303   0.308
79086CL-    CL-42843   7.832   5.705   0.852
79087CL-    CL-42844   0.329  43.504  12.978
79088CL-    CL-42845  19.548  28.551   2.227
79089CL-    CL-42846  15.679  41.787  11.470
79090CL-    CL-42847   4.216  20.592   2.711
79091CL-    CL-42848  32.024  20.249   1.359
79092CL-    CL-42849  21.034  10.872   1.390
79093CL-    CL-42850   2.263   6.810   4.288
79094CL-    CL-42851  11.276  25.008  14.953
79095CL-    CL-42852  42.963   5.216  12.005
79096CL-    CL-42853  16.293  21.092  12.933
79097CL-    CL-42854  29.922  17.241  10.414
79098CL-    CL-42855  22.531  43.010   2.305
79099CL-    CL-42856  34.905  17.140  11.091
79100CL-    CL-42857  10.760  33.099  14.016
79101CL-    CL-42858   0.317  43.469   1.721
79102CL-    CL-42859  26.681   2.439   3.282
79103CL-    CL-42860   2.441  39.922  13.035
79104CL-    CL-42861   2.842   6.849   2.300
79105CL-    CL-42862  28.559  31.470  13.793
79106CL-    CL-42863  25.500   4.816  11.883
79107CL-    CL-42864  12.825  15.178   1.441
79108CL-    CL-42865  22.042  21.120   1.277
79109CL-    CL-42866  10.264  40.305  10.954
79110CL-    CL-42867  34.880   0.388  14.301
79111CL-    CL-42868   3.321   5.247   4.218
79112CL-    CL-42869  29.999  23.702  12.444
79113CL-    CL-42870  26.518  26.182   4.603
79114CL-    CL-42871  33.530  13.206   1.269
79115CL-    CL-42872   5.741  41.809   3.639
79116CL-    CL-42873   6.359  19.713   3.707
79117CL-    CL-42874   1.885  28.005  13.872
79118CL-    CL-42875  22.701  12.641  12.351
79119CL-    CL-42876  14.110   8.304   1.398
79120CL-    CL-42877  15.151  17.204  13.797
79121CL-    CL-42878   7.773  18.070   3.179
79122CL-    CL-42879  35.445   0.830   3.362
79123CL-    CL-42880  20.570  33.927  13.362
79124CL-    CL-42881  33.102  33.085   3.220
79125CL-    CL-42882  37.474  21.730  13.443
79126CL-    CL-42883  26.156   2.908   4.121
79127CL-    CL-42884  38.039  21.142  11.503
79128CL-    CL-42885  16.305  40.505  12.041
79129CL-    CL-42886  44.851  31.019   3.772
79130CL-    CL-42887  37.875   5.783   0.432
79131CL-    CL-42888  20.173   3.814  12.347
79132CL-    CL-42889  38.021  36.985   1.289
79133CL-    CL-42890   7.298  30.926   1.384
79134CL-    CL-42891  36.851  15.657  14.277
79135CL-    CL-42892   6.252  38.822   0.452
79136CL-    CL-42893   4.304  23.141  12.876
79137CL-    CL-42894  28.570  29.995  11.911
79138CL-    CL-42895  14.186   9.794   0.467
79139CL-    CL-42896  18.606  26.593   4.187
79140CL-    CL-42897  17.290  18.643   3.685
79141CL-    CL-42898  38.934  42.949   1.921
79142CL-    CL-42899  32.046  35.939   4.662
79143CL-    CL-42900  43.455  11.359   2.762
79144CL-    CL-42901  29.025   3.440   4.598
79145CL-    CL-42902  17.629  38.075  12.995
79146CL-    CL-42903  21.251  40.502   0.911
79147CL-    CL-42904  20.683  11.751   4.771
79148CL-    CL-42905  26.495   4.217   0.303
79149CL-    CL-42906  21.700  44.276  10.070
79150CL-    CL-42907  28.544   2.825  12.033
79151CL-    CL-42908  12.259  12.212  10.563
79152CL-    CL-42909  13.800  26.172   0.414
79153CL-    CL-42910   1.316  44.859   1.853
79154CL-    CL-42911  34.549  43.432   2.738
79155CL-    CL-42912  39.395  27.569   4.223
79156CL-    CL-42913  37.496  22.660  11.996
79157CL-    CL-42914  42.776  29.458   2.852
79158CL-    CL-42915  23.084  20.571   3.334
79159CL-    CL-42916  38.565  17.146   0.858
79160CL-    CL-42917  25.609  40.020   4.266
79161CL-    CL-42918  30.585  28.082   5.251
79162CL-    CL-42919  40.880   7.756  14.796
79163CL-    CL-42920  11.358  34.886   0.438
79164CL-    CL-42921  31.448  12.184  11.051
79165CL-    CL-42922   4.380  24.530  13.446
79166CL-    CL-42923   2.450  10.230  12.561
79167CL-    CL-42924  29.490  15.243   1.731
79168CL-    CL-42925   5.718  37.518   1.785
79169CL-    CL-42926  42.992  11.214   4.660
79170CL-    CL-42927  32.437  23.683  11.458
79171CL-    CL-42928  11.304  31.646  12.941
79172CL-    CL-42929  32.096   6.883   0.733
79173CL-    CL-42930  28.530  35.891  12.921
79174CL-    CL-42931  18.060  25.610   4.751
79175CL-    CL-42932  25.505  20.167  11.422
79176CL-    CL-42933  44.964  36.520   2.893
79177CL-    CL-42934  41.375  43.896   1.403
79178CL-    CL-42935  36.411   2.817   3.695
79179CL-    CL-42936  28.517  19.581   3.341
79180CL-    CL-42937  38.479  36.456   1.314
79181CL-    CL-42938  43.842  18.578   1.406
79182CL-    CL-42939  17.556  12.277   4.265
79183CL-    CL-42940  12.130  19.649   0.310
79184CL-    CL-42941  32.426  21.093  10.946
79185CL-    CL-42942  28.144  25.584   0.910
79186CL-    CL-42943  19.171   4.891   2.283
79187CL-    CL-42944  30.129  19.178   0.341
79188CL-    CL-42945  32.627  16.737  11.971
79189CL-    CL-42946  39.006   1.950   3.288
79190CL-    CL-42947  33.458  22.036  11.449
79191CL-    CL-42948  21.586  39.957   4.273
79192CL-    CL-42949  16.295  28.532   3.658
79193CL-    CL-42950  40.324  12.815  11.490
79194CL-    CL-42951   9.752  16.688  12.876
79195CL-    CL-42952  31.060  35.022  10.020
79196CL-    CL-42953  32.447  18.241   1.358
79197CL-    CL-42954  41.351  30.422   2.366
79198CL-    CL-42955  22.216  31.128   1.423
79199CL-    CL-42956   1.379  42.977   0.907
79200CL-    CL-42957   2.363  33.055   4.349
79201CL-    CL-42958  26.513  12.622  10.489
79202CL-    CL-42959  17.667  31.491  13.791
79203CL-    CL-42960  32.589  31.450  10.629
79204CL-    CL-42961  39.902  11.721  14.858
79205CL-    CL-42962   8.161  44.883  12.543
79206CL-    CL-42963  21.223  12.758   0.742
79207CL-    CL-42964  40.462   5.758  12.403
79208CL-    CL-42965  18.082  34.104   1.752
79209CL-    CL-42966  40.435  26.049   2.197
79210CL-    CL-42967  25.558  32.121  14.472
79211CL-    CL-42968  13.695  19.666   3.237
79212CL-    CL-42969   7.323   6.226   0.879
79213CL-    CL-42970  12.275  33.417   0.847
79214CL-    CL-42971  33.478   3.375  11.395
79215CL-    CL-42972  36.433  44.400  13.843
79216CL-    CL-42973   5.345   2.257  13.911
79217CL-    CL-42974   1.322  21.192  14.464
79218CL-    CL-42975  39.027   5.259  11.517
79219CL-    CL-42976  23.121  28.579  12.906
79220CL-    CL-42977  17.199  22.606   9.987
79221CL-    CL-42978  33.904  41.987   1.421
79222CL-    CL-42979  24.004  14.596  13.820
79223CL-    CL-42980  23.503  38.931   3.241
79224CL-    CL-42981  12.672   4.892  10.577
79225CL-    CL-42982  18.578  22.233   0.453
79226CL-    CL-42983  39.416  10.771   3.187
79227CL-    CL-42984   6.780  35.996   0.302
79228CL-    CL-42985  10.345  15.236   4.274
79229CL-    CL-42986  18.665  30.633   1.880
79230CL-    CL-42987   3.781   7.670  11.115
79231CL-    CL-42988   4.435  29.437   0.847
79232CL-    CL-42989  36.402  37.354   2.275
79233CL-    CL-42990  36.867   4.298  12.405
79234CL-    CL-42991  16.795   9.255  14.292
79235CL-    CL-42992  11.758  44.949  11.534
79236CL-    CL-42993   2.236  12.824  10.943
79237CL-    CL-42994   1.451  20.221   1.767
79238CL-    CL-42995  29.155  24.111  13.311
79239CL-    CL-42996   3.939  19.668  11.011
79240CL-    CL-42997  43.961  25.588  14.019
79241CL-    CL-42998   6.331  35.362   2.809
79242CL-    CL-42999  44.788  40.886   1.322
79243CL-    CL-43000  34.580  39.324  14.822
79244CL-    CL-43001   8.774  28.949  14.972
79245CL-    CL-43002  24.709  22.546   2.371
79246CL-    CL-43003  22.546   8.276   0.862
79247CL-    CL-43004   7.408   1.846  11.470
79248CL-    CL-43005   2.909   0.847   4.837
79249CL-    CL-43006  38.910  10.233  13.510
79250CL-    CL-43007  37.073  10.681   1.810
79251CL-    CL-43008  11.745  16.189  13.982
79252CL-    CL-43009  26.085  31.588  10.974
79253CL-    CL-43010  32.502  38.410  14.913
79254CL-    CL-43011  12.239   5.321  11.917
79255CL-    CL-43012  41.850  40.466   3.755
79256CL-    CL-43013  26.562  18.265   0.745
79257CL-    CL-43014  26.160  30.916   3.294
79258CL-    CL-43015  32.009  16.762   4.233
79259CL-    CL-43016  27.001  10.161   4.696
79260CL-    CL-43017   3.930  23.107   3.197
79261CL-    CL-43018  22.637   9.733  14.479
79262CL-    CL-43019   2.319  27.943  11.873
79263CL-    CL-43020   8.784  17.729   0.947
79264CL-    CL-43021   2.908  40.880   1.275
79265CL-    CL-43022  33.426  42.789  10.601
79266CL-    CL-43023   5.807  19.760  11.551
79267CL-    CL-43024   5.801  29.435   2.400
79268CL-    CL-43025  27.134  27.068  10.593
79269CL-    CL-43026  40.865   9.676  13.041
79270CL-    CL-43027   0.486   1.868  13.979
79271CL-    CL-43028  37.470  36.349  13.372
79272CL-    CL-43029  37.478   1.469   1.753
79273CL-    CL-43030  39.957  41.904  13.847
79274CL-    CL-43031  36.090  38.326  13.511
79275CL-    CL-43032  16.186  12.739  11.430
79276CL-    CL-43033  20.213  17.200   1.878
79277CL-    CL-43034  18.093  31.025   0.252
79278CL-    CL-43035   8.852  20.041  12.383
79279CL-    CL-43036  36.002   9.750  10.507
79280CL-    CL-43037  20.767   5.266   4.702
79281CL-    CL-43038  18.073   0.271  12.841
79282CL-    CL-43039  19.675  23.716  13.454
79283CL-    CL-43040  20.688  33.443  12.518
79284CL-    CL-43041  16.214   3.934   2.825
79285CL-    CL-43042  10.669  18.098  14.814
79286CL-    CL-43043  44.793  21.234   2.233
79287CL-    CL-43044  24.667   8.764  12.573
79288CL-    CL-43045  34.376  42.342  14.465
79289CL-    CL-43046  21.516  27.966  12.071
79290CL-    CL-43047  31.508   1.845  13.865
79291CL-    CL-43048  30.053  27.459  14.828
79292CL-    CL-43049  33.606   3.784  10.922
79293CL-    CL-43050   3.730  40.346  14.989
79294CL-    CL-43051  23.541  44.302  12.392
79295CL-    CL-43052  12.177   9.202   3.870
79296CL-    CL-43053  35.933  18.066  12.398
79297CL-    CL-43054  27.157  18.649  11.070
79298CL-    CL-43055  35.073  10.300  12.038
79299CL-    CL-43056  14.589   9.801   2.897
79300CL-    CL-43057   5.889  37.538   0.301
79301CL-    CL-43058  42.779  34.568  14.511
79302CL-    CL-43059  25.971  18.596   2.391
79303CL-    CL-43060  22.675   8.666  11.569
79304CL-    CL-43061  11.228  11.714  12.392
79305CL-    CL-43062  12.665  25.000   4.830
79306CL-    CL-43063  28.148  21.142  14.800
79307CL-    CL-43064  28.592  19.152  13.830
79308CL-    CL-43065   6.874  14.630   2.884
79309CL-    CL-43066  22.710  21.728   3.273
79310CL-    CL-43067  22.102  24.564   2.199
79311CL-    CL-43068   9.696   3.353   0.401
79312CL-    CL-43069  27.486  42.384   0.852
79313CL-    CL-43070  26.690  23.721   1.430
79314CL-    CL-43071  35.604  37.496  11.041
79315CL-    CL-43072  42.373   4.226  13.989
79316CL-    CL-43073  17.103  28.012   2.671
79317CL-    CL-43074  32.531  13.785   0.943
79318CL-    CL-43075  34.882  19.739   0.850
79319CL-    CL-43076  29.487  26.493   3.353
79320CL-    CL-43077  43.416  43.437  13.318
79321CL-    CL-43078  41.807  29.047   3.169
79322CL-    CL-43079  15.208  27.970  11.548
79323CL-    CL-43080  29.634   6.892   1.787
79324CL-    CL-43081  26.023  12.322   1.392
79325CL-    CL-43082  37.485  20.660   3.318
79326CL-    CL-43083  14.615  26.694  10.986
79327CL-    CL-43084  26.209  38.393   1.821
79328CL-    CL-43085  16.587  15.725   3.707
79329CL-    CL-43086  40.421  17.298  14.024
79330CL-    CL-43087  21.021  14.665   3.849
79331CL-    CL-43088   4.311  31.141  12.570
79332CL-    CL-43089  14.646  31.035   4.209
79333CL-    CL-43090  38.067  27.683  10.574
79334CL-    CL-43091  36.017  23.661  13.849
79335CL-    CL-43092  36.059  36.468  10.639
79336CL-    CL-43093   4.213  29.036  12.400
79337CL-    CL-43094   3.779  26.965  13.005
79338CL-    CL-43095  29.459  37.539  12.396
79339CL-    CL-43096  18.628  11.165   1.357
79340CL-    CL-43097  18.241  19.056   2.662
79341CL-    CL-43098  26.693  36.474   0.458
79342CL-    CL-43099  17.085  42.795   0.298
79343CL-    CL-43100  39.918  44.807   0.898
79344CL-    CL-43101  24.178  37.897  12.084
79345CL-    CL-43102  27.488  12.818   1.870
79346CL-    CL-43103  16.686  26.640  14.497
79347CL-    CL-43104  44.499  24.640   3.257
79348CL-    CL-43105  42.348  22.648   2.666
79349CL-    CL-43106  34.002  35.391   2.292
79350CL-    CL-43107  23.574  33.456   2.281
79351CL-    CL-43108   1.973  19.160   3.200
79352CL-    CL-43109  32.907  44.267  14.925
79353CL-    CL-43110  19.747   1.277  10.617
79354CL-    CL-43111   1.336   7.857  10.584
79355CL-    CL-43112  42.867   6.236  14.907
79356CL-    CL-43113  24.490  43.286  10.631
79357CL-    CL-43114  37.879  15.779  12.985
79358CL-    CL-43115  37.383   5.321   1.862
79359CL-    CL-43116  11.689   7.402  12.554
79360CL-    CL-43117  18.740  23.688   1.304
79361CL-    CL-43118  36.560  44.814  12.997
79362CL-    CL-43119  13.349  34.391   4.832
79363CL-    CL-43120  43.945  20.532   2.670
79364CL-    CL-43121  30.039  39.517  12.008
79365CL-    CL-43122   0.794  34.024  14.818
79366CL-    CL-43123   9.670  31.941  13.976
79367CL-    CL-43124  18.255  18.207  14.506
79368CL-    CL-43125   9.703   3.763  14.886
79369CL-    CL-43126  44.962   6.909   1.849
79370CL-    CL-43127  13.640  41.363  10.921
79371CL-    CL-43128  19.083  12.720   2.665
79372CL-    CL-43129   3.435  26.107   2.334
79373CL-    CL-43130  29.456  44.960   0.885
79374CL-    CL-43131  21.199  35.095   1.872
79375CL-    CL-43132  39.330   4.437   4.675
79376CL-    CL-43133  26.674  24.720  14.364
79377CL-    CL-43134  15.645  13.675  14.823
79378CL-    CL-43135  38.860  33.883  13.374
79379CL-    CL-43136  11.807   2.451   0.876
79380CL-    CL-43137   9.655  29.033   0.341
79381CL-    CL-43138  18.602  19.763   3.146
79382CL-    CL-43139  40.833  37.998  11.597
79383CL-    CL-43140  36.588   6.354   2.679
79384CL-    CL-43141   9.875  28.022   2.767
79385CL-    CL-43142  26.536   2.444   4.276
79386CL-    CL-43143  10.673  42.933   0.732
79387CL-    CL-43144  35.381   7.852   1.750
79388CL-    CL-43145   0.282  26.119   4.604
79389CL-    CL-43146  18.259  44.279  12.457
79390CL-    CL-43147   5.326   7.860   4.215
79391CL-    CL-43148  43.799  17.708   4.783
79392CL-    CL-43149   2.385  10.721   3.713
79393CL-    CL-43150   6.729   0.426  13.346
79394CL-    CL-43151  34.959  27.458  12.941
79395CL-    CL-43152  32.058   1.731   3.733
79396CL-    CL-43153  32.936   3.250   9.629
79397CL-    CL-43154  10.173   8.338  10.419
79398CL-    CL-43155  35.383  40.946  12.339
79399CL-    CL-43156  30.132  37.049   0.400
79400CL-    CL-43157  13.715  15.583  10.005
79401CL-    CL-43158  34.074   4.698  11.871
79402CL-    CL-43159  24.688  11.811   2.678
79403CL-    CL-43160   9.798  34.930   1.910
79404CL-    CL-43161  25.062   6.391   2.314
79405CL-    CL-43162  10.745  43.497   4.698
79406CL-    CL-43163  15.589   4.806   3.157
79407CL-    CL-43164  26.188   5.699  12.095
79408CL-    CL-43165  42.946  43.882   3.222
79409CL-    CL-43166  28.011   0.260  11.107
79410CL-    CL-43167  36.025  42.354  12.460
79411CL-    CL-43168  14.129  20.651   1.888
79412CL-    CL-43169  29.150  22.684  13.999
79413CL-    CL-43170  20.239  26.493   4.256
79414CL-    CL-43171   9.872  37.981   4.341
79415CL-    CL-43172  13.330   1.324  11.373
79416CL-    CL-43173  17.209  32.114  13.806
79417CL-    CL-43174  17.174   5.426  13.848
79418CL-    CL-43175   0.948   1.940   2.192
79419CL-    CL-43176  33.001   6.823   4.273
79420CL-    CL-43177  14.731   5.841   0.282
79421CL-    CL-43178  21.215  35.872   3.773
79422CL-    CL-43179   0.849   0.888   0.376
79423CL-    CL-43180  37.958  43.772  11.963
79424CL-    CL-43181  34.551  38.521   0.927
79425CL-    CL-43182  29.640   2.264   1.216
79426CL-    CL-43183  21.154  12.792  13.831
79427CL-    CL-43184  27.092  16.253   9.967
79428CL-    CL-43185  32.992   0.296  10.932
79429CL-    CL-43186  41.473  42.379  11.104
79430CL-    CL-43187  13.281  25.053   2.188
79431CL-    CL-43188  39.897   5.917  13.362
79432CL-    CL-43189  44.482  43.020  10.518
79433CL-    CL-43190  42.002   7.384   2.705
79434CL-    CL-43191  27.487  42.429   3.302
79435CL-    CL-43192   7.369  26.026  11.449
79436CL-    CL-43193  44.007  41.904  12.839
79437CL-    CL-43194  10.673  25.211   5.244
79438CL-    CL-43195   2.846  44.407   0.863
79439CL-    CL-43196  15.663  13.306  10.890
79440CL-    CL-43197  31.043  22.575   2.857
79441CL-    CL-43198   7.684  37.492  14.420
79442CL-    CL-43199  19.643  14.622  14.823
79443CL-    CL-43200  11.365  16.189   3.663
79444CL-    CL-43201   5.785  25.547   0.936
79445CL-    CL-43202  41.945  38.930  10.028
79446CL-    CL-43203  40.048  34.949   0.326
79447CL-    CL-43204  40.941   4.737  14.933
79448CL-    CL-43205   9.748  30.027   4.318
79449CL-    CL-43206  42.351  21.046   0.867
79450CL-    CL-43207  42.915   6.375   1.903
79451CL-    CL-43208  14.320  25.166  11.439
79452CL-    CL-43209  41.424   0.975   0.780
79453CL-    CL-43210  29.950   1.970   1.387
79454CL-    CL-43211  41.435  28.977   2.204
79455CL-    CL-43212  23.018   0.859  11.556
79456CL-    CL-43213  44.894  28.955  14.030
79457CL-    CL-43214  37.401  35.581  13.344
79458CL-    CL-43215  30.127  26.005   4.745
79459CL-    CL-43216  22.502  21.254   0.733
79460CL-    CL-43217  36.023  18.138  11.570
79461CL-    CL-43218  15.650   5.812  10.519
79462CL-    CL-43219  40.854  36.435  14.469
79463CL-    CL-43220   3.772  10.323   0.367
79464CL-    CL-43221  26.456  11.804   4.334
79465CL-    CL-43222   5.204   6.218  11.006
79466CL-    CL-43223  24.015  33.068   0.401
79467CL-    CL-43224   2.772  10.758   0.900
79468CL-    CL-43225  21.242  36.947  12.955
79469CL-    CL-43226   7.683  24.553  11.863
79470CL-    CL-43227  17.625  44.319  13.930
79471CL-    CL-43228  37.896  30.953   2.667
79472CL-    CL-43229  32.460  43.792   0.398
79473CL-    CL-43230  34.942  11.865   4.190
79474CL-    CL-43231  17.194  17.174   0.478
79475CL-    CL-43232  41.830  38.055  10.571
79476CL-    CL-43233  28.530   4.281  11.933
79477CL-    CL-43234  41.460  11.292   0.952
79478CL-    CL-43235  37.558  33.465   0.425
79479CL-    CL-43236  12.350   3.862  13.420
79480CL-    CL-43237  27.598   0.251   4.819
79481CL-    CL-43238   9.225  11.247  14.384
79482CL-    CL-43239  21.616  44.477   4.303
79483CL-    CL-43240  23.614  40.973  14.329
79484CL-    CL-43241  30.151   7.736  11.546
79485CL-    CL-43242  38.924  40.985  11.934
79486CL-    CL-43243   1.733  18.642   2.407
79487CL-    CL-43244   0.962  34.529  10.609
79488CL-    CL-43245  41.898  18.053  10.562
79489CL-    CL-43246   5.396   4.772  10.445
79490CL-    CL-43247   2.896   7.172  10.903
79491CL-    CL-43248  24.507   7.819   4.284
79492CL-    CL-43249  23.229   7.364   1.416
79493CL-    CL-43250   9.334   5.690  11.056
79494CL-    CL-43251  23.611  30.509   0.465
79495CL-    CL-43252  13.317  15.819  12.960
79496CL-    CL-43253   4.212  35.963  13.981
79497CL-    CL-43254  16.294   4.369  13.345
79498CL-    CL-43255   0.310  10.764   1.751
79499CL-    CL-43256  26.957  27.996  14.303
79500CL-    CL-43257  33.596  25.476  12.886
79501CL-    CL-43258  25.534  43.851   3.213
79502CL-    CL-43259  17.157   4.353   4.632
79503CL-    CL-43260  23.045  10.272  13.328
79504CL-    CL-43261  41.944  30.484   1.232
79505CL-    CL-43262  40.316  25.671   1.853
79506CL-    CL-43263  14.674  38.839  11.533
79507CL-    CL-43264   5.699  44.333  13.884
79508CL-    CL-43265  28.059   7.257  14.324
79509CL-    CL-43266  24.580  11.864   1.229
79510CL-    CL-43267  42.517  43.978   2.334
79511CL-    CL-43268   6.732  36.004   4.220
79512CL-    CL-43269   2.874  12.735  13.846
79513CL-    CL-43270  14.173  38.036  14.282
79514CL-    CL-43271  16.770   2.409   2.389
79515CL-    CL-43272  31.932  15.610   1.802
79516CL-    CL-43273  32.931   6.806  11.476
79517CL-    CL-43274   4.769  25.101  13.468
79518CL-    CL-43275  28.448  38.527  11.042
79519CL-    CL-43276   6.764  44.938   2.816
79520CL-    CL-43277   4.938  40.025  11.019
79521CL-    CL-43278   9.729  26.535  13.948
79522CL-    CL-43279  34.394  30.475   1.898
79523CL-    CL-43280  27.505  29.529   3.664
79524CL-    CL-43281  34.920  16.237   1.375
79525CL-    CL-43282   8.807  33.546  12.846
79526CL-    CL-43283  11.846   2.854  13.386
79527CL-    CL-43284   5.887  25.102  12.889
79528CL-    CL-43285  33.100  37.018  11.509
79529CL-    CL-43286  13.647  11.175   0.896
79530CL-    CL-43287  22.737  36.460  13.036
79531CL-    CL-43288  37.007   9.210   0.380
79532CL-    CL-43289  34.095  32.630  13.824
79533CL-    CL-43290  29.646  15.772  12.027
79534CL-    CL-43291   4.797  41.440   0.355
79535CL-    CL-43292  22.649   7.412   3.687
79536CL-    CL-43293  23.565   8.867   2.295
79537CL-    CL-43294  39.517  39.323   0.479
79538CL-    CL-43295  18.174   5.434   3.651
79539CL-    CL-43296   3.234  26.620   3.759
79540CL-    CL-43297   9.857   0.795   2.283
79541CL-    CL-43298   5.221  22.706   0.866
79542CL-    CL-43299  44.965  28.609   0.771
79543CL-    CL-43300  44.390   8.827   5.268
79544CL-    CL-43301   7.405  14.825   1.698
79545CL-    CL-43302  29.976  29.559  11.466
79546CL-    CL-43303  27.478   6.721  14.903
79547CL-    CL-43304  10.866  39.425  13.963
79548CL-    CL-43305  39.395  20.209   2.213
79549CL-    CL-43306   4.391  15.624   0.298
79550CL-    CL-43307   0.349   6.382   1.298
79551CL-    CL-43308  10.716  26.477   1.733
79552CL-    CL-43309  25.004   1.811   1.873
79553CL-    CL-43310  27.089  39.874   3.181
79554CL-    CL-43311  20.215  20.747  13.357
79555CL-    CL-43312  19.668  10.269  13.882
79556CL-    CL-43313  24.164  41.890   2.346
79557CL-    CL-43314  11.686  22.739  12.865
79558CL-    CL-43315  15.309  17.226   1.394
79559CL-    CL-43316  38.553  38.058   2.406
79560CL-    CL-43317   8.802   0.435   1.240
79561CL-    CL-43318  34.065  22.532  11.117
79562CL-    CL-43319   5.880  25.673  10.565
79563CL-    CL-43320  35.864   1.798  10.049
79564CL-    CL-43321  16.801  41.373  10.454
79565CL-    CL-43322  21.601  33.396   4.293
79566CL-    CL-43323  24.599  43.484  11.866
79567CL-    CL-43324  19.232  42.328   4.601
79568CL-    CL-43325  27.043   4.911  14.406
79569CL-    CL-43326  43.283  25.104  12.518
79570CL-    CL-43327  42.523  19.139  13.519
79571CL-    CL-43328  31.997  38.019   2.892
79572CL-    CL-43329  37.964   9.735   2.371
79573CL-    CL-43330  18.662  14.124   4.123
79574CL-    CL-43331  20.607  30.050   1.299
79575CL-    CL-43332   9.351  13.213   1.398
79576CL-    CL-43333   1.274  10.730   1.742
79577CL-    CL-43334  28.131  42.408   4.674
79578CL-    CL-43335  32.983  40.451  14.839
79579CL-    CL-43336  15.179   7.909   3.834
79580CL-    CL-43337   3.720   0.764   2.325
79581CL-    CL-43338  17.225  11.651  11.108
79582CL-    CL-43339  14.213  36.903   0.418
79583CL-    CL-43340  22.723  26.198  11.394
79584CL-    CL-43341  36.381   9.363   2.837
79585CL-    CL-43342  20.166   2.889   1.260
79586CL-    CL-43343  44.889  13.314  13.414
79587CL-    CL-43344  21.037  13.301   5.162
79588CL-    CL-43345   1.341  26.504  13.872
79589CL-    CL-43346  36.452  36.370  12.353
79590CL-    CL-43347  40.530  25.212   3.252
79591CL-    CL-43348  12.823  24.576   0.925
79592CL-    CL-43349  37.372  40.498   1.797
79593CL-    CL-43350  17.082  37.909  11.582
79594CL-    CL-43351  16.309   2.298  10.967
79595CL-    CL-43352  24.525   2.790   3.679
79596CL-    CL-43353   9.712  21.657  14.913
79597CL-    CL-43354  44.355  12.116  11.602
79598CL-    CL-43355  15.242  37.497  12.072
79599CL-    CL-43356  31.146  17.274   4.697
79600CL-    CL-43357  27.529  38.357   2.316
79601CL-    CL-43358  20.536  36.896   5.224
79602CL-    CL-43359  15.780  20.047   1.286
79603CL-    CL-43360   2.229  15.279  13.483
79604CL-    CL-43361   3.893  30.132   1.259
79605CL-    CL-43362  25.217  33.082  13.818
79606CL-    CL-43363  15.621  26.671  10.144
79607CL-    CL-43364  33.577  30.079  14.335
79608CL-    CL-43365  18.561   8.750  12.057
79609CL-    CL-43366  27.029  41.302  12.016
79610CL-    CL-43367  33.950   6.378   0.476
79611CL-    CL-43368   5.393  24.574   4.653
79612CL-    CL-43369  13.206   6.237   3.863
79613CL-    CL-43370  25.644   3.759   4.153
79614CL-    CL-43371  40.373  13.173  13.344
79615CL-    CL-43372  20.187  32.513  10.565
79616CL-    CL-43373  13.770  15.697  12.920
79617CL-    CL-43374  28.497   8.396  12.473
79618CL-    CL-43375  39.886  12.322  14.325
79619CL-    CL-43376  34.069   4.730   2.281
79620CL-    CL-43377  37.033  30.910  11.999
79621CL-    CL-43378   6.686  19.709  14.877
79622CL-    CL-43379   7.802  41.316   4.803
79623CL-    CL-43380  31.942  25.608  11.951
79624CL-    CL-43381  29.635   8.193   3.735
79625CL-    CL-43382  42.307  17.261  12.504
79626CL-    CL-43383  19.068  26.680   0.774
79627CL-    CL-43384   7.870  30.519   1.383
79628CL-    CL-43385  36.482   4.827  12.068
79629CL-    CL-43386  22.203  23.196   2.874
79630CL-    CL-43387   2.360  40.372   5.081
79631CL-    CL-43388  40.902  37.837   4.137
79632CL-    CL-43389  44.318  31.430   0.784
79633CL-    CL-43390  14.605  23.239  13.418
79634CL-    CL-43391  27.452  22.006  10.487
79635CL-    CL-43392  22.020   2.724   4.156
79636CL-    CL-43393  31.022  17.176  10.155
79637CL-    CL-43394   4.860  20.090   0.335
79638CL-    CL-43395  43.823   2.805  12.529
79639CL-    CL-43396  25.605  23.187   3.663
79640CL-    CL-43397  24.128   5.376  12.454
79641CL-    CL-43398  43.007  23.129   0.472
79642CL-    CL-43399  27.092  29.978  11.905
79643CL-    CL-43400  43.819   5.761   0.355
79644CL-    CL-43401  21.039  20.275   2.327
79645CL-    CL-43402   3.455   0.443   0.782
79646CL-    CL-43403  20.070  37.432  11.421
79647CL-    CL-43404  37.896  39.827   3.223
79648CL-    CL-43405   7.183  27.135  14.011
79649CL-    CL-43406  21.048  16.304   2.760
79650CL-    CL-43407  24.637  25.025   3.351
79651CL-    CL-43408  23.633  38.934   2.230
79652CL-    CL-43409  13.738  31.966   9.938
79653CL-    CL-43410  20.216  13.329  14.325
79654CL-    CL-43411  43.925   3.896   2.735
79655CL-    CL-43412   6.255  26.538   0.243
79656CL-    CL-43413  27.120  42.981  12.383
79657CL-    CL-43414   4.897  40.476   2.243
79658CL-    CL-43415  25.543  32.536   3.667
79659CL-    CL-43416  17.205  16.791   3.326
79660CL-    CL-43417   4.759  11.345   2.371
79661CL-    CL-43418  14.753   9.293   3.373
79662CL-    CL-43419  25.051  34.092  11.023
79663CL-    CL-43420   6.328   4.345   4.753
79664CL-    CL-43421  40.482  22.199  12.076
79665CL-    CL-43422  24.117  28.468  12.911
79666CL-    CL-43423   5.334  12.648   1.738
79667CL-    CL-43424  27.154  17.133  12.447
79668CL-    CL-43425  13.711  12.618  12.949
79669CL-    CL-43426   2.824  23.113  10.445
79670CL-    CL-43427   4.844  15.294   1.407
79671CL-    CL-43428  42.286  36.873  13.358
79672CL-    CL-43429  20.143  38.434  11.604
79673CL-    CL-43430  39.037  14.121  12.918
79674CL-    CL-43431  42.913  20.237  12.983
79675CL-    CL-43432  33.560  18.593  13.449
79676CL-    CL-43433  33.921  35.526  11.010
79677CL-    CL-43434  14.248  43.333   5.269
79678CL-    CL-43435   5.250   9.723  13.427
79679CL-    CL-43436  26.956  41.993   4.661
79680CL-    CL-43437  18.594  44.376  12.456
79681CL-    CL-43438  20.654   5.924  14.899
79682CL-    CL-43439  31.611  22.594  12.073
79683CL-    CL-43440  36.980  14.671  13.982
79684CL-    CL-43441  44.986  43.860  11.869
79685CL-    CL-43442  13.794  39.025   2.383
79686CL-    CL-43443  40.437  29.992  13.898
79687CL-    CL-43444  13.183  35.464  13.417
79688CL-    CL-43445  39.906  23.638   0.423
79689CL-    CL-43446  21.574  33.111   4.186
79690CL-    CL-43447  12.723  28.135  14.970
79691CL-    CL-43448  10.271  13.174   4.690
79692CL-    CL-43449  27.057  11.715  11.065
79693CL-    CL-43450  30.096  32.602  10.463
79694CL-    CL-43451  15.779  27.486   4.186
79695CL-    CL-43452   5.380  20.117  10.984
79696CL-    CL-43453  14.635  41.446  10.137
79697CL-    CL-43454  35.014   7.374  10.528
79698CL-    CL-43455  30.544  34.927  11.953
79699CL-    CL-43456   2.465  44.946   3.869
79700CL-    CL-43457  12.293  30.581  11.610
79701CL-    CL-43458  11.203  41.831   1.914
79702CL-    CL-43459  13.130  26.699   2.226
79703CL-    CL-43460  29.034  27.636   2.751
79704CL-    CL-43461  23.583   9.821   4.201
79705CL-    CL-43462   2.773  36.518  11.059
79706CL-    CL-43463  10.708  13.255  14.469
79707CL-    CL-43464  23.130   0.821   2.769
79708CL-    CL-43465  26.673   8.216   3.759
79709CL-    CL-43466  17.245  31.599   4.720
79710CL-    CL-43467   6.711  36.427  11.604
79711CL-    CL-43468  18.738  35.488   2.397
79712CL-    CL-43469  25.713  24.687   4.275
79713CL-    CL-43470  33.428  10.798  11.451
79714CL-    CL-43471  42.507  15.148   4.143
79715CL-    CL-43472  28.090  14.304  12.899
79716CL-    CL-43473  32.517  40.913  13.860
79717CL-    CL-43474  11.806   5.736   0.905
79718CL-    CL-43475  23.086  44.489   1.296
79719CL-    CL-43476  26.505  34.604   3.277
79720CL-    CL-43477  19.629  10.266   1.300
79721CL-    CL-43478  21.116  33.123   3.275
79722CL-    CL-43479  36.996  40.988   0.460
79723CL-    CL-43480  21.140  12.664  14.841
79724CL-    CL-43481   4.918  25.562   3.206
79725CL-    CL-43482   4.743   2.329  11.992
79726CL-    CL-43483  44.340  23.686  10.564
79727CL-    CL-43484  41.360  41.008  12.573
79728CL-    CL-43485  27.669  29.052   3.334
79729CL-    CL-43486  23.667  38.037   0.827
79730CL-    CL-43487  25.665  20.256   1.251
79731CL-    CL-43488  12.803  14.113  13.384
79732CL-    CL-43489  37.837  11.167  10.568
79733CL-    CL-43490  40.917  36.423  11.093
79734CL-    CL-43491  30.467   5.792   0.468
79735CL-    CL-43492  17.297   2.467   1.744
79736CL-    CL-43493  32.501  32.393  14.366
79737CL-    CL-43494  12.797   4.723  14.337
79738CL-    CL-43495  41.460  30.990   2.180
79739CL-    CL-43496  38.905   0.327   5.677
79740CL-    CL-43497  37.939   5.756  13.533
79741CL-    CL-43498  25.102  41.391  12.471
79742CL-    CL-43499  13.671  16.258   0.251
79743CL-    CL-43500   4.241   7.867   1.888
79744CL-    CL-43501  25.977  24.698   1.911
79745CL-    CL-43502   1.810  38.341   0.313
79746CL-    CL-43503   4.373   4.285   0.809
79747CL-    CL-43504   3.724  32.439   3.657
79748CL-    CL-43505  18.124   0.909  13.409
79749CL-    CL-43506   4.880  33.933   4.740
79750CL-    CL-43507  35.591  15.163  12.849
79751CL-    CL-43508  13.205  34.921  13.906
79752CL-    CL-43509  36.351   9.386  14.030
79753CL-    CL-43510  33.922  22.532  12.945
79754CL-    CL-43511  40.371   9.749  12.573
79755CL-    CL-43512   8.294  34.973  14.277
79756CL-    CL-43513  13.311  23.200  11.508
79757CL-    CL-43514  35.524   4.208   4.182
79758CL-    CL-43515  27.599  25.161  12.558
79759CL-    CL-43516  36.889  12.822  11.508
79760CL-    CL-43517  38.038  33.879  13.444
79761CL-    CL-43518  41.829  29.493   4.290
79762CL-    CL-43519  24.613  15.255  11.577
79763CL-    CL-43520  39.933  27.533  11.053
79764CL-    CL-43521   5.212  17.076  10.615
79765CL-    CL-43522  36.559   7.885   0.809
79766CL-    CL-43523  28.954   9.159   1.424
79767CL-    CL-43524  29.653  34.946  12.346
79768CL-    CL-43525  32.486   7.180  13.947
79769CL-    CL-43526  22.177  25.083  13.835
79770CL-    CL-43527  36.075   8.773  12.351
79771CL-    CL-43528  20.177   1.255  12.965
79772CL-    CL-43529  20.269  36.446  14.314
79773CL-    CL-43530  22.614  27.965  14.846
79774CL-    CL-43531  17.767  40.423   2.768
79775CL-    CL-43532  18.558  22.655   3.189
79776CL-    CL-43533   8.686  22.233  11.044
79777CL-    CL-43534   8.826  32.085  12.551
79778CL-    CL-43535  31.090  40.343  14.025
79779CL-    CL-43536  25.071  13.259   1.697
79780CL-    CL-43537  37.575  32.457   4.200
79781CL-    CL-43538  32.975  23.094   4.599
79782CL-    CL-43539  15.603  16.758  10.995
79783CL-    CL-43540  36.982  18.108  14.397
79784CL-    CL-43541  24.540  24.579  11.955
79785CL-    CL-43542   7.408   7.333   1.742
79786CL-    CL-43543   3.750   2.410   1.750
79787CL-    CL-43544  44.787  25.493   4.741
79788CL-    CL-43545  10.684   0.838  13.438
79789CL-    CL-43546  37.057  23.573   4.802
79790CL-    CL-43547  25.214  13.325  14.854
79791CL-    CL-43548  20.526  33.613  11.073
79792CL-    CL-43549  44.466  35.526  13.509
79793CL-    CL-43550  24.179  43.801   4.770
79794CL-    CL-43551  25.616  11.645  12.082
79795CL-    CL-43552  38.825  40.817   5.177
79796CL-    CL-43553  18.636   2.825  14.850
79797CL-    CL-43554  11.332  14.112  11.001
79798CL-    CL-43555  18.774  34.959   1.869
79799CL-    CL-43556  39.938   1.268   3.382
79800CL-    CL-43557   4.786  39.905   3.699
79801CL-    CL-43558   0.455  44.271   4.223
79802CL-    CL-43559  11.169  34.542  13.460
79803CL-    CL-43560  19.101  26.566   1.304
79804CL-    CL-43561  26.671  23.516  14.829
79805CL-    CL-43562  28.504  26.606  12.373
79806CL-    CL-43563   6.717  26.071  14.813
79807CL-    CL-43564   9.828  18.737   0.315
79808CL-    CL-43565  26.992  38.043   3.797
79809CL-    CL-43566   7.218  40.935  11.068
79810CL-    CL-43567   9.380   9.713  14.955
79811CL-    CL-43568  31.608   7.878   2.897
79812CL-    CL-43569  17.582   2.812  12.955
79813CL-    CL-43570   9.234   6.367  13.353
79814CL-    CL-43571  24.004  19.251   2.729
79815CL-    CL-43572  30.593  40.924  14.860
79816CL-    CL-43573  38.867  25.117  12.976
79817CL-    CL-43574   5.254  24.506  11.377
79818CL-    CL-43575  44.937  19.759  12.406
79819CL-    CL-43576   5.337  18.583   2.368
79820CL-    CL-43577  25.069  44.453   4.710
79821CL-    CL-43578  42.987  36.474  12.910
79822CL-    CL-43579  35.038  14.725   2.716
79823CL-    CL-43580  10.218   4.393  14.373
79824CL-    CL-43581   4.324  18.586  13.526
79825CL-    CL-43582   0.396  20.100  13.451
79826CL-    CL-43583  24.214  41.409  14.274
79827CL-    CL-43584   3.259  10.785   3.633
79828CL-    CL-43585  14.770  13.697   1.814
79829CL-    CL-43586  18.093  19.081  10.525
79830CL-    CL-43587  38.506  22.661   2.708
79831CL-    CL-43588   4.299  22.010   2.348
79832CL-    CL-43589  22.014  32.949   1.843
79833CL-    CL-43590  43.284   8.851   2.249
79834CL-    CL-43591  21.137   2.293   3.167
79835CL-    CL-43592  21.241   8.851  11.959
79836CL-    CL-43593   4.900  29.003  12.523
79837CL-    CL-43594   6.189  19.634   0.392
79838CL-    CL-43595   2.780   9.759  10.626
79839CL-    CL-43596   7.697  12.847   4.141
79840CL-    CL-43597  34.899  37.508  10.535
79841CL-    CL-43598  25.502  31.466  10.964
79842CL-    CL-43599  19.090   0.477   1.451
79843CL-    CL-43600   8.758   9.873  11.018
79844CL-    CL-43601   1.785  32.104   2.728
79845CL-    CL-43602   0.788  11.710  12.923
79846CL-    CL-43603  12.299   7.666   2.691
79847CL-    CL-43604  10.276  30.468  11.116
79848CL-    CL-43605  32.585  17.592  12.401
79849CL-    CL-43606  35.894  42.944   4.716
79850CL-    CL-43607  32.572  16.126  12.974
79851CL-    CL-43608  32.031  30.932   4.132
79852CL-    CL-43609  43.368  41.851   0.392
79853CL-    CL-43610  12.163   3.830  11.468
79854CL-    CL-43611   8.304   1.435  14.825
79855CL-    CL-43612  41.457  34.972   2.353
79856CL-    CL-43613  22.733  43.880  12.556
79857CL-    CL-43614  17.563  27.995  11.063
79858CL-    CL-43615  34.061  38.562   4.257
79859CL-    CL-43616  42.290  28.113   0.261
79860CL-    CL-43617  33.973   0.370   3.378
79861CL-    CL-43618   7.737   0.431  11.489
79862CL-    CL-43619  27.009  28.107  11.860
79863CL-    CL-43620  30.100  22.587  13.796
79864CL-    CL-43621   8.679  14.772  12.528
79865CL-    CL-43622  35.984  34.072  13.052
79866CL-    CL-43623   5.396  31.966   0.944
79867CL-    CL-43624   0.389  40.523  14.408
79868CL-    CL-43625   2.838  39.513  14.295
79869CL-    CL-43626  11.631  14.662   4.174
79870CL-    CL-43627  23.081  33.387   2.379
79871CL-    CL-43628  31.401  26.153  11.372
79872CL-    CL-43629  11.651  34.578  13.973
79873CL-    CL-43630   1.447  33.947  11.539
79874CL-    CL-43631   3.893  11.697  12.885
79875CL-    CL-43632  11.800  34.908   3.214
79876CL-    CL-43633  10.291  43.498   2.366
79877CL-    CL-43634  40.804  20.547   4.155
79878CL-    CL-43635   1.895   7.268  14.768
79879CL-    CL-43636  43.476  40.480  14.793
79880CL-    CL-43637  44.424  14.178  10.051
79881CL-    CL-43638  39.490  29.506  12.421
79882CL-    CL-43639  27.968  30.585   2.197
79883CL-    CL-43640  10.671  38.389   3.791
79884CL-    CL-43641  41.404   0.420   3.194
79885CL-    CL-43642  12.337   5.376   1.232
79886CL-    CL-43643  26.054  41.891   4.719
79887CL-    CL-43644  33.515  31.455   0.961
79888CL-    CL-43645  39.056  18.738   2.847
79889CL-    CL-43646  20.681  29.661  11.522
79890CL-    CL-43647  24.492  33.958  12.357
79891CL-    CL-43648  39.468   9.752   1.227
79892CL-    CL-43649  28.123   2.766  14.278
79893CL-    CL-43650   8.709  18.129  14.309
79894CL-    CL-43651  35.979  34.368  13.048
79895CL-    CL-43652  11.145  12.349  13.454
79896CL-    CL-43653  44.781  36.352   3.259
79897CL-    CL-43654  13.150  22.108  13.513
79898CL-    CL-43655  33.085   5.265  14.386
79899CL-    CL-43656  38.515  27.175   0.395
79900CL-    CL-43657  19.229  18.645   0.853
79901CL-    CL-43658  34.019   3.411   1.894
79902CL-    CL-43659  32.920  34.447  14.786
79903CL-    CL-43660  34.912   9.211   1.393
79904CL-    CL-43661  13.734  29.641  11.925
79905CL-    CL-43662  10.342  18.661  11.400
79906CL-    CL-43663  41.910  16.783  14.311
79907CL-    CL-43664   6.253  35.908  13.910
79908CL-    CL-43665  22.658   5.206  12.866
79909CL-    CL-43666  10.139  43.890   1.700
79910CL-    CL-43667  41.403  36.361  11.102
79911CL-    CL-43668  30.509  28.145   0.738
79912CL-    CL-43669  10.837   8.849  14.977
79913CL-    CL-43670  24.685  40.426   2.762
79914CL-    CL-43671  38.950  36.847  12.043
79915CL-    CL-43672  33.436   7.291  12.961
79916CL-    CL-43673  30.008  17.799   4.613
79917CL-    CL-43674  16.651  33.462  12.409
79918CL-    CL-43675  26.095  29.483   4.313
79919CL-    CL-43676  12.254  42.816   4.814
79920CL-    CL-43677  14.266  29.142   2.280
79921CL-    CL-43678  27.971  41.828  13.369
79922CL-    CL-43679  11.263  13.255  11.027
79923CL-    CL-43680  25.575  40.369   4.315
79924CL-    CL-43681  25.483   5.328   2.748
79925CL-    CL-43682  15.205  40.875   0.295
79926CL-    CL-43683  27.175  24.673   2.288
79927CL-    CL-43684  11.648  17.208  11.125
79928CL-    CL-43685  17.144   3.401   5.084
79929CL-    CL-43686  42.281   4.904   2.760
79930CL-    CL-43687  17.073  24.596   3.178
79931CL-    CL-43688  15.795  10.196   2.793
79932CL-    CL-43689  44.370  31.011   0.419
79933CL-    CL-43690   9.713  14.832   3.651
79934CL-    CL-43691  35.394  38.346   2.876
79935CL-    CL-43692  20.649  18.225  13.991
79936CL-    CL-43693  18.255  19.114   2.407
79937CL-    CL-43694   8.848  23.676   0.819
79938CL-    CL-43695  38.890  17.683  11.914
79939CL-    CL-43696  18.615  43.475  13.854
79940CL-    CL-43697   4.401  32.503   3.750
79941CL-    CL-43698   0.377  17.653  10.928
79942CL-    CL-43699  42.450  41.837  10.955
79943CL-    CL-43700  15.635  44.903  12.990
79944CL-    CL-43701   4.807  43.505  10.541
79945CL-    CL-43702  25.030  11.823  13.044
79946CL-    CL-43703  11.626  26.988   0.291
79947CL-    CL-43704   3.392  28.127   4.298
79948CL-    CL-43705  44.430  12.166  11.857
79949CL-    CL-43706  28.099  28.585  12.376
79950CL-    CL-43707  43.883   0.390  12.538
79951CL-    CL-43708  13.182  20.596   4.131
79952CL-    CL-43709  14.269   3.854  13.312
79953CL-    CL-43710  27.505  23.240  12.016
79954CL-    CL-43711   7.276  36.044   2.829
79955CL-    CL-43712  38.464  42.382  11.398
79956CL-    CL-43713   8.705   9.735  10.425
79957CL-    CL-43714  23.182   4.752  12.496
79958CL-    CL-43715  19.658  24.209  12.558
79959CL-    CL-43716  10.333  41.425  13.367
79960CL-    CL-43717   0.249   0.864  14.482
79961CL-    CL-43718  10.384   8.162   4.127
79962CL-    CL-43719  25.596   1.348  11.086
79963CL-    CL-43720  34.865  44.273   0.850
79964CL-    CL-43721  30.002  30.003  12.012
79965CL-    CL-43722  27.488   6.725  14.493
79966CL-    CL-43723  44.819  40.832   0.371
79967CL-    CL-43724  30.934  24.544  10.444
79968CL-    CL-43725   3.306  35.414   3.788
79969CL-    CL-43726  32.102  13.705  14.011
79970CL-    CL-43727  10.241  23.076   1.440
79971CL-    CL-43728  41.903   2.418   2.843
79972CL-    CL-43729  10.686  25.000  10.962
79973CL-    CL-43730  20.714  30.474   0.289
79974CL-    CL-43731  19.096  36.080  12.070
79975CL-    CL-43732  35.462  28.006   3.735
79976CL-    CL-43733  16.180   0.273   5.191
79977CL-    CL-43734  13.286  35.537  11.986
79978CL-    CL-43735  29.105  41.935   3.186
79979CL-    CL-43736  11.362  19.598   0.296
79980CL-    CL-43737  36.574  36.559   3.179
79981CL-    CL-43738  28.478  40.377   4.651
79982CL-    CL-43739   7.807  37.017  11.543
79983CL-    CL-43740  22.160   5.815  12.010
79984CL-    CL-43741   5.827  29.922   4.328
79985CL-    CL-43742  22.163  38.515   2.199
79986CL-    CL-43743  14.727   1.914  12.509
79987CL-    CL-43744   9.241  36.889  11.879
79988CL-    CL-43745  18.721  17.764  12.390
79989CL-    CL-43746  13.209  33.933  12.378
79990CL-    CL-43747  26.163   3.925  11.462
79991CL-    CL-43748   6.251   0.845  13.411
79992CL-    CL-43749   4.422  18.233  14.935
79993CL-    CL-43750  23.156  44.809   2.813
79994CL-    CL-43751  42.308  18.740  14.937
79995CL-    CL-43752  20.680  14.623  14.958
79996CL-    CL-43753   8.815  28.107   5.088
79997CL-    CL-43754   6.768   1.359  14.818
79998CL-    CL-43755   5.356  39.491  13.369
79999CL-    CL-43756  18.291  26.585  12.894
80000CL-    CL-43757  19.136  13.738  13.915
80001CL-    CL-43758  22.601  31.951  10.455
80002CL-    CL-43759  43.486  27.184   4.744
80003CL-    CL-43760  17.706  42.359   3.375
80004CL-    CL-43761  18.745  27.152   1.810
80005CL-    CL-43762  38.430  18.765   0.946
80006CL-    CL-43763  33.522  10.813  14.769
80007CL-    CL-43764  41.866   4.700  11.536
80008CL-    CL-43765  14.149  22.691   5.165
80009CL-    CL-43766  42.414  29.631   2.392
80010CL-    CL-43767  26.052   1.359  10.449
80011CL-    CL-43768  18.665  40.022   4.747
80012CL-    CL-43769  31.449  44.981   4.353
80013CL-    CL-43770  15.784  31.439   2.210
80014CL-    CL-43771  19.155   7.852  14.441
80015CL-    CL-43772   2.451  23.236  11.585
80016CL-    CL-43773  12.639   2.350   4.617
80017CL-    CL-43774   9.360  15.176  10.446
80018CL-    CL-43775  29.477  21.084  11.126
80019CL-    CL-43776  27.071  36.026   4.131
80020CL-    CL-43777  33.426  23.694   2.380
80021CL-    CL-43778  27.099  17.215   4.628
80022CL-    CL-43779  19.747  39.893  12.882
80023CL-    CL-43780  12.758  15.313   2.866
80024CL-    CL-43781   2.354   0.346  11.860
80025CL-    CL-43782   6.300   5.248  13.350
80026CL-    CL-43783  40.824  41.529   1.912
80027CL-    CL-43784  20.552   2.910  13.867
80028CL-    CL-43785  14.792  30.548  10.958
80029CL-    CL-43786  21.104   9.781   3.711
80030CL-    CL-43787   6.869  29.483  14.409
80031CL-    CL-43788  10.682  21.620   3.300
80032CL-    CL-43789   2.768   5.770   3.336
80033CL-    CL-43790  15.246  35.362  11.077
80034CL-    CL-43791  27.986  36.057   2.305
80035CL-    CL-43792  22.008  40.407  11.999
80036CL-    CL-43793  19.615  40.893  11.491
80037CL-    CL-43794  16.662  23.630  11.567
80038CL-    CL-43795  15.723  33.037   0.294
80039CL-    CL-43796  31.588  37.859  11.506
80040CL-    CL-43797   2.730  34.897  12.412
80041CL-    CL-43798  33.096   2.306  13.422
80042CL-    CL-43799  23.503   5.787   0.314
80043CL-    CL-43800   9.157   7.866  12.492
80044CL-    CL-43801  21.150   6.811  13.966
80045CL-    CL-43802  11.693   6.861   2.267
80046CL-    CL-43803  40.511  43.425  12.050
80047CL-    CL-43804   1.735  42.925   0.386
80048CL-    CL-43805  30.986  28.941  10.092
80049CL-    CL-43806  28.446  12.153  14.984
80050CL-    CL-43807  27.176   5.225  14.002
80051CL-    CL-43808  25.516  14.736   2.277
80052CL-    CL-43809  17.671  44.420  14.435
80053CL-    CL-43810   6.847  23.069   4.827
80054CL-    CL-43811  18.622  33.903  10.991
80055CL-    CL-43812  16.182  10.243  10.508
80056CL-    CL-43813  31.639  24.051  14.467
80057CL-    CL-43814  11.157  24.125  11.503
80058CL-    CL-43815  12.192  25.545  13.835
80059CL-    CL-43816  17.722   5.262  13.518
80060CL-    CL-43817  12.823  41.826  14.951
80061CL-    CL-43818  36.451  31.562   4.270
80062CL-    CL-43819  21.231  44.452   0.828
80063CL-    CL-43820  27.676  12.664  10.607
80064CL-    CL-43821  15.706  16.636  12.900
80065CL-    CL-43822  19.275  24.629   0.464
80066CL-    CL-43823  44.879  32.473  11.489
80067CL-    CL-43824   5.865  11.248  13.006
80068CL-    CL-43825   6.842  42.283  12.829
80069CL-    CL-43826  35.086   8.879   1.756
80070CL-    CL-43827  28.441  41.475  12.542
80071CL-    CL-43828  41.531  36.887  14.953
80072CL-    CL-43829   5.920  26.085   1.334
80073CL-    CL-43830   7.335   3.458   0.332
80074CL-    CL-43831  10.824  23.594  14.856
80075CL-    CL-43832  40.844  34.392   0.367
80076CL-    CL-43833  11.805  14.812  11.610
80077CL-    CL-43834  28.556   2.846  14.998
80078CL-    CL-43835  14.211  23.603  12.505
80079CL-    CL-43836  29.148  17.172   2.687
80080CL-    CL-43837   0.773  37.532  14.938
80081CL-    CL-43838  44.271   1.422   0.291
80082CL-    CL-43839   1.308   3.380   2.331
80083CL-    CL-43840  27.447  21.032   1.407
80084CL-    CL-43841  16.769   4.894   2.793
80085CL-    CL-43842   6.251  14.208   1.732
80086CL-    CL-43843  38.374  22.667   1.802
80087CL-    CL-43844   6.765  40.500  10.961
80088CL-    CL-43845  41.506  12.855  13.516
80089CL-    CL-43846  12.728  32.122   1.382
80090CL-    CL-43847   9.159  17.097  14.013
80091CL-    CL-43848  28.087  13.322  12.073
80092CL-    CL-43849  37.964   2.462   1.717
80093CL-    CL-43850  44.004  32.138   0.934
80094CL-    CL-43851   9.767   3.329   4.254
80095CL-    CL-43852  32.468  26.459  11.952
80096CL-    CL-43853  43.808  26.090  10.468
80097CL-    CL-43854  38.547  14.655   3.272
80098CL-    CL-43855  15.320  42.364   0.935
80099CL-    CL-43856  26.051  44.503  13.039
80100CL-    CL-43857  23.644  23.033   9.964
  45.00000  45.00000  15.00000   0.00000   0.00000   0.00000   0.00000   0.00000   0.00000

